PSF EXT

      31 !NTITLE
 REMARKS original generated structure x-plor psf file
 REMARKS topology top_all36_cgenff.rtf 
 REMARKS segment SHT { first ; last ; auto none  }
 REMARKS segment ION { first ; last ; auto none  }
 REMARKS segment WT1 { first NONE; last NONE; auto angles dihedrals }
 REMARKS segment WT2 { first NONE; last NONE; auto angles dihedrals }
 REMARKS segment WT3 { first NONE; last NONE; auto angles dihedrals }
 REMARKS segment WT4 { first NONE; last NONE; auto angles dihedrals }
 REMARKS segment WT5 { first NONE; last NONE; auto angles dihedrals }
 REMARKS segment WT6 { first NONE; last NONE; auto angles dihedrals }
 REMARKS segment WT7 { first NONE; last NONE; auto angles dihedrals }
 REMARKS segment WT8 { first NONE; last NONE; auto angles dihedrals }
 REMARKS segment WT9 { first NONE; last NONE; auto angles dihedrals }
 REMARKS segment WT10 { first NONE; last NONE; auto angles dihedrals }
 REMARKS segment WT11 { first NONE; last NONE; auto angles dihedrals }
 REMARKS segment WT12 { first NONE; last NONE; auto angles dihedrals }
 REMARKS segment WT13 { first NONE; last NONE; auto angles dihedrals }
 REMARKS segment WT14 { first NONE; last NONE; auto angles dihedrals }
 REMARKS segment WT15 { first NONE; last NONE; auto angles dihedrals }
 REMARKS segment WT16 { first NONE; last NONE; auto angles dihedrals }
 REMARKS segment WT17 { first NONE; last NONE; auto angles dihedrals }
 REMARKS segment WT18 { first NONE; last NONE; auto angles dihedrals }
 REMARKS segment WT19 { first NONE; last NONE; auto angles dihedrals }
 REMARKS segment WT20 { first NONE; last NONE; auto angles dihedrals }
 REMARKS segment WT21 { first NONE; last NONE; auto angles dihedrals }
 REMARKS segment WT22 { first NONE; last NONE; auto angles dihedrals }
 REMARKS segment WT23 { first NONE; last NONE; auto angles dihedrals }
 REMARKS segment WT24 { first NONE; last NONE; auto angles dihedrals }
 REMARKS segment WT25 { first NONE; last NONE; auto angles dihedrals }
 REMARKS segment WT26 { first NONE; last NONE; auto angles dihedrals }
 REMARKS segment WT27 { first NONE; last NONE; auto angles dihedrals }

   82910 !NATOM
         1 SHT      1        S        C        CA      -0.031624       12.0107           0
         2 SHT      2        S        C        CA      -0.031624       12.0107           0
         3 SHT      3        S        C        CA      -0.031624       12.0107           0
         4 SHT      4        S        C        CA      -0.031624       12.0107           0
         5 SHT      5        S        C        CA      -0.031624       12.0107           0
         6 SHT      6        S        C        CA      -0.031624       12.0107           0
         7 SHT      7        S        C        CA      -0.031624       12.0107           0
         8 SHT      8        S        C        CA      -0.031624       12.0107           0
         9 SHT      9        S        C        CA      -0.031624       12.0107           0
        10 SHT      10       S        C        CA      -0.031624       12.0107           0
        11 SHT      11       S        C        CA      -0.031624       12.0107           0
        12 SHT      12       S        C        CA      -0.031624       12.0107           0
        13 SHT      13       S        C        CA      -0.031624       12.0107           0
        14 SHT      14       S        C        CA      -0.031624       12.0107           0
        15 SHT      15       S        C        CA      -0.031624       12.0107           0
        16 SHT      16       S        C        CA      -0.031624       12.0107           0
        17 SHT      17       S        C        CA      -0.031624       12.0107           0
        18 SHT      18       S        C        CA      -0.031624       12.0107           0
        19 SHT      19       S        C        CA      -0.031624       12.0107           0
        20 SHT      20       S        C        CA      -0.031624       12.0107           0
        21 SHT      21       S        C        CA      -0.031624       12.0107           0
        22 SHT      22       S        C        CA      -0.031624       12.0107           0
        23 SHT      23       S        C        CA      -0.031624       12.0107           0
        24 SHT      24       S        C        CA      -0.031624       12.0107           0
        25 SHT      25       S        C        CA      -0.031624       12.0107           0
        26 SHT      26       S        C        CA      -0.031624       12.0107           0
        27 SHT      27       S        C        CA      -0.031624       12.0107           0
        28 SHT      28       S        C        CA      -0.031624       12.0107           0
        29 SHT      29       S        C        CA      -0.031624       12.0107           0
        30 SHT      30       S        C        CA      -0.031624       12.0107           0
        31 SHT      31       S        C        CA      -0.031624       12.0107           0
        32 SHT      32       S        C        CA      -0.031624       12.0107           0
        33 SHT      33       S        C        CA      -0.031624       12.0107           0
        34 SHT      34       S        C        CA      -0.031624       12.0107           0
        35 SHT      35       S        C        CA      -0.031624       12.0107           0
        36 SHT      36       S        C        CA      -0.031624       12.0107           0
        37 SHT      37       S        C        CA      -0.031624       12.0107           0
        38 SHT      38       S        C        CA      -0.031624       12.0107           0
        39 SHT      39       S        C        CA      -0.031624       12.0107           0
        40 SHT      40       S        C        CA      -0.031624       12.0107           0
        41 SHT      41       S        C        CA      -0.031624       12.0107           0
        42 SHT      42       S        C        CA      -0.031624       12.0107           0
        43 SHT      43       S        C        CA      -0.031624       12.0107           0
        44 SHT      44       S        C        CA      -0.031624       12.0107           0
        45 SHT      45       S        C        CA      -0.031624       12.0107           0
        46 SHT      46       S        C        CA      -0.031624       12.0107           0
        47 SHT      47       S        C        CA      -0.031624       12.0107           0
        48 SHT      48       S        C        CA      -0.031624       12.0107           0
        49 SHT      49       S        C        CA      -0.031624       12.0107           0
        50 SHT      50       S        C        CA      -0.031624       12.0107           0
        51 SHT      51       S        C        CA      -0.031624       12.0107           0
        52 SHT      52       S        C        CA      -0.031624       12.0107           0
        53 SHT      53       S        C        CA      -0.031624       12.0107           0
        54 SHT      54       S        C        CA      -0.031624       12.0107           0
        55 SHT      55       S        C        CA      -0.031624       12.0107           0
        56 SHT      56       S        C        CA      -0.031624       12.0107           0
        57 SHT      57       S        C        CA      -0.031624       12.0107           0
        58 SHT      58       S        C        CA      -0.031624       12.0107           0
        59 SHT      59       S        C        CA      -0.031624       12.0107           0
        60 SHT      60       S        C        CA      -0.031624       12.0107           0
        61 SHT      61       S        C        CA      -0.031624       12.0107           0
        62 SHT      62       S        C        CA      -0.031624       12.0107           0
        63 SHT      63       S        C        CA      -0.031624       12.0107           0
        64 SHT      64       S        C        CA      -0.031624       12.0107           0
        65 SHT      65       S        C        CA      -0.031624       12.0107           0
        66 SHT      66       S        C        CA      -0.031624       12.0107           0
        67 SHT      67       S        C        CA      -0.031624       12.0107           0
        68 SHT      68       S        C        CA      -0.031624       12.0107           0
        69 SHT      69       S        C        CA      -0.031624       12.0107           0
        70 SHT      70       S        C        CA      -0.031624       12.0107           0
        71 SHT      71       S        C        CA      -0.031624       12.0107           0
        72 SHT      72       S        C        CA      -0.031624       12.0107           0
        73 SHT      73       S        C        CA      -0.031624       12.0107           0
        74 SHT      74       S        C        CA      -0.031624       12.0107           0
        75 SHT      75       S        C        CA      -0.031624       12.0107           0
        76 SHT      76       S        C        CA      -0.031624       12.0107           0
        77 SHT      77       S        C        CA      -0.031624       12.0107           0
        78 SHT      78       S        C        CA      -0.031624       12.0107           0
        79 SHT      79       S        C        CA      -0.031624       12.0107           0
        80 SHT      80       S        C        CA      -0.031624       12.0107           0
        81 SHT      81       S        C        CA      -0.031624       12.0107           0
        82 SHT      82       S        C        CA      -0.031624       12.0107           0
        83 SHT      83       S        C        CA      -0.031624       12.0107           0
        84 SHT      84       S        C        CA      -0.031624       12.0107           0
        85 SHT      85       S        C        CA      -0.031624       12.0107           0
        86 SHT      86       S        C        CA      -0.031624       12.0107           0
        87 SHT      87       S        C        CA      -0.031624       12.0107           0
        88 SHT      88       S        C        CA      -0.031624       12.0107           0
        89 SHT      89       S        C        CA      -0.031624       12.0107           0
        90 SHT      90       S        C        CA      -0.031624       12.0107           0
        91 SHT      91       S        C        CA      -0.031624       12.0107           0
        92 SHT      92       S        C        CA      -0.031624       12.0107           0
        93 SHT      93       S        C        CA      -0.031624       12.0107           0
        94 SHT      94       S        C        CA      -0.031624       12.0107           0
        95 SHT      95       S        C        CA      -0.031624       12.0107           0
        96 SHT      96       S        C        CA      -0.031624       12.0107           0
        97 SHT      97       S        C        CA      -0.031624       12.0107           0
        98 SHT      98       S        C        CA      -0.031624       12.0107           0
        99 SHT      99       S        C        CA      -0.031624       12.0107           0
       100 SHT      100      S        C        CA      -0.031624       12.0107           0
       101 SHT      101      S        C        CA      -0.031624       12.0107           0
       102 SHT      102      S        C        CA      -0.031624       12.0107           0
       103 SHT      103      S        C        CA      -0.031624       12.0107           0
       104 SHT      104      S        C        CA      -0.031624       12.0107           0
       105 SHT      105      S        C        CA      -0.031624       12.0107           0
       106 SHT      106      S        C        CA      -0.031624       12.0107           0
       107 SHT      107      S        C        CA      -0.031624       12.0107           0
       108 SHT      108      S        C        CA      -0.031624       12.0107           0
       109 SHT      109      S        C        CA      -0.031624       12.0107           0
       110 SHT      110      S        C        CA      -0.031624       12.0107           0
       111 SHT      111      S        C        CA      -0.031624       12.0107           0
       112 SHT      112      S        C        CA      -0.031624       12.0107           0
       113 SHT      113      S        C        CA      -0.031624       12.0107           0
       114 SHT      114      S        C        CA      -0.031624       12.0107           0
       115 SHT      115      S        C        CA      -0.031624       12.0107           0
       116 SHT      116      S        C        CA      -0.031624       12.0107           0
       117 SHT      117      S        C        CA      -0.031624       12.0107           0
       118 SHT      118      S        C        CA      -0.031624       12.0107           0
       119 SHT      119      S        C        CA      -0.031624       12.0107           0
       120 SHT      120      S        C        CA      -0.031624       12.0107           0
       121 SHT      121      S        C        CA      -0.031624       12.0107           0
       122 SHT      122      S        C        CA      -0.031624       12.0107           0
       123 SHT      123      S        C        CA      -0.031624       12.0107           0
       124 SHT      124      S        C        CA      -0.031624       12.0107           0
       125 SHT      125      S        C        CA      -0.031624       12.0107           0
       126 SHT      126      S        C        CA      -0.031624       12.0107           0
       127 SHT      127      S        C        CA      -0.031624       12.0107           0
       128 SHT      128      S        C        CA      -0.031624       12.0107           0
       129 SHT      129      S        C        CA      -0.031624       12.0107           0
       130 SHT      130      S        C        CA      -0.031624       12.0107           0
       131 SHT      131      S        C        CA      -0.031624       12.0107           0
       132 SHT      132      S        C        CA      -0.031624       12.0107           0
       133 SHT      133      S        C        CA      -0.031624       12.0107           0
       134 SHT      134      S        C        CA      -0.031624       12.0107           0
       135 SHT      135      S        C        CA      -0.031624       12.0107           0
       136 SHT      136      S        C        CA      -0.031624       12.0107           0
       137 SHT      137      S        C        CA      -0.031624       12.0107           0
       138 SHT      138      S        C        CA      -0.031624       12.0107           0
       139 SHT      139      S        C        CA      -0.031624       12.0107           0
       140 SHT      140      S        C        CA      -0.031624       12.0107           0
       141 SHT      141      S        C        CA      -0.031624       12.0107           0
       142 SHT      142      S        C        CA      -0.031624       12.0107           0
       143 SHT      143      S        C        CA      -0.031624       12.0107           0
       144 SHT      144      S        C        CA      -0.031624       12.0107           0
       145 SHT      145      S        C        CA      -0.031624       12.0107           0
       146 SHT      146      S        C        CA      -0.031624       12.0107           0
       147 SHT      147      S        C        CA      -0.031624       12.0107           0
       148 SHT      148      S        C        CA      -0.031624       12.0107           0
       149 SHT      149      S        C        CA      -0.031624       12.0107           0
       150 SHT      150      S        C        CA      -0.031624       12.0107           0
       151 SHT      151      S        C        CA      -0.031624       12.0107           0
       152 SHT      152      S        C        CA      -0.031624       12.0107           0
       153 SHT      153      S        C        CA      -0.031624       12.0107           0
       154 SHT      154      S        C        CA      -0.031624       12.0107           0
       155 SHT      155      S        C        CA      -0.031624       12.0107           0
       156 SHT      156      S        C        CA      -0.031624       12.0107           0
       157 SHT      157      S        C        CA      -0.031624       12.0107           0
       158 SHT      158      S        C        CA      -0.031624       12.0107           0
       159 SHT      159      S        C        CA      -0.031624       12.0107           0
       160 SHT      160      S        C        CA      -0.031624       12.0107           0
       161 SHT      161      S        C        CA      -0.031624       12.0107           0
       162 SHT      162      S        C        CA      -0.031624       12.0107           0
       163 SHT      163      S        C        CA      -0.031624       12.0107           0
       164 SHT      164      S        C        CA      -0.031624       12.0107           0
       165 SHT      165      S        C        CA      -0.031624       12.0107           0
       166 SHT      166      S        C        CA      -0.031624       12.0107           0
       167 SHT      167      S        C        CA      -0.031624       12.0107           0
       168 SHT      168      S        C        CA      -0.031624       12.0107           0
       169 SHT      169      S        C        CA      -0.031624       12.0107           0
       170 SHT      170      S        C        CA      -0.031624       12.0107           0
       171 SHT      171      S        C        CA      -0.031624       12.0107           0
       172 SHT      172      S        C        CA      -0.031624       12.0107           0
       173 SHT      173      S        C        CA      -0.031624       12.0107           0
       174 SHT      174      S        C        CA      -0.031624       12.0107           0
       175 SHT      175      S        C        CA      -0.031624       12.0107           0
       176 SHT      176      S        C        CA      -0.031624       12.0107           0
       177 SHT      177      S        C        CA      -0.031624       12.0107           0
       178 SHT      178      S        C        CA      -0.031624       12.0107           0
       179 SHT      179      S        C        CA      -0.031624       12.0107           0
       180 SHT      180      S        C        CA      -0.031624       12.0107           0
       181 SHT      181      S        C        CA      -0.031624       12.0107           0
       182 SHT      182      S        C        CA      -0.031624       12.0107           0
       183 SHT      183      S        C        CA      -0.031624       12.0107           0
       184 SHT      184      S        C        CA      -0.031624       12.0107           0
       185 SHT      185      S        C        CA      -0.031624       12.0107           0
       186 SHT      186      S        C        CA      -0.031624       12.0107           0
       187 SHT      187      S        C        CA      -0.031624       12.0107           0
       188 SHT      188      S        C        CA      -0.031624       12.0107           0
       189 SHT      189      S        C        CA      -0.031624       12.0107           0
       190 SHT      190      S        C        CA      -0.031624       12.0107           0
       191 SHT      191      S        C        CA      -0.031624       12.0107           0
       192 SHT      192      S        C        CA      -0.031624       12.0107           0
       193 SHT      193      S        C        CA      -0.031624       12.0107           0
       194 SHT      194      S        C        CA      -0.031624       12.0107           0
       195 SHT      195      S        C        CA      -0.031624       12.0107           0
       196 SHT      196      S        C        CA      -0.031624       12.0107           0
       197 SHT      197      S        C        CA      -0.031624       12.0107           0
       198 SHT      198      S        C        CA      -0.031624       12.0107           0
       199 SHT      199      S        C        CA      -0.031624       12.0107           0
       200 SHT      200      S        C        CA      -0.031624       12.0107           0
       201 SHT      201      S        C        CA      -0.031624       12.0107           0
       202 SHT      202      S        C        CA      -0.031624       12.0107           0
       203 SHT      203      S        C        CA      -0.031624       12.0107           0
       204 SHT      204      S        C        CA      -0.031624       12.0107           0
       205 SHT      205      S        C        CA      -0.031624       12.0107           0
       206 SHT      206      S        C        CA      -0.031624       12.0107           0
       207 SHT      207      S        C        CA      -0.031624       12.0107           0
       208 SHT      208      S        C        CA      -0.031624       12.0107           0
       209 SHT      209      S        C        CA      -0.031624       12.0107           0
       210 SHT      210      S        C        CA      -0.031624       12.0107           0
       211 SHT      211      S        C        CA      -0.031624       12.0107           0
       212 SHT      212      S        C        CA      -0.031624       12.0107           0
       213 SHT      213      S        C        CA      -0.031624       12.0107           0
       214 SHT      214      S        C        CA      -0.031624       12.0107           0
       215 SHT      215      S        C        CA      -0.031624       12.0107           0
       216 SHT      216      S        C        CA      -0.031624       12.0107           0
       217 SHT      217      S        C        CA      -0.031624       12.0107           0
       218 SHT      218      S        C        CA      -0.031624       12.0107           0
       219 SHT      219      S        C        CA      -0.031624       12.0107           0
       220 SHT      220      S        C        CA      -0.031624       12.0107           0
       221 SHT      221      S        C        CA      -0.031624       12.0107           0
       222 SHT      222      S        C        CA      -0.031624       12.0107           0
       223 SHT      223      S        C        CA      -0.031624       12.0107           0
       224 SHT      224      S        C        CA      -0.031624       12.0107           0
       225 SHT      225      S        C        CA      -0.031624       12.0107           0
       226 SHT      226      S        C        CA      -0.031624       12.0107           0
       227 SHT      227      S        C        CA      -0.031624       12.0107           0
       228 SHT      228      S        C        CA      -0.031624       12.0107           0
       229 SHT      229      S        C        CA      -0.031624       12.0107           0
       230 SHT      230      S        C        CA      -0.031624       12.0107           0
       231 SHT      231      S        C        CA      -0.031624       12.0107           0
       232 SHT      232      S        C        CA      -0.031624       12.0107           0
       233 SHT      233      S        C        CA      -0.031624       12.0107           0
       234 SHT      234      S        C        CA      -0.031624       12.0107           0
       235 SHT      235      S        C        CA      -0.031624       12.0107           0
       236 SHT      236      S        C        CA      -0.031624       12.0107           0
       237 SHT      237      S        C        CA      -0.031624       12.0107           0
       238 SHT      238      S        C        CA      -0.031624       12.0107           0
       239 SHT      239      S        C        CA      -0.031624       12.0107           0
       240 SHT      240      S        C        CA      -0.031624       12.0107           0
       241 SHT      241      S        C        CA      -0.031624       12.0107           0
       242 SHT      242      S        C        CA      -0.031624       12.0107           0
       243 SHT      243      S        C        CA      -0.031624       12.0107           0
       244 SHT      244      S        C        CA      -0.031624       12.0107           0
       245 SHT      245      S        C        CA      -0.031624       12.0107           0
       246 SHT      246      S        C        CA      -0.031624       12.0107           0
       247 SHT      247      S        C        CA      -0.031624       12.0107           0
       248 SHT      248      S        C        CA      -0.031624       12.0107           0
       249 SHT      249      S        C        CA      -0.031624       12.0107           0
       250 SHT      250      S        C        CA      -0.031624       12.0107           0
       251 SHT      251      S        C        CA      -0.031624       12.0107           0
       252 SHT      252      S        C        CA      -0.031624       12.0107           0
       253 SHT      253      S        C        CA      -0.031624       12.0107           0
       254 SHT      254      S        C        CA      -0.031624       12.0107           0
       255 SHT      255      S        C        CA      -0.031624       12.0107           0
       256 SHT      256      S        C        CA      -0.031624       12.0107           0
       257 SHT      257      S        C        CA      -0.031624       12.0107           0
       258 SHT      258      S        C        CA      -0.031624       12.0107           0
       259 SHT      259      S        C        CA      -0.031624       12.0107           0
       260 SHT      260      S        C        CA      -0.031624       12.0107           0
       261 SHT      261      S        C        CA      -0.031624       12.0107           0
       262 SHT      262      S        C        CA      -0.031624       12.0107           0
       263 SHT      263      S        C        CA      -0.031624       12.0107           0
       264 SHT      264      S        C        CA      -0.031624       12.0107           0
       265 SHT      265      S        C        CA      -0.031624       12.0107           0
       266 SHT      266      S        C        CA      -0.031624       12.0107           0
       267 SHT      267      S        C        CA      -0.031624       12.0107           0
       268 SHT      268      S        C        CA      -0.031624       12.0107           0
       269 SHT      269      S        C        CA      -0.031624       12.0107           0
       270 SHT      270      S        C        CA      -0.031624       12.0107           0
       271 SHT      271      S        C        CA      -0.031624       12.0107           0
       272 SHT      272      S        C        CA      -0.031624       12.0107           0
       273 SHT      273      S        C        CA      -0.031624       12.0107           0
       274 SHT      274      S        C        CA      -0.031624       12.0107           0
       275 SHT      275      S        C        CA      -0.031624       12.0107           0
       276 SHT      276      S        C        CA      -0.031624       12.0107           0
       277 SHT      277      S        C        CA      -0.031624       12.0107           0
       278 SHT      278      S        C        CA      -0.031624       12.0107           0
       279 SHT      279      S        C        CA      -0.031624       12.0107           0
       280 SHT      280      S        C        CA      -0.031624       12.0107           0
       281 SHT      281      S        C        CA      -0.031624       12.0107           0
       282 SHT      282      S        C        CA      -0.031624       12.0107           0
       283 SHT      283      S        C        CA      -0.031624       12.0107           0
       284 SHT      284      S        C        CA      -0.031624       12.0107           0
       285 SHT      285      S        C        CA      -0.031624       12.0107           0
       286 SHT      286      S        C        CA      -0.031624       12.0107           0
       287 SHT      287      S        C        CA      -0.031624       12.0107           0
       288 SHT      288      S        C        CA      -0.031624       12.0107           0
       289 SHT      289      S        C        CA      -0.031624       12.0107           0
       290 SHT      290      S        C        CA      -0.031624       12.0107           0
       291 SHT      291      S        C        CA      -0.031624       12.0107           0
       292 SHT      292      S        C        CA      -0.031624       12.0107           0
       293 SHT      293      S        C        CA      -0.031624       12.0107           0
       294 SHT      294      S        C        CA      -0.031624       12.0107           0
       295 SHT      295      S        C        CA      -0.031624       12.0107           0
       296 SHT      296      S        C        CA      -0.031624       12.0107           0
       297 SHT      297      S        C        CA      -0.031624       12.0107           0
       298 SHT      298      S        C        CA      -0.031624       12.0107           0
       299 SHT      299      S        C        CA      -0.031624       12.0107           0
       300 SHT      300      S        C        CA      -0.031624       12.0107           0
       301 SHT      301      S        C        CA      -0.031624       12.0107           0
       302 SHT      302      S        C        CA      -0.031624       12.0107           0
       303 SHT      303      S        C        CA      -0.031624       12.0107           0
       304 SHT      304      S        C        CA      -0.031624       12.0107           0
       305 SHT      305      S        C        CA      -0.031624       12.0107           0
       306 SHT      306      S        C        CA      -0.031624       12.0107           0
       307 SHT      307      S        C        CA      -0.031624       12.0107           0
       308 SHT      308      S        C        CA      -0.031624       12.0107           0
       309 SHT      309      S        C        CA      -0.031624       12.0107           0
       310 SHT      310      S        C        CA      -0.031624       12.0107           0
       311 SHT      311      S        C        CA      -0.031624       12.0107           0
       312 SHT      312      S        C        CA      -0.031624       12.0107           0
       313 SHT      313      S        C        CA      -0.031624       12.0107           0
       314 SHT      314      S        C        CA      -0.031624       12.0107           0
       315 SHT      315      S        C        CA      -0.031624       12.0107           0
       316 SHT      316      S        C        CA      -0.031624       12.0107           0
       317 SHT      317      S        C        CA      -0.031624       12.0107           0
       318 SHT      318      S        C        CA      -0.031624       12.0107           0
       319 SHT      319      S        C        CA      -0.031624       12.0107           0
       320 SHT      320      S        C        CA      -0.031624       12.0107           0
       321 SHT      321      S        C        CA      -0.031624       12.0107           0
       322 SHT      322      S        C        CA      -0.031624       12.0107           0
       323 SHT      323      S        C        CA      -0.031624       12.0107           0
       324 SHT      324      S        C        CA      -0.031624       12.0107           0
       325 SHT      325      S        C        CA      -0.031624       12.0107           0
       326 SHT      326      S        C        CA      -0.031624       12.0107           0
       327 SHT      327      S        C        CA      -0.031624       12.0107           0
       328 SHT      328      S        C        CA      -0.031624       12.0107           0
       329 SHT      329      S        C        CA      -0.031624       12.0107           0
       330 SHT      330      S        C        CA      -0.031624       12.0107           0
       331 SHT      331      S        C        CA      -0.031624       12.0107           0
       332 SHT      332      S        C        CA      -0.031624       12.0107           0
       333 SHT      333      S        C        CA      -0.031624       12.0107           0
       334 SHT      334      S        C        CA      -0.031624       12.0107           0
       335 SHT      335      S        C        CA      -0.031624       12.0107           0
       336 SHT      336      S        C        CA      -0.031624       12.0107           0
       337 SHT      337      S        C        CA      -0.031624       12.0107           0
       338 SHT      338      S        C        CA      -0.031624       12.0107           0
       339 SHT      339      S        C        CA      -0.031624       12.0107           0
       340 SHT      340      S        C        CA      -0.031624       12.0107           0
       341 SHT      341      S        C        CA      -0.031624       12.0107           0
       342 SHT      342      S        C        CA      -0.031624       12.0107           0
       343 SHT      343      S        C        CA      -0.031624       12.0107           0
       344 SHT      344      S        C        CA      -0.031624       12.0107           0
       345 SHT      345      S        C        CA      -0.031624       12.0107           0
       346 SHT      346      S        C        CA      -0.031624       12.0107           0
       347 SHT      347      S        C        CA      -0.031624       12.0107           0
       348 SHT      348      S        C        CA      -0.031624       12.0107           0
       349 SHT      349      S        C        CA      -0.031624       12.0107           0
       350 SHT      350      S        C        CA      -0.031624       12.0107           0
       351 SHT      351      S        C        CA      -0.031624       12.0107           0
       352 SHT      352      S        C        CA      -0.031624       12.0107           0
       353 SHT      353      S        C        CA      -0.031624       12.0107           0
       354 SHT      354      S        C        CA      -0.031624       12.0107           0
       355 SHT      355      S        C        CA      -0.031624       12.0107           0
       356 SHT      356      S        C        CA      -0.031624       12.0107           0
       357 SHT      357      S        C        CA      -0.031624       12.0107           0
       358 SHT      358      S        C        CA      -0.031624       12.0107           0
       359 SHT      359      S        C        CA      -0.031624       12.0107           0
       360 SHT      360      S        C        CA      -0.031624       12.0107           0
       361 SHT      361      S        C        CA      -0.031624       12.0107           0
       362 SHT      362      S        C        CA      -0.031624       12.0107           0
       363 SHT      363      S        C        CA      -0.031624       12.0107           0
       364 SHT      364      S        C        CA      -0.031624       12.0107           0
       365 SHT      365      S        C        CA      -0.031624       12.0107           0
       366 SHT      366      S        C        CA      -0.031624       12.0107           0
       367 SHT      367      S        C        CA      -0.031624       12.0107           0
       368 SHT      368      S        C        CA      -0.031624       12.0107           0
       369 SHT      369      S        C        CA      -0.031624       12.0107           0
       370 SHT      370      S        C        CA      -0.031624       12.0107           0
       371 SHT      371      S        C        CA      -0.031624       12.0107           0
       372 SHT      372      S        C        CA      -0.031624       12.0107           0
       373 SHT      373      S        C        CA      -0.031624       12.0107           0
       374 SHT      374      S        C        CA      -0.031624       12.0107           0
       375 SHT      375      S        C        CA      -0.031624       12.0107           0
       376 SHT      376      S        C        CA      -0.031624       12.0107           0
       377 SHT      377      S        C        CA      -0.031624       12.0107           0
       378 SHT      378      S        C        CA      -0.031624       12.0107           0
       379 SHT      379      S        C        CA      -0.031624       12.0107           0
       380 SHT      380      S        C        CA      -0.031624       12.0107           0
       381 SHT      381      S        C        CA      -0.031624       12.0107           0
       382 SHT      382      S        C        CA      -0.031624       12.0107           0
       383 SHT      383      S        C        CA      -0.031624       12.0107           0
       384 SHT      384      S        C        CA      -0.031624       12.0107           0
       385 SHT      385      S        C        CA      -0.031624       12.0107           0
       386 SHT      386      S        C        CA      -0.031624       12.0107           0
       387 SHT      387      S        C        CA      -0.031624       12.0107           0
       388 SHT      388      S        C        CA      -0.031624       12.0107           0
       389 SHT      389      S        C        CA      -0.031624       12.0107           0
       390 SHT      390      S        C        CA      -0.031624       12.0107           0
       391 SHT      391      S        C        CA      -0.031624       12.0107           0
       392 SHT      392      S        C        CA      -0.031624       12.0107           0
       393 SHT      393      S        C        CA      -0.031624       12.0107           0
       394 SHT      394      S        C        CA      -0.031624       12.0107           0
       395 SHT      395      S        C        CA      -0.031624       12.0107           0
       396 SHT      396      S        C        CA      -0.031624       12.0107           0
       397 SHT      397      S        C        CA      -0.031624       12.0107           0
       398 SHT      398      S        C        CA      -0.031624       12.0107           0
       399 SHT      399      S        C        CA      -0.031624       12.0107           0
       400 SHT      400      S        C        CA      -0.031624       12.0107           0
       401 SHT      401      S        C        CA      -0.031624       12.0107           0
       402 SHT      402      S        C        CA      -0.031624       12.0107           0
       403 SHT      403      S        C        CA      -0.031624       12.0107           0
       404 SHT      404      S        C        CA      -0.031624       12.0107           0
       405 SHT      405      S        C        CA      -0.031624       12.0107           0
       406 SHT      406      S        C        CA      -0.031624       12.0107           0
       407 SHT      407      S        C        CA      -0.031624       12.0107           0
       408 SHT      408      S        C        CA      -0.031624       12.0107           0
       409 SHT      409      S        C        CA      -0.031624       12.0107           0
       410 SHT      410      S        C        CA      -0.031624       12.0107           0
       411 SHT      411      S        C        CA      -0.031624       12.0107           0
       412 SHT      412      S        C        CA      -0.031624       12.0107           0
       413 SHT      413      S        C        CA      -0.031624       12.0107           0
       414 SHT      414      S        C        CA      -0.031624       12.0107           0
       415 SHT      415      S        C        CA      -0.031624       12.0107           0
       416 SHT      416      S        C        CA      -0.031624       12.0107           0
       417 SHT      417      S        C        CA      -0.031624       12.0107           0
       418 SHT      418      S        C        CA      -0.031624       12.0107           0
       419 SHT      419      S        C        CA      -0.031624       12.0107           0
       420 SHT      420      S        C        CA      -0.031624       12.0107           0
       421 SHT      421      S        C        CA      -0.031624       12.0107           0
       422 SHT      422      S        C        CA      -0.031624       12.0107           0
       423 SHT      423      S        C        CA      -0.031624       12.0107           0
       424 SHT      424      S        C        CA      -0.031624       12.0107           0
       425 SHT      425      S        C        CA      -0.031624       12.0107           0
       426 SHT      426      S        C        CA      -0.031624       12.0107           0
       427 SHT      427      S        C        CA      -0.031624       12.0107           0
       428 SHT      428      S        C        CA      -0.031624       12.0107           0
       429 SHT      429      S        C        CA      -0.031624       12.0107           0
       430 SHT      430      S        C        CA      -0.031624       12.0107           0
       431 SHT      431      S        C        CA      -0.031624       12.0107           0
       432 SHT      432      S        C        CA      -0.031624       12.0107           0
       433 SHT      433      S        C        CA      -0.031624       12.0107           0
       434 SHT      434      S        C        CA      -0.031624       12.0107           0
       435 SHT      435      S        C        CA      -0.031624       12.0107           0
       436 SHT      436      S        C        CA      -0.031624       12.0107           0
       437 SHT      437      S        C        CA      -0.031624       12.0107           0
       438 SHT      438      S        C        CA      -0.031624       12.0107           0
       439 SHT      439      S        C        CA      -0.031624       12.0107           0
       440 SHT      440      S        C        CA      -0.031624       12.0107           0
       441 SHT      441      S        C        CA      -0.031624       12.0107           0
       442 SHT      442      S        C        CA      -0.031624       12.0107           0
       443 SHT      443      S        C        CA      -0.031624       12.0107           0
       444 SHT      444      S        C        CA      -0.031624       12.0107           0
       445 SHT      445      S        C        CA      -0.031624       12.0107           0
       446 SHT      446      S        C        CA      -0.031624       12.0107           0
       447 SHT      447      S        C        CA      -0.031624       12.0107           0
       448 SHT      448      S        C        CA      -0.031624       12.0107           0
       449 SHT      449      S        C        CA      -0.031624       12.0107           0
       450 SHT      450      S        C        CA      -0.031624       12.0107           0
       451 SHT      451      S        C        CA      -0.031624       12.0107           0
       452 SHT      452      S        C        CA      -0.031624       12.0107           0
       453 SHT      453      S        C        CA      -0.031624       12.0107           0
       454 SHT      454      S        C        CA      -0.031624       12.0107           0
       455 SHT      455      S        C        CA      -0.031624       12.0107           0
       456 SHT      456      S        C        CA      -0.031624       12.0107           0
       457 SHT      457      S        C        CA      -0.031624       12.0107           0
       458 SHT      458      S        C        CA      -0.031624       12.0107           0
       459 SHT      459      S        C        CA      -0.031624       12.0107           0
       460 SHT      460      S        C        CA      -0.031624       12.0107           0
       461 SHT      461      S        C        CA      -0.031624       12.0107           0
       462 SHT      462      S        C        CA      -0.031624       12.0107           0
       463 SHT      463      S        C        CA      -0.031624       12.0107           0
       464 SHT      464      S        C        CA      -0.031624       12.0107           0
       465 SHT      465      S        C        CA      -0.031624       12.0107           0
       466 SHT      466      S        C        CA      -0.031624       12.0107           0
       467 SHT      467      S        C        CA      -0.031624       12.0107           0
       468 SHT      468      S        C        CA      -0.031624       12.0107           0
       469 SHT      469      S        C        CA      -0.031624       12.0107           0
       470 SHT      470      S        C        CA      -0.031624       12.0107           0
       471 SHT      471      S        C        CA      -0.031624       12.0107           0
       472 SHT      472      S        C        CA      -0.031624       12.0107           0
       473 SHT      473      S        C        CA      -0.031624       12.0107           0
       474 SHT      474      S        C        CA      -0.031624       12.0107           0
       475 SHT      475      S        C        CA      -0.031624       12.0107           0
       476 SHT      476      S        C        CA      -0.031624       12.0107           0
       477 SHT      477      S        C        CA      -0.031624       12.0107           0
       478 SHT      478      S        C        CA      -0.031624       12.0107           0
       479 SHT      479      S        C        CA      -0.031624       12.0107           0
       480 SHT      480      S        C        CA      -0.031624       12.0107           0
       481 SHT      481      S        C        CA      -0.031624       12.0107           0
       482 SHT      482      S        C        CA      -0.031624       12.0107           0
       483 SHT      483      S        C        CA      -0.031624       12.0107           0
       484 SHT      484      S        C        CA      -0.031624       12.0107           0
       485 SHT      485      S        C        CA      -0.031624       12.0107           0
       486 SHT      486      S        C        CA      -0.031624       12.0107           0
       487 SHT      487      S        C        CA      -0.031624       12.0107           0
       488 SHT      488      S        C        CA      -0.031624       12.0107           0
       489 SHT      489      S        C        CA      -0.031624       12.0107           0
       490 SHT      490      S        C        CA      -0.031624       12.0107           0
       491 SHT      491      S        C        CA      -0.031624       12.0107           0
       492 SHT      492      S        C        CA      -0.031624       12.0107           0
       493 SHT      493      S        C        CA      -0.031624       12.0107           0
       494 SHT      494      S        C        CA      -0.031624       12.0107           0
       495 SHT      495      S        C        CA      -0.031624       12.0107           0
       496 SHT      496      S        C        CA      -0.031624       12.0107           0
       497 SHT      497      S        C        CA      -0.031624       12.0107           0
       498 SHT      498      S        C        CA      -0.031624       12.0107           0
       499 SHT      499      S        C        CA      -0.031624       12.0107           0
       500 SHT      500      S        C        CA      -0.031624       12.0107           0
       501 SHT      501      S        C        CA      -0.031624       12.0107           0
       502 SHT      502      S        C        CA      -0.031624       12.0107           0
       503 SHT      503      S        C        CA      -0.031624       12.0107           0
       504 SHT      504      S        C        CA      -0.031624       12.0107           0
       505 SHT      505      S        C        CA      -0.031624       12.0107           0
       506 SHT      506      S        C        CA      -0.031624       12.0107           0
       507 SHT      507      S        C        CA      -0.031624       12.0107           0
       508 SHT      508      S        C        CA      -0.031624       12.0107           0
       509 SHT      509      S        C        CA      -0.031624       12.0107           0
       510 SHT      510      S        C        CA      -0.031624       12.0107           0
       511 SHT      511      S        C        CA      -0.031624       12.0107           0
       512 SHT      512      S        C        CA      -0.031624       12.0107           0
       513 SHT      513      S        C        CA      -0.031624       12.0107           0
       514 SHT      514      S        C        CA      -0.031624       12.0107           0
       515 SHT      515      S        C        CA      -0.031624       12.0107           0
       516 SHT      516      S        C        CA      -0.031624       12.0107           0
       517 SHT      517      S        C        CA      -0.031624       12.0107           0
       518 SHT      518      S        C        CA      -0.031624       12.0107           0
       519 SHT      519      S        C        CA      -0.031624       12.0107           0
       520 SHT      520      S        C        CA      -0.031624       12.0107           0
       521 SHT      521      S        C        CA      -0.031624       12.0107           0
       522 SHT      522      S        C        CA      -0.031624       12.0107           0
       523 SHT      523      S        C        CA      -0.031624       12.0107           0
       524 SHT      524      S        C        CA      -0.031624       12.0107           0
       525 SHT      525      S        C        CA      -0.031624       12.0107           0
       526 SHT      526      S        C        CA      -0.031624       12.0107           0
       527 SHT      527      S        C        CA      -0.031624       12.0107           0
       528 SHT      528      S        C        CA      -0.031624       12.0107           0
       529 SHT      529      S        C        CA      -0.031624       12.0107           0
       530 SHT      530      S        C        CA      -0.031624       12.0107           0
       531 SHT      531      S        C        CA      -0.031624       12.0107           0
       532 SHT      532      S        C        CA      -0.031624       12.0107           0
       533 SHT      533      S        C        CA      -0.031624       12.0107           0
       534 SHT      534      S        C        CA      -0.031624       12.0107           0
       535 SHT      535      S        C        CA      -0.031624       12.0107           0
       536 SHT      536      S        C        CA      -0.031624       12.0107           0
       537 SHT      537      S        C        CA      -0.031624       12.0107           0
       538 SHT      538      S        C        CA      -0.031624       12.0107           0
       539 SHT      539      S        C        CA      -0.031624       12.0107           0
       540 SHT      540      S        C        CA      -0.031624       12.0107           0
       541 SHT      541      S        C        CA      -0.031624       12.0107           0
       542 SHT      542      S        C        CA      -0.031624       12.0107           0
       543 SHT      543      S        C        CA      -0.031624       12.0107           0
       544 SHT      544      S        C        CA      -0.031624       12.0107           0
       545 SHT      545      S        C        CA      -0.031624       12.0107           0
       546 SHT      546      S        C        CA      -0.031624       12.0107           0
       547 SHT      547      S        C        CA      -0.031624       12.0107           0
       548 SHT      548      S        C        CA      -0.031624       12.0107           0
       549 SHT      549      S        C        CA      -0.031624       12.0107           0
       550 SHT      550      S        C        CA      -0.031624       12.0107           0
       551 SHT      551      S        C        CA      -0.031624       12.0107           0
       552 SHT      552      S        C        CA      -0.031624       12.0107           0
       553 SHT      553      S        C        CA      -0.031624       12.0107           0
       554 SHT      554      S        C        CA      -0.031624       12.0107           0
       555 SHT      555      S        C        CA      -0.031624       12.0107           0
       556 SHT      556      S        C        CA      -0.031624       12.0107           0
       557 SHT      557      S        C        CA      -0.031624       12.0107           0
       558 SHT      558      S        C        CA      -0.031624       12.0107           0
       559 SHT      559      S        C        CA      -0.031624       12.0107           0
       560 SHT      560      S        C        CA      -0.031624       12.0107           0
       561 SHT      561      S        C        CA      -0.031624       12.0107           0
       562 SHT      562      S        C        CA      -0.031624       12.0107           0
       563 SHT      563      S        C        CA      -0.031624       12.0107           0
       564 SHT      564      S        C        CA      -0.031624       12.0107           0
       565 SHT      565      S        C        CA      -0.031624       12.0107           0
       566 SHT      566      S        C        CA      -0.031624       12.0107           0
       567 SHT      567      S        C        CA      -0.031624       12.0107           0
       568 SHT      568      S        C        CA      -0.031624       12.0107           0
       569 SHT      569      S        C        CA      -0.031624       12.0107           0
       570 SHT      570      S        C        CA      -0.031624       12.0107           0
       571 SHT      571      S        C        CA      -0.031624       12.0107           0
       572 SHT      572      S        C        CA      -0.031624       12.0107           0
       573 SHT      573      S        C        CA      -0.031624       12.0107           0
       574 SHT      574      S        C        CA      -0.031624       12.0107           0
       575 SHT      575      S        C        CA      -0.031624       12.0107           0
       576 SHT      576      S        C        CA      -0.031624       12.0107           0
       577 SHT      577      S        C        CA      -0.031624       12.0107           0
       578 SHT      578      S        C        CA      -0.031624       12.0107           0
       579 SHT      579      S        C        CA      -0.031624       12.0107           0
       580 SHT      580      S        C        CA      -0.031624       12.0107           0
       581 SHT      581      S        C        CA      -0.031624       12.0107           0
       582 SHT      582      S        C        CA      -0.031624       12.0107           0
       583 SHT      583      S        C        CA      -0.031624       12.0107           0
       584 SHT      584      S        C        CA      -0.031624       12.0107           0
       585 SHT      585      S        C        CA      -0.031624       12.0107           0
       586 SHT      586      S        C        CA      -0.031624       12.0107           0
       587 SHT      587      S        C        CA      -0.031624       12.0107           0
       588 SHT      588      S        C        CA      -0.031624       12.0107           0
       589 SHT      589      S        C        CA      -0.031624       12.0107           0
       590 SHT      590      S        C        CA      -0.031624       12.0107           0
       591 SHT      591      S        C        CA      -0.031624       12.0107           0
       592 SHT      592      S        C        CA      -0.031624       12.0107           0
       593 SHT      593      S        C        CA      -0.031624       12.0107           0
       594 SHT      594      S        C        CA      -0.031624       12.0107           0
       595 SHT      595      S        C        CA      -0.031624       12.0107           0
       596 SHT      596      S        C        CA      -0.031624       12.0107           0
       597 SHT      597      S        C        CA      -0.031624       12.0107           0
       598 SHT      598      S        C        CA      -0.031624       12.0107           0
       599 SHT      599      S        C        CA      -0.031624       12.0107           0
       600 SHT      600      S        C        CA      -0.031624       12.0107           0
       601 SHT      601      S        C        CA      -0.031624       12.0107           0
       602 SHT      602      S        C        CA      -0.031624       12.0107           0
       603 SHT      603      S        C        CA      -0.031624       12.0107           0
       604 SHT      604      S        C        CA      -0.031624       12.0107           0
       605 SHT      605      S        C        CA      -0.031624       12.0107           0
       606 SHT      606      S        C        CA      -0.031624       12.0107           0
       607 SHT      607      S        C        CA      -0.031624       12.0107           0
       608 SHT      608      S        C        CA      -0.031624       12.0107           0
       609 SHT      609      S        C        CA      -0.031624       12.0107           0
       610 SHT      610      S        C        CA      -0.031624       12.0107           0
       611 SHT      611      S        C        CA      -0.031624       12.0107           0
       612 SHT      612      S        C        CA      -0.031624       12.0107           0
       613 SHT      613      S        C        CA      -0.031624       12.0107           0
       614 SHT      614      S        C        CA      -0.031624       12.0107           0
       615 SHT      615      S        C        CA      -0.031624       12.0107           0
       616 SHT      616      S        C        CA      -0.031624       12.0107           0
       617 SHT      617      S        C        CA      -0.031624       12.0107           0
       618 SHT      618      S        C        CA      -0.031624       12.0107           0
       619 SHT      619      S        C        CA      -0.031624       12.0107           0
       620 SHT      620      S        C        CA      -0.031624       12.0107           0
       621 SHT      621      S        C        CA      -0.031624       12.0107           0
       622 SHT      622      S        C        CA      -0.031624       12.0107           0
       623 SHT      623      S        C        CA      -0.031624       12.0107           0
       624 SHT      624      S        C        CA      -0.031624       12.0107           0
       625 SHT      625      S        C        CA      -0.031624       12.0107           0
       626 SHT      626      S        C        CA      -0.031624       12.0107           0
       627 SHT      627      S        C        CA      -0.031624       12.0107           0
       628 SHT      628      S        C        CA      -0.031624       12.0107           0
       629 SHT      629      S        C        CA      -0.031624       12.0107           0
       630 SHT      630      S        C        CA      -0.031624       12.0107           0
       631 SHT      631      S        C        CA      -0.031624       12.0107           0
       632 SHT      632      S        C        CA      -0.031624       12.0107           0
       633 SHT      633      S        C        CA      -0.031624       12.0107           0
       634 SHT      634      S        C        CA      -0.031624       12.0107           0
       635 SHT      635      S        C        CA      -0.031624       12.0107           0
       636 SHT      636      S        C        CA      -0.031624       12.0107           0
       637 SHT      637      S        C        CA      -0.031624       12.0107           0
       638 SHT      638      S        C        CA      -0.031624       12.0107           0
       639 SHT      639      S        C        CA      -0.031624       12.0107           0
       640 SHT      640      S        C        CA      -0.031624       12.0107           0
       641 SHT      641      S        C        CA      -0.031624       12.0107           0
       642 SHT      642      S        C        CA      -0.031624       12.0107           0
       643 SHT      643      S        C        CA      -0.031624       12.0107           0
       644 SHT      644      S        C        CA      -0.031624       12.0107           0
       645 SHT      645      S        C        CA      -0.031624       12.0107           0
       646 SHT      646      S        C        CA      -0.031624       12.0107           0
       647 SHT      647      S        C        CA      -0.031624       12.0107           0
       648 SHT      648      S        C        CA      -0.031624       12.0107           0
       649 SHT      649      S        C        CA      -0.031624       12.0107           0
       650 SHT      650      S        C        CA      -0.031624       12.0107           0
       651 SHT      651      S        C        CA      -0.031624       12.0107           0
       652 SHT      652      S        C        CA      -0.031624       12.0107           0
       653 SHT      653      S        C        CA      -0.031624       12.0107           0
       654 SHT      654      S        C        CA      -0.031624       12.0107           0
       655 SHT      655      S        C        CA      -0.031624       12.0107           0
       656 SHT      656      S        C        CA      -0.031624       12.0107           0
       657 SHT      657      S        C        CA      -0.031624       12.0107           0
       658 SHT      658      S        C        CA      -0.031624       12.0107           0
       659 SHT      659      S        C        CA      -0.031624       12.0107           0
       660 SHT      660      S        C        CA      -0.031624       12.0107           0
       661 SHT      661      S        C        CA      -0.031624       12.0107           0
       662 SHT      662      S        C        CA      -0.031624       12.0107           0
       663 SHT      663      S        C        CA      -0.031624       12.0107           0
       664 SHT      664      S        C        CA      -0.031624       12.0107           0
       665 SHT      665      S        C        CA      -0.031624       12.0107           0
       666 SHT      666      S        C        CA      -0.031624       12.0107           0
       667 SHT      667      S        C        CA      -0.031624       12.0107           0
       668 SHT      668      S        C        CA      -0.031624       12.0107           0
       669 SHT      669      S        C        CA      -0.031624       12.0107           0
       670 SHT      670      S        C        CA      -0.031624       12.0107           0
       671 SHT      671      S        C        CA      -0.031624       12.0107           0
       672 SHT      672      S        C        CA      -0.031624       12.0107           0
       673 SHT      673      S        C        CA      -0.031624       12.0107           0
       674 SHT      674      S        C        CA      -0.031624       12.0107           0
       675 SHT      675      S        C        CA      -0.031624       12.0107           0
       676 SHT      676      S        C        CA      -0.031624       12.0107           0
       677 SHT      677      S        C        CA      -0.031624       12.0107           0
       678 SHT      678      S        C        CA      -0.031624       12.0107           0
       679 SHT      679      S        C        CA      -0.031624       12.0107           0
       680 SHT      680      S        C        CA      -0.031624       12.0107           0
       681 SHT      681      S        C        CA      -0.031624       12.0107           0
       682 SHT      682      S        C        CA      -0.031624       12.0107           0
       683 SHT      683      S        C        CA      -0.031624       12.0107           0
       684 SHT      684      S        C        CA      -0.031624       12.0107           0
       685 SHT      685      S        C        CA      -0.031624       12.0107           0
       686 SHT      686      S        C        CA      -0.031624       12.0107           0
       687 SHT      687      S        C        CA      -0.031624       12.0107           0
       688 SHT      688      S        C        CA      -0.031624       12.0107           0
       689 SHT      689      S        C        CA      -0.031624       12.0107           0
       690 SHT      690      S        C        CA      -0.031624       12.0107           0
       691 SHT      691      S        C        CA      -0.031624       12.0107           0
       692 SHT      692      S        C        CA      -0.031624       12.0107           0
       693 SHT      693      S        C        CA      -0.031624       12.0107           0
       694 SHT      694      S        C        CA      -0.031624       12.0107           0
       695 SHT      695      S        C        CA      -0.031624       12.0107           0
       696 SHT      696      S        C        CA      -0.031624       12.0107           0
       697 SHT      697      S        C        CA      -0.031624       12.0107           0
       698 SHT      698      S        C        CA      -0.031624       12.0107           0
       699 SHT      699      S        C        CA      -0.031624       12.0107           0
       700 SHT      700      S        C        CA      -0.031624       12.0107           0
       701 SHT      701      S        C        CA      -0.031624       12.0107           0
       702 SHT      702      S        C        CA      -0.031624       12.0107           0
       703 SHT      703      S        C        CA      -0.031624       12.0107           0
       704 SHT      704      S        C        CA      -0.031624       12.0107           0
       705 SHT      705      S        C        CA      -0.031624       12.0107           0
       706 SHT      706      S        C        CA      -0.031624       12.0107           0
       707 SHT      707      S        C        CA      -0.031624       12.0107           0
       708 SHT      708      S        C        CA      -0.031624       12.0107           0
       709 SHT      709      S        C        CA      -0.031624       12.0107           0
       710 SHT      710      S        C        CA      -0.031624       12.0107           0
       711 SHT      711      S        C        CA      -0.031624       12.0107           0
       712 SHT      712      S        C        CA      -0.031624       12.0107           0
       713 SHT      713      S        C        CA      -0.031624       12.0107           0
       714 SHT      714      S        C        CA      -0.031624       12.0107           0
       715 SHT      715      S        C        CA      -0.031624       12.0107           0
       716 SHT      716      S        C        CA      -0.031624       12.0107           0
       717 SHT      717      S        C        CA      -0.031624       12.0107           0
       718 SHT      718      S        C        CA      -0.031624       12.0107           0
       719 SHT      719      S        C        CA      -0.031624       12.0107           0
       720 SHT      720      S        C        CA      -0.031624       12.0107           0
       721 SHT      721      S        C        CA      -0.031624       12.0107           0
       722 SHT      722      S        C        CA      -0.031624       12.0107           0
       723 SHT      723      S        C        CA      -0.031624       12.0107           0
       724 SHT      724      S        C        CA      -0.031624       12.0107           0
       725 SHT      725      S        C        CA      -0.031624       12.0107           0
       726 SHT      726      S        C        CA      -0.031624       12.0107           0
       727 SHT      727      S        C        CA      -0.031624       12.0107           0
       728 SHT      728      S        C        CA      -0.031624       12.0107           0
       729 SHT      729      S        C        CA      -0.031624       12.0107           0
       730 SHT      730      S        C        CA      -0.031624       12.0107           0
       731 SHT      731      S        C        CA      -0.031624       12.0107           0
       732 SHT      732      S        C        CA      -0.031624       12.0107           0
       733 SHT      733      S        C        CA      -0.031624       12.0107           0
       734 SHT      734      S        C        CA      -0.031624       12.0107           0
       735 SHT      735      S        C        CA      -0.031624       12.0107           0
       736 SHT      736      S        C        CA      -0.031624       12.0107           0
       737 SHT      737      S        C        CA      -0.031624       12.0107           0
       738 SHT      738      S        C        CA      -0.031624       12.0107           0
       739 SHT      739      S        C        CA      -0.031624       12.0107           0
       740 SHT      740      S        C        CA      -0.031624       12.0107           0
       741 SHT      741      S        C        CA      -0.031624       12.0107           0
       742 SHT      742      S        C        CA      -0.031624       12.0107           0
       743 SHT      743      S        C        CA      -0.031624       12.0107           0
       744 SHT      744      S        C        CA      -0.031624       12.0107           0
       745 SHT      745      S        C        CA      -0.031624       12.0107           0
       746 SHT      746      S        C        CA      -0.031624       12.0107           0
       747 SHT      747      S        C        CA      -0.031624       12.0107           0
       748 SHT      748      S        C        CA      -0.031624       12.0107           0
       749 SHT      749      S        C        CA      -0.031624       12.0107           0
       750 SHT      750      S        C        CA      -0.031624       12.0107           0
       751 SHT      751      S        C        CA      -0.031624       12.0107           0
       752 SHT      752      S        C        CA      -0.031624       12.0107           0
       753 SHT      753      S        C        CA      -0.031624       12.0107           0
       754 SHT      754      S        C        CA      -0.031624       12.0107           0
       755 SHT      755      S        C        CA      -0.031624       12.0107           0
       756 SHT      756      S        C        CA      -0.031624       12.0107           0
       757 SHT      757      S        C        CA      -0.031624       12.0107           0
       758 SHT      758      S        C        CA      -0.031624       12.0107           0
       759 SHT      759      S        C        CA      -0.031624       12.0107           0
       760 SHT      760      S        C        CA      -0.031624       12.0107           0
       761 SHT      761      S        C        CA      -0.031624       12.0107           0
       762 SHT      762      S        C        CA      -0.031624       12.0107           0
       763 SHT      763      S        C        CA      -0.031624       12.0107           0
       764 SHT      764      S        C        CA      -0.031624       12.0107           0
       765 SHT      765      S        C        CA      -0.031624       12.0107           0
       766 SHT      766      S        C        CA      -0.031624       12.0107           0
       767 SHT      767      S        C        CA      -0.031624       12.0107           0
       768 SHT      768      S        C        CA      -0.031624       12.0107           0
       769 SHT      769      S        C        CA      -0.031624       12.0107           0
       770 SHT      770      S        C        CA      -0.031624       12.0107           0
       771 SHT      771      S        C        CA      -0.031624       12.0107           0
       772 SHT      772      S        C        CA      -0.031624       12.0107           0
       773 SHT      773      S        C        CA      -0.031624       12.0107           0
       774 SHT      774      S        C        CA      -0.031624       12.0107           0
       775 SHT      775      S        C        CA      -0.031624       12.0107           0
       776 SHT      776      S        C        CA      -0.031624       12.0107           0
       777 SHT      777      S        C        CA      -0.031624       12.0107           0
       778 SHT      778      S        C        CA      -0.031624       12.0107           0
       779 SHT      779      S        C        CA      -0.031624       12.0107           0
       780 SHT      780      S        C        CA      -0.031624       12.0107           0
       781 SHT      781      S        C        CA      -0.031624       12.0107           0
       782 SHT      782      S        C        CA      -0.031624       12.0107           0
       783 SHT      783      S        C        CA      -0.031624       12.0107           0
       784 SHT      784      S        C        CA      -0.031624       12.0107           0
       785 SHT      785      S        C        CA      -0.031624       12.0107           0
       786 SHT      786      S        C        CA      -0.031624       12.0107           0
       787 SHT      787      S        C        CA      -0.031624       12.0107           0
       788 SHT      788      S        C        CA      -0.031624       12.0107           0
       789 SHT      789      S        C        CA      -0.031624       12.0107           0
       790 SHT      790      S        C        CA      -0.031624       12.0107           0
       791 SHT      791      S        C        CA      -0.031624       12.0107           0
       792 SHT      792      S        C        CA      -0.031624       12.0107           0
       793 SHT      793      S        C        CA      -0.031624       12.0107           0
       794 SHT      794      S        C        CA      -0.031624       12.0107           0
       795 SHT      795      S        C        CA      -0.031624       12.0107           0
       796 SHT      796      S        C        CA      -0.031624       12.0107           0
       797 SHT      797      S        C        CA      -0.031624       12.0107           0
       798 SHT      798      S        C        CA      -0.031624       12.0107           0
       799 SHT      799      S        C        CA      -0.031624       12.0107           0
       800 SHT      800      S        C        CA      -0.031624       12.0107           0
       801 SHT      801      S        C        CA      -0.031624       12.0107           0
       802 SHT      802      S        C        CA      -0.031624       12.0107           0
       803 SHT      803      S        C        CA      -0.031624       12.0107           0
       804 SHT      804      S        C        CA      -0.031624       12.0107           0
       805 SHT      805      S        C        CA      -0.031624       12.0107           0
       806 SHT      806      S        C        CA      -0.031624       12.0107           0
       807 SHT      807      S        C        CA      -0.031624       12.0107           0
       808 SHT      808      S        C        CA      -0.031624       12.0107           0
       809 SHT      809      S        C        CA      -0.031624       12.0107           0
       810 SHT      810      S        C        CA      -0.031624       12.0107           0
       811 SHT      811      S        C        CA      -0.031624       12.0107           0
       812 SHT      812      S        C        CA      -0.031624       12.0107           0
       813 SHT      813      S        C        CA      -0.031624       12.0107           0
       814 SHT      814      S        C        CA      -0.031624       12.0107           0
       815 SHT      815      S        C        CA      -0.031624       12.0107           0
       816 SHT      816      S        C        CA      -0.031624       12.0107           0
       817 SHT      817      S        C        CA      -0.031624       12.0107           0
       818 SHT      818      S        C        CA      -0.031624       12.0107           0
       819 SHT      819      S        C        CA      -0.031624       12.0107           0
       820 SHT      820      S        C        CA      -0.031624       12.0107           0
       821 SHT      821      S        C        CA      -0.031624       12.0107           0
       822 SHT      822      S        C        CA      -0.031624       12.0107           0
       823 SHT      823      S        C        CA      -0.031624       12.0107           0
       824 SHT      824      S        C        CA      -0.031624       12.0107           0
       825 SHT      825      S        C        CA      -0.031624       12.0107           0
       826 SHT      826      S        C        CA      -0.031624       12.0107           0
       827 SHT      827      S        C        CA      -0.031624       12.0107           0
       828 SHT      828      S        C        CA      -0.031624       12.0107           0
       829 SHT      829      S        C        CA      -0.031624       12.0107           0
       830 SHT      830      S        C        CA      -0.031624       12.0107           0
       831 SHT      831      S        C        CA      -0.031624       12.0107           0
       832 SHT      832      S        C        CA      -0.031624       12.0107           0
       833 SHT      833      S        C        CA      -0.031624       12.0107           0
       834 SHT      834      S        C        CA      -0.031624       12.0107           0
       835 SHT      835      S        C        CA      -0.031624       12.0107           0
       836 SHT      836      S        C        CA      -0.031624       12.0107           0
       837 SHT      837      S        C        CA      -0.031624       12.0107           0
       838 SHT      838      S        C        CA      -0.031624       12.0107           0
       839 SHT      839      S        C        CA      -0.031624       12.0107           0
       840 SHT      840      S        C        CA      -0.031624       12.0107           0
       841 SHT      841      S        C        CA      -0.031624       12.0107           0
       842 SHT      842      S        C        CA      -0.031624       12.0107           0
       843 SHT      843      S        C        CA      -0.031624       12.0107           0
       844 SHT      844      S        C        CA      -0.031624       12.0107           0
       845 SHT      845      S        C        CA      -0.031624       12.0107           0
       846 SHT      846      S        C        CA      -0.031624       12.0107           0
       847 SHT      847      S        C        CA      -0.031624       12.0107           0
       848 SHT      848      S        C        CA      -0.031624       12.0107           0
       849 SHT      849      S        C        CA      -0.031624       12.0107           0
       850 SHT      850      S        C        CA      -0.031624       12.0107           0
       851 SHT      851      S        C        CA      -0.031624       12.0107           0
       852 SHT      852      S        C        CA      -0.031624       12.0107           0
       853 SHT      853      S        C        CA      -0.031624       12.0107           0
       854 SHT      854      S        C        CA      -0.031624       12.0107           0
       855 SHT      855      S        C        CA      -0.031624       12.0107           0
       856 SHT      856      S        C        CA      -0.031624       12.0107           0
       857 SHT      857      S        C        CA      -0.031624       12.0107           0
       858 SHT      858      S        C        CA      -0.031624       12.0107           0
       859 SHT      859      S        C        CA      -0.031624       12.0107           0
       860 SHT      860      S        C        CA      -0.031624       12.0107           0
       861 SHT      861      S        C        CA      -0.031624       12.0107           0
       862 SHT      862      S        C        CA      -0.031624       12.0107           0
       863 SHT      863      S        C        CA      -0.031624       12.0107           0
       864 SHT      864      S        C        CA      -0.031624       12.0107           0
       865 SHT      865      S        C        CA      -0.031624       12.0107           0
       866 SHT      866      S        C        CA      -0.031624       12.0107           0
       867 SHT      867      S        C        CA      -0.031624       12.0107           0
       868 SHT      868      S        C        CA      -0.031624       12.0107           0
       869 SHT      869      S        C        CA      -0.031624       12.0107           0
       870 SHT      870      S        C        CA      -0.031624       12.0107           0
       871 SHT      871      S        C        CA      -0.031624       12.0107           0
       872 SHT      872      S        C        CA      -0.031624       12.0107           0
       873 SHT      873      S        C        CA      -0.031624       12.0107           0
       874 SHT      874      S        C        CA      -0.031624       12.0107           0
       875 SHT      875      S        C        CA      -0.031624       12.0107           0
       876 SHT      876      S        C        CA      -0.031624       12.0107           0
       877 SHT      877      S        C        CA      -0.031624       12.0107           0
       878 SHT      878      S        C        CA      -0.031624       12.0107           0
       879 SHT      879      S        C        CA      -0.031624       12.0107           0
       880 SHT      880      S        C        CA      -0.031624       12.0107           0
       881 SHT      881      S        C        CA      -0.031624       12.0107           0
       882 SHT      882      S        C        CA      -0.031624       12.0107           0
       883 SHT      883      S        C        CA      -0.031624       12.0107           0
       884 SHT      884      S        C        CA      -0.031624       12.0107           0
       885 SHT      885      S        C        CA      -0.031624       12.0107           0
       886 SHT      886      S        C        CA      -0.031624       12.0107           0
       887 SHT      887      S        C        CA      -0.031624       12.0107           0
       888 SHT      888      S        C        CA      -0.031624       12.0107           0
       889 SHT      889      S        C        CA      -0.031624       12.0107           0
       890 SHT      890      S        C        CA      -0.031624       12.0107           0
       891 SHT      891      S        C        CA      -0.031624       12.0107           0
       892 SHT      892      S        C        CA      -0.031624       12.0107           0
       893 SHT      893      S        C        CA      -0.031624       12.0107           0
       894 SHT      894      S        C        CA      -0.031624       12.0107           0
       895 SHT      895      S        C        CA      -0.031624       12.0107           0
       896 SHT      896      S        C        CA      -0.031624       12.0107           0
       897 SHT      897      S        C        CA      -0.031624       12.0107           0
       898 SHT      898      S        C        CA      -0.031624       12.0107           0
       899 SHT      899      S        C        CA      -0.031624       12.0107           0
       900 SHT      900      S        C        CA      -0.031624       12.0107           0
       901 SHT      901      S        C        CA      -0.031624       12.0107           0
       902 SHT      902      S        C        CA      -0.031624       12.0107           0
       903 SHT      903      S        C        CA      -0.031624       12.0107           0
       904 SHT      904      S        C        CA      -0.031624       12.0107           0
       905 SHT      905      S        C        CA      -0.031624       12.0107           0
       906 SHT      906      S        C        CA      -0.031624       12.0107           0
       907 SHT      907      S        C        CA      -0.031624       12.0107           0
       908 SHT      908      S        C        CA      -0.031624       12.0107           0
       909 SHT      909      S        C        CA      -0.031624       12.0107           0
       910 SHT      910      S        C        CA      -0.031624       12.0107           0
       911 SHT      911      S        C        CA      -0.031624       12.0107           0
       912 SHT      912      S        C        CA      -0.031624       12.0107           0
       913 SHT      913      S        C        CA      -0.031624       12.0107           0
       914 SHT      914      S        C        CA      -0.031624       12.0107           0
       915 SHT      915      S        C        CA      -0.031624       12.0107           0
       916 SHT      916      S        C        CA      -0.031624       12.0107           0
       917 SHT      917      S        C        CA      -0.031624       12.0107           0
       918 SHT      918      S        C        CA      -0.031624       12.0107           0
       919 SHT      919      S        C        CA      -0.031624       12.0107           0
       920 SHT      920      S        C        CA      -0.031624       12.0107           0
       921 SHT      921      S        C        CA      -0.031624       12.0107           0
       922 SHT      922      S        C        CA      -0.031624       12.0107           0
       923 SHT      923      S        C        CA      -0.031624       12.0107           0
       924 SHT      924      S        C        CA      -0.031624       12.0107           0
       925 SHT      925      S        C        CA      -0.031624       12.0107           0
       926 SHT      926      S        C        CA      -0.031624       12.0107           0
       927 SHT      927      S        C        CA      -0.031624       12.0107           0
       928 SHT      928      S        C        CA      -0.031624       12.0107           0
       929 SHT      929      S        C        CA      -0.031624       12.0107           0
       930 SHT      930      S        C        CA      -0.031624       12.0107           0
       931 SHT      931      S        C        CA      -0.031624       12.0107           0
       932 SHT      932      S        C        CA      -0.031624       12.0107           0
       933 SHT      933      S        C        CA      -0.031624       12.0107           0
       934 SHT      934      S        C        CA      -0.031624       12.0107           0
       935 SHT      935      S        C        CA      -0.031624       12.0107           0
       936 SHT      936      S        C        CA      -0.031624       12.0107           0
       937 SHT      937      S        C        CA      -0.031624       12.0107           0
       938 SHT      938      S        C        CA      -0.031624       12.0107           0
       939 SHT      939      S        C        CA      -0.031624       12.0107           0
       940 SHT      940      S        C        CA      -0.031624       12.0107           0
       941 SHT      941      S        C        CA      -0.031624       12.0107           0
       942 SHT      942      S        C        CA      -0.031624       12.0107           0
       943 SHT      943      S        C        CA      -0.031624       12.0107           0
       944 SHT      944      S        C        CA      -0.031624       12.0107           0
       945 SHT      945      S        C        CA      -0.031624       12.0107           0
       946 SHT      946      S        C        CA      -0.031624       12.0107           0
       947 SHT      947      S        C        CA      -0.031624       12.0107           0
       948 SHT      948      S        C        CA      -0.031624       12.0107           0
       949 SHT      949      S        C        CA      -0.031624       12.0107           0
       950 SHT      950      S        C        CA      -0.031624       12.0107           0
       951 SHT      951      S        C        CA      -0.031624       12.0107           0
       952 SHT      952      S        C        CA      -0.031624       12.0107           0
       953 SHT      953      S        C        CA      -0.031624       12.0107           0
       954 SHT      954      S        C        CA      -0.031624       12.0107           0
       955 SHT      955      S        C        CA      -0.031624       12.0107           0
       956 SHT      956      S        C        CA      -0.031624       12.0107           0
       957 SHT      957      S        C        CA      -0.031624       12.0107           0
       958 SHT      958      S        C        CA      -0.031624       12.0107           0
       959 SHT      959      S        C        CA      -0.031624       12.0107           0
       960 SHT      960      S        C        CA      -0.031624       12.0107           0
       961 SHT      961      S        C        CA      -0.031624       12.0107           0
       962 SHT      962      S        C        CA      -0.031624       12.0107           0
       963 SHT      963      S        C        CA      -0.031624       12.0107           0
       964 SHT      964      S        C        CA      -0.031624       12.0107           0
       965 SHT      965      S        C        CA      -0.031624       12.0107           0
       966 SHT      966      S        C        CA      -0.031624       12.0107           0
       967 SHT      967      S        C        CA      -0.031624       12.0107           0
       968 SHT      968      S        C        CA      -0.031624       12.0107           0
       969 SHT      969      S        C        CA      -0.031624       12.0107           0
       970 SHT      970      S        C        CA      -0.031624       12.0107           0
       971 SHT      971      S        C        CA      -0.031624       12.0107           0
       972 SHT      972      S        C        CA      -0.031624       12.0107           0
       973 SHT      973      S        C        CA      -0.031624       12.0107           0
       974 SHT      974      S        C        CA      -0.031624       12.0107           0
       975 SHT      975      S        C        CA      -0.031624       12.0107           0
       976 SHT      976      S        C        CA      -0.031624       12.0107           0
       977 SHT      977      S        C        CA      -0.031624       12.0107           0
       978 SHT      978      S        C        CA      -0.031624       12.0107           0
       979 SHT      979      S        C        CA      -0.031624       12.0107           0
       980 SHT      980      S        C        CA      -0.031624       12.0107           0
       981 SHT      981      S        C        CA      -0.031624       12.0107           0
       982 SHT      982      S        C        CA      -0.031624       12.0107           0
       983 SHT      983      S        C        CA      -0.031624       12.0107           0
       984 SHT      984      S        C        CA      -0.031624       12.0107           0
       985 SHT      985      S        C        CA      -0.031624       12.0107           0
       986 SHT      986      S        C        CA      -0.031624       12.0107           0
       987 SHT      987      S        C        CA      -0.031624       12.0107           0
       988 SHT      988      S        C        CA      -0.031624       12.0107           0
       989 SHT      989      S        C        CA      -0.031624       12.0107           0
       990 SHT      990      S        C        CA      -0.031624       12.0107           0
       991 SHT      991      S        C        CA      -0.031624       12.0107           0
       992 SHT      992      S        C        CA      -0.031624       12.0107           0
       993 SHT      993      S        C        CA      -0.031624       12.0107           0
       994 SHT      994      S        C        CA      -0.031624       12.0107           0
       995 SHT      995      S        C        CA      -0.031624       12.0107           0
       996 SHT      996      S        C        CA      -0.031624       12.0107           0
       997 SHT      997      S        C        CA      -0.031624       12.0107           0
       998 SHT      998      S        C        CA      -0.031624       12.0107           0
       999 SHT      999      S        C        CA      -0.031624       12.0107           0
      1000 SHT      1000     S        C        CA      -0.031624       12.0107           0
      1001 SHT      1001     S        C        CA      -0.031624       12.0107           0
      1002 SHT      1002     S        C        CA      -0.031624       12.0107           0
      1003 SHT      1003     S        C        CA      -0.031624       12.0107           0
      1004 SHT      1004     S        C        CA      -0.031624       12.0107           0
      1005 SHT      1005     S        C        CA      -0.031624       12.0107           0
      1006 SHT      1006     S        C        CA      -0.031624       12.0107           0
      1007 SHT      1007     S        C        CA      -0.031624       12.0107           0
      1008 SHT      1008     S        C        CA      -0.031624       12.0107           0
      1009 SHT      1009     S        C        CA      -0.031624       12.0107           0
      1010 SHT      1010     S        C        CA      -0.031624       12.0107           0
      1011 SHT      1011     S        C        CA      -0.031624       12.0107           0
      1012 SHT      1012     S        C        CA      -0.031624       12.0107           0
      1013 SHT      1013     S        C        CA      -0.031624       12.0107           0
      1014 SHT      1014     S        C        CA      -0.031624       12.0107           0
      1015 SHT      1015     S        C        CA      -0.031624       12.0107           0
      1016 SHT      1016     S        C        CA      -0.031624       12.0107           0
      1017 SHT      1017     S        C        CA      -0.031624       12.0107           0
      1018 SHT      1018     S        C        CA      -0.031624       12.0107           0
      1019 SHT      1019     S        C        CA      -0.031624       12.0107           0
      1020 SHT      1020     S        C        CA      -0.031624       12.0107           0
      1021 SHT      1021     S        C        CA      -0.031624       12.0107           0
      1022 SHT      1022     S        C        CA      -0.031624       12.0107           0
      1023 SHT      1023     S        C        CA      -0.031624       12.0107           0
      1024 SHT      1024     S        C        CA      -0.031624       12.0107           0
      1025 SHT      1025     S        C        CA      -0.031624       12.0107           0
      1026 SHT      1026     S        C        CA      -0.031624       12.0107           0
      1027 SHT      1027     S        C        CA      -0.031624       12.0107           0
      1028 SHT      1028     S        C        CA      -0.031624       12.0107           0
      1029 SHT      1029     S        C        CA      -0.031624       12.0107           0
      1030 SHT      1030     S        C        CA      -0.031624       12.0107           0
      1031 SHT      1031     S        C        CA      -0.031624       12.0107           0
      1032 SHT      1032     S        C        CA      -0.031624       12.0107           0
      1033 SHT      1033     S        C        CA      -0.031624       12.0107           0
      1034 SHT      1034     S        C        CA      -0.031624       12.0107           0
      1035 SHT      1035     S        C        CA      -0.031624       12.0107           0
      1036 SHT      1036     S        C        CA      -0.031624       12.0107           0
      1037 SHT      1037     S        C        CA      -0.031624       12.0107           0
      1038 SHT      1038     S        C        CA      -0.031624       12.0107           0
      1039 SHT      1039     S        C        CA      -0.031624       12.0107           0
      1040 SHT      1040     S        C        CA      -0.031624       12.0107           0
      1041 SHT      1041     S        C        CA      -0.031624       12.0107           0
      1042 SHT      1042     S        C        CA      -0.031624       12.0107           0
      1043 SHT      1043     S        C        CA      -0.031624       12.0107           0
      1044 SHT      1044     S        C        CA      -0.031624       12.0107           0
      1045 SHT      1045     S        C        CA      -0.031624       12.0107           0
      1046 SHT      1046     S        C        CA      -0.031624       12.0107           0
      1047 SHT      1047     S        C        CA      -0.031624       12.0107           0
      1048 SHT      1048     S        C        CA      -0.031624       12.0107           0
      1049 SHT      1049     S        C        CA      -0.031624       12.0107           0
      1050 SHT      1050     S        C        CA      -0.031624       12.0107           0
      1051 SHT      1051     S        C        CA      -0.031624       12.0107           0
      1052 SHT      1052     S        C        CA      -0.031624       12.0107           0
      1053 SHT      1053     S        C        CA      -0.031624       12.0107           0
      1054 SHT      1054     S        C        CA      -0.031624       12.0107           0
      1055 SHT      1055     S        C        CA      -0.031624       12.0107           0
      1056 SHT      1056     S        C        CA      -0.031624       12.0107           0
      1057 SHT      1057     S        C        CA      -0.031624       12.0107           0
      1058 SHT      1058     S        C        CA      -0.031624       12.0107           0
      1059 SHT      1059     S        C        CA      -0.031624       12.0107           0
      1060 SHT      1060     S        C        CA      -0.031624       12.0107           0
      1061 SHT      1061     S        C        CA      -0.031624       12.0107           0
      1062 SHT      1062     S        C        CA      -0.031624       12.0107           0
      1063 SHT      1063     S        C        CA      -0.031624       12.0107           0
      1064 SHT      1064     S        C        CA      -0.031624       12.0107           0
      1065 SHT      1065     S        C        CA      -0.031624       12.0107           0
      1066 SHT      1066     S        C        CA      -0.031624       12.0107           0
      1067 SHT      1067     S        C        CA      -0.031624       12.0107           0
      1068 SHT      1068     S        C        CA      -0.031624       12.0107           0
      1069 SHT      1069     S        C        CA      -0.031624       12.0107           0
      1070 SHT      1070     S        C        CA      -0.031624       12.0107           0
      1071 SHT      1071     S        C        CA      -0.031624       12.0107           0
      1072 SHT      1072     S        C        CA      -0.031624       12.0107           0
      1073 SHT      1073     S        C        CA      -0.031624       12.0107           0
      1074 SHT      1074     S        C        CA      -0.031624       12.0107           0
      1075 SHT      1075     S        C        CA      -0.031624       12.0107           0
      1076 SHT      1076     S        C        CA      -0.031624       12.0107           0
      1077 SHT      1077     S        C        CA      -0.031624       12.0107           0
      1078 SHT      1078     S        C        CA      -0.031624       12.0107           0
      1079 SHT      1079     S        C        CA      -0.031624       12.0107           0
      1080 SHT      1080     S        C        CA      -0.031624       12.0107           0
      1081 SHT      1081     S        C        CA      -0.031624       12.0107           0
      1082 SHT      1082     S        C        CA      -0.031624       12.0107           0
      1083 SHT      1083     S        C        CA      -0.031624       12.0107           0
      1084 SHT      1084     S        C        CA      -0.031624       12.0107           0
      1085 SHT      1085     S        C        CA      -0.031624       12.0107           0
      1086 SHT      1086     S        C        CA      -0.031624       12.0107           0
      1087 SHT      1087     S        C        CA      -0.031624       12.0107           0
      1088 SHT      1088     S        C        CA      -0.031624       12.0107           0
      1089 SHT      1089     S        C        CA      -0.031624       12.0107           0
      1090 SHT      1090     S        C        CA      -0.031624       12.0107           0
      1091 SHT      1091     S        C        CA      -0.031624       12.0107           0
      1092 SHT      1092     S        C        CA      -0.031624       12.0107           0
      1093 SHT      1093     S        C        CA      -0.031624       12.0107           0
      1094 SHT      1094     S        C        CA      -0.031624       12.0107           0
      1095 SHT      1095     S        C        CA      -0.031624       12.0107           0
      1096 SHT      1096     S        C        CA      -0.031624       12.0107           0
      1097 SHT      1097     S        C        CA      -0.031624       12.0107           0
      1098 SHT      1098     S        C        CA      -0.031624       12.0107           0
      1099 SHT      1099     S        C        CA      -0.031624       12.0107           0
      1100 SHT      1100     S        C        CA      -0.031624       12.0107           0
      1101 SHT      1101     S        C        CA      -0.031624       12.0107           0
      1102 SHT      1102     S        C        CA      -0.031624       12.0107           0
      1103 SHT      1103     S        C        CA      -0.031624       12.0107           0
      1104 SHT      1104     S        C        CA      -0.031624       12.0107           0
      1105 SHT      1105     S        C        CA      -0.031624       12.0107           0
      1106 SHT      1106     S        C        CA      -0.031624       12.0107           0
      1107 SHT      1107     S        C        CA      -0.031624       12.0107           0
      1108 SHT      1108     S        C        CA      -0.031624       12.0107           0
      1109 SHT      1109     S        C        CA      -0.031624       12.0107           0
      1110 SHT      1110     S        C        CA      -0.031624       12.0107           0
      1111 SHT      1111     S        C        CA      -0.031624       12.0107           0
      1112 SHT      1112     S        C        CA      -0.031624       12.0107           0
      1113 SHT      1113     S        C        CA      -0.031624       12.0107           0
      1114 SHT      1114     S        C        CA      -0.031624       12.0107           0
      1115 SHT      1115     S        C        CA      -0.031624       12.0107           0
      1116 SHT      1116     S        C        CA      -0.031624       12.0107           0
      1117 SHT      1117     S        C        CA      -0.031624       12.0107           0
      1118 SHT      1118     S        C        CA      -0.031624       12.0107           0
      1119 SHT      1119     S        C        CA      -0.031624       12.0107           0
      1120 SHT      1120     S        C        CA      -0.031624       12.0107           0
      1121 SHT      1121     S        C        CA      -0.031624       12.0107           0
      1122 SHT      1122     S        C        CA      -0.031624       12.0107           0
      1123 SHT      1123     S        C        CA      -0.031624       12.0107           0
      1124 SHT      1124     S        C        CA      -0.031624       12.0107           0
      1125 SHT      1125     S        C        CA      -0.031624       12.0107           0
      1126 SHT      1126     S        C        CA      -0.031624       12.0107           0
      1127 SHT      1127     S        C        CA      -0.031624       12.0107           0
      1128 SHT      1128     S        C        CA      -0.031624       12.0107           0
      1129 SHT      1129     S        C        CA      -0.031624       12.0107           0
      1130 SHT      1130     S        C        CA      -0.031624       12.0107           0
      1131 SHT      1131     S        C        CA      -0.031624       12.0107           0
      1132 SHT      1132     S        C        CA      -0.031624       12.0107           0
      1133 SHT      1133     S        C        CA      -0.031624       12.0107           0
      1134 SHT      1134     S        C        CA      -0.031624       12.0107           0
      1135 SHT      1135     S        C        CA      -0.031624       12.0107           0
      1136 SHT      1136     S        C        CA      -0.031624       12.0107           0
      1137 SHT      1137     S        C        CA      -0.031624       12.0107           0
      1138 SHT      1138     S        C        CA      -0.031624       12.0107           0
      1139 SHT      1139     S        C        CA      -0.031624       12.0107           0
      1140 SHT      1140     S        C        CA      -0.031624       12.0107           0
      1141 SHT      1141     S        C        CA      -0.031624       12.0107           0
      1142 SHT      1142     S        C        CA      -0.031624       12.0107           0
      1143 SHT      1143     S        C        CA      -0.031624       12.0107           0
      1144 SHT      1144     S        C        CA      -0.031624       12.0107           0
      1145 SHT      1145     S        C        CA      -0.031624       12.0107           0
      1146 SHT      1146     S        C        CA      -0.031624       12.0107           0
      1147 SHT      1147     S        C        CA      -0.031624       12.0107           0
      1148 SHT      1148     S        C        CA      -0.031624       12.0107           0
      1149 SHT      1149     S        C        CA      -0.031624       12.0107           0
      1150 SHT      1150     S        C        CA      -0.031624       12.0107           0
      1151 SHT      1151     S        C        CA      -0.031624       12.0107           0
      1152 SHT      1152     S        C        CA      -0.031624       12.0107           0
      1153 SHT      1153     S        C        CA      -0.031624       12.0107           0
      1154 SHT      1154     S        C        CA      -0.031624       12.0107           0
      1155 SHT      1155     S        C        CA      -0.031624       12.0107           0
      1156 SHT      1156     S        C        CA      -0.031624       12.0107           0
      1157 SHT      1157     S        C        CA      -0.031624       12.0107           0
      1158 SHT      1158     S        C        CA      -0.031624       12.0107           0
      1159 SHT      1159     S        C        CA      -0.031624       12.0107           0
      1160 SHT      1160     S        C        CA      -0.031624       12.0107           0
      1161 SHT      1161     S        C        CA      -0.031624       12.0107           0
      1162 SHT      1162     S        C        CA      -0.031624       12.0107           0
      1163 SHT      1163     S        C        CA      -0.031624       12.0107           0
      1164 SHT      1164     S        C        CA      -0.031624       12.0107           0
      1165 SHT      1165     S        C        CA      -0.031624       12.0107           0
      1166 SHT      1166     S        C        CA      -0.031624       12.0107           0
      1167 SHT      1167     S        C        CA      -0.031624       12.0107           0
      1168 SHT      1168     S        C        CA      -0.031624       12.0107           0
      1169 SHT      1169     S        C        CA      -0.031624       12.0107           0
      1170 SHT      1170     S        C        CA      -0.031624       12.0107           0
      1171 SHT      1171     S        C        CA      -0.031624       12.0107           0
      1172 SHT      1172     S        C        CA      -0.031624       12.0107           0
      1173 SHT      1173     S        C        CA      -0.031624       12.0107           0
      1174 SHT      1174     S        C        CA      -0.031624       12.0107           0
      1175 SHT      1175     S        C        CA      -0.031624       12.0107           0
      1176 SHT      1176     S        C        CA      -0.031624       12.0107           0
      1177 SHT      1177     S        C        CA      -0.031624       12.0107           0
      1178 SHT      1178     S        C        CA      -0.031624       12.0107           0
      1179 SHT      1179     S        C        CA      -0.031624       12.0107           0
      1180 SHT      1180     S        C        CA      -0.031624       12.0107           0
      1181 SHT      1181     S        C        CA      -0.031624       12.0107           0
      1182 SHT      1182     S        C        CA      -0.031624       12.0107           0
      1183 SHT      1183     S        C        CA      -0.031624       12.0107           0
      1184 SHT      1184     S        C        CA      -0.031624       12.0107           0
      1185 SHT      1185     S        C        CA      -0.031624       12.0107           0
      1186 SHT      1186     S        C        CA      -0.031624       12.0107           0
      1187 SHT      1187     S        C        CA      -0.031624       12.0107           0
      1188 SHT      1188     S        C        CA      -0.031624       12.0107           0
      1189 SHT      1189     S        C        CA      -0.031624       12.0107           0
      1190 SHT      1190     S        C        CA      -0.031624       12.0107           0
      1191 SHT      1191     S        C        CA      -0.031624       12.0107           0
      1192 SHT      1192     S        C        CA      -0.031624       12.0107           0
      1193 SHT      1193     S        C        CA      -0.031624       12.0107           0
      1194 SHT      1194     S        C        CA      -0.031624       12.0107           0
      1195 SHT      1195     S        C        CA      -0.031624       12.0107           0
      1196 SHT      1196     S        C        CA      -0.031624       12.0107           0
      1197 SHT      1197     S        C        CA      -0.031624       12.0107           0
      1198 SHT      1198     S        C        CA      -0.031624       12.0107           0
      1199 SHT      1199     S        C        CA      -0.031624       12.0107           0
      1200 SHT      1200     S        C        CA      -0.031624       12.0107           0
      1201 SHT      1201     S        C        CA      -0.031624       12.0107           0
      1202 SHT      1202     S        C        CA      -0.031624       12.0107           0
      1203 SHT      1203     S        C        CA      -0.031624       12.0107           0
      1204 SHT      1204     S        C        CA      -0.031624       12.0107           0
      1205 SHT      1205     S        C        CA      -0.031624       12.0107           0
      1206 SHT      1206     S        C        CA      -0.031624       12.0107           0
      1207 SHT      1207     S        C        CA      -0.031624       12.0107           0
      1208 SHT      1208     S        C        CA      -0.031624       12.0107           0
      1209 SHT      1209     S        C        CA      -0.031624       12.0107           0
      1210 SHT      1210     S        C        CA      -0.031624       12.0107           0
      1211 SHT      1211     S        C        CA      -0.031624       12.0107           0
      1212 SHT      1212     S        C        CA      -0.031624       12.0107           0
      1213 SHT      1213     S        C        CA      -0.031624       12.0107           0
      1214 SHT      1214     S        C        CA      -0.031624       12.0107           0
      1215 SHT      1215     S        C        CA      -0.031624       12.0107           0
      1216 SHT      1216     S        C        CA      -0.031624       12.0107           0
      1217 SHT      1217     S        C        CA      -0.031624       12.0107           0
      1218 SHT      1218     S        C        CA      -0.031624       12.0107           0
      1219 SHT      1219     S        C        CA      -0.031624       12.0107           0
      1220 SHT      1220     S        C        CA      -0.031624       12.0107           0
      1221 SHT      1221     S        C        CA      -0.031624       12.0107           0
      1222 SHT      1222     S        C        CA      -0.031624       12.0107           0
      1223 SHT      1223     S        C        CA      -0.031624       12.0107           0
      1224 SHT      1224     S        C        CA      -0.031624       12.0107           0
      1225 SHT      1225     S        C        CA      -0.031624       12.0107           0
      1226 SHT      1226     S        C        CA      -0.031624       12.0107           0
      1227 SHT      1227     S        C        CA      -0.031624       12.0107           0
      1228 SHT      1228     S        C        CA      -0.031624       12.0107           0
      1229 SHT      1229     S        C        CA      -0.031624       12.0107           0
      1230 SHT      1230     S        C        CA      -0.031624       12.0107           0
      1231 SHT      1231     S        C        CA      -0.031624       12.0107           0
      1232 SHT      1232     S        C        CA      -0.031624       12.0107           0
      1233 SHT      1233     S        C        CA      -0.031624       12.0107           0
      1234 SHT      1234     S        C        CA      -0.031624       12.0107           0
      1235 SHT      1235     S        C        CA      -0.031624       12.0107           0
      1236 SHT      1236     S        C        CA      -0.031624       12.0107           0
      1237 SHT      1237     S        C        CA      -0.031624       12.0107           0
      1238 SHT      1238     S        C        CA      -0.031624       12.0107           0
      1239 SHT      1239     S        C        CA      -0.031624       12.0107           0
      1240 SHT      1240     S        C        CA      -0.031624       12.0107           0
      1241 SHT      1241     S        C        CA      -0.031624       12.0107           0
      1242 SHT      1242     S        C        CA      -0.031624       12.0107           0
      1243 SHT      1243     S        C        CA      -0.031624       12.0107           0
      1244 SHT      1244     S        C        CA      -0.031624       12.0107           0
      1245 SHT      1245     S        C        CA      -0.031624       12.0107           0
      1246 SHT      1246     S        C        CA      -0.031624       12.0107           0
      1247 SHT      1247     S        C        CA      -0.031624       12.0107           0
      1248 SHT      1248     S        C        CA      -0.031624       12.0107           0
      1249 SHT      1249     S        C        CA      -0.031624       12.0107           0
      1250 SHT      1250     S        C        CA      -0.031624       12.0107           0
      1251 SHT      1251     S        C        CA      -0.031624       12.0107           0
      1252 SHT      1252     S        C        CA      -0.031624       12.0107           0
      1253 SHT      1253     S        C        CA      -0.031624       12.0107           0
      1254 SHT      1254     S        C        CA      -0.031624       12.0107           0
      1255 SHT      1255     S        C        CA      -0.031624       12.0107           0
      1256 SHT      1256     S        C        CA      -0.031624       12.0107           0
      1257 SHT      1257     S        C        CA      -0.031624       12.0107           0
      1258 SHT      1258     S        C        CA      -0.031624       12.0107           0
      1259 SHT      1259     S        C        CA      -0.031624       12.0107           0
      1260 SHT      1260     S        C        CA      -0.031624       12.0107           0
      1261 SHT      1261     S        C        CA      -0.031624       12.0107           0
      1262 SHT      1262     S        C        CA      -0.031624       12.0107           0
      1263 SHT      1263     S        C        CA      -0.031624       12.0107           0
      1264 SHT      1264     S        C        CA      -0.031624       12.0107           0
      1265 SHT      1265     S        C        CA      -0.031624       12.0107           0
      1266 SHT      1266     S        C        CA      -0.031624       12.0107           0
      1267 SHT      1267     S        C        CA      -0.031624       12.0107           0
      1268 SHT      1268     S        C        CA      -0.031624       12.0107           0
      1269 SHT      1269     S        C        CA      -0.031624       12.0107           0
      1270 SHT      1270     S        C        CA      -0.031624       12.0107           0
      1271 SHT      1271     S        C        CA      -0.031624       12.0107           0
      1272 SHT      1272     S        C        CA      -0.031624       12.0107           0
      1273 SHT      1273     S        C        CA      -0.031624       12.0107           0
      1274 SHT      1274     S        C        CA      -0.031624       12.0107           0
      1275 SHT      1275     S        C        CA      -0.031624       12.0107           0
      1276 SHT      1276     S        C        CA      -0.031624       12.0107           0
      1277 SHT      1277     S        C        CA      -0.031624       12.0107           0
      1278 SHT      1278     S        C        CA      -0.031624       12.0107           0
      1279 SHT      1279     S        C        CA      -0.031624       12.0107           0
      1280 SHT      1280     S        C        CA      -0.031624       12.0107           0
      1281 SHT      1281     S        C        CA      -0.031624       12.0107           0
      1282 SHT      1282     S        C        CA      -0.031624       12.0107           0
      1283 SHT      1283     S        C        CA      -0.031624       12.0107           0
      1284 SHT      1284     S        C        CA      -0.031624       12.0107           0
      1285 SHT      1285     S        C        CA      -0.031624       12.0107           0
      1286 SHT      1286     S        C        CA      -0.031624       12.0107           0
      1287 SHT      1287     S        C        CA      -0.031624       12.0107           0
      1288 SHT      1288     S        C        CA      -0.031624       12.0107           0
      1289 SHT      1289     S        C        CA      -0.031624       12.0107           0
      1290 SHT      1290     S        C        CA      -0.031624       12.0107           0
      1291 SHT      1291     S        C        CA      -0.031624       12.0107           0
      1292 SHT      1292     S        C        CA      -0.031624       12.0107           0
      1293 SHT      1293     S        C        CA      -0.031624       12.0107           0
      1294 SHT      1294     S        C        CA      -0.031624       12.0107           0
      1295 SHT      1295     S        C        CA      -0.031624       12.0107           0
      1296 SHT      1296     S        C        CA      -0.031624       12.0107           0
      1297 SHT      1297     S        C        CA      -0.031624       12.0107           0
      1298 SHT      1298     S        C        CA      -0.031624       12.0107           0
      1299 SHT      1299     S        C        CA      -0.031624       12.0107           0
      1300 SHT      1300     S        C        CA      -0.031624       12.0107           0
      1301 SHT      1301     S        C        CA      -0.031624       12.0107           0
      1302 SHT      1302     S        C        CA      -0.031624       12.0107           0
      1303 SHT      1303     S        C        CA      -0.031624       12.0107           0
      1304 SHT      1304     S        C        CA      -0.031624       12.0107           0
      1305 SHT      1305     S        C        CA      -0.031624       12.0107           0
      1306 SHT      1306     S        C        CA      -0.031624       12.0107           0
      1307 SHT      1307     S        C        CA      -0.031624       12.0107           0
      1308 SHT      1308     S        C        CA      -0.031624       12.0107           0
      1309 SHT      1309     S        C        CA      -0.031624       12.0107           0
      1310 SHT      1310     S        C        CA      -0.031624       12.0107           0
      1311 SHT      1311     S        C        CA      -0.031624       12.0107           0
      1312 SHT      1312     S        C        CA      -0.031624       12.0107           0
      1313 SHT      1313     S        C        CA      -0.031624       12.0107           0
      1314 SHT      1314     S        C        CA      -0.031624       12.0107           0
      1315 SHT      1315     S        C        CA      -0.031624       12.0107           0
      1316 SHT      1316     S        C        CA      -0.031624       12.0107           0
      1317 SHT      1317     S        C        CA      -0.031624       12.0107           0
      1318 SHT      1318     S        C        CA      -0.031624       12.0107           0
      1319 SHT      1319     S        C        CA      -0.031624       12.0107           0
      1320 SHT      1320     S        C        CA      -0.031624       12.0107           0
      1321 SHT      1321     S        C        CA      -0.031624       12.0107           0
      1322 SHT      1322     S        C        CA      -0.031624       12.0107           0
      1323 SHT      1323     S        C        CA      -0.031624       12.0107           0
      1324 SHT      1324     S        C        CA      -0.031624       12.0107           0
      1325 SHT      1325     S        C        CA      -0.031624       12.0107           0
      1326 SHT      1326     S        C        CA      -0.031624       12.0107           0
      1327 SHT      1327     S        C        CA      -0.031624       12.0107           0
      1328 SHT      1328     S        C        CA      -0.031624       12.0107           0
      1329 SHT      1329     S        C        CA      -0.031624       12.0107           0
      1330 SHT      1330     S        C        CA      -0.031624       12.0107           0
      1331 SHT      1331     S        C        CA      -0.031624       12.0107           0
      1332 SHT      1332     S        C        CA      -0.031624       12.0107           0
      1333 SHT      1333     S        C        CA      -0.031624       12.0107           0
      1334 SHT      1334     S        C        CA      -0.031624       12.0107           0
      1335 SHT      1335     S        C        CA      -0.031624       12.0107           0
      1336 SHT      1336     S        C        CA      -0.031624       12.0107           0
      1337 SHT      1337     S        C        CA      -0.031624       12.0107           0
      1338 SHT      1338     S        C        CA      -0.031624       12.0107           0
      1339 SHT      1339     S        C        CA      -0.031624       12.0107           0
      1340 SHT      1340     S        C        CA      -0.031624       12.0107           0
      1341 SHT      1341     S        C        CA      -0.031624       12.0107           0
      1342 SHT      1342     S        C        CA      -0.031624       12.0107           0
      1343 SHT      1343     S        C        CA      -0.031624       12.0107           0
      1344 SHT      1344     S        C        CA      -0.031624       12.0107           0
      1345 SHT      1345     S        C        CA      -0.031624       12.0107           0
      1346 SHT      1346     S        C        CA      -0.031624       12.0107           0
      1347 SHT      1347     S        C        CA      -0.031624       12.0107           0
      1348 SHT      1348     S        C        CA      -0.031624       12.0107           0
      1349 SHT      1349     S        C        CA      -0.031624       12.0107           0
      1350 SHT      1350     S        C        CA      -0.031624       12.0107           0
      1351 SHT      1351     S        C        CA      -0.031624       12.0107           0
      1352 SHT      1352     S        C        CA      -0.031624       12.0107           0
      1353 SHT      1353     S        C        CA      -0.031624       12.0107           0
      1354 SHT      1354     S        C        CA      -0.031624       12.0107           0
      1355 SHT      1355     S        C        CA      -0.031624       12.0107           0
      1356 SHT      1356     S        C        CA      -0.031624       12.0107           0
      1357 SHT      1357     S        C        CA      -0.031624       12.0107           0
      1358 SHT      1358     S        C        CA      -0.031624       12.0107           0
      1359 SHT      1359     S        C        CA      -0.031624       12.0107           0
      1360 SHT      1360     S        C        CA      -0.031624       12.0107           0
      1361 SHT      1361     S        C        CA      -0.031624       12.0107           0
      1362 SHT      1362     S        C        CA      -0.031624       12.0107           0
      1363 SHT      1363     S        C        CA      -0.031624       12.0107           0
      1364 SHT      1364     S        C        CA      -0.031624       12.0107           0
      1365 SHT      1365     S        C        CA      -0.031624       12.0107           0
      1366 SHT      1366     S        C        CA      -0.031624       12.0107           0
      1367 SHT      1367     S        C        CA      -0.031624       12.0107           0
      1368 SHT      1368     S        C        CA      -0.031624       12.0107           0
      1369 SHT      1369     S        C        CA      -0.031624       12.0107           0
      1370 SHT      1370     S        C        CA      -0.031624       12.0107           0
      1371 SHT      1371     S        C        CA      -0.031624       12.0107           0
      1372 SHT      1372     S        C        CA      -0.031624       12.0107           0
      1373 SHT      1373     S        C        CA      -0.031624       12.0107           0
      1374 SHT      1374     S        C        CA      -0.031624       12.0107           0
      1375 SHT      1375     S        C        CA      -0.031624       12.0107           0
      1376 SHT      1376     S        C        CA      -0.031624       12.0107           0
      1377 SHT      1377     S        C        CA      -0.031624       12.0107           0
      1378 SHT      1378     S        C        CA      -0.031624       12.0107           0
      1379 SHT      1379     S        C        CA      -0.031624       12.0107           0
      1380 SHT      1380     S        C        CA      -0.031624       12.0107           0
      1381 SHT      1381     S        C        CA      -0.031624       12.0107           0
      1382 SHT      1382     S        C        CA      -0.031624       12.0107           0
      1383 SHT      1383     S        C        CA      -0.031624       12.0107           0
      1384 SHT      1384     S        C        CA      -0.031624       12.0107           0
      1385 SHT      1385     S        C        CA      -0.031624       12.0107           0
      1386 SHT      1386     S        C        CA      -0.031624       12.0107           0
      1387 SHT      1387     S        C        CA      -0.031624       12.0107           0
      1388 SHT      1388     S        C        CA      -0.031624       12.0107           0
      1389 SHT      1389     S        C        CA      -0.031624       12.0107           0
      1390 SHT      1390     S        C        CA      -0.031624       12.0107           0
      1391 SHT      1391     S        C        CA      -0.031624       12.0107           0
      1392 SHT      1392     S        C        CA      -0.031624       12.0107           0
      1393 SHT      1393     S        C        CA      -0.031624       12.0107           0
      1394 SHT      1394     S        C        CA      -0.031624       12.0107           0
      1395 SHT      1395     S        C        CA      -0.031624       12.0107           0
      1396 SHT      1396     S        C        CA      -0.031624       12.0107           0
      1397 SHT      1397     S        C        CA      -0.031624       12.0107           0
      1398 SHT      1398     S        C        CA      -0.031624       12.0107           0
      1399 SHT      1399     S        C        CA      -0.031624       12.0107           0
      1400 SHT      1400     S        C        CA      -0.031624       12.0107           0
      1401 SHT      1401     S        C        CA      -0.031624       12.0107           0
      1402 SHT      1402     S        C        CA      -0.031624       12.0107           0
      1403 SHT      1403     S        C        CA      -0.031624       12.0107           0
      1404 SHT      1404     S        C        CA      -0.031624       12.0107           0
      1405 SHT      1405     S        C        CA      -0.031624       12.0107           0
      1406 SHT      1406     S        C        CA      -0.031624       12.0107           0
      1407 SHT      1407     S        C        CA      -0.031624       12.0107           0
      1408 SHT      1408     S        C        CA      -0.031624       12.0107           0
      1409 SHT      1409     S        C        CA      -0.031624       12.0107           0
      1410 SHT      1410     S        C        CA      -0.031624       12.0107           0
      1411 SHT      1411     S        C        CA      -0.031624       12.0107           0
      1412 SHT      1412     S        C        CA      -0.031624       12.0107           0
      1413 SHT      1413     S        C        CA      -0.031624       12.0107           0
      1414 SHT      1414     S        C        CA      -0.031624       12.0107           0
      1415 SHT      1415     S        C        CA      -0.031624       12.0107           0
      1416 SHT      1416     S        C        CA      -0.031624       12.0107           0
      1417 SHT      1417     S        C        CA      -0.031624       12.0107           0
      1418 SHT      1418     S        C        CA      -0.031624       12.0107           0
      1419 SHT      1419     S        C        CA      -0.031624       12.0107           0
      1420 SHT      1420     S        C        CA      -0.031624       12.0107           0
      1421 SHT      1421     S        C        CA      -0.031624       12.0107           0
      1422 SHT      1422     S        C        CA      -0.031624       12.0107           0
      1423 SHT      1423     S        C        CA      -0.031624       12.0107           0
      1424 SHT      1424     S        C        CA      -0.031624       12.0107           0
      1425 SHT      1425     S        C        CA      -0.031624       12.0107           0
      1426 SHT      1426     S        C        CA      -0.031624       12.0107           0
      1427 SHT      1427     S        C        CA      -0.031624       12.0107           0
      1428 SHT      1428     S        C        CA      -0.031624       12.0107           0
      1429 SHT      1429     S        C        CA      -0.031624       12.0107           0
      1430 SHT      1430     S        C        CA      -0.031624       12.0107           0
      1431 SHT      1431     S        C        CA      -0.031624       12.0107           0
      1432 SHT      1432     S        C        CA      -0.031624       12.0107           0
      1433 SHT      1433     S        C        CA      -0.031624       12.0107           0
      1434 SHT      1434     S        C        CA      -0.031624       12.0107           0
      1435 SHT      1435     S        C        CA      -0.031624       12.0107           0
      1436 SHT      1436     S        C        CA      -0.031624       12.0107           0
      1437 SHT      1437     S        C        CA      -0.031624       12.0107           0
      1438 SHT      1438     S        C        CA      -0.031624       12.0107           0
      1439 SHT      1439     S        C        CA      -0.031624       12.0107           0
      1440 SHT      1440     S        C        CA      -0.031624       12.0107           0
      1441 SHT      1441     S        C        CA      -0.031624       12.0107           0
      1442 SHT      1442     S        C        CA      -0.031624       12.0107           0
      1443 SHT      1443     S        C        CA      -0.031624       12.0107           0
      1444 SHT      1444     S        C        CA      -0.031624       12.0107           0
      1445 SHT      1445     S        C        CA      -0.031624       12.0107           0
      1446 SHT      1446     S        C        CA      -0.031624       12.0107           0
      1447 SHT      1447     S        C        CA      -0.031624       12.0107           0
      1448 SHT      1448     S        C        CA      -0.031624       12.0107           0
      1449 SHT      1449     S        C        CA      -0.031624       12.0107           0
      1450 SHT      1450     S        C        CA      -0.031624       12.0107           0
      1451 SHT      1451     S        C        CA      -0.031624       12.0107           0
      1452 SHT      1452     S        C        CA      -0.031624       12.0107           0
      1453 SHT      1453     S        C        CA      -0.031624       12.0107           0
      1454 SHT      1454     S        C        CA      -0.031624       12.0107           0
      1455 SHT      1455     S        C        CA      -0.031624       12.0107           0
      1456 SHT      1456     S        C        CA      -0.031624       12.0107           0
      1457 SHT      1457     S        C        CA      -0.031624       12.0107           0
      1458 SHT      1458     S        C        CA      -0.031624       12.0107           0
      1459 SHT      1459     S        C        CA      -0.031624       12.0107           0
      1460 SHT      1460     S        C        CA      -0.031624       12.0107           0
      1461 SHT      1461     S        C        CA      -0.031624       12.0107           0
      1462 SHT      1462     S        C        CA      -0.031624       12.0107           0
      1463 SHT      1463     S        C        CA      -0.031624       12.0107           0
      1464 SHT      1464     S        C        CA      -0.031624       12.0107           0
      1465 SHT      1465     S        C        CA      -0.031624       12.0107           0
      1466 SHT      1466     S        C        CA      -0.031624       12.0107           0
      1467 SHT      1467     S        C        CA      -0.031624       12.0107           0
      1468 SHT      1468     S        C        CA      -0.031624       12.0107           0
      1469 SHT      1469     S        C        CA      -0.031624       12.0107           0
      1470 SHT      1470     S        C        CA      -0.031624       12.0107           0
      1471 SHT      1471     S        C        CA      -0.031624       12.0107           0
      1472 SHT      1472     S        C        CA      -0.031624       12.0107           0
      1473 SHT      1473     S        C        CA      -0.031624       12.0107           0
      1474 SHT      1474     S        C        CA      -0.031624       12.0107           0
      1475 SHT      1475     S        C        CA      -0.031624       12.0107           0
      1476 SHT      1476     S        C        CA      -0.031624       12.0107           0
      1477 SHT      1477     S        C        CA      -0.031624       12.0107           0
      1478 SHT      1478     S        C        CA      -0.031624       12.0107           0
      1479 SHT      1479     S        C        CA      -0.031624       12.0107           0
      1480 SHT      1480     S        C        CA      -0.031624       12.0107           0
      1481 SHT      1481     S        C        CA      -0.031624       12.0107           0
      1482 SHT      1482     S        C        CA      -0.031624       12.0107           0
      1483 SHT      1483     S        C        CA      -0.031624       12.0107           0
      1484 SHT      1484     S        C        CA      -0.031624       12.0107           0
      1485 SHT      1485     S        C        CA      -0.031624       12.0107           0
      1486 SHT      1486     S        C        CA      -0.031624       12.0107           0
      1487 SHT      1487     S        C        CA      -0.031624       12.0107           0
      1488 SHT      1488     S        C        CA      -0.031624       12.0107           0
      1489 SHT      1489     S        C        CA      -0.031624       12.0107           0
      1490 SHT      1490     S        C        CA      -0.031624       12.0107           0
      1491 SHT      1491     S        C        CA      -0.031624       12.0107           0
      1492 SHT      1492     S        C        CA      -0.031624       12.0107           0
      1493 SHT      1493     S        C        CA      -0.031624       12.0107           0
      1494 SHT      1494     S        C        CA      -0.031624       12.0107           0
      1495 SHT      1495     S        C        CA      -0.031624       12.0107           0
      1496 SHT      1496     S        C        CA      -0.031624       12.0107           0
      1497 SHT      1497     S        C        CA      -0.031624       12.0107           0
      1498 SHT      1498     S        C        CA      -0.031624       12.0107           0
      1499 SHT      1499     S        C        CA      -0.031624       12.0107           0
      1500 SHT      1500     S        C        CA      -0.031624       12.0107           0
      1501 SHT      1501     S        C        CA      -0.031624       12.0107           0
      1502 SHT      1502     S        C        CA      -0.031624       12.0107           0
      1503 SHT      1503     S        C        CA      -0.031624       12.0107           0
      1504 SHT      1504     S        C        CA      -0.031624       12.0107           0
      1505 SHT      1505     S        C        CA      -0.031624       12.0107           0
      1506 SHT      1506     S        C        CA      -0.031624       12.0107           0
      1507 SHT      1507     S        C        CA      -0.031624       12.0107           0
      1508 SHT      1508     S        C        CA      -0.031624       12.0107           0
      1509 SHT      1509     S        C        CA      -0.031624       12.0107           0
      1510 SHT      1510     S        C        CA      -0.031624       12.0107           0
      1511 SHT      1511     S        C        CA      -0.031624       12.0107           0
      1512 SHT      1512     S        C        CA      -0.031624       12.0107           0
      1513 SHT      1513     S        C        CA      -0.031624       12.0107           0
      1514 SHT      1514     S        C        CA      -0.031624       12.0107           0
      1515 SHT      1515     S        C        CA      -0.031624       12.0107           0
      1516 SHT      1516     S        C        CA      -0.031624       12.0107           0
      1517 SHT      1517     S        C        CA      -0.031624       12.0107           0
      1518 SHT      1518     S        C        CA      -0.031624       12.0107           0
      1519 SHT      1519     S        C        CA      -0.031624       12.0107           0
      1520 SHT      1520     S        C        CA      -0.031624       12.0107           0
      1521 SHT      1521     S        C        CA      -0.031624       12.0107           0
      1522 SHT      1522     S        C        CA      -0.031624       12.0107           0
      1523 SHT      1523     S        C        CA      -0.031624       12.0107           0
      1524 SHT      1524     S        C        CA      -0.031624       12.0107           0
      1525 SHT      1525     S        C        CA      -0.031624       12.0107           0
      1526 SHT      1526     S        C        CA      -0.031624       12.0107           0
      1527 SHT      1527     S        C        CA      -0.031624       12.0107           0
      1528 SHT      1528     S        C        CA      -0.031624       12.0107           0
      1529 SHT      1529     S        C        CA      -0.031624       12.0107           0
      1530 SHT      1530     S        C        CA      -0.031624       12.0107           0
      1531 SHT      1531     S        C        CA      -0.031624       12.0107           0
      1532 SHT      1532     S        C        CA      -0.031624       12.0107           0
      1533 SHT      1533     S        C        CA      -0.031624       12.0107           0
      1534 SHT      1534     S        C        CA      -0.031624       12.0107           0
      1535 SHT      1535     S        C        CA      -0.031624       12.0107           0
      1536 SHT      1536     S        C        CA      -0.031624       12.0107           0
      1537 SHT      1537     S        C        CA      -0.031624       12.0107           0
      1538 SHT      1538     S        C        CA      -0.031624       12.0107           0
      1539 SHT      1539     S        C        CA      -0.031624       12.0107           0
      1540 SHT      1540     S        C        CA      -0.031624       12.0107           0
      1541 SHT      1541     S        C        CA      -0.031624       12.0107           0
      1542 SHT      1542     S        C        CA      -0.031624       12.0107           0
      1543 SHT      1543     S        C        CA      -0.031624       12.0107           0
      1544 SHT      1544     S        C        CA      -0.031624       12.0107           0
      1545 SHT      1545     S        C        CA      -0.031624       12.0107           0
      1546 SHT      1546     S        C        CA      -0.031624       12.0107           0
      1547 SHT      1547     S        C        CA      -0.031624       12.0107           0
      1548 SHT      1548     S        C        CA      -0.031624       12.0107           0
      1549 SHT      1549     S        C        CA      -0.031624       12.0107           0
      1550 SHT      1550     S        C        CA      -0.031624       12.0107           0
      1551 SHT      1551     S        C        CA      -0.031624       12.0107           0
      1552 SHT      1552     S        C        CA      -0.031624       12.0107           0
      1553 SHT      1553     S        C        CA      -0.031624       12.0107           0
      1554 SHT      1554     S        C        CA      -0.031624       12.0107           0
      1555 SHT      1555     S        C        CA      -0.031624       12.0107           0
      1556 SHT      1556     S        C        CA      -0.031624       12.0107           0
      1557 SHT      1557     S        C        CA      -0.031624       12.0107           0
      1558 SHT      1558     S        C        CA      -0.031624       12.0107           0
      1559 SHT      1559     S        C        CA      -0.031624       12.0107           0
      1560 SHT      1560     S        C        CA      -0.031624       12.0107           0
      1561 SHT      1561     S        C        CA      -0.031624       12.0107           0
      1562 SHT      1562     S        C        CA      -0.031624       12.0107           0
      1563 SHT      1563     S        C        CA      -0.031624       12.0107           0
      1564 SHT      1564     S        C        CA      -0.031624       12.0107           0
      1565 SHT      1565     S        C        CA      -0.031624       12.0107           0
      1566 SHT      1566     S        C        CA      -0.031624       12.0107           0
      1567 SHT      1567     S        C        CA      -0.031624       12.0107           0
      1568 SHT      1568     S        C        CA      -0.031624       12.0107           0
      1569 SHT      1569     S        C        CA      -0.031624       12.0107           0
      1570 SHT      1570     S        C        CA      -0.031624       12.0107           0
      1571 SHT      1571     S        C        CA      -0.031624       12.0107           0
      1572 SHT      1572     S        C        CA      -0.031624       12.0107           0
      1573 SHT      1573     S        C        CA      -0.031624       12.0107           0
      1574 SHT      1574     S        C        CA      -0.031624       12.0107           0
      1575 SHT      1575     S        C        CA      -0.031624       12.0107           0
      1576 SHT      1576     S        C        CA      -0.031624       12.0107           0
      1577 SHT      1577     S        C        CA      -0.031624       12.0107           0
      1578 SHT      1578     S        C        CA      -0.031624       12.0107           0
      1579 SHT      1579     S        C        CA      -0.031624       12.0107           0
      1580 SHT      1580     S        C        CA      -0.031624       12.0107           0
      1581 SHT      1581     S        C        CA      -0.031624       12.0107           0
      1582 SHT      1582     S        C        CA      -0.031624       12.0107           0
      1583 SHT      1583     S        C        CA      -0.031624       12.0107           0
      1584 SHT      1584     S        C        CA      -0.031624       12.0107           0
      1585 SHT      1585     S        C        CA      -0.031624       12.0107           0
      1586 SHT      1586     S        C        CA      -0.031624       12.0107           0
      1587 SHT      1587     S        C        CA      -0.031624       12.0107           0
      1588 SHT      1588     S        C        CA      -0.031624       12.0107           0
      1589 SHT      1589     S        C        CA      -0.031624       12.0107           0
      1590 SHT      1590     S        C        CA      -0.031624       12.0107           0
      1591 SHT      1591     S        C        CA      -0.031624       12.0107           0
      1592 SHT      1592     S        C        CA      -0.031624       12.0107           0
      1593 SHT      1593     S        C        CA      -0.031624       12.0107           0
      1594 SHT      1594     S        C        CA      -0.031624       12.0107           0
      1595 SHT      1595     S        C        CA      -0.031624       12.0107           0
      1596 SHT      1596     S        C        CA      -0.031624       12.0107           0
      1597 SHT      1597     S        C        CA      -0.031624       12.0107           0
      1598 SHT      1598     S        C        CA      -0.031624       12.0107           0
      1599 SHT      1599     S        C        CA      -0.031624       12.0107           0
      1600 SHT      1600     S        C        CA      -0.031624       12.0107           0
      1601 SHT      1601     S        C        CA      -0.031624       12.0107           0
      1602 SHT      1602     S        C        CA      -0.031624       12.0107           0
      1603 SHT      1603     S        C        CA      -0.031624       12.0107           0
      1604 SHT      1604     S        C        CA      -0.031624       12.0107           0
      1605 SHT      1605     S        C        CA      -0.031624       12.0107           0
      1606 SHT      1606     S        C        CA      -0.031624       12.0107           0
      1607 SHT      1607     S        C        CA      -0.031624       12.0107           0
      1608 SHT      1608     S        C        CA      -0.031624       12.0107           0
      1609 SHT      1609     S        C        CA      -0.031624       12.0107           0
      1610 SHT      1610     S        C        CA      -0.031624       12.0107           0
      1611 SHT      1611     S        C        CA      -0.031624       12.0107           0
      1612 SHT      1612     S        C        CA      -0.031624       12.0107           0
      1613 SHT      1613     S        C        CA      -0.031624       12.0107           0
      1614 SHT      1614     S        C        CA      -0.031624       12.0107           0
      1615 SHT      1615     S        C        CA      -0.031624       12.0107           0
      1616 SHT      1616     S        C        CA      -0.031624       12.0107           0
      1617 SHT      1617     S        C        CA      -0.031624       12.0107           0
      1618 SHT      1618     S        C        CA      -0.031624       12.0107           0
      1619 SHT      1619     S        C        CA      -0.031624       12.0107           0
      1620 SHT      1620     S        C        CA      -0.031624       12.0107           0
      1621 SHT      1621     S        C        CA      -0.031624       12.0107           0
      1622 SHT      1622     S        C        CA      -0.031624       12.0107           0
      1623 SHT      1623     S        C        CA      -0.031624       12.0107           0
      1624 SHT      1624     S        C        CA      -0.031624       12.0107           0
      1625 SHT      1625     S        C        CA      -0.031624       12.0107           0
      1626 SHT      1626     S        C        CA      -0.031624       12.0107           0
      1627 SHT      1627     S        C        CA      -0.031624       12.0107           0
      1628 SHT      1628     S        C        CA      -0.031624       12.0107           0
      1629 SHT      1629     S        C        CA      -0.031624       12.0107           0
      1630 SHT      1630     S        C        CA      -0.031624       12.0107           0
      1631 SHT      1631     S        C        CA      -0.031624       12.0107           0
      1632 SHT      1632     S        C        CA      -0.031624       12.0107           0
      1633 SHT      1633     S        C        CA      -0.031624       12.0107           0
      1634 SHT      1634     S        C        CA      -0.031624       12.0107           0
      1635 SHT      1635     S        C        CA      -0.031624       12.0107           0
      1636 SHT      1636     S        C        CA      -0.031624       12.0107           0
      1637 SHT      1637     S        C        CA      -0.031624       12.0107           0
      1638 SHT      1638     S        C        CA      -0.031624       12.0107           0
      1639 SHT      1639     S        C        CA      -0.031624       12.0107           0
      1640 SHT      1640     S        C        CA      -0.031624       12.0107           0
      1641 SHT      1641     S        C        CA      -0.031624       12.0107           0
      1642 SHT      1642     S        C        CA      -0.031624       12.0107           0
      1643 SHT      1643     S        C        CA      -0.031624       12.0107           0
      1644 SHT      1644     S        C        CA      -0.031624       12.0107           0
      1645 SHT      1645     S        C        CA      -0.031624       12.0107           0
      1646 SHT      1646     S        C        CA      -0.031624       12.0107           0
      1647 SHT      1647     S        C        CA      -0.031624       12.0107           0
      1648 SHT      1648     S        C        CA      -0.031624       12.0107           0
      1649 SHT      1649     S        C        CA      -0.031624       12.0107           0
      1650 SHT      1650     S        C        CA      -0.031624       12.0107           0
      1651 SHT      1651     S        C        CA      -0.031624       12.0107           0
      1652 SHT      1652     S        C        CA      -0.031624       12.0107           0
      1653 SHT      1653     S        C        CA      -0.031624       12.0107           0
      1654 SHT      1654     S        C        CA      -0.031624       12.0107           0
      1655 SHT      1655     S        C        CA      -0.031624       12.0107           0
      1656 SHT      1656     S        C        CA      -0.031624       12.0107           0
      1657 SHT      1657     S        C        CA      -0.031624       12.0107           0
      1658 SHT      1658     S        C        CA      -0.031624       12.0107           0
      1659 SHT      1659     S        C        CA      -0.031624       12.0107           0
      1660 SHT      1660     S        C        CA      -0.031624       12.0107           0
      1661 SHT      1661     S        C        CA      -0.031624       12.0107           0
      1662 SHT      1662     S        C        CA      -0.031624       12.0107           0
      1663 SHT      1663     S        C        CA      -0.031624       12.0107           0
      1664 SHT      1664     S        C        CA      -0.031624       12.0107           0
      1665 SHT      1665     S        C        CA      -0.031624       12.0107           0
      1666 SHT      1666     S        C        CA      -0.031624       12.0107           0
      1667 SHT      1667     S        C        CA      -0.031624       12.0107           0
      1668 SHT      1668     S        C        CA      -0.031624       12.0107           0
      1669 SHT      1669     S        C        CA      -0.031624       12.0107           0
      1670 SHT      1670     S        C        CA      -0.031624       12.0107           0
      1671 SHT      1671     S        C        CA      -0.031624       12.0107           0
      1672 SHT      1672     S        C        CA      -0.031624       12.0107           0
      1673 SHT      1673     S        C        CA      -0.031624       12.0107           0
      1674 SHT      1674     S        C        CA      -0.031624       12.0107           0
      1675 SHT      1675     S        C        CA      -0.031624       12.0107           0
      1676 SHT      1676     S        C        CA      -0.031624       12.0107           0
      1677 SHT      1677     S        C        CA      -0.031624       12.0107           0
      1678 SHT      1678     S        C        CA      -0.031624       12.0107           0
      1679 SHT      1679     S        C        CA      -0.031624       12.0107           0
      1680 SHT      1680     S        C        CA      -0.031624       12.0107           0
      1681 SHT      1681     S        C        CA      -0.031624       12.0107           0
      1682 SHT      1682     S        C        CA      -0.031624       12.0107           0
      1683 SHT      1683     S        C        CA      -0.031624       12.0107           0
      1684 SHT      1684     S        C        CA      -0.031624       12.0107           0
      1685 SHT      1685     S        C        CA      -0.031624       12.0107           0
      1686 SHT      1686     S        C        CA      -0.031624       12.0107           0
      1687 SHT      1687     S        C        CA      -0.031624       12.0107           0
      1688 SHT      1688     S        C        CA      -0.031624       12.0107           0
      1689 SHT      1689     S        C        CA      -0.031624       12.0107           0
      1690 SHT      1690     S        C        CA      -0.031624       12.0107           0
      1691 SHT      1691     S        C        CA      -0.031624       12.0107           0
      1692 SHT      1692     S        C        CA      -0.031624       12.0107           0
      1693 SHT      1693     S        C        CA      -0.031624       12.0107           0
      1694 SHT      1694     S        C        CA      -0.031624       12.0107           0
      1695 SHT      1695     S        C        CA      -0.031624       12.0107           0
      1696 SHT      1696     S        C        CA      -0.031624       12.0107           0
      1697 SHT      1697     S        C        CA      -0.031624       12.0107           0
      1698 SHT      1698     S        C        CA      -0.031624       12.0107           0
      1699 SHT      1699     S        C        CA      -0.031624       12.0107           0
      1700 SHT      1700     S        C        CA      -0.031624       12.0107           0
      1701 SHT      1701     S        C        CA      -0.031624       12.0107           0
      1702 SHT      1702     S        C        CA      -0.031624       12.0107           0
      1703 SHT      1703     S        C        CA      -0.031624       12.0107           0
      1704 SHT      1704     S        C        CA      -0.031624       12.0107           0
      1705 SHT      1705     S        C        CA      -0.031624       12.0107           0
      1706 SHT      1706     S        C        CA      -0.031624       12.0107           0
      1707 SHT      1707     S        C        CA      -0.031624       12.0107           0
      1708 SHT      1708     S        C        CA      -0.031624       12.0107           0
      1709 SHT      1709     S        C        CA      -0.031624       12.0107           0
      1710 SHT      1710     S        C        CA      -0.031624       12.0107           0
      1711 SHT      1711     S        C        CA      -0.031624       12.0107           0
      1712 SHT      1712     S        C        CA      -0.031624       12.0107           0
      1713 SHT      1713     S        C        CA      -0.031624       12.0107           0
      1714 SHT      1714     S        C        CA      -0.031624       12.0107           0
      1715 SHT      1715     S        C        CA      -0.031624       12.0107           0
      1716 SHT      1716     S        C        CA      -0.031624       12.0107           0
      1717 SHT      1717     S        C        CA      -0.031624       12.0107           0
      1718 SHT      1718     S        C        CA      -0.031624       12.0107           0
      1719 SHT      1719     S        C        CA      -0.031624       12.0107           0
      1720 SHT      1720     S        C        CA      -0.031624       12.0107           0
      1721 SHT      1721     S        C        CA      -0.031624       12.0107           0
      1722 SHT      1722     S        C        CA      -0.031624       12.0107           0
      1723 SHT      1723     S        C        CA      -0.031624       12.0107           0
      1724 SHT      1724     S        C        CA      -0.031624       12.0107           0
      1725 SHT      1725     S        C        CA      -0.031624       12.0107           0
      1726 SHT      1726     S        C        CA      -0.031624       12.0107           0
      1727 SHT      1727     S        C        CA      -0.031624       12.0107           0
      1728 SHT      1728     S        C        CA      -0.031624       12.0107           0
      1729 SHT      1729     S        C        CA      -0.031624       12.0107           0
      1730 SHT      1730     S        C        CA      -0.031624       12.0107           0
      1731 SHT      1731     S        C        CA      -0.031624       12.0107           0
      1732 SHT      1732     S        C        CA      -0.031624       12.0107           0
      1733 SHT      1733     S        C        CA      -0.031624       12.0107           0
      1734 SHT      1734     S        C        CA      -0.031624       12.0107           0
      1735 SHT      1735     S        C        CA      -0.031624       12.0107           0
      1736 SHT      1736     S        C        CA      -0.031624       12.0107           0
      1737 SHT      1737     S        C        CA      -0.031624       12.0107           0
      1738 SHT      1738     S        C        CA      -0.031624       12.0107           0
      1739 SHT      1739     S        C        CA      -0.031624       12.0107           0
      1740 SHT      1740     S        C        CA      -0.031624       12.0107           0
      1741 SHT      1741     S        C        CA      -0.031624       12.0107           0
      1742 SHT      1742     S        C        CA      -0.031624       12.0107           0
      1743 SHT      1743     S        C        CA      -0.031624       12.0107           0
      1744 SHT      1744     S        C        CA      -0.031624       12.0107           0
      1745 SHT      1745     S        C        CA      -0.031624       12.0107           0
      1746 SHT      1746     S        C        CA      -0.031624       12.0107           0
      1747 SHT      1747     S        C        CA      -0.031624       12.0107           0
      1748 SHT      1748     S        C        CA      -0.031624       12.0107           0
      1749 SHT      1749     S        C        CA      -0.031624       12.0107           0
      1750 SHT      1750     S        C        CA      -0.031624       12.0107           0
      1751 SHT      1751     S        C        CA      -0.031624       12.0107           0
      1752 SHT      1752     S        C        CA      -0.031624       12.0107           0
      1753 SHT      1753     S        C        CA      -0.031624       12.0107           0
      1754 SHT      1754     S        C        CA      -0.031624       12.0107           0
      1755 SHT      1755     S        C        CA      -0.031624       12.0107           0
      1756 SHT      1756     S        C        CA      -0.031624       12.0107           0
      1757 SHT      1757     S        C        CA      -0.031624       12.0107           0
      1758 SHT      1758     S        C        CA      -0.031624       12.0107           0
      1759 SHT      1759     S        C        CA      -0.031624       12.0107           0
      1760 SHT      1760     S        C        CA      -0.031624       12.0107           0
      1761 SHT      1761     S        C        CA      -0.031624       12.0107           0
      1762 SHT      1762     S        C        CA      -0.031624       12.0107           0
      1763 SHT      1763     S        C        CA      -0.031624       12.0107           0
      1764 SHT      1764     S        C        CA      -0.031624       12.0107           0
      1765 SHT      1765     S        C        CA      -0.031624       12.0107           0
      1766 SHT      1766     S        C        CA      -0.031624       12.0107           0
      1767 SHT      1767     S        C        CA      -0.031624       12.0107           0
      1768 SHT      1768     S        C        CA      -0.031624       12.0107           0
      1769 SHT      1769     S        C        CA      -0.031624       12.0107           0
      1770 SHT      1770     S        C        CA      -0.031624       12.0107           0
      1771 SHT      1771     S        C        CA      -0.031624       12.0107           0
      1772 SHT      1772     S        C        CA      -0.031624       12.0107           0
      1773 SHT      1773     S        C        CA      -0.031624       12.0107           0
      1774 SHT      1774     S        C        CA      -0.031624       12.0107           0
      1775 SHT      1775     S        C        CA      -0.031624       12.0107           0
      1776 SHT      1776     S        C        CA      -0.031624       12.0107           0
      1777 SHT      1777     S        C        CA      -0.031624       12.0107           0
      1778 SHT      1778     S        C        CA      -0.031624       12.0107           0
      1779 SHT      1779     S        C        CA      -0.031624       12.0107           0
      1780 SHT      1780     S        C        CA      -0.031624       12.0107           0
      1781 SHT      1781     S        C        CA      -0.031624       12.0107           0
      1782 SHT      1782     S        C        CA      -0.031624       12.0107           0
      1783 SHT      1783     S        C        CA      -0.031624       12.0107           0
      1784 SHT      1784     S        C        CA      -0.031624       12.0107           0
      1785 SHT      1785     S        C        CA      -0.031624       12.0107           0
      1786 SHT      1786     S        C        CA      -0.031624       12.0107           0
      1787 SHT      1787     S        C        CA      -0.031624       12.0107           0
      1788 SHT      1788     S        C        CA      -0.031624       12.0107           0
      1789 SHT      1789     S        C        CA      -0.031624       12.0107           0
      1790 SHT      1790     S        C        CA      -0.031624       12.0107           0
      1791 SHT      1791     S        C        CA      -0.031624       12.0107           0
      1792 SHT      1792     S        C        CA      -0.031624       12.0107           0
      1793 SHT      1793     S        C        CA      -0.031624       12.0107           0
      1794 SHT      1794     S        C        CA      -0.031624       12.0107           0
      1795 SHT      1795     S        C        CA      -0.031624       12.0107           0
      1796 SHT      1796     S        C        CA      -0.031624       12.0107           0
      1797 SHT      1797     S        C        CA      -0.031624       12.0107           0
      1798 SHT      1798     S        C        CA      -0.031624       12.0107           0
      1799 SHT      1799     S        C        CA      -0.031624       12.0107           0
      1800 SHT      1800     S        C        CA      -0.031624       12.0107           0
      1801 SHT      1801     S        C        CA      -0.031624       12.0107           0
      1802 SHT      1802     S        C        CA      -0.031624       12.0107           0
      1803 SHT      1803     S        C        CA      -0.031624       12.0107           0
      1804 SHT      1804     S        C        CA      -0.031624       12.0107           0
      1805 SHT      1805     S        C        CA      -0.031624       12.0107           0
      1806 SHT      1806     S        C        CA      -0.031624       12.0107           0
      1807 SHT      1807     S        C        CA      -0.031624       12.0107           0
      1808 SHT      1808     S        C        CA      -0.031624       12.0107           0
      1809 SHT      1809     S        C        CA      -0.031624       12.0107           0
      1810 SHT      1810     S        C        CA      -0.031624       12.0107           0
      1811 SHT      1811     S        C        CA      -0.031624       12.0107           0
      1812 SHT      1812     S        C        CA      -0.031624       12.0107           0
      1813 SHT      1813     S        C        CA      -0.031624       12.0107           0
      1814 SHT      1814     S        C        CA      -0.031624       12.0107           0
      1815 SHT      1815     S        C        CA      -0.031624       12.0107           0
      1816 SHT      1816     S        C        CA      -0.031624       12.0107           0
      1817 SHT      1817     S        C        CA      -0.031624       12.0107           0
      1818 SHT      1818     S        C        CA      -0.031624       12.0107           0
      1819 SHT      1819     S        C        CA      -0.031624       12.0107           0
      1820 SHT      1820     S        C        CA      -0.031624       12.0107           0
      1821 SHT      1821     S        C        CA      -0.031624       12.0107           0
      1822 SHT      1822     S        C        CA      -0.031624       12.0107           0
      1823 SHT      1823     S        C        CA      -0.031624       12.0107           0
      1824 SHT      1824     S        C        CA      -0.031624       12.0107           0
      1825 SHT      1825     S        C        CA      -0.031624       12.0107           0
      1826 SHT      1826     S        C        CA      -0.031624       12.0107           0
      1827 SHT      1827     S        C        CA      -0.031624       12.0107           0
      1828 SHT      1828     S        C        CA      -0.031624       12.0107           0
      1829 SHT      1829     S        C        CA      -0.031624       12.0107           0
      1830 SHT      1830     S        C        CA      -0.031624       12.0107           0
      1831 SHT      1831     S        C        CA      -0.031624       12.0107           0
      1832 SHT      1832     S        C        CA      -0.031624       12.0107           0
      1833 SHT      1833     S        C        CA      -0.031624       12.0107           0
      1834 SHT      1834     S        C        CA      -0.031624       12.0107           0
      1835 SHT      1835     S        C        CA      -0.031624       12.0107           0
      1836 SHT      1836     S        C        CA      -0.031624       12.0107           0
      1837 SHT      1837     S        C        CA      -0.031624       12.0107           0
      1838 SHT      1838     S        C        CA      -0.031624       12.0107           0
      1839 SHT      1839     S        C        CA      -0.031624       12.0107           0
      1840 SHT      1840     S        C        CA      -0.031624       12.0107           0
      1841 SHT      1841     S        C        CA      -0.031624       12.0107           0
      1842 SHT      1842     S        C        CA      -0.031624       12.0107           0
      1843 SHT      1843     S        C        CA      -0.031624       12.0107           0
      1844 SHT      1844     S        C        CA      -0.031624       12.0107           0
      1845 SHT      1845     S        C        CA      -0.031624       12.0107           0
      1846 SHT      1846     S        C        CA      -0.031624       12.0107           0
      1847 SHT      1847     S        C        CA      -0.031624       12.0107           0
      1848 SHT      1848     S        C        CA      -0.031624       12.0107           0
      1849 SHT      1849     S        C        CA      -0.031624       12.0107           0
      1850 SHT      1850     S        C        CA      -0.031624       12.0107           0
      1851 SHT      1851     S        C        CA      -0.031624       12.0107           0
      1852 SHT      1852     S        C        CA      -0.031624       12.0107           0
      1853 SHT      1853     S        C        CA      -0.031624       12.0107           0
      1854 SHT      1854     S        C        CA      -0.031624       12.0107           0
      1855 SHT      1855     S        C        CA      -0.031624       12.0107           0
      1856 SHT      1856     S        C        CA      -0.031624       12.0107           0
      1857 SHT      1857     S        C        CA      -0.031624       12.0107           0
      1858 SHT      1858     S        C        CA      -0.031624       12.0107           0
      1859 SHT      1859     S        C        CA      -0.031624       12.0107           0
      1860 SHT      1860     S        C        CA      -0.031624       12.0107           0
      1861 SHT      1861     S        C        CA      -0.031624       12.0107           0
      1862 SHT      1862     S        C        CA      -0.031624       12.0107           0
      1863 SHT      1863     S        C        CA      -0.031624       12.0107           0
      1864 SHT      1864     S        C        CA      -0.031624       12.0107           0
      1865 SHT      1865     S        C        CA      -0.031624       12.0107           0
      1866 SHT      1866     S        C        CA      -0.031624       12.0107           0
      1867 SHT      1867     S        C        CA      -0.031624       12.0107           0
      1868 SHT      1868     S        C        CA      -0.031624       12.0107           0
      1869 SHT      1869     S        C        CA      -0.031624       12.0107           0
      1870 SHT      1870     S        C        CA      -0.031624       12.0107           0
      1871 SHT      1871     S        C        CA      -0.031624       12.0107           0
      1872 SHT      1872     S        C        CA      -0.031624       12.0107           0
      1873 SHT      1873     S        C        CA      -0.031624       12.0107           0
      1874 SHT      1874     S        C        CA      -0.031624       12.0107           0
      1875 SHT      1875     S        C        CA      -0.031624       12.0107           0
      1876 SHT      1876     S        C        CA      -0.031624       12.0107           0
      1877 SHT      1877     S        C        CA      -0.031624       12.0107           0
      1878 SHT      1878     S        C        CA      -0.031624       12.0107           0
      1879 SHT      1879     S        C        CA      -0.031624       12.0107           0
      1880 SHT      1880     S        C        CA      -0.031624       12.0107           0
      1881 SHT      1881     S        C        CA      -0.031624       12.0107           0
      1882 SHT      1882     S        C        CA      -0.031624       12.0107           0
      1883 SHT      1883     S        C        CA      -0.031624       12.0107           0
      1884 SHT      1884     S        C        CA      -0.031624       12.0107           0
      1885 SHT      1885     S        C        CA      -0.031624       12.0107           0
      1886 SHT      1886     S        C        CA      -0.031624       12.0107           0
      1887 SHT      1887     S        C        CA      -0.031624       12.0107           0
      1888 SHT      1888     S        C        CA      -0.031624       12.0107           0
      1889 SHT      1889     S        C        CA      -0.031624       12.0107           0
      1890 SHT      1890     S        C        CA      -0.031624       12.0107           0
      1891 SHT      1891     S        C        CA      -0.031624       12.0107           0
      1892 SHT      1892     S        C        CA      -0.031624       12.0107           0
      1893 SHT      1893     S        C        CA      -0.031624       12.0107           0
      1894 SHT      1894     S        C        CA      -0.031624       12.0107           0
      1895 SHT      1895     S        C        CA      -0.031624       12.0107           0
      1896 SHT      1896     S        C        CA      -0.031624       12.0107           0
      1897 SHT      1897     S        C        CA      -0.031624       12.0107           0
      1898 SHT      1898     S        C        CA      -0.031624       12.0107           0
      1899 SHT      1899     S        C        CA      -0.031624       12.0107           0
      1900 SHT      1900     S        C        CA      -0.031624       12.0107           0
      1901 SHT      1901     S        C        CA      -0.031624       12.0107           0
      1902 SHT      1902     S        C        CA      -0.031624       12.0107           0
      1903 SHT      1903     S        C        CA      -0.031624       12.0107           0
      1904 SHT      1904     S        C        CA      -0.031624       12.0107           0
      1905 SHT      1905     S        C        CA      -0.031624       12.0107           0
      1906 SHT      1906     S        C        CA      -0.031624       12.0107           0
      1907 SHT      1907     S        C        CA      -0.031624       12.0107           0
      1908 SHT      1908     S        C        CA      -0.031624       12.0107           0
      1909 SHT      1909     S        C        CA      -0.031624       12.0107           0
      1910 SHT      1910     S        C        CA      -0.031624       12.0107           0
      1911 SHT      1911     S        C        CA      -0.031624       12.0107           0
      1912 SHT      1912     S        C        CA      -0.031624       12.0107           0
      1913 SHT      1913     S        C        CA      -0.031624       12.0107           0
      1914 SHT      1914     S        C        CA      -0.031624       12.0107           0
      1915 SHT      1915     S        C        CA      -0.031624       12.0107           0
      1916 SHT      1916     S        C        CA      -0.031624       12.0107           0
      1917 SHT      1917     S        C        CA      -0.031624       12.0107           0
      1918 SHT      1918     S        C        CA      -0.031624       12.0107           0
      1919 SHT      1919     S        C        CA      -0.031624       12.0107           0
      1920 SHT      1920     S        C        CA      -0.031624       12.0107           0
      1921 SHT      1921     S        C        CA      -0.031624       12.0107           0
      1922 SHT      1922     S        C        CA      -0.031624       12.0107           0
      1923 SHT      1923     S        C        CA      -0.031624       12.0107           0
      1924 SHT      1924     S        C        CA      -0.031624       12.0107           0
      1925 SHT      1925     S        C        CA      -0.031624       12.0107           0
      1926 SHT      1926     S        C        CA      -0.031624       12.0107           0
      1927 SHT      1927     S        C        CA      -0.031624       12.0107           0
      1928 SHT      1928     S        C        CA      -0.031624       12.0107           0
      1929 SHT      1929     S        C        CA      -0.031624       12.0107           0
      1930 SHT      1930     S        C        CA      -0.031624       12.0107           0
      1931 SHT      1931     S        C        CA      -0.031624       12.0107           0
      1932 SHT      1932     S        C        CA      -0.031624       12.0107           0
      1933 SHT      1933     S        C        CA      -0.031624       12.0107           0
      1934 SHT      1934     S        C        CA      -0.031624       12.0107           0
      1935 SHT      1935     S        C        CA      -0.031624       12.0107           0
      1936 SHT      1936     S        C        CA      -0.031624       12.0107           0
      1937 SHT      1937     S        C        CA      -0.031624       12.0107           0
      1938 SHT      1938     S        C        CA      -0.031624       12.0107           0
      1939 SHT      1939     S        C        CA      -0.031624       12.0107           0
      1940 SHT      1940     S        C        CA      -0.031624       12.0107           0
      1941 SHT      1941     S        C        CA      -0.031624       12.0107           0
      1942 SHT      1942     S        C        CA      -0.031624       12.0107           0
      1943 SHT      1943     S        C        CA      -0.031624       12.0107           0
      1944 SHT      1944     S        C        CA      -0.031624       12.0107           0
      1945 SHT      1945     S        C        CA      -0.031624       12.0107           0
      1946 SHT      1946     S        C        CA      -0.031624       12.0107           0
      1947 SHT      1947     S        C        CA      -0.031624       12.0107           0
      1948 SHT      1948     S        C        CA      -0.031624       12.0107           0
      1949 SHT      1949     S        C        CA      -0.031624       12.0107           0
      1950 SHT      1950     S        C        CA      -0.031624       12.0107           0
      1951 SHT      1951     S        C        CA      -0.031624       12.0107           0
      1952 SHT      1952     S        C        CA      -0.031624       12.0107           0
      1953 SHT      1953     S        C        CA      -0.031624       12.0107           0
      1954 SHT      1954     S        C        CA      -0.031624       12.0107           0
      1955 SHT      1955     S        C        CA      -0.031624       12.0107           0
      1956 SHT      1956     S        C        CA      -0.031624       12.0107           0
      1957 SHT      1957     S        C        CA      -0.031624       12.0107           0
      1958 SHT      1958     S        C        CA      -0.031624       12.0107           0
      1959 SHT      1959     S        C        CA      -0.031624       12.0107           0
      1960 SHT      1960     S        C        CA      -0.031624       12.0107           0
      1961 SHT      1961     S        C        CA      -0.031624       12.0107           0
      1962 SHT      1962     S        C        CA      -0.031624       12.0107           0
      1963 SHT      1963     S        C        CA      -0.031624       12.0107           0
      1964 SHT      1964     S        C        CA      -0.031624       12.0107           0
      1965 SHT      1965     S        C        CA      -0.031624       12.0107           0
      1966 SHT      1966     S        C        CA      -0.031624       12.0107           0
      1967 SHT      1967     S        C        CA      -0.031624       12.0107           0
      1968 SHT      1968     S        C        CA      -0.031624       12.0107           0
      1969 SHT      1969     S        C        CA      -0.031624       12.0107           0
      1970 SHT      1970     S        C        CA      -0.031624       12.0107           0
      1971 SHT      1971     S        C        CA      -0.031624       12.0107           0
      1972 SHT      1972     S        C        CA      -0.031624       12.0107           0
      1973 SHT      1973     S        C        CA      -0.031624       12.0107           0
      1974 SHT      1974     S        C        CA      -0.031624       12.0107           0
      1975 SHT      1975     S        C        CA      -0.031624       12.0107           0
      1976 SHT      1976     S        C        CA      -0.031624       12.0107           0
      1977 SHT      1977     S        C        CA      -0.031624       12.0107           0
      1978 SHT      1978     S        C        CA      -0.031624       12.0107           0
      1979 SHT      1979     S        C        CA      -0.031624       12.0107           0
      1980 SHT      1980     S        C        CA      -0.031624       12.0107           0
      1981 SHT      1981     S        C        CA      -0.031624       12.0107           0
      1982 SHT      1982     S        C        CA      -0.031624       12.0107           0
      1983 SHT      1983     S        C        CA      -0.031624       12.0107           0
      1984 SHT      1984     S        C        CA      -0.031624       12.0107           0
      1985 SHT      1985     S        C        CA      -0.031624       12.0107           0
      1986 SHT      1986     S        C        CA      -0.031624       12.0107           0
      1987 SHT      1987     S        C        CA      -0.031624       12.0107           0
      1988 SHT      1988     S        C        CA      -0.031624       12.0107           0
      1989 SHT      1989     S        C        CA      -0.031624       12.0107           0
      1990 SHT      1990     S        C        CA      -0.031624       12.0107           0
      1991 SHT      1991     S        C        CA      -0.031624       12.0107           0
      1992 SHT      1992     S        C        CA      -0.031624       12.0107           0
      1993 SHT      1993     S        C        CA      -0.031624       12.0107           0
      1994 SHT      1994     S        C        CA      -0.031624       12.0107           0
      1995 SHT      1995     S        C        CA      -0.031624       12.0107           0
      1996 SHT      1996     S        C        CA      -0.031624       12.0107           0
      1997 SHT      1997     S        C        CA      -0.031624       12.0107           0
      1998 SHT      1998     S        C        CA      -0.031624       12.0107           0
      1999 SHT      1999     S        C        CA      -0.031624       12.0107           0
      2000 SHT      2000     S        C        CA      -0.031624       12.0107           0
      2001 SHT      2001     S        C        CA      -0.031624       12.0107           0
      2002 SHT      2002     S        C        CA      -0.031624       12.0107           0
      2003 SHT      2003     S        C        CA      -0.031624       12.0107           0
      2004 SHT      2004     S        C        CA      -0.031624       12.0107           0
      2005 SHT      2005     S        C        CA      -0.031624       12.0107           0
      2006 SHT      2006     S        C        CA      -0.031624       12.0107           0
      2007 SHT      2007     S        C        CA      -0.031624       12.0107           0
      2008 SHT      2008     S        C        CA      -0.031624       12.0107           0
      2009 SHT      2009     S        C        CA      -0.031624       12.0107           0
      2010 SHT      2010     S        C        CA      -0.031624       12.0107           0
      2011 SHT      2011     S        C        CA      -0.031624       12.0107           0
      2012 SHT      2012     S        C        CA      -0.031624       12.0107           0
      2013 SHT      2013     S        C        CA      -0.031624       12.0107           0
      2014 SHT      2014     S        C        CA      -0.031624       12.0107           0
      2015 SHT      2015     S        C        CA      -0.031624       12.0107           0
      2016 SHT      2016     S        C        CA      -0.031624       12.0107           0
      2017 SHT      2017     S        C        CA      -0.031624       12.0107           0
      2018 SHT      2018     S        C        CA      -0.031624       12.0107           0
      2019 SHT      2019     S        C        CA      -0.031624       12.0107           0
      2020 SHT      2020     S        C        CA      -0.031624       12.0107           0
      2021 SHT      2021     S        C        CA      -0.031624       12.0107           0
      2022 SHT      2022     S        C        CA      -0.031624       12.0107           0
      2023 SHT      2023     S        C        CA      -0.031624       12.0107           0
      2024 SHT      2024     S        C        CA      -0.031624       12.0107           0
      2025 SHT      2025     S        C        CA      -0.031624       12.0107           0
      2026 SHT      2026     S        C        CA      -0.031624       12.0107           0
      2027 SHT      2027     S        C        CA      -0.031624       12.0107           0
      2028 SHT      2028     S        C        CA      -0.031624       12.0107           0
      2029 SHT      2029     S        C        CA      -0.031624       12.0107           0
      2030 SHT      2030     S        C        CA      -0.031624       12.0107           0
      2031 SHT      2031     S        C        CA      -0.031624       12.0107           0
      2032 SHT      2032     S        C        CA      -0.031624       12.0107           0
      2033 SHT      2033     S        C        CA      -0.031624       12.0107           0
      2034 SHT      2034     S        C        CA      -0.031624       12.0107           0
      2035 SHT      2035     S        C        CA      -0.031624       12.0107           0
      2036 SHT      2036     S        C        CA      -0.031624       12.0107           0
      2037 SHT      2037     S        C        CA      -0.031624       12.0107           0
      2038 SHT      2038     S        C        CA      -0.031624       12.0107           0
      2039 SHT      2039     S        C        CA      -0.031624       12.0107           0
      2040 SHT      2040     S        C        CA      -0.031624       12.0107           0
      2041 SHT      2041     S        C        CA      -0.031624       12.0107           0
      2042 SHT      2042     S        C        CA      -0.031624       12.0107           0
      2043 SHT      2043     S        C        CA      -0.031624       12.0107           0
      2044 SHT      2044     S        C        CA      -0.031624       12.0107           0
      2045 SHT      2045     S        C        CA      -0.031624       12.0107           0
      2046 SHT      2046     S        C        CA      -0.031624       12.0107           0
      2047 SHT      2047     S        C        CA      -0.031624       12.0107           0
      2048 SHT      2048     S        C        CA      -0.031624       12.0107           0
      2049 SHT      2049     S        C        CA      -0.031624       12.0107           0
      2050 SHT      2050     S        C        CA      -0.031624       12.0107           0
      2051 SHT      2051     S        C        CA      -0.031624       12.0107           0
      2052 SHT      2052     S        C        CA      -0.031624       12.0107           0
      2053 SHT      2053     S        C        CA      -0.031624       12.0107           0
      2054 SHT      2054     S        C        CA      -0.031624       12.0107           0
      2055 SHT      2055     S        C        CA      -0.031624       12.0107           0
      2056 SHT      2056     S        C        CA      -0.031624       12.0107           0
      2057 SHT      2057     S        C        CA      -0.031624       12.0107           0
      2058 SHT      2058     S        C        CA      -0.031624       12.0107           0
      2059 SHT      2059     S        C        CA      -0.031624       12.0107           0
      2060 SHT      2060     S        C        CA      -0.031624       12.0107           0
      2061 SHT      2061     S        C        CA      -0.031624       12.0107           0
      2062 SHT      2062     S        C        CA      -0.031624       12.0107           0
      2063 SHT      2063     S        C        CA      -0.031624       12.0107           0
      2064 SHT      2064     S        C        CA      -0.031624       12.0107           0
      2065 SHT      2065     S        C        CA      -0.031624       12.0107           0
      2066 SHT      2066     S        C        CA      -0.031624       12.0107           0
      2067 SHT      2067     S        C        CA      -0.031624       12.0107           0
      2068 SHT      2068     S        C        CA      -0.031624       12.0107           0
      2069 SHT      2069     S        C        CA      -0.031624       12.0107           0
      2070 SHT      2070     S        C        CA      -0.031624       12.0107           0
      2071 SHT      2071     S        C        CA      -0.031624       12.0107           0
      2072 SHT      2072     S        C        CA      -0.031624       12.0107           0
      2073 SHT      2073     S        C        CA      -0.031624       12.0107           0
      2074 SHT      2074     S        C        CA      -0.031624       12.0107           0
      2075 SHT      2075     S        C        CA      -0.031624       12.0107           0
      2076 SHT      2076     S        C        CA      -0.031624       12.0107           0
      2077 SHT      2077     S        C        CA      -0.031624       12.0107           0
      2078 SHT      2078     S        C        CA      -0.031624       12.0107           0
      2079 SHT      2079     S        C        CA      -0.031624       12.0107           0
      2080 SHT      2080     S        C        CA      -0.031624       12.0107           0
      2081 SHT      2081     S        C        CA      -0.031624       12.0107           0
      2082 SHT      2082     S        C        CA      -0.031624       12.0107           0
      2083 SHT      2083     S        C        CA      -0.031624       12.0107           0
      2084 SHT      2084     S        C        CA      -0.031624       12.0107           0
      2085 SHT      2085     S        C        CA      -0.031624       12.0107           0
      2086 SHT      2086     S        C        CA      -0.031624       12.0107           0
      2087 SHT      2087     S        C        CA      -0.031624       12.0107           0
      2088 SHT      2088     S        C        CA      -0.031624       12.0107           0
      2089 SHT      2089     S        C        CA      -0.031624       12.0107           0
      2090 SHT      2090     S        C        CA      -0.031624       12.0107           0
      2091 SHT      2091     S        C        CA      -0.031624       12.0107           0
      2092 SHT      2092     S        C        CA      -0.031624       12.0107           0
      2093 SHT      2093     S        C        CA      -0.031624       12.0107           0
      2094 SHT      2094     S        C        CA      -0.031624       12.0107           0
      2095 SHT      2095     S        C        CA      -0.031624       12.0107           0
      2096 SHT      2096     S        C        CA      -0.031624       12.0107           0
      2097 SHT      2097     S        C        CA      -0.031624       12.0107           0
      2098 SHT      2098     S        C        CA      -0.031624       12.0107           0
      2099 SHT      2099     S        C        CA      -0.031624       12.0107           0
      2100 SHT      2100     S        C        CA      -0.031624       12.0107           0
      2101 SHT      2101     S        C        CA      -0.031624       12.0107           0
      2102 SHT      2102     S        C        CA      -0.031624       12.0107           0
      2103 SHT      2103     S        C        CA      -0.031624       12.0107           0
      2104 SHT      2104     S        C        CA      -0.031624       12.0107           0
      2105 SHT      2105     S        C        CA      -0.031624       12.0107           0
      2106 SHT      2106     S        C        CA      -0.031624       12.0107           0
      2107 SHT      2107     S        C        CA      -0.031624       12.0107           0
      2108 SHT      2108     S        C        CA      -0.031624       12.0107           0
      2109 SHT      2109     S        C        CA      -0.031624       12.0107           0
      2110 SHT      2110     S        C        CA      -0.031624       12.0107           0
      2111 SHT      2111     S        C        CA      -0.031624       12.0107           0
      2112 SHT      2112     S        C        CA      -0.031624       12.0107           0
      2113 SHT      2113     S        C        CA      -0.031624       12.0107           0
      2114 SHT      2114     S        C        CA      -0.031624       12.0107           0
      2115 SHT      2115     S        C        CA      -0.031624       12.0107           0
      2116 SHT      2116     S        C        CA      -0.031624       12.0107           0
      2117 SHT      2117     S        C        CA      -0.031624       12.0107           0
      2118 SHT      2118     S        C        CA      -0.031624       12.0107           0
      2119 SHT      2119     S        C        CA      -0.031624       12.0107           0
      2120 SHT      2120     S        C        CA      -0.031624       12.0107           0
      2121 SHT      2121     S        C        CA      -0.031624       12.0107           0
      2122 SHT      2122     S        C        CA      -0.031624       12.0107           0
      2123 SHT      2123     S        C        CA      -0.031624       12.0107           0
      2124 SHT      2124     S        C        CA      -0.031624       12.0107           0
      2125 SHT      2125     S        C        CA      -0.031624       12.0107           0
      2126 SHT      2126     S        C        CA      -0.031624       12.0107           0
      2127 SHT      2127     S        C        CA      -0.031624       12.0107           0
      2128 SHT      2128     S        C        CA      -0.031624       12.0107           0
      2129 SHT      2129     S        C        CA      -0.031624       12.0107           0
      2130 SHT      2130     S        C        CA      -0.031624       12.0107           0
      2131 SHT      2131     S        C        CA      -0.031624       12.0107           0
      2132 SHT      2132     S        C        CA      -0.031624       12.0107           0
      2133 SHT      2133     S        C        CA      -0.031624       12.0107           0
      2134 SHT      2134     S        C        CA      -0.031624       12.0107           0
      2135 SHT      2135     S        C        CA      -0.031624       12.0107           0
      2136 SHT      2136     S        C        CA      -0.031624       12.0107           0
      2137 SHT      2137     S        C        CA      -0.031624       12.0107           0
      2138 SHT      2138     S        C        CA      -0.031624       12.0107           0
      2139 SHT      2139     S        C        CA      -0.031624       12.0107           0
      2140 SHT      2140     S        C        CA      -0.031624       12.0107           0
      2141 SHT      2141     S        C        CA      -0.031624       12.0107           0
      2142 SHT      2142     S        C        CA      -0.031624       12.0107           0
      2143 SHT      2143     S        C        CA      -0.031624       12.0107           0
      2144 SHT      2144     S        C        CA      -0.031624       12.0107           0
      2145 SHT      2145     S        C        CA      -0.031624       12.0107           0
      2146 SHT      2146     S        C        CA      -0.031624       12.0107           0
      2147 SHT      2147     S        C        CA      -0.031624       12.0107           0
      2148 SHT      2148     S        C        CA      -0.031624       12.0107           0
      2149 SHT      2149     S        C        CA      -0.031624       12.0107           0
      2150 SHT      2150     S        C        CA      -0.031624       12.0107           0
      2151 SHT      2151     S        C        CA      -0.031624       12.0107           0
      2152 SHT      2152     S        C        CA      -0.031624       12.0107           0
      2153 SHT      2153     S        C        CA      -0.031624       12.0107           0
      2154 SHT      2154     S        C        CA      -0.031624       12.0107           0
      2155 SHT      2155     S        C        CA      -0.031624       12.0107           0
      2156 SHT      2156     S        C        CA      -0.031624       12.0107           0
      2157 SHT      2157     S        C        CA      -0.031624       12.0107           0
      2158 SHT      2158     S        C        CA      -0.031624       12.0107           0
      2159 SHT      2159     S        C        CA      -0.031624       12.0107           0
      2160 SHT      2160     S        C        CA      -0.031624       12.0107           0
      2161 SHT      2161     S        C        CA      -0.031624       12.0107           0
      2162 SHT      2162     S        C        CA      -0.031624       12.0107           0
      2163 SHT      2163     S        C        CA      -0.031624       12.0107           0
      2164 SHT      2164     S        C        CA      -0.031624       12.0107           0
      2165 SHT      2165     S        C        CA      -0.031624       12.0107           0
      2166 SHT      2166     S        C        CA      -0.031624       12.0107           0
      2167 SHT      2167     S        C        CA      -0.031624       12.0107           0
      2168 SHT      2168     S        C        CA      -0.031624       12.0107           0
      2169 SHT      2169     S        C        CA      -0.031624       12.0107           0
      2170 SHT      2170     S        C        CA      -0.031624       12.0107           0
      2171 SHT      2171     S        C        CA      -0.031624       12.0107           0
      2172 SHT      2172     S        C        CA      -0.031624       12.0107           0
      2173 SHT      2173     S        C        CA      -0.031624       12.0107           0
      2174 SHT      2174     S        C        CA      -0.031624       12.0107           0
      2175 SHT      2175     S        C        CA      -0.031624       12.0107           0
      2176 SHT      2176     S        C        CA      -0.031624       12.0107           0
      2177 SHT      2177     S        C        CA      -0.031624       12.0107           0
      2178 SHT      2178     S        C        CA      -0.031624       12.0107           0
      2179 SHT      2179     S        C        CA      -0.031624       12.0107           0
      2180 SHT      2180     S        C        CA      -0.031624       12.0107           0
      2181 SHT      2181     S        C        CA      -0.031624       12.0107           0
      2182 SHT      2182     S        C        CA      -0.031624       12.0107           0
      2183 SHT      2183     S        C        CA      -0.031624       12.0107           0
      2184 SHT      2184     S        C        CA      -0.031624       12.0107           0
      2185 SHT      2185     S        C        CA      -0.031624       12.0107           0
      2186 SHT      2186     S        C        CA      -0.031624       12.0107           0
      2187 SHT      2187     S        C        CA      -0.031624       12.0107           0
      2188 SHT      2188     S        C        CA      -0.031624       12.0107           0
      2189 SHT      2189     S        C        CA      -0.031624       12.0107           0
      2190 SHT      2190     S        C        CA      -0.031624       12.0107           0
      2191 SHT      2191     S        C        CA      -0.031624       12.0107           0
      2192 SHT      2192     S        C        CA      -0.031624       12.0107           0
      2193 SHT      2193     S        C        CA      -0.031624       12.0107           0
      2194 SHT      2194     S        C        CA      -0.031624       12.0107           0
      2195 SHT      2195     S        C        CA      -0.031624       12.0107           0
      2196 SHT      2196     S        C        CA      -0.031624       12.0107           0
      2197 SHT      2197     S        C        CA      -0.031624       12.0107           0
      2198 SHT      2198     S        C        CA      -0.031624       12.0107           0
      2199 SHT      2199     S        C        CA      -0.031624       12.0107           0
      2200 SHT      2200     S        C        CA      -0.031624       12.0107           0
      2201 SHT      2201     S        C        CA      -0.031624       12.0107           0
      2202 SHT      2202     S        C        CA      -0.031624       12.0107           0
      2203 SHT      2203     S        C        CA      -0.031624       12.0107           0
      2204 SHT      2204     S        C        CA      -0.031624       12.0107           0
      2205 SHT      2205     S        C        CA      -0.031624       12.0107           0
      2206 SHT      2206     S        C        CA      -0.031624       12.0107           0
      2207 SHT      2207     S        C        CA      -0.031624       12.0107           0
      2208 SHT      2208     S        C        CA      -0.031624       12.0107           0
      2209 SHT      2209     S        C        CA      -0.031624       12.0107           0
      2210 SHT      2210     S        C        CA      -0.031624       12.0107           0
      2211 SHT      2211     S        C        CA      -0.031624       12.0107           0
      2212 SHT      2212     S        C        CA      -0.031624       12.0107           0
      2213 SHT      2213     S        C        CA      -0.031624       12.0107           0
      2214 SHT      2214     S        C        CA      -0.031624       12.0107           0
      2215 SHT      2215     S        C        CA      -0.031624       12.0107           0
      2216 SHT      2216     S        C        CA      -0.031624       12.0107           0
      2217 SHT      2217     S        C        CA      -0.031624       12.0107           0
      2218 SHT      2218     S        C        CA      -0.031624       12.0107           0
      2219 SHT      2219     S        C        CA      -0.031624       12.0107           0
      2220 SHT      2220     S        C        CA      -0.031624       12.0107           0
      2221 SHT      2221     S        C        CA      -0.031624       12.0107           0
      2222 SHT      2222     S        C        CA      -0.031624       12.0107           0
      2223 SHT      2223     S        C        CA      -0.031624       12.0107           0
      2224 SHT      2224     S        C        CA      -0.031624       12.0107           0
      2225 SHT      2225     S        C        CA      -0.031624       12.0107           0
      2226 SHT      2226     S        C        CA      -0.031624       12.0107           0
      2227 SHT      2227     S        C        CA      -0.031624       12.0107           0
      2228 SHT      2228     S        C        CA      -0.031624       12.0107           0
      2229 SHT      2229     S        C        CA      -0.031624       12.0107           0
      2230 SHT      2230     S        C        CA      -0.031624       12.0107           0
      2231 SHT      2231     S        C        CA      -0.031624       12.0107           0
      2232 SHT      2232     S        C        CA      -0.031624       12.0107           0
      2233 SHT      2233     S        C        CA      -0.031624       12.0107           0
      2234 SHT      2234     S        C        CA      -0.031624       12.0107           0
      2235 SHT      2235     S        C        CA      -0.031624       12.0107           0
      2236 SHT      2236     S        C        CA      -0.031624       12.0107           0
      2237 SHT      2237     S        C        CA      -0.031624       12.0107           0
      2238 SHT      2238     S        C        CA      -0.031624       12.0107           0
      2239 SHT      2239     S        C        CA      -0.031624       12.0107           0
      2240 SHT      2240     S        C        CA      -0.031624       12.0107           0
      2241 SHT      2241     S        C        CA      -0.031624       12.0107           0
      2242 SHT      2242     S        C        CA      -0.031624       12.0107           0
      2243 SHT      2243     S        C        CA      -0.031624       12.0107           0
      2244 SHT      2244     S        C        CA      -0.031624       12.0107           0
      2245 SHT      2245     S        C        CA      -0.031624       12.0107           0
      2246 SHT      2246     S        C        CA      -0.031624       12.0107           0
      2247 SHT      2247     S        C        CA      -0.031624       12.0107           0
      2248 SHT      2248     S        C        CA      -0.031624       12.0107           0
      2249 SHT      2249     S        C        CA      -0.031624       12.0107           0
      2250 SHT      2250     S        C        CA      -0.031624       12.0107           0
      2251 SHT      2251     S        C        CA      -0.031624       12.0107           0
      2252 SHT      2252     S        C        CA      -0.031624       12.0107           0
      2253 SHT      2253     S        C        CA      -0.031624       12.0107           0
      2254 SHT      2254     S        C        CA      -0.031624       12.0107           0
      2255 SHT      2255     S        C        CA      -0.031624       12.0107           0
      2256 SHT      2256     S        C        CA      -0.031624       12.0107           0
      2257 SHT      2257     S        C        CA      -0.031624       12.0107           0
      2258 SHT      2258     S        C        CA      -0.031624       12.0107           0
      2259 SHT      2259     S        C        CA      -0.031624       12.0107           0
      2260 SHT      2260     S        C        CA      -0.031624       12.0107           0
      2261 SHT      2261     S        C        CA      -0.031624       12.0107           0
      2262 SHT      2262     S        C        CA      -0.031624       12.0107           0
      2263 SHT      2263     S        C        CA      -0.031624       12.0107           0
      2264 SHT      2264     S        C        CA      -0.031624       12.0107           0
      2265 SHT      2265     S        C        CA      -0.031624       12.0107           0
      2266 SHT      2266     S        C        CA      -0.031624       12.0107           0
      2267 SHT      2267     S        C        CA      -0.031624       12.0107           0
      2268 SHT      2268     S        C        CA      -0.031624       12.0107           0
      2269 SHT      2269     S        C        CA      -0.031624       12.0107           0
      2270 SHT      2270     S        C        CA      -0.031624       12.0107           0
      2271 SHT      2271     S        C        CA      -0.031624       12.0107           0
      2272 SHT      2272     S        C        CA      -0.031624       12.0107           0
      2273 SHT      2273     S        C        CA      -0.031624       12.0107           0
      2274 SHT      2274     S        C        CA      -0.031624       12.0107           0
      2275 SHT      2275     S        C        CA      -0.031624       12.0107           0
      2276 SHT      2276     S        C        CA      -0.031624       12.0107           0
      2277 SHT      2277     S        C        CA      -0.031624       12.0107           0
      2278 SHT      2278     S        C        CA      -0.031624       12.0107           0
      2279 SHT      2279     S        C        CA      -0.031624       12.0107           0
      2280 SHT      2280     S        C        CA      -0.031624       12.0107           0
      2281 SHT      2281     S        C        CA      -0.031624       12.0107           0
      2282 SHT      2282     S        C        CA      -0.031624       12.0107           0
      2283 SHT      2283     S        C        CA      -0.031624       12.0107           0
      2284 SHT      2284     S        C        CA      -0.031624       12.0107           0
      2285 SHT      2285     S        C        CA      -0.031624       12.0107           0
      2286 SHT      2286     S        C        CA      -0.031624       12.0107           0
      2287 SHT      2287     S        C        CA      -0.031624       12.0107           0
      2288 SHT      2288     S        C        CA      -0.031624       12.0107           0
      2289 SHT      2289     S        C        CA      -0.031624       12.0107           0
      2290 SHT      2290     S        C        CA      -0.031624       12.0107           0
      2291 SHT      2291     S        C        CA      -0.031624       12.0107           0
      2292 SHT      2292     S        C        CA      -0.031624       12.0107           0
      2293 SHT      2293     S        C        CA      -0.031624       12.0107           0
      2294 SHT      2294     S        C        CA      -0.031624       12.0107           0
      2295 SHT      2295     S        C        CA      -0.031624       12.0107           0
      2296 SHT      2296     S        C        CA      -0.031624       12.0107           0
      2297 SHT      2297     S        C        CA      -0.031624       12.0107           0
      2298 SHT      2298     S        C        CA      -0.031624       12.0107           0
      2299 SHT      2299     S        C        CA      -0.031624       12.0107           0
      2300 SHT      2300     S        C        CA      -0.031624       12.0107           0
      2301 SHT      2301     S        C        CA      -0.031624       12.0107           0
      2302 SHT      2302     S        C        CA      -0.031624       12.0107           0
      2303 SHT      2303     S        C        CA      -0.031624       12.0107           0
      2304 SHT      2304     S        C        CA      -0.031624       12.0107           0
      2305 SHT      2305     S        C        CA      -0.031624       12.0107           0
      2306 SHT      2306     S        C        CA      -0.031624       12.0107           0
      2307 SHT      2307     S        C        CA      -0.031624       12.0107           0
      2308 SHT      2308     S        C        CA      -0.031624       12.0107           0
      2309 SHT      2309     S        C        CA      -0.031624       12.0107           0
      2310 SHT      2310     S        C        CA      -0.031624       12.0107           0
      2311 SHT      2311     S        C        CA      -0.031624       12.0107           0
      2312 SHT      2312     S        C        CA      -0.031624       12.0107           0
      2313 SHT      2313     S        C        CA      -0.031624       12.0107           0
      2314 SHT      2314     S        C        CA      -0.031624       12.0107           0
      2315 SHT      2315     S        C        CA      -0.031624       12.0107           0
      2316 SHT      2316     S        C        CA      -0.031624       12.0107           0
      2317 SHT      2317     S        C        CA      -0.031624       12.0107           0
      2318 SHT      2318     S        C        CA      -0.031624       12.0107           0
      2319 SHT      2319     S        C        CA      -0.031624       12.0107           0
      2320 SHT      2320     S        C        CA      -0.031624       12.0107           0
      2321 SHT      2321     S        C        CA      -0.031624       12.0107           0
      2322 SHT      2322     S        C        CA      -0.031624       12.0107           0
      2323 SHT      2323     S        C        CA      -0.031624       12.0107           0
      2324 SHT      2324     S        C        CA      -0.031624       12.0107           0
      2325 SHT      2325     S        C        CA      -0.031624       12.0107           0
      2326 SHT      2326     S        C        CA      -0.031624       12.0107           0
      2327 SHT      2327     S        C        CA      -0.031624       12.0107           0
      2328 SHT      2328     S        C        CA      -0.031624       12.0107           0
      2329 SHT      2329     S        C        CA      -0.031624       12.0107           0
      2330 SHT      2330     S        C        CA      -0.031624       12.0107           0
      2331 SHT      2331     S        C        CA      -0.031624       12.0107           0
      2332 SHT      2332     S        C        CA      -0.031624       12.0107           0
      2333 SHT      2333     S        C        CA      -0.031624       12.0107           0
      2334 SHT      2334     S        C        CA      -0.031624       12.0107           0
      2335 SHT      2335     S        C        CA      -0.031624       12.0107           0
      2336 SHT      2336     S        C        CA      -0.031624       12.0107           0
      2337 SHT      2337     S        C        CA      -0.031624       12.0107           0
      2338 SHT      2338     S        C        CA      -0.031624       12.0107           0
      2339 SHT      2339     S        C        CA      -0.031624       12.0107           0
      2340 SHT      2340     S        C        CA      -0.031624       12.0107           0
      2341 SHT      2341     S        C        CA      -0.031624       12.0107           0
      2342 SHT      2342     S        C        CA      -0.031624       12.0107           0
      2343 SHT      2343     S        C        CA      -0.031624       12.0107           0
      2344 SHT      2344     S        C        CA      -0.031624       12.0107           0
      2345 SHT      2345     S        C        CA      -0.031624       12.0107           0
      2346 SHT      2346     S        C        CA      -0.031624       12.0107           0
      2347 SHT      2347     S        C        CA      -0.031624       12.0107           0
      2348 SHT      2348     S        C        CA      -0.031624       12.0107           0
      2349 SHT      2349     S        C        CA      -0.031624       12.0107           0
      2350 SHT      2350     S        C        CA      -0.031624       12.0107           0
      2351 SHT      2351     S        C        CA      -0.031624       12.0107           0
      2352 SHT      2352     S        C        CA      -0.031624       12.0107           0
      2353 SHT      2353     S        C        CA      -0.031624       12.0107           0
      2354 SHT      2354     S        C        CA      -0.031624       12.0107           0
      2355 SHT      2355     S        C        CA      -0.031624       12.0107           0
      2356 SHT      2356     S        C        CA      -0.031624       12.0107           0
      2357 SHT      2357     S        C        CA      -0.031624       12.0107           0
      2358 SHT      2358     S        C        CA      -0.031624       12.0107           0
      2359 SHT      2359     S        C        CA      -0.031624       12.0107           0
      2360 SHT      2360     S        C        CA      -0.031624       12.0107           0
      2361 SHT      2361     S        C        CA      -0.031624       12.0107           0
      2362 SHT      2362     S        C        CA      -0.031624       12.0107           0
      2363 SHT      2363     S        C        CA      -0.031624       12.0107           0
      2364 SHT      2364     S        C        CA      -0.031624       12.0107           0
      2365 SHT      2365     S        C        CA      -0.031624       12.0107           0
      2366 SHT      2366     S        C        CA      -0.031624       12.0107           0
      2367 SHT      2367     S        C        CA      -0.031624       12.0107           0
      2368 SHT      2368     S        C        CA      -0.031624       12.0107           0
      2369 SHT      2369     S        C        CA      -0.031624       12.0107           0
      2370 SHT      2370     S        C        CA      -0.031624       12.0107           0
      2371 SHT      2371     S        C        CA      -0.031624       12.0107           0
      2372 SHT      2372     S        C        CA      -0.031624       12.0107           0
      2373 SHT      2373     S        C        CA      -0.031624       12.0107           0
      2374 SHT      2374     S        C        CA      -0.031624       12.0107           0
      2375 SHT      2375     S        C        CA      -0.031624       12.0107           0
      2376 SHT      2376     S        C        CA      -0.031624       12.0107           0
      2377 SHT      2377     S        C        CA      -0.031624       12.0107           0
      2378 SHT      2378     S        C        CA      -0.031624       12.0107           0
      2379 SHT      2379     S        C        CA      -0.031624       12.0107           0
      2380 SHT      2380     S        C        CA      -0.031624       12.0107           0
      2381 SHT      2381     S        C        CA      -0.031624       12.0107           0
      2382 SHT      2382     S        C        CA      -0.031624       12.0107           0
      2383 SHT      2383     S        C        CA      -0.031624       12.0107           0
      2384 SHT      2384     S        C        CA      -0.031624       12.0107           0
      2385 SHT      2385     S        C        CA      -0.031624       12.0107           0
      2386 SHT      2386     S        C        CA      -0.031624       12.0107           0
      2387 SHT      2387     S        C        CA      -0.031624       12.0107           0
      2388 SHT      2388     S        C        CA      -0.031624       12.0107           0
      2389 SHT      2389     S        C        CA      -0.031624       12.0107           0
      2390 SHT      2390     S        C        CA      -0.031624       12.0107           0
      2391 SHT      2391     S        C        CA      -0.031624       12.0107           0
      2392 SHT      2392     S        C        CA      -0.031624       12.0107           0
      2393 SHT      2393     S        C        CA      -0.031624       12.0107           0
      2394 SHT      2394     S        C        CA      -0.031624       12.0107           0
      2395 SHT      2395     S        C        CA      -0.031624       12.0107           0
      2396 SHT      2396     S        C        CA      -0.031624       12.0107           0
      2397 SHT      2397     S        C        CA      -0.031624       12.0107           0
      2398 SHT      2398     S        C        CA      -0.031624       12.0107           0
      2399 SHT      2399     S        C        CA      -0.031624       12.0107           0
      2400 SHT      2400     S        C        CA      -0.031624       12.0107           0
      2401 SHT      2401     S        C        CA      -0.031624       12.0107           0
      2402 SHT      2402     S        C        CA      -0.031624       12.0107           0
      2403 SHT      2403     S        C        CA      -0.031624       12.0107           0
      2404 SHT      2404     S        C        CA      -0.031624       12.0107           0
      2405 SHT      2405     S        C        CA      -0.031624       12.0107           0
      2406 SHT      2406     S        C        CA      -0.031624       12.0107           0
      2407 SHT      2407     S        C        CA      -0.031624       12.0107           0
      2408 SHT      2408     S        C        CA      -0.031624       12.0107           0
      2409 SHT      2409     S        C        CA      -0.031624       12.0107           0
      2410 SHT      2410     S        C        CA      -0.031624       12.0107           0
      2411 SHT      2411     S        C        CA      -0.031624       12.0107           0
      2412 SHT      2412     S        C        CA      -0.031624       12.0107           0
      2413 SHT      2413     S        C        CA      -0.031624       12.0107           0
      2414 SHT      2414     S        C        CA      -0.031624       12.0107           0
      2415 SHT      2415     S        C        CA      -0.031624       12.0107           0
      2416 SHT      2416     S        C        CA      -0.031624       12.0107           0
      2417 SHT      2417     S        C        CA      -0.031624       12.0107           0
      2418 SHT      2418     S        C        CA      -0.031624       12.0107           0
      2419 SHT      2419     S        C        CA      -0.031624       12.0107           0
      2420 SHT      2420     S        C        CA      -0.031624       12.0107           0
      2421 SHT      2421     S        C        CA      -0.031624       12.0107           0
      2422 SHT      2422     S        C        CA      -0.031624       12.0107           0
      2423 SHT      2423     S        C        CA      -0.031624       12.0107           0
      2424 SHT      2424     S        C        CA      -0.031624       12.0107           0
      2425 SHT      2425     S        C        CA      -0.031624       12.0107           0
      2426 SHT      2426     S        C        CA      -0.031624       12.0107           0
      2427 SHT      2427     S        C        CA      -0.031624       12.0107           0
      2428 SHT      2428     S        C        CA      -0.031624       12.0107           0
      2429 SHT      2429     S        C        CA      -0.031624       12.0107           0
      2430 SHT      2430     S        C        CA      -0.031624       12.0107           0
      2431 SHT      2431     S        C        CA      -0.031624       12.0107           0
      2432 SHT      2432     S        C        CA      -0.031624       12.0107           0
      2433 SHT      2433     S        C        CA      -0.031624       12.0107           0
      2434 SHT      2434     S        C        CA      -0.031624       12.0107           0
      2435 SHT      2435     S        C        CA      -0.031624       12.0107           0
      2436 SHT      2436     S        C        CA      -0.031624       12.0107           0
      2437 SHT      2437     S        C        CA      -0.031624       12.0107           0
      2438 SHT      2438     S        C        CA      -0.031624       12.0107           0
      2439 SHT      2439     S        C        CA      -0.031624       12.0107           0
      2440 SHT      2440     S        C        CA      -0.031624       12.0107           0
      2441 SHT      2441     S        C        CA      -0.031624       12.0107           0
      2442 SHT      2442     S        C        CA      -0.031624       12.0107           0
      2443 SHT      2443     S        C        CA      -0.031624       12.0107           0
      2444 SHT      2444     S        C        CA      -0.031624       12.0107           0
      2445 SHT      2445     S        C        CA      -0.031624       12.0107           0
      2446 SHT      2446     S        C        CA      -0.031624       12.0107           0
      2447 SHT      2447     S        C        CA      -0.031624       12.0107           0
      2448 SHT      2448     S        C        CA      -0.031624       12.0107           0
      2449 SHT      2449     S        C        CA      -0.031624       12.0107           0
      2450 SHT      2450     S        C        CA      -0.031624       12.0107           0
      2451 SHT      2451     S        C        CA      -0.031624       12.0107           0
      2452 SHT      2452     S        C        CA      -0.031624       12.0107           0
      2453 SHT      2453     S        C        CA      -0.031624       12.0107           0
      2454 SHT      2454     S        C        CA      -0.031624       12.0107           0
      2455 SHT      2455     S        C        CA      -0.031624       12.0107           0
      2456 SHT      2456     S        C        CA      -0.031624       12.0107           0
      2457 SHT      2457     S        C        CA      -0.031624       12.0107           0
      2458 SHT      2458     S        C        CA      -0.031624       12.0107           0
      2459 SHT      2459     S        C        CA      -0.031624       12.0107           0
      2460 SHT      2460     S        C        CA      -0.031624       12.0107           0
      2461 SHT      2461     S        C        CA      -0.031624       12.0107           0
      2462 SHT      2462     S        C        CA      -0.031624       12.0107           0
      2463 SHT      2463     S        C        CA      -0.031624       12.0107           0
      2464 SHT      2464     S        C        CA      -0.031624       12.0107           0
      2465 SHT      2465     S        C        CA      -0.031624       12.0107           0
      2466 SHT      2466     S        C        CA      -0.031624       12.0107           0
      2467 SHT      2467     S        C        CA      -0.031624       12.0107           0
      2468 SHT      2468     S        C        CA      -0.031624       12.0107           0
      2469 SHT      2469     S        C        CA      -0.031624       12.0107           0
      2470 SHT      2470     S        C        CA      -0.031624       12.0107           0
      2471 SHT      2471     S        C        CA      -0.031624       12.0107           0
      2472 SHT      2472     S        C        CA      -0.031624       12.0107           0
      2473 SHT      2473     S        C        CA      -0.031624       12.0107           0
      2474 SHT      2474     S        C        CA      -0.031624       12.0107           0
      2475 SHT      2475     S        C        CA      -0.031624       12.0107           0
      2476 SHT      2476     S        C        CA      -0.031624       12.0107           0
      2477 SHT      2477     S        C        CA      -0.031624       12.0107           0
      2478 SHT      2478     S        C        CA      -0.031624       12.0107           0
      2479 SHT      2479     S        C        CA      -0.031624       12.0107           0
      2480 SHT      2480     S        C        CA      -0.031624       12.0107           0
      2481 SHT      2481     S        C        CA      -0.031624       12.0107           0
      2482 SHT      2482     S        C        CA      -0.031624       12.0107           0
      2483 SHT      2483     S        C        CA      -0.031624       12.0107           0
      2484 SHT      2484     S        C        CA      -0.031624       12.0107           0
      2485 SHT      2485     S        C        CA      -0.031624       12.0107           0
      2486 SHT      2486     S        C        CA      -0.031624       12.0107           0
      2487 SHT      2487     S        C        CA      -0.031624       12.0107           0
      2488 SHT      2488     S        C        CA      -0.031624       12.0107           0
      2489 SHT      2489     S        C        CA      -0.031624       12.0107           0
      2490 SHT      2490     S        C        CA      -0.031624       12.0107           0
      2491 SHT      2491     S        C        CA      -0.031624       12.0107           0
      2492 SHT      2492     S        C        CA      -0.031624       12.0107           0
      2493 SHT      2493     S        C        CA      -0.031624       12.0107           0
      2494 SHT      2494     S        C        CA      -0.031624       12.0107           0
      2495 SHT      2495     S        C        CA      -0.031624       12.0107           0
      2496 SHT      2496     S        C        CA      -0.031624       12.0107           0
      2497 SHT      2497     S        C        CA      -0.031624       12.0107           0
      2498 SHT      2498     S        C        CA      -0.031624       12.0107           0
      2499 SHT      2499     S        C        CA      -0.031624       12.0107           0
      2500 SHT      2500     S        C        CA      -0.031624       12.0107           0
      2501 SHT      2501     S        C        CA      -0.031624       12.0107           0
      2502 SHT      2502     S        C        CA      -0.031624       12.0107           0
      2503 SHT      2503     S        C        CA      -0.031624       12.0107           0
      2504 SHT      2504     S        C        CA      -0.031624       12.0107           0
      2505 SHT      2505     S        C        CA      -0.031624       12.0107           0
      2506 SHT      2506     S        C        CA      -0.031624       12.0107           0
      2507 SHT      2507     S        C        CA      -0.031624       12.0107           0
      2508 SHT      2508     S        C        CA      -0.031624       12.0107           0
      2509 SHT      2509     S        C        CA      -0.031624       12.0107           0
      2510 SHT      2510     S        C        CA      -0.031624       12.0107           0
      2511 SHT      2511     S        C        CA      -0.031624       12.0107           0
      2512 SHT      2512     S        C        CA      -0.031624       12.0107           0
      2513 SHT      2513     S        C        CA      -0.031624       12.0107           0
      2514 SHT      2514     S        C        CA      -0.031624       12.0107           0
      2515 SHT      2515     S        C        CA      -0.031624       12.0107           0
      2516 SHT      2516     S        C        CA      -0.031624       12.0107           0
      2517 SHT      2517     S        C        CA      -0.031624       12.0107           0
      2518 SHT      2518     S        C        CA      -0.031624       12.0107           0
      2519 SHT      2519     S        C        CA      -0.031624       12.0107           0
      2520 SHT      2520     S        C        CA      -0.031624       12.0107           0
      2521 SHT      2521     S        C        CA      -0.031624       12.0107           0
      2522 SHT      2522     S        C        CA      -0.031624       12.0107           0
      2523 SHT      2523     S        C        CA      -0.031624       12.0107           0
      2524 SHT      2524     S        C        CA      -0.031624       12.0107           0
      2525 SHT      2525     S        C        CA      -0.031624       12.0107           0
      2526 SHT      2526     S        C        CA      -0.031624       12.0107           0
      2527 SHT      2527     S        C        CA      -0.031624       12.0107           0
      2528 SHT      2528     S        C        CA      -0.031624       12.0107           0
      2529 SHT      2529     S        C        CA      -0.031624       12.0107           0
      2530 SHT      2530     S        C        CA      -0.031624       12.0107           0
      2531 SHT      2531     S        C        CA      -0.031624       12.0107           0
      2532 SHT      2532     S        C        CA      -0.031624       12.0107           0
      2533 SHT      2533     S        C        CA      -0.031624       12.0107           0
      2534 SHT      2534     S        C        CA      -0.031624       12.0107           0
      2535 SHT      2535     S        C        CA      -0.031624       12.0107           0
      2536 SHT      2536     S        C        CA      -0.031624       12.0107           0
      2537 SHT      2537     S        C        CA      -0.031624       12.0107           0
      2538 SHT      2538     S        C        CA      -0.031624       12.0107           0
      2539 SHT      2539     S        C        CA      -0.031624       12.0107           0
      2540 SHT      2540     S        C        CA      -0.031624       12.0107           0
      2541 SHT      2541     S        C        CA      -0.031624       12.0107           0
      2542 SHT      2542     S        C        CA      -0.031624       12.0107           0
      2543 SHT      2543     S        C        CA      -0.031624       12.0107           0
      2544 SHT      2544     S        C        CA      -0.031624       12.0107           0
      2545 SHT      2545     S        C        CA      -0.031624       12.0107           0
      2546 SHT      2546     S        C        CA      -0.031624       12.0107           0
      2547 SHT      2547     S        C        CA      -0.031624       12.0107           0
      2548 SHT      2548     S        C        CA      -0.031624       12.0107           0
      2549 SHT      2549     S        C        CA      -0.031624       12.0107           0
      2550 SHT      2550     S        C        CA      -0.031624       12.0107           0
      2551 SHT      2551     S        C        CA      -0.031624       12.0107           0
      2552 SHT      2552     S        C        CA      -0.031624       12.0107           0
      2553 SHT      2553     S        C        CA      -0.031624       12.0107           0
      2554 SHT      2554     S        C        CA      -0.031624       12.0107           0
      2555 SHT      2555     S        C        CA      -0.031624       12.0107           0
      2556 SHT      2556     S        C        CA      -0.031624       12.0107           0
      2557 SHT      2557     S        C        CA      -0.031624       12.0107           0
      2558 SHT      2558     S        C        CA      -0.031624       12.0107           0
      2559 SHT      2559     S        C        CA      -0.031624       12.0107           0
      2560 SHT      2560     S        C        CA      -0.031624       12.0107           0
      2561 SHT      2561     S        C        CA      -0.031624       12.0107           0
      2562 SHT      2562     S        C        CA      -0.031624       12.0107           0
      2563 SHT      2563     S        C        CA      -0.031624       12.0107           0
      2564 SHT      2564     S        C        CA      -0.031624       12.0107           0
      2565 SHT      2565     S        C        CA      -0.031624       12.0107           0
      2566 SHT      2566     S        C        CA      -0.031624       12.0107           0
      2567 SHT      2567     S        C        CA      -0.031624       12.0107           0
      2568 SHT      2568     S        C        CA      -0.031624       12.0107           0
      2569 SHT      2569     S        C        CA      -0.031624       12.0107           0
      2570 SHT      2570     S        C        CA      -0.031624       12.0107           0
      2571 SHT      2571     S        C        CA      -0.031624       12.0107           0
      2572 SHT      2572     S        C        CA      -0.031624       12.0107           0
      2573 SHT      2573     S        C        CA      -0.031624       12.0107           0
      2574 SHT      2574     S        C        CA      -0.031624       12.0107           0
      2575 SHT      2575     S        C        CA      -0.031624       12.0107           0
      2576 SHT      2576     S        C        CA      -0.031624       12.0107           0
      2577 SHT      2577     S        C        CA      -0.031624       12.0107           0
      2578 SHT      2578     S        C        CA      -0.031624       12.0107           0
      2579 SHT      2579     S        C        CA      -0.031624       12.0107           0
      2580 SHT      2580     S        C        CA      -0.031624       12.0107           0
      2581 SHT      2581     S        C        CA      -0.031624       12.0107           0
      2582 SHT      2582     S        C        CA      -0.031624       12.0107           0
      2583 SHT      2583     S        C        CA      -0.031624       12.0107           0
      2584 SHT      2584     S        C        CA      -0.031624       12.0107           0
      2585 SHT      2585     S        C        CA      -0.031624       12.0107           0
      2586 SHT      2586     S        C        CA      -0.031624       12.0107           0
      2587 SHT      2587     S        C        CA      -0.031624       12.0107           0
      2588 SHT      2588     S        C        CA      -0.031624       12.0107           0
      2589 SHT      2589     S        C        CA      -0.031624       12.0107           0
      2590 SHT      2590     S        C        CA      -0.031624       12.0107           0
      2591 SHT      2591     S        C        CA      -0.031624       12.0107           0
      2592 SHT      2592     S        C        CA      -0.031624       12.0107           0
      2593 SHT      2593     S        C        CA      -0.031624       12.0107           0
      2594 SHT      2594     S        C        CA      -0.031624       12.0107           0
      2595 SHT      2595     S        C        CA      -0.031624       12.0107           0
      2596 SHT      2596     S        C        CA      -0.031624       12.0107           0
      2597 SHT      2597     S        C        CA      -0.031624       12.0107           0
      2598 SHT      2598     S        C        CA      -0.031624       12.0107           0
      2599 SHT      2599     S        C        CA      -0.031624       12.0107           0
      2600 SHT      2600     S        C        CA      -0.031624       12.0107           0
      2601 SHT      2601     S        C        CA      -0.031624       12.0107           0
      2602 SHT      2602     S        C        CA      -0.031624       12.0107           0
      2603 SHT      2603     S        C        CA      -0.031624       12.0107           0
      2604 SHT      2604     S        C        CA      -0.031624       12.0107           0
      2605 SHT      2605     S        C        CA      -0.031624       12.0107           0
      2606 SHT      2606     S        C        CA      -0.031624       12.0107           0
      2607 SHT      2607     S        C        CA      -0.031624       12.0107           0
      2608 SHT      2608     S        C        CA      -0.031624       12.0107           0
      2609 SHT      2609     S        C        CA      -0.031624       12.0107           0
      2610 SHT      2610     S        C        CA      -0.031624       12.0107           0
      2611 SHT      2611     S        C        CA      -0.031624       12.0107           0
      2612 SHT      2612     S        C        CA      -0.031624       12.0107           0
      2613 SHT      2613     S        C        CA      -0.031624       12.0107           0
      2614 SHT      2614     S        C        CA      -0.031624       12.0107           0
      2615 SHT      2615     S        C        CA      -0.031624       12.0107           0
      2616 SHT      2616     S        C        CA      -0.031624       12.0107           0
      2617 SHT      2617     S        C        CA      -0.031624       12.0107           0
      2618 SHT      2618     S        C        CA      -0.031624       12.0107           0
      2619 SHT      2619     S        C        CA      -0.031624       12.0107           0
      2620 SHT      2620     S        C        CA      -0.031624       12.0107           0
      2621 SHT      2621     S        C        CA      -0.031624       12.0107           0
      2622 SHT      2622     S        C        CA      -0.031624       12.0107           0
      2623 SHT      2623     S        C        CA      -0.031624       12.0107           0
      2624 SHT      2624     S        C        CA      -0.031624       12.0107           0
      2625 SHT      2625     S        C        CA      -0.031624       12.0107           0
      2626 SHT      2626     S        C        CA      -0.031624       12.0107           0
      2627 SHT      2627     S        C        CA      -0.031624       12.0107           0
      2628 SHT      2628     S        C        CA      -0.031624       12.0107           0
      2629 SHT      2629     S        C        CA      -0.031624       12.0107           0
      2630 SHT      2630     S        C        CA      -0.031624       12.0107           0
      2631 SHT      2631     S        C        CA      -0.031624       12.0107           0
      2632 SHT      2632     S        C        CA      -0.031624       12.0107           0
      2633 SHT      2633     S        C        CA      -0.031624       12.0107           0
      2634 SHT      2634     S        C        CA      -0.031624       12.0107           0
      2635 SHT      2635     S        C        CA      -0.031624       12.0107           0
      2636 SHT      2636     S        C        CA      -0.031624       12.0107           0
      2637 SHT      2637     S        C        CA      -0.031624       12.0107           0
      2638 SHT      2638     S        C        CA      -0.031624       12.0107           0
      2639 SHT      2639     S        C        CA      -0.031624       12.0107           0
      2640 SHT      2640     S        C        CA      -0.031624       12.0107           0
      2641 SHT      2641     S        C        CA      -0.031624       12.0107           0
      2642 SHT      2642     S        C        CA      -0.031624       12.0107           0
      2643 SHT      2643     S        C        CA      -0.031624       12.0107           0
      2644 SHT      2644     S        C        CA      -0.031624       12.0107           0
      2645 SHT      2645     S        C        CA      -0.031624       12.0107           0
      2646 SHT      2646     S        C        CA      -0.031624       12.0107           0
      2647 SHT      2647     S        C        CA      -0.031624       12.0107           0
      2648 SHT      2648     S        C        CA      -0.031624       12.0107           0
      2649 SHT      2649     S        C        CA      -0.031624       12.0107           0
      2650 SHT      2650     S        C        CA      -0.031624       12.0107           0
      2651 SHT      2651     S        C        CA      -0.031624       12.0107           0
      2652 SHT      2652     S        C        CA      -0.031624       12.0107           0
      2653 SHT      2653     S        C        CA      -0.031624       12.0107           0
      2654 SHT      2654     S        C        CA      -0.031624       12.0107           0
      2655 SHT      2655     S        C        CA      -0.031624       12.0107           0
      2656 SHT      2656     S        C        CA      -0.031624       12.0107           0
      2657 SHT      2657     S        C        CA      -0.031624       12.0107           0
      2658 SHT      2658     S        C        CA      -0.031624       12.0107           0
      2659 SHT      2659     S        C        CA      -0.031624       12.0107           0
      2660 SHT      2660     S        C        CA      -0.031624       12.0107           0
      2661 SHT      2661     S        C        CA      -0.031624       12.0107           0
      2662 SHT      2662     S        C        CA      -0.031624       12.0107           0
      2663 SHT      2663     S        C        CA      -0.031624       12.0107           0
      2664 SHT      2664     S        C        CA      -0.031624       12.0107           0
      2665 SHT      2665     S        C        CA      -0.031624       12.0107           0
      2666 SHT      2666     S        C        CA      -0.031624       12.0107           0
      2667 SHT      2667     S        C        CA      -0.031624       12.0107           0
      2668 SHT      2668     S        C        CA      -0.031624       12.0107           0
      2669 SHT      2669     S        C        CA      -0.031624       12.0107           0
      2670 SHT      2670     S        C        CA      -0.031624       12.0107           0
      2671 SHT      2671     S        C        CA      -0.031624       12.0107           0
      2672 SHT      2672     S        C        CA      -0.031624       12.0107           0
      2673 SHT      2673     S        C        CA      -0.031624       12.0107           0
      2674 SHT      2674     S        C        CA      -0.031624       12.0107           0
      2675 SHT      2675     S        C        CA      -0.031624       12.0107           0
      2676 SHT      2676     S        C        CA      -0.031624       12.0107           0
      2677 SHT      2677     S        C        CA      -0.031624       12.0107           0
      2678 SHT      2678     S        C        CA      -0.031624       12.0107           0
      2679 SHT      2679     S        C        CA      -0.031624       12.0107           0
      2680 SHT      2680     S        C        CA      -0.031624       12.0107           0
      2681 SHT      2681     S        C        CA      -0.031624       12.0107           0
      2682 SHT      2682     S        C        CA      -0.031624       12.0107           0
      2683 SHT      2683     S        C        CA      -0.031624       12.0107           0
      2684 SHT      2684     S        C        CA      -0.031624       12.0107           0
      2685 SHT      2685     S        C        CA      -0.031624       12.0107           0
      2686 SHT      2686     S        C        CA      -0.031624       12.0107           0
      2687 SHT      2687     S        C        CA      -0.031624       12.0107           0
      2688 SHT      2688     S        C        CA      -0.031624       12.0107           0
      2689 SHT      2689     S        C        CA      -0.031624       12.0107           0
      2690 SHT      2690     S        C        CA      -0.031624       12.0107           0
      2691 SHT      2691     S        C        CA      -0.031624       12.0107           0
      2692 SHT      2692     S        C        CA      -0.031624       12.0107           0
      2693 SHT      2693     S        C        CA      -0.031624       12.0107           0
      2694 SHT      2694     S        C        CA      -0.031624       12.0107           0
      2695 SHT      2695     S        C        CA      -0.031624       12.0107           0
      2696 SHT      2696     S        C        CA      -0.031624       12.0107           0
      2697 SHT      2697     S        C        CA      -0.031624       12.0107           0
      2698 SHT      2698     S        C        CA      -0.031624       12.0107           0
      2699 SHT      2699     S        C        CA      -0.031624       12.0107           0
      2700 SHT      2700     S        C        CA      -0.031624       12.0107           0
      2701 SHT      2701     S        C        CA      -0.031624       12.0107           0
      2702 SHT      2702     S        C        CA      -0.031624       12.0107           0
      2703 SHT      2703     S        C        CA      -0.031624       12.0107           0
      2704 SHT      2704     S        C        CA      -0.031624       12.0107           0
      2705 SHT      2705     S        C        CA      -0.031624       12.0107           0
      2706 SHT      2706     S        C        CA      -0.031624       12.0107           0
      2707 SHT      2707     S        C        CA      -0.031624       12.0107           0
      2708 SHT      2708     S        C        CA      -0.031624       12.0107           0
      2709 SHT      2709     S        C        CA      -0.031624       12.0107           0
      2710 SHT      2710     S        C        CA      -0.031624       12.0107           0
      2711 SHT      2711     S        C        CA      -0.031624       12.0107           0
      2712 SHT      2712     S        C        CA      -0.031624       12.0107           0
      2713 SHT      2713     S        C        CA      -0.031624       12.0107           0
      2714 SHT      2714     S        C        CA      -0.031624       12.0107           0
      2715 SHT      2715     S        C        CA      -0.031624       12.0107           0
      2716 SHT      2716     S        C        CA      -0.031624       12.0107           0
      2717 SHT      2717     S        C        CA      -0.031624       12.0107           0
      2718 SHT      2718     S        C        CA      -0.031624       12.0107           0
      2719 SHT      2719     S        C        CA      -0.031624       12.0107           0
      2720 SHT      2720     S        C        CA      -0.031624       12.0107           0
      2721 SHT      2721     S        C        CA      -0.031624       12.0107           0
      2722 SHT      2722     S        C        CA      -0.031624       12.0107           0
      2723 SHT      2723     S        C        CA      -0.031624       12.0107           0
      2724 SHT      2724     S        C        CA      -0.031624       12.0107           0
      2725 SHT      2725     S        C        CA      -0.031624       12.0107           0
      2726 SHT      2726     S        C        CA      -0.031624       12.0107           0
      2727 SHT      2727     S        C        CA      -0.031624       12.0107           0
      2728 SHT      2728     S        C        CA      -0.031624       12.0107           0
      2729 SHT      2729     S        C        CA      -0.031624       12.0107           0
      2730 SHT      2730     S        C        CA      -0.031624       12.0107           0
      2731 SHT      2731     S        C        CA      -0.031624       12.0107           0
      2732 SHT      2732     S        C        CA      -0.031624       12.0107           0
      2733 SHT      2733     S        C        CA      -0.031624       12.0107           0
      2734 SHT      2734     S        C        CA      -0.031624       12.0107           0
      2735 SHT      2735     S        C        CA      -0.031624       12.0107           0
      2736 SHT      2736     S        C        CA      -0.031624       12.0107           0
      2737 SHT      2737     S        C        CA      -0.031624       12.0107           0
      2738 SHT      2738     S        C        CA      -0.031624       12.0107           0
      2739 SHT      2739     S        C        CA      -0.031624       12.0107           0
      2740 SHT      2740     S        C        CA      -0.031624       12.0107           0
      2741 SHT      2741     S        C        CA      -0.031624       12.0107           0
      2742 SHT      2742     S        C        CA      -0.031624       12.0107           0
      2743 SHT      2743     S        C        CA      -0.031624       12.0107           0
      2744 SHT      2744     S        C        CA      -0.031624       12.0107           0
      2745 SHT      2745     S        C        CA      -0.031624       12.0107           0
      2746 SHT      2746     S        C        CA      -0.031624       12.0107           0
      2747 SHT      2747     S        C        CA      -0.031624       12.0107           0
      2748 SHT      2748     S        C        CA      -0.031624       12.0107           0
      2749 SHT      2749     S        C        CA      -0.031624       12.0107           0
      2750 SHT      2750     S        C        CA      -0.031624       12.0107           0
      2751 SHT      2751     S        C        CA      -0.031624       12.0107           0
      2752 SHT      2752     S        C        CA      -0.031624       12.0107           0
      2753 SHT      2753     S        C        CA      -0.031624       12.0107           0
      2754 SHT      2754     S        C        CA      -0.031624       12.0107           0
      2755 SHT      2755     S        C        CA      -0.031624       12.0107           0
      2756 SHT      2756     S        C        CA      -0.031624       12.0107           0
      2757 SHT      2757     S        C        CA      -0.031624       12.0107           0
      2758 SHT      2758     S        C        CA      -0.031624       12.0107           0
      2759 SHT      2759     S        C        CA      -0.031624       12.0107           0
      2760 SHT      2760     S        C        CA      -0.031624       12.0107           0
      2761 SHT      2761     S        C        CA      -0.031624       12.0107           0
      2762 SHT      2762     S        C        CA      -0.031624       12.0107           0
      2763 SHT      2763     S        C        CA      -0.031624       12.0107           0
      2764 SHT      2764     S        C        CA      -0.031624       12.0107           0
      2765 SHT      2765     S        C        CA      -0.031624       12.0107           0
      2766 SHT      2766     S        C        CA      -0.031624       12.0107           0
      2767 SHT      2767     S        C        CA      -0.031624       12.0107           0
      2768 SHT      2768     S        C        CA      -0.031624       12.0107           0
      2769 SHT      2769     S        C        CA      -0.031624       12.0107           0
      2770 SHT      2770     S        C        CA      -0.031624       12.0107           0
      2771 SHT      2771     S        C        CA      -0.031624       12.0107           0
      2772 SHT      2772     S        C        CA      -0.031624       12.0107           0
      2773 SHT      2773     S        C        CA      -0.031624       12.0107           0
      2774 SHT      2774     S        C        CA      -0.031624       12.0107           0
      2775 SHT      2775     S        C        CA      -0.031624       12.0107           0
      2776 SHT      2776     S        C        CA      -0.031624       12.0107           0
      2777 SHT      2777     S        C        CA      -0.031624       12.0107           0
      2778 SHT      2778     S        C        CA      -0.031624       12.0107           0
      2779 SHT      2779     S        C        CA      -0.031624       12.0107           0
      2780 SHT      2780     S        C        CA      -0.031624       12.0107           0
      2781 SHT      2781     S        C        CA      -0.031624       12.0107           0
      2782 SHT      2782     S        C        CA      -0.031624       12.0107           0
      2783 SHT      2783     S        C        CA      -0.031624       12.0107           0
      2784 SHT      2784     S        C        CA      -0.031624       12.0107           0
      2785 SHT      2785     S        C        CA      -0.031624       12.0107           0
      2786 SHT      2786     S        C        CA      -0.031624       12.0107           0
      2787 SHT      2787     S        C        CA      -0.031624       12.0107           0
      2788 SHT      2788     S        C        CA      -0.031624       12.0107           0
      2789 SHT      2789     S        C        CA      -0.031624       12.0107           0
      2790 SHT      2790     S        C        CA      -0.031624       12.0107           0
      2791 SHT      2791     S        C        CA      -0.031624       12.0107           0
      2792 SHT      2792     S        C        CA      -0.031624       12.0107           0
      2793 SHT      2793     S        C        CA      -0.031624       12.0107           0
      2794 SHT      2794     S        C        CA      -0.031624       12.0107           0
      2795 SHT      2795     S        C        CA      -0.031624       12.0107           0
      2796 SHT      2796     S        C        CA      -0.031624       12.0107           0
      2797 SHT      2797     S        C        CA      -0.031624       12.0107           0
      2798 SHT      2798     S        C        CA      -0.031624       12.0107           0
      2799 SHT      2799     S        C        CA      -0.031624       12.0107           0
      2800 SHT      2800     S        C        CA      -0.031624       12.0107           0
      2801 SHT      2801     S        C        CA      -0.031624       12.0107           0
      2802 SHT      2802     S        C        CA      -0.031624       12.0107           0
      2803 SHT      2803     S        C        CA      -0.031624       12.0107           0
      2804 SHT      2804     S        C        CA      -0.031624       12.0107           0
      2805 SHT      2805     S        C        CA      -0.031624       12.0107           0
      2806 SHT      2806     S        C        CA      -0.031624       12.0107           0
      2807 SHT      2807     S        C        CA      -0.031624       12.0107           0
      2808 SHT      2808     S        C        CA      -0.031624       12.0107           0
      2809 SHT      2809     S        C        CA      -0.031624       12.0107           0
      2810 SHT      2810     S        C        CA      -0.031624       12.0107           0
      2811 SHT      2811     S        C        CA      -0.031624       12.0107           0
      2812 SHT      2812     S        C        CA      -0.031624       12.0107           0
      2813 SHT      2813     S        C        CA      -0.031624       12.0107           0
      2814 SHT      2814     S        C        CA      -0.031624       12.0107           0
      2815 SHT      2815     S        C        CA      -0.031624       12.0107           0
      2816 SHT      2816     S        C        CA      -0.031624       12.0107           0
      2817 SHT      2817     S        C        CA      -0.031624       12.0107           0
      2818 SHT      2818     S        C        CA      -0.031624       12.0107           0
      2819 SHT      2819     S        C        CA      -0.031624       12.0107           0
      2820 SHT      2820     S        C        CA      -0.031624       12.0107           0
      2821 SHT      2821     S        C        CA      -0.031624       12.0107           0
      2822 SHT      2822     S        C        CA      -0.031624       12.0107           0
      2823 SHT      2823     S        C        CA      -0.031624       12.0107           0
      2824 SHT      2824     S        C        CA      -0.031624       12.0107           0
      2825 SHT      2825     S        C        CA      -0.031624       12.0107           0
      2826 SHT      2826     S        C        CA      -0.031624       12.0107           0
      2827 SHT      2827     S        C        CA      -0.031624       12.0107           0
      2828 SHT      2828     S        C        CA      -0.031624       12.0107           0
      2829 SHT      2829     S        C        CA      -0.031624       12.0107           0
      2830 SHT      2830     S        C        CA      -0.031624       12.0107           0
      2831 SHT      2831     S        C        CA      -0.031624       12.0107           0
      2832 SHT      2832     S        C        CA      -0.031624       12.0107           0
      2833 SHT      2833     S        C        CA      -0.031624       12.0107           0
      2834 SHT      2834     S        C        CA      -0.031624       12.0107           0
      2835 SHT      2835     S        C        CA      -0.031624       12.0107           0
      2836 SHT      2836     S        C        CA      -0.031624       12.0107           0
      2837 SHT      2837     S        C        CA      -0.031624       12.0107           0
      2838 SHT      2838     S        C        CA      -0.031624       12.0107           0
      2839 SHT      2839     S        C        CA      -0.031624       12.0107           0
      2840 SHT      2840     S        C        CA      -0.031624       12.0107           0
      2841 SHT      2841     S        C        CA      -0.031624       12.0107           0
      2842 SHT      2842     S        C        CA      -0.031624       12.0107           0
      2843 SHT      2843     S        C        CA      -0.031624       12.0107           0
      2844 SHT      2844     S        C        CA      -0.031624       12.0107           0
      2845 SHT      2845     S        C        CA      -0.031624       12.0107           0
      2846 SHT      2846     S        C        CA      -0.031624       12.0107           0
      2847 SHT      2847     S        C        CA      -0.031624       12.0107           0
      2848 SHT      2848     S        C        CA      -0.031624       12.0107           0
      2849 SHT      2849     S        C        CA      -0.031624       12.0107           0
      2850 SHT      2850     S        C        CA      -0.031624       12.0107           0
      2851 SHT      2851     S        C        CA      -0.031624       12.0107           0
      2852 SHT      2852     S        C        CA      -0.031624       12.0107           0
      2853 SHT      2853     S        C        CA      -0.031624       12.0107           0
      2854 SHT      2854     S        C        CA      -0.031624       12.0107           0
      2855 SHT      2855     S        C        CA      -0.031624       12.0107           0
      2856 SHT      2856     S        C        CA      -0.031624       12.0107           0
      2857 SHT      2857     S        C        CA      -0.031624       12.0107           0
      2858 SHT      2858     S        C        CA      -0.031624       12.0107           0
      2859 SHT      2859     S        C        CA      -0.031624       12.0107           0
      2860 SHT      2860     S        C        CA      -0.031624       12.0107           0
      2861 SHT      2861     S        C        CA      -0.031624       12.0107           0
      2862 SHT      2862     S        C        CA      -0.031624       12.0107           0
      2863 SHT      2863     S        C        CA      -0.031624       12.0107           0
      2864 SHT      2864     S        C        CA      -0.031624       12.0107           0
      2865 SHT      2865     S        C        CA      -0.031624       12.0107           0
      2866 SHT      2866     S        C        CA      -0.031624       12.0107           0
      2867 SHT      2867     S        C        CA      -0.031624       12.0107           0
      2868 SHT      2868     S        C        CA      -0.031624       12.0107           0
      2869 SHT      2869     S        C        CA      -0.031624       12.0107           0
      2870 SHT      2870     S        C        CA      -0.031624       12.0107           0
      2871 SHT      2871     S        C        CA      -0.031624       12.0107           0
      2872 SHT      2872     S        C        CA      -0.031624       12.0107           0
      2873 SHT      2873     S        C        CA      -0.031624       12.0107           0
      2874 SHT      2874     S        C        CA      -0.031624       12.0107           0
      2875 SHT      2875     S        C        CA      -0.031624       12.0107           0
      2876 SHT      2876     S        C        CA      -0.031624       12.0107           0
      2877 SHT      2877     S        C        CA      -0.031624       12.0107           0
      2878 SHT      2878     S        C        CA      -0.031624       12.0107           0
      2879 SHT      2879     S        C        CA      -0.031624       12.0107           0
      2880 SHT      2880     S        C        CA      -0.031624       12.0107           0
      2881 SHT      2881     S        C        CA      -0.031624       12.0107           0
      2882 SHT      2882     S        C        CA      -0.031624       12.0107           0
      2883 SHT      2883     S        C        CA      -0.031624       12.0107           0
      2884 SHT      2884     S        C        CA      -0.031624       12.0107           0
      2885 SHT      2885     S        C        CA      -0.031624       12.0107           0
      2886 SHT      2886     S        C        CA      -0.031624       12.0107           0
      2887 SHT      2887     S        C        CA      -0.031624       12.0107           0
      2888 SHT      2888     S        C        CA      -0.031624       12.0107           0
      2889 SHT      2889     S        C        CA      -0.031624       12.0107           0
      2890 SHT      2890     S        C        CA      -0.031624       12.0107           0
      2891 SHT      2891     S        C        CA      -0.031624       12.0107           0
      2892 SHT      2892     S        C        CA      -0.031624       12.0107           0
      2893 SHT      2893     S        C        CA      -0.031624       12.0107           0
      2894 SHT      2894     S        C        CA      -0.031624       12.0107           0
      2895 SHT      2895     S        C        CA      -0.031624       12.0107           0
      2896 SHT      2896     S        C        CA      -0.031624       12.0107           0
      2897 SHT      2897     S        C        CA      -0.031624       12.0107           0
      2898 SHT      2898     S        C        CA      -0.031624       12.0107           0
      2899 SHT      2899     S        C        CA      -0.031624       12.0107           0
      2900 SHT      2900     S        C        CA      -0.031624       12.0107           0
      2901 SHT      2901     S        C        CA      -0.031624       12.0107           0
      2902 SHT      2902     S        C        CA      -0.031624       12.0107           0
      2903 SHT      2903     S        C        CA      -0.031624       12.0107           0
      2904 SHT      2904     S        C        CA      -0.031624       12.0107           0
      2905 SHT      2905     S        C        CA      -0.031624       12.0107           0
      2906 SHT      2906     S        C        CA      -0.031624       12.0107           0
      2907 SHT      2907     S        C        CA      -0.031624       12.0107           0
      2908 SHT      2908     S        C        CA      -0.031624       12.0107           0
      2909 SHT      2909     S        C        CA      -0.031624       12.0107           0
      2910 SHT      2910     S        C        CA      -0.031624       12.0107           0
      2911 SHT      2911     S        C        CA      -0.031624       12.0107           0
      2912 SHT      2912     S        C        CA      -0.031624       12.0107           0
      2913 SHT      2913     S        C        CA      -0.031624       12.0107           0
      2914 SHT      2914     S        C        CA      -0.031624       12.0107           0
      2915 SHT      2915     S        C        CA      -0.031624       12.0107           0
      2916 SHT      2916     S        C        CA      -0.031624       12.0107           0
      2917 SHT      2917     S        C        CA      -0.031624       12.0107           0
      2918 SHT      2918     S        C        CA      -0.031624       12.0107           0
      2919 SHT      2919     S        C        CA      -0.031624       12.0107           0
      2920 SHT      2920     S        C        CA      -0.031624       12.0107           0
      2921 SHT      2921     S        C        CA      -0.031624       12.0107           0
      2922 SHT      2922     S        C        CA      -0.031624       12.0107           0
      2923 SHT      2923     S        C        CA      -0.031624       12.0107           0
      2924 SHT      2924     S        C        CA      -0.031624       12.0107           0
      2925 SHT      2925     S        C        CA      -0.031624       12.0107           0
      2926 SHT      2926     S        C        CA      -0.031624       12.0107           0
      2927 SHT      2927     S        C        CA      -0.031624       12.0107           0
      2928 SHT      2928     S        C        CA      -0.031624       12.0107           0
      2929 SHT      2929     S        C        CA      -0.031624       12.0107           0
      2930 SHT      2930     S        C        CA      -0.031624       12.0107           0
      2931 SHT      2931     S        C        CA      -0.031624       12.0107           0
      2932 SHT      2932     S        C        CA      -0.031624       12.0107           0
      2933 SHT      2933     S        C        CA      -0.031624       12.0107           0
      2934 SHT      2934     S        C        CA      -0.031624       12.0107           0
      2935 SHT      2935     S        C        CA      -0.031624       12.0107           0
      2936 SHT      2936     S        C        CA      -0.031624       12.0107           0
      2937 SHT      2937     S        C        CA      -0.031624       12.0107           0
      2938 SHT      2938     S        C        CA      -0.031624       12.0107           0
      2939 SHT      2939     S        C        CA      -0.031624       12.0107           0
      2940 SHT      2940     S        C        CA      -0.031624       12.0107           0
      2941 SHT      2941     S        C        CA      -0.031624       12.0107           0
      2942 SHT      2942     S        C        CA      -0.031624       12.0107           0
      2943 SHT      2943     S        C        CA      -0.031624       12.0107           0
      2944 SHT      2944     S        C        CA      -0.031624       12.0107           0
      2945 SHT      2945     S        C        CA      -0.031624       12.0107           0
      2946 SHT      2946     S        C        CA      -0.031624       12.0107           0
      2947 SHT      2947     S        C        CA      -0.031624       12.0107           0
      2948 SHT      2948     S        C        CA      -0.031624       12.0107           0
      2949 SHT      2949     S        C        CA      -0.031624       12.0107           0
      2950 SHT      2950     S        C        CA      -0.031624       12.0107           0
      2951 SHT      2951     S        C        CA      -0.031624       12.0107           0
      2952 SHT      2952     S        C        CA      -0.031624       12.0107           0
      2953 SHT      2953     S        C        CA      -0.031624       12.0107           0
      2954 SHT      2954     S        C        CA      -0.031624       12.0107           0
      2955 SHT      2955     S        C        CA      -0.031624       12.0107           0
      2956 SHT      2956     S        C        CA      -0.031624       12.0107           0
      2957 SHT      2957     S        C        CA      -0.031624       12.0107           0
      2958 SHT      2958     S        C        CA      -0.031624       12.0107           0
      2959 SHT      2959     S        C        CA      -0.031624       12.0107           0
      2960 SHT      2960     S        C        CA      -0.031624       12.0107           0
      2961 SHT      2961     S        C        CA      -0.031624       12.0107           0
      2962 SHT      2962     S        C        CA      -0.031624       12.0107           0
      2963 SHT      2963     S        C        CA      -0.031624       12.0107           0
      2964 SHT      2964     S        C        CA      -0.031624       12.0107           0
      2965 SHT      2965     S        C        CA      -0.031624       12.0107           0
      2966 SHT      2966     S        C        CA      -0.031624       12.0107           0
      2967 SHT      2967     S        C        CA      -0.031624       12.0107           0
      2968 SHT      2968     S        C        CA      -0.031624       12.0107           0
      2969 SHT      2969     S        C        CA      -0.031624       12.0107           0
      2970 SHT      2970     S        C        CA      -0.031624       12.0107           0
      2971 SHT      2971     S        C        CA      -0.031624       12.0107           0
      2972 SHT      2972     S        C        CA      -0.031624       12.0107           0
      2973 SHT      2973     S        C        CA      -0.031624       12.0107           0
      2974 SHT      2974     S        C        CA      -0.031624       12.0107           0
      2975 SHT      2975     S        C        CA      -0.031624       12.0107           0
      2976 SHT      2976     S        C        CA      -0.031624       12.0107           0
      2977 SHT      2977     S        C        CA      -0.031624       12.0107           0
      2978 SHT      2978     S        C        CA      -0.031624       12.0107           0
      2979 SHT      2979     S        C        CA      -0.031624       12.0107           0
      2980 SHT      2980     S        C        CA      -0.031624       12.0107           0
      2981 SHT      2981     S        C        CA      -0.031624       12.0107           0
      2982 SHT      2982     S        C        CA      -0.031624       12.0107           0
      2983 SHT      2983     S        C        CA      -0.031624       12.0107           0
      2984 SHT      2984     S        C        CA      -0.031624       12.0107           0
      2985 SHT      2985     S        C        CA      -0.031624       12.0107           0
      2986 SHT      2986     S        C        CA      -0.031624       12.0107           0
      2987 SHT      2987     S        C        CA      -0.031624       12.0107           0
      2988 SHT      2988     S        C        CA      -0.031624       12.0107           0
      2989 SHT      2989     S        C        CA      -0.031624       12.0107           0
      2990 SHT      2990     S        C        CA      -0.031624       12.0107           0
      2991 SHT      2991     S        C        CA      -0.031624       12.0107           0
      2992 SHT      2992     S        C        CA      -0.031624       12.0107           0
      2993 SHT      2993     S        C        CA      -0.031624       12.0107           0
      2994 SHT      2994     S        C        CA      -0.031624       12.0107           0
      2995 SHT      2995     S        C        CA      -0.031624       12.0107           0
      2996 SHT      2996     S        C        CA      -0.031624       12.0107           0
      2997 SHT      2997     S        C        CA      -0.031624       12.0107           0
      2998 SHT      2998     S        C        CA      -0.031624       12.0107           0
      2999 SHT      2999     S        C        CA      -0.031624       12.0107           0
      3000 SHT      3000     S        C        CA      -0.031624       12.0107           0
      3001 SHT      3001     S        C        CA      -0.031624       12.0107           0
      3002 SHT      3002     S        C        CA      -0.031624       12.0107           0
      3003 SHT      3003     S        C        CA      -0.031624       12.0107           0
      3004 SHT      3004     S        C        CA      -0.031624       12.0107           0
      3005 SHT      3005     S        C        CA      -0.031624       12.0107           0
      3006 SHT      3006     S        C        CA      -0.031624       12.0107           0
      3007 SHT      3007     S        C        CA      -0.031624       12.0107           0
      3008 SHT      3008     S        C        CA      -0.031624       12.0107           0
      3009 SHT      3009     S        C        CA      -0.031624       12.0107           0
      3010 SHT      3010     S        C        CA      -0.031624       12.0107           0
      3011 SHT      3011     S        C        CA      -0.031624       12.0107           0
      3012 SHT      3012     S        C        CA      -0.031624       12.0107           0
      3013 SHT      3013     S        C        CA      -0.031624       12.0107           0
      3014 SHT      3014     S        C        CA      -0.031624       12.0107           0
      3015 SHT      3015     S        C        CA      -0.031624       12.0107           0
      3016 SHT      3016     S        C        CA      -0.031624       12.0107           0
      3017 SHT      3017     S        C        CA      -0.031624       12.0107           0
      3018 SHT      3018     S        C        CA      -0.031624       12.0107           0
      3019 SHT      3019     S        C        CA      -0.031624       12.0107           0
      3020 SHT      3020     S        C        CA      -0.031624       12.0107           0
      3021 SHT      3021     S        C        CA      -0.031624       12.0107           0
      3022 SHT      3022     S        C        CA      -0.031624       12.0107           0
      3023 SHT      3023     S        C        CA      -0.031624       12.0107           0
      3024 SHT      3024     S        C        CA      -0.031624       12.0107           0
      3025 SHT      3025     S        C        CA      -0.031624       12.0107           0
      3026 SHT      3026     S        C        CA      -0.031624       12.0107           0
      3027 SHT      3027     S        C        CA      -0.031624       12.0107           0
      3028 SHT      3028     S        C        CA      -0.031624       12.0107           0
      3029 SHT      3029     S        C        CA      -0.031624       12.0107           0
      3030 SHT      3030     S        C        CA      -0.031624       12.0107           0
      3031 SHT      3031     S        C        CA      -0.031624       12.0107           0
      3032 SHT      3032     S        C        CA      -0.031624       12.0107           0
      3033 SHT      3033     S        C        CA      -0.031624       12.0107           0
      3034 SHT      3034     S        C        CA      -0.031624       12.0107           0
      3035 SHT      3035     S        C        CA      -0.031624       12.0107           0
      3036 SHT      3036     S        C        CA      -0.031624       12.0107           0
      3037 SHT      3037     S        C        CA      -0.031624       12.0107           0
      3038 SHT      3038     S        C        CA      -0.031624       12.0107           0
      3039 SHT      3039     S        C        CA      -0.031624       12.0107           0
      3040 SHT      3040     S        C        CA      -0.031624       12.0107           0
      3041 SHT      3041     S        C        CA      -0.031624       12.0107           0
      3042 SHT      3042     S        C        CA      -0.031624       12.0107           0
      3043 SHT      3043     S        C        CA      -0.031624       12.0107           0
      3044 SHT      3044     S        C        CA      -0.031624       12.0107           0
      3045 SHT      3045     S        C        CA      -0.031624       12.0107           0
      3046 SHT      3046     S        C        CA      -0.031624       12.0107           0
      3047 SHT      3047     S        C        CA      -0.031624       12.0107           0
      3048 SHT      3048     S        C        CA      -0.031624       12.0107           0
      3049 SHT      3049     S        C        CA      -0.031624       12.0107           0
      3050 SHT      3050     S        C        CA      -0.031624       12.0107           0
      3051 SHT      3051     S        C        CA      -0.031624       12.0107           0
      3052 SHT      3052     S        C        CA      -0.031624       12.0107           0
      3053 SHT      3053     S        C        CA      -0.031624       12.0107           0
      3054 SHT      3054     S        C        CA      -0.031624       12.0107           0
      3055 SHT      3055     S        C        CA      -0.031624       12.0107           0
      3056 SHT      3056     S        C        CA      -0.031624       12.0107           0
      3057 SHT      3057     S        C        CA      -0.031624       12.0107           0
      3058 SHT      3058     S        C        CA      -0.031624       12.0107           0
      3059 SHT      3059     S        C        CA      -0.031624       12.0107           0
      3060 SHT      3060     S        C        CA      -0.031624       12.0107           0
      3061 SHT      3061     S        C        CA      -0.031624       12.0107           0
      3062 SHT      3062     S        C        CA      -0.031624       12.0107           0
      3063 SHT      3063     S        C        CA      -0.031624       12.0107           0
      3064 SHT      3064     S        C        CA      -0.031624       12.0107           0
      3065 SHT      3065     S        C        CA      -0.031624       12.0107           0
      3066 SHT      3066     S        C        CA      -0.031624       12.0107           0
      3067 SHT      3067     S        C        CA      -0.031624       12.0107           0
      3068 SHT      3068     S        C        CA      -0.031624       12.0107           0
      3069 SHT      3069     S        C        CA      -0.031624       12.0107           0
      3070 SHT      3070     S        C        CA      -0.031624       12.0107           0
      3071 SHT      3071     S        C        CA      -0.031624       12.0107           0
      3072 SHT      3072     S        C        CA      -0.031624       12.0107           0
      3073 SHT      3073     S        C        CA      -0.031624       12.0107           0
      3074 SHT      3074     S        C        CA      -0.031624       12.0107           0
      3075 SHT      3075     S        C        CA      -0.031624       12.0107           0
      3076 SHT      3076     S        C        CA      -0.031624       12.0107           0
      3077 SHT      3077     S        C        CA      -0.031624       12.0107           0
      3078 SHT      3078     S        C        CA      -0.031624       12.0107           0
      3079 SHT      3079     S        C        CA      -0.031624       12.0107           0
      3080 SHT      3080     S        C        CA      -0.031624       12.0107           0
      3081 SHT      3081     S        C        CA      -0.031624       12.0107           0
      3082 SHT      3082     S        C        CA      -0.031624       12.0107           0
      3083 SHT      3083     S        C        CA      -0.031624       12.0107           0
      3084 SHT      3084     S        C        CA      -0.031624       12.0107           0
      3085 SHT      3085     S        C        CA      -0.031624       12.0107           0
      3086 SHT      3086     S        C        CA      -0.031624       12.0107           0
      3087 SHT      3087     S        C        CA      -0.031624       12.0107           0
      3088 SHT      3088     S        C        CA      -0.031624       12.0107           0
      3089 SHT      3089     S        C        CA      -0.031624       12.0107           0
      3090 SHT      3090     S        C        CA      -0.031624       12.0107           0
      3091 SHT      3091     S        C        CA      -0.031624       12.0107           0
      3092 SHT      3092     S        C        CA      -0.031624       12.0107           0
      3093 SHT      3093     S        C        CA      -0.031624       12.0107           0
      3094 SHT      3094     S        C        CA      -0.031624       12.0107           0
      3095 SHT      3095     S        C        CA      -0.031624       12.0107           0
      3096 SHT      3096     S        C        CA      -0.031624       12.0107           0
      3097 SHT      3097     S        C        CA      -0.031624       12.0107           0
      3098 SHT      3098     S        C        CA      -0.031624       12.0107           0
      3099 SHT      3099     S        C        CA      -0.031624       12.0107           0
      3100 SHT      3100     S        C        CA      -0.031624       12.0107           0
      3101 SHT      3101     S        C        CA      -0.031624       12.0107           0
      3102 SHT      3102     S        C        CA      -0.031624       12.0107           0
      3103 SHT      3103     S        C        CA      -0.031624       12.0107           0
      3104 SHT      3104     S        C        CA      -0.031624       12.0107           0
      3105 SHT      3105     S        C        CA      -0.031624       12.0107           0
      3106 SHT      3106     S        C        CA      -0.031624       12.0107           0
      3107 SHT      3107     S        C        CA      -0.031624       12.0107           0
      3108 SHT      3108     S        C        CA      -0.031624       12.0107           0
      3109 SHT      3109     S        C        CA      -0.031624       12.0107           0
      3110 SHT      3110     S        C        CA      -0.031624       12.0107           0
      3111 SHT      3111     S        C        CA      -0.031624       12.0107           0
      3112 SHT      3112     S        C        CA      -0.031624       12.0107           0
      3113 SHT      3113     S        C        CA      -0.031624       12.0107           0
      3114 SHT      3114     S        C        CA      -0.031624       12.0107           0
      3115 SHT      3115     S        C        CA      -0.031624       12.0107           0
      3116 SHT      3116     S        C        CA      -0.031624       12.0107           0
      3117 SHT      3117     S        C        CA      -0.031624       12.0107           0
      3118 SHT      3118     S        C        CA      -0.031624       12.0107           0
      3119 SHT      3119     S        C        CA      -0.031624       12.0107           0
      3120 SHT      3120     S        C        CA      -0.031624       12.0107           0
      3121 SHT      3121     S        C        CA      -0.031624       12.0107           0
      3122 SHT      3122     S        C        CA      -0.031624       12.0107           0
      3123 SHT      3123     S        C        CA      -0.031624       12.0107           0
      3124 SHT      3124     S        C        CA      -0.031624       12.0107           0
      3125 SHT      3125     S        C        CA      -0.031624       12.0107           0
      3126 SHT      3126     S        C        CA      -0.031624       12.0107           0
      3127 SHT      3127     S        C        CA      -0.031624       12.0107           0
      3128 SHT      3128     S        C        CA      -0.031624       12.0107           0
      3129 SHT      3129     S        C        CA      -0.031624       12.0107           0
      3130 SHT      3130     S        C        CA      -0.031624       12.0107           0
      3131 SHT      3131     S        C        CA      -0.031624       12.0107           0
      3132 SHT      3132     S        C        CA      -0.031624       12.0107           0
      3133 SHT      3133     S        C        CA      -0.031624       12.0107           0
      3134 SHT      3134     S        C        CA      -0.031624       12.0107           0
      3135 SHT      3135     S        C        CA      -0.031624       12.0107           0
      3136 SHT      3136     S        C        CA      -0.031624       12.0107           0
      3137 SHT      3137     S        C        CA      -0.031624       12.0107           0
      3138 SHT      3138     S        C        CA      -0.031624       12.0107           0
      3139 SHT      3139     S        C        CA      -0.031624       12.0107           0
      3140 SHT      3140     S        C        CA      -0.031624       12.0107           0
      3141 SHT      3141     S        C        CA      -0.031624       12.0107           0
      3142 SHT      3142     S        C        CA      -0.031624       12.0107           0
      3143 SHT      3143     S        C        CA      -0.031624       12.0107           0
      3144 SHT      3144     S        C        CA      -0.031624       12.0107           0
      3145 SHT      3145     S        C        CA      -0.031624       12.0107           0
      3146 SHT      3146     S        C        CA      -0.031624       12.0107           0
      3147 SHT      3147     S        C        CA      -0.031624       12.0107           0
      3148 SHT      3148     S        C        CA      -0.031624       12.0107           0
      3149 SHT      3149     S        C        CA      -0.031624       12.0107           0
      3150 SHT      3150     S        C        CA      -0.031624       12.0107           0
      3151 SHT      3151     S        C        CA      -0.031624       12.0107           0
      3152 SHT      3152     S        C        CA      -0.031624       12.0107           0
      3153 SHT      3153     S        C        CA      -0.031624       12.0107           0
      3154 SHT      3154     S        C        CA      -0.031624       12.0107           0
      3155 SHT      3155     S        C        CA      -0.031624       12.0107           0
      3156 SHT      3156     S        C        CA      -0.031624       12.0107           0
      3157 SHT      3157     S        C        CA      -0.031624       12.0107           0
      3158 SHT      3158     S        C        CA      -0.031624       12.0107           0
      3159 SHT      3159     S        C        CA      -0.031624       12.0107           0
      3160 SHT      3160     S        C        CA      -0.031624       12.0107           0
      3161 SHT      3161     S        C        CA      -0.031624       12.0107           0
      3162 SHT      3162     S        C        CA      -0.031624       12.0107           0
      3163 SHT      3163     S        C        CA      -0.031624       12.0107           0
      3164 SHT      3164     S        C        CA      -0.031624       12.0107           0
      3165 SHT      3165     S        C        CA      -0.031624       12.0107           0
      3166 SHT      3166     S        C        CA      -0.031624       12.0107           0
      3167 SHT      3167     S        C        CA      -0.031624       12.0107           0
      3168 SHT      3168     S        C        CA      -0.031624       12.0107           0
      3169 SHT      3169     S        C        CA      -0.031624       12.0107           0
      3170 SHT      3170     S        C        CA      -0.031624       12.0107           0
      3171 SHT      3171     S        C        CA      -0.031624       12.0107           0
      3172 SHT      3172     S        C        CA      -0.031624       12.0107           0
      3173 SHT      3173     S        C        CA      -0.031624       12.0107           0
      3174 SHT      3174     S        C        CA      -0.031624       12.0107           0
      3175 SHT      3175     S        C        CA      -0.031624       12.0107           0
      3176 SHT      3176     S        C        CA      -0.031624       12.0107           0
      3177 SHT      3177     S        C        CA      -0.031624       12.0107           0
      3178 SHT      3178     S        C        CA      -0.031624       12.0107           0
      3179 SHT      3179     S        C        CA      -0.031624       12.0107           0
      3180 SHT      3180     S        C        CA      -0.031624       12.0107           0
      3181 SHT      3181     S        C        CA      -0.031624       12.0107           0
      3182 SHT      3182     S        C        CA      -0.031624       12.0107           0
      3183 SHT      3183     S        C        CA      -0.031624       12.0107           0
      3184 SHT      3184     S        C        CA      -0.031624       12.0107           0
      3185 SHT      3185     S        C        CA      -0.031624       12.0107           0
      3186 SHT      3186     S        C        CA      -0.031624       12.0107           0
      3187 SHT      3187     S        C        CA      -0.031624       12.0107           0
      3188 SHT      3188     S        C        CA      -0.031624       12.0107           0
      3189 SHT      3189     S        C        CA      -0.031624       12.0107           0
      3190 SHT      3190     S        C        CA      -0.031624       12.0107           0
      3191 SHT      3191     S        C        CA      -0.031624       12.0107           0
      3192 SHT      3192     S        C        CA      -0.031624       12.0107           0
      3193 SHT      3193     S        C        CA      -0.031624       12.0107           0
      3194 SHT      3194     S        C        CA      -0.031624       12.0107           0
      3195 SHT      3195     S        C        CA      -0.031624       12.0107           0
      3196 SHT      3196     S        C        CA      -0.031624       12.0107           0
      3197 SHT      3197     S        C        CA      -0.031624       12.0107           0
      3198 SHT      3198     S        C        CA      -0.031624       12.0107           0
      3199 SHT      3199     S        C        CA      -0.031624       12.0107           0
      3200 SHT      3200     S        C        CA      -0.031624       12.0107           0
      3201 SHT      3201     S        C        CA      -0.031624       12.0107           0
      3202 SHT      3202     S        C        CA      -0.031624       12.0107           0
      3203 SHT      3203     S        C        CA      -0.031624       12.0107           0
      3204 SHT      3204     S        C        CA      -0.031624       12.0107           0
      3205 SHT      3205     S        C        CA      -0.031624       12.0107           0
      3206 SHT      3206     S        C        CA      -0.031624       12.0107           0
      3207 SHT      3207     S        C        CA      -0.031624       12.0107           0
      3208 SHT      3208     S        C        CA      -0.031624       12.0107           0
      3209 SHT      3209     S        C        CA      -0.031624       12.0107           0
      3210 SHT      3210     S        C        CA      -0.031624       12.0107           0
      3211 SHT      3211     S        C        CA      -0.031624       12.0107           0
      3212 SHT      3212     S        C        CA      -0.031624       12.0107           0
      3213 SHT      3213     S        C        CA      -0.031624       12.0107           0
      3214 SHT      3214     S        C        CA      -0.031624       12.0107           0
      3215 SHT      3215     S        C        CA      -0.031624       12.0107           0
      3216 SHT      3216     S        C        CA      -0.031624       12.0107           0
      3217 SHT      3217     S        C        CA      -0.031624       12.0107           0
      3218 SHT      3218     S        C        CA      -0.031624       12.0107           0
      3219 SHT      3219     S        C        CA      -0.031624       12.0107           0
      3220 SHT      3220     S        C        CA      -0.031624       12.0107           0
      3221 SHT      3221     S        C        CA      -0.031624       12.0107           0
      3222 SHT      3222     S        C        CA      -0.031624       12.0107           0
      3223 SHT      3223     S        C        CA      -0.031624       12.0107           0
      3224 SHT      3224     S        C        CA      -0.031624       12.0107           0
      3225 SHT      3225     S        C        CA      -0.031624       12.0107           0
      3226 SHT      3226     S        C        CA      -0.031624       12.0107           0
      3227 SHT      3227     S        C        CA      -0.031624       12.0107           0
      3228 SHT      3228     S        C        CA      -0.031624       12.0107           0
      3229 SHT      3229     S        C        CA      -0.031624       12.0107           0
      3230 SHT      3230     S        C        CA      -0.031624       12.0107           0
      3231 SHT      3231     S        C        CA      -0.031624       12.0107           0
      3232 SHT      3232     S        C        CA      -0.031624       12.0107           0
      3233 SHT      3233     S        C        CA      -0.031624       12.0107           0
      3234 SHT      3234     S        C        CA      -0.031624       12.0107           0
      3235 SHT      3235     S        C        CA      -0.031624       12.0107           0
      3236 SHT      3236     S        C        CA      -0.031624       12.0107           0
      3237 SHT      3237     S        C        CA      -0.031624       12.0107           0
      3238 SHT      3238     S        C        CA      -0.031624       12.0107           0
      3239 SHT      3239     S        C        CA      -0.031624       12.0107           0
      3240 SHT      3240     S        C        CA      -0.031624       12.0107           0
      3241 SHT      3241     S        C        CA      -0.031624       12.0107           0
      3242 SHT      3242     S        C        CA      -0.031624       12.0107           0
      3243 SHT      3243     S        C        CA      -0.031624       12.0107           0
      3244 SHT      3244     S        C        CA      -0.031624       12.0107           0
      3245 SHT      3245     S        C        CA      -0.031624       12.0107           0
      3246 SHT      3246     S        C        CA      -0.031624       12.0107           0
      3247 SHT      3247     S        C        CA      -0.031624       12.0107           0
      3248 SHT      3248     S        C        CA      -0.031624       12.0107           0
      3249 SHT      3249     S        C        CA      -0.031624       12.0107           0
      3250 SHT      3250     S        C        CA      -0.031624       12.0107           0
      3251 SHT      3251     S        C        CA      -0.031624       12.0107           0
      3252 SHT      3252     S        C        CA      -0.031624       12.0107           0
      3253 SHT      3253     S        C        CA      -0.031624       12.0107           0
      3254 SHT      3254     S        C        CA      -0.031624       12.0107           0
      3255 SHT      3255     S        C        CA      -0.031624       12.0107           0
      3256 SHT      3256     S        C        CA      -0.031624       12.0107           0
      3257 SHT      3257     S        C        CA      -0.031624       12.0107           0
      3258 SHT      3258     S        C        CA      -0.031624       12.0107           0
      3259 SHT      3259     S        C        CA      -0.031624       12.0107           0
      3260 SHT      3260     S        C        CA      -0.031624       12.0107           0
      3261 SHT      3261     S        C        CA      -0.031624       12.0107           0
      3262 SHT      3262     S        C        CA      -0.031624       12.0107           0
      3263 SHT      3263     S        C        CA      -0.031624       12.0107           0
      3264 SHT      3264     S        C        CA      -0.031624       12.0107           0
      3265 SHT      3265     S        C        CA      -0.031624       12.0107           0
      3266 SHT      3266     S        C        CA      -0.031624       12.0107           0
      3267 SHT      3267     S        C        CA      -0.031624       12.0107           0
      3268 SHT      3268     S        C        CA      -0.031624       12.0107           0
      3269 SHT      3269     S        C        CA      -0.031624       12.0107           0
      3270 SHT      3270     S        C        CA      -0.031624       12.0107           0
      3271 SHT      3271     S        C        CA      -0.031624       12.0107           0
      3272 SHT      3272     S        C        CA      -0.031624       12.0107           0
      3273 SHT      3273     S        C        CA      -0.031624       12.0107           0
      3274 SHT      3274     S        C        CA      -0.031624       12.0107           0
      3275 SHT      3275     S        C        CA      -0.031624       12.0107           0
      3276 SHT      3276     S        C        CA      -0.031624       12.0107           0
      3277 SHT      3277     S        C        CA      -0.031624       12.0107           0
      3278 SHT      3278     S        C        CA      -0.031624       12.0107           0
      3279 SHT      3279     S        C        CA      -0.031624       12.0107           0
      3280 SHT      3280     S        C        CA      -0.031624       12.0107           0
      3281 SHT      3281     S        C        CA      -0.031624       12.0107           0
      3282 SHT      3282     S        C        CA      -0.031624       12.0107           0
      3283 SHT      3283     S        C        CA      -0.031624       12.0107           0
      3284 SHT      3284     S        C        CA      -0.031624       12.0107           0
      3285 SHT      3285     S        C        CA      -0.031624       12.0107           0
      3286 SHT      3286     S        C        CA      -0.031624       12.0107           0
      3287 SHT      3287     S        C        CA      -0.031624       12.0107           0
      3288 SHT      3288     S        C        CA      -0.031624       12.0107           0
      3289 SHT      3289     S        C        CA      -0.031624       12.0107           0
      3290 SHT      3290     S        C        CA      -0.031624       12.0107           0
      3291 SHT      3291     S        C        CA      -0.031624       12.0107           0
      3292 SHT      3292     S        C        CA      -0.031624       12.0107           0
      3293 SHT      3293     S        C        CA      -0.031624       12.0107           0
      3294 SHT      3294     S        C        CA      -0.031624       12.0107           0
      3295 SHT      3295     S        C        CA      -0.031624       12.0107           0
      3296 SHT      3296     S        C        CA      -0.031624       12.0107           0
      3297 SHT      3297     S        C        CA      -0.031624       12.0107           0
      3298 SHT      3298     S        C        CA      -0.031624       12.0107           0
      3299 SHT      3299     S        C        CA      -0.031624       12.0107           0
      3300 SHT      3300     S        C        CA      -0.031624       12.0107           0
      3301 SHT      3301     S        C        CA      -0.031624       12.0107           0
      3302 SHT      3302     S        C        CA      -0.031624       12.0107           0
      3303 SHT      3303     S        C        CA      -0.031624       12.0107           0
      3304 SHT      3304     S        C        CA      -0.031624       12.0107           0
      3305 SHT      3305     S        C        CA      -0.031624       12.0107           0
      3306 SHT      3306     S        C        CA      -0.031624       12.0107           0
      3307 SHT      3307     S        C        CA      -0.031624       12.0107           0
      3308 SHT      3308     S        C        CA      -0.031624       12.0107           0
      3309 SHT      3309     S        C        CA      -0.031624       12.0107           0
      3310 SHT      3310     S        C        CA      -0.031624       12.0107           0
      3311 SHT      3311     S        C        CA      -0.031624       12.0107           0
      3312 SHT      3312     S        C        CA      -0.031624       12.0107           0
      3313 SHT      3313     S        C        CA      -0.031624       12.0107           0
      3314 SHT      3314     S        C        CA      -0.031624       12.0107           0
      3315 SHT      3315     S        C        CA      -0.031624       12.0107           0
      3316 SHT      3316     S        C        CA      -0.031624       12.0107           0
      3317 SHT      3317     S        C        CA      -0.031624       12.0107           0
      3318 SHT      3318     S        C        CA      -0.031624       12.0107           0
      3319 SHT      3319     S        C        CA      -0.031624       12.0107           0
      3320 SHT      3320     S        C        CA      -0.031624       12.0107           0
      3321 SHT      3321     S        C        CA      -0.031624       12.0107           0
      3322 SHT      3322     S        C        CA      -0.031624       12.0107           0
      3323 SHT      3323     S        C        CA      -0.031624       12.0107           0
      3324 SHT      3324     S        C        CA      -0.031624       12.0107           0
      3325 SHT      3325     S        C        CA      -0.031624       12.0107           0
      3326 SHT      3326     S        C        CA      -0.031624       12.0107           0
      3327 SHT      3327     S        C        CA      -0.031624       12.0107           0
      3328 SHT      3328     S        C        CA      -0.031624       12.0107           0
      3329 SHT      3329     S        C        CA      -0.031624       12.0107           0
      3330 SHT      3330     S        C        CA      -0.031624       12.0107           0
      3331 SHT      3331     S        C        CA      -0.031624       12.0107           0
      3332 SHT      3332     S        C        CA      -0.031624       12.0107           0
      3333 SHT      3333     S        C        CA      -0.031624       12.0107           0
      3334 SHT      3334     S        C        CA      -0.031624       12.0107           0
      3335 SHT      3335     S        C        CA      -0.031624       12.0107           0
      3336 SHT      3336     S        C        CA      -0.031624       12.0107           0
      3337 SHT      3337     S        C        CA      -0.031624       12.0107           0
      3338 SHT      3338     S        C        CA      -0.031624       12.0107           0
      3339 SHT      3339     S        C        CA      -0.031624       12.0107           0
      3340 SHT      3340     S        C        CA      -0.031624       12.0107           0
      3341 SHT      3341     S        C        CA      -0.031624       12.0107           0
      3342 SHT      3342     S        C        CA      -0.031624       12.0107           0
      3343 SHT      3343     S        C        CA      -0.031624       12.0107           0
      3344 SHT      3344     S        C        CA      -0.031624       12.0107           0
      3345 SHT      3345     S        C        CA      -0.031624       12.0107           0
      3346 SHT      3346     S        C        CA      -0.031624       12.0107           0
      3347 SHT      3347     S        C        CA      -0.031624       12.0107           0
      3348 SHT      3348     S        C        CA      -0.031624       12.0107           0
      3349 SHT      3349     S        C        CA      -0.031624       12.0107           0
      3350 SHT      3350     S        C        CA      -0.031624       12.0107           0
      3351 SHT      3351     S        C        CA      -0.031624       12.0107           0
      3352 SHT      3352     S        C        CA      -0.031624       12.0107           0
      3353 SHT      3353     S        C        CA      -0.031624       12.0107           0
      3354 SHT      3354     S        C        CA      -0.031624       12.0107           0
      3355 SHT      3355     S        C        CA      -0.031624       12.0107           0
      3356 SHT      3356     S        C        CA      -0.031624       12.0107           0
      3357 SHT      3357     S        C        CA      -0.031624       12.0107           0
      3358 SHT      3358     S        C        CA      -0.031624       12.0107           0
      3359 SHT      3359     S        C        CA      -0.031624       12.0107           0
      3360 SHT      3360     S        C        CA      -0.031624       12.0107           0
      3361 SHT      3361     S        C        CA      -0.031624       12.0107           0
      3362 SHT      3362     S        C        CA      -0.031624       12.0107           0
      3363 SHT      3363     S        C        CA      -0.031624       12.0107           0
      3364 SHT      3364     S        C        CA      -0.031624       12.0107           0
      3365 SHT      3365     S        C        CA      -0.031624       12.0107           0
      3366 SHT      3366     S        C        CA      -0.031624       12.0107           0
      3367 SHT      3367     S        C        CA      -0.031624       12.0107           0
      3368 SHT      3368     S        C        CA      -0.031624       12.0107           0
      3369 SHT      3369     S        C        CA      -0.031624       12.0107           0
      3370 SHT      3370     S        C        CA      -0.031624       12.0107           0
      3371 SHT      3371     S        C        CA      -0.031624       12.0107           0
      3372 SHT      3372     S        C        CA      -0.031624       12.0107           0
      3373 SHT      3373     S        C        CA      -0.031624       12.0107           0
      3374 SHT      3374     S        C        CA      -0.031624       12.0107           0
      3375 SHT      3375     S        C        CA      -0.031624       12.0107           0
      3376 SHT      3376     S        C        CA      -0.031624       12.0107           0
      3377 SHT      3377     S        C        CA      -0.031624       12.0107           0
      3378 SHT      3378     S        C        CA      -0.031624       12.0107           0
      3379 SHT      3379     S        C        CA      -0.031624       12.0107           0
      3380 SHT      3380     S        C        CA      -0.031624       12.0107           0
      3381 SHT      3381     S        C        CA      -0.031624       12.0107           0
      3382 SHT      3382     S        C        CA      -0.031624       12.0107           0
      3383 SHT      3383     S        C        CA      -0.031624       12.0107           0
      3384 SHT      3384     S        C        CA      -0.031624       12.0107           0
      3385 SHT      3385     S        C        CA      -0.031624       12.0107           0
      3386 SHT      3386     S        C        CA      -0.031624       12.0107           0
      3387 SHT      3387     S        C        CA      -0.031624       12.0107           0
      3388 SHT      3388     S        C        CA      -0.031624       12.0107           0
      3389 SHT      3389     S        C        CA      -0.031624       12.0107           0
      3390 SHT      3390     S        C        CA      -0.031624       12.0107           0
      3391 SHT      3391     S        C        CA      -0.031624       12.0107           0
      3392 SHT      3392     S        C        CA      -0.031624       12.0107           0
      3393 SHT      3393     S        C        CA      -0.031624       12.0107           0
      3394 SHT      3394     S        C        CA      -0.031624       12.0107           0
      3395 SHT      3395     S        C        CA      -0.031624       12.0107           0
      3396 SHT      3396     S        C        CA      -0.031624       12.0107           0
      3397 SHT      3397     S        C        CA      -0.031624       12.0107           0
      3398 SHT      3398     S        C        CA      -0.031624       12.0107           0
      3399 SHT      3399     S        C        CA      -0.031624       12.0107           0
      3400 SHT      3400     S        C        CA      -0.031624       12.0107           0
      3401 SHT      3401     S        C        CA      -0.031624       12.0107           0
      3402 SHT      3402     S        C        CA      -0.031624       12.0107           0
      3403 SHT      3403     S        C        CA      -0.031624       12.0107           0
      3404 SHT      3404     S        C        CA      -0.031624       12.0107           0
      3405 SHT      3405     S        C        CA      -0.031624       12.0107           0
      3406 SHT      3406     S        C        CA      -0.031624       12.0107           0
      3407 SHT      3407     S        C        CA      -0.031624       12.0107           0
      3408 SHT      3408     S        C        CA      -0.031624       12.0107           0
      3409 SHT      3409     S        C        CA      -0.031624       12.0107           0
      3410 SHT      3410     S        C        CA      -0.031624       12.0107           0
      3411 SHT      3411     S        C        CA      -0.031624       12.0107           0
      3412 SHT      3412     S        C        CA      -0.031624       12.0107           0
      3413 SHT      3413     S        C        CA      -0.031624       12.0107           0
      3414 SHT      3414     S        C        CA      -0.031624       12.0107           0
      3415 SHT      3415     S        C        CA      -0.031624       12.0107           0
      3416 SHT      3416     S        C        CA      -0.031624       12.0107           0
      3417 SHT      3417     S        C        CA      -0.031624       12.0107           0
      3418 SHT      3418     S        C        CA      -0.031624       12.0107           0
      3419 SHT      3419     S        C        CA      -0.031624       12.0107           0
      3420 SHT      3420     S        C        CA      -0.031624       12.0107           0
      3421 SHT      3421     S        C        CA      -0.031624       12.0107           0
      3422 SHT      3422     S        C        CA      -0.031624       12.0107           0
      3423 SHT      3423     S        C        CA      -0.031624       12.0107           0
      3424 SHT      3424     S        C        CA      -0.031624       12.0107           0
      3425 SHT      3425     S        C        CA      -0.031624       12.0107           0
      3426 SHT      3426     S        C        CA      -0.031624       12.0107           0
      3427 SHT      3427     S        C        CA      -0.031624       12.0107           0
      3428 SHT      3428     S        C        CA      -0.031624       12.0107           0
      3429 SHT      3429     S        C        CA      -0.031624       12.0107           0
      3430 SHT      3430     S        C        CA      -0.031624       12.0107           0
      3431 SHT      3431     S        C        CA      -0.031624       12.0107           0
      3432 SHT      3432     S        C        CA      -0.031624       12.0107           0
      3433 SHT      3433     S        C        CA      -0.031624       12.0107           0
      3434 SHT      3434     S        C        CA      -0.031624       12.0107           0
      3435 SHT      3435     S        C        CA      -0.031624       12.0107           0
      3436 SHT      3436     S        C        CA      -0.031624       12.0107           0
      3437 SHT      3437     S        C        CA      -0.031624       12.0107           0
      3438 SHT      3438     S        C        CA      -0.031624       12.0107           0
      3439 SHT      3439     S        C        CA      -0.031624       12.0107           0
      3440 SHT      3440     S        C        CA      -0.031624       12.0107           0
      3441 SHT      3441     S        C        CA      -0.031624       12.0107           0
      3442 SHT      3442     S        C        CA      -0.031624       12.0107           0
      3443 SHT      3443     S        C        CA      -0.031624       12.0107           0
      3444 SHT      3444     S        C        CA      -0.031624       12.0107           0
      3445 SHT      3445     S        C        CA      -0.031624       12.0107           0
      3446 SHT      3446     S        C        CA      -0.031624       12.0107           0
      3447 SHT      3447     S        C        CA      -0.031624       12.0107           0
      3448 SHT      3448     S        C        CA      -0.031624       12.0107           0
      3449 SHT      3449     S        C        CA      -0.031624       12.0107           0
      3450 SHT      3450     S        C        CA      -0.031624       12.0107           0
      3451 SHT      3451     S        C        CA      -0.031624       12.0107           0
      3452 SHT      3452     S        C        CA      -0.031624       12.0107           0
      3453 SHT      3453     S        C        CA      -0.031624       12.0107           0
      3454 SHT      3454     S        C        CA      -0.031624       12.0107           0
      3455 SHT      3455     S        C        CA      -0.031624       12.0107           0
      3456 SHT      3456     S        C        CA      -0.031624       12.0107           0
      3457 SHT      3457     S        C        CA      -0.031624       12.0107           0
      3458 SHT      3458     S        C        CA      -0.031624       12.0107           0
      3459 SHT      3459     S        C        CA      -0.031624       12.0107           0
      3460 SHT      3460     S        C        CA      -0.031624       12.0107           0
      3461 SHT      3461     S        C        CA      -0.031624       12.0107           0
      3462 SHT      3462     S        C        CA      -0.031624       12.0107           0
      3463 SHT      3463     S        C        CA      -0.031624       12.0107           0
      3464 SHT      3464     S        C        CA      -0.031624       12.0107           0
      3465 SHT      3465     S        C        CA      -0.031624       12.0107           0
      3466 SHT      3466     S        C        CA      -0.031624       12.0107           0
      3467 SHT      3467     S        C        CA      -0.031624       12.0107           0
      3468 SHT      3468     S        C        CA      -0.031624       12.0107           0
      3469 SHT      3469     S        C        CA      -0.031624       12.0107           0
      3470 SHT      3470     S        C        CA      -0.031624       12.0107           0
      3471 SHT      3471     S        C        CA      -0.031624       12.0107           0
      3472 SHT      3472     S        C        CA      -0.031624       12.0107           0
      3473 SHT      3473     S        C        CA      -0.031624       12.0107           0
      3474 SHT      3474     S        C        CA      -0.031624       12.0107           0
      3475 SHT      3475     S        C        CA      -0.031624       12.0107           0
      3476 SHT      3476     S        C        CA      -0.031624       12.0107           0
      3477 SHT      3477     S        C        CA      -0.031624       12.0107           0
      3478 SHT      3478     S        C        CA      -0.031624       12.0107           0
      3479 SHT      3479     S        C        CA      -0.031624       12.0107           0
      3480 SHT      3480     S        C        CA      -0.031624       12.0107           0
      3481 SHT      3481     S        C        CA      -0.031624       12.0107           0
      3482 SHT      3482     S        C        CA      -0.031624       12.0107           0
      3483 SHT      3483     S        C        CA      -0.031624       12.0107           0
      3484 SHT      3484     S        C        CA      -0.031624       12.0107           0
      3485 SHT      3485     S        C        CA      -0.031624       12.0107           0
      3486 SHT      3486     S        C        CA      -0.031624       12.0107           0
      3487 SHT      3487     S        C        CA      -0.031624       12.0107           0
      3488 SHT      3488     S        C        CA      -0.031624       12.0107           0
      3489 SHT      3489     S        C        CA      -0.031624       12.0107           0
      3490 SHT      3490     S        C        CA      -0.031624       12.0107           0
      3491 SHT      3491     S        C        CA      -0.031624       12.0107           0
      3492 SHT      3492     S        C        CA      -0.031624       12.0107           0
      3493 SHT      3493     S        C        CA      -0.031624       12.0107           0
      3494 SHT      3494     S        C        CA      -0.031624       12.0107           0
      3495 SHT      3495     S        C        CA      -0.031624       12.0107           0
      3496 SHT      3496     S        C        CA      -0.031624       12.0107           0
      3497 SHT      3497     S        C        CA      -0.031624       12.0107           0
      3498 SHT      3498     S        C        CA      -0.031624       12.0107           0
      3499 SHT      3499     S        C        CA      -0.031624       12.0107           0
      3500 SHT      3500     S        C        CA      -0.031624       12.0107           0
      3501 SHT      3501     S        C        CA      -0.031624       12.0107           0
      3502 SHT      3502     S        C        CA      -0.031624       12.0107           0
      3503 SHT      3503     S        C        CA      -0.031624       12.0107           0
      3504 SHT      3504     S        C        CA      -0.031624       12.0107           0
      3505 SHT      3505     S        C        CA      -0.031624       12.0107           0
      3506 SHT      3506     S        C        CA      -0.031624       12.0107           0
      3507 SHT      3507     S        C        CA      -0.031624       12.0107           0
      3508 SHT      3508     S        C        CA      -0.031624       12.0107           0
      3509 SHT      3509     S        C        CA      -0.031624       12.0107           0
      3510 SHT      3510     S        C        CA      -0.031624       12.0107           0
      3511 SHT      3511     S        C        CA      -0.031624       12.0107           0
      3512 SHT      3512     S        C        CA      -0.031624       12.0107           0
      3513 SHT      3513     S        C        CA      -0.031624       12.0107           0
      3514 SHT      3514     S        C        CA      -0.031624       12.0107           0
      3515 SHT      3515     S        C        CA      -0.031624       12.0107           0
      3516 SHT      3516     S        C        CA      -0.031624       12.0107           0
      3517 SHT      3517     S        C        CA      -0.031624       12.0107           0
      3518 SHT      3518     S        C        CA      -0.031624       12.0107           0
      3519 SHT      3519     S        C        CA      -0.031624       12.0107           0
      3520 SHT      3520     S        C        CA      -0.031624       12.0107           0
      3521 SHT      3521     S        C        CA      -0.031624       12.0107           0
      3522 SHT      3522     S        C        CA      -0.031624       12.0107           0
      3523 SHT      3523     S        C        CA      -0.031624       12.0107           0
      3524 SHT      3524     S        C        CA      -0.031624       12.0107           0
      3525 SHT      3525     S        C        CA      -0.031624       12.0107           0
      3526 SHT      3526     S        C        CA      -0.031624       12.0107           0
      3527 SHT      3527     S        C        CA      -0.031624       12.0107           0
      3528 SHT      3528     S        C        CA      -0.031624       12.0107           0
      3529 SHT      3529     S        C        CA      -0.031624       12.0107           0
      3530 SHT      3530     S        C        CA      -0.031624       12.0107           0
      3531 SHT      3531     S        C        CA      -0.031624       12.0107           0
      3532 SHT      3532     S        C        CA      -0.031624       12.0107           0
      3533 SHT      3533     S        C        CA      -0.031624       12.0107           0
      3534 SHT      3534     S        C        CA      -0.031624       12.0107           0
      3535 SHT      3535     S        C        CA      -0.031624       12.0107           0
      3536 SHT      3536     S        C        CA      -0.031624       12.0107           0
      3537 SHT      3537     S        C        CA      -0.031624       12.0107           0
      3538 SHT      3538     S        C        CA      -0.031624       12.0107           0
      3539 SHT      3539     S        C        CA      -0.031624       12.0107           0
      3540 SHT      3540     S        C        CA      -0.031624       12.0107           0
      3541 SHT      3541     S        C        CA      -0.031624       12.0107           0
      3542 SHT      3542     S        C        CA      -0.031624       12.0107           0
      3543 SHT      3543     S        C        CA      -0.031624       12.0107           0
      3544 SHT      3544     S        C        CA      -0.031624       12.0107           0
      3545 SHT      3545     S        C        CA      -0.031624       12.0107           0
      3546 SHT      3546     S        C        CA      -0.031624       12.0107           0
      3547 SHT      3547     S        C        CA      -0.031624       12.0107           0
      3548 SHT      3548     S        C        CA      -0.031624       12.0107           0
      3549 SHT      3549     S        C        CA      -0.031624       12.0107           0
      3550 SHT      3550     S        C        CA      -0.031624       12.0107           0
      3551 SHT      3551     S        C        CA      -0.031624       12.0107           0
      3552 SHT      3552     S        C        CA      -0.031624       12.0107           0
      3553 SHT      3553     S        C        CA      -0.031624       12.0107           0
      3554 SHT      3554     S        C        CA      -0.031624       12.0107           0
      3555 SHT      3555     S        C        CA      -0.031624       12.0107           0
      3556 SHT      3556     S        C        CA      -0.031624       12.0107           0
      3557 SHT      3557     S        C        CA      -0.031624       12.0107           0
      3558 SHT      3558     S        C        CA      -0.031624       12.0107           0
      3559 SHT      3559     S        C        CA      -0.031624       12.0107           0
      3560 SHT      3560     S        C        CA      -0.031624       12.0107           0
      3561 SHT      3561     S        C        CA      -0.031624       12.0107           0
      3562 SHT      3562     S        C        CA      -0.031624       12.0107           0
      3563 SHT      3563     S        C        CA      -0.031624       12.0107           0
      3564 SHT      3564     S        C        CA      -0.031624       12.0107           0
      3565 SHT      3565     S        C        CA      -0.031624       12.0107           0
      3566 SHT      3566     S        C        CA      -0.031624       12.0107           0
      3567 SHT      3567     S        C        CA      -0.031624       12.0107           0
      3568 SHT      3568     S        C        CA      -0.031624       12.0107           0
      3569 SHT      3569     S        C        CA      -0.031624       12.0107           0
      3570 SHT      3570     S        C        CA      -0.031624       12.0107           0
      3571 SHT      3571     S        C        CA      -0.031624       12.0107           0
      3572 SHT      3572     S        C        CA      -0.031624       12.0107           0
      3573 SHT      3573     S        C        CA      -0.031624       12.0107           0
      3574 SHT      3574     S        C        CA      -0.031624       12.0107           0
      3575 SHT      3575     S        C        CA      -0.031624       12.0107           0
      3576 SHT      3576     S        C        CA      -0.031624       12.0107           0
      3577 SHT      3577     S        C        CA      -0.031624       12.0107           0
      3578 SHT      3578     S        C        CA      -0.031624       12.0107           0
      3579 SHT      3579     S        C        CA      -0.031624       12.0107           0
      3580 SHT      3580     S        C        CA      -0.031624       12.0107           0
      3581 SHT      3581     S        C        CA      -0.031624       12.0107           0
      3582 SHT      3582     S        C        CA      -0.031624       12.0107           0
      3583 SHT      3583     S        C        CA      -0.031624       12.0107           0
      3584 SHT      3584     S        C        CA      -0.031624       12.0107           0
      3585 SHT      3585     S        C        CA      -0.031624       12.0107           0
      3586 SHT      3586     S        C        CA      -0.031624       12.0107           0
      3587 SHT      3587     S        C        CA      -0.031624       12.0107           0
      3588 SHT      3588     S        C        CA      -0.031624       12.0107           0
      3589 SHT      3589     S        C        CA      -0.031624       12.0107           0
      3590 SHT      3590     S        C        CA      -0.031624       12.0107           0
      3591 SHT      3591     S        C        CA      -0.031624       12.0107           0
      3592 SHT      3592     S        C        CA      -0.031624       12.0107           0
      3593 SHT      3593     S        C        CA      -0.031624       12.0107           0
      3594 SHT      3594     S        C        CA      -0.031624       12.0107           0
      3595 SHT      3595     S        C        CA      -0.031624       12.0107           0
      3596 SHT      3596     S        C        CA      -0.031624       12.0107           0
      3597 SHT      3597     S        C        CA      -0.031624       12.0107           0
      3598 SHT      3598     S        C        CA      -0.031624       12.0107           0
      3599 SHT      3599     S        C        CA      -0.031624       12.0107           0
      3600 SHT      3600     S        C        CA      -0.031624       12.0107           0
      3601 SHT      3601     S        C        CA      -0.031624       12.0107           0
      3602 SHT      3602     S        C        CA      -0.031624       12.0107           0
      3603 SHT      3603     S        C        CA      -0.031624       12.0107           0
      3604 SHT      3604     S        C        CA      -0.031624       12.0107           0
      3605 SHT      3605     S        C        CA      -0.031624       12.0107           0
      3606 SHT      3606     S        C        CA      -0.031624       12.0107           0
      3607 SHT      3607     S        C        CA      -0.031624       12.0107           0
      3608 SHT      3608     S        C        CA      -0.031624       12.0107           0
      3609 SHT      3609     S        C        CA      -0.031624       12.0107           0
      3610 SHT      3610     S        C        CA      -0.031624       12.0107           0
      3611 SHT      3611     S        C        CA      -0.031624       12.0107           0
      3612 SHT      3612     S        C        CA      -0.031624       12.0107           0
      3613 SHT      3613     S        C        CA      -0.031624       12.0107           0
      3614 SHT      3614     S        C        CA      -0.031624       12.0107           0
      3615 SHT      3615     S        C        CA      -0.031624       12.0107           0
      3616 SHT      3616     S        C        CA      -0.031624       12.0107           0
      3617 SHT      3617     S        C        CA      -0.031624       12.0107           0
      3618 SHT      3618     S        C        CA      -0.031624       12.0107           0
      3619 SHT      3619     S        C        CA      -0.031624       12.0107           0
      3620 SHT      3620     S        C        CA      -0.031624       12.0107           0
      3621 SHT      3621     S        C        CA      -0.031624       12.0107           0
      3622 SHT      3622     S        C        CA      -0.031624       12.0107           0
      3623 SHT      3623     S        C        CA      -0.031624       12.0107           0
      3624 SHT      3624     S        C        CA      -0.031624       12.0107           0
      3625 SHT      3625     S        C        CA      -0.031624       12.0107           0
      3626 SHT      3626     S        C        CA      -0.031624       12.0107           0
      3627 SHT      3627     S        C        CA      -0.031624       12.0107           0
      3628 SHT      3628     S        C        CA      -0.031624       12.0107           0
      3629 SHT      3629     S        C        CA      -0.031624       12.0107           0
      3630 SHT      3630     S        C        CA      -0.031624       12.0107           0
      3631 SHT      3631     S        C        CA      -0.031624       12.0107           0
      3632 SHT      3632     S        C        CA      -0.031624       12.0107           0
      3633 SHT      3633     S        C        CA      -0.031624       12.0107           0
      3634 SHT      3634     S        C        CA      -0.031624       12.0107           0
      3635 SHT      3635     S        C        CA      -0.031624       12.0107           0
      3636 SHT      3636     S        C        CA      -0.031624       12.0107           0
      3637 SHT      3637     S        C        CA      -0.031624       12.0107           0
      3638 SHT      3638     S        C        CA      -0.031624       12.0107           0
      3639 SHT      3639     S        C        CA      -0.031624       12.0107           0
      3640 SHT      3640     S        C        CA      -0.031624       12.0107           0
      3641 SHT      3641     S        C        CA      -0.031624       12.0107           0
      3642 SHT      3642     S        C        CA      -0.031624       12.0107           0
      3643 SHT      3643     S        C        CA      -0.031624       12.0107           0
      3644 SHT      3644     S        C        CA      -0.031624       12.0107           0
      3645 SHT      3645     S        C        CA      -0.031624       12.0107           0
      3646 SHT      3646     S        C        CA      -0.031624       12.0107           0
      3647 SHT      3647     S        C        CA      -0.031624       12.0107           0
      3648 SHT      3648     S        C        CA      -0.031624       12.0107           0
      3649 SHT      3649     S        C        CA      -0.031624       12.0107           0
      3650 SHT      3650     S        C        CA      -0.031624       12.0107           0
      3651 SHT      3651     S        C        CA      -0.031624       12.0107           0
      3652 SHT      3652     S        C        CA      -0.031624       12.0107           0
      3653 SHT      3653     S        C        CA      -0.031624       12.0107           0
      3654 SHT      3654     S        C        CA      -0.031624       12.0107           0
      3655 SHT      3655     S        C        CA      -0.031624       12.0107           0
      3656 SHT      3656     S        C        CA      -0.031624       12.0107           0
      3657 SHT      3657     S        C        CA      -0.031624       12.0107           0
      3658 SHT      3658     S        C        CA      -0.031624       12.0107           0
      3659 SHT      3659     S        C        CA      -0.031624       12.0107           0
      3660 SHT      3660     S        C        CA      -0.031624       12.0107           0
      3661 SHT      3661     S        C        CA      -0.031624       12.0107           0
      3662 SHT      3662     S        C        CA      -0.031624       12.0107           0
      3663 SHT      3663     S        C        CA      -0.031624       12.0107           0
      3664 SHT      3664     S        C        CA      -0.031624       12.0107           0
      3665 SHT      3665     S        C        CA      -0.031624       12.0107           0
      3666 SHT      3666     S        C        CA      -0.031624       12.0107           0
      3667 SHT      3667     S        C        CA      -0.031624       12.0107           0
      3668 SHT      3668     S        C        CA      -0.031624       12.0107           0
      3669 SHT      3669     S        C        CA      -0.031624       12.0107           0
      3670 SHT      3670     S        C        CA      -0.031624       12.0107           0
      3671 SHT      3671     S        C        CA      -0.031624       12.0107           0
      3672 SHT      3672     S        C        CA      -0.031624       12.0107           0
      3673 SHT      3673     S        C        CA      -0.031624       12.0107           0
      3674 SHT      3674     S        C        CA      -0.031624       12.0107           0
      3675 SHT      3675     S        C        CA      -0.031624       12.0107           0
      3676 SHT      3676     S        C        CA      -0.031624       12.0107           0
      3677 SHT      3677     S        C        CA      -0.031624       12.0107           0
      3678 SHT      3678     S        C        CA      -0.031624       12.0107           0
      3679 SHT      3679     S        C        CA      -0.031624       12.0107           0
      3680 SHT      3680     S        C        CA      -0.031624       12.0107           0
      3681 SHT      3681     S        C        CA      -0.031624       12.0107           0
      3682 SHT      3682     S        C        CA      -0.031624       12.0107           0
      3683 SHT      3683     S        C        CA      -0.031624       12.0107           0
      3684 SHT      3684     S        C        CA      -0.031624       12.0107           0
      3685 SHT      3685     S        C        CA      -0.031624       12.0107           0
      3686 SHT      3686     S        C        CA      -0.031624       12.0107           0
      3687 SHT      3687     S        C        CA      -0.031624       12.0107           0
      3688 SHT      3688     S        C        CA      -0.031624       12.0107           0
      3689 SHT      3689     S        C        CA      -0.031624       12.0107           0
      3690 SHT      3690     S        C        CA      -0.031624       12.0107           0
      3691 SHT      3691     S        C        CA      -0.031624       12.0107           0
      3692 SHT      3692     S        C        CA      -0.031624       12.0107           0
      3693 SHT      3693     S        C        CA      -0.031624       12.0107           0
      3694 SHT      3694     S        C        CA      -0.031624       12.0107           0
      3695 SHT      3695     S        C        CA      -0.031624       12.0107           0
      3696 SHT      3696     S        C        CA      -0.031624       12.0107           0
      3697 SHT      3697     S        C        CA      -0.031624       12.0107           0
      3698 SHT      3698     S        C        CA      -0.031624       12.0107           0
      3699 SHT      3699     S        C        CA      -0.031624       12.0107           0
      3700 SHT      3700     S        C        CA      -0.031624       12.0107           0
      3701 SHT      3701     S        C        CA      -0.031624       12.0107           0
      3702 SHT      3702     S        C        CA      -0.031624       12.0107           0
      3703 SHT      3703     S        C        CA      -0.031624       12.0107           0
      3704 SHT      3704     S        C        CA      -0.031624       12.0107           0
      3705 SHT      3705     S        C        CA      -0.031624       12.0107           0
      3706 SHT      3706     S        C        CA      -0.031624       12.0107           0
      3707 SHT      3707     S        C        CA      -0.031624       12.0107           0
      3708 SHT      3708     S        C        CA      -0.031624       12.0107           0
      3709 SHT      3709     S        C        CA      -0.031624       12.0107           0
      3710 SHT      3710     S        C        CA      -0.031624       12.0107           0
      3711 SHT      3711     S        C        CA      -0.031624       12.0107           0
      3712 SHT      3712     S        C        CA      -0.031624       12.0107           0
      3713 SHT      3713     S        C        CA      -0.031624       12.0107           0
      3714 SHT      3714     S        C        CA      -0.031624       12.0107           0
      3715 SHT      3715     S        C        CA      -0.031624       12.0107           0
      3716 SHT      3716     S        C        CA      -0.031624       12.0107           0
      3717 SHT      3717     S        C        CA      -0.031624       12.0107           0
      3718 SHT      3718     S        C        CA      -0.031624       12.0107           0
      3719 SHT      3719     S        C        CA      -0.031624       12.0107           0
      3720 SHT      3720     S        C        CA      -0.031624       12.0107           0
      3721 SHT      3721     S        C        CA      -0.031624       12.0107           0
      3722 SHT      3722     S        C        CA      -0.031624       12.0107           0
      3723 SHT      3723     S        C        CA      -0.031624       12.0107           0
      3724 SHT      3724     S        C        CA      -0.031624       12.0107           0
      3725 SHT      3725     S        C        CA      -0.031624       12.0107           0
      3726 SHT      3726     S        C        CA      -0.031624       12.0107           0
      3727 SHT      3727     S        C        CA      -0.031624       12.0107           0
      3728 SHT      3728     S        C        CA      -0.031624       12.0107           0
      3729 SHT      3729     S        C        CA      -0.031624       12.0107           0
      3730 SHT      3730     S        C        CA      -0.031624       12.0107           0
      3731 SHT      3731     S        C        CA      -0.031624       12.0107           0
      3732 SHT      3732     S        C        CA      -0.031624       12.0107           0
      3733 SHT      3733     S        C        CA      -0.031624       12.0107           0
      3734 SHT      3734     S        C        CA      -0.031624       12.0107           0
      3735 SHT      3735     S        C        CA      -0.031624       12.0107           0
      3736 SHT      3736     S        C        CA      -0.031624       12.0107           0
      3737 SHT      3737     S        C        CA      -0.031624       12.0107           0
      3738 SHT      3738     S        C        CA      -0.031624       12.0107           0
      3739 SHT      3739     S        C        CA      -0.031624       12.0107           0
      3740 SHT      3740     S        C        CA      -0.031624       12.0107           0
      3741 SHT      3741     S        C        CA      -0.031624       12.0107           0
      3742 SHT      3742     S        C        CA      -0.031624       12.0107           0
      3743 SHT      3743     S        C        CA      -0.031624       12.0107           0
      3744 SHT      3744     S        C        CA      -0.031624       12.0107           0
      3745 SHT      3745     S        C        CA      -0.031624       12.0107           0
      3746 SHT      3746     S        C        CA      -0.031624       12.0107           0
      3747 SHT      3747     S        C        CA      -0.031624       12.0107           0
      3748 SHT      3748     S        C        CA      -0.031624       12.0107           0
      3749 SHT      3749     S        C        CA      -0.031624       12.0107           0
      3750 SHT      3750     S        C        CA      -0.031624       12.0107           0
      3751 SHT      3751     S        C        CA      -0.031624       12.0107           0
      3752 SHT      3752     S        C        CA      -0.031624       12.0107           0
      3753 SHT      3753     S        C        CA      -0.031624       12.0107           0
      3754 SHT      3754     S        C        CA      -0.031624       12.0107           0
      3755 SHT      3755     S        C        CA      -0.031624       12.0107           0
      3756 SHT      3756     S        C        CA      -0.031624       12.0107           0
      3757 SHT      3757     S        C        CA      -0.031624       12.0107           0
      3758 SHT      3758     S        C        CA      -0.031624       12.0107           0
      3759 SHT      3759     S        C        CA      -0.031624       12.0107           0
      3760 SHT      3760     S        C        CA      -0.031624       12.0107           0
      3761 SHT      3761     S        C        CA      -0.031624       12.0107           0
      3762 SHT      3762     S        C        CA      -0.031624       12.0107           0
      3763 SHT      3763     S        C        CA      -0.031624       12.0107           0
      3764 SHT      3764     S        C        CA      -0.031624       12.0107           0
      3765 SHT      3765     S        C        CA      -0.031624       12.0107           0
      3766 SHT      3766     S        C        CA      -0.031624       12.0107           0
      3767 SHT      3767     S        C        CA      -0.031624       12.0107           0
      3768 SHT      3768     S        C        CA      -0.031624       12.0107           0
      3769 SHT      3769     S        C        CA      -0.031624       12.0107           0
      3770 SHT      3770     S        C        CA      -0.031624       12.0107           0
      3771 SHT      3771     S        C        CA      -0.031624       12.0107           0
      3772 SHT      3772     S        C        CA      -0.031624       12.0107           0
      3773 SHT      3773     S        C        CA      -0.031624       12.0107           0
      3774 SHT      3774     S        C        CA      -0.031624       12.0107           0
      3775 SHT      3775     S        C        CA      -0.031624       12.0107           0
      3776 SHT      3776     S        C        CA      -0.031624       12.0107           0
      3777 SHT      3777     S        C        CA      -0.031624       12.0107           0
      3778 SHT      3778     S        C        CA      -0.031624       12.0107           0
      3779 SHT      3779     S        C        CA      -0.031624       12.0107           0
      3780 SHT      3780     S        C        CA      -0.031624       12.0107           0
      3781 SHT      3781     S        C        CA      -0.031624       12.0107           0
      3782 SHT      3782     S        C        CA      -0.031624       12.0107           0
      3783 SHT      3783     S        C        CA      -0.031624       12.0107           0
      3784 SHT      3784     S        C        CA      -0.031624       12.0107           0
      3785 SHT      3785     S        C        CA      -0.031624       12.0107           0
      3786 SHT      3786     S        C        CA      -0.031624       12.0107           0
      3787 SHT      3787     S        C        CA      -0.031624       12.0107           0
      3788 SHT      3788     S        C        CA      -0.031624       12.0107           0
      3789 SHT      3789     S        C        CA      -0.031624       12.0107           0
      3790 SHT      3790     S        C        CA      -0.031624       12.0107           0
      3791 SHT      3791     S        C        CA      -0.031624       12.0107           0
      3792 SHT      3792     S        C        CA      -0.031624       12.0107           0
      3793 SHT      3793     S        C        CA      -0.031624       12.0107           0
      3794 SHT      3794     S        C        CA      -0.031624       12.0107           0
      3795 SHT      3795     S        C        CA      -0.031624       12.0107           0
      3796 SHT      3796     S        C        CA      -0.031624       12.0107           0
      3797 SHT      3797     S        C        CA      -0.031624       12.0107           0
      3798 SHT      3798     S        C        CA      -0.031624       12.0107           0
      3799 SHT      3799     S        C        CA      -0.031624       12.0107           0
      3800 SHT      3800     S        C        CA      -0.031624       12.0107           0
      3801 SHT      3801     S        C        CA      -0.031624       12.0107           0
      3802 SHT      3802     S        C        CA      -0.031624       12.0107           0
      3803 SHT      3803     S        C        CA      -0.031624       12.0107           0
      3804 SHT      3804     S        C        CA      -0.031624       12.0107           0
      3805 SHT      3805     S        C        CA      -0.031624       12.0107           0
      3806 SHT      3806     S        C        CA      -0.031624       12.0107           0
      3807 SHT      3807     S        C        CA      -0.031624       12.0107           0
      3808 SHT      3808     S        C        CA      -0.031624       12.0107           0
      3809 SHT      3809     S        C        CA      -0.031624       12.0107           0
      3810 SHT      3810     S        C        CA      -0.031624       12.0107           0
      3811 SHT      3811     S        C        CA      -0.031624       12.0107           0
      3812 SHT      3812     S        C        CA      -0.031624       12.0107           0
      3813 SHT      3813     S        C        CA      -0.031624       12.0107           0
      3814 SHT      3814     S        C        CA      -0.031624       12.0107           0
      3815 SHT      3815     S        C        CA      -0.031624       12.0107           0
      3816 SHT      3816     S        C        CA      -0.031624       12.0107           0
      3817 SHT      3817     S        C        CA      -0.031624       12.0107           0
      3818 SHT      3818     S        C        CA      -0.031624       12.0107           0
      3819 SHT      3819     S        C        CA      -0.031624       12.0107           0
      3820 SHT      3820     S        C        CA      -0.031624       12.0107           0
      3821 SHT      3821     S        C        CA      -0.031624       12.0107           0
      3822 SHT      3822     S        C        CA      -0.031624       12.0107           0
      3823 SHT      3823     S        C        CA      -0.031624       12.0107           0
      3824 SHT      3824     S        C        CA      -0.031624       12.0107           0
      3825 SHT      3825     S        C        CA      -0.031624       12.0107           0
      3826 SHT      3826     S        C        CA      -0.031624       12.0107           0
      3827 SHT      3827     S        C        CA      -0.031624       12.0107           0
      3828 SHT      3828     S        C        CA      -0.031624       12.0107           0
      3829 SHT      3829     S        C        CA      -0.031624       12.0107           0
      3830 SHT      3830     S        C        CA      -0.031624       12.0107           0
      3831 SHT      3831     S        C        CA      -0.031624       12.0107           0
      3832 SHT      3832     S        C        CA      -0.031624       12.0107           0
      3833 SHT      3833     S        C        CA      -0.031624       12.0107           0
      3834 SHT      3834     S        C        CA      -0.031624       12.0107           0
      3835 SHT      3835     S        C        CA      -0.031624       12.0107           0
      3836 SHT      3836     S        C        CA      -0.031624       12.0107           0
      3837 SHT      3837     S        C        CA      -0.031624       12.0107           0
      3838 SHT      3838     S        C        CA      -0.031624       12.0107           0
      3839 SHT      3839     S        C        CA      -0.031624       12.0107           0
      3840 SHT      3840     S        C        CA      -0.031624       12.0107           0
      3841 SHT      3841     S        C        CA      -0.031624       12.0107           0
      3842 SHT      3842     S        C        CA      -0.031624       12.0107           0
      3843 SHT      3843     S        C        CA      -0.031624       12.0107           0
      3844 SHT      3844     S        C        CA      -0.031624       12.0107           0
      3845 SHT      3845     S        C        CA      -0.031624       12.0107           0
      3846 SHT      3846     S        C        CA      -0.031624       12.0107           0
      3847 SHT      3847     S        C        CA      -0.031624       12.0107           0
      3848 SHT      3848     S        C        CA      -0.031624       12.0107           0
      3849 SHT      3849     S        C        CA      -0.031624       12.0107           0
      3850 SHT      3850     S        C        CA      -0.031624       12.0107           0
      3851 SHT      3851     S        C        CA      -0.031624       12.0107           0
      3852 SHT      3852     S        C        CA      -0.031624       12.0107           0
      3853 SHT      3853     S        C        CA      -0.031624       12.0107           0
      3854 SHT      3854     S        C        CA      -0.031624       12.0107           0
      3855 SHT      3855     S        C        CA      -0.031624       12.0107           0
      3856 SHT      3856     S        C        CA      -0.031624       12.0107           0
      3857 SHT      3857     S        C        CA      -0.031624       12.0107           0
      3858 SHT      3858     S        C        CA      -0.031624       12.0107           0
      3859 SHT      3859     S        C        CA      -0.031624       12.0107           0
      3860 SHT      3860     S        C        CA      -0.031624       12.0107           0
      3861 SHT      3861     S        C        CA      -0.031624       12.0107           0
      3862 SHT      3862     S        C        CA      -0.031624       12.0107           0
      3863 SHT      3863     S        C        CA      -0.031624       12.0107           0
      3864 SHT      3864     S        C        CA      -0.031624       12.0107           0
      3865 SHT      3865     S        C        CA      -0.031624       12.0107           0
      3866 SHT      3866     S        C        CA      -0.031624       12.0107           0
      3867 SHT      3867     S        C        CA      -0.031624       12.0107           0
      3868 SHT      3868     S        C        CA      -0.031624       12.0107           0
      3869 SHT      3869     S        C        CA      -0.031624       12.0107           0
      3870 SHT      3870     S        C        CA      -0.031624       12.0107           0
      3871 SHT      3871     S        C        CA      -0.031624       12.0107           0
      3872 SHT      3872     S        C        CA      -0.031624       12.0107           0
      3873 SHT      3873     S        C        CA      -0.031624       12.0107           0
      3874 SHT      3874     S        C        CA      -0.031624       12.0107           0
      3875 SHT      3875     S        C        CA      -0.031624       12.0107           0
      3876 SHT      3876     S        C        CA      -0.031624       12.0107           0
      3877 SHT      3877     S        C        CA      -0.031624       12.0107           0
      3878 SHT      3878     S        C        CA      -0.031624       12.0107           0
      3879 SHT      3879     S        C        CA      -0.031624       12.0107           0
      3880 SHT      3880     S        C        CA      -0.031624       12.0107           0
      3881 SHT      3881     S        C        CA      -0.031624       12.0107           0
      3882 SHT      3882     S        C        CA      -0.031624       12.0107           0
      3883 SHT      3883     S        C        CA      -0.031624       12.0107           0
      3884 SHT      3884     S        C        CA      -0.031624       12.0107           0
      3885 SHT      3885     S        C        CA      -0.031624       12.0107           0
      3886 SHT      3886     S        C        CA      -0.031624       12.0107           0
      3887 SHT      3887     S        C        CA      -0.031624       12.0107           0
      3888 SHT      3888     S        C        CA      -0.031624       12.0107           0
      3889 SHT      3889     S        C        CA      -0.031624       12.0107           0
      3890 SHT      3890     S        C        CA      -0.031624       12.0107           0
      3891 SHT      3891     S        C        CA      -0.031624       12.0107           0
      3892 SHT      3892     S        C        CA      -0.031624       12.0107           0
      3893 SHT      3893     S        C        CA      -0.031624       12.0107           0
      3894 SHT      3894     S        C        CA      -0.031624       12.0107           0
      3895 SHT      3895     S        C        CA      -0.031624       12.0107           0
      3896 SHT      3896     S        C        CA      -0.031624       12.0107           0
      3897 SHT      3897     S        C        CA      -0.031624       12.0107           0
      3898 SHT      3898     S        C        CA      -0.031624       12.0107           0
      3899 SHT      3899     S        C        CA      -0.031624       12.0107           0
      3900 SHT      3900     S        C        CA      -0.031624       12.0107           0
      3901 SHT      3901     S        C        CA      -0.031624       12.0107           0
      3902 SHT      3902     S        C        CA      -0.031624       12.0107           0
      3903 SHT      3903     S        C        CA      -0.031624       12.0107           0
      3904 SHT      3904     S        C        CA      -0.031624       12.0107           0
      3905 SHT      3905     S        C        CA      -0.031624       12.0107           0
      3906 SHT      3906     S        C        CA      -0.031624       12.0107           0
      3907 SHT      3907     S        C        CA      -0.031624       12.0107           0
      3908 SHT      3908     S        C        CA      -0.031624       12.0107           0
      3909 SHT      3909     S        C        CA      -0.031624       12.0107           0
      3910 SHT      3910     S        C        CA      -0.031624       12.0107           0
      3911 SHT      3911     S        C        CA      -0.031624       12.0107           0
      3912 SHT      3912     S        C        CA      -0.031624       12.0107           0
      3913 SHT      3913     S        C        CA      -0.031624       12.0107           0
      3914 SHT      3914     S        C        CA      -0.031624       12.0107           0
      3915 SHT      3915     S        C        CA      -0.031624       12.0107           0
      3916 SHT      3916     S        C        CA      -0.031624       12.0107           0
      3917 SHT      3917     S        C        CA      -0.031624       12.0107           0
      3918 SHT      3918     S        C        CA      -0.031624       12.0107           0
      3919 SHT      3919     S        C        CA      -0.031624       12.0107           0
      3920 SHT      3920     S        C        CA      -0.031624       12.0107           0
      3921 SHT      3921     S        C        CA      -0.031624       12.0107           0
      3922 SHT      3922     S        C        CA      -0.031624       12.0107           0
      3923 SHT      3923     S        C        CA      -0.031624       12.0107           0
      3924 SHT      3924     S        C        CA      -0.031624       12.0107           0
      3925 SHT      3925     S        C        CA      -0.031624       12.0107           0
      3926 SHT      3926     S        C        CA      -0.031624       12.0107           0
      3927 SHT      3927     S        C        CA      -0.031624       12.0107           0
      3928 SHT      3928     S        C        CA      -0.031624       12.0107           0
      3929 SHT      3929     S        C        CA      -0.031624       12.0107           0
      3930 SHT      3930     S        C        CA      -0.031624       12.0107           0
      3931 SHT      3931     S        C        CA      -0.031624       12.0107           0
      3932 SHT      3932     S        C        CA      -0.031624       12.0107           0
      3933 SHT      3933     S        C        CA      -0.031624       12.0107           0
      3934 SHT      3934     S        C        CA      -0.031624       12.0107           0
      3935 SHT      3935     S        C        CA      -0.031624       12.0107           0
      3936 SHT      3936     S        C        CA      -0.031624       12.0107           0
      3937 SHT      3937     S        C        CA      -0.031624       12.0107           0
      3938 SHT      3938     S        C        CA      -0.031624       12.0107           0
      3939 SHT      3939     S        C        CA      -0.031624       12.0107           0
      3940 SHT      3940     S        C        CA      -0.031624       12.0107           0
      3941 SHT      3941     S        C        CA      -0.031624       12.0107           0
      3942 SHT      3942     S        C        CA      -0.031624       12.0107           0
      3943 SHT      3943     S        C        CA      -0.031624       12.0107           0
      3944 SHT      3944     S        C        CA      -0.031624       12.0107           0
      3945 SHT      3945     S        C        CA      -0.031624       12.0107           0
      3946 SHT      3946     S        C        CA      -0.031624       12.0107           0
      3947 SHT      3947     S        C        CA      -0.031624       12.0107           0
      3948 SHT      3948     S        C        CA      -0.031624       12.0107           0
      3949 SHT      3949     S        C        CA      -0.031624       12.0107           0
      3950 SHT      3950     S        C        CA      -0.031624       12.0107           0
      3951 SHT      3951     S        C        CA      -0.031624       12.0107           0
      3952 SHT      3952     S        C        CA      -0.031624       12.0107           0
      3953 SHT      3953     S        C        CA      -0.031624       12.0107           0
      3954 SHT      3954     S        C        CA      -0.031624       12.0107           0
      3955 SHT      3955     S        C        CA      -0.031624       12.0107           0
      3956 SHT      3956     S        C        CA      -0.031624       12.0107           0
      3957 SHT      3957     S        C        CA      -0.031624       12.0107           0
      3958 SHT      3958     S        C        CA      -0.031624       12.0107           0
      3959 SHT      3959     S        C        CA      -0.031624       12.0107           0
      3960 SHT      3960     S        C        CA      -0.031624       12.0107           0
      3961 SHT      3961     S        C        CA      -0.031624       12.0107           0
      3962 SHT      3962     S        C        CA      -0.031624       12.0107           0
      3963 SHT      3963     S        C        CA      -0.031624       12.0107           0
      3964 SHT      3964     S        C        CA      -0.031624       12.0107           0
      3965 SHT      3965     S        C        CA      -0.031624       12.0107           0
      3966 SHT      3966     S        C        CA      -0.031624       12.0107           0
      3967 SHT      3967     S        C        CA      -0.031624       12.0107           0
      3968 SHT      3968     S        C        CA      -0.031624       12.0107           0
      3969 SHT      3969     S        C        CA      -0.031624       12.0107           0
      3970 SHT      3970     S        C        CA      -0.031624       12.0107           0
      3971 SHT      3971     S        C        CA      -0.031624       12.0107           0
      3972 SHT      3972     S        C        CA      -0.031624       12.0107           0
      3973 SHT      3973     S        C        CA      -0.031624       12.0107           0
      3974 SHT      3974     S        C        CA      -0.031624       12.0107           0
      3975 SHT      3975     S        C        CA      -0.031624       12.0107           0
      3976 SHT      3976     S        C        CA      -0.031624       12.0107           0
      3977 SHT      3977     S        C        CA      -0.031624       12.0107           0
      3978 SHT      3978     S        C        CA      -0.031624       12.0107           0
      3979 SHT      3979     S        C        CA      -0.031624       12.0107           0
      3980 SHT      3980     S        C        CA      -0.031624       12.0107           0
      3981 SHT      3981     S        C        CA      -0.031624       12.0107           0
      3982 SHT      3982     S        C        CA      -0.031624       12.0107           0
      3983 SHT      3983     S        C        CA      -0.031624       12.0107           0
      3984 SHT      3984     S        C        CA      -0.031624       12.0107           0
      3985 SHT      3985     S        C        CA      -0.031624       12.0107           0
      3986 SHT      3986     S        C        CA      -0.031624       12.0107           0
      3987 SHT      3987     S        C        CA      -0.031624       12.0107           0
      3988 SHT      3988     S        C        CA      -0.031624       12.0107           0
      3989 SHT      3989     S        C        CA      -0.031624       12.0107           0
      3990 SHT      3990     S        C        CA      -0.031624       12.0107           0
      3991 SHT      3991     S        C        CA      -0.031624       12.0107           0
      3992 SHT      3992     S        C        CA      -0.031624       12.0107           0
      3993 SHT      3993     S        C        CA      -0.031624       12.0107           0
      3994 SHT      3994     S        C        CA      -0.031624       12.0107           0
      3995 SHT      3995     S        C        CA      -0.031624       12.0107           0
      3996 SHT      3996     S        C        CA      -0.031624       12.0107           0
      3997 SHT      3997     S        C        CA      -0.031624       12.0107           0
      3998 SHT      3998     S        C        CA      -0.031624       12.0107           0
      3999 SHT      3999     S        C        CA      -0.031624       12.0107           0
      4000 SHT      4000     S        C        CA      -0.031624       12.0107           0
      4001 SHT      4001     S        C        CA      -0.031624       12.0107           0
      4002 SHT      4002     S        C        CA      -0.031624       12.0107           0
      4003 SHT      4003     S        C        CA      -0.031624       12.0107           0
      4004 SHT      4004     S        C        CA      -0.031624       12.0107           0
      4005 SHT      4005     S        C        CA      -0.031624       12.0107           0
      4006 SHT      4006     S        C        CA      -0.031624       12.0107           0
      4007 SHT      4007     S        C        CA      -0.031624       12.0107           0
      4008 SHT      4008     S        C        CA      -0.031624       12.0107           0
      4009 SHT      4009     S        C        CA      -0.031624       12.0107           0
      4010 SHT      4010     S        C        CA      -0.031624       12.0107           0
      4011 SHT      4011     S        C        CA      -0.031624       12.0107           0
      4012 SHT      4012     S        C        CA      -0.031624       12.0107           0
      4013 SHT      4013     S        C        CA      -0.031624       12.0107           0
      4014 SHT      4014     S        C        CA      -0.031624       12.0107           0
      4015 SHT      4015     S        C        CA      -0.031624       12.0107           0
      4016 SHT      4016     S        C        CA      -0.031624       12.0107           0
      4017 SHT      4017     S        C        CA      -0.031624       12.0107           0
      4018 SHT      4018     S        C        CA      -0.031624       12.0107           0
      4019 SHT      4019     S        C        CA      -0.031624       12.0107           0
      4020 SHT      4020     S        C        CA      -0.031624       12.0107           0
      4021 SHT      4021     S        C        CA      -0.031624       12.0107           0
      4022 SHT      4022     S        C        CA      -0.031624       12.0107           0
      4023 SHT      4023     S        C        CA      -0.031624       12.0107           0
      4024 SHT      4024     S        C        CA      -0.031624       12.0107           0
      4025 SHT      4025     S        C        CA      -0.031624       12.0107           0
      4026 SHT      4026     S        C        CA      -0.031624       12.0107           0
      4027 SHT      4027     S        C        CA      -0.031624       12.0107           0
      4028 SHT      4028     S        C        CA      -0.031624       12.0107           0
      4029 SHT      4029     S        C        CA      -0.031624       12.0107           0
      4030 SHT      4030     S        C        CA      -0.031624       12.0107           0
      4031 SHT      4031     S        C        CA      -0.031624       12.0107           0
      4032 SHT      4032     S        C        CA      -0.031624       12.0107           0
      4033 SHT      4033     S        C        CA      -0.031624       12.0107           0
      4034 SHT      4034     S        C        CA      -0.031624       12.0107           0
      4035 SHT      4035     S        C        CA      -0.031624       12.0107           0
      4036 SHT      4036     S        C        CA      -0.031624       12.0107           0
      4037 SHT      4037     S        C        CA      -0.031624       12.0107           0
      4038 SHT      4038     S        C        CA      -0.031624       12.0107           0
      4039 SHT      4039     S        C        CA      -0.031624       12.0107           0
      4040 SHT      4040     S        C        CA      -0.031624       12.0107           0
      4041 SHT      4041     S        C        CA      -0.031624       12.0107           0
      4042 SHT      4042     S        C        CA      -0.031624       12.0107           0
      4043 SHT      4043     S        C        CA      -0.031624       12.0107           0
      4044 SHT      4044     S        C        CA      -0.031624       12.0107           0
      4045 SHT      4045     S        C        CA      -0.031624       12.0107           0
      4046 SHT      4046     S        C        CA      -0.031624       12.0107           0
      4047 SHT      4047     S        C        CA      -0.031624       12.0107           0
      4048 SHT      4048     S        C        CA      -0.031624       12.0107           0
      4049 SHT      4049     S        C        CA      -0.031624       12.0107           0
      4050 SHT      4050     S        C        CA      -0.031624       12.0107           0
      4051 SHT      4051     S        C        CA      -0.031624       12.0107           0
      4052 SHT      4052     S        C        CA      -0.031624       12.0107           0
      4053 SHT      4053     S        C        CA      -0.031624       12.0107           0
      4054 SHT      4054     S        C        CA      -0.031624       12.0107           0
      4055 SHT      4055     S        C        CA      -0.031624       12.0107           0
      4056 SHT      4056     S        C        CA      -0.031624       12.0107           0
      4057 SHT      4057     S        C        CA      -0.031624       12.0107           0
      4058 SHT      4058     S        C        CA      -0.031624       12.0107           0
      4059 SHT      4059     S        C        CA      -0.031624       12.0107           0
      4060 SHT      4060     S        C        CA      -0.031624       12.0107           0
      4061 SHT      4061     S        C        CA      -0.031624       12.0107           0
      4062 SHT      4062     S        C        CA      -0.031624       12.0107           0
      4063 SHT      4063     S        C        CA      -0.031624       12.0107           0
      4064 SHT      4064     S        C        CA      -0.031624       12.0107           0
      4065 SHT      4065     S        C        CA      -0.031624       12.0107           0
      4066 SHT      4066     S        C        CA      -0.031624       12.0107           0
      4067 SHT      4067     S        C        CA      -0.031624       12.0107           0
      4068 SHT      4068     S        C        CA      -0.031624       12.0107           0
      4069 SHT      4069     S        C        CA      -0.031624       12.0107           0
      4070 SHT      4070     S        C        CA      -0.031624       12.0107           0
      4071 SHT      4071     S        C        CA      -0.031624       12.0107           0
      4072 SHT      4072     S        C        CA      -0.031624       12.0107           0
      4073 SHT      4073     S        C        CA      -0.031624       12.0107           0
      4074 SHT      4074     S        C        CA      -0.031624       12.0107           0
      4075 SHT      4075     S        C        CA      -0.031624       12.0107           0
      4076 SHT      4076     S        C        CA      -0.031624       12.0107           0
      4077 SHT      4077     S        C        CA      -0.031624       12.0107           0
      4078 SHT      4078     S        C        CA      -0.031624       12.0107           0
      4079 SHT      4079     S        C        CA      -0.031624       12.0107           0
      4080 SHT      4080     S        C        CA      -0.031624       12.0107           0
      4081 SHT      4081     S        C        CA      -0.031624       12.0107           0
      4082 SHT      4082     S        C        CA      -0.031624       12.0107           0
      4083 SHT      4083     S        C        CA      -0.031624       12.0107           0
      4084 SHT      4084     S        C        CA      -0.031624       12.0107           0
      4085 SHT      4085     S        C        CA      -0.031624       12.0107           0
      4086 SHT      4086     S        C        CA      -0.031624       12.0107           0
      4087 SHT      4087     S        C        CA      -0.031624       12.0107           0
      4088 SHT      4088     S        C        CA      -0.031624       12.0107           0
      4089 SHT      4089     S        C        CA      -0.031624       12.0107           0
      4090 SHT      4090     S        C        CA      -0.031624       12.0107           0
      4091 SHT      4091     S        C        CA      -0.031624       12.0107           0
      4092 SHT      4092     S        C        CA      -0.031624       12.0107           0
      4093 SHT      4093     S        C        CA      -0.031624       12.0107           0
      4094 SHT      4094     S        C        CA      -0.031624       12.0107           0
      4095 SHT      4095     S        C        CA      -0.031624       12.0107           0
      4096 SHT      4096     S        C        CA      -0.031624       12.0107           0
      4097 SHT      4097     S        C        CA      -0.031624       12.0107           0
      4098 SHT      4098     S        C        CA      -0.031624       12.0107           0
      4099 SHT      4099     S        C        CA      -0.031624       12.0107           0
      4100 SHT      4100     S        C        CA      -0.031624       12.0107           0
      4101 SHT      4101     S        C        CA      -0.031624       12.0107           0
      4102 SHT      4102     S        C        CA      -0.031624       12.0107           0
      4103 SHT      4103     S        C        CA      -0.031624       12.0107           0
      4104 SHT      4104     S        C        CA      -0.031624       12.0107           0
      4105 SHT      4105     S        C        CA      -0.031624       12.0107           0
      4106 SHT      4106     S        C        CA      -0.031624       12.0107           0
      4107 SHT      4107     S        C        CA      -0.031624       12.0107           0
      4108 SHT      4108     S        C        CA      -0.031624       12.0107           0
      4109 SHT      4109     S        C        CA      -0.031624       12.0107           0
      4110 SHT      4110     S        C        CA      -0.031624       12.0107           0
      4111 SHT      4111     S        C        CA      -0.031624       12.0107           0
      4112 SHT      4112     S        C        CA      -0.031624       12.0107           0
      4113 SHT      4113     S        C        CA      -0.031624       12.0107           0
      4114 SHT      4114     S        C        CA      -0.031624       12.0107           0
      4115 SHT      4115     S        C        CA      -0.031624       12.0107           0
      4116 SHT      4116     S        C        CA      -0.031624       12.0107           0
      4117 SHT      4117     S        C        CA      -0.031624       12.0107           0
      4118 SHT      4118     S        C        CA      -0.031624       12.0107           0
      4119 SHT      4119     S        C        CA      -0.031624       12.0107           0
      4120 SHT      4120     S        C        CA      -0.031624       12.0107           0
      4121 SHT      4121     S        C        CA      -0.031624       12.0107           0
      4122 SHT      4122     S        C        CA      -0.031624       12.0107           0
      4123 SHT      4123     S        C        CA      -0.031624       12.0107           0
      4124 SHT      4124     S        C        CA      -0.031624       12.0107           0
      4125 SHT      4125     S        C        CA      -0.031624       12.0107           0
      4126 SHT      4126     S        C        CA      -0.031624       12.0107           0
      4127 SHT      4127     S        C        CA      -0.031624       12.0107           0
      4128 SHT      4128     S        C        CA      -0.031624       12.0107           0
      4129 SHT      4129     S        C        CA      -0.031624       12.0107           0
      4130 SHT      4130     S        C        CA      -0.031624       12.0107           0
      4131 SHT      4131     S        C        CA      -0.031624       12.0107           0
      4132 SHT      4132     S        C        CA      -0.031624       12.0107           0
      4133 SHT      4133     S        C        CA      -0.031624       12.0107           0
      4134 SHT      4134     S        C        CA      -0.031624       12.0107           0
      4135 SHT      4135     S        C        CA      -0.031624       12.0107           0
      4136 SHT      4136     S        C        CA      -0.031624       12.0107           0
      4137 SHT      4137     S        C        CA      -0.031624       12.0107           0
      4138 SHT      4138     S        C        CA      -0.031624       12.0107           0
      4139 SHT      4139     S        C        CA      -0.031624       12.0107           0
      4140 SHT      4140     S        C        CA      -0.031624       12.0107           0
      4141 SHT      4141     S        C        CA      -0.031624       12.0107           0
      4142 SHT      4142     S        C        CA      -0.031624       12.0107           0
      4143 SHT      4143     S        C        CA      -0.031624       12.0107           0
      4144 SHT      4144     S        C        CA      -0.031624       12.0107           0
      4145 SHT      4145     S        C        CA      -0.031624       12.0107           0
      4146 SHT      4146     S        C        CA      -0.031624       12.0107           0
      4147 SHT      4147     S        C        CA      -0.031624       12.0107           0
      4148 SHT      4148     S        C        CA      -0.031624       12.0107           0
      4149 SHT      4149     S        C        CA      -0.031624       12.0107           0
      4150 SHT      4150     S        C        CA      -0.031624       12.0107           0
      4151 SHT      4151     S        C        CA      -0.031624       12.0107           0
      4152 SHT      4152     S        C        CA      -0.031624       12.0107           0
      4153 SHT      4153     S        C        CA      -0.031624       12.0107           0
      4154 SHT      4154     S        C        CA      -0.031624       12.0107           0
      4155 SHT      4155     S        C        CA      -0.031624       12.0107           0
      4156 SHT      4156     S        C        CA      -0.031624       12.0107           0
      4157 SHT      4157     S        C        CA      -0.031624       12.0107           0
      4158 SHT      4158     S        C        CA      -0.031624       12.0107           0
      4159 SHT      4159     S        C        CA      -0.031624       12.0107           0
      4160 SHT      4160     S        C        CA      -0.031624       12.0107           0
      4161 SHT      4161     S        C        CA      -0.031624       12.0107           0
      4162 SHT      4162     S        C        CA      -0.031624       12.0107           0
      4163 SHT      4163     S        C        CA      -0.031624       12.0107           0
      4164 SHT      4164     S        C        CA      -0.031624       12.0107           0
      4165 SHT      4165     S        C        CA      -0.031624       12.0107           0
      4166 SHT      4166     S        C        CA      -0.031624       12.0107           0
      4167 SHT      4167     S        C        CA      -0.031624       12.0107           0
      4168 SHT      4168     S        C        CA      -0.031624       12.0107           0
      4169 SHT      4169     S        C        CA      -0.031624       12.0107           0
      4170 SHT      4170     S        C        CA      -0.031624       12.0107           0
      4171 SHT      4171     S        C        CA      -0.031624       12.0107           0
      4172 SHT      4172     S        C        CA      -0.031624       12.0107           0
      4173 SHT      4173     S        C        CA      -0.031624       12.0107           0
      4174 SHT      4174     S        C        CA      -0.031624       12.0107           0
      4175 SHT      4175     S        C        CA      -0.031624       12.0107           0
      4176 SHT      4176     S        C        CA      -0.031624       12.0107           0
      4177 SHT      4177     S        C        CA      -0.031624       12.0107           0
      4178 SHT      4178     S        C        CA      -0.031624       12.0107           0
      4179 SHT      4179     S        C        CA      -0.031624       12.0107           0
      4180 SHT      4180     S        C        CA      -0.031624       12.0107           0
      4181 SHT      4181     S        C        CA      -0.031624       12.0107           0
      4182 SHT      4182     S        C        CA      -0.031624       12.0107           0
      4183 SHT      4183     S        C        CA      -0.031624       12.0107           0
      4184 SHT      4184     S        C        CA      -0.031624       12.0107           0
      4185 SHT      4185     S        C        CA      -0.031624       12.0107           0
      4186 SHT      4186     S        C        CA      -0.031624       12.0107           0
      4187 SHT      4187     S        C        CA      -0.031624       12.0107           0
      4188 SHT      4188     S        C        CA      -0.031624       12.0107           0
      4189 SHT      4189     S        C        CA      -0.031624       12.0107           0
      4190 SHT      4190     S        C        CA      -0.031624       12.0107           0
      4191 SHT      4191     S        C        CA      -0.031624       12.0107           0
      4192 SHT      4192     S        C        CA      -0.031624       12.0107           0
      4193 SHT      4193     S        C        CA      -0.031624       12.0107           0
      4194 SHT      4194     S        C        CA      -0.031624       12.0107           0
      4195 SHT      4195     S        C        CA      -0.031624       12.0107           0
      4196 SHT      4196     S        C        CA      -0.031624       12.0107           0
      4197 SHT      4197     S        C        CA      -0.031624       12.0107           0
      4198 SHT      4198     S        C        CA      -0.031624       12.0107           0
      4199 SHT      4199     S        C        CA      -0.031624       12.0107           0
      4200 SHT      4200     S        C        CA      -0.031624       12.0107           0
      4201 SHT      4201     S        C        CA      -0.031624       12.0107           0
      4202 SHT      4202     S        C        CA      -0.031624       12.0107           0
      4203 SHT      4203     S        C        CA      -0.031624       12.0107           0
      4204 SHT      4204     S        C        CA      -0.031624       12.0107           0
      4205 SHT      4205     S        C        CA      -0.031624       12.0107           0
      4206 SHT      4206     S        C        CA      -0.031624       12.0107           0
      4207 SHT      4207     S        C        CA      -0.031624       12.0107           0
      4208 SHT      4208     S        C        CA      -0.031624       12.0107           0
      4209 SHT      4209     S        C        CA      -0.031624       12.0107           0
      4210 SHT      4210     S        C        CA      -0.031624       12.0107           0
      4211 SHT      4211     S        C        CA      -0.031624       12.0107           0
      4212 SHT      4212     S        C        CA      -0.031624       12.0107           0
      4213 SHT      4213     S        C        CA      -0.031624       12.0107           0
      4214 SHT      4214     S        C        CA      -0.031624       12.0107           0
      4215 SHT      4215     S        C        CA      -0.031624       12.0107           0
      4216 SHT      4216     S        C        CA      -0.031624       12.0107           0
      4217 SHT      4217     S        C        CA      -0.031624       12.0107           0
      4218 SHT      4218     S        C        CA      -0.031624       12.0107           0
      4219 SHT      4219     S        C        CA      -0.031624       12.0107           0
      4220 SHT      4220     S        C        CA      -0.031624       12.0107           0
      4221 SHT      4221     S        C        CA      -0.031624       12.0107           0
      4222 SHT      4222     S        C        CA      -0.031624       12.0107           0
      4223 SHT      4223     S        C        CA      -0.031624       12.0107           0
      4224 SHT      4224     S        C        CA      -0.031624       12.0107           0
      4225 SHT      4225     S        C        CA      -0.031624       12.0107           0
      4226 SHT      4226     S        C        CA      -0.031624       12.0107           0
      4227 SHT      4227     S        C        CA      -0.031624       12.0107           0
      4228 SHT      4228     S        C        CA      -0.031624       12.0107           0
      4229 SHT      4229     S        C        CA      -0.031624       12.0107           0
      4230 SHT      4230     S        C        CA      -0.031624       12.0107           0
      4231 SHT      4231     S        C        CA      -0.031624       12.0107           0
      4232 SHT      4232     S        C        CA      -0.031624       12.0107           0
      4233 SHT      4233     S        C        CA      -0.031624       12.0107           0
      4234 SHT      4234     S        C        CA      -0.031624       12.0107           0
      4235 SHT      4235     S        C        CA      -0.031624       12.0107           0
      4236 SHT      4236     S        C        CA      -0.031624       12.0107           0
      4237 SHT      4237     S        C        CA      -0.031624       12.0107           0
      4238 SHT      4238     S        C        CA      -0.031624       12.0107           0
      4239 SHT      4239     S        C        CA      -0.031624       12.0107           0
      4240 SHT      4240     S        C        CA      -0.031624       12.0107           0
      4241 SHT      4241     S        C        CA      -0.031624       12.0107           0
      4242 SHT      4242     S        C        CA      -0.031624       12.0107           0
      4243 SHT      4243     S        C        CA      -0.031624       12.0107           0
      4244 SHT      4244     S        C        CA      -0.031624       12.0107           0
      4245 SHT      4245     S        C        CA      -0.031624       12.0107           0
      4246 SHT      4246     S        C        CA      -0.031624       12.0107           0
      4247 SHT      4247     S        C        CA      -0.031624       12.0107           0
      4248 SHT      4248     S        C        CA      -0.031624       12.0107           0
      4249 SHT      4249     S        C        CA      -0.031624       12.0107           0
      4250 SHT      4250     S        C        CA      -0.031624       12.0107           0
      4251 SHT      4251     S        C        CA      -0.031624       12.0107           0
      4252 SHT      4252     S        C        CA      -0.031624       12.0107           0
      4253 SHT      4253     S        C        CA      -0.031624       12.0107           0
      4254 SHT      4254     S        C        CA      -0.031624       12.0107           0
      4255 SHT      4255     S        C        CA      -0.031624       12.0107           0
      4256 SHT      4256     S        C        CA      -0.031624       12.0107           0
      4257 SHT      4257     S        C        CA      -0.031624       12.0107           0
      4258 SHT      4258     S        C        CA      -0.031624       12.0107           0
      4259 SHT      4259     S        C        CA      -0.031624       12.0107           0
      4260 SHT      4260     S        C        CA      -0.031624       12.0107           0
      4261 SHT      4261     S        C        CA      -0.031624       12.0107           0
      4262 SHT      4262     S        C        CA      -0.031624       12.0107           0
      4263 SHT      4263     S        C        CA      -0.031624       12.0107           0
      4264 SHT      4264     S        C        CA      -0.031624       12.0107           0
      4265 SHT      4265     S        C        CA      -0.031624       12.0107           0
      4266 SHT      4266     S        C        CA      -0.031624       12.0107           0
      4267 SHT      4267     S        C        CA      -0.031624       12.0107           0
      4268 SHT      4268     S        C        CA      -0.031624       12.0107           0
      4269 SHT      4269     S        C        CA      -0.031624       12.0107           0
      4270 SHT      4270     S        C        CA      -0.031624       12.0107           0
      4271 SHT      4271     S        C        CA      -0.031624       12.0107           0
      4272 SHT      4272     S        C        CA      -0.031624       12.0107           0
      4273 SHT      4273     S        C        CA      -0.031624       12.0107           0
      4274 SHT      4274     S        C        CA      -0.031624       12.0107           0
      4275 SHT      4275     S        C        CA      -0.031624       12.0107           0
      4276 SHT      4276     S        C        CA      -0.031624       12.0107           0
      4277 SHT      4277     S        C        CA      -0.031624       12.0107           0
      4278 SHT      4278     S        C        CA      -0.031624       12.0107           0
      4279 SHT      4279     S        C        CA      -0.031624       12.0107           0
      4280 SHT      4280     S        C        CA      -0.031624       12.0107           0
      4281 SHT      4281     S        C        CA      -0.031624       12.0107           0
      4282 SHT      4282     S        C        CA      -0.031624       12.0107           0
      4283 SHT      4283     S        C        CA      -0.031624       12.0107           0
      4284 SHT      4284     S        C        CA      -0.031624       12.0107           0
      4285 SHT      4285     S        C        CA      -0.031624       12.0107           0
      4286 SHT      4286     S        C        CA      -0.031624       12.0107           0
      4287 SHT      4287     S        C        CA      -0.031624       12.0107           0
      4288 SHT      4288     S        C        CA      -0.031624       12.0107           0
      4289 SHT      4289     S        C        CA      -0.031624       12.0107           0
      4290 SHT      4290     S        C        CA      -0.031624       12.0107           0
      4291 SHT      4291     S        C        CA      -0.031624       12.0107           0
      4292 SHT      4292     S        C        CA      -0.031624       12.0107           0
      4293 SHT      4293     S        C        CA      -0.031624       12.0107           0
      4294 SHT      4294     S        C        CA      -0.031624       12.0107           0
      4295 SHT      4295     S        C        CA      -0.031624       12.0107           0
      4296 SHT      4296     S        C        CA      -0.031624       12.0107           0
      4297 SHT      4297     S        C        CA      -0.031624       12.0107           0
      4298 SHT      4298     S        C        CA      -0.031624       12.0107           0
      4299 SHT      4299     S        C        CA      -0.031624       12.0107           0
      4300 SHT      4300     S        C        CA      -0.031624       12.0107           0
      4301 SHT      4301     S        C        CA      -0.031624       12.0107           0
      4302 SHT      4302     S        C        CA      -0.031624       12.0107           0
      4303 SHT      4303     S        C        CA      -0.031624       12.0107           0
      4304 SHT      4304     S        C        CA      -0.031624       12.0107           0
      4305 SHT      4305     S        C        CA      -0.031624       12.0107           0
      4306 SHT      4306     S        C        CA      -0.031624       12.0107           0
      4307 SHT      4307     S        C        CA      -0.031624       12.0107           0
      4308 SHT      4308     S        C        CA      -0.031624       12.0107           0
      4309 SHT      4309     S        C        CA      -0.031624       12.0107           0
      4310 SHT      4310     S        C        CA      -0.031624       12.0107           0
      4311 SHT      4311     S        C        CA      -0.031624       12.0107           0
      4312 SHT      4312     S        C        CA      -0.031624       12.0107           0
      4313 SHT      4313     S        C        CA      -0.031624       12.0107           0
      4314 SHT      4314     S        C        CA      -0.031624       12.0107           0
      4315 SHT      4315     S        C        CA      -0.031624       12.0107           0
      4316 SHT      4316     S        C        CA      -0.031624       12.0107           0
      4317 SHT      4317     S        C        CA      -0.031624       12.0107           0
      4318 SHT      4318     S        C        CA      -0.031624       12.0107           0
      4319 SHT      4319     S        C        CA      -0.031624       12.0107           0
      4320 SHT      4320     S        C        CA      -0.031624       12.0107           0
      4321 SHT      4321     S        C        CA      -0.031624       12.0107           0
      4322 SHT      4322     S        C        CA      -0.031624       12.0107           0
      4323 SHT      4323     S        C        CA      -0.031624       12.0107           0
      4324 SHT      4324     S        C        CA      -0.031624       12.0107           0
      4325 SHT      4325     S        C        CA      -0.031624       12.0107           0
      4326 SHT      4326     S        C        CA      -0.031624       12.0107           0
      4327 SHT      4327     S        C        CA      -0.031624       12.0107           0
      4328 SHT      4328     S        C        CA      -0.031624       12.0107           0
      4329 SHT      4329     S        C        CA      -0.031624       12.0107           0
      4330 SHT      4330     S        C        CA      -0.031624       12.0107           0
      4331 SHT      4331     S        C        CA      -0.031624       12.0107           0
      4332 SHT      4332     S        C        CA      -0.031624       12.0107           0
      4333 SHT      4333     S        C        CA      -0.031624       12.0107           0
      4334 SHT      4334     S        C        CA      -0.031624       12.0107           0
      4335 SHT      4335     S        C        CA      -0.031624       12.0107           0
      4336 SHT      4336     S        C        CA      -0.031624       12.0107           0
      4337 SHT      4337     S        C        CA      -0.031624       12.0107           0
      4338 SHT      4338     S        C        CA      -0.031624       12.0107           0
      4339 SHT      4339     S        C        CA      -0.031624       12.0107           0
      4340 SHT      4340     S        C        CA      -0.031624       12.0107           0
      4341 SHT      4341     S        C        CA      -0.031624       12.0107           0
      4342 SHT      4342     S        C        CA      -0.031624       12.0107           0
      4343 SHT      4343     S        C        CA      -0.031624       12.0107           0
      4344 SHT      4344     S        C        CA      -0.031624       12.0107           0
      4345 SHT      4345     S        C        CA      -0.031624       12.0107           0
      4346 SHT      4346     S        C        CA      -0.031624       12.0107           0
      4347 SHT      4347     S        C        CA      -0.031624       12.0107           0
      4348 SHT      4348     S        C        CA      -0.031624       12.0107           0
      4349 SHT      4349     S        C        CA      -0.031624       12.0107           0
      4350 SHT      4350     S        C        CA      -0.031624       12.0107           0
      4351 SHT      4351     S        C        CA      -0.031624       12.0107           0
      4352 SHT      4352     S        C        CA      -0.031624       12.0107           0
      4353 SHT      4353     S        C        CA      -0.031624       12.0107           0
      4354 SHT      4354     S        C        CA      -0.031624       12.0107           0
      4355 SHT      4355     S        C        CA      -0.031624       12.0107           0
      4356 SHT      4356     S        C        CA      -0.031624       12.0107           0
      4357 SHT      4357     S        C        CA      -0.031624       12.0107           0
      4358 SHT      4358     S        C        CA      -0.031624       12.0107           0
      4359 SHT      4359     S        C        CA      -0.031624       12.0107           0
      4360 SHT      4360     S        C        CA      -0.031624       12.0107           0
      4361 SHT      4361     S        C        CA      -0.031624       12.0107           0
      4362 SHT      4362     S        C        CA      -0.031624       12.0107           0
      4363 SHT      4363     S        C        CA      -0.031624       12.0107           0
      4364 SHT      4364     S        C        CA      -0.031624       12.0107           0
      4365 SHT      4365     S        C        CA      -0.031624       12.0107           0
      4366 SHT      4366     S        C        CA      -0.031624       12.0107           0
      4367 SHT      4367     S        C        CA      -0.031624       12.0107           0
      4368 SHT      4368     S        C        CA      -0.031624       12.0107           0
      4369 SHT      4369     S        C        CA      -0.031624       12.0107           0
      4370 SHT      4370     S        C        CA      -0.031624       12.0107           0
      4371 SHT      4371     S        C        CA      -0.031624       12.0107           0
      4372 SHT      4372     S        C        CA      -0.031624       12.0107           0
      4373 SHT      4373     S        C        CA      -0.031624       12.0107           0
      4374 SHT      4374     S        C        CA      -0.031624       12.0107           0
      4375 SHT      4375     S        C        CA      -0.031624       12.0107           0
      4376 SHT      4376     S        C        CA      -0.031624       12.0107           0
      4377 SHT      4377     S        C        CA      -0.031624       12.0107           0
      4378 SHT      4378     S        C        CA      -0.031624       12.0107           0
      4379 SHT      4379     S        C        CA      -0.031624       12.0107           0
      4380 SHT      4380     S        C        CA      -0.031624       12.0107           0
      4381 SHT      4381     S        C        CA      -0.031624       12.0107           0
      4382 SHT      4382     S        C        CA      -0.031624       12.0107           0
      4383 SHT      4383     S        C        CA      -0.031624       12.0107           0
      4384 SHT      4384     S        C        CA      -0.031624       12.0107           0
      4385 SHT      4385     S        C        CA      -0.031624       12.0107           0
      4386 SHT      4386     S        C        CA      -0.031624       12.0107           0
      4387 SHT      4387     S        C        CA      -0.031624       12.0107           0
      4388 SHT      4388     S        C        CA      -0.031624       12.0107           0
      4389 SHT      4389     S        C        CA      -0.031624       12.0107           0
      4390 SHT      4390     S        C        CA      -0.031624       12.0107           0
      4391 SHT      4391     S        C        CA      -0.031624       12.0107           0
      4392 SHT      4392     S        C        CA      -0.031624       12.0107           0
      4393 SHT      4393     S        C        CA      -0.031624       12.0107           0
      4394 SHT      4394     S        C        CA      -0.031624       12.0107           0
      4395 SHT      4395     S        C        CA      -0.031624       12.0107           0
      4396 SHT      4396     S        C        CA      -0.031624       12.0107           0
      4397 SHT      4397     S        C        CA      -0.031624       12.0107           0
      4398 SHT      4398     S        C        CA      -0.031624       12.0107           0
      4399 SHT      4399     S        C        CA      -0.031624       12.0107           0
      4400 SHT      4400     S        C        CA      -0.031624       12.0107           0
      4401 SHT      4401     S        C        CA      -0.031624       12.0107           0
      4402 SHT      4402     S        C        CA      -0.031624       12.0107           0
      4403 SHT      4403     S        C        CA      -0.031624       12.0107           0
      4404 SHT      4404     S        C        CA      -0.031624       12.0107           0
      4405 SHT      4405     S        C        CA      -0.031624       12.0107           0
      4406 SHT      4406     S        C        CA      -0.031624       12.0107           0
      4407 SHT      4407     S        C        CA      -0.031624       12.0107           0
      4408 SHT      4408     S        C        CA      -0.031624       12.0107           0
      4409 SHT      4409     S        C        CA      -0.031624       12.0107           0
      4410 SHT      4410     S        C        CA      -0.031624       12.0107           0
      4411 SHT      4411     S        C        CA      -0.031624       12.0107           0
      4412 SHT      4412     S        C        CA      -0.031624       12.0107           0
      4413 SHT      4413     S        C        CA      -0.031624       12.0107           0
      4414 SHT      4414     S        C        CA      -0.031624       12.0107           0
      4415 SHT      4415     S        C        CA      -0.031624       12.0107           0
      4416 SHT      4416     S        C        CA      -0.031624       12.0107           0
      4417 SHT      4417     S        C        CA      -0.031624       12.0107           0
      4418 SHT      4418     S        C        CA      -0.031624       12.0107           0
      4419 SHT      4419     S        C        CA      -0.031624       12.0107           0
      4420 SHT      4420     S        C        CA      -0.031624       12.0107           0
      4421 SHT      4421     S        C        CA      -0.031624       12.0107           0
      4422 SHT      4422     S        C        CA      -0.031624       12.0107           0
      4423 SHT      4423     S        C        CA      -0.031624       12.0107           0
      4424 SHT      4424     S        C        CA      -0.031624       12.0107           0
      4425 SHT      4425     S        C        CA      -0.031624       12.0107           0
      4426 SHT      4426     S        C        CA      -0.031624       12.0107           0
      4427 SHT      4427     S        C        CA      -0.031624       12.0107           0
      4428 SHT      4428     S        C        CA      -0.031624       12.0107           0
      4429 SHT      4429     S        C        CA      -0.031624       12.0107           0
      4430 SHT      4430     S        C        CA      -0.031624       12.0107           0
      4431 SHT      4431     S        C        CA      -0.031624       12.0107           0
      4432 SHT      4432     S        C        CA      -0.031624       12.0107           0
      4433 SHT      4433     S        C        CA      -0.031624       12.0107           0
      4434 SHT      4434     S        C        CA      -0.031624       12.0107           0
      4435 SHT      4435     S        C        CA      -0.031624       12.0107           0
      4436 SHT      4436     S        C        CA      -0.031624       12.0107           0
      4437 SHT      4437     S        C        CA      -0.031624       12.0107           0
      4438 SHT      4438     S        C        CA      -0.031624       12.0107           0
      4439 SHT      4439     S        C        CA      -0.031624       12.0107           0
      4440 SHT      4440     S        C        CA      -0.031624       12.0107           0
      4441 SHT      4441     S        C        CA      -0.031624       12.0107           0
      4442 SHT      4442     S        C        CA      -0.031624       12.0107           0
      4443 SHT      4443     S        C        CA      -0.031624       12.0107           0
      4444 SHT      4444     S        C        CA      -0.031624       12.0107           0
      4445 SHT      4445     S        C        CA      -0.031624       12.0107           0
      4446 SHT      4446     S        C        CA      -0.031624       12.0107           0
      4447 SHT      4447     S        C        CA      -0.031624       12.0107           0
      4448 SHT      4448     S        C        CA      -0.031624       12.0107           0
      4449 SHT      4449     S        C        CA      -0.031624       12.0107           0
      4450 SHT      4450     S        C        CA      -0.031624       12.0107           0
      4451 SHT      4451     S        C        CA      -0.031624       12.0107           0
      4452 SHT      4452     S        C        CA      -0.031624       12.0107           0
      4453 SHT      4453     S        C        CA      -0.031624       12.0107           0
      4454 SHT      4454     S        C        CA      -0.031624       12.0107           0
      4455 SHT      4455     S        C        CA      -0.031624       12.0107           0
      4456 SHT      4456     S        C        CA      -0.031624       12.0107           0
      4457 SHT      4457     S        C        CA      -0.031624       12.0107           0
      4458 SHT      4458     S        C        CA      -0.031624       12.0107           0
      4459 SHT      4459     S        C        CA      -0.031624       12.0107           0
      4460 SHT      4460     S        C        CA      -0.031624       12.0107           0
      4461 SHT      4461     S        C        CA      -0.031624       12.0107           0
      4462 SHT      4462     S        C        CA      -0.031624       12.0107           0
      4463 SHT      4463     S        C        CA      -0.031624       12.0107           0
      4464 SHT      4464     S        C        CA      -0.031624       12.0107           0
      4465 SHT      4465     S        C        CA      -0.031624       12.0107           0
      4466 SHT      4466     S        C        CA      -0.031624       12.0107           0
      4467 SHT      4467     S        C        CA      -0.031624       12.0107           0
      4468 SHT      4468     S        C        CA      -0.031624       12.0107           0
      4469 SHT      4469     S        C        CA      -0.031624       12.0107           0
      4470 SHT      4470     S        C        CA      -0.031624       12.0107           0
      4471 SHT      4471     S        C        CA      -0.031624       12.0107           0
      4472 SHT      4472     S        C        CA      -0.031624       12.0107           0
      4473 SHT      4473     S        C        CA      -0.031624       12.0107           0
      4474 SHT      4474     S        C        CA      -0.031624       12.0107           0
      4475 SHT      4475     S        C        CA      -0.031624       12.0107           0
      4476 SHT      4476     S        C        CA      -0.031624       12.0107           0
      4477 SHT      4477     S        C        CA      -0.031624       12.0107           0
      4478 SHT      4478     S        C        CA      -0.031624       12.0107           0
      4479 SHT      4479     S        C        CA      -0.031624       12.0107           0
      4480 SHT      4480     S        C        CA      -0.031624       12.0107           0
      4481 SHT      4481     S        C        CA      -0.031624       12.0107           0
      4482 SHT      4482     S        C        CA      -0.031624       12.0107           0
      4483 SHT      4483     S        C        CA      -0.031624       12.0107           0
      4484 SHT      4484     S        C        CA      -0.031624       12.0107           0
      4485 SHT      4485     S        C        CA      -0.031624       12.0107           0
      4486 SHT      4486     S        C        CA      -0.031624       12.0107           0
      4487 SHT      4487     S        C        CA      -0.031624       12.0107           0
      4488 SHT      4488     S        C        CA      -0.031624       12.0107           0
      4489 SHT      4489     S        C        CA      -0.031624       12.0107           0
      4490 SHT      4490     S        C        CA      -0.031624       12.0107           0
      4491 SHT      4491     S        C        CA      -0.031624       12.0107           0
      4492 SHT      4492     S        C        CA      -0.031624       12.0107           0
      4493 SHT      4493     S        C        CA      -0.031624       12.0107           0
      4494 SHT      4494     S        C        CA      -0.031624       12.0107           0
      4495 SHT      4495     S        C        CA      -0.031624       12.0107           0
      4496 SHT      4496     S        C        CA      -0.031624       12.0107           0
      4497 SHT      4497     S        C        CA      -0.031624       12.0107           0
      4498 SHT      4498     S        C        CA      -0.031624       12.0107           0
      4499 SHT      4499     S        C        CA      -0.031624       12.0107           0
      4500 SHT      4500     S        C        CA      -0.031624       12.0107           0
      4501 SHT      4501     S        C        CA      -0.031624       12.0107           0
      4502 SHT      4502     S        C        CA      -0.031624       12.0107           0
      4503 SHT      4503     S        C        CA      -0.031624       12.0107           0
      4504 SHT      4504     S        C        CA      -0.031624       12.0107           0
      4505 SHT      4505     S        C        CA      -0.031624       12.0107           0
      4506 SHT      4506     S        C        CA      -0.031624       12.0107           0
      4507 SHT      4507     S        C        CA      -0.031624       12.0107           0
      4508 SHT      4508     S        C        CA      -0.031624       12.0107           0
      4509 SHT      4509     S        C        CA      -0.031624       12.0107           0
      4510 SHT      4510     S        C        CA      -0.031624       12.0107           0
      4511 SHT      4511     S        C        CA      -0.031624       12.0107           0
      4512 SHT      4512     S        C        CA      -0.031624       12.0107           0
      4513 SHT      4513     S        C        CA      -0.031624       12.0107           0
      4514 SHT      4514     S        C        CA      -0.031624       12.0107           0
      4515 SHT      4515     S        C        CA      -0.031624       12.0107           0
      4516 SHT      4516     S        C        CA      -0.031624       12.0107           0
      4517 SHT      4517     S        C        CA      -0.031624       12.0107           0
      4518 SHT      4518     S        C        CA      -0.031624       12.0107           0
      4519 SHT      4519     S        C        CA      -0.031624       12.0107           0
      4520 SHT      4520     S        C        CA      -0.031624       12.0107           0
      4521 SHT      4521     S        C        CA      -0.031624       12.0107           0
      4522 SHT      4522     S        C        CA      -0.031624       12.0107           0
      4523 SHT      4523     S        C        CA      -0.031624       12.0107           0
      4524 SHT      4524     S        C        CA      -0.031624       12.0107           0
      4525 SHT      4525     S        C        CA      -0.031624       12.0107           0
      4526 SHT      4526     S        C        CA      -0.031624       12.0107           0
      4527 SHT      4527     S        C        CA      -0.031624       12.0107           0
      4528 SHT      4528     S        C        CA      -0.031624       12.0107           0
      4529 SHT      4529     S        C        CA      -0.031624       12.0107           0
      4530 SHT      4530     S        C        CA      -0.031624       12.0107           0
      4531 SHT      4531     S        C        CA      -0.031624       12.0107           0
      4532 SHT      4532     S        C        CA      -0.031624       12.0107           0
      4533 SHT      4533     S        C        CA      -0.031624       12.0107           0
      4534 SHT      4534     S        C        CA      -0.031624       12.0107           0
      4535 SHT      4535     S        C        CA      -0.031624       12.0107           0
      4536 SHT      4536     S        C        CA      -0.031624       12.0107           0
      4537 SHT      4537     S        C        CA      -0.031624       12.0107           0
      4538 SHT      4538     S        C        CA      -0.031624       12.0107           0
      4539 SHT      4539     S        C        CA      -0.031624       12.0107           0
      4540 SHT      4540     S        C        CA      -0.031624       12.0107           0
      4541 SHT      4541     S        C        CA      -0.031624       12.0107           0
      4542 SHT      4542     S        C        CA      -0.031624       12.0107           0
      4543 SHT      4543     S        C        CA      -0.031624       12.0107           0
      4544 SHT      4544     S        C        CA      -0.031624       12.0107           0
      4545 SHT      4545     S        C        CA      -0.031624       12.0107           0
      4546 SHT      4546     S        C        CA      -0.031624       12.0107           0
      4547 SHT      4547     S        C        CA      -0.031624       12.0107           0
      4548 SHT      4548     S        C        CA      -0.031624       12.0107           0
      4549 SHT      4549     S        C        CA      -0.031624       12.0107           0
      4550 SHT      4550     S        C        CA      -0.031624       12.0107           0
      4551 SHT      4551     S        C        CA      -0.031624       12.0107           0
      4552 SHT      4552     S        C        CA      -0.031624       12.0107           0
      4553 SHT      4553     S        C        CA      -0.031624       12.0107           0
      4554 SHT      4554     S        C        CA      -0.031624       12.0107           0
      4555 SHT      4555     S        C        CA      -0.031624       12.0107           0
      4556 SHT      4556     S        C        CA      -0.031624       12.0107           0
      4557 SHT      4557     S        C        CA      -0.031624       12.0107           0
      4558 SHT      4558     S        C        CA      -0.031624       12.0107           0
      4559 SHT      4559     S        C        CA      -0.031624       12.0107           0
      4560 SHT      4560     S        C        CA      -0.031624       12.0107           0
      4561 SHT      4561     S        C        CA      -0.031624       12.0107           0
      4562 SHT      4562     S        C        CA      -0.031624       12.0107           0
      4563 SHT      4563     S        C        CA      -0.031624       12.0107           0
      4564 SHT      4564     S        C        CA      -0.031624       12.0107           0
      4565 SHT      4565     S        C        CA      -0.031624       12.0107           0
      4566 SHT      4566     S        C        CA      -0.031624       12.0107           0
      4567 SHT      4567     S        C        CA      -0.031624       12.0107           0
      4568 SHT      4568     S        C        CA      -0.031624       12.0107           0
      4569 SHT      4569     S        C        CA      -0.031624       12.0107           0
      4570 SHT      4570     S        C        CA      -0.031624       12.0107           0
      4571 SHT      4571     S        C        CA      -0.031624       12.0107           0
      4572 SHT      4572     S        C        CA      -0.031624       12.0107           0
      4573 SHT      4573     S        C        CA      -0.031624       12.0107           0
      4574 SHT      4574     S        C        CA      -0.031624       12.0107           0
      4575 SHT      4575     S        C        CA      -0.031624       12.0107           0
      4576 SHT      4576     S        C        CA      -0.031624       12.0107           0
      4577 SHT      4577     S        C        CA      -0.031624       12.0107           0
      4578 SHT      4578     S        C        CA      -0.031624       12.0107           0
      4579 SHT      4579     S        C        CA      -0.031624       12.0107           0
      4580 SHT      4580     S        C        CA      -0.031624       12.0107           0
      4581 SHT      4581     S        C        CA      -0.031624       12.0107           0
      4582 SHT      4582     S        C        CA      -0.031624       12.0107           0
      4583 SHT      4583     S        C        CA      -0.031624       12.0107           0
      4584 SHT      4584     S        C        CA      -0.031624       12.0107           0
      4585 SHT      4585     S        C        CA      -0.031624       12.0107           0
      4586 SHT      4586     S        C        CA      -0.031624       12.0107           0
      4587 SHT      4587     S        C        CA      -0.031624       12.0107           0
      4588 SHT      4588     S        C        CA      -0.031624       12.0107           0
      4589 SHT      4589     S        C        CA      -0.031624       12.0107           0
      4590 SHT      4590     S        C        CA      -0.031624       12.0107           0
      4591 SHT      4591     S        C        CA      -0.031624       12.0107           0
      4592 SHT      4592     S        C        CA      -0.031624       12.0107           0
      4593 SHT      4593     S        C        CA      -0.031624       12.0107           0
      4594 SHT      4594     S        C        CA      -0.031624       12.0107           0
      4595 SHT      4595     S        C        CA      -0.031624       12.0107           0
      4596 SHT      4596     S        C        CA      -0.031624       12.0107           0
      4597 SHT      4597     S        C        CA      -0.031624       12.0107           0
      4598 SHT      4598     S        C        CA      -0.031624       12.0107           0
      4599 SHT      4599     S        C        CA      -0.031624       12.0107           0
      4600 SHT      4600     S        C        CA      -0.031624       12.0107           0
      4601 SHT      4601     S        C        CA      -0.031624       12.0107           0
      4602 SHT      4602     S        C        CA      -0.031624       12.0107           0
      4603 SHT      4603     S        C        CA      -0.031624       12.0107           0
      4604 SHT      4604     S        C        CA      -0.031624       12.0107           0
      4605 SHT      4605     S        C        CA      -0.031624       12.0107           0
      4606 SHT      4606     S        C        CA      -0.031624       12.0107           0
      4607 SHT      4607     S        C        CA      -0.031624       12.0107           0
      4608 SHT      4608     S        C        CA      -0.031624       12.0107           0
      4609 SHT      4609     S        C        CA      -0.031624       12.0107           0
      4610 SHT      4610     S        C        CA      -0.031624       12.0107           0
      4611 SHT      4611     S        C        CA      -0.031624       12.0107           0
      4612 SHT      4612     S        C        CA      -0.031624       12.0107           0
      4613 SHT      4613     S        C        CA      -0.031624       12.0107           0
      4614 SHT      4614     S        C        CA      -0.031624       12.0107           0
      4615 SHT      4615     S        C        CA      -0.031624       12.0107           0
      4616 SHT      4616     S        C        CA      -0.031624       12.0107           0
      4617 SHT      4617     S        C        CA      -0.031624       12.0107           0
      4618 SHT      4618     S        C        CA      -0.031624       12.0107           0
      4619 SHT      4619     S        C        CA      -0.031624       12.0107           0
      4620 SHT      4620     S        C        CA      -0.031624       12.0107           0
      4621 SHT      4621     S        C        CA      -0.031624       12.0107           0
      4622 SHT      4622     S        C        CA      -0.031624       12.0107           0
      4623 SHT      4623     S        C        CA      -0.031624       12.0107           0
      4624 SHT      4624     S        C        CA      -0.031624       12.0107           0
      4625 SHT      4625     S        C        CA      -0.031624       12.0107           0
      4626 SHT      4626     S        C        CA      -0.031624       12.0107           0
      4627 SHT      4627     S        C        CA      -0.031624       12.0107           0
      4628 SHT      4628     S        C        CA      -0.031624       12.0107           0
      4629 SHT      4629     S        C        CA      -0.031624       12.0107           0
      4630 SHT      4630     S        C        CA      -0.031624       12.0107           0
      4631 SHT      4631     S        C        CA      -0.031624       12.0107           0
      4632 SHT      4632     S        C        CA      -0.031624       12.0107           0
      4633 SHT      4633     S        C        CA      -0.031624       12.0107           0
      4634 SHT      4634     S        C        CA      -0.031624       12.0107           0
      4635 SHT      4635     S        C        CA      -0.031624       12.0107           0
      4636 SHT      4636     S        C        CA      -0.031624       12.0107           0
      4637 SHT      4637     S        C        CA      -0.031624       12.0107           0
      4638 SHT      4638     S        C        CA      -0.031624       12.0107           0
      4639 SHT      4639     S        C        CA      -0.031624       12.0107           0
      4640 SHT      4640     S        C        CA      -0.031624       12.0107           0
      4641 SHT      4641     S        C        CA      -0.031624       12.0107           0
      4642 SHT      4642     S        C        CA      -0.031624       12.0107           0
      4643 SHT      4643     S        C        CA      -0.031624       12.0107           0
      4644 SHT      4644     S        C        CA      -0.031624       12.0107           0
      4645 SHT      4645     S        C        CA      -0.031624       12.0107           0
      4646 SHT      4646     S        C        CA      -0.031624       12.0107           0
      4647 SHT      4647     S        C        CA      -0.031624       12.0107           0
      4648 SHT      4648     S        C        CA      -0.031624       12.0107           0
      4649 SHT      4649     S        C        CA      -0.031624       12.0107           0
      4650 SHT      4650     S        C        CA      -0.031624       12.0107           0
      4651 SHT      4651     S        C        CA      -0.031624       12.0107           0
      4652 SHT      4652     S        C        CA      -0.031624       12.0107           0
      4653 SHT      4653     S        C        CA      -0.031624       12.0107           0
      4654 SHT      4654     S        C        CA      -0.031624       12.0107           0
      4655 SHT      4655     S        C        CA      -0.031624       12.0107           0
      4656 SHT      4656     S        C        CA      -0.031624       12.0107           0
      4657 SHT      4657     S        C        CA      -0.031624       12.0107           0
      4658 SHT      4658     S        C        CA      -0.031624       12.0107           0
      4659 SHT      4659     S        C        CA      -0.031624       12.0107           0
      4660 SHT      4660     S        C        CA      -0.031624       12.0107           0
      4661 SHT      4661     S        C        CA      -0.031624       12.0107           0
      4662 SHT      4662     S        C        CA      -0.031624       12.0107           0
      4663 SHT      4663     S        C        CA      -0.031624       12.0107           0
      4664 SHT      4664     S        C        CA      -0.031624       12.0107           0
      4665 SHT      4665     S        C        CA      -0.031624       12.0107           0
      4666 SHT      4666     S        C        CA      -0.031624       12.0107           0
      4667 SHT      4667     S        C        CA      -0.031624       12.0107           0
      4668 SHT      4668     S        C        CA      -0.031624       12.0107           0
      4669 SHT      4669     S        C        CA      -0.031624       12.0107           0
      4670 SHT      4670     S        C        CA      -0.031624       12.0107           0
      4671 SHT      4671     S        C        CA      -0.031624       12.0107           0
      4672 SHT      4672     S        C        CA      -0.031624       12.0107           0
      4673 SHT      4673     S        C        CA      -0.031624       12.0107           0
      4674 SHT      4674     S        C        CA      -0.031624       12.0107           0
      4675 SHT      4675     S        C        CA      -0.031624       12.0107           0
      4676 SHT      4676     S        C        CA      -0.031624       12.0107           0
      4677 SHT      4677     S        C        CA      -0.031624       12.0107           0
      4678 SHT      4678     S        C        CA      -0.031624       12.0107           0
      4679 SHT      4679     S        C        CA      -0.031624       12.0107           0
      4680 SHT      4680     S        C        CA      -0.031624       12.0107           0
      4681 ION      1        SOD      SOD      SOD      1.000000       22.9898           0
      4682 ION      2        SOD      SOD      SOD      1.000000       22.9898           0
      4683 ION      3        SOD      SOD      SOD      1.000000       22.9898           0
      4684 ION      4        SOD      SOD      SOD      1.000000       22.9898           0
      4685 ION      5        SOD      SOD      SOD      1.000000       22.9898           0
      4686 ION      6        SOD      SOD      SOD      1.000000       22.9898           0
      4687 ION      7        SOD      SOD      SOD      1.000000       22.9898           0
      4688 ION      8        SOD      SOD      SOD      1.000000       22.9898           0
      4689 ION      9        SOD      SOD      SOD      1.000000       22.9898           0
      4690 ION      10       SOD      SOD      SOD      1.000000       22.9898           0
      4691 ION      11       SOD      SOD      SOD      1.000000       22.9898           0
      4692 ION      12       SOD      SOD      SOD      1.000000       22.9898           0
      4693 ION      13       SOD      SOD      SOD      1.000000       22.9898           0
      4694 ION      14       SOD      SOD      SOD      1.000000       22.9898           0
      4695 ION      15       SOD      SOD      SOD      1.000000       22.9898           0
      4696 ION      16       SOD      SOD      SOD      1.000000       22.9898           0
      4697 ION      17       SOD      SOD      SOD      1.000000       22.9898           0
      4698 ION      18       SOD      SOD      SOD      1.000000       22.9898           0
      4699 ION      19       SOD      SOD      SOD      1.000000       22.9898           0
      4700 ION      20       SOD      SOD      SOD      1.000000       22.9898           0
      4701 ION      21       SOD      SOD      SOD      1.000000       22.9898           0
      4702 ION      22       SOD      SOD      SOD      1.000000       22.9898           0
      4703 ION      23       SOD      SOD      SOD      1.000000       22.9898           0
      4704 ION      24       SOD      SOD      SOD      1.000000       22.9898           0
      4705 ION      25       SOD      SOD      SOD      1.000000       22.9898           0
      4706 ION      26       SOD      SOD      SOD      1.000000       22.9898           0
      4707 ION      27       SOD      SOD      SOD      1.000000       22.9898           0
      4708 ION      28       SOD      SOD      SOD      1.000000       22.9898           0
      4709 ION      29       SOD      SOD      SOD      1.000000       22.9898           0
      4710 ION      30       SOD      SOD      SOD      1.000000       22.9898           0
      4711 ION      31       SOD      SOD      SOD      1.000000       22.9898           0
      4712 ION      32       SOD      SOD      SOD      1.000000       22.9898           0
      4713 ION      33       SOD      SOD      SOD      1.000000       22.9898           0
      4714 ION      34       SOD      SOD      SOD      1.000000       22.9898           0
      4715 ION      35       SOD      SOD      SOD      1.000000       22.9898           0
      4716 ION      36       SOD      SOD      SOD      1.000000       22.9898           0
      4717 ION      37       SOD      SOD      SOD      1.000000       22.9898           0
      4718 ION      38       SOD      SOD      SOD      1.000000       22.9898           0
      4719 ION      39       SOD      SOD      SOD      1.000000       22.9898           0
      4720 ION      40       SOD      SOD      SOD      1.000000       22.9898           0
      4721 ION      41       SOD      SOD      SOD      1.000000       22.9898           0
      4722 ION      42       SOD      SOD      SOD      1.000000       22.9898           0
      4723 ION      43       SOD      SOD      SOD      1.000000       22.9898           0
      4724 ION      44       SOD      SOD      SOD      1.000000       22.9898           0
      4725 ION      45       SOD      SOD      SOD      1.000000       22.9898           0
      4726 ION      46       SOD      SOD      SOD      1.000000       22.9898           0
      4727 ION      47       SOD      SOD      SOD      1.000000       22.9898           0
      4728 ION      48       SOD      SOD      SOD      1.000000       22.9898           0
      4729 ION      49       SOD      SOD      SOD      1.000000       22.9898           0
      4730 ION      50       SOD      SOD      SOD      1.000000       22.9898           0
      4731 ION      51       SOD      SOD      SOD      1.000000       22.9898           0
      4732 ION      52       SOD      SOD      SOD      1.000000       22.9898           0
      4733 ION      53       SOD      SOD      SOD      1.000000       22.9898           0
      4734 ION      54       SOD      SOD      SOD      1.000000       22.9898           0
      4735 ION      55       SOD      SOD      SOD      1.000000       22.9898           0
      4736 ION      56       SOD      SOD      SOD      1.000000       22.9898           0
      4737 ION      57       SOD      SOD      SOD      1.000000       22.9898           0
      4738 ION      58       SOD      SOD      SOD      1.000000       22.9898           0
      4739 ION      59       SOD      SOD      SOD      1.000000       22.9898           0
      4740 ION      60       SOD      SOD      SOD      1.000000       22.9898           0
      4741 ION      61       SOD      SOD      SOD      1.000000       22.9898           0
      4742 ION      62       SOD      SOD      SOD      1.000000       22.9898           0
      4743 ION      63       SOD      SOD      SOD      1.000000       22.9898           0
      4744 ION      64       SOD      SOD      SOD      1.000000       22.9898           0
      4745 ION      65       SOD      SOD      SOD      1.000000       22.9898           0
      4746 ION      66       SOD      SOD      SOD      1.000000       22.9898           0
      4747 ION      67       SOD      SOD      SOD      1.000000       22.9898           0
      4748 ION      68       SOD      SOD      SOD      1.000000       22.9898           0
      4749 ION      69       SOD      SOD      SOD      1.000000       22.9898           0
      4750 ION      70       SOD      SOD      SOD      1.000000       22.9898           0
      4751 ION      71       SOD      SOD      SOD      1.000000       22.9898           0
      4752 ION      72       SOD      SOD      SOD      1.000000       22.9898           0
      4753 ION      73       SOD      SOD      SOD      1.000000       22.9898           0
      4754 ION      74       SOD      SOD      SOD      1.000000       22.9898           0
      4755 ION      75       SOD      SOD      SOD      1.000000       22.9898           0
      4756 ION      76       SOD      SOD      SOD      1.000000       22.9898           0
      4757 ION      77       SOD      SOD      SOD      1.000000       22.9898           0
      4758 ION      78       SOD      SOD      SOD      1.000000       22.9898           0
      4759 ION      79       SOD      SOD      SOD      1.000000       22.9898           0
      4760 ION      80       SOD      SOD      SOD      1.000000       22.9898           0
      4761 ION      81       SOD      SOD      SOD      1.000000       22.9898           0
      4762 ION      82       SOD      SOD      SOD      1.000000       22.9898           0
      4763 ION      83       SOD      SOD      SOD      1.000000       22.9898           0
      4764 ION      84       SOD      SOD      SOD      1.000000       22.9898           0
      4765 ION      85       SOD      SOD      SOD      1.000000       22.9898           0
      4766 ION      86       SOD      SOD      SOD      1.000000       22.9898           0
      4767 ION      87       SOD      SOD      SOD      1.000000       22.9898           0
      4768 ION      88       SOD      SOD      SOD      1.000000       22.9898           0
      4769 ION      89       SOD      SOD      SOD      1.000000       22.9898           0
      4770 ION      90       SOD      SOD      SOD      1.000000       22.9898           0
      4771 ION      91       SOD      SOD      SOD      1.000000       22.9898           0
      4772 ION      92       SOD      SOD      SOD      1.000000       22.9898           0
      4773 ION      93       SOD      SOD      SOD      1.000000       22.9898           0
      4774 ION      94       SOD      SOD      SOD      1.000000       22.9898           0
      4775 ION      95       SOD      SOD      SOD      1.000000       22.9898           0
      4776 ION      96       SOD      SOD      SOD      1.000000       22.9898           0
      4777 ION      97       SOD      SOD      SOD      1.000000       22.9898           0
      4778 ION      98       SOD      SOD      SOD      1.000000       22.9898           0
      4779 ION      99       SOD      SOD      SOD      1.000000       22.9898           0
      4780 ION      100      SOD      SOD      SOD      1.000000       22.9898           0
      4781 ION      101      SOD      SOD      SOD      1.000000       22.9898           0
      4782 ION      102      SOD      SOD      SOD      1.000000       22.9898           0
      4783 ION      103      SOD      SOD      SOD      1.000000       22.9898           0
      4784 ION      104      SOD      SOD      SOD      1.000000       22.9898           0
      4785 ION      105      SOD      SOD      SOD      1.000000       22.9898           0
      4786 ION      106      SOD      SOD      SOD      1.000000       22.9898           0
      4787 ION      107      SOD      SOD      SOD      1.000000       22.9898           0
      4788 ION      108      SOD      SOD      SOD      1.000000       22.9898           0
      4789 ION      109      SOD      SOD      SOD      1.000000       22.9898           0
      4790 ION      110      SOD      SOD      SOD      1.000000       22.9898           0
      4791 ION      111      SOD      SOD      SOD      1.000000       22.9898           0
      4792 ION      112      SOD      SOD      SOD      1.000000       22.9898           0
      4793 ION      113      SOD      SOD      SOD      1.000000       22.9898           0
      4794 ION      114      SOD      SOD      SOD      1.000000       22.9898           0
      4795 ION      115      SOD      SOD      SOD      1.000000       22.9898           0
      4796 ION      116      SOD      SOD      SOD      1.000000       22.9898           0
      4797 ION      117      SOD      SOD      SOD      1.000000       22.9898           0
      4798 ION      118      SOD      SOD      SOD      1.000000       22.9898           0
      4799 ION      119      SOD      SOD      SOD      1.000000       22.9898           0
      4800 ION      120      SOD      SOD      SOD      1.000000       22.9898           0
      4801 ION      121      SOD      SOD      SOD      1.000000       22.9898           0
      4802 ION      122      SOD      SOD      SOD      1.000000       22.9898           0
      4803 ION      123      SOD      SOD      SOD      1.000000       22.9898           0
      4804 ION      124      SOD      SOD      SOD      1.000000       22.9898           0
      4805 ION      125      SOD      SOD      SOD      1.000000       22.9898           0
      4806 ION      126      SOD      SOD      SOD      1.000000       22.9898           0
      4807 ION      127      SOD      SOD      SOD      1.000000       22.9898           0
      4808 ION      128      SOD      SOD      SOD      1.000000       22.9898           0
      4809 ION      129      SOD      SOD      SOD      1.000000       22.9898           0
      4810 ION      130      SOD      SOD      SOD      1.000000       22.9898           0
      4811 ION      131      SOD      SOD      SOD      1.000000       22.9898           0
      4812 ION      132      SOD      SOD      SOD      1.000000       22.9898           0
      4813 ION      133      SOD      SOD      SOD      1.000000       22.9898           0
      4814 ION      134      SOD      SOD      SOD      1.000000       22.9898           0
      4815 ION      135      SOD      SOD      SOD      1.000000       22.9898           0
      4816 ION      136      SOD      SOD      SOD      1.000000       22.9898           0
      4817 ION      137      SOD      SOD      SOD      1.000000       22.9898           0
      4818 ION      138      SOD      SOD      SOD      1.000000       22.9898           0
      4819 ION      139      SOD      SOD      SOD      1.000000       22.9898           0
      4820 ION      140      SOD      SOD      SOD      1.000000       22.9898           0
      4821 ION      141      SOD      SOD      SOD      1.000000       22.9898           0
      4822 ION      142      SOD      SOD      SOD      1.000000       22.9898           0
      4823 ION      143      SOD      SOD      SOD      1.000000       22.9898           0
      4824 ION      144      SOD      SOD      SOD      1.000000       22.9898           0
      4825 ION      145      SOD      SOD      SOD      1.000000       22.9898           0
      4826 ION      146      SOD      SOD      SOD      1.000000       22.9898           0
      4827 ION      147      SOD      SOD      SOD      1.000000       22.9898           0
      4828 ION      148      SOD      SOD      SOD      1.000000       22.9898           0
      4829 ION      149      SOD      SOD      SOD      1.000000       22.9898           0
      4830 ION      150      SOD      SOD      SOD      1.000000       22.9898           0
      4831 ION      151      SOD      SOD      SOD      1.000000       22.9898           0
      4832 ION      152      SOD      SOD      SOD      1.000000       22.9898           0
      4833 ION      153      SOD      SOD      SOD      1.000000       22.9898           0
      4834 ION      154      SOD      SOD      SOD      1.000000       22.9898           0
      4835 ION      155      SOD      SOD      SOD      1.000000       22.9898           0
      4836 ION      156      SOD      SOD      SOD      1.000000       22.9898           0
      4837 ION      157      SOD      SOD      SOD      1.000000       22.9898           0
      4838 ION      158      SOD      SOD      SOD      1.000000       22.9898           0
      4839 ION      159      SOD      SOD      SOD      1.000000       22.9898           0
      4840 ION      160      SOD      SOD      SOD      1.000000       22.9898           0
      4841 ION      161      SOD      SOD      SOD      1.000000       22.9898           0
      4842 ION      162      SOD      SOD      SOD      1.000000       22.9898           0
      4843 ION      163      SOD      SOD      SOD      1.000000       22.9898           0
      4844 ION      164      SOD      SOD      SOD      1.000000       22.9898           0
      4845 ION      165      SOD      SOD      SOD      1.000000       22.9898           0
      4846 ION      166      SOD      SOD      SOD      1.000000       22.9898           0
      4847 ION      167      SOD      SOD      SOD      1.000000       22.9898           0
      4848 ION      168      SOD      SOD      SOD      1.000000       22.9898           0
      4849 ION      169      SOD      SOD      SOD      1.000000       22.9898           0
      4850 ION      170      SOD      SOD      SOD      1.000000       22.9898           0
      4851 ION      171      SOD      SOD      SOD      1.000000       22.9898           0
      4852 ION      172      SOD      SOD      SOD      1.000000       22.9898           0
      4853 ION      173      SOD      SOD      SOD      1.000000       22.9898           0
      4854 ION      174      SOD      SOD      SOD      1.000000       22.9898           0
      4855 ION      175      SOD      SOD      SOD      1.000000       22.9898           0
      4856 ION      176      SOD      SOD      SOD      1.000000       22.9898           0
      4857 ION      177      SOD      SOD      SOD      1.000000       22.9898           0
      4858 ION      178      SOD      SOD      SOD      1.000000       22.9898           0
      4859 ION      179      SOD      SOD      SOD      1.000000       22.9898           0
      4860 ION      180      SOD      SOD      SOD      1.000000       22.9898           0
      4861 ION      181      SOD      SOD      SOD      1.000000       22.9898           0
      4862 ION      182      SOD      SOD      SOD      1.000000       22.9898           0
      4863 ION      183      SOD      SOD      SOD      1.000000       22.9898           0
      4864 ION      184      SOD      SOD      SOD      1.000000       22.9898           0
      4865 ION      185      SOD      SOD      SOD      1.000000       22.9898           0
      4866 ION      186      SOD      SOD      SOD      1.000000       22.9898           0
      4867 ION      187      SOD      SOD      SOD      1.000000       22.9898           0
      4868 ION      188      SOD      SOD      SOD      1.000000       22.9898           0
      4869 ION      189      SOD      SOD      SOD      1.000000       22.9898           0
      4870 ION      190      SOD      SOD      SOD      1.000000       22.9898           0
      4871 ION      191      SOD      SOD      SOD      1.000000       22.9898           0
      4872 ION      192      SOD      SOD      SOD      1.000000       22.9898           0
      4873 ION      193      SOD      SOD      SOD      1.000000       22.9898           0
      4874 ION      194      SOD      SOD      SOD      1.000000       22.9898           0
      4875 ION      195      SOD      SOD      SOD      1.000000       22.9898           0
      4876 ION      196      SOD      SOD      SOD      1.000000       22.9898           0
      4877 ION      197      SOD      SOD      SOD      1.000000       22.9898           0
      4878 ION      198      SOD      SOD      SOD      1.000000       22.9898           0
      4879 ION      199      SOD      SOD      SOD      1.000000       22.9898           0
      4880 ION      200      SOD      SOD      SOD      1.000000       22.9898           0
      4881 ION      201      SOD      SOD      SOD      1.000000       22.9898           0
      4882 ION      202      SOD      SOD      SOD      1.000000       22.9898           0
      4883 ION      203      SOD      SOD      SOD      1.000000       22.9898           0
      4884 ION      204      SOD      SOD      SOD      1.000000       22.9898           0
      4885 ION      205      SOD      SOD      SOD      1.000000       22.9898           0
      4886 ION      206      SOD      SOD      SOD      1.000000       22.9898           0
      4887 ION      207      SOD      SOD      SOD      1.000000       22.9898           0
      4888 ION      208      SOD      SOD      SOD      1.000000       22.9898           0
      4889 ION      209      SOD      SOD      SOD      1.000000       22.9898           0
      4890 ION      210      SOD      SOD      SOD      1.000000       22.9898           0
      4891 ION      211      SOD      SOD      SOD      1.000000       22.9898           0
      4892 ION      212      SOD      SOD      SOD      1.000000       22.9898           0
      4893 ION      213      SOD      SOD      SOD      1.000000       22.9898           0
      4894 ION      214      SOD      SOD      SOD      1.000000       22.9898           0
      4895 ION      215      SOD      SOD      SOD      1.000000       22.9898           0
      4896 ION      216      SOD      SOD      SOD      1.000000       22.9898           0
      4897 ION      217      SOD      SOD      SOD      1.000000       22.9898           0
      4898 ION      218      SOD      SOD      SOD      1.000000       22.9898           0
      4899 ION      219      SOD      SOD      SOD      1.000000       22.9898           0
      4900 ION      220      SOD      SOD      SOD      1.000000       22.9898           0
      4901 ION      221      SOD      SOD      SOD      1.000000       22.9898           0
      4902 ION      222      SOD      SOD      SOD      1.000000       22.9898           0
      4903 ION      223      SOD      SOD      SOD      1.000000       22.9898           0
      4904 ION      224      SOD      SOD      SOD      1.000000       22.9898           0
      4905 ION      225      SOD      SOD      SOD      1.000000       22.9898           0
      4906 ION      226      SOD      SOD      SOD      1.000000       22.9898           0
      4907 ION      227      SOD      SOD      SOD      1.000000       22.9898           0
      4908 ION      228      SOD      SOD      SOD      1.000000       22.9898           0
      4909 ION      229      SOD      SOD      SOD      1.000000       22.9898           0
      4910 ION      230      SOD      SOD      SOD      1.000000       22.9898           0
      4911 ION      231      SOD      SOD      SOD      1.000000       22.9898           0
      4912 ION      232      SOD      SOD      SOD      1.000000       22.9898           0
      4913 ION      233      SOD      SOD      SOD      1.000000       22.9898           0
      4914 ION      234      SOD      SOD      SOD      1.000000       22.9898           0
      4915 ION      235      SOD      SOD      SOD      1.000000       22.9898           0
      4916 ION      236      SOD      SOD      SOD      1.000000       22.9898           0
      4917 ION      237      SOD      SOD      SOD      1.000000       22.9898           0
      4918 ION      238      SOD      SOD      SOD      1.000000       22.9898           0
      4919 ION      239      SOD      SOD      SOD      1.000000       22.9898           0
      4920 ION      240      SOD      SOD      SOD      1.000000       22.9898           0
      4921 ION      241      SOD      SOD      SOD      1.000000       22.9898           0
      4922 ION      242      SOD      SOD      SOD      1.000000       22.9898           0
      4923 ION      243      SOD      SOD      SOD      1.000000       22.9898           0
      4924 ION      244      SOD      SOD      SOD      1.000000       22.9898           0
      4925 ION      245      SOD      SOD      SOD      1.000000       22.9898           0
      4926 ION      246      SOD      SOD      SOD      1.000000       22.9898           0
      4927 ION      247      SOD      SOD      SOD      1.000000       22.9898           0
      4928 ION      248      SOD      SOD      SOD      1.000000       22.9898           0
      4929 ION      249      SOD      SOD      SOD      1.000000       22.9898           0
      4930 ION      250      SOD      SOD      SOD      1.000000       22.9898           0
      4931 ION      251      SOD      SOD      SOD      1.000000       22.9898           0
      4932 ION      252      SOD      SOD      SOD      1.000000       22.9898           0
      4933 ION      253      SOD      SOD      SOD      1.000000       22.9898           0
      4934 ION      254      SOD      SOD      SOD      1.000000       22.9898           0
      4935 ION      255      SOD      SOD      SOD      1.000000       22.9898           0
      4936 ION      256      SOD      SOD      SOD      1.000000       22.9898           0
      4937 ION      257      SOD      SOD      SOD      1.000000       22.9898           0
      4938 ION      258      SOD      SOD      SOD      1.000000       22.9898           0
      4939 ION      259      SOD      SOD      SOD      1.000000       22.9898           0
      4940 ION      260      SOD      SOD      SOD      1.000000       22.9898           0
      4941 ION      261      SOD      SOD      SOD      1.000000       22.9898           0
      4942 ION      262      CLA      CLA      CLA     -1.000000       35.4500           0
      4943 ION      263      CLA      CLA      CLA     -1.000000       35.4500           0
      4944 ION      264      CLA      CLA      CLA     -1.000000       35.4500           0
      4945 ION      265      CLA      CLA      CLA     -1.000000       35.4500           0
      4946 ION      266      CLA      CLA      CLA     -1.000000       35.4500           0
      4947 ION      267      CLA      CLA      CLA     -1.000000       35.4500           0
      4948 ION      268      CLA      CLA      CLA     -1.000000       35.4500           0
      4949 ION      269      CLA      CLA      CLA     -1.000000       35.4500           0
      4950 ION      270      CLA      CLA      CLA     -1.000000       35.4500           0
      4951 ION      271      CLA      CLA      CLA     -1.000000       35.4500           0
      4952 ION      272      CLA      CLA      CLA     -1.000000       35.4500           0
      4953 ION      273      CLA      CLA      CLA     -1.000000       35.4500           0
      4954 ION      274      CLA      CLA      CLA     -1.000000       35.4500           0
      4955 ION      275      CLA      CLA      CLA     -1.000000       35.4500           0
      4956 ION      276      CLA      CLA      CLA     -1.000000       35.4500           0
      4957 ION      277      CLA      CLA      CLA     -1.000000       35.4500           0
      4958 ION      278      CLA      CLA      CLA     -1.000000       35.4500           0
      4959 ION      279      CLA      CLA      CLA     -1.000000       35.4500           0
      4960 ION      280      CLA      CLA      CLA     -1.000000       35.4500           0
      4961 ION      281      CLA      CLA      CLA     -1.000000       35.4500           0
      4962 ION      282      CLA      CLA      CLA     -1.000000       35.4500           0
      4963 ION      283      CLA      CLA      CLA     -1.000000       35.4500           0
      4964 ION      284      CLA      CLA      CLA     -1.000000       35.4500           0
      4965 ION      285      CLA      CLA      CLA     -1.000000       35.4500           0
      4966 ION      286      CLA      CLA      CLA     -1.000000       35.4500           0
      4967 ION      287      CLA      CLA      CLA     -1.000000       35.4500           0
      4968 ION      288      CLA      CLA      CLA     -1.000000       35.4500           0
      4969 ION      289      CLA      CLA      CLA     -1.000000       35.4500           0
      4970 ION      290      CLA      CLA      CLA     -1.000000       35.4500           0
      4971 ION      291      CLA      CLA      CLA     -1.000000       35.4500           0
      4972 ION      292      CLA      CLA      CLA     -1.000000       35.4500           0
      4973 ION      293      CLA      CLA      CLA     -1.000000       35.4500           0
      4974 ION      294      CLA      CLA      CLA     -1.000000       35.4500           0
      4975 ION      295      CLA      CLA      CLA     -1.000000       35.4500           0
      4976 ION      296      CLA      CLA      CLA     -1.000000       35.4500           0
      4977 ION      297      CLA      CLA      CLA     -1.000000       35.4500           0
      4978 ION      298      CLA      CLA      CLA     -1.000000       35.4500           0
      4979 ION      299      CLA      CLA      CLA     -1.000000       35.4500           0
      4980 ION      300      CLA      CLA      CLA     -1.000000       35.4500           0
      4981 ION      301      CLA      CLA      CLA     -1.000000       35.4500           0
      4982 ION      302      CLA      CLA      CLA     -1.000000       35.4500           0
      4983 ION      303      CLA      CLA      CLA     -1.000000       35.4500           0
      4984 ION      304      CLA      CLA      CLA     -1.000000       35.4500           0
      4985 ION      305      CLA      CLA      CLA     -1.000000       35.4500           0
      4986 ION      306      CLA      CLA      CLA     -1.000000       35.4500           0
      4987 ION      307      CLA      CLA      CLA     -1.000000       35.4500           0
      4988 ION      308      CLA      CLA      CLA     -1.000000       35.4500           0
      4989 ION      309      CLA      CLA      CLA     -1.000000       35.4500           0
      4990 ION      310      CLA      CLA      CLA     -1.000000       35.4500           0
      4991 ION      311      CLA      CLA      CLA     -1.000000       35.4500           0
      4992 ION      312      CLA      CLA      CLA     -1.000000       35.4500           0
      4993 ION      313      CLA      CLA      CLA     -1.000000       35.4500           0
      4994 ION      314      CLA      CLA      CLA     -1.000000       35.4500           0
      4995 ION      315      CLA      CLA      CLA     -1.000000       35.4500           0
      4996 ION      316      CLA      CLA      CLA     -1.000000       35.4500           0
      4997 ION      317      CLA      CLA      CLA     -1.000000       35.4500           0
      4998 ION      318      CLA      CLA      CLA     -1.000000       35.4500           0
      4999 ION      319      CLA      CLA      CLA     -1.000000       35.4500           0
      5000 ION      320      CLA      CLA      CLA     -1.000000       35.4500           0
      5001 ION      321      CLA      CLA      CLA     -1.000000       35.4500           0
      5002 ION      322      CLA      CLA      CLA     -1.000000       35.4500           0
      5003 ION      323      CLA      CLA      CLA     -1.000000       35.4500           0
      5004 ION      324      CLA      CLA      CLA     -1.000000       35.4500           0
      5005 ION      325      CLA      CLA      CLA     -1.000000       35.4500           0
      5006 ION      326      CLA      CLA      CLA     -1.000000       35.4500           0
      5007 ION      327      CLA      CLA      CLA     -1.000000       35.4500           0
      5008 ION      328      CLA      CLA      CLA     -1.000000       35.4500           0
      5009 ION      329      CLA      CLA      CLA     -1.000000       35.4500           0
      5010 ION      330      CLA      CLA      CLA     -1.000000       35.4500           0
      5011 ION      331      CLA      CLA      CLA     -1.000000       35.4500           0
      5012 ION      332      CLA      CLA      CLA     -1.000000       35.4500           0
      5013 ION      333      CLA      CLA      CLA     -1.000000       35.4500           0
      5014 ION      334      CLA      CLA      CLA     -1.000000       35.4500           0
      5015 ION      335      CLA      CLA      CLA     -1.000000       35.4500           0
      5016 ION      336      CLA      CLA      CLA     -1.000000       35.4500           0
      5017 ION      337      CLA      CLA      CLA     -1.000000       35.4500           0
      5018 ION      338      CLA      CLA      CLA     -1.000000       35.4500           0
      5019 ION      339      CLA      CLA      CLA     -1.000000       35.4500           0
      5020 ION      340      CLA      CLA      CLA     -1.000000       35.4500           0
      5021 ION      341      CLA      CLA      CLA     -1.000000       35.4500           0
      5022 ION      342      CLA      CLA      CLA     -1.000000       35.4500           0
      5023 ION      343      CLA      CLA      CLA     -1.000000       35.4500           0
      5024 ION      344      CLA      CLA      CLA     -1.000000       35.4500           0
      5025 ION      345      CLA      CLA      CLA     -1.000000       35.4500           0
      5026 ION      346      CLA      CLA      CLA     -1.000000       35.4500           0
      5027 ION      347      CLA      CLA      CLA     -1.000000       35.4500           0
      5028 ION      348      CLA      CLA      CLA     -1.000000       35.4500           0
      5029 ION      349      CLA      CLA      CLA     -1.000000       35.4500           0
      5030 ION      350      CLA      CLA      CLA     -1.000000       35.4500           0
      5031 ION      351      CLA      CLA      CLA     -1.000000       35.4500           0
      5032 ION      352      CLA      CLA      CLA     -1.000000       35.4500           0
      5033 ION      353      CLA      CLA      CLA     -1.000000       35.4500           0
      5034 ION      354      CLA      CLA      CLA     -1.000000       35.4500           0
      5035 ION      355      CLA      CLA      CLA     -1.000000       35.4500           0
      5036 ION      356      CLA      CLA      CLA     -1.000000       35.4500           0
      5037 ION      357      CLA      CLA      CLA     -1.000000       35.4500           0
      5038 ION      358      CLA      CLA      CLA     -1.000000       35.4500           0
      5039 ION      359      CLA      CLA      CLA     -1.000000       35.4500           0
      5040 ION      360      CLA      CLA      CLA     -1.000000       35.4500           0
      5041 ION      361      CLA      CLA      CLA     -1.000000       35.4500           0
      5042 ION      362      CLA      CLA      CLA     -1.000000       35.4500           0
      5043 ION      363      CLA      CLA      CLA     -1.000000       35.4500           0
      5044 ION      364      CLA      CLA      CLA     -1.000000       35.4500           0
      5045 ION      365      CLA      CLA      CLA     -1.000000       35.4500           0
      5046 ION      366      CLA      CLA      CLA     -1.000000       35.4500           0
      5047 ION      367      CLA      CLA      CLA     -1.000000       35.4500           0
      5048 ION      368      CLA      CLA      CLA     -1.000000       35.4500           0
      5049 ION      369      CLA      CLA      CLA     -1.000000       35.4500           0
      5050 ION      370      CLA      CLA      CLA     -1.000000       35.4500           0
      5051 ION      371      CLA      CLA      CLA     -1.000000       35.4500           0
      5052 ION      372      CLA      CLA      CLA     -1.000000       35.4500           0
      5053 ION      373      CLA      CLA      CLA     -1.000000       35.4500           0
      5054 ION      374      CLA      CLA      CLA     -1.000000       35.4500           0
      5055 WT1      9        MECN     C1       CG331   -0.170000       12.0110           0
      5056 WT1      9        MECN     H11      HGA3     0.090000        1.0080           0
      5057 WT1      9        MECN     H12      HGA3     0.090000        1.0080           0
      5058 WT1      9        MECN     H13      HGA3     0.090000        1.0080           0
      5059 WT1      9        MECN     C2       CG1N1    0.360000       12.0110           0
      5060 WT1      9        MECN     N3       NG1T1   -0.460000       14.0070           0
      5061 WT1      16       MECN     C1       CG331   -0.170000       12.0110           0
      5062 WT1      16       MECN     H11      HGA3     0.090000        1.0080           0
      5063 WT1      16       MECN     H12      HGA3     0.090000        1.0080           0
      5064 WT1      16       MECN     H13      HGA3     0.090000        1.0080           0
      5065 WT1      16       MECN     C2       CG1N1    0.360000       12.0110           0
      5066 WT1      16       MECN     N3       NG1T1   -0.460000       14.0070           0
      5067 WT1      31       MECN     C1       CG331   -0.170000       12.0110           0
      5068 WT1      31       MECN     H11      HGA3     0.090000        1.0080           0
      5069 WT1      31       MECN     H12      HGA3     0.090000        1.0080           0
      5070 WT1      31       MECN     H13      HGA3     0.090000        1.0080           0
      5071 WT1      31       MECN     C2       CG1N1    0.360000       12.0110           0
      5072 WT1      31       MECN     N3       NG1T1   -0.460000       14.0070           0
      5073 WT1      50       MECN     C1       CG331   -0.170000       12.0110           0
      5074 WT1      50       MECN     H11      HGA3     0.090000        1.0080           0
      5075 WT1      50       MECN     H12      HGA3     0.090000        1.0080           0
      5076 WT1      50       MECN     H13      HGA3     0.090000        1.0080           0
      5077 WT1      50       MECN     C2       CG1N1    0.360000       12.0110           0
      5078 WT1      50       MECN     N3       NG1T1   -0.460000       14.0070           0
      5079 WT1      54       MECN     C1       CG331   -0.170000       12.0110           0
      5080 WT1      54       MECN     H11      HGA3     0.090000        1.0080           0
      5081 WT1      54       MECN     H12      HGA3     0.090000        1.0080           0
      5082 WT1      54       MECN     H13      HGA3     0.090000        1.0080           0
      5083 WT1      54       MECN     C2       CG1N1    0.360000       12.0110           0
      5084 WT1      54       MECN     N3       NG1T1   -0.460000       14.0070           0
      5085 WT1      58       MECN     C1       CG331   -0.170000       12.0110           0
      5086 WT1      58       MECN     H11      HGA3     0.090000        1.0080           0
      5087 WT1      58       MECN     H12      HGA3     0.090000        1.0080           0
      5088 WT1      58       MECN     H13      HGA3     0.090000        1.0080           0
      5089 WT1      58       MECN     C2       CG1N1    0.360000       12.0110           0
      5090 WT1      58       MECN     N3       NG1T1   -0.460000       14.0070           0
      5091 WT1      71       MECN     C1       CG331   -0.170000       12.0110           0
      5092 WT1      71       MECN     H11      HGA3     0.090000        1.0080           0
      5093 WT1      71       MECN     H12      HGA3     0.090000        1.0080           0
      5094 WT1      71       MECN     H13      HGA3     0.090000        1.0080           0
      5095 WT1      71       MECN     C2       CG1N1    0.360000       12.0110           0
      5096 WT1      71       MECN     N3       NG1T1   -0.460000       14.0070           0
      5097 WT1      76       MECN     C1       CG331   -0.170000       12.0110           0
      5098 WT1      76       MECN     H11      HGA3     0.090000        1.0080           0
      5099 WT1      76       MECN     H12      HGA3     0.090000        1.0080           0
      5100 WT1      76       MECN     H13      HGA3     0.090000        1.0080           0
      5101 WT1      76       MECN     C2       CG1N1    0.360000       12.0110           0
      5102 WT1      76       MECN     N3       NG1T1   -0.460000       14.0070           0
      5103 WT1      79       MECN     C1       CG331   -0.170000       12.0110           0
      5104 WT1      79       MECN     H11      HGA3     0.090000        1.0080           0
      5105 WT1      79       MECN     H12      HGA3     0.090000        1.0080           0
      5106 WT1      79       MECN     H13      HGA3     0.090000        1.0080           0
      5107 WT1      79       MECN     C2       CG1N1    0.360000       12.0110           0
      5108 WT1      79       MECN     N3       NG1T1   -0.460000       14.0070           0
      5109 WT1      81       MECN     C1       CG331   -0.170000       12.0110           0
      5110 WT1      81       MECN     H11      HGA3     0.090000        1.0080           0
      5111 WT1      81       MECN     H12      HGA3     0.090000        1.0080           0
      5112 WT1      81       MECN     H13      HGA3     0.090000        1.0080           0
      5113 WT1      81       MECN     C2       CG1N1    0.360000       12.0110           0
      5114 WT1      81       MECN     N3       NG1T1   -0.460000       14.0070           0
      5115 WT1      105      MECN     C1       CG331   -0.170000       12.0110           0
      5116 WT1      105      MECN     H11      HGA3     0.090000        1.0080           0
      5117 WT1      105      MECN     H12      HGA3     0.090000        1.0080           0
      5118 WT1      105      MECN     H13      HGA3     0.090000        1.0080           0
      5119 WT1      105      MECN     C2       CG1N1    0.360000       12.0110           0
      5120 WT1      105      MECN     N3       NG1T1   -0.460000       14.0070           0
      5121 WT1      112      MECN     C1       CG331   -0.170000       12.0110           0
      5122 WT1      112      MECN     H11      HGA3     0.090000        1.0080           0
      5123 WT1      112      MECN     H12      HGA3     0.090000        1.0080           0
      5124 WT1      112      MECN     H13      HGA3     0.090000        1.0080           0
      5125 WT1      112      MECN     C2       CG1N1    0.360000       12.0110           0
      5126 WT1      112      MECN     N3       NG1T1   -0.460000       14.0070           0
      5127 WT1      120      MECN     C1       CG331   -0.170000       12.0110           0
      5128 WT1      120      MECN     H11      HGA3     0.090000        1.0080           0
      5129 WT1      120      MECN     H12      HGA3     0.090000        1.0080           0
      5130 WT1      120      MECN     H13      HGA3     0.090000        1.0080           0
      5131 WT1      120      MECN     C2       CG1N1    0.360000       12.0110           0
      5132 WT1      120      MECN     N3       NG1T1   -0.460000       14.0070           0
      5133 WT1      183      MECN     C1       CG331   -0.170000       12.0110           0
      5134 WT1      183      MECN     H11      HGA3     0.090000        1.0080           0
      5135 WT1      183      MECN     H12      HGA3     0.090000        1.0080           0
      5136 WT1      183      MECN     H13      HGA3     0.090000        1.0080           0
      5137 WT1      183      MECN     C2       CG1N1    0.360000       12.0110           0
      5138 WT1      183      MECN     N3       NG1T1   -0.460000       14.0070           0
      5139 WT1      185      MECN     C1       CG331   -0.170000       12.0110           0
      5140 WT1      185      MECN     H11      HGA3     0.090000        1.0080           0
      5141 WT1      185      MECN     H12      HGA3     0.090000        1.0080           0
      5142 WT1      185      MECN     H13      HGA3     0.090000        1.0080           0
      5143 WT1      185      MECN     C2       CG1N1    0.360000       12.0110           0
      5144 WT1      185      MECN     N3       NG1T1   -0.460000       14.0070           0
      5145 WT1      197      MECN     C1       CG331   -0.170000       12.0110           0
      5146 WT1      197      MECN     H11      HGA3     0.090000        1.0080           0
      5147 WT1      197      MECN     H12      HGA3     0.090000        1.0080           0
      5148 WT1      197      MECN     H13      HGA3     0.090000        1.0080           0
      5149 WT1      197      MECN     C2       CG1N1    0.360000       12.0110           0
      5150 WT1      197      MECN     N3       NG1T1   -0.460000       14.0070           0
      5151 WT1      211      MECN     C1       CG331   -0.170000       12.0110           0
      5152 WT1      211      MECN     H11      HGA3     0.090000        1.0080           0
      5153 WT1      211      MECN     H12      HGA3     0.090000        1.0080           0
      5154 WT1      211      MECN     H13      HGA3     0.090000        1.0080           0
      5155 WT1      211      MECN     C2       CG1N1    0.360000       12.0110           0
      5156 WT1      211      MECN     N3       NG1T1   -0.460000       14.0070           0
      5157 WT1      216      MECN     C1       CG331   -0.170000       12.0110           0
      5158 WT1      216      MECN     H11      HGA3     0.090000        1.0080           0
      5159 WT1      216      MECN     H12      HGA3     0.090000        1.0080           0
      5160 WT1      216      MECN     H13      HGA3     0.090000        1.0080           0
      5161 WT1      216      MECN     C2       CG1N1    0.360000       12.0110           0
      5162 WT1      216      MECN     N3       NG1T1   -0.460000       14.0070           0
      5163 WT1      225      MECN     C1       CG331   -0.170000       12.0110           0
      5164 WT1      225      MECN     H11      HGA3     0.090000        1.0080           0
      5165 WT1      225      MECN     H12      HGA3     0.090000        1.0080           0
      5166 WT1      225      MECN     H13      HGA3     0.090000        1.0080           0
      5167 WT1      225      MECN     C2       CG1N1    0.360000       12.0110           0
      5168 WT1      225      MECN     N3       NG1T1   -0.460000       14.0070           0
      5169 WT1      255      MECN     C1       CG331   -0.170000       12.0110           0
      5170 WT1      255      MECN     H11      HGA3     0.090000        1.0080           0
      5171 WT1      255      MECN     H12      HGA3     0.090000        1.0080           0
      5172 WT1      255      MECN     H13      HGA3     0.090000        1.0080           0
      5173 WT1      255      MECN     C2       CG1N1    0.360000       12.0110           0
      5174 WT1      255      MECN     N3       NG1T1   -0.460000       14.0070           0
      5175 WT1      260      MECN     C1       CG331   -0.170000       12.0110           0
      5176 WT1      260      MECN     H11      HGA3     0.090000        1.0080           0
      5177 WT1      260      MECN     H12      HGA3     0.090000        1.0080           0
      5178 WT1      260      MECN     H13      HGA3     0.090000        1.0080           0
      5179 WT1      260      MECN     C2       CG1N1    0.360000       12.0110           0
      5180 WT1      260      MECN     N3       NG1T1   -0.460000       14.0070           0
      5181 WT1      270      MECN     C1       CG331   -0.170000       12.0110           0
      5182 WT1      270      MECN     H11      HGA3     0.090000        1.0080           0
      5183 WT1      270      MECN     H12      HGA3     0.090000        1.0080           0
      5184 WT1      270      MECN     H13      HGA3     0.090000        1.0080           0
      5185 WT1      270      MECN     C2       CG1N1    0.360000       12.0110           0
      5186 WT1      270      MECN     N3       NG1T1   -0.460000       14.0070           0
      5187 WT1      273      MECN     C1       CG331   -0.170000       12.0110           0
      5188 WT1      273      MECN     H11      HGA3     0.090000        1.0080           0
      5189 WT1      273      MECN     H12      HGA3     0.090000        1.0080           0
      5190 WT1      273      MECN     H13      HGA3     0.090000        1.0080           0
      5191 WT1      273      MECN     C2       CG1N1    0.360000       12.0110           0
      5192 WT1      273      MECN     N3       NG1T1   -0.460000       14.0070           0
      5193 WT1      287      MECN     C1       CG331   -0.170000       12.0110           0
      5194 WT1      287      MECN     H11      HGA3     0.090000        1.0080           0
      5195 WT1      287      MECN     H12      HGA3     0.090000        1.0080           0
      5196 WT1      287      MECN     H13      HGA3     0.090000        1.0080           0
      5197 WT1      287      MECN     C2       CG1N1    0.360000       12.0110           0
      5198 WT1      287      MECN     N3       NG1T1   -0.460000       14.0070           0
      5199 WT1      292      MECN     C1       CG331   -0.170000       12.0110           0
      5200 WT1      292      MECN     H11      HGA3     0.090000        1.0080           0
      5201 WT1      292      MECN     H12      HGA3     0.090000        1.0080           0
      5202 WT1      292      MECN     H13      HGA3     0.090000        1.0080           0
      5203 WT1      292      MECN     C2       CG1N1    0.360000       12.0110           0
      5204 WT1      292      MECN     N3       NG1T1   -0.460000       14.0070           0
      5205 WT1      296      MECN     C1       CG331   -0.170000       12.0110           0
      5206 WT1      296      MECN     H11      HGA3     0.090000        1.0080           0
      5207 WT1      296      MECN     H12      HGA3     0.090000        1.0080           0
      5208 WT1      296      MECN     H13      HGA3     0.090000        1.0080           0
      5209 WT1      296      MECN     C2       CG1N1    0.360000       12.0110           0
      5210 WT1      296      MECN     N3       NG1T1   -0.460000       14.0070           0
      5211 WT1      298      MECN     C1       CG331   -0.170000       12.0110           0
      5212 WT1      298      MECN     H11      HGA3     0.090000        1.0080           0
      5213 WT1      298      MECN     H12      HGA3     0.090000        1.0080           0
      5214 WT1      298      MECN     H13      HGA3     0.090000        1.0080           0
      5215 WT1      298      MECN     C2       CG1N1    0.360000       12.0110           0
      5216 WT1      298      MECN     N3       NG1T1   -0.460000       14.0070           0
      5217 WT1      308      MECN     C1       CG331   -0.170000       12.0110           0
      5218 WT1      308      MECN     H11      HGA3     0.090000        1.0080           0
      5219 WT1      308      MECN     H12      HGA3     0.090000        1.0080           0
      5220 WT1      308      MECN     H13      HGA3     0.090000        1.0080           0
      5221 WT1      308      MECN     C2       CG1N1    0.360000       12.0110           0
      5222 WT1      308      MECN     N3       NG1T1   -0.460000       14.0070           0
      5223 WT1      310      MECN     C1       CG331   -0.170000       12.0110           0
      5224 WT1      310      MECN     H11      HGA3     0.090000        1.0080           0
      5225 WT1      310      MECN     H12      HGA3     0.090000        1.0080           0
      5226 WT1      310      MECN     H13      HGA3     0.090000        1.0080           0
      5227 WT1      310      MECN     C2       CG1N1    0.360000       12.0110           0
      5228 WT1      310      MECN     N3       NG1T1   -0.460000       14.0070           0
      5229 WT1      322      MECN     C1       CG331   -0.170000       12.0110           0
      5230 WT1      322      MECN     H11      HGA3     0.090000        1.0080           0
      5231 WT1      322      MECN     H12      HGA3     0.090000        1.0080           0
      5232 WT1      322      MECN     H13      HGA3     0.090000        1.0080           0
      5233 WT1      322      MECN     C2       CG1N1    0.360000       12.0110           0
      5234 WT1      322      MECN     N3       NG1T1   -0.460000       14.0070           0
      5235 WT1      323      MECN     C1       CG331   -0.170000       12.0110           0
      5236 WT1      323      MECN     H11      HGA3     0.090000        1.0080           0
      5237 WT1      323      MECN     H12      HGA3     0.090000        1.0080           0
      5238 WT1      323      MECN     H13      HGA3     0.090000        1.0080           0
      5239 WT1      323      MECN     C2       CG1N1    0.360000       12.0110           0
      5240 WT1      323      MECN     N3       NG1T1   -0.460000       14.0070           0
      5241 WT1      338      MECN     C1       CG331   -0.170000       12.0110           0
      5242 WT1      338      MECN     H11      HGA3     0.090000        1.0080           0
      5243 WT1      338      MECN     H12      HGA3     0.090000        1.0080           0
      5244 WT1      338      MECN     H13      HGA3     0.090000        1.0080           0
      5245 WT1      338      MECN     C2       CG1N1    0.360000       12.0110           0
      5246 WT1      338      MECN     N3       NG1T1   -0.460000       14.0070           0
      5247 WT1      342      MECN     C1       CG331   -0.170000       12.0110           0
      5248 WT1      342      MECN     H11      HGA3     0.090000        1.0080           0
      5249 WT1      342      MECN     H12      HGA3     0.090000        1.0080           0
      5250 WT1      342      MECN     H13      HGA3     0.090000        1.0080           0
      5251 WT1      342      MECN     C2       CG1N1    0.360000       12.0110           0
      5252 WT1      342      MECN     N3       NG1T1   -0.460000       14.0070           0
      5253 WT1      349      MECN     C1       CG331   -0.170000       12.0110           0
      5254 WT1      349      MECN     H11      HGA3     0.090000        1.0080           0
      5255 WT1      349      MECN     H12      HGA3     0.090000        1.0080           0
      5256 WT1      349      MECN     H13      HGA3     0.090000        1.0080           0
      5257 WT1      349      MECN     C2       CG1N1    0.360000       12.0110           0
      5258 WT1      349      MECN     N3       NG1T1   -0.460000       14.0070           0
      5259 WT1      366      MECN     C1       CG331   -0.170000       12.0110           0
      5260 WT1      366      MECN     H11      HGA3     0.090000        1.0080           0
      5261 WT1      366      MECN     H12      HGA3     0.090000        1.0080           0
      5262 WT1      366      MECN     H13      HGA3     0.090000        1.0080           0
      5263 WT1      366      MECN     C2       CG1N1    0.360000       12.0110           0
      5264 WT1      366      MECN     N3       NG1T1   -0.460000       14.0070           0
      5265 WT1      381      MECN     C1       CG331   -0.170000       12.0110           0
      5266 WT1      381      MECN     H11      HGA3     0.090000        1.0080           0
      5267 WT1      381      MECN     H12      HGA3     0.090000        1.0080           0
      5268 WT1      381      MECN     H13      HGA3     0.090000        1.0080           0
      5269 WT1      381      MECN     C2       CG1N1    0.360000       12.0110           0
      5270 WT1      381      MECN     N3       NG1T1   -0.460000       14.0070           0
      5271 WT1      388      MECN     C1       CG331   -0.170000       12.0110           0
      5272 WT1      388      MECN     H11      HGA3     0.090000        1.0080           0
      5273 WT1      388      MECN     H12      HGA3     0.090000        1.0080           0
      5274 WT1      388      MECN     H13      HGA3     0.090000        1.0080           0
      5275 WT1      388      MECN     C2       CG1N1    0.360000       12.0110           0
      5276 WT1      388      MECN     N3       NG1T1   -0.460000       14.0070           0
      5277 WT1      392      MECN     C1       CG331   -0.170000       12.0110           0
      5278 WT1      392      MECN     H11      HGA3     0.090000        1.0080           0
      5279 WT1      392      MECN     H12      HGA3     0.090000        1.0080           0
      5280 WT1      392      MECN     H13      HGA3     0.090000        1.0080           0
      5281 WT1      392      MECN     C2       CG1N1    0.360000       12.0110           0
      5282 WT1      392      MECN     N3       NG1T1   -0.460000       14.0070           0
      5283 WT1      401      MECN     C1       CG331   -0.170000       12.0110           0
      5284 WT1      401      MECN     H11      HGA3     0.090000        1.0080           0
      5285 WT1      401      MECN     H12      HGA3     0.090000        1.0080           0
      5286 WT1      401      MECN     H13      HGA3     0.090000        1.0080           0
      5287 WT1      401      MECN     C2       CG1N1    0.360000       12.0110           0
      5288 WT1      401      MECN     N3       NG1T1   -0.460000       14.0070           0
      5289 WT1      408      MECN     C1       CG331   -0.170000       12.0110           0
      5290 WT1      408      MECN     H11      HGA3     0.090000        1.0080           0
      5291 WT1      408      MECN     H12      HGA3     0.090000        1.0080           0
      5292 WT1      408      MECN     H13      HGA3     0.090000        1.0080           0
      5293 WT1      408      MECN     C2       CG1N1    0.360000       12.0110           0
      5294 WT1      408      MECN     N3       NG1T1   -0.460000       14.0070           0
      5295 WT1      416      MECN     C1       CG331   -0.170000       12.0110           0
      5296 WT1      416      MECN     H11      HGA3     0.090000        1.0080           0
      5297 WT1      416      MECN     H12      HGA3     0.090000        1.0080           0
      5298 WT1      416      MECN     H13      HGA3     0.090000        1.0080           0
      5299 WT1      416      MECN     C2       CG1N1    0.360000       12.0110           0
      5300 WT1      416      MECN     N3       NG1T1   -0.460000       14.0070           0
      5301 WT1      430      MECN     C1       CG331   -0.170000       12.0110           0
      5302 WT1      430      MECN     H11      HGA3     0.090000        1.0080           0
      5303 WT1      430      MECN     H12      HGA3     0.090000        1.0080           0
      5304 WT1      430      MECN     H13      HGA3     0.090000        1.0080           0
      5305 WT1      430      MECN     C2       CG1N1    0.360000       12.0110           0
      5306 WT1      430      MECN     N3       NG1T1   -0.460000       14.0070           0
      5307 WT1      436      MECN     C1       CG331   -0.170000       12.0110           0
      5308 WT1      436      MECN     H11      HGA3     0.090000        1.0080           0
      5309 WT1      436      MECN     H12      HGA3     0.090000        1.0080           0
      5310 WT1      436      MECN     H13      HGA3     0.090000        1.0080           0
      5311 WT1      436      MECN     C2       CG1N1    0.360000       12.0110           0
      5312 WT1      436      MECN     N3       NG1T1   -0.460000       14.0070           0
      5313 WT1      440      MECN     C1       CG331   -0.170000       12.0110           0
      5314 WT1      440      MECN     H11      HGA3     0.090000        1.0080           0
      5315 WT1      440      MECN     H12      HGA3     0.090000        1.0080           0
      5316 WT1      440      MECN     H13      HGA3     0.090000        1.0080           0
      5317 WT1      440      MECN     C2       CG1N1    0.360000       12.0110           0
      5318 WT1      440      MECN     N3       NG1T1   -0.460000       14.0070           0
      5319 WT1      451      MECN     C1       CG331   -0.170000       12.0110           0
      5320 WT1      451      MECN     H11      HGA3     0.090000        1.0080           0
      5321 WT1      451      MECN     H12      HGA3     0.090000        1.0080           0
      5322 WT1      451      MECN     H13      HGA3     0.090000        1.0080           0
      5323 WT1      451      MECN     C2       CG1N1    0.360000       12.0110           0
      5324 WT1      451      MECN     N3       NG1T1   -0.460000       14.0070           0
      5325 WT1      467      MECN     C1       CG331   -0.170000       12.0110           0
      5326 WT1      467      MECN     H11      HGA3     0.090000        1.0080           0
      5327 WT1      467      MECN     H12      HGA3     0.090000        1.0080           0
      5328 WT1      467      MECN     H13      HGA3     0.090000        1.0080           0
      5329 WT1      467      MECN     C2       CG1N1    0.360000       12.0110           0
      5330 WT1      467      MECN     N3       NG1T1   -0.460000       14.0070           0
      5331 WT1      485      MECN     C1       CG331   -0.170000       12.0110           0
      5332 WT1      485      MECN     H11      HGA3     0.090000        1.0080           0
      5333 WT1      485      MECN     H12      HGA3     0.090000        1.0080           0
      5334 WT1      485      MECN     H13      HGA3     0.090000        1.0080           0
      5335 WT1      485      MECN     C2       CG1N1    0.360000       12.0110           0
      5336 WT1      485      MECN     N3       NG1T1   -0.460000       14.0070           0
      5337 WT1      488      MECN     C1       CG331   -0.170000       12.0110           0
      5338 WT1      488      MECN     H11      HGA3     0.090000        1.0080           0
      5339 WT1      488      MECN     H12      HGA3     0.090000        1.0080           0
      5340 WT1      488      MECN     H13      HGA3     0.090000        1.0080           0
      5341 WT1      488      MECN     C2       CG1N1    0.360000       12.0110           0
      5342 WT1      488      MECN     N3       NG1T1   -0.460000       14.0070           0
      5343 WT1      492      MECN     C1       CG331   -0.170000       12.0110           0
      5344 WT1      492      MECN     H11      HGA3     0.090000        1.0080           0
      5345 WT1      492      MECN     H12      HGA3     0.090000        1.0080           0
      5346 WT1      492      MECN     H13      HGA3     0.090000        1.0080           0
      5347 WT1      492      MECN     C2       CG1N1    0.360000       12.0110           0
      5348 WT1      492      MECN     N3       NG1T1   -0.460000       14.0070           0
      5349 WT1      531      MECN     C1       CG331   -0.170000       12.0110           0
      5350 WT1      531      MECN     H11      HGA3     0.090000        1.0080           0
      5351 WT1      531      MECN     H12      HGA3     0.090000        1.0080           0
      5352 WT1      531      MECN     H13      HGA3     0.090000        1.0080           0
      5353 WT1      531      MECN     C2       CG1N1    0.360000       12.0110           0
      5354 WT1      531      MECN     N3       NG1T1   -0.460000       14.0070           0
      5355 WT1      543      MECN     C1       CG331   -0.170000       12.0110           0
      5356 WT1      543      MECN     H11      HGA3     0.090000        1.0080           0
      5357 WT1      543      MECN     H12      HGA3     0.090000        1.0080           0
      5358 WT1      543      MECN     H13      HGA3     0.090000        1.0080           0
      5359 WT1      543      MECN     C2       CG1N1    0.360000       12.0110           0
      5360 WT1      543      MECN     N3       NG1T1   -0.460000       14.0070           0
      5361 WT1      544      MECN     C1       CG331   -0.170000       12.0110           0
      5362 WT1      544      MECN     H11      HGA3     0.090000        1.0080           0
      5363 WT1      544      MECN     H12      HGA3     0.090000        1.0080           0
      5364 WT1      544      MECN     H13      HGA3     0.090000        1.0080           0
      5365 WT1      544      MECN     C2       CG1N1    0.360000       12.0110           0
      5366 WT1      544      MECN     N3       NG1T1   -0.460000       14.0070           0
      5367 WT1      546      MECN     C1       CG331   -0.170000       12.0110           0
      5368 WT1      546      MECN     H11      HGA3     0.090000        1.0080           0
      5369 WT1      546      MECN     H12      HGA3     0.090000        1.0080           0
      5370 WT1      546      MECN     H13      HGA3     0.090000        1.0080           0
      5371 WT1      546      MECN     C2       CG1N1    0.360000       12.0110           0
      5372 WT1      546      MECN     N3       NG1T1   -0.460000       14.0070           0
      5373 WT1      560      MECN     C1       CG331   -0.170000       12.0110           0
      5374 WT1      560      MECN     H11      HGA3     0.090000        1.0080           0
      5375 WT1      560      MECN     H12      HGA3     0.090000        1.0080           0
      5376 WT1      560      MECN     H13      HGA3     0.090000        1.0080           0
      5377 WT1      560      MECN     C2       CG1N1    0.360000       12.0110           0
      5378 WT1      560      MECN     N3       NG1T1   -0.460000       14.0070           0
      5379 WT1      579      MECN     C1       CG331   -0.170000       12.0110           0
      5380 WT1      579      MECN     H11      HGA3     0.090000        1.0080           0
      5381 WT1      579      MECN     H12      HGA3     0.090000        1.0080           0
      5382 WT1      579      MECN     H13      HGA3     0.090000        1.0080           0
      5383 WT1      579      MECN     C2       CG1N1    0.360000       12.0110           0
      5384 WT1      579      MECN     N3       NG1T1   -0.460000       14.0070           0
      5385 WT1      584      MECN     C1       CG331   -0.170000       12.0110           0
      5386 WT1      584      MECN     H11      HGA3     0.090000        1.0080           0
      5387 WT1      584      MECN     H12      HGA3     0.090000        1.0080           0
      5388 WT1      584      MECN     H13      HGA3     0.090000        1.0080           0
      5389 WT1      584      MECN     C2       CG1N1    0.360000       12.0110           0
      5390 WT1      584      MECN     N3       NG1T1   -0.460000       14.0070           0
      5391 WT1      585      MECN     C1       CG331   -0.170000       12.0110           0
      5392 WT1      585      MECN     H11      HGA3     0.090000        1.0080           0
      5393 WT1      585      MECN     H12      HGA3     0.090000        1.0080           0
      5394 WT1      585      MECN     H13      HGA3     0.090000        1.0080           0
      5395 WT1      585      MECN     C2       CG1N1    0.360000       12.0110           0
      5396 WT1      585      MECN     N3       NG1T1   -0.460000       14.0070           0
      5397 WT1      586      MECN     C1       CG331   -0.170000       12.0110           0
      5398 WT1      586      MECN     H11      HGA3     0.090000        1.0080           0
      5399 WT1      586      MECN     H12      HGA3     0.090000        1.0080           0
      5400 WT1      586      MECN     H13      HGA3     0.090000        1.0080           0
      5401 WT1      586      MECN     C2       CG1N1    0.360000       12.0110           0
      5402 WT1      586      MECN     N3       NG1T1   -0.460000       14.0070           0
      5403 WT1      620      MECN     C1       CG331   -0.170000       12.0110           0
      5404 WT1      620      MECN     H11      HGA3     0.090000        1.0080           0
      5405 WT1      620      MECN     H12      HGA3     0.090000        1.0080           0
      5406 WT1      620      MECN     H13      HGA3     0.090000        1.0080           0
      5407 WT1      620      MECN     C2       CG1N1    0.360000       12.0110           0
      5408 WT1      620      MECN     N3       NG1T1   -0.460000       14.0070           0
      5409 WT1      623      MECN     C1       CG331   -0.170000       12.0110           0
      5410 WT1      623      MECN     H11      HGA3     0.090000        1.0080           0
      5411 WT1      623      MECN     H12      HGA3     0.090000        1.0080           0
      5412 WT1      623      MECN     H13      HGA3     0.090000        1.0080           0
      5413 WT1      623      MECN     C2       CG1N1    0.360000       12.0110           0
      5414 WT1      623      MECN     N3       NG1T1   -0.460000       14.0070           0
      5415 WT1      625      MECN     C1       CG331   -0.170000       12.0110           0
      5416 WT1      625      MECN     H11      HGA3     0.090000        1.0080           0
      5417 WT1      625      MECN     H12      HGA3     0.090000        1.0080           0
      5418 WT1      625      MECN     H13      HGA3     0.090000        1.0080           0
      5419 WT1      625      MECN     C2       CG1N1    0.360000       12.0110           0
      5420 WT1      625      MECN     N3       NG1T1   -0.460000       14.0070           0
      5421 WT1      633      MECN     C1       CG331   -0.170000       12.0110           0
      5422 WT1      633      MECN     H11      HGA3     0.090000        1.0080           0
      5423 WT1      633      MECN     H12      HGA3     0.090000        1.0080           0
      5424 WT1      633      MECN     H13      HGA3     0.090000        1.0080           0
      5425 WT1      633      MECN     C2       CG1N1    0.360000       12.0110           0
      5426 WT1      633      MECN     N3       NG1T1   -0.460000       14.0070           0
      5427 WT1      636      MECN     C1       CG331   -0.170000       12.0110           0
      5428 WT1      636      MECN     H11      HGA3     0.090000        1.0080           0
      5429 WT1      636      MECN     H12      HGA3     0.090000        1.0080           0
      5430 WT1      636      MECN     H13      HGA3     0.090000        1.0080           0
      5431 WT1      636      MECN     C2       CG1N1    0.360000       12.0110           0
      5432 WT1      636      MECN     N3       NG1T1   -0.460000       14.0070           0
      5433 WT1      639      MECN     C1       CG331   -0.170000       12.0110           0
      5434 WT1      639      MECN     H11      HGA3     0.090000        1.0080           0
      5435 WT1      639      MECN     H12      HGA3     0.090000        1.0080           0
      5436 WT1      639      MECN     H13      HGA3     0.090000        1.0080           0
      5437 WT1      639      MECN     C2       CG1N1    0.360000       12.0110           0
      5438 WT1      639      MECN     N3       NG1T1   -0.460000       14.0070           0
      5439 WT1      650      MECN     C1       CG331   -0.170000       12.0110           0
      5440 WT1      650      MECN     H11      HGA3     0.090000        1.0080           0
      5441 WT1      650      MECN     H12      HGA3     0.090000        1.0080           0
      5442 WT1      650      MECN     H13      HGA3     0.090000        1.0080           0
      5443 WT1      650      MECN     C2       CG1N1    0.360000       12.0110           0
      5444 WT1      650      MECN     N3       NG1T1   -0.460000       14.0070           0
      5445 WT1      651      MECN     C1       CG331   -0.170000       12.0110           0
      5446 WT1      651      MECN     H11      HGA3     0.090000        1.0080           0
      5447 WT1      651      MECN     H12      HGA3     0.090000        1.0080           0
      5448 WT1      651      MECN     H13      HGA3     0.090000        1.0080           0
      5449 WT1      651      MECN     C2       CG1N1    0.360000       12.0110           0
      5450 WT1      651      MECN     N3       NG1T1   -0.460000       14.0070           0
      5451 WT1      656      MECN     C1       CG331   -0.170000       12.0110           0
      5452 WT1      656      MECN     H11      HGA3     0.090000        1.0080           0
      5453 WT1      656      MECN     H12      HGA3     0.090000        1.0080           0
      5454 WT1      656      MECN     H13      HGA3     0.090000        1.0080           0
      5455 WT1      656      MECN     C2       CG1N1    0.360000       12.0110           0
      5456 WT1      656      MECN     N3       NG1T1   -0.460000       14.0070           0
      5457 WT1      658      MECN     C1       CG331   -0.170000       12.0110           0
      5458 WT1      658      MECN     H11      HGA3     0.090000        1.0080           0
      5459 WT1      658      MECN     H12      HGA3     0.090000        1.0080           0
      5460 WT1      658      MECN     H13      HGA3     0.090000        1.0080           0
      5461 WT1      658      MECN     C2       CG1N1    0.360000       12.0110           0
      5462 WT1      658      MECN     N3       NG1T1   -0.460000       14.0070           0
      5463 WT1      659      MECN     C1       CG331   -0.170000       12.0110           0
      5464 WT1      659      MECN     H11      HGA3     0.090000        1.0080           0
      5465 WT1      659      MECN     H12      HGA3     0.090000        1.0080           0
      5466 WT1      659      MECN     H13      HGA3     0.090000        1.0080           0
      5467 WT1      659      MECN     C2       CG1N1    0.360000       12.0110           0
      5468 WT1      659      MECN     N3       NG1T1   -0.460000       14.0070           0
      5469 WT1      661      MECN     C1       CG331   -0.170000       12.0110           0
      5470 WT1      661      MECN     H11      HGA3     0.090000        1.0080           0
      5471 WT1      661      MECN     H12      HGA3     0.090000        1.0080           0
      5472 WT1      661      MECN     H13      HGA3     0.090000        1.0080           0
      5473 WT1      661      MECN     C2       CG1N1    0.360000       12.0110           0
      5474 WT1      661      MECN     N3       NG1T1   -0.460000       14.0070           0
      5475 WT1      667      MECN     C1       CG331   -0.170000       12.0110           0
      5476 WT1      667      MECN     H11      HGA3     0.090000        1.0080           0
      5477 WT1      667      MECN     H12      HGA3     0.090000        1.0080           0
      5478 WT1      667      MECN     H13      HGA3     0.090000        1.0080           0
      5479 WT1      667      MECN     C2       CG1N1    0.360000       12.0110           0
      5480 WT1      667      MECN     N3       NG1T1   -0.460000       14.0070           0
      5481 WT1      672      MECN     C1       CG331   -0.170000       12.0110           0
      5482 WT1      672      MECN     H11      HGA3     0.090000        1.0080           0
      5483 WT1      672      MECN     H12      HGA3     0.090000        1.0080           0
      5484 WT1      672      MECN     H13      HGA3     0.090000        1.0080           0
      5485 WT1      672      MECN     C2       CG1N1    0.360000       12.0110           0
      5486 WT1      672      MECN     N3       NG1T1   -0.460000       14.0070           0
      5487 WT1      673      MECN     C1       CG331   -0.170000       12.0110           0
      5488 WT1      673      MECN     H11      HGA3     0.090000        1.0080           0
      5489 WT1      673      MECN     H12      HGA3     0.090000        1.0080           0
      5490 WT1      673      MECN     H13      HGA3     0.090000        1.0080           0
      5491 WT1      673      MECN     C2       CG1N1    0.360000       12.0110           0
      5492 WT1      673      MECN     N3       NG1T1   -0.460000       14.0070           0
      5493 WT1      680      MECN     C1       CG331   -0.170000       12.0110           0
      5494 WT1      680      MECN     H11      HGA3     0.090000        1.0080           0
      5495 WT1      680      MECN     H12      HGA3     0.090000        1.0080           0
      5496 WT1      680      MECN     H13      HGA3     0.090000        1.0080           0
      5497 WT1      680      MECN     C2       CG1N1    0.360000       12.0110           0
      5498 WT1      680      MECN     N3       NG1T1   -0.460000       14.0070           0
      5499 WT1      696      MECN     C1       CG331   -0.170000       12.0110           0
      5500 WT1      696      MECN     H11      HGA3     0.090000        1.0080           0
      5501 WT1      696      MECN     H12      HGA3     0.090000        1.0080           0
      5502 WT1      696      MECN     H13      HGA3     0.090000        1.0080           0
      5503 WT1      696      MECN     C2       CG1N1    0.360000       12.0110           0
      5504 WT1      696      MECN     N3       NG1T1   -0.460000       14.0070           0
      5505 WT1      699      MECN     C1       CG331   -0.170000       12.0110           0
      5506 WT1      699      MECN     H11      HGA3     0.090000        1.0080           0
      5507 WT1      699      MECN     H12      HGA3     0.090000        1.0080           0
      5508 WT1      699      MECN     H13      HGA3     0.090000        1.0080           0
      5509 WT1      699      MECN     C2       CG1N1    0.360000       12.0110           0
      5510 WT1      699      MECN     N3       NG1T1   -0.460000       14.0070           0
      5511 WT1      722      MECN     C1       CG331   -0.170000       12.0110           0
      5512 WT1      722      MECN     H11      HGA3     0.090000        1.0080           0
      5513 WT1      722      MECN     H12      HGA3     0.090000        1.0080           0
      5514 WT1      722      MECN     H13      HGA3     0.090000        1.0080           0
      5515 WT1      722      MECN     C2       CG1N1    0.360000       12.0110           0
      5516 WT1      722      MECN     N3       NG1T1   -0.460000       14.0070           0
      5517 WT1      724      MECN     C1       CG331   -0.170000       12.0110           0
      5518 WT1      724      MECN     H11      HGA3     0.090000        1.0080           0
      5519 WT1      724      MECN     H12      HGA3     0.090000        1.0080           0
      5520 WT1      724      MECN     H13      HGA3     0.090000        1.0080           0
      5521 WT1      724      MECN     C2       CG1N1    0.360000       12.0110           0
      5522 WT1      724      MECN     N3       NG1T1   -0.460000       14.0070           0
      5523 WT1      726      MECN     C1       CG331   -0.170000       12.0110           0
      5524 WT1      726      MECN     H11      HGA3     0.090000        1.0080           0
      5525 WT1      726      MECN     H12      HGA3     0.090000        1.0080           0
      5526 WT1      726      MECN     H13      HGA3     0.090000        1.0080           0
      5527 WT1      726      MECN     C2       CG1N1    0.360000       12.0110           0
      5528 WT1      726      MECN     N3       NG1T1   -0.460000       14.0070           0
      5529 WT1      762      MECN     C1       CG331   -0.170000       12.0110           0
      5530 WT1      762      MECN     H11      HGA3     0.090000        1.0080           0
      5531 WT1      762      MECN     H12      HGA3     0.090000        1.0080           0
      5532 WT1      762      MECN     H13      HGA3     0.090000        1.0080           0
      5533 WT1      762      MECN     C2       CG1N1    0.360000       12.0110           0
      5534 WT1      762      MECN     N3       NG1T1   -0.460000       14.0070           0
      5535 WT1      765      MECN     C1       CG331   -0.170000       12.0110           0
      5536 WT1      765      MECN     H11      HGA3     0.090000        1.0080           0
      5537 WT1      765      MECN     H12      HGA3     0.090000        1.0080           0
      5538 WT1      765      MECN     H13      HGA3     0.090000        1.0080           0
      5539 WT1      765      MECN     C2       CG1N1    0.360000       12.0110           0
      5540 WT1      765      MECN     N3       NG1T1   -0.460000       14.0070           0
      5541 WT1      770      MECN     C1       CG331   -0.170000       12.0110           0
      5542 WT1      770      MECN     H11      HGA3     0.090000        1.0080           0
      5543 WT1      770      MECN     H12      HGA3     0.090000        1.0080           0
      5544 WT1      770      MECN     H13      HGA3     0.090000        1.0080           0
      5545 WT1      770      MECN     C2       CG1N1    0.360000       12.0110           0
      5546 WT1      770      MECN     N3       NG1T1   -0.460000       14.0070           0
      5547 WT1      783      MECN     C1       CG331   -0.170000       12.0110           0
      5548 WT1      783      MECN     H11      HGA3     0.090000        1.0080           0
      5549 WT1      783      MECN     H12      HGA3     0.090000        1.0080           0
      5550 WT1      783      MECN     H13      HGA3     0.090000        1.0080           0
      5551 WT1      783      MECN     C2       CG1N1    0.360000       12.0110           0
      5552 WT1      783      MECN     N3       NG1T1   -0.460000       14.0070           0
      5553 WT1      791      MECN     C1       CG331   -0.170000       12.0110           0
      5554 WT1      791      MECN     H11      HGA3     0.090000        1.0080           0
      5555 WT1      791      MECN     H12      HGA3     0.090000        1.0080           0
      5556 WT1      791      MECN     H13      HGA3     0.090000        1.0080           0
      5557 WT1      791      MECN     C2       CG1N1    0.360000       12.0110           0
      5558 WT1      791      MECN     N3       NG1T1   -0.460000       14.0070           0
      5559 WT1      805      MECN     C1       CG331   -0.170000       12.0110           0
      5560 WT1      805      MECN     H11      HGA3     0.090000        1.0080           0
      5561 WT1      805      MECN     H12      HGA3     0.090000        1.0080           0
      5562 WT1      805      MECN     H13      HGA3     0.090000        1.0080           0
      5563 WT1      805      MECN     C2       CG1N1    0.360000       12.0110           0
      5564 WT1      805      MECN     N3       NG1T1   -0.460000       14.0070           0
      5565 WT1      807      MECN     C1       CG331   -0.170000       12.0110           0
      5566 WT1      807      MECN     H11      HGA3     0.090000        1.0080           0
      5567 WT1      807      MECN     H12      HGA3     0.090000        1.0080           0
      5568 WT1      807      MECN     H13      HGA3     0.090000        1.0080           0
      5569 WT1      807      MECN     C2       CG1N1    0.360000       12.0110           0
      5570 WT1      807      MECN     N3       NG1T1   -0.460000       14.0070           0
      5571 WT1      818      MECN     C1       CG331   -0.170000       12.0110           0
      5572 WT1      818      MECN     H11      HGA3     0.090000        1.0080           0
      5573 WT1      818      MECN     H12      HGA3     0.090000        1.0080           0
      5574 WT1      818      MECN     H13      HGA3     0.090000        1.0080           0
      5575 WT1      818      MECN     C2       CG1N1    0.360000       12.0110           0
      5576 WT1      818      MECN     N3       NG1T1   -0.460000       14.0070           0
      5577 WT1      839      MECN     C1       CG331   -0.170000       12.0110           0
      5578 WT1      839      MECN     H11      HGA3     0.090000        1.0080           0
      5579 WT1      839      MECN     H12      HGA3     0.090000        1.0080           0
      5580 WT1      839      MECN     H13      HGA3     0.090000        1.0080           0
      5581 WT1      839      MECN     C2       CG1N1    0.360000       12.0110           0
      5582 WT1      839      MECN     N3       NG1T1   -0.460000       14.0070           0
      5583 WT1      862      MECN     C1       CG331   -0.170000       12.0110           0
      5584 WT1      862      MECN     H11      HGA3     0.090000        1.0080           0
      5585 WT1      862      MECN     H12      HGA3     0.090000        1.0080           0
      5586 WT1      862      MECN     H13      HGA3     0.090000        1.0080           0
      5587 WT1      862      MECN     C2       CG1N1    0.360000       12.0110           0
      5588 WT1      862      MECN     N3       NG1T1   -0.460000       14.0070           0
      5589 WT1      866      MECN     C1       CG331   -0.170000       12.0110           0
      5590 WT1      866      MECN     H11      HGA3     0.090000        1.0080           0
      5591 WT1      866      MECN     H12      HGA3     0.090000        1.0080           0
      5592 WT1      866      MECN     H13      HGA3     0.090000        1.0080           0
      5593 WT1      866      MECN     C2       CG1N1    0.360000       12.0110           0
      5594 WT1      866      MECN     N3       NG1T1   -0.460000       14.0070           0
      5595 WT1      867      MECN     C1       CG331   -0.170000       12.0110           0
      5596 WT1      867      MECN     H11      HGA3     0.090000        1.0080           0
      5597 WT1      867      MECN     H12      HGA3     0.090000        1.0080           0
      5598 WT1      867      MECN     H13      HGA3     0.090000        1.0080           0
      5599 WT1      867      MECN     C2       CG1N1    0.360000       12.0110           0
      5600 WT1      867      MECN     N3       NG1T1   -0.460000       14.0070           0
      5601 WT1      875      MECN     C1       CG331   -0.170000       12.0110           0
      5602 WT1      875      MECN     H11      HGA3     0.090000        1.0080           0
      5603 WT1      875      MECN     H12      HGA3     0.090000        1.0080           0
      5604 WT1      875      MECN     H13      HGA3     0.090000        1.0080           0
      5605 WT1      875      MECN     C2       CG1N1    0.360000       12.0110           0
      5606 WT1      875      MECN     N3       NG1T1   -0.460000       14.0070           0
      5607 WT1      882      MECN     C1       CG331   -0.170000       12.0110           0
      5608 WT1      882      MECN     H11      HGA3     0.090000        1.0080           0
      5609 WT1      882      MECN     H12      HGA3     0.090000        1.0080           0
      5610 WT1      882      MECN     H13      HGA3     0.090000        1.0080           0
      5611 WT1      882      MECN     C2       CG1N1    0.360000       12.0110           0
      5612 WT1      882      MECN     N3       NG1T1   -0.460000       14.0070           0
      5613 WT1      897      MECN     C1       CG331   -0.170000       12.0110           0
      5614 WT1      897      MECN     H11      HGA3     0.090000        1.0080           0
      5615 WT1      897      MECN     H12      HGA3     0.090000        1.0080           0
      5616 WT1      897      MECN     H13      HGA3     0.090000        1.0080           0
      5617 WT1      897      MECN     C2       CG1N1    0.360000       12.0110           0
      5618 WT1      897      MECN     N3       NG1T1   -0.460000       14.0070           0
      5619 WT1      899      MECN     C1       CG331   -0.170000       12.0110           0
      5620 WT1      899      MECN     H11      HGA3     0.090000        1.0080           0
      5621 WT1      899      MECN     H12      HGA3     0.090000        1.0080           0
      5622 WT1      899      MECN     H13      HGA3     0.090000        1.0080           0
      5623 WT1      899      MECN     C2       CG1N1    0.360000       12.0110           0
      5624 WT1      899      MECN     N3       NG1T1   -0.460000       14.0070           0
      5625 WT1      902      MECN     C1       CG331   -0.170000       12.0110           0
      5626 WT1      902      MECN     H11      HGA3     0.090000        1.0080           0
      5627 WT1      902      MECN     H12      HGA3     0.090000        1.0080           0
      5628 WT1      902      MECN     H13      HGA3     0.090000        1.0080           0
      5629 WT1      902      MECN     C2       CG1N1    0.360000       12.0110           0
      5630 WT1      902      MECN     N3       NG1T1   -0.460000       14.0070           0
      5631 WT1      904      MECN     C1       CG331   -0.170000       12.0110           0
      5632 WT1      904      MECN     H11      HGA3     0.090000        1.0080           0
      5633 WT1      904      MECN     H12      HGA3     0.090000        1.0080           0
      5634 WT1      904      MECN     H13      HGA3     0.090000        1.0080           0
      5635 WT1      904      MECN     C2       CG1N1    0.360000       12.0110           0
      5636 WT1      904      MECN     N3       NG1T1   -0.460000       14.0070           0
      5637 WT1      914      MECN     C1       CG331   -0.170000       12.0110           0
      5638 WT1      914      MECN     H11      HGA3     0.090000        1.0080           0
      5639 WT1      914      MECN     H12      HGA3     0.090000        1.0080           0
      5640 WT1      914      MECN     H13      HGA3     0.090000        1.0080           0
      5641 WT1      914      MECN     C2       CG1N1    0.360000       12.0110           0
      5642 WT1      914      MECN     N3       NG1T1   -0.460000       14.0070           0
      5643 WT1      916      MECN     C1       CG331   -0.170000       12.0110           0
      5644 WT1      916      MECN     H11      HGA3     0.090000        1.0080           0
      5645 WT1      916      MECN     H12      HGA3     0.090000        1.0080           0
      5646 WT1      916      MECN     H13      HGA3     0.090000        1.0080           0
      5647 WT1      916      MECN     C2       CG1N1    0.360000       12.0110           0
      5648 WT1      916      MECN     N3       NG1T1   -0.460000       14.0070           0
      5649 WT1      918      MECN     C1       CG331   -0.170000       12.0110           0
      5650 WT1      918      MECN     H11      HGA3     0.090000        1.0080           0
      5651 WT1      918      MECN     H12      HGA3     0.090000        1.0080           0
      5652 WT1      918      MECN     H13      HGA3     0.090000        1.0080           0
      5653 WT1      918      MECN     C2       CG1N1    0.360000       12.0110           0
      5654 WT1      918      MECN     N3       NG1T1   -0.460000       14.0070           0
      5655 WT1      922      MECN     C1       CG331   -0.170000       12.0110           0
      5656 WT1      922      MECN     H11      HGA3     0.090000        1.0080           0
      5657 WT1      922      MECN     H12      HGA3     0.090000        1.0080           0
      5658 WT1      922      MECN     H13      HGA3     0.090000        1.0080           0
      5659 WT1      922      MECN     C2       CG1N1    0.360000       12.0110           0
      5660 WT1      922      MECN     N3       NG1T1   -0.460000       14.0070           0
      5661 WT1      934      MECN     C1       CG331   -0.170000       12.0110           0
      5662 WT1      934      MECN     H11      HGA3     0.090000        1.0080           0
      5663 WT1      934      MECN     H12      HGA3     0.090000        1.0080           0
      5664 WT1      934      MECN     H13      HGA3     0.090000        1.0080           0
      5665 WT1      934      MECN     C2       CG1N1    0.360000       12.0110           0
      5666 WT1      934      MECN     N3       NG1T1   -0.460000       14.0070           0
      5667 WT1      935      MECN     C1       CG331   -0.170000       12.0110           0
      5668 WT1      935      MECN     H11      HGA3     0.090000        1.0080           0
      5669 WT1      935      MECN     H12      HGA3     0.090000        1.0080           0
      5670 WT1      935      MECN     H13      HGA3     0.090000        1.0080           0
      5671 WT1      935      MECN     C2       CG1N1    0.360000       12.0110           0
      5672 WT1      935      MECN     N3       NG1T1   -0.460000       14.0070           0
      5673 WT1      938      MECN     C1       CG331   -0.170000       12.0110           0
      5674 WT1      938      MECN     H11      HGA3     0.090000        1.0080           0
      5675 WT1      938      MECN     H12      HGA3     0.090000        1.0080           0
      5676 WT1      938      MECN     H13      HGA3     0.090000        1.0080           0
      5677 WT1      938      MECN     C2       CG1N1    0.360000       12.0110           0
      5678 WT1      938      MECN     N3       NG1T1   -0.460000       14.0070           0
      5679 WT1      939      MECN     C1       CG331   -0.170000       12.0110           0
      5680 WT1      939      MECN     H11      HGA3     0.090000        1.0080           0
      5681 WT1      939      MECN     H12      HGA3     0.090000        1.0080           0
      5682 WT1      939      MECN     H13      HGA3     0.090000        1.0080           0
      5683 WT1      939      MECN     C2       CG1N1    0.360000       12.0110           0
      5684 WT1      939      MECN     N3       NG1T1   -0.460000       14.0070           0
      5685 WT1      943      MECN     C1       CG331   -0.170000       12.0110           0
      5686 WT1      943      MECN     H11      HGA3     0.090000        1.0080           0
      5687 WT1      943      MECN     H12      HGA3     0.090000        1.0080           0
      5688 WT1      943      MECN     H13      HGA3     0.090000        1.0080           0
      5689 WT1      943      MECN     C2       CG1N1    0.360000       12.0110           0
      5690 WT1      943      MECN     N3       NG1T1   -0.460000       14.0070           0
      5691 WT1      983      MECN     C1       CG331   -0.170000       12.0110           0
      5692 WT1      983      MECN     H11      HGA3     0.090000        1.0080           0
      5693 WT1      983      MECN     H12      HGA3     0.090000        1.0080           0
      5694 WT1      983      MECN     H13      HGA3     0.090000        1.0080           0
      5695 WT1      983      MECN     C2       CG1N1    0.360000       12.0110           0
      5696 WT1      983      MECN     N3       NG1T1   -0.460000       14.0070           0
      5697 WT1      986      MECN     C1       CG331   -0.170000       12.0110           0
      5698 WT1      986      MECN     H11      HGA3     0.090000        1.0080           0
      5699 WT1      986      MECN     H12      HGA3     0.090000        1.0080           0
      5700 WT1      986      MECN     H13      HGA3     0.090000        1.0080           0
      5701 WT1      986      MECN     C2       CG1N1    0.360000       12.0110           0
      5702 WT1      986      MECN     N3       NG1T1   -0.460000       14.0070           0
      5703 WT1      988      MECN     C1       CG331   -0.170000       12.0110           0
      5704 WT1      988      MECN     H11      HGA3     0.090000        1.0080           0
      5705 WT1      988      MECN     H12      HGA3     0.090000        1.0080           0
      5706 WT1      988      MECN     H13      HGA3     0.090000        1.0080           0
      5707 WT1      988      MECN     C2       CG1N1    0.360000       12.0110           0
      5708 WT1      988      MECN     N3       NG1T1   -0.460000       14.0070           0
      5709 WT1      1006     MECN     C1       CG331   -0.170000       12.0110           0
      5710 WT1      1006     MECN     H11      HGA3     0.090000        1.0080           0
      5711 WT1      1006     MECN     H12      HGA3     0.090000        1.0080           0
      5712 WT1      1006     MECN     H13      HGA3     0.090000        1.0080           0
      5713 WT1      1006     MECN     C2       CG1N1    0.360000       12.0110           0
      5714 WT1      1006     MECN     N3       NG1T1   -0.460000       14.0070           0
      5715 WT1      1020     MECN     C1       CG331   -0.170000       12.0110           0
      5716 WT1      1020     MECN     H11      HGA3     0.090000        1.0080           0
      5717 WT1      1020     MECN     H12      HGA3     0.090000        1.0080           0
      5718 WT1      1020     MECN     H13      HGA3     0.090000        1.0080           0
      5719 WT1      1020     MECN     C2       CG1N1    0.360000       12.0110           0
      5720 WT1      1020     MECN     N3       NG1T1   -0.460000       14.0070           0
      5721 WT1      1030     MECN     C1       CG331   -0.170000       12.0110           0
      5722 WT1      1030     MECN     H11      HGA3     0.090000        1.0080           0
      5723 WT1      1030     MECN     H12      HGA3     0.090000        1.0080           0
      5724 WT1      1030     MECN     H13      HGA3     0.090000        1.0080           0
      5725 WT1      1030     MECN     C2       CG1N1    0.360000       12.0110           0
      5726 WT1      1030     MECN     N3       NG1T1   -0.460000       14.0070           0
      5727 WT1      1050     MECN     C1       CG331   -0.170000       12.0110           0
      5728 WT1      1050     MECN     H11      HGA3     0.090000        1.0080           0
      5729 WT1      1050     MECN     H12      HGA3     0.090000        1.0080           0
      5730 WT1      1050     MECN     H13      HGA3     0.090000        1.0080           0
      5731 WT1      1050     MECN     C2       CG1N1    0.360000       12.0110           0
      5732 WT1      1050     MECN     N3       NG1T1   -0.460000       14.0070           0
      5733 WT1      1054     MECN     C1       CG331   -0.170000       12.0110           0
      5734 WT1      1054     MECN     H11      HGA3     0.090000        1.0080           0
      5735 WT1      1054     MECN     H12      HGA3     0.090000        1.0080           0
      5736 WT1      1054     MECN     H13      HGA3     0.090000        1.0080           0
      5737 WT1      1054     MECN     C2       CG1N1    0.360000       12.0110           0
      5738 WT1      1054     MECN     N3       NG1T1   -0.460000       14.0070           0
      5739 WT1      1098     MECN     C1       CG331   -0.170000       12.0110           0
      5740 WT1      1098     MECN     H11      HGA3     0.090000        1.0080           0
      5741 WT1      1098     MECN     H12      HGA3     0.090000        1.0080           0
      5742 WT1      1098     MECN     H13      HGA3     0.090000        1.0080           0
      5743 WT1      1098     MECN     C2       CG1N1    0.360000       12.0110           0
      5744 WT1      1098     MECN     N3       NG1T1   -0.460000       14.0070           0
      5745 WT1      1099     MECN     C1       CG331   -0.170000       12.0110           0
      5746 WT1      1099     MECN     H11      HGA3     0.090000        1.0080           0
      5747 WT1      1099     MECN     H12      HGA3     0.090000        1.0080           0
      5748 WT1      1099     MECN     H13      HGA3     0.090000        1.0080           0
      5749 WT1      1099     MECN     C2       CG1N1    0.360000       12.0110           0
      5750 WT1      1099     MECN     N3       NG1T1   -0.460000       14.0070           0
      5751 WT1      1115     MECN     C1       CG331   -0.170000       12.0110           0
      5752 WT1      1115     MECN     H11      HGA3     0.090000        1.0080           0
      5753 WT1      1115     MECN     H12      HGA3     0.090000        1.0080           0
      5754 WT1      1115     MECN     H13      HGA3     0.090000        1.0080           0
      5755 WT1      1115     MECN     C2       CG1N1    0.360000       12.0110           0
      5756 WT1      1115     MECN     N3       NG1T1   -0.460000       14.0070           0
      5757 WT1      1121     MECN     C1       CG331   -0.170000       12.0110           0
      5758 WT1      1121     MECN     H11      HGA3     0.090000        1.0080           0
      5759 WT1      1121     MECN     H12      HGA3     0.090000        1.0080           0
      5760 WT1      1121     MECN     H13      HGA3     0.090000        1.0080           0
      5761 WT1      1121     MECN     C2       CG1N1    0.360000       12.0110           0
      5762 WT1      1121     MECN     N3       NG1T1   -0.460000       14.0070           0
      5763 WT1      1136     MECN     C1       CG331   -0.170000       12.0110           0
      5764 WT1      1136     MECN     H11      HGA3     0.090000        1.0080           0
      5765 WT1      1136     MECN     H12      HGA3     0.090000        1.0080           0
      5766 WT1      1136     MECN     H13      HGA3     0.090000        1.0080           0
      5767 WT1      1136     MECN     C2       CG1N1    0.360000       12.0110           0
      5768 WT1      1136     MECN     N3       NG1T1   -0.460000       14.0070           0
      5769 WT1      1143     MECN     C1       CG331   -0.170000       12.0110           0
      5770 WT1      1143     MECN     H11      HGA3     0.090000        1.0080           0
      5771 WT1      1143     MECN     H12      HGA3     0.090000        1.0080           0
      5772 WT1      1143     MECN     H13      HGA3     0.090000        1.0080           0
      5773 WT1      1143     MECN     C2       CG1N1    0.360000       12.0110           0
      5774 WT1      1143     MECN     N3       NG1T1   -0.460000       14.0070           0
      5775 WT1      1178     MECN     C1       CG331   -0.170000       12.0110           0
      5776 WT1      1178     MECN     H11      HGA3     0.090000        1.0080           0
      5777 WT1      1178     MECN     H12      HGA3     0.090000        1.0080           0
      5778 WT1      1178     MECN     H13      HGA3     0.090000        1.0080           0
      5779 WT1      1178     MECN     C2       CG1N1    0.360000       12.0110           0
      5780 WT1      1178     MECN     N3       NG1T1   -0.460000       14.0070           0
      5781 WT1      1195     MECN     C1       CG331   -0.170000       12.0110           0
      5782 WT1      1195     MECN     H11      HGA3     0.090000        1.0080           0
      5783 WT1      1195     MECN     H12      HGA3     0.090000        1.0080           0
      5784 WT1      1195     MECN     H13      HGA3     0.090000        1.0080           0
      5785 WT1      1195     MECN     C2       CG1N1    0.360000       12.0110           0
      5786 WT1      1195     MECN     N3       NG1T1   -0.460000       14.0070           0
      5787 WT1      1207     MECN     C1       CG331   -0.170000       12.0110           0
      5788 WT1      1207     MECN     H11      HGA3     0.090000        1.0080           0
      5789 WT1      1207     MECN     H12      HGA3     0.090000        1.0080           0
      5790 WT1      1207     MECN     H13      HGA3     0.090000        1.0080           0
      5791 WT1      1207     MECN     C2       CG1N1    0.360000       12.0110           0
      5792 WT1      1207     MECN     N3       NG1T1   -0.460000       14.0070           0
      5793 WT1      1215     MECN     C1       CG331   -0.170000       12.0110           0
      5794 WT1      1215     MECN     H11      HGA3     0.090000        1.0080           0
      5795 WT1      1215     MECN     H12      HGA3     0.090000        1.0080           0
      5796 WT1      1215     MECN     H13      HGA3     0.090000        1.0080           0
      5797 WT1      1215     MECN     C2       CG1N1    0.360000       12.0110           0
      5798 WT1      1215     MECN     N3       NG1T1   -0.460000       14.0070           0
      5799 WT1      1228     MECN     C1       CG331   -0.170000       12.0110           0
      5800 WT1      1228     MECN     H11      HGA3     0.090000        1.0080           0
      5801 WT1      1228     MECN     H12      HGA3     0.090000        1.0080           0
      5802 WT1      1228     MECN     H13      HGA3     0.090000        1.0080           0
      5803 WT1      1228     MECN     C2       CG1N1    0.360000       12.0110           0
      5804 WT1      1228     MECN     N3       NG1T1   -0.460000       14.0070           0
      5805 WT1      1236     MECN     C1       CG331   -0.170000       12.0110           0
      5806 WT1      1236     MECN     H11      HGA3     0.090000        1.0080           0
      5807 WT1      1236     MECN     H12      HGA3     0.090000        1.0080           0
      5808 WT1      1236     MECN     H13      HGA3     0.090000        1.0080           0
      5809 WT1      1236     MECN     C2       CG1N1    0.360000       12.0110           0
      5810 WT1      1236     MECN     N3       NG1T1   -0.460000       14.0070           0
      5811 WT1      1242     MECN     C1       CG331   -0.170000       12.0110           0
      5812 WT1      1242     MECN     H11      HGA3     0.090000        1.0080           0
      5813 WT1      1242     MECN     H12      HGA3     0.090000        1.0080           0
      5814 WT1      1242     MECN     H13      HGA3     0.090000        1.0080           0
      5815 WT1      1242     MECN     C2       CG1N1    0.360000       12.0110           0
      5816 WT1      1242     MECN     N3       NG1T1   -0.460000       14.0070           0
      5817 WT1      1245     MECN     C1       CG331   -0.170000       12.0110           0
      5818 WT1      1245     MECN     H11      HGA3     0.090000        1.0080           0
      5819 WT1      1245     MECN     H12      HGA3     0.090000        1.0080           0
      5820 WT1      1245     MECN     H13      HGA3     0.090000        1.0080           0
      5821 WT1      1245     MECN     C2       CG1N1    0.360000       12.0110           0
      5822 WT1      1245     MECN     N3       NG1T1   -0.460000       14.0070           0
      5823 WT1      1246     MECN     C1       CG331   -0.170000       12.0110           0
      5824 WT1      1246     MECN     H11      HGA3     0.090000        1.0080           0
      5825 WT1      1246     MECN     H12      HGA3     0.090000        1.0080           0
      5826 WT1      1246     MECN     H13      HGA3     0.090000        1.0080           0
      5827 WT1      1246     MECN     C2       CG1N1    0.360000       12.0110           0
      5828 WT1      1246     MECN     N3       NG1T1   -0.460000       14.0070           0
      5829 WT1      1267     MECN     C1       CG331   -0.170000       12.0110           0
      5830 WT1      1267     MECN     H11      HGA3     0.090000        1.0080           0
      5831 WT1      1267     MECN     H12      HGA3     0.090000        1.0080           0
      5832 WT1      1267     MECN     H13      HGA3     0.090000        1.0080           0
      5833 WT1      1267     MECN     C2       CG1N1    0.360000       12.0110           0
      5834 WT1      1267     MECN     N3       NG1T1   -0.460000       14.0070           0
      5835 WT1      1270     MECN     C1       CG331   -0.170000       12.0110           0
      5836 WT1      1270     MECN     H11      HGA3     0.090000        1.0080           0
      5837 WT1      1270     MECN     H12      HGA3     0.090000        1.0080           0
      5838 WT1      1270     MECN     H13      HGA3     0.090000        1.0080           0
      5839 WT1      1270     MECN     C2       CG1N1    0.360000       12.0110           0
      5840 WT1      1270     MECN     N3       NG1T1   -0.460000       14.0070           0
      5841 WT1      1281     MECN     C1       CG331   -0.170000       12.0110           0
      5842 WT1      1281     MECN     H11      HGA3     0.090000        1.0080           0
      5843 WT1      1281     MECN     H12      HGA3     0.090000        1.0080           0
      5844 WT1      1281     MECN     H13      HGA3     0.090000        1.0080           0
      5845 WT1      1281     MECN     C2       CG1N1    0.360000       12.0110           0
      5846 WT1      1281     MECN     N3       NG1T1   -0.460000       14.0070           0
      5847 WT1      1287     MECN     C1       CG331   -0.170000       12.0110           0
      5848 WT1      1287     MECN     H11      HGA3     0.090000        1.0080           0
      5849 WT1      1287     MECN     H12      HGA3     0.090000        1.0080           0
      5850 WT1      1287     MECN     H13      HGA3     0.090000        1.0080           0
      5851 WT1      1287     MECN     C2       CG1N1    0.360000       12.0110           0
      5852 WT1      1287     MECN     N3       NG1T1   -0.460000       14.0070           0
      5853 WT1      1294     MECN     C1       CG331   -0.170000       12.0110           0
      5854 WT1      1294     MECN     H11      HGA3     0.090000        1.0080           0
      5855 WT1      1294     MECN     H12      HGA3     0.090000        1.0080           0
      5856 WT1      1294     MECN     H13      HGA3     0.090000        1.0080           0
      5857 WT1      1294     MECN     C2       CG1N1    0.360000       12.0110           0
      5858 WT1      1294     MECN     N3       NG1T1   -0.460000       14.0070           0
      5859 WT1      1296     MECN     C1       CG331   -0.170000       12.0110           0
      5860 WT1      1296     MECN     H11      HGA3     0.090000        1.0080           0
      5861 WT1      1296     MECN     H12      HGA3     0.090000        1.0080           0
      5862 WT1      1296     MECN     H13      HGA3     0.090000        1.0080           0
      5863 WT1      1296     MECN     C2       CG1N1    0.360000       12.0110           0
      5864 WT1      1296     MECN     N3       NG1T1   -0.460000       14.0070           0
      5865 WT1      1304     MECN     C1       CG331   -0.170000       12.0110           0
      5866 WT1      1304     MECN     H11      HGA3     0.090000        1.0080           0
      5867 WT1      1304     MECN     H12      HGA3     0.090000        1.0080           0
      5868 WT1      1304     MECN     H13      HGA3     0.090000        1.0080           0
      5869 WT1      1304     MECN     C2       CG1N1    0.360000       12.0110           0
      5870 WT1      1304     MECN     N3       NG1T1   -0.460000       14.0070           0
      5871 WT1      1310     MECN     C1       CG331   -0.170000       12.0110           0
      5872 WT1      1310     MECN     H11      HGA3     0.090000        1.0080           0
      5873 WT1      1310     MECN     H12      HGA3     0.090000        1.0080           0
      5874 WT1      1310     MECN     H13      HGA3     0.090000        1.0080           0
      5875 WT1      1310     MECN     C2       CG1N1    0.360000       12.0110           0
      5876 WT1      1310     MECN     N3       NG1T1   -0.460000       14.0070           0
      5877 WT1      1321     MECN     C1       CG331   -0.170000       12.0110           0
      5878 WT1      1321     MECN     H11      HGA3     0.090000        1.0080           0
      5879 WT1      1321     MECN     H12      HGA3     0.090000        1.0080           0
      5880 WT1      1321     MECN     H13      HGA3     0.090000        1.0080           0
      5881 WT1      1321     MECN     C2       CG1N1    0.360000       12.0110           0
      5882 WT1      1321     MECN     N3       NG1T1   -0.460000       14.0070           0
      5883 WT1      1322     MECN     C1       CG331   -0.170000       12.0110           0
      5884 WT1      1322     MECN     H11      HGA3     0.090000        1.0080           0
      5885 WT1      1322     MECN     H12      HGA3     0.090000        1.0080           0
      5886 WT1      1322     MECN     H13      HGA3     0.090000        1.0080           0
      5887 WT1      1322     MECN     C2       CG1N1    0.360000       12.0110           0
      5888 WT1      1322     MECN     N3       NG1T1   -0.460000       14.0070           0
      5889 WT1      1326     MECN     C1       CG331   -0.170000       12.0110           0
      5890 WT1      1326     MECN     H11      HGA3     0.090000        1.0080           0
      5891 WT1      1326     MECN     H12      HGA3     0.090000        1.0080           0
      5892 WT1      1326     MECN     H13      HGA3     0.090000        1.0080           0
      5893 WT1      1326     MECN     C2       CG1N1    0.360000       12.0110           0
      5894 WT1      1326     MECN     N3       NG1T1   -0.460000       14.0070           0
      5895 WT2      3        MECN     C1       CG331   -0.170000       12.0110           0
      5896 WT2      3        MECN     H11      HGA3     0.090000        1.0080           0
      5897 WT2      3        MECN     H12      HGA3     0.090000        1.0080           0
      5898 WT2      3        MECN     H13      HGA3     0.090000        1.0080           0
      5899 WT2      3        MECN     C2       CG1N1    0.360000       12.0110           0
      5900 WT2      3        MECN     N3       NG1T1   -0.460000       14.0070           0
      5901 WT2      9        MECN     C1       CG331   -0.170000       12.0110           0
      5902 WT2      9        MECN     H11      HGA3     0.090000        1.0080           0
      5903 WT2      9        MECN     H12      HGA3     0.090000        1.0080           0
      5904 WT2      9        MECN     H13      HGA3     0.090000        1.0080           0
      5905 WT2      9        MECN     C2       CG1N1    0.360000       12.0110           0
      5906 WT2      9        MECN     N3       NG1T1   -0.460000       14.0070           0
      5907 WT2      10       MECN     C1       CG331   -0.170000       12.0110           0
      5908 WT2      10       MECN     H11      HGA3     0.090000        1.0080           0
      5909 WT2      10       MECN     H12      HGA3     0.090000        1.0080           0
      5910 WT2      10       MECN     H13      HGA3     0.090000        1.0080           0
      5911 WT2      10       MECN     C2       CG1N1    0.360000       12.0110           0
      5912 WT2      10       MECN     N3       NG1T1   -0.460000       14.0070           0
      5913 WT2      12       MECN     C1       CG331   -0.170000       12.0110           0
      5914 WT2      12       MECN     H11      HGA3     0.090000        1.0080           0
      5915 WT2      12       MECN     H12      HGA3     0.090000        1.0080           0
      5916 WT2      12       MECN     H13      HGA3     0.090000        1.0080           0
      5917 WT2      12       MECN     C2       CG1N1    0.360000       12.0110           0
      5918 WT2      12       MECN     N3       NG1T1   -0.460000       14.0070           0
      5919 WT2      14       MECN     C1       CG331   -0.170000       12.0110           0
      5920 WT2      14       MECN     H11      HGA3     0.090000        1.0080           0
      5921 WT2      14       MECN     H12      HGA3     0.090000        1.0080           0
      5922 WT2      14       MECN     H13      HGA3     0.090000        1.0080           0
      5923 WT2      14       MECN     C2       CG1N1    0.360000       12.0110           0
      5924 WT2      14       MECN     N3       NG1T1   -0.460000       14.0070           0
      5925 WT2      16       MECN     C1       CG331   -0.170000       12.0110           0
      5926 WT2      16       MECN     H11      HGA3     0.090000        1.0080           0
      5927 WT2      16       MECN     H12      HGA3     0.090000        1.0080           0
      5928 WT2      16       MECN     H13      HGA3     0.090000        1.0080           0
      5929 WT2      16       MECN     C2       CG1N1    0.360000       12.0110           0
      5930 WT2      16       MECN     N3       NG1T1   -0.460000       14.0070           0
      5931 WT2      21       MECN     C1       CG331   -0.170000       12.0110           0
      5932 WT2      21       MECN     H11      HGA3     0.090000        1.0080           0
      5933 WT2      21       MECN     H12      HGA3     0.090000        1.0080           0
      5934 WT2      21       MECN     H13      HGA3     0.090000        1.0080           0
      5935 WT2      21       MECN     C2       CG1N1    0.360000       12.0110           0
      5936 WT2      21       MECN     N3       NG1T1   -0.460000       14.0070           0
      5937 WT2      22       MECN     C1       CG331   -0.170000       12.0110           0
      5938 WT2      22       MECN     H11      HGA3     0.090000        1.0080           0
      5939 WT2      22       MECN     H12      HGA3     0.090000        1.0080           0
      5940 WT2      22       MECN     H13      HGA3     0.090000        1.0080           0
      5941 WT2      22       MECN     C2       CG1N1    0.360000       12.0110           0
      5942 WT2      22       MECN     N3       NG1T1   -0.460000       14.0070           0
      5943 WT2      27       MECN     C1       CG331   -0.170000       12.0110           0
      5944 WT2      27       MECN     H11      HGA3     0.090000        1.0080           0
      5945 WT2      27       MECN     H12      HGA3     0.090000        1.0080           0
      5946 WT2      27       MECN     H13      HGA3     0.090000        1.0080           0
      5947 WT2      27       MECN     C2       CG1N1    0.360000       12.0110           0
      5948 WT2      27       MECN     N3       NG1T1   -0.460000       14.0070           0
      5949 WT2      28       MECN     C1       CG331   -0.170000       12.0110           0
      5950 WT2      28       MECN     H11      HGA3     0.090000        1.0080           0
      5951 WT2      28       MECN     H12      HGA3     0.090000        1.0080           0
      5952 WT2      28       MECN     H13      HGA3     0.090000        1.0080           0
      5953 WT2      28       MECN     C2       CG1N1    0.360000       12.0110           0
      5954 WT2      28       MECN     N3       NG1T1   -0.460000       14.0070           0
      5955 WT2      31       MECN     C1       CG331   -0.170000       12.0110           0
      5956 WT2      31       MECN     H11      HGA3     0.090000        1.0080           0
      5957 WT2      31       MECN     H12      HGA3     0.090000        1.0080           0
      5958 WT2      31       MECN     H13      HGA3     0.090000        1.0080           0
      5959 WT2      31       MECN     C2       CG1N1    0.360000       12.0110           0
      5960 WT2      31       MECN     N3       NG1T1   -0.460000       14.0070           0
      5961 WT2      44       MECN     C1       CG331   -0.170000       12.0110           0
      5962 WT2      44       MECN     H11      HGA3     0.090000        1.0080           0
      5963 WT2      44       MECN     H12      HGA3     0.090000        1.0080           0
      5964 WT2      44       MECN     H13      HGA3     0.090000        1.0080           0
      5965 WT2      44       MECN     C2       CG1N1    0.360000       12.0110           0
      5966 WT2      44       MECN     N3       NG1T1   -0.460000       14.0070           0
      5967 WT2      50       MECN     C1       CG331   -0.170000       12.0110           0
      5968 WT2      50       MECN     H11      HGA3     0.090000        1.0080           0
      5969 WT2      50       MECN     H12      HGA3     0.090000        1.0080           0
      5970 WT2      50       MECN     H13      HGA3     0.090000        1.0080           0
      5971 WT2      50       MECN     C2       CG1N1    0.360000       12.0110           0
      5972 WT2      50       MECN     N3       NG1T1   -0.460000       14.0070           0
      5973 WT2      54       MECN     C1       CG331   -0.170000       12.0110           0
      5974 WT2      54       MECN     H11      HGA3     0.090000        1.0080           0
      5975 WT2      54       MECN     H12      HGA3     0.090000        1.0080           0
      5976 WT2      54       MECN     H13      HGA3     0.090000        1.0080           0
      5977 WT2      54       MECN     C2       CG1N1    0.360000       12.0110           0
      5978 WT2      54       MECN     N3       NG1T1   -0.460000       14.0070           0
      5979 WT2      58       MECN     C1       CG331   -0.170000       12.0110           0
      5980 WT2      58       MECN     H11      HGA3     0.090000        1.0080           0
      5981 WT2      58       MECN     H12      HGA3     0.090000        1.0080           0
      5982 WT2      58       MECN     H13      HGA3     0.090000        1.0080           0
      5983 WT2      58       MECN     C2       CG1N1    0.360000       12.0110           0
      5984 WT2      58       MECN     N3       NG1T1   -0.460000       14.0070           0
      5985 WT2      64       MECN     C1       CG331   -0.170000       12.0110           0
      5986 WT2      64       MECN     H11      HGA3     0.090000        1.0080           0
      5987 WT2      64       MECN     H12      HGA3     0.090000        1.0080           0
      5988 WT2      64       MECN     H13      HGA3     0.090000        1.0080           0
      5989 WT2      64       MECN     C2       CG1N1    0.360000       12.0110           0
      5990 WT2      64       MECN     N3       NG1T1   -0.460000       14.0070           0
      5991 WT2      65       MECN     C1       CG331   -0.170000       12.0110           0
      5992 WT2      65       MECN     H11      HGA3     0.090000        1.0080           0
      5993 WT2      65       MECN     H12      HGA3     0.090000        1.0080           0
      5994 WT2      65       MECN     H13      HGA3     0.090000        1.0080           0
      5995 WT2      65       MECN     C2       CG1N1    0.360000       12.0110           0
      5996 WT2      65       MECN     N3       NG1T1   -0.460000       14.0070           0
      5997 WT2      70       MECN     C1       CG331   -0.170000       12.0110           0
      5998 WT2      70       MECN     H11      HGA3     0.090000        1.0080           0
      5999 WT2      70       MECN     H12      HGA3     0.090000        1.0080           0
      6000 WT2      70       MECN     H13      HGA3     0.090000        1.0080           0
      6001 WT2      70       MECN     C2       CG1N1    0.360000       12.0110           0
      6002 WT2      70       MECN     N3       NG1T1   -0.460000       14.0070           0
      6003 WT2      71       MECN     C1       CG331   -0.170000       12.0110           0
      6004 WT2      71       MECN     H11      HGA3     0.090000        1.0080           0
      6005 WT2      71       MECN     H12      HGA3     0.090000        1.0080           0
      6006 WT2      71       MECN     H13      HGA3     0.090000        1.0080           0
      6007 WT2      71       MECN     C2       CG1N1    0.360000       12.0110           0
      6008 WT2      71       MECN     N3       NG1T1   -0.460000       14.0070           0
      6009 WT2      74       MECN     C1       CG331   -0.170000       12.0110           0
      6010 WT2      74       MECN     H11      HGA3     0.090000        1.0080           0
      6011 WT2      74       MECN     H12      HGA3     0.090000        1.0080           0
      6012 WT2      74       MECN     H13      HGA3     0.090000        1.0080           0
      6013 WT2      74       MECN     C2       CG1N1    0.360000       12.0110           0
      6014 WT2      74       MECN     N3       NG1T1   -0.460000       14.0070           0
      6015 WT2      76       MECN     C1       CG331   -0.170000       12.0110           0
      6016 WT2      76       MECN     H11      HGA3     0.090000        1.0080           0
      6017 WT2      76       MECN     H12      HGA3     0.090000        1.0080           0
      6018 WT2      76       MECN     H13      HGA3     0.090000        1.0080           0
      6019 WT2      76       MECN     C2       CG1N1    0.360000       12.0110           0
      6020 WT2      76       MECN     N3       NG1T1   -0.460000       14.0070           0
      6021 WT2      79       MECN     C1       CG331   -0.170000       12.0110           0
      6022 WT2      79       MECN     H11      HGA3     0.090000        1.0080           0
      6023 WT2      79       MECN     H12      HGA3     0.090000        1.0080           0
      6024 WT2      79       MECN     H13      HGA3     0.090000        1.0080           0
      6025 WT2      79       MECN     C2       CG1N1    0.360000       12.0110           0
      6026 WT2      79       MECN     N3       NG1T1   -0.460000       14.0070           0
      6027 WT2      81       MECN     C1       CG331   -0.170000       12.0110           0
      6028 WT2      81       MECN     H11      HGA3     0.090000        1.0080           0
      6029 WT2      81       MECN     H12      HGA3     0.090000        1.0080           0
      6030 WT2      81       MECN     H13      HGA3     0.090000        1.0080           0
      6031 WT2      81       MECN     C2       CG1N1    0.360000       12.0110           0
      6032 WT2      81       MECN     N3       NG1T1   -0.460000       14.0070           0
      6033 WT2      85       MECN     C1       CG331   -0.170000       12.0110           0
      6034 WT2      85       MECN     H11      HGA3     0.090000        1.0080           0
      6035 WT2      85       MECN     H12      HGA3     0.090000        1.0080           0
      6036 WT2      85       MECN     H13      HGA3     0.090000        1.0080           0
      6037 WT2      85       MECN     C2       CG1N1    0.360000       12.0110           0
      6038 WT2      85       MECN     N3       NG1T1   -0.460000       14.0070           0
      6039 WT2      87       MECN     C1       CG331   -0.170000       12.0110           0
      6040 WT2      87       MECN     H11      HGA3     0.090000        1.0080           0
      6041 WT2      87       MECN     H12      HGA3     0.090000        1.0080           0
      6042 WT2      87       MECN     H13      HGA3     0.090000        1.0080           0
      6043 WT2      87       MECN     C2       CG1N1    0.360000       12.0110           0
      6044 WT2      87       MECN     N3       NG1T1   -0.460000       14.0070           0
      6045 WT2      98       MECN     C1       CG331   -0.170000       12.0110           0
      6046 WT2      98       MECN     H11      HGA3     0.090000        1.0080           0
      6047 WT2      98       MECN     H12      HGA3     0.090000        1.0080           0
      6048 WT2      98       MECN     H13      HGA3     0.090000        1.0080           0
      6049 WT2      98       MECN     C2       CG1N1    0.360000       12.0110           0
      6050 WT2      98       MECN     N3       NG1T1   -0.460000       14.0070           0
      6051 WT2      105      MECN     C1       CG331   -0.170000       12.0110           0
      6052 WT2      105      MECN     H11      HGA3     0.090000        1.0080           0
      6053 WT2      105      MECN     H12      HGA3     0.090000        1.0080           0
      6054 WT2      105      MECN     H13      HGA3     0.090000        1.0080           0
      6055 WT2      105      MECN     C2       CG1N1    0.360000       12.0110           0
      6056 WT2      105      MECN     N3       NG1T1   -0.460000       14.0070           0
      6057 WT2      109      MECN     C1       CG331   -0.170000       12.0110           0
      6058 WT2      109      MECN     H11      HGA3     0.090000        1.0080           0
      6059 WT2      109      MECN     H12      HGA3     0.090000        1.0080           0
      6060 WT2      109      MECN     H13      HGA3     0.090000        1.0080           0
      6061 WT2      109      MECN     C2       CG1N1    0.360000       12.0110           0
      6062 WT2      109      MECN     N3       NG1T1   -0.460000       14.0070           0
      6063 WT2      110      MECN     C1       CG331   -0.170000       12.0110           0
      6064 WT2      110      MECN     H11      HGA3     0.090000        1.0080           0
      6065 WT2      110      MECN     H12      HGA3     0.090000        1.0080           0
      6066 WT2      110      MECN     H13      HGA3     0.090000        1.0080           0
      6067 WT2      110      MECN     C2       CG1N1    0.360000       12.0110           0
      6068 WT2      110      MECN     N3       NG1T1   -0.460000       14.0070           0
      6069 WT2      112      MECN     C1       CG331   -0.170000       12.0110           0
      6070 WT2      112      MECN     H11      HGA3     0.090000        1.0080           0
      6071 WT2      112      MECN     H12      HGA3     0.090000        1.0080           0
      6072 WT2      112      MECN     H13      HGA3     0.090000        1.0080           0
      6073 WT2      112      MECN     C2       CG1N1    0.360000       12.0110           0
      6074 WT2      112      MECN     N3       NG1T1   -0.460000       14.0070           0
      6075 WT2      113      MECN     C1       CG331   -0.170000       12.0110           0
      6076 WT2      113      MECN     H11      HGA3     0.090000        1.0080           0
      6077 WT2      113      MECN     H12      HGA3     0.090000        1.0080           0
      6078 WT2      113      MECN     H13      HGA3     0.090000        1.0080           0
      6079 WT2      113      MECN     C2       CG1N1    0.360000       12.0110           0
      6080 WT2      113      MECN     N3       NG1T1   -0.460000       14.0070           0
      6081 WT2      120      MECN     C1       CG331   -0.170000       12.0110           0
      6082 WT2      120      MECN     H11      HGA3     0.090000        1.0080           0
      6083 WT2      120      MECN     H12      HGA3     0.090000        1.0080           0
      6084 WT2      120      MECN     H13      HGA3     0.090000        1.0080           0
      6085 WT2      120      MECN     C2       CG1N1    0.360000       12.0110           0
      6086 WT2      120      MECN     N3       NG1T1   -0.460000       14.0070           0
      6087 WT2      123      MECN     C1       CG331   -0.170000       12.0110           0
      6088 WT2      123      MECN     H11      HGA3     0.090000        1.0080           0
      6089 WT2      123      MECN     H12      HGA3     0.090000        1.0080           0
      6090 WT2      123      MECN     H13      HGA3     0.090000        1.0080           0
      6091 WT2      123      MECN     C2       CG1N1    0.360000       12.0110           0
      6092 WT2      123      MECN     N3       NG1T1   -0.460000       14.0070           0
      6093 WT2      125      MECN     C1       CG331   -0.170000       12.0110           0
      6094 WT2      125      MECN     H11      HGA3     0.090000        1.0080           0
      6095 WT2      125      MECN     H12      HGA3     0.090000        1.0080           0
      6096 WT2      125      MECN     H13      HGA3     0.090000        1.0080           0
      6097 WT2      125      MECN     C2       CG1N1    0.360000       12.0110           0
      6098 WT2      125      MECN     N3       NG1T1   -0.460000       14.0070           0
      6099 WT2      132      MECN     C1       CG331   -0.170000       12.0110           0
      6100 WT2      132      MECN     H11      HGA3     0.090000        1.0080           0
      6101 WT2      132      MECN     H12      HGA3     0.090000        1.0080           0
      6102 WT2      132      MECN     H13      HGA3     0.090000        1.0080           0
      6103 WT2      132      MECN     C2       CG1N1    0.360000       12.0110           0
      6104 WT2      132      MECN     N3       NG1T1   -0.460000       14.0070           0
      6105 WT2      138      MECN     C1       CG331   -0.170000       12.0110           0
      6106 WT2      138      MECN     H11      HGA3     0.090000        1.0080           0
      6107 WT2      138      MECN     H12      HGA3     0.090000        1.0080           0
      6108 WT2      138      MECN     H13      HGA3     0.090000        1.0080           0
      6109 WT2      138      MECN     C2       CG1N1    0.360000       12.0110           0
      6110 WT2      138      MECN     N3       NG1T1   -0.460000       14.0070           0
      6111 WT2      155      MECN     C1       CG331   -0.170000       12.0110           0
      6112 WT2      155      MECN     H11      HGA3     0.090000        1.0080           0
      6113 WT2      155      MECN     H12      HGA3     0.090000        1.0080           0
      6114 WT2      155      MECN     H13      HGA3     0.090000        1.0080           0
      6115 WT2      155      MECN     C2       CG1N1    0.360000       12.0110           0
      6116 WT2      155      MECN     N3       NG1T1   -0.460000       14.0070           0
      6117 WT2      169      MECN     C1       CG331   -0.170000       12.0110           0
      6118 WT2      169      MECN     H11      HGA3     0.090000        1.0080           0
      6119 WT2      169      MECN     H12      HGA3     0.090000        1.0080           0
      6120 WT2      169      MECN     H13      HGA3     0.090000        1.0080           0
      6121 WT2      169      MECN     C2       CG1N1    0.360000       12.0110           0
      6122 WT2      169      MECN     N3       NG1T1   -0.460000       14.0070           0
      6123 WT2      171      MECN     C1       CG331   -0.170000       12.0110           0
      6124 WT2      171      MECN     H11      HGA3     0.090000        1.0080           0
      6125 WT2      171      MECN     H12      HGA3     0.090000        1.0080           0
      6126 WT2      171      MECN     H13      HGA3     0.090000        1.0080           0
      6127 WT2      171      MECN     C2       CG1N1    0.360000       12.0110           0
      6128 WT2      171      MECN     N3       NG1T1   -0.460000       14.0070           0
      6129 WT2      172      MECN     C1       CG331   -0.170000       12.0110           0
      6130 WT2      172      MECN     H11      HGA3     0.090000        1.0080           0
      6131 WT2      172      MECN     H12      HGA3     0.090000        1.0080           0
      6132 WT2      172      MECN     H13      HGA3     0.090000        1.0080           0
      6133 WT2      172      MECN     C2       CG1N1    0.360000       12.0110           0
      6134 WT2      172      MECN     N3       NG1T1   -0.460000       14.0070           0
      6135 WT2      174      MECN     C1       CG331   -0.170000       12.0110           0
      6136 WT2      174      MECN     H11      HGA3     0.090000        1.0080           0
      6137 WT2      174      MECN     H12      HGA3     0.090000        1.0080           0
      6138 WT2      174      MECN     H13      HGA3     0.090000        1.0080           0
      6139 WT2      174      MECN     C2       CG1N1    0.360000       12.0110           0
      6140 WT2      174      MECN     N3       NG1T1   -0.460000       14.0070           0
      6141 WT2      183      MECN     C1       CG331   -0.170000       12.0110           0
      6142 WT2      183      MECN     H11      HGA3     0.090000        1.0080           0
      6143 WT2      183      MECN     H12      HGA3     0.090000        1.0080           0
      6144 WT2      183      MECN     H13      HGA3     0.090000        1.0080           0
      6145 WT2      183      MECN     C2       CG1N1    0.360000       12.0110           0
      6146 WT2      183      MECN     N3       NG1T1   -0.460000       14.0070           0
      6147 WT2      185      MECN     C1       CG331   -0.170000       12.0110           0
      6148 WT2      185      MECN     H11      HGA3     0.090000        1.0080           0
      6149 WT2      185      MECN     H12      HGA3     0.090000        1.0080           0
      6150 WT2      185      MECN     H13      HGA3     0.090000        1.0080           0
      6151 WT2      185      MECN     C2       CG1N1    0.360000       12.0110           0
      6152 WT2      185      MECN     N3       NG1T1   -0.460000       14.0070           0
      6153 WT2      209      MECN     C1       CG331   -0.170000       12.0110           0
      6154 WT2      209      MECN     H11      HGA3     0.090000        1.0080           0
      6155 WT2      209      MECN     H12      HGA3     0.090000        1.0080           0
      6156 WT2      209      MECN     H13      HGA3     0.090000        1.0080           0
      6157 WT2      209      MECN     C2       CG1N1    0.360000       12.0110           0
      6158 WT2      209      MECN     N3       NG1T1   -0.460000       14.0070           0
      6159 WT2      216      MECN     C1       CG331   -0.170000       12.0110           0
      6160 WT2      216      MECN     H11      HGA3     0.090000        1.0080           0
      6161 WT2      216      MECN     H12      HGA3     0.090000        1.0080           0
      6162 WT2      216      MECN     H13      HGA3     0.090000        1.0080           0
      6163 WT2      216      MECN     C2       CG1N1    0.360000       12.0110           0
      6164 WT2      216      MECN     N3       NG1T1   -0.460000       14.0070           0
      6165 WT2      220      MECN     C1       CG331   -0.170000       12.0110           0
      6166 WT2      220      MECN     H11      HGA3     0.090000        1.0080           0
      6167 WT2      220      MECN     H12      HGA3     0.090000        1.0080           0
      6168 WT2      220      MECN     H13      HGA3     0.090000        1.0080           0
      6169 WT2      220      MECN     C2       CG1N1    0.360000       12.0110           0
      6170 WT2      220      MECN     N3       NG1T1   -0.460000       14.0070           0
      6171 WT2      224      MECN     C1       CG331   -0.170000       12.0110           0
      6172 WT2      224      MECN     H11      HGA3     0.090000        1.0080           0
      6173 WT2      224      MECN     H12      HGA3     0.090000        1.0080           0
      6174 WT2      224      MECN     H13      HGA3     0.090000        1.0080           0
      6175 WT2      224      MECN     C2       CG1N1    0.360000       12.0110           0
      6176 WT2      224      MECN     N3       NG1T1   -0.460000       14.0070           0
      6177 WT2      227      MECN     C1       CG331   -0.170000       12.0110           0
      6178 WT2      227      MECN     H11      HGA3     0.090000        1.0080           0
      6179 WT2      227      MECN     H12      HGA3     0.090000        1.0080           0
      6180 WT2      227      MECN     H13      HGA3     0.090000        1.0080           0
      6181 WT2      227      MECN     C2       CG1N1    0.360000       12.0110           0
      6182 WT2      227      MECN     N3       NG1T1   -0.460000       14.0070           0
      6183 WT2      229      MECN     C1       CG331   -0.170000       12.0110           0
      6184 WT2      229      MECN     H11      HGA3     0.090000        1.0080           0
      6185 WT2      229      MECN     H12      HGA3     0.090000        1.0080           0
      6186 WT2      229      MECN     H13      HGA3     0.090000        1.0080           0
      6187 WT2      229      MECN     C2       CG1N1    0.360000       12.0110           0
      6188 WT2      229      MECN     N3       NG1T1   -0.460000       14.0070           0
      6189 WT2      236      MECN     C1       CG331   -0.170000       12.0110           0
      6190 WT2      236      MECN     H11      HGA3     0.090000        1.0080           0
      6191 WT2      236      MECN     H12      HGA3     0.090000        1.0080           0
      6192 WT2      236      MECN     H13      HGA3     0.090000        1.0080           0
      6193 WT2      236      MECN     C2       CG1N1    0.360000       12.0110           0
      6194 WT2      236      MECN     N3       NG1T1   -0.460000       14.0070           0
      6195 WT2      237      MECN     C1       CG331   -0.170000       12.0110           0
      6196 WT2      237      MECN     H11      HGA3     0.090000        1.0080           0
      6197 WT2      237      MECN     H12      HGA3     0.090000        1.0080           0
      6198 WT2      237      MECN     H13      HGA3     0.090000        1.0080           0
      6199 WT2      237      MECN     C2       CG1N1    0.360000       12.0110           0
      6200 WT2      237      MECN     N3       NG1T1   -0.460000       14.0070           0
      6201 WT2      238      MECN     C1       CG331   -0.170000       12.0110           0
      6202 WT2      238      MECN     H11      HGA3     0.090000        1.0080           0
      6203 WT2      238      MECN     H12      HGA3     0.090000        1.0080           0
      6204 WT2      238      MECN     H13      HGA3     0.090000        1.0080           0
      6205 WT2      238      MECN     C2       CG1N1    0.360000       12.0110           0
      6206 WT2      238      MECN     N3       NG1T1   -0.460000       14.0070           0
      6207 WT2      242      MECN     C1       CG331   -0.170000       12.0110           0
      6208 WT2      242      MECN     H11      HGA3     0.090000        1.0080           0
      6209 WT2      242      MECN     H12      HGA3     0.090000        1.0080           0
      6210 WT2      242      MECN     H13      HGA3     0.090000        1.0080           0
      6211 WT2      242      MECN     C2       CG1N1    0.360000       12.0110           0
      6212 WT2      242      MECN     N3       NG1T1   -0.460000       14.0070           0
      6213 WT2      260      MECN     C1       CG331   -0.170000       12.0110           0
      6214 WT2      260      MECN     H11      HGA3     0.090000        1.0080           0
      6215 WT2      260      MECN     H12      HGA3     0.090000        1.0080           0
      6216 WT2      260      MECN     H13      HGA3     0.090000        1.0080           0
      6217 WT2      260      MECN     C2       CG1N1    0.360000       12.0110           0
      6218 WT2      260      MECN     N3       NG1T1   -0.460000       14.0070           0
      6219 WT2      267      MECN     C1       CG331   -0.170000       12.0110           0
      6220 WT2      267      MECN     H11      HGA3     0.090000        1.0080           0
      6221 WT2      267      MECN     H12      HGA3     0.090000        1.0080           0
      6222 WT2      267      MECN     H13      HGA3     0.090000        1.0080           0
      6223 WT2      267      MECN     C2       CG1N1    0.360000       12.0110           0
      6224 WT2      267      MECN     N3       NG1T1   -0.460000       14.0070           0
      6225 WT2      268      MECN     C1       CG331   -0.170000       12.0110           0
      6226 WT2      268      MECN     H11      HGA3     0.090000        1.0080           0
      6227 WT2      268      MECN     H12      HGA3     0.090000        1.0080           0
      6228 WT2      268      MECN     H13      HGA3     0.090000        1.0080           0
      6229 WT2      268      MECN     C2       CG1N1    0.360000       12.0110           0
      6230 WT2      268      MECN     N3       NG1T1   -0.460000       14.0070           0
      6231 WT2      270      MECN     C1       CG331   -0.170000       12.0110           0
      6232 WT2      270      MECN     H11      HGA3     0.090000        1.0080           0
      6233 WT2      270      MECN     H12      HGA3     0.090000        1.0080           0
      6234 WT2      270      MECN     H13      HGA3     0.090000        1.0080           0
      6235 WT2      270      MECN     C2       CG1N1    0.360000       12.0110           0
      6236 WT2      270      MECN     N3       NG1T1   -0.460000       14.0070           0
      6237 WT2      273      MECN     C1       CG331   -0.170000       12.0110           0
      6238 WT2      273      MECN     H11      HGA3     0.090000        1.0080           0
      6239 WT2      273      MECN     H12      HGA3     0.090000        1.0080           0
      6240 WT2      273      MECN     H13      HGA3     0.090000        1.0080           0
      6241 WT2      273      MECN     C2       CG1N1    0.360000       12.0110           0
      6242 WT2      273      MECN     N3       NG1T1   -0.460000       14.0070           0
      6243 WT2      286      MECN     C1       CG331   -0.170000       12.0110           0
      6244 WT2      286      MECN     H11      HGA3     0.090000        1.0080           0
      6245 WT2      286      MECN     H12      HGA3     0.090000        1.0080           0
      6246 WT2      286      MECN     H13      HGA3     0.090000        1.0080           0
      6247 WT2      286      MECN     C2       CG1N1    0.360000       12.0110           0
      6248 WT2      286      MECN     N3       NG1T1   -0.460000       14.0070           0
      6249 WT2      287      MECN     C1       CG331   -0.170000       12.0110           0
      6250 WT2      287      MECN     H11      HGA3     0.090000        1.0080           0
      6251 WT2      287      MECN     H12      HGA3     0.090000        1.0080           0
      6252 WT2      287      MECN     H13      HGA3     0.090000        1.0080           0
      6253 WT2      287      MECN     C2       CG1N1    0.360000       12.0110           0
      6254 WT2      287      MECN     N3       NG1T1   -0.460000       14.0070           0
      6255 WT2      292      MECN     C1       CG331   -0.170000       12.0110           0
      6256 WT2      292      MECN     H11      HGA3     0.090000        1.0080           0
      6257 WT2      292      MECN     H12      HGA3     0.090000        1.0080           0
      6258 WT2      292      MECN     H13      HGA3     0.090000        1.0080           0
      6259 WT2      292      MECN     C2       CG1N1    0.360000       12.0110           0
      6260 WT2      292      MECN     N3       NG1T1   -0.460000       14.0070           0
      6261 WT2      298      MECN     C1       CG331   -0.170000       12.0110           0
      6262 WT2      298      MECN     H11      HGA3     0.090000        1.0080           0
      6263 WT2      298      MECN     H12      HGA3     0.090000        1.0080           0
      6264 WT2      298      MECN     H13      HGA3     0.090000        1.0080           0
      6265 WT2      298      MECN     C2       CG1N1    0.360000       12.0110           0
      6266 WT2      298      MECN     N3       NG1T1   -0.460000       14.0070           0
      6267 WT2      306      MECN     C1       CG331   -0.170000       12.0110           0
      6268 WT2      306      MECN     H11      HGA3     0.090000        1.0080           0
      6269 WT2      306      MECN     H12      HGA3     0.090000        1.0080           0
      6270 WT2      306      MECN     H13      HGA3     0.090000        1.0080           0
      6271 WT2      306      MECN     C2       CG1N1    0.360000       12.0110           0
      6272 WT2      306      MECN     N3       NG1T1   -0.460000       14.0070           0
      6273 WT2      310      MECN     C1       CG331   -0.170000       12.0110           0
      6274 WT2      310      MECN     H11      HGA3     0.090000        1.0080           0
      6275 WT2      310      MECN     H12      HGA3     0.090000        1.0080           0
      6276 WT2      310      MECN     H13      HGA3     0.090000        1.0080           0
      6277 WT2      310      MECN     C2       CG1N1    0.360000       12.0110           0
      6278 WT2      310      MECN     N3       NG1T1   -0.460000       14.0070           0
      6279 WT2      316      MECN     C1       CG331   -0.170000       12.0110           0
      6280 WT2      316      MECN     H11      HGA3     0.090000        1.0080           0
      6281 WT2      316      MECN     H12      HGA3     0.090000        1.0080           0
      6282 WT2      316      MECN     H13      HGA3     0.090000        1.0080           0
      6283 WT2      316      MECN     C2       CG1N1    0.360000       12.0110           0
      6284 WT2      316      MECN     N3       NG1T1   -0.460000       14.0070           0
      6285 WT2      321      MECN     C1       CG331   -0.170000       12.0110           0
      6286 WT2      321      MECN     H11      HGA3     0.090000        1.0080           0
      6287 WT2      321      MECN     H12      HGA3     0.090000        1.0080           0
      6288 WT2      321      MECN     H13      HGA3     0.090000        1.0080           0
      6289 WT2      321      MECN     C2       CG1N1    0.360000       12.0110           0
      6290 WT2      321      MECN     N3       NG1T1   -0.460000       14.0070           0
      6291 WT2      322      MECN     C1       CG331   -0.170000       12.0110           0
      6292 WT2      322      MECN     H11      HGA3     0.090000        1.0080           0
      6293 WT2      322      MECN     H12      HGA3     0.090000        1.0080           0
      6294 WT2      322      MECN     H13      HGA3     0.090000        1.0080           0
      6295 WT2      322      MECN     C2       CG1N1    0.360000       12.0110           0
      6296 WT2      322      MECN     N3       NG1T1   -0.460000       14.0070           0
      6297 WT2      329      MECN     C1       CG331   -0.170000       12.0110           0
      6298 WT2      329      MECN     H11      HGA3     0.090000        1.0080           0
      6299 WT2      329      MECN     H12      HGA3     0.090000        1.0080           0
      6300 WT2      329      MECN     H13      HGA3     0.090000        1.0080           0
      6301 WT2      329      MECN     C2       CG1N1    0.360000       12.0110           0
      6302 WT2      329      MECN     N3       NG1T1   -0.460000       14.0070           0
      6303 WT2      331      MECN     C1       CG331   -0.170000       12.0110           0
      6304 WT2      331      MECN     H11      HGA3     0.090000        1.0080           0
      6305 WT2      331      MECN     H12      HGA3     0.090000        1.0080           0
      6306 WT2      331      MECN     H13      HGA3     0.090000        1.0080           0
      6307 WT2      331      MECN     C2       CG1N1    0.360000       12.0110           0
      6308 WT2      331      MECN     N3       NG1T1   -0.460000       14.0070           0
      6309 WT2      337      MECN     C1       CG331   -0.170000       12.0110           0
      6310 WT2      337      MECN     H11      HGA3     0.090000        1.0080           0
      6311 WT2      337      MECN     H12      HGA3     0.090000        1.0080           0
      6312 WT2      337      MECN     H13      HGA3     0.090000        1.0080           0
      6313 WT2      337      MECN     C2       CG1N1    0.360000       12.0110           0
      6314 WT2      337      MECN     N3       NG1T1   -0.460000       14.0070           0
      6315 WT2      338      MECN     C1       CG331   -0.170000       12.0110           0
      6316 WT2      338      MECN     H11      HGA3     0.090000        1.0080           0
      6317 WT2      338      MECN     H12      HGA3     0.090000        1.0080           0
      6318 WT2      338      MECN     H13      HGA3     0.090000        1.0080           0
      6319 WT2      338      MECN     C2       CG1N1    0.360000       12.0110           0
      6320 WT2      338      MECN     N3       NG1T1   -0.460000       14.0070           0
      6321 WT2      349      MECN     C1       CG331   -0.170000       12.0110           0
      6322 WT2      349      MECN     H11      HGA3     0.090000        1.0080           0
      6323 WT2      349      MECN     H12      HGA3     0.090000        1.0080           0
      6324 WT2      349      MECN     H13      HGA3     0.090000        1.0080           0
      6325 WT2      349      MECN     C2       CG1N1    0.360000       12.0110           0
      6326 WT2      349      MECN     N3       NG1T1   -0.460000       14.0070           0
      6327 WT2      351      MECN     C1       CG331   -0.170000       12.0110           0
      6328 WT2      351      MECN     H11      HGA3     0.090000        1.0080           0
      6329 WT2      351      MECN     H12      HGA3     0.090000        1.0080           0
      6330 WT2      351      MECN     H13      HGA3     0.090000        1.0080           0
      6331 WT2      351      MECN     C2       CG1N1    0.360000       12.0110           0
      6332 WT2      351      MECN     N3       NG1T1   -0.460000       14.0070           0
      6333 WT2      358      MECN     C1       CG331   -0.170000       12.0110           0
      6334 WT2      358      MECN     H11      HGA3     0.090000        1.0080           0
      6335 WT2      358      MECN     H12      HGA3     0.090000        1.0080           0
      6336 WT2      358      MECN     H13      HGA3     0.090000        1.0080           0
      6337 WT2      358      MECN     C2       CG1N1    0.360000       12.0110           0
      6338 WT2      358      MECN     N3       NG1T1   -0.460000       14.0070           0
      6339 WT2      366      MECN     C1       CG331   -0.170000       12.0110           0
      6340 WT2      366      MECN     H11      HGA3     0.090000        1.0080           0
      6341 WT2      366      MECN     H12      HGA3     0.090000        1.0080           0
      6342 WT2      366      MECN     H13      HGA3     0.090000        1.0080           0
      6343 WT2      366      MECN     C2       CG1N1    0.360000       12.0110           0
      6344 WT2      366      MECN     N3       NG1T1   -0.460000       14.0070           0
      6345 WT2      381      MECN     C1       CG331   -0.170000       12.0110           0
      6346 WT2      381      MECN     H11      HGA3     0.090000        1.0080           0
      6347 WT2      381      MECN     H12      HGA3     0.090000        1.0080           0
      6348 WT2      381      MECN     H13      HGA3     0.090000        1.0080           0
      6349 WT2      381      MECN     C2       CG1N1    0.360000       12.0110           0
      6350 WT2      381      MECN     N3       NG1T1   -0.460000       14.0070           0
      6351 WT2      382      MECN     C1       CG331   -0.170000       12.0110           0
      6352 WT2      382      MECN     H11      HGA3     0.090000        1.0080           0
      6353 WT2      382      MECN     H12      HGA3     0.090000        1.0080           0
      6354 WT2      382      MECN     H13      HGA3     0.090000        1.0080           0
      6355 WT2      382      MECN     C2       CG1N1    0.360000       12.0110           0
      6356 WT2      382      MECN     N3       NG1T1   -0.460000       14.0070           0
      6357 WT2      387      MECN     C1       CG331   -0.170000       12.0110           0
      6358 WT2      387      MECN     H11      HGA3     0.090000        1.0080           0
      6359 WT2      387      MECN     H12      HGA3     0.090000        1.0080           0
      6360 WT2      387      MECN     H13      HGA3     0.090000        1.0080           0
      6361 WT2      387      MECN     C2       CG1N1    0.360000       12.0110           0
      6362 WT2      387      MECN     N3       NG1T1   -0.460000       14.0070           0
      6363 WT2      392      MECN     C1       CG331   -0.170000       12.0110           0
      6364 WT2      392      MECN     H11      HGA3     0.090000        1.0080           0
      6365 WT2      392      MECN     H12      HGA3     0.090000        1.0080           0
      6366 WT2      392      MECN     H13      HGA3     0.090000        1.0080           0
      6367 WT2      392      MECN     C2       CG1N1    0.360000       12.0110           0
      6368 WT2      392      MECN     N3       NG1T1   -0.460000       14.0070           0
      6369 WT2      396      MECN     C1       CG331   -0.170000       12.0110           0
      6370 WT2      396      MECN     H11      HGA3     0.090000        1.0080           0
      6371 WT2      396      MECN     H12      HGA3     0.090000        1.0080           0
      6372 WT2      396      MECN     H13      HGA3     0.090000        1.0080           0
      6373 WT2      396      MECN     C2       CG1N1    0.360000       12.0110           0
      6374 WT2      396      MECN     N3       NG1T1   -0.460000       14.0070           0
      6375 WT2      408      MECN     C1       CG331   -0.170000       12.0110           0
      6376 WT2      408      MECN     H11      HGA3     0.090000        1.0080           0
      6377 WT2      408      MECN     H12      HGA3     0.090000        1.0080           0
      6378 WT2      408      MECN     H13      HGA3     0.090000        1.0080           0
      6379 WT2      408      MECN     C2       CG1N1    0.360000       12.0110           0
      6380 WT2      408      MECN     N3       NG1T1   -0.460000       14.0070           0
      6381 WT2      411      MECN     C1       CG331   -0.170000       12.0110           0
      6382 WT2      411      MECN     H11      HGA3     0.090000        1.0080           0
      6383 WT2      411      MECN     H12      HGA3     0.090000        1.0080           0
      6384 WT2      411      MECN     H13      HGA3     0.090000        1.0080           0
      6385 WT2      411      MECN     C2       CG1N1    0.360000       12.0110           0
      6386 WT2      411      MECN     N3       NG1T1   -0.460000       14.0070           0
      6387 WT2      419      MECN     C1       CG331   -0.170000       12.0110           0
      6388 WT2      419      MECN     H11      HGA3     0.090000        1.0080           0
      6389 WT2      419      MECN     H12      HGA3     0.090000        1.0080           0
      6390 WT2      419      MECN     H13      HGA3     0.090000        1.0080           0
      6391 WT2      419      MECN     C2       CG1N1    0.360000       12.0110           0
      6392 WT2      419      MECN     N3       NG1T1   -0.460000       14.0070           0
      6393 WT2      450      MECN     C1       CG331   -0.170000       12.0110           0
      6394 WT2      450      MECN     H11      HGA3     0.090000        1.0080           0
      6395 WT2      450      MECN     H12      HGA3     0.090000        1.0080           0
      6396 WT2      450      MECN     H13      HGA3     0.090000        1.0080           0
      6397 WT2      450      MECN     C2       CG1N1    0.360000       12.0110           0
      6398 WT2      450      MECN     N3       NG1T1   -0.460000       14.0070           0
      6399 WT2      457      MECN     C1       CG331   -0.170000       12.0110           0
      6400 WT2      457      MECN     H11      HGA3     0.090000        1.0080           0
      6401 WT2      457      MECN     H12      HGA3     0.090000        1.0080           0
      6402 WT2      457      MECN     H13      HGA3     0.090000        1.0080           0
      6403 WT2      457      MECN     C2       CG1N1    0.360000       12.0110           0
      6404 WT2      457      MECN     N3       NG1T1   -0.460000       14.0070           0
      6405 WT2      460      MECN     C1       CG331   -0.170000       12.0110           0
      6406 WT2      460      MECN     H11      HGA3     0.090000        1.0080           0
      6407 WT2      460      MECN     H12      HGA3     0.090000        1.0080           0
      6408 WT2      460      MECN     H13      HGA3     0.090000        1.0080           0
      6409 WT2      460      MECN     C2       CG1N1    0.360000       12.0110           0
      6410 WT2      460      MECN     N3       NG1T1   -0.460000       14.0070           0
      6411 WT2      467      MECN     C1       CG331   -0.170000       12.0110           0
      6412 WT2      467      MECN     H11      HGA3     0.090000        1.0080           0
      6413 WT2      467      MECN     H12      HGA3     0.090000        1.0080           0
      6414 WT2      467      MECN     H13      HGA3     0.090000        1.0080           0
      6415 WT2      467      MECN     C2       CG1N1    0.360000       12.0110           0
      6416 WT2      467      MECN     N3       NG1T1   -0.460000       14.0070           0
      6417 WT2      475      MECN     C1       CG331   -0.170000       12.0110           0
      6418 WT2      475      MECN     H11      HGA3     0.090000        1.0080           0
      6419 WT2      475      MECN     H12      HGA3     0.090000        1.0080           0
      6420 WT2      475      MECN     H13      HGA3     0.090000        1.0080           0
      6421 WT2      475      MECN     C2       CG1N1    0.360000       12.0110           0
      6422 WT2      475      MECN     N3       NG1T1   -0.460000       14.0070           0
      6423 WT2      485      MECN     C1       CG331   -0.170000       12.0110           0
      6424 WT2      485      MECN     H11      HGA3     0.090000        1.0080           0
      6425 WT2      485      MECN     H12      HGA3     0.090000        1.0080           0
      6426 WT2      485      MECN     H13      HGA3     0.090000        1.0080           0
      6427 WT2      485      MECN     C2       CG1N1    0.360000       12.0110           0
      6428 WT2      485      MECN     N3       NG1T1   -0.460000       14.0070           0
      6429 WT2      486      MECN     C1       CG331   -0.170000       12.0110           0
      6430 WT2      486      MECN     H11      HGA3     0.090000        1.0080           0
      6431 WT2      486      MECN     H12      HGA3     0.090000        1.0080           0
      6432 WT2      486      MECN     H13      HGA3     0.090000        1.0080           0
      6433 WT2      486      MECN     C2       CG1N1    0.360000       12.0110           0
      6434 WT2      486      MECN     N3       NG1T1   -0.460000       14.0070           0
      6435 WT2      492      MECN     C1       CG331   -0.170000       12.0110           0
      6436 WT2      492      MECN     H11      HGA3     0.090000        1.0080           0
      6437 WT2      492      MECN     H12      HGA3     0.090000        1.0080           0
      6438 WT2      492      MECN     H13      HGA3     0.090000        1.0080           0
      6439 WT2      492      MECN     C2       CG1N1    0.360000       12.0110           0
      6440 WT2      492      MECN     N3       NG1T1   -0.460000       14.0070           0
      6441 WT2      513      MECN     C1       CG331   -0.170000       12.0110           0
      6442 WT2      513      MECN     H11      HGA3     0.090000        1.0080           0
      6443 WT2      513      MECN     H12      HGA3     0.090000        1.0080           0
      6444 WT2      513      MECN     H13      HGA3     0.090000        1.0080           0
      6445 WT2      513      MECN     C2       CG1N1    0.360000       12.0110           0
      6446 WT2      513      MECN     N3       NG1T1   -0.460000       14.0070           0
      6447 WT2      523      MECN     C1       CG331   -0.170000       12.0110           0
      6448 WT2      523      MECN     H11      HGA3     0.090000        1.0080           0
      6449 WT2      523      MECN     H12      HGA3     0.090000        1.0080           0
      6450 WT2      523      MECN     H13      HGA3     0.090000        1.0080           0
      6451 WT2      523      MECN     C2       CG1N1    0.360000       12.0110           0
      6452 WT2      523      MECN     N3       NG1T1   -0.460000       14.0070           0
      6453 WT2      530      MECN     C1       CG331   -0.170000       12.0110           0
      6454 WT2      530      MECN     H11      HGA3     0.090000        1.0080           0
      6455 WT2      530      MECN     H12      HGA3     0.090000        1.0080           0
      6456 WT2      530      MECN     H13      HGA3     0.090000        1.0080           0
      6457 WT2      530      MECN     C2       CG1N1    0.360000       12.0110           0
      6458 WT2      530      MECN     N3       NG1T1   -0.460000       14.0070           0
      6459 WT2      531      MECN     C1       CG331   -0.170000       12.0110           0
      6460 WT2      531      MECN     H11      HGA3     0.090000        1.0080           0
      6461 WT2      531      MECN     H12      HGA3     0.090000        1.0080           0
      6462 WT2      531      MECN     H13      HGA3     0.090000        1.0080           0
      6463 WT2      531      MECN     C2       CG1N1    0.360000       12.0110           0
      6464 WT2      531      MECN     N3       NG1T1   -0.460000       14.0070           0
      6465 WT2      532      MECN     C1       CG331   -0.170000       12.0110           0
      6466 WT2      532      MECN     H11      HGA3     0.090000        1.0080           0
      6467 WT2      532      MECN     H12      HGA3     0.090000        1.0080           0
      6468 WT2      532      MECN     H13      HGA3     0.090000        1.0080           0
      6469 WT2      532      MECN     C2       CG1N1    0.360000       12.0110           0
      6470 WT2      532      MECN     N3       NG1T1   -0.460000       14.0070           0
      6471 WT2      537      MECN     C1       CG331   -0.170000       12.0110           0
      6472 WT2      537      MECN     H11      HGA3     0.090000        1.0080           0
      6473 WT2      537      MECN     H12      HGA3     0.090000        1.0080           0
      6474 WT2      537      MECN     H13      HGA3     0.090000        1.0080           0
      6475 WT2      537      MECN     C2       CG1N1    0.360000       12.0110           0
      6476 WT2      537      MECN     N3       NG1T1   -0.460000       14.0070           0
      6477 WT2      543      MECN     C1       CG331   -0.170000       12.0110           0
      6478 WT2      543      MECN     H11      HGA3     0.090000        1.0080           0
      6479 WT2      543      MECN     H12      HGA3     0.090000        1.0080           0
      6480 WT2      543      MECN     H13      HGA3     0.090000        1.0080           0
      6481 WT2      543      MECN     C2       CG1N1    0.360000       12.0110           0
      6482 WT2      543      MECN     N3       NG1T1   -0.460000       14.0070           0
      6483 WT2      544      MECN     C1       CG331   -0.170000       12.0110           0
      6484 WT2      544      MECN     H11      HGA3     0.090000        1.0080           0
      6485 WT2      544      MECN     H12      HGA3     0.090000        1.0080           0
      6486 WT2      544      MECN     H13      HGA3     0.090000        1.0080           0
      6487 WT2      544      MECN     C2       CG1N1    0.360000       12.0110           0
      6488 WT2      544      MECN     N3       NG1T1   -0.460000       14.0070           0
      6489 WT2      557      MECN     C1       CG331   -0.170000       12.0110           0
      6490 WT2      557      MECN     H11      HGA3     0.090000        1.0080           0
      6491 WT2      557      MECN     H12      HGA3     0.090000        1.0080           0
      6492 WT2      557      MECN     H13      HGA3     0.090000        1.0080           0
      6493 WT2      557      MECN     C2       CG1N1    0.360000       12.0110           0
      6494 WT2      557      MECN     N3       NG1T1   -0.460000       14.0070           0
      6495 WT2      560      MECN     C1       CG331   -0.170000       12.0110           0
      6496 WT2      560      MECN     H11      HGA3     0.090000        1.0080           0
      6497 WT2      560      MECN     H12      HGA3     0.090000        1.0080           0
      6498 WT2      560      MECN     H13      HGA3     0.090000        1.0080           0
      6499 WT2      560      MECN     C2       CG1N1    0.360000       12.0110           0
      6500 WT2      560      MECN     N3       NG1T1   -0.460000       14.0070           0
      6501 WT2      564      MECN     C1       CG331   -0.170000       12.0110           0
      6502 WT2      564      MECN     H11      HGA3     0.090000        1.0080           0
      6503 WT2      564      MECN     H12      HGA3     0.090000        1.0080           0
      6504 WT2      564      MECN     H13      HGA3     0.090000        1.0080           0
      6505 WT2      564      MECN     C2       CG1N1    0.360000       12.0110           0
      6506 WT2      564      MECN     N3       NG1T1   -0.460000       14.0070           0
      6507 WT2      576      MECN     C1       CG331   -0.170000       12.0110           0
      6508 WT2      576      MECN     H11      HGA3     0.090000        1.0080           0
      6509 WT2      576      MECN     H12      HGA3     0.090000        1.0080           0
      6510 WT2      576      MECN     H13      HGA3     0.090000        1.0080           0
      6511 WT2      576      MECN     C2       CG1N1    0.360000       12.0110           0
      6512 WT2      576      MECN     N3       NG1T1   -0.460000       14.0070           0
      6513 WT2      584      MECN     C1       CG331   -0.170000       12.0110           0
      6514 WT2      584      MECN     H11      HGA3     0.090000        1.0080           0
      6515 WT2      584      MECN     H12      HGA3     0.090000        1.0080           0
      6516 WT2      584      MECN     H13      HGA3     0.090000        1.0080           0
      6517 WT2      584      MECN     C2       CG1N1    0.360000       12.0110           0
      6518 WT2      584      MECN     N3       NG1T1   -0.460000       14.0070           0
      6519 WT2      586      MECN     C1       CG331   -0.170000       12.0110           0
      6520 WT2      586      MECN     H11      HGA3     0.090000        1.0080           0
      6521 WT2      586      MECN     H12      HGA3     0.090000        1.0080           0
      6522 WT2      586      MECN     H13      HGA3     0.090000        1.0080           0
      6523 WT2      586      MECN     C2       CG1N1    0.360000       12.0110           0
      6524 WT2      586      MECN     N3       NG1T1   -0.460000       14.0070           0
      6525 WT2      591      MECN     C1       CG331   -0.170000       12.0110           0
      6526 WT2      591      MECN     H11      HGA3     0.090000        1.0080           0
      6527 WT2      591      MECN     H12      HGA3     0.090000        1.0080           0
      6528 WT2      591      MECN     H13      HGA3     0.090000        1.0080           0
      6529 WT2      591      MECN     C2       CG1N1    0.360000       12.0110           0
      6530 WT2      591      MECN     N3       NG1T1   -0.460000       14.0070           0
      6531 WT2      599      MECN     C1       CG331   -0.170000       12.0110           0
      6532 WT2      599      MECN     H11      HGA3     0.090000        1.0080           0
      6533 WT2      599      MECN     H12      HGA3     0.090000        1.0080           0
      6534 WT2      599      MECN     H13      HGA3     0.090000        1.0080           0
      6535 WT2      599      MECN     C2       CG1N1    0.360000       12.0110           0
      6536 WT2      599      MECN     N3       NG1T1   -0.460000       14.0070           0
      6537 WT2      612      MECN     C1       CG331   -0.170000       12.0110           0
      6538 WT2      612      MECN     H11      HGA3     0.090000        1.0080           0
      6539 WT2      612      MECN     H12      HGA3     0.090000        1.0080           0
      6540 WT2      612      MECN     H13      HGA3     0.090000        1.0080           0
      6541 WT2      612      MECN     C2       CG1N1    0.360000       12.0110           0
      6542 WT2      612      MECN     N3       NG1T1   -0.460000       14.0070           0
      6543 WT2      620      MECN     C1       CG331   -0.170000       12.0110           0
      6544 WT2      620      MECN     H11      HGA3     0.090000        1.0080           0
      6545 WT2      620      MECN     H12      HGA3     0.090000        1.0080           0
      6546 WT2      620      MECN     H13      HGA3     0.090000        1.0080           0
      6547 WT2      620      MECN     C2       CG1N1    0.360000       12.0110           0
      6548 WT2      620      MECN     N3       NG1T1   -0.460000       14.0070           0
      6549 WT2      625      MECN     C1       CG331   -0.170000       12.0110           0
      6550 WT2      625      MECN     H11      HGA3     0.090000        1.0080           0
      6551 WT2      625      MECN     H12      HGA3     0.090000        1.0080           0
      6552 WT2      625      MECN     H13      HGA3     0.090000        1.0080           0
      6553 WT2      625      MECN     C2       CG1N1    0.360000       12.0110           0
      6554 WT2      625      MECN     N3       NG1T1   -0.460000       14.0070           0
      6555 WT2      632      MECN     C1       CG331   -0.170000       12.0110           0
      6556 WT2      632      MECN     H11      HGA3     0.090000        1.0080           0
      6557 WT2      632      MECN     H12      HGA3     0.090000        1.0080           0
      6558 WT2      632      MECN     H13      HGA3     0.090000        1.0080           0
      6559 WT2      632      MECN     C2       CG1N1    0.360000       12.0110           0
      6560 WT2      632      MECN     N3       NG1T1   -0.460000       14.0070           0
      6561 WT2      633      MECN     C1       CG331   -0.170000       12.0110           0
      6562 WT2      633      MECN     H11      HGA3     0.090000        1.0080           0
      6563 WT2      633      MECN     H12      HGA3     0.090000        1.0080           0
      6564 WT2      633      MECN     H13      HGA3     0.090000        1.0080           0
      6565 WT2      633      MECN     C2       CG1N1    0.360000       12.0110           0
      6566 WT2      633      MECN     N3       NG1T1   -0.460000       14.0070           0
      6567 WT2      636      MECN     C1       CG331   -0.170000       12.0110           0
      6568 WT2      636      MECN     H11      HGA3     0.090000        1.0080           0
      6569 WT2      636      MECN     H12      HGA3     0.090000        1.0080           0
      6570 WT2      636      MECN     H13      HGA3     0.090000        1.0080           0
      6571 WT2      636      MECN     C2       CG1N1    0.360000       12.0110           0
      6572 WT2      636      MECN     N3       NG1T1   -0.460000       14.0070           0
      6573 WT2      638      MECN     C1       CG331   -0.170000       12.0110           0
      6574 WT2      638      MECN     H11      HGA3     0.090000        1.0080           0
      6575 WT2      638      MECN     H12      HGA3     0.090000        1.0080           0
      6576 WT2      638      MECN     H13      HGA3     0.090000        1.0080           0
      6577 WT2      638      MECN     C2       CG1N1    0.360000       12.0110           0
      6578 WT2      638      MECN     N3       NG1T1   -0.460000       14.0070           0
      6579 WT2      639      MECN     C1       CG331   -0.170000       12.0110           0
      6580 WT2      639      MECN     H11      HGA3     0.090000        1.0080           0
      6581 WT2      639      MECN     H12      HGA3     0.090000        1.0080           0
      6582 WT2      639      MECN     H13      HGA3     0.090000        1.0080           0
      6583 WT2      639      MECN     C2       CG1N1    0.360000       12.0110           0
      6584 WT2      639      MECN     N3       NG1T1   -0.460000       14.0070           0
      6585 WT2      642      MECN     C1       CG331   -0.170000       12.0110           0
      6586 WT2      642      MECN     H11      HGA3     0.090000        1.0080           0
      6587 WT2      642      MECN     H12      HGA3     0.090000        1.0080           0
      6588 WT2      642      MECN     H13      HGA3     0.090000        1.0080           0
      6589 WT2      642      MECN     C2       CG1N1    0.360000       12.0110           0
      6590 WT2      642      MECN     N3       NG1T1   -0.460000       14.0070           0
      6591 WT2      650      MECN     C1       CG331   -0.170000       12.0110           0
      6592 WT2      650      MECN     H11      HGA3     0.090000        1.0080           0
      6593 WT2      650      MECN     H12      HGA3     0.090000        1.0080           0
      6594 WT2      650      MECN     H13      HGA3     0.090000        1.0080           0
      6595 WT2      650      MECN     C2       CG1N1    0.360000       12.0110           0
      6596 WT2      650      MECN     N3       NG1T1   -0.460000       14.0070           0
      6597 WT2      651      MECN     C1       CG331   -0.170000       12.0110           0
      6598 WT2      651      MECN     H11      HGA3     0.090000        1.0080           0
      6599 WT2      651      MECN     H12      HGA3     0.090000        1.0080           0
      6600 WT2      651      MECN     H13      HGA3     0.090000        1.0080           0
      6601 WT2      651      MECN     C2       CG1N1    0.360000       12.0110           0
      6602 WT2      651      MECN     N3       NG1T1   -0.460000       14.0070           0
      6603 WT2      656      MECN     C1       CG331   -0.170000       12.0110           0
      6604 WT2      656      MECN     H11      HGA3     0.090000        1.0080           0
      6605 WT2      656      MECN     H12      HGA3     0.090000        1.0080           0
      6606 WT2      656      MECN     H13      HGA3     0.090000        1.0080           0
      6607 WT2      656      MECN     C2       CG1N1    0.360000       12.0110           0
      6608 WT2      656      MECN     N3       NG1T1   -0.460000       14.0070           0
      6609 WT2      658      MECN     C1       CG331   -0.170000       12.0110           0
      6610 WT2      658      MECN     H11      HGA3     0.090000        1.0080           0
      6611 WT2      658      MECN     H12      HGA3     0.090000        1.0080           0
      6612 WT2      658      MECN     H13      HGA3     0.090000        1.0080           0
      6613 WT2      658      MECN     C2       CG1N1    0.360000       12.0110           0
      6614 WT2      658      MECN     N3       NG1T1   -0.460000       14.0070           0
      6615 WT2      661      MECN     C1       CG331   -0.170000       12.0110           0
      6616 WT2      661      MECN     H11      HGA3     0.090000        1.0080           0
      6617 WT2      661      MECN     H12      HGA3     0.090000        1.0080           0
      6618 WT2      661      MECN     H13      HGA3     0.090000        1.0080           0
      6619 WT2      661      MECN     C2       CG1N1    0.360000       12.0110           0
      6620 WT2      661      MECN     N3       NG1T1   -0.460000       14.0070           0
      6621 WT2      663      MECN     C1       CG331   -0.170000       12.0110           0
      6622 WT2      663      MECN     H11      HGA3     0.090000        1.0080           0
      6623 WT2      663      MECN     H12      HGA3     0.090000        1.0080           0
      6624 WT2      663      MECN     H13      HGA3     0.090000        1.0080           0
      6625 WT2      663      MECN     C2       CG1N1    0.360000       12.0110           0
      6626 WT2      663      MECN     N3       NG1T1   -0.460000       14.0070           0
      6627 WT2      667      MECN     C1       CG331   -0.170000       12.0110           0
      6628 WT2      667      MECN     H11      HGA3     0.090000        1.0080           0
      6629 WT2      667      MECN     H12      HGA3     0.090000        1.0080           0
      6630 WT2      667      MECN     H13      HGA3     0.090000        1.0080           0
      6631 WT2      667      MECN     C2       CG1N1    0.360000       12.0110           0
      6632 WT2      667      MECN     N3       NG1T1   -0.460000       14.0070           0
      6633 WT2      670      MECN     C1       CG331   -0.170000       12.0110           0
      6634 WT2      670      MECN     H11      HGA3     0.090000        1.0080           0
      6635 WT2      670      MECN     H12      HGA3     0.090000        1.0080           0
      6636 WT2      670      MECN     H13      HGA3     0.090000        1.0080           0
      6637 WT2      670      MECN     C2       CG1N1    0.360000       12.0110           0
      6638 WT2      670      MECN     N3       NG1T1   -0.460000       14.0070           0
      6639 WT2      672      MECN     C1       CG331   -0.170000       12.0110           0
      6640 WT2      672      MECN     H11      HGA3     0.090000        1.0080           0
      6641 WT2      672      MECN     H12      HGA3     0.090000        1.0080           0
      6642 WT2      672      MECN     H13      HGA3     0.090000        1.0080           0
      6643 WT2      672      MECN     C2       CG1N1    0.360000       12.0110           0
      6644 WT2      672      MECN     N3       NG1T1   -0.460000       14.0070           0
      6645 WT2      673      MECN     C1       CG331   -0.170000       12.0110           0
      6646 WT2      673      MECN     H11      HGA3     0.090000        1.0080           0
      6647 WT2      673      MECN     H12      HGA3     0.090000        1.0080           0
      6648 WT2      673      MECN     H13      HGA3     0.090000        1.0080           0
      6649 WT2      673      MECN     C2       CG1N1    0.360000       12.0110           0
      6650 WT2      673      MECN     N3       NG1T1   -0.460000       14.0070           0
      6651 WT2      679      MECN     C1       CG331   -0.170000       12.0110           0
      6652 WT2      679      MECN     H11      HGA3     0.090000        1.0080           0
      6653 WT2      679      MECN     H12      HGA3     0.090000        1.0080           0
      6654 WT2      679      MECN     H13      HGA3     0.090000        1.0080           0
      6655 WT2      679      MECN     C2       CG1N1    0.360000       12.0110           0
      6656 WT2      679      MECN     N3       NG1T1   -0.460000       14.0070           0
      6657 WT2      688      MECN     C1       CG331   -0.170000       12.0110           0
      6658 WT2      688      MECN     H11      HGA3     0.090000        1.0080           0
      6659 WT2      688      MECN     H12      HGA3     0.090000        1.0080           0
      6660 WT2      688      MECN     H13      HGA3     0.090000        1.0080           0
      6661 WT2      688      MECN     C2       CG1N1    0.360000       12.0110           0
      6662 WT2      688      MECN     N3       NG1T1   -0.460000       14.0070           0
      6663 WT2      689      MECN     C1       CG331   -0.170000       12.0110           0
      6664 WT2      689      MECN     H11      HGA3     0.090000        1.0080           0
      6665 WT2      689      MECN     H12      HGA3     0.090000        1.0080           0
      6666 WT2      689      MECN     H13      HGA3     0.090000        1.0080           0
      6667 WT2      689      MECN     C2       CG1N1    0.360000       12.0110           0
      6668 WT2      689      MECN     N3       NG1T1   -0.460000       14.0070           0
      6669 WT2      692      MECN     C1       CG331   -0.170000       12.0110           0
      6670 WT2      692      MECN     H11      HGA3     0.090000        1.0080           0
      6671 WT2      692      MECN     H12      HGA3     0.090000        1.0080           0
      6672 WT2      692      MECN     H13      HGA3     0.090000        1.0080           0
      6673 WT2      692      MECN     C2       CG1N1    0.360000       12.0110           0
      6674 WT2      692      MECN     N3       NG1T1   -0.460000       14.0070           0
      6675 WT2      696      MECN     C1       CG331   -0.170000       12.0110           0
      6676 WT2      696      MECN     H11      HGA3     0.090000        1.0080           0
      6677 WT2      696      MECN     H12      HGA3     0.090000        1.0080           0
      6678 WT2      696      MECN     H13      HGA3     0.090000        1.0080           0
      6679 WT2      696      MECN     C2       CG1N1    0.360000       12.0110           0
      6680 WT2      696      MECN     N3       NG1T1   -0.460000       14.0070           0
      6681 WT2      699      MECN     C1       CG331   -0.170000       12.0110           0
      6682 WT2      699      MECN     H11      HGA3     0.090000        1.0080           0
      6683 WT2      699      MECN     H12      HGA3     0.090000        1.0080           0
      6684 WT2      699      MECN     H13      HGA3     0.090000        1.0080           0
      6685 WT2      699      MECN     C2       CG1N1    0.360000       12.0110           0
      6686 WT2      699      MECN     N3       NG1T1   -0.460000       14.0070           0
      6687 WT2      705      MECN     C1       CG331   -0.170000       12.0110           0
      6688 WT2      705      MECN     H11      HGA3     0.090000        1.0080           0
      6689 WT2      705      MECN     H12      HGA3     0.090000        1.0080           0
      6690 WT2      705      MECN     H13      HGA3     0.090000        1.0080           0
      6691 WT2      705      MECN     C2       CG1N1    0.360000       12.0110           0
      6692 WT2      705      MECN     N3       NG1T1   -0.460000       14.0070           0
      6693 WT2      706      MECN     C1       CG331   -0.170000       12.0110           0
      6694 WT2      706      MECN     H11      HGA3     0.090000        1.0080           0
      6695 WT2      706      MECN     H12      HGA3     0.090000        1.0080           0
      6696 WT2      706      MECN     H13      HGA3     0.090000        1.0080           0
      6697 WT2      706      MECN     C2       CG1N1    0.360000       12.0110           0
      6698 WT2      706      MECN     N3       NG1T1   -0.460000       14.0070           0
      6699 WT2      715      MECN     C1       CG331   -0.170000       12.0110           0
      6700 WT2      715      MECN     H11      HGA3     0.090000        1.0080           0
      6701 WT2      715      MECN     H12      HGA3     0.090000        1.0080           0
      6702 WT2      715      MECN     H13      HGA3     0.090000        1.0080           0
      6703 WT2      715      MECN     C2       CG1N1    0.360000       12.0110           0
      6704 WT2      715      MECN     N3       NG1T1   -0.460000       14.0070           0
      6705 WT2      722      MECN     C1       CG331   -0.170000       12.0110           0
      6706 WT2      722      MECN     H11      HGA3     0.090000        1.0080           0
      6707 WT2      722      MECN     H12      HGA3     0.090000        1.0080           0
      6708 WT2      722      MECN     H13      HGA3     0.090000        1.0080           0
      6709 WT2      722      MECN     C2       CG1N1    0.360000       12.0110           0
      6710 WT2      722      MECN     N3       NG1T1   -0.460000       14.0070           0
      6711 WT2      724      MECN     C1       CG331   -0.170000       12.0110           0
      6712 WT2      724      MECN     H11      HGA3     0.090000        1.0080           0
      6713 WT2      724      MECN     H12      HGA3     0.090000        1.0080           0
      6714 WT2      724      MECN     H13      HGA3     0.090000        1.0080           0
      6715 WT2      724      MECN     C2       CG1N1    0.360000       12.0110           0
      6716 WT2      724      MECN     N3       NG1T1   -0.460000       14.0070           0
      6717 WT2      728      MECN     C1       CG331   -0.170000       12.0110           0
      6718 WT2      728      MECN     H11      HGA3     0.090000        1.0080           0
      6719 WT2      728      MECN     H12      HGA3     0.090000        1.0080           0
      6720 WT2      728      MECN     H13      HGA3     0.090000        1.0080           0
      6721 WT2      728      MECN     C2       CG1N1    0.360000       12.0110           0
      6722 WT2      728      MECN     N3       NG1T1   -0.460000       14.0070           0
      6723 WT2      736      MECN     C1       CG331   -0.170000       12.0110           0
      6724 WT2      736      MECN     H11      HGA3     0.090000        1.0080           0
      6725 WT2      736      MECN     H12      HGA3     0.090000        1.0080           0
      6726 WT2      736      MECN     H13      HGA3     0.090000        1.0080           0
      6727 WT2      736      MECN     C2       CG1N1    0.360000       12.0110           0
      6728 WT2      736      MECN     N3       NG1T1   -0.460000       14.0070           0
      6729 WT2      744      MECN     C1       CG331   -0.170000       12.0110           0
      6730 WT2      744      MECN     H11      HGA3     0.090000        1.0080           0
      6731 WT2      744      MECN     H12      HGA3     0.090000        1.0080           0
      6732 WT2      744      MECN     H13      HGA3     0.090000        1.0080           0
      6733 WT2      744      MECN     C2       CG1N1    0.360000       12.0110           0
      6734 WT2      744      MECN     N3       NG1T1   -0.460000       14.0070           0
      6735 WT2      749      MECN     C1       CG331   -0.170000       12.0110           0
      6736 WT2      749      MECN     H11      HGA3     0.090000        1.0080           0
      6737 WT2      749      MECN     H12      HGA3     0.090000        1.0080           0
      6738 WT2      749      MECN     H13      HGA3     0.090000        1.0080           0
      6739 WT2      749      MECN     C2       CG1N1    0.360000       12.0110           0
      6740 WT2      749      MECN     N3       NG1T1   -0.460000       14.0070           0
      6741 WT2      758      MECN     C1       CG331   -0.170000       12.0110           0
      6742 WT2      758      MECN     H11      HGA3     0.090000        1.0080           0
      6743 WT2      758      MECN     H12      HGA3     0.090000        1.0080           0
      6744 WT2      758      MECN     H13      HGA3     0.090000        1.0080           0
      6745 WT2      758      MECN     C2       CG1N1    0.360000       12.0110           0
      6746 WT2      758      MECN     N3       NG1T1   -0.460000       14.0070           0
      6747 WT2      762      MECN     C1       CG331   -0.170000       12.0110           0
      6748 WT2      762      MECN     H11      HGA3     0.090000        1.0080           0
      6749 WT2      762      MECN     H12      HGA3     0.090000        1.0080           0
      6750 WT2      762      MECN     H13      HGA3     0.090000        1.0080           0
      6751 WT2      762      MECN     C2       CG1N1    0.360000       12.0110           0
      6752 WT2      762      MECN     N3       NG1T1   -0.460000       14.0070           0
      6753 WT2      765      MECN     C1       CG331   -0.170000       12.0110           0
      6754 WT2      765      MECN     H11      HGA3     0.090000        1.0080           0
      6755 WT2      765      MECN     H12      HGA3     0.090000        1.0080           0
      6756 WT2      765      MECN     H13      HGA3     0.090000        1.0080           0
      6757 WT2      765      MECN     C2       CG1N1    0.360000       12.0110           0
      6758 WT2      765      MECN     N3       NG1T1   -0.460000       14.0070           0
      6759 WT2      770      MECN     C1       CG331   -0.170000       12.0110           0
      6760 WT2      770      MECN     H11      HGA3     0.090000        1.0080           0
      6761 WT2      770      MECN     H12      HGA3     0.090000        1.0080           0
      6762 WT2      770      MECN     H13      HGA3     0.090000        1.0080           0
      6763 WT2      770      MECN     C2       CG1N1    0.360000       12.0110           0
      6764 WT2      770      MECN     N3       NG1T1   -0.460000       14.0070           0
      6765 WT2      774      MECN     C1       CG331   -0.170000       12.0110           0
      6766 WT2      774      MECN     H11      HGA3     0.090000        1.0080           0
      6767 WT2      774      MECN     H12      HGA3     0.090000        1.0080           0
      6768 WT2      774      MECN     H13      HGA3     0.090000        1.0080           0
      6769 WT2      774      MECN     C2       CG1N1    0.360000       12.0110           0
      6770 WT2      774      MECN     N3       NG1T1   -0.460000       14.0070           0
      6771 WT2      777      MECN     C1       CG331   -0.170000       12.0110           0
      6772 WT2      777      MECN     H11      HGA3     0.090000        1.0080           0
      6773 WT2      777      MECN     H12      HGA3     0.090000        1.0080           0
      6774 WT2      777      MECN     H13      HGA3     0.090000        1.0080           0
      6775 WT2      777      MECN     C2       CG1N1    0.360000       12.0110           0
      6776 WT2      777      MECN     N3       NG1T1   -0.460000       14.0070           0
      6777 WT2      780      MECN     C1       CG331   -0.170000       12.0110           0
      6778 WT2      780      MECN     H11      HGA3     0.090000        1.0080           0
      6779 WT2      780      MECN     H12      HGA3     0.090000        1.0080           0
      6780 WT2      780      MECN     H13      HGA3     0.090000        1.0080           0
      6781 WT2      780      MECN     C2       CG1N1    0.360000       12.0110           0
      6782 WT2      780      MECN     N3       NG1T1   -0.460000       14.0070           0
      6783 WT2      781      MECN     C1       CG331   -0.170000       12.0110           0
      6784 WT2      781      MECN     H11      HGA3     0.090000        1.0080           0
      6785 WT2      781      MECN     H12      HGA3     0.090000        1.0080           0
      6786 WT2      781      MECN     H13      HGA3     0.090000        1.0080           0
      6787 WT2      781      MECN     C2       CG1N1    0.360000       12.0110           0
      6788 WT2      781      MECN     N3       NG1T1   -0.460000       14.0070           0
      6789 WT2      783      MECN     C1       CG331   -0.170000       12.0110           0
      6790 WT2      783      MECN     H11      HGA3     0.090000        1.0080           0
      6791 WT2      783      MECN     H12      HGA3     0.090000        1.0080           0
      6792 WT2      783      MECN     H13      HGA3     0.090000        1.0080           0
      6793 WT2      783      MECN     C2       CG1N1    0.360000       12.0110           0
      6794 WT2      783      MECN     N3       NG1T1   -0.460000       14.0070           0
      6795 WT2      787      MECN     C1       CG331   -0.170000       12.0110           0
      6796 WT2      787      MECN     H11      HGA3     0.090000        1.0080           0
      6797 WT2      787      MECN     H12      HGA3     0.090000        1.0080           0
      6798 WT2      787      MECN     H13      HGA3     0.090000        1.0080           0
      6799 WT2      787      MECN     C2       CG1N1    0.360000       12.0110           0
      6800 WT2      787      MECN     N3       NG1T1   -0.460000       14.0070           0
      6801 WT2      791      MECN     C1       CG331   -0.170000       12.0110           0
      6802 WT2      791      MECN     H11      HGA3     0.090000        1.0080           0
      6803 WT2      791      MECN     H12      HGA3     0.090000        1.0080           0
      6804 WT2      791      MECN     H13      HGA3     0.090000        1.0080           0
      6805 WT2      791      MECN     C2       CG1N1    0.360000       12.0110           0
      6806 WT2      791      MECN     N3       NG1T1   -0.460000       14.0070           0
      6807 WT2      805      MECN     C1       CG331   -0.170000       12.0110           0
      6808 WT2      805      MECN     H11      HGA3     0.090000        1.0080           0
      6809 WT2      805      MECN     H12      HGA3     0.090000        1.0080           0
      6810 WT2      805      MECN     H13      HGA3     0.090000        1.0080           0
      6811 WT2      805      MECN     C2       CG1N1    0.360000       12.0110           0
      6812 WT2      805      MECN     N3       NG1T1   -0.460000       14.0070           0
      6813 WT2      807      MECN     C1       CG331   -0.170000       12.0110           0
      6814 WT2      807      MECN     H11      HGA3     0.090000        1.0080           0
      6815 WT2      807      MECN     H12      HGA3     0.090000        1.0080           0
      6816 WT2      807      MECN     H13      HGA3     0.090000        1.0080           0
      6817 WT2      807      MECN     C2       CG1N1    0.360000       12.0110           0
      6818 WT2      807      MECN     N3       NG1T1   -0.460000       14.0070           0
      6819 WT2      810      MECN     C1       CG331   -0.170000       12.0110           0
      6820 WT2      810      MECN     H11      HGA3     0.090000        1.0080           0
      6821 WT2      810      MECN     H12      HGA3     0.090000        1.0080           0
      6822 WT2      810      MECN     H13      HGA3     0.090000        1.0080           0
      6823 WT2      810      MECN     C2       CG1N1    0.360000       12.0110           0
      6824 WT2      810      MECN     N3       NG1T1   -0.460000       14.0070           0
      6825 WT2      836      MECN     C1       CG331   -0.170000       12.0110           0
      6826 WT2      836      MECN     H11      HGA3     0.090000        1.0080           0
      6827 WT2      836      MECN     H12      HGA3     0.090000        1.0080           0
      6828 WT2      836      MECN     H13      HGA3     0.090000        1.0080           0
      6829 WT2      836      MECN     C2       CG1N1    0.360000       12.0110           0
      6830 WT2      836      MECN     N3       NG1T1   -0.460000       14.0070           0
      6831 WT2      838      MECN     C1       CG331   -0.170000       12.0110           0
      6832 WT2      838      MECN     H11      HGA3     0.090000        1.0080           0
      6833 WT2      838      MECN     H12      HGA3     0.090000        1.0080           0
      6834 WT2      838      MECN     H13      HGA3     0.090000        1.0080           0
      6835 WT2      838      MECN     C2       CG1N1    0.360000       12.0110           0
      6836 WT2      838      MECN     N3       NG1T1   -0.460000       14.0070           0
      6837 WT2      839      MECN     C1       CG331   -0.170000       12.0110           0
      6838 WT2      839      MECN     H11      HGA3     0.090000        1.0080           0
      6839 WT2      839      MECN     H12      HGA3     0.090000        1.0080           0
      6840 WT2      839      MECN     H13      HGA3     0.090000        1.0080           0
      6841 WT2      839      MECN     C2       CG1N1    0.360000       12.0110           0
      6842 WT2      839      MECN     N3       NG1T1   -0.460000       14.0070           0
      6843 WT2      851      MECN     C1       CG331   -0.170000       12.0110           0
      6844 WT2      851      MECN     H11      HGA3     0.090000        1.0080           0
      6845 WT2      851      MECN     H12      HGA3     0.090000        1.0080           0
      6846 WT2      851      MECN     H13      HGA3     0.090000        1.0080           0
      6847 WT2      851      MECN     C2       CG1N1    0.360000       12.0110           0
      6848 WT2      851      MECN     N3       NG1T1   -0.460000       14.0070           0
      6849 WT2      866      MECN     C1       CG331   -0.170000       12.0110           0
      6850 WT2      866      MECN     H11      HGA3     0.090000        1.0080           0
      6851 WT2      866      MECN     H12      HGA3     0.090000        1.0080           0
      6852 WT2      866      MECN     H13      HGA3     0.090000        1.0080           0
      6853 WT2      866      MECN     C2       CG1N1    0.360000       12.0110           0
      6854 WT2      866      MECN     N3       NG1T1   -0.460000       14.0070           0
      6855 WT2      871      MECN     C1       CG331   -0.170000       12.0110           0
      6856 WT2      871      MECN     H11      HGA3     0.090000        1.0080           0
      6857 WT2      871      MECN     H12      HGA3     0.090000        1.0080           0
      6858 WT2      871      MECN     H13      HGA3     0.090000        1.0080           0
      6859 WT2      871      MECN     C2       CG1N1    0.360000       12.0110           0
      6860 WT2      871      MECN     N3       NG1T1   -0.460000       14.0070           0
      6861 WT2      875      MECN     C1       CG331   -0.170000       12.0110           0
      6862 WT2      875      MECN     H11      HGA3     0.090000        1.0080           0
      6863 WT2      875      MECN     H12      HGA3     0.090000        1.0080           0
      6864 WT2      875      MECN     H13      HGA3     0.090000        1.0080           0
      6865 WT2      875      MECN     C2       CG1N1    0.360000       12.0110           0
      6866 WT2      875      MECN     N3       NG1T1   -0.460000       14.0070           0
      6867 WT2      879      MECN     C1       CG331   -0.170000       12.0110           0
      6868 WT2      879      MECN     H11      HGA3     0.090000        1.0080           0
      6869 WT2      879      MECN     H12      HGA3     0.090000        1.0080           0
      6870 WT2      879      MECN     H13      HGA3     0.090000        1.0080           0
      6871 WT2      879      MECN     C2       CG1N1    0.360000       12.0110           0
      6872 WT2      879      MECN     N3       NG1T1   -0.460000       14.0070           0
      6873 WT2      880      MECN     C1       CG331   -0.170000       12.0110           0
      6874 WT2      880      MECN     H11      HGA3     0.090000        1.0080           0
      6875 WT2      880      MECN     H12      HGA3     0.090000        1.0080           0
      6876 WT2      880      MECN     H13      HGA3     0.090000        1.0080           0
      6877 WT2      880      MECN     C2       CG1N1    0.360000       12.0110           0
      6878 WT2      880      MECN     N3       NG1T1   -0.460000       14.0070           0
      6879 WT2      882      MECN     C1       CG331   -0.170000       12.0110           0
      6880 WT2      882      MECN     H11      HGA3     0.090000        1.0080           0
      6881 WT2      882      MECN     H12      HGA3     0.090000        1.0080           0
      6882 WT2      882      MECN     H13      HGA3     0.090000        1.0080           0
      6883 WT2      882      MECN     C2       CG1N1    0.360000       12.0110           0
      6884 WT2      882      MECN     N3       NG1T1   -0.460000       14.0070           0
      6885 WT2      883      MECN     C1       CG331   -0.170000       12.0110           0
      6886 WT2      883      MECN     H11      HGA3     0.090000        1.0080           0
      6887 WT2      883      MECN     H12      HGA3     0.090000        1.0080           0
      6888 WT2      883      MECN     H13      HGA3     0.090000        1.0080           0
      6889 WT2      883      MECN     C2       CG1N1    0.360000       12.0110           0
      6890 WT2      883      MECN     N3       NG1T1   -0.460000       14.0070           0
      6891 WT2      884      MECN     C1       CG331   -0.170000       12.0110           0
      6892 WT2      884      MECN     H11      HGA3     0.090000        1.0080           0
      6893 WT2      884      MECN     H12      HGA3     0.090000        1.0080           0
      6894 WT2      884      MECN     H13      HGA3     0.090000        1.0080           0
      6895 WT2      884      MECN     C2       CG1N1    0.360000       12.0110           0
      6896 WT2      884      MECN     N3       NG1T1   -0.460000       14.0070           0
      6897 WT2      897      MECN     C1       CG331   -0.170000       12.0110           0
      6898 WT2      897      MECN     H11      HGA3     0.090000        1.0080           0
      6899 WT2      897      MECN     H12      HGA3     0.090000        1.0080           0
      6900 WT2      897      MECN     H13      HGA3     0.090000        1.0080           0
      6901 WT2      897      MECN     C2       CG1N1    0.360000       12.0110           0
      6902 WT2      897      MECN     N3       NG1T1   -0.460000       14.0070           0
      6903 WT2      899      MECN     C1       CG331   -0.170000       12.0110           0
      6904 WT2      899      MECN     H11      HGA3     0.090000        1.0080           0
      6905 WT2      899      MECN     H12      HGA3     0.090000        1.0080           0
      6906 WT2      899      MECN     H13      HGA3     0.090000        1.0080           0
      6907 WT2      899      MECN     C2       CG1N1    0.360000       12.0110           0
      6908 WT2      899      MECN     N3       NG1T1   -0.460000       14.0070           0
      6909 WT2      901      MECN     C1       CG331   -0.170000       12.0110           0
      6910 WT2      901      MECN     H11      HGA3     0.090000        1.0080           0
      6911 WT2      901      MECN     H12      HGA3     0.090000        1.0080           0
      6912 WT2      901      MECN     H13      HGA3     0.090000        1.0080           0
      6913 WT2      901      MECN     C2       CG1N1    0.360000       12.0110           0
      6914 WT2      901      MECN     N3       NG1T1   -0.460000       14.0070           0
      6915 WT2      904      MECN     C1       CG331   -0.170000       12.0110           0
      6916 WT2      904      MECN     H11      HGA3     0.090000        1.0080           0
      6917 WT2      904      MECN     H12      HGA3     0.090000        1.0080           0
      6918 WT2      904      MECN     H13      HGA3     0.090000        1.0080           0
      6919 WT2      904      MECN     C2       CG1N1    0.360000       12.0110           0
      6920 WT2      904      MECN     N3       NG1T1   -0.460000       14.0070           0
      6921 WT2      907      MECN     C1       CG331   -0.170000       12.0110           0
      6922 WT2      907      MECN     H11      HGA3     0.090000        1.0080           0
      6923 WT2      907      MECN     H12      HGA3     0.090000        1.0080           0
      6924 WT2      907      MECN     H13      HGA3     0.090000        1.0080           0
      6925 WT2      907      MECN     C2       CG1N1    0.360000       12.0110           0
      6926 WT2      907      MECN     N3       NG1T1   -0.460000       14.0070           0
      6927 WT2      912      MECN     C1       CG331   -0.170000       12.0110           0
      6928 WT2      912      MECN     H11      HGA3     0.090000        1.0080           0
      6929 WT2      912      MECN     H12      HGA3     0.090000        1.0080           0
      6930 WT2      912      MECN     H13      HGA3     0.090000        1.0080           0
      6931 WT2      912      MECN     C2       CG1N1    0.360000       12.0110           0
      6932 WT2      912      MECN     N3       NG1T1   -0.460000       14.0070           0
      6933 WT2      914      MECN     C1       CG331   -0.170000       12.0110           0
      6934 WT2      914      MECN     H11      HGA3     0.090000        1.0080           0
      6935 WT2      914      MECN     H12      HGA3     0.090000        1.0080           0
      6936 WT2      914      MECN     H13      HGA3     0.090000        1.0080           0
      6937 WT2      914      MECN     C2       CG1N1    0.360000       12.0110           0
      6938 WT2      914      MECN     N3       NG1T1   -0.460000       14.0070           0
      6939 WT2      916      MECN     C1       CG331   -0.170000       12.0110           0
      6940 WT2      916      MECN     H11      HGA3     0.090000        1.0080           0
      6941 WT2      916      MECN     H12      HGA3     0.090000        1.0080           0
      6942 WT2      916      MECN     H13      HGA3     0.090000        1.0080           0
      6943 WT2      916      MECN     C2       CG1N1    0.360000       12.0110           0
      6944 WT2      916      MECN     N3       NG1T1   -0.460000       14.0070           0
      6945 WT2      918      MECN     C1       CG331   -0.170000       12.0110           0
      6946 WT2      918      MECN     H11      HGA3     0.090000        1.0080           0
      6947 WT2      918      MECN     H12      HGA3     0.090000        1.0080           0
      6948 WT2      918      MECN     H13      HGA3     0.090000        1.0080           0
      6949 WT2      918      MECN     C2       CG1N1    0.360000       12.0110           0
      6950 WT2      918      MECN     N3       NG1T1   -0.460000       14.0070           0
      6951 WT2      922      MECN     C1       CG331   -0.170000       12.0110           0
      6952 WT2      922      MECN     H11      HGA3     0.090000        1.0080           0
      6953 WT2      922      MECN     H12      HGA3     0.090000        1.0080           0
      6954 WT2      922      MECN     H13      HGA3     0.090000        1.0080           0
      6955 WT2      922      MECN     C2       CG1N1    0.360000       12.0110           0
      6956 WT2      922      MECN     N3       NG1T1   -0.460000       14.0070           0
      6957 WT2      934      MECN     C1       CG331   -0.170000       12.0110           0
      6958 WT2      934      MECN     H11      HGA3     0.090000        1.0080           0
      6959 WT2      934      MECN     H12      HGA3     0.090000        1.0080           0
      6960 WT2      934      MECN     H13      HGA3     0.090000        1.0080           0
      6961 WT2      934      MECN     C2       CG1N1    0.360000       12.0110           0
      6962 WT2      934      MECN     N3       NG1T1   -0.460000       14.0070           0
      6963 WT2      935      MECN     C1       CG331   -0.170000       12.0110           0
      6964 WT2      935      MECN     H11      HGA3     0.090000        1.0080           0
      6965 WT2      935      MECN     H12      HGA3     0.090000        1.0080           0
      6966 WT2      935      MECN     H13      HGA3     0.090000        1.0080           0
      6967 WT2      935      MECN     C2       CG1N1    0.360000       12.0110           0
      6968 WT2      935      MECN     N3       NG1T1   -0.460000       14.0070           0
      6969 WT2      938      MECN     C1       CG331   -0.170000       12.0110           0
      6970 WT2      938      MECN     H11      HGA3     0.090000        1.0080           0
      6971 WT2      938      MECN     H12      HGA3     0.090000        1.0080           0
      6972 WT2      938      MECN     H13      HGA3     0.090000        1.0080           0
      6973 WT2      938      MECN     C2       CG1N1    0.360000       12.0110           0
      6974 WT2      938      MECN     N3       NG1T1   -0.460000       14.0070           0
      6975 WT2      939      MECN     C1       CG331   -0.170000       12.0110           0
      6976 WT2      939      MECN     H11      HGA3     0.090000        1.0080           0
      6977 WT2      939      MECN     H12      HGA3     0.090000        1.0080           0
      6978 WT2      939      MECN     H13      HGA3     0.090000        1.0080           0
      6979 WT2      939      MECN     C2       CG1N1    0.360000       12.0110           0
      6980 WT2      939      MECN     N3       NG1T1   -0.460000       14.0070           0
      6981 WT2      947      MECN     C1       CG331   -0.170000       12.0110           0
      6982 WT2      947      MECN     H11      HGA3     0.090000        1.0080           0
      6983 WT2      947      MECN     H12      HGA3     0.090000        1.0080           0
      6984 WT2      947      MECN     H13      HGA3     0.090000        1.0080           0
      6985 WT2      947      MECN     C2       CG1N1    0.360000       12.0110           0
      6986 WT2      947      MECN     N3       NG1T1   -0.460000       14.0070           0
      6987 WT2      959      MECN     C1       CG331   -0.170000       12.0110           0
      6988 WT2      959      MECN     H11      HGA3     0.090000        1.0080           0
      6989 WT2      959      MECN     H12      HGA3     0.090000        1.0080           0
      6990 WT2      959      MECN     H13      HGA3     0.090000        1.0080           0
      6991 WT2      959      MECN     C2       CG1N1    0.360000       12.0110           0
      6992 WT2      959      MECN     N3       NG1T1   -0.460000       14.0070           0
      6993 WT2      960      MECN     C1       CG331   -0.170000       12.0110           0
      6994 WT2      960      MECN     H11      HGA3     0.090000        1.0080           0
      6995 WT2      960      MECN     H12      HGA3     0.090000        1.0080           0
      6996 WT2      960      MECN     H13      HGA3     0.090000        1.0080           0
      6997 WT2      960      MECN     C2       CG1N1    0.360000       12.0110           0
      6998 WT2      960      MECN     N3       NG1T1   -0.460000       14.0070           0
      6999 WT2      963      MECN     C1       CG331   -0.170000       12.0110           0
      7000 WT2      963      MECN     H11      HGA3     0.090000        1.0080           0
      7001 WT2      963      MECN     H12      HGA3     0.090000        1.0080           0
      7002 WT2      963      MECN     H13      HGA3     0.090000        1.0080           0
      7003 WT2      963      MECN     C2       CG1N1    0.360000       12.0110           0
      7004 WT2      963      MECN     N3       NG1T1   -0.460000       14.0070           0
      7005 WT2      964      MECN     C1       CG331   -0.170000       12.0110           0
      7006 WT2      964      MECN     H11      HGA3     0.090000        1.0080           0
      7007 WT2      964      MECN     H12      HGA3     0.090000        1.0080           0
      7008 WT2      964      MECN     H13      HGA3     0.090000        1.0080           0
      7009 WT2      964      MECN     C2       CG1N1    0.360000       12.0110           0
      7010 WT2      964      MECN     N3       NG1T1   -0.460000       14.0070           0
      7011 WT2      967      MECN     C1       CG331   -0.170000       12.0110           0
      7012 WT2      967      MECN     H11      HGA3     0.090000        1.0080           0
      7013 WT2      967      MECN     H12      HGA3     0.090000        1.0080           0
      7014 WT2      967      MECN     H13      HGA3     0.090000        1.0080           0
      7015 WT2      967      MECN     C2       CG1N1    0.360000       12.0110           0
      7016 WT2      967      MECN     N3       NG1T1   -0.460000       14.0070           0
      7017 WT2      971      MECN     C1       CG331   -0.170000       12.0110           0
      7018 WT2      971      MECN     H11      HGA3     0.090000        1.0080           0
      7019 WT2      971      MECN     H12      HGA3     0.090000        1.0080           0
      7020 WT2      971      MECN     H13      HGA3     0.090000        1.0080           0
      7021 WT2      971      MECN     C2       CG1N1    0.360000       12.0110           0
      7022 WT2      971      MECN     N3       NG1T1   -0.460000       14.0070           0
      7023 WT2      975      MECN     C1       CG331   -0.170000       12.0110           0
      7024 WT2      975      MECN     H11      HGA3     0.090000        1.0080           0
      7025 WT2      975      MECN     H12      HGA3     0.090000        1.0080           0
      7026 WT2      975      MECN     H13      HGA3     0.090000        1.0080           0
      7027 WT2      975      MECN     C2       CG1N1    0.360000       12.0110           0
      7028 WT2      975      MECN     N3       NG1T1   -0.460000       14.0070           0
      7029 WT2      983      MECN     C1       CG331   -0.170000       12.0110           0
      7030 WT2      983      MECN     H11      HGA3     0.090000        1.0080           0
      7031 WT2      983      MECN     H12      HGA3     0.090000        1.0080           0
      7032 WT2      983      MECN     H13      HGA3     0.090000        1.0080           0
      7033 WT2      983      MECN     C2       CG1N1    0.360000       12.0110           0
      7034 WT2      983      MECN     N3       NG1T1   -0.460000       14.0070           0
      7035 WT2      986      MECN     C1       CG331   -0.170000       12.0110           0
      7036 WT2      986      MECN     H11      HGA3     0.090000        1.0080           0
      7037 WT2      986      MECN     H12      HGA3     0.090000        1.0080           0
      7038 WT2      986      MECN     H13      HGA3     0.090000        1.0080           0
      7039 WT2      986      MECN     C2       CG1N1    0.360000       12.0110           0
      7040 WT2      986      MECN     N3       NG1T1   -0.460000       14.0070           0
      7041 WT2      999      MECN     C1       CG331   -0.170000       12.0110           0
      7042 WT2      999      MECN     H11      HGA3     0.090000        1.0080           0
      7043 WT2      999      MECN     H12      HGA3     0.090000        1.0080           0
      7044 WT2      999      MECN     H13      HGA3     0.090000        1.0080           0
      7045 WT2      999      MECN     C2       CG1N1    0.360000       12.0110           0
      7046 WT2      999      MECN     N3       NG1T1   -0.460000       14.0070           0
      7047 WT2      1001     MECN     C1       CG331   -0.170000       12.0110           0
      7048 WT2      1001     MECN     H11      HGA3     0.090000        1.0080           0
      7049 WT2      1001     MECN     H12      HGA3     0.090000        1.0080           0
      7050 WT2      1001     MECN     H13      HGA3     0.090000        1.0080           0
      7051 WT2      1001     MECN     C2       CG1N1    0.360000       12.0110           0
      7052 WT2      1001     MECN     N3       NG1T1   -0.460000       14.0070           0
      7053 WT2      1002     MECN     C1       CG331   -0.170000       12.0110           0
      7054 WT2      1002     MECN     H11      HGA3     0.090000        1.0080           0
      7055 WT2      1002     MECN     H12      HGA3     0.090000        1.0080           0
      7056 WT2      1002     MECN     H13      HGA3     0.090000        1.0080           0
      7057 WT2      1002     MECN     C2       CG1N1    0.360000       12.0110           0
      7058 WT2      1002     MECN     N3       NG1T1   -0.460000       14.0070           0
      7059 WT2      1005     MECN     C1       CG331   -0.170000       12.0110           0
      7060 WT2      1005     MECN     H11      HGA3     0.090000        1.0080           0
      7061 WT2      1005     MECN     H12      HGA3     0.090000        1.0080           0
      7062 WT2      1005     MECN     H13      HGA3     0.090000        1.0080           0
      7063 WT2      1005     MECN     C2       CG1N1    0.360000       12.0110           0
      7064 WT2      1005     MECN     N3       NG1T1   -0.460000       14.0070           0
      7065 WT2      1016     MECN     C1       CG331   -0.170000       12.0110           0
      7066 WT2      1016     MECN     H11      HGA3     0.090000        1.0080           0
      7067 WT2      1016     MECN     H12      HGA3     0.090000        1.0080           0
      7068 WT2      1016     MECN     H13      HGA3     0.090000        1.0080           0
      7069 WT2      1016     MECN     C2       CG1N1    0.360000       12.0110           0
      7070 WT2      1016     MECN     N3       NG1T1   -0.460000       14.0070           0
      7071 WT2      1020     MECN     C1       CG331   -0.170000       12.0110           0
      7072 WT2      1020     MECN     H11      HGA3     0.090000        1.0080           0
      7073 WT2      1020     MECN     H12      HGA3     0.090000        1.0080           0
      7074 WT2      1020     MECN     H13      HGA3     0.090000        1.0080           0
      7075 WT2      1020     MECN     C2       CG1N1    0.360000       12.0110           0
      7076 WT2      1020     MECN     N3       NG1T1   -0.460000       14.0070           0
      7077 WT2      1022     MECN     C1       CG331   -0.170000       12.0110           0
      7078 WT2      1022     MECN     H11      HGA3     0.090000        1.0080           0
      7079 WT2      1022     MECN     H12      HGA3     0.090000        1.0080           0
      7080 WT2      1022     MECN     H13      HGA3     0.090000        1.0080           0
      7081 WT2      1022     MECN     C2       CG1N1    0.360000       12.0110           0
      7082 WT2      1022     MECN     N3       NG1T1   -0.460000       14.0070           0
      7083 WT2      1025     MECN     C1       CG331   -0.170000       12.0110           0
      7084 WT2      1025     MECN     H11      HGA3     0.090000        1.0080           0
      7085 WT2      1025     MECN     H12      HGA3     0.090000        1.0080           0
      7086 WT2      1025     MECN     H13      HGA3     0.090000        1.0080           0
      7087 WT2      1025     MECN     C2       CG1N1    0.360000       12.0110           0
      7088 WT2      1025     MECN     N3       NG1T1   -0.460000       14.0070           0
      7089 WT2      1026     MECN     C1       CG331   -0.170000       12.0110           0
      7090 WT2      1026     MECN     H11      HGA3     0.090000        1.0080           0
      7091 WT2      1026     MECN     H12      HGA3     0.090000        1.0080           0
      7092 WT2      1026     MECN     H13      HGA3     0.090000        1.0080           0
      7093 WT2      1026     MECN     C2       CG1N1    0.360000       12.0110           0
      7094 WT2      1026     MECN     N3       NG1T1   -0.460000       14.0070           0
      7095 WT2      1027     MECN     C1       CG331   -0.170000       12.0110           0
      7096 WT2      1027     MECN     H11      HGA3     0.090000        1.0080           0
      7097 WT2      1027     MECN     H12      HGA3     0.090000        1.0080           0
      7098 WT2      1027     MECN     H13      HGA3     0.090000        1.0080           0
      7099 WT2      1027     MECN     C2       CG1N1    0.360000       12.0110           0
      7100 WT2      1027     MECN     N3       NG1T1   -0.460000       14.0070           0
      7101 WT2      1030     MECN     C1       CG331   -0.170000       12.0110           0
      7102 WT2      1030     MECN     H11      HGA3     0.090000        1.0080           0
      7103 WT2      1030     MECN     H12      HGA3     0.090000        1.0080           0
      7104 WT2      1030     MECN     H13      HGA3     0.090000        1.0080           0
      7105 WT2      1030     MECN     C2       CG1N1    0.360000       12.0110           0
      7106 WT2      1030     MECN     N3       NG1T1   -0.460000       14.0070           0
      7107 WT2      1038     MECN     C1       CG331   -0.170000       12.0110           0
      7108 WT2      1038     MECN     H11      HGA3     0.090000        1.0080           0
      7109 WT2      1038     MECN     H12      HGA3     0.090000        1.0080           0
      7110 WT2      1038     MECN     H13      HGA3     0.090000        1.0080           0
      7111 WT2      1038     MECN     C2       CG1N1    0.360000       12.0110           0
      7112 WT2      1038     MECN     N3       NG1T1   -0.460000       14.0070           0
      7113 WT2      1045     MECN     C1       CG331   -0.170000       12.0110           0
      7114 WT2      1045     MECN     H11      HGA3     0.090000        1.0080           0
      7115 WT2      1045     MECN     H12      HGA3     0.090000        1.0080           0
      7116 WT2      1045     MECN     H13      HGA3     0.090000        1.0080           0
      7117 WT2      1045     MECN     C2       CG1N1    0.360000       12.0110           0
      7118 WT2      1045     MECN     N3       NG1T1   -0.460000       14.0070           0
      7119 WT2      1050     MECN     C1       CG331   -0.170000       12.0110           0
      7120 WT2      1050     MECN     H11      HGA3     0.090000        1.0080           0
      7121 WT2      1050     MECN     H12      HGA3     0.090000        1.0080           0
      7122 WT2      1050     MECN     H13      HGA3     0.090000        1.0080           0
      7123 WT2      1050     MECN     C2       CG1N1    0.360000       12.0110           0
      7124 WT2      1050     MECN     N3       NG1T1   -0.460000       14.0070           0
      7125 WT2      1060     MECN     C1       CG331   -0.170000       12.0110           0
      7126 WT2      1060     MECN     H11      HGA3     0.090000        1.0080           0
      7127 WT2      1060     MECN     H12      HGA3     0.090000        1.0080           0
      7128 WT2      1060     MECN     H13      HGA3     0.090000        1.0080           0
      7129 WT2      1060     MECN     C2       CG1N1    0.360000       12.0110           0
      7130 WT2      1060     MECN     N3       NG1T1   -0.460000       14.0070           0
      7131 WT2      1073     MECN     C1       CG331   -0.170000       12.0110           0
      7132 WT2      1073     MECN     H11      HGA3     0.090000        1.0080           0
      7133 WT2      1073     MECN     H12      HGA3     0.090000        1.0080           0
      7134 WT2      1073     MECN     H13      HGA3     0.090000        1.0080           0
      7135 WT2      1073     MECN     C2       CG1N1    0.360000       12.0110           0
      7136 WT2      1073     MECN     N3       NG1T1   -0.460000       14.0070           0
      7137 WT2      1077     MECN     C1       CG331   -0.170000       12.0110           0
      7138 WT2      1077     MECN     H11      HGA3     0.090000        1.0080           0
      7139 WT2      1077     MECN     H12      HGA3     0.090000        1.0080           0
      7140 WT2      1077     MECN     H13      HGA3     0.090000        1.0080           0
      7141 WT2      1077     MECN     C2       CG1N1    0.360000       12.0110           0
      7142 WT2      1077     MECN     N3       NG1T1   -0.460000       14.0070           0
      7143 WT2      1088     MECN     C1       CG331   -0.170000       12.0110           0
      7144 WT2      1088     MECN     H11      HGA3     0.090000        1.0080           0
      7145 WT2      1088     MECN     H12      HGA3     0.090000        1.0080           0
      7146 WT2      1088     MECN     H13      HGA3     0.090000        1.0080           0
      7147 WT2      1088     MECN     C2       CG1N1    0.360000       12.0110           0
      7148 WT2      1088     MECN     N3       NG1T1   -0.460000       14.0070           0
      7149 WT2      1096     MECN     C1       CG331   -0.170000       12.0110           0
      7150 WT2      1096     MECN     H11      HGA3     0.090000        1.0080           0
      7151 WT2      1096     MECN     H12      HGA3     0.090000        1.0080           0
      7152 WT2      1096     MECN     H13      HGA3     0.090000        1.0080           0
      7153 WT2      1096     MECN     C2       CG1N1    0.360000       12.0110           0
      7154 WT2      1096     MECN     N3       NG1T1   -0.460000       14.0070           0
      7155 WT2      1098     MECN     C1       CG331   -0.170000       12.0110           0
      7156 WT2      1098     MECN     H11      HGA3     0.090000        1.0080           0
      7157 WT2      1098     MECN     H12      HGA3     0.090000        1.0080           0
      7158 WT2      1098     MECN     H13      HGA3     0.090000        1.0080           0
      7159 WT2      1098     MECN     C2       CG1N1    0.360000       12.0110           0
      7160 WT2      1098     MECN     N3       NG1T1   -0.460000       14.0070           0
      7161 WT2      1099     MECN     C1       CG331   -0.170000       12.0110           0
      7162 WT2      1099     MECN     H11      HGA3     0.090000        1.0080           0
      7163 WT2      1099     MECN     H12      HGA3     0.090000        1.0080           0
      7164 WT2      1099     MECN     H13      HGA3     0.090000        1.0080           0
      7165 WT2      1099     MECN     C2       CG1N1    0.360000       12.0110           0
      7166 WT2      1099     MECN     N3       NG1T1   -0.460000       14.0070           0
      7167 WT2      1100     MECN     C1       CG331   -0.170000       12.0110           0
      7168 WT2      1100     MECN     H11      HGA3     0.090000        1.0080           0
      7169 WT2      1100     MECN     H12      HGA3     0.090000        1.0080           0
      7170 WT2      1100     MECN     H13      HGA3     0.090000        1.0080           0
      7171 WT2      1100     MECN     C2       CG1N1    0.360000       12.0110           0
      7172 WT2      1100     MECN     N3       NG1T1   -0.460000       14.0070           0
      7173 WT2      1101     MECN     C1       CG331   -0.170000       12.0110           0
      7174 WT2      1101     MECN     H11      HGA3     0.090000        1.0080           0
      7175 WT2      1101     MECN     H12      HGA3     0.090000        1.0080           0
      7176 WT2      1101     MECN     H13      HGA3     0.090000        1.0080           0
      7177 WT2      1101     MECN     C2       CG1N1    0.360000       12.0110           0
      7178 WT2      1101     MECN     N3       NG1T1   -0.460000       14.0070           0
      7179 WT2      1110     MECN     C1       CG331   -0.170000       12.0110           0
      7180 WT2      1110     MECN     H11      HGA3     0.090000        1.0080           0
      7181 WT2      1110     MECN     H12      HGA3     0.090000        1.0080           0
      7182 WT2      1110     MECN     H13      HGA3     0.090000        1.0080           0
      7183 WT2      1110     MECN     C2       CG1N1    0.360000       12.0110           0
      7184 WT2      1110     MECN     N3       NG1T1   -0.460000       14.0070           0
      7185 WT2      1115     MECN     C1       CG331   -0.170000       12.0110           0
      7186 WT2      1115     MECN     H11      HGA3     0.090000        1.0080           0
      7187 WT2      1115     MECN     H12      HGA3     0.090000        1.0080           0
      7188 WT2      1115     MECN     H13      HGA3     0.090000        1.0080           0
      7189 WT2      1115     MECN     C2       CG1N1    0.360000       12.0110           0
      7190 WT2      1115     MECN     N3       NG1T1   -0.460000       14.0070           0
      7191 WT2      1123     MECN     C1       CG331   -0.170000       12.0110           0
      7192 WT2      1123     MECN     H11      HGA3     0.090000        1.0080           0
      7193 WT2      1123     MECN     H12      HGA3     0.090000        1.0080           0
      7194 WT2      1123     MECN     H13      HGA3     0.090000        1.0080           0
      7195 WT2      1123     MECN     C2       CG1N1    0.360000       12.0110           0
      7196 WT2      1123     MECN     N3       NG1T1   -0.460000       14.0070           0
      7197 WT2      1129     MECN     C1       CG331   -0.170000       12.0110           0
      7198 WT2      1129     MECN     H11      HGA3     0.090000        1.0080           0
      7199 WT2      1129     MECN     H12      HGA3     0.090000        1.0080           0
      7200 WT2      1129     MECN     H13      HGA3     0.090000        1.0080           0
      7201 WT2      1129     MECN     C2       CG1N1    0.360000       12.0110           0
      7202 WT2      1129     MECN     N3       NG1T1   -0.460000       14.0070           0
      7203 WT2      1141     MECN     C1       CG331   -0.170000       12.0110           0
      7204 WT2      1141     MECN     H11      HGA3     0.090000        1.0080           0
      7205 WT2      1141     MECN     H12      HGA3     0.090000        1.0080           0
      7206 WT2      1141     MECN     H13      HGA3     0.090000        1.0080           0
      7207 WT2      1141     MECN     C2       CG1N1    0.360000       12.0110           0
      7208 WT2      1141     MECN     N3       NG1T1   -0.460000       14.0070           0
      7209 WT2      1143     MECN     C1       CG331   -0.170000       12.0110           0
      7210 WT2      1143     MECN     H11      HGA3     0.090000        1.0080           0
      7211 WT2      1143     MECN     H12      HGA3     0.090000        1.0080           0
      7212 WT2      1143     MECN     H13      HGA3     0.090000        1.0080           0
      7213 WT2      1143     MECN     C2       CG1N1    0.360000       12.0110           0
      7214 WT2      1143     MECN     N3       NG1T1   -0.460000       14.0070           0
      7215 WT2      1144     MECN     C1       CG331   -0.170000       12.0110           0
      7216 WT2      1144     MECN     H11      HGA3     0.090000        1.0080           0
      7217 WT2      1144     MECN     H12      HGA3     0.090000        1.0080           0
      7218 WT2      1144     MECN     H13      HGA3     0.090000        1.0080           0
      7219 WT2      1144     MECN     C2       CG1N1    0.360000       12.0110           0
      7220 WT2      1144     MECN     N3       NG1T1   -0.460000       14.0070           0
      7221 WT2      1153     MECN     C1       CG331   -0.170000       12.0110           0
      7222 WT2      1153     MECN     H11      HGA3     0.090000        1.0080           0
      7223 WT2      1153     MECN     H12      HGA3     0.090000        1.0080           0
      7224 WT2      1153     MECN     H13      HGA3     0.090000        1.0080           0
      7225 WT2      1153     MECN     C2       CG1N1    0.360000       12.0110           0
      7226 WT2      1153     MECN     N3       NG1T1   -0.460000       14.0070           0
      7227 WT2      1154     MECN     C1       CG331   -0.170000       12.0110           0
      7228 WT2      1154     MECN     H11      HGA3     0.090000        1.0080           0
      7229 WT2      1154     MECN     H12      HGA3     0.090000        1.0080           0
      7230 WT2      1154     MECN     H13      HGA3     0.090000        1.0080           0
      7231 WT2      1154     MECN     C2       CG1N1    0.360000       12.0110           0
      7232 WT2      1154     MECN     N3       NG1T1   -0.460000       14.0070           0
      7233 WT2      1169     MECN     C1       CG331   -0.170000       12.0110           0
      7234 WT2      1169     MECN     H11      HGA3     0.090000        1.0080           0
      7235 WT2      1169     MECN     H12      HGA3     0.090000        1.0080           0
      7236 WT2      1169     MECN     H13      HGA3     0.090000        1.0080           0
      7237 WT2      1169     MECN     C2       CG1N1    0.360000       12.0110           0
      7238 WT2      1169     MECN     N3       NG1T1   -0.460000       14.0070           0
      7239 WT2      1178     MECN     C1       CG331   -0.170000       12.0110           0
      7240 WT2      1178     MECN     H11      HGA3     0.090000        1.0080           0
      7241 WT2      1178     MECN     H12      HGA3     0.090000        1.0080           0
      7242 WT2      1178     MECN     H13      HGA3     0.090000        1.0080           0
      7243 WT2      1178     MECN     C2       CG1N1    0.360000       12.0110           0
      7244 WT2      1178     MECN     N3       NG1T1   -0.460000       14.0070           0
      7245 WT2      1186     MECN     C1       CG331   -0.170000       12.0110           0
      7246 WT2      1186     MECN     H11      HGA3     0.090000        1.0080           0
      7247 WT2      1186     MECN     H12      HGA3     0.090000        1.0080           0
      7248 WT2      1186     MECN     H13      HGA3     0.090000        1.0080           0
      7249 WT2      1186     MECN     C2       CG1N1    0.360000       12.0110           0
      7250 WT2      1186     MECN     N3       NG1T1   -0.460000       14.0070           0
      7251 WT2      1187     MECN     C1       CG331   -0.170000       12.0110           0
      7252 WT2      1187     MECN     H11      HGA3     0.090000        1.0080           0
      7253 WT2      1187     MECN     H12      HGA3     0.090000        1.0080           0
      7254 WT2      1187     MECN     H13      HGA3     0.090000        1.0080           0
      7255 WT2      1187     MECN     C2       CG1N1    0.360000       12.0110           0
      7256 WT2      1187     MECN     N3       NG1T1   -0.460000       14.0070           0
      7257 WT2      1189     MECN     C1       CG331   -0.170000       12.0110           0
      7258 WT2      1189     MECN     H11      HGA3     0.090000        1.0080           0
      7259 WT2      1189     MECN     H12      HGA3     0.090000        1.0080           0
      7260 WT2      1189     MECN     H13      HGA3     0.090000        1.0080           0
      7261 WT2      1189     MECN     C2       CG1N1    0.360000       12.0110           0
      7262 WT2      1189     MECN     N3       NG1T1   -0.460000       14.0070           0
      7263 WT2      1192     MECN     C1       CG331   -0.170000       12.0110           0
      7264 WT2      1192     MECN     H11      HGA3     0.090000        1.0080           0
      7265 WT2      1192     MECN     H12      HGA3     0.090000        1.0080           0
      7266 WT2      1192     MECN     H13      HGA3     0.090000        1.0080           0
      7267 WT2      1192     MECN     C2       CG1N1    0.360000       12.0110           0
      7268 WT2      1192     MECN     N3       NG1T1   -0.460000       14.0070           0
      7269 WT2      1194     MECN     C1       CG331   -0.170000       12.0110           0
      7270 WT2      1194     MECN     H11      HGA3     0.090000        1.0080           0
      7271 WT2      1194     MECN     H12      HGA3     0.090000        1.0080           0
      7272 WT2      1194     MECN     H13      HGA3     0.090000        1.0080           0
      7273 WT2      1194     MECN     C2       CG1N1    0.360000       12.0110           0
      7274 WT2      1194     MECN     N3       NG1T1   -0.460000       14.0070           0
      7275 WT2      1195     MECN     C1       CG331   -0.170000       12.0110           0
      7276 WT2      1195     MECN     H11      HGA3     0.090000        1.0080           0
      7277 WT2      1195     MECN     H12      HGA3     0.090000        1.0080           0
      7278 WT2      1195     MECN     H13      HGA3     0.090000        1.0080           0
      7279 WT2      1195     MECN     C2       CG1N1    0.360000       12.0110           0
      7280 WT2      1195     MECN     N3       NG1T1   -0.460000       14.0070           0
      7281 WT2      1198     MECN     C1       CG331   -0.170000       12.0110           0
      7282 WT2      1198     MECN     H11      HGA3     0.090000        1.0080           0
      7283 WT2      1198     MECN     H12      HGA3     0.090000        1.0080           0
      7284 WT2      1198     MECN     H13      HGA3     0.090000        1.0080           0
      7285 WT2      1198     MECN     C2       CG1N1    0.360000       12.0110           0
      7286 WT2      1198     MECN     N3       NG1T1   -0.460000       14.0070           0
      7287 WT2      1201     MECN     C1       CG331   -0.170000       12.0110           0
      7288 WT2      1201     MECN     H11      HGA3     0.090000        1.0080           0
      7289 WT2      1201     MECN     H12      HGA3     0.090000        1.0080           0
      7290 WT2      1201     MECN     H13      HGA3     0.090000        1.0080           0
      7291 WT2      1201     MECN     C2       CG1N1    0.360000       12.0110           0
      7292 WT2      1201     MECN     N3       NG1T1   -0.460000       14.0070           0
      7293 WT2      1207     MECN     C1       CG331   -0.170000       12.0110           0
      7294 WT2      1207     MECN     H11      HGA3     0.090000        1.0080           0
      7295 WT2      1207     MECN     H12      HGA3     0.090000        1.0080           0
      7296 WT2      1207     MECN     H13      HGA3     0.090000        1.0080           0
      7297 WT2      1207     MECN     C2       CG1N1    0.360000       12.0110           0
      7298 WT2      1207     MECN     N3       NG1T1   -0.460000       14.0070           0
      7299 WT2      1212     MECN     C1       CG331   -0.170000       12.0110           0
      7300 WT2      1212     MECN     H11      HGA3     0.090000        1.0080           0
      7301 WT2      1212     MECN     H12      HGA3     0.090000        1.0080           0
      7302 WT2      1212     MECN     H13      HGA3     0.090000        1.0080           0
      7303 WT2      1212     MECN     C2       CG1N1    0.360000       12.0110           0
      7304 WT2      1212     MECN     N3       NG1T1   -0.460000       14.0070           0
      7305 WT2      1214     MECN     C1       CG331   -0.170000       12.0110           0
      7306 WT2      1214     MECN     H11      HGA3     0.090000        1.0080           0
      7307 WT2      1214     MECN     H12      HGA3     0.090000        1.0080           0
      7308 WT2      1214     MECN     H13      HGA3     0.090000        1.0080           0
      7309 WT2      1214     MECN     C2       CG1N1    0.360000       12.0110           0
      7310 WT2      1214     MECN     N3       NG1T1   -0.460000       14.0070           0
      7311 WT2      1215     MECN     C1       CG331   -0.170000       12.0110           0
      7312 WT2      1215     MECN     H11      HGA3     0.090000        1.0080           0
      7313 WT2      1215     MECN     H12      HGA3     0.090000        1.0080           0
      7314 WT2      1215     MECN     H13      HGA3     0.090000        1.0080           0
      7315 WT2      1215     MECN     C2       CG1N1    0.360000       12.0110           0
      7316 WT2      1215     MECN     N3       NG1T1   -0.460000       14.0070           0
      7317 WT2      1233     MECN     C1       CG331   -0.170000       12.0110           0
      7318 WT2      1233     MECN     H11      HGA3     0.090000        1.0080           0
      7319 WT2      1233     MECN     H12      HGA3     0.090000        1.0080           0
      7320 WT2      1233     MECN     H13      HGA3     0.090000        1.0080           0
      7321 WT2      1233     MECN     C2       CG1N1    0.360000       12.0110           0
      7322 WT2      1233     MECN     N3       NG1T1   -0.460000       14.0070           0
      7323 WT2      1236     MECN     C1       CG331   -0.170000       12.0110           0
      7324 WT2      1236     MECN     H11      HGA3     0.090000        1.0080           0
      7325 WT2      1236     MECN     H12      HGA3     0.090000        1.0080           0
      7326 WT2      1236     MECN     H13      HGA3     0.090000        1.0080           0
      7327 WT2      1236     MECN     C2       CG1N1    0.360000       12.0110           0
      7328 WT2      1236     MECN     N3       NG1T1   -0.460000       14.0070           0
      7329 WT2      1245     MECN     C1       CG331   -0.170000       12.0110           0
      7330 WT2      1245     MECN     H11      HGA3     0.090000        1.0080           0
      7331 WT2      1245     MECN     H12      HGA3     0.090000        1.0080           0
      7332 WT2      1245     MECN     H13      HGA3     0.090000        1.0080           0
      7333 WT2      1245     MECN     C2       CG1N1    0.360000       12.0110           0
      7334 WT2      1245     MECN     N3       NG1T1   -0.460000       14.0070           0
      7335 WT2      1246     MECN     C1       CG331   -0.170000       12.0110           0
      7336 WT2      1246     MECN     H11      HGA3     0.090000        1.0080           0
      7337 WT2      1246     MECN     H12      HGA3     0.090000        1.0080           0
      7338 WT2      1246     MECN     H13      HGA3     0.090000        1.0080           0
      7339 WT2      1246     MECN     C2       CG1N1    0.360000       12.0110           0
      7340 WT2      1246     MECN     N3       NG1T1   -0.460000       14.0070           0
      7341 WT2      1266     MECN     C1       CG331   -0.170000       12.0110           0
      7342 WT2      1266     MECN     H11      HGA3     0.090000        1.0080           0
      7343 WT2      1266     MECN     H12      HGA3     0.090000        1.0080           0
      7344 WT2      1266     MECN     H13      HGA3     0.090000        1.0080           0
      7345 WT2      1266     MECN     C2       CG1N1    0.360000       12.0110           0
      7346 WT2      1266     MECN     N3       NG1T1   -0.460000       14.0070           0
      7347 WT2      1267     MECN     C1       CG331   -0.170000       12.0110           0
      7348 WT2      1267     MECN     H11      HGA3     0.090000        1.0080           0
      7349 WT2      1267     MECN     H12      HGA3     0.090000        1.0080           0
      7350 WT2      1267     MECN     H13      HGA3     0.090000        1.0080           0
      7351 WT2      1267     MECN     C2       CG1N1    0.360000       12.0110           0
      7352 WT2      1267     MECN     N3       NG1T1   -0.460000       14.0070           0
      7353 WT2      1270     MECN     C1       CG331   -0.170000       12.0110           0
      7354 WT2      1270     MECN     H11      HGA3     0.090000        1.0080           0
      7355 WT2      1270     MECN     H12      HGA3     0.090000        1.0080           0
      7356 WT2      1270     MECN     H13      HGA3     0.090000        1.0080           0
      7357 WT2      1270     MECN     C2       CG1N1    0.360000       12.0110           0
      7358 WT2      1270     MECN     N3       NG1T1   -0.460000       14.0070           0
      7359 WT2      1275     MECN     C1       CG331   -0.170000       12.0110           0
      7360 WT2      1275     MECN     H11      HGA3     0.090000        1.0080           0
      7361 WT2      1275     MECN     H12      HGA3     0.090000        1.0080           0
      7362 WT2      1275     MECN     H13      HGA3     0.090000        1.0080           0
      7363 WT2      1275     MECN     C2       CG1N1    0.360000       12.0110           0
      7364 WT2      1275     MECN     N3       NG1T1   -0.460000       14.0070           0
      7365 WT2      1278     MECN     C1       CG331   -0.170000       12.0110           0
      7366 WT2      1278     MECN     H11      HGA3     0.090000        1.0080           0
      7367 WT2      1278     MECN     H12      HGA3     0.090000        1.0080           0
      7368 WT2      1278     MECN     H13      HGA3     0.090000        1.0080           0
      7369 WT2      1278     MECN     C2       CG1N1    0.360000       12.0110           0
      7370 WT2      1278     MECN     N3       NG1T1   -0.460000       14.0070           0
      7371 WT2      1279     MECN     C1       CG331   -0.170000       12.0110           0
      7372 WT2      1279     MECN     H11      HGA3     0.090000        1.0080           0
      7373 WT2      1279     MECN     H12      HGA3     0.090000        1.0080           0
      7374 WT2      1279     MECN     H13      HGA3     0.090000        1.0080           0
      7375 WT2      1279     MECN     C2       CG1N1    0.360000       12.0110           0
      7376 WT2      1279     MECN     N3       NG1T1   -0.460000       14.0070           0
      7377 WT2      1281     MECN     C1       CG331   -0.170000       12.0110           0
      7378 WT2      1281     MECN     H11      HGA3     0.090000        1.0080           0
      7379 WT2      1281     MECN     H12      HGA3     0.090000        1.0080           0
      7380 WT2      1281     MECN     H13      HGA3     0.090000        1.0080           0
      7381 WT2      1281     MECN     C2       CG1N1    0.360000       12.0110           0
      7382 WT2      1281     MECN     N3       NG1T1   -0.460000       14.0070           0
      7383 WT2      1282     MECN     C1       CG331   -0.170000       12.0110           0
      7384 WT2      1282     MECN     H11      HGA3     0.090000        1.0080           0
      7385 WT2      1282     MECN     H12      HGA3     0.090000        1.0080           0
      7386 WT2      1282     MECN     H13      HGA3     0.090000        1.0080           0
      7387 WT2      1282     MECN     C2       CG1N1    0.360000       12.0110           0
      7388 WT2      1282     MECN     N3       NG1T1   -0.460000       14.0070           0
      7389 WT2      1287     MECN     C1       CG331   -0.170000       12.0110           0
      7390 WT2      1287     MECN     H11      HGA3     0.090000        1.0080           0
      7391 WT2      1287     MECN     H12      HGA3     0.090000        1.0080           0
      7392 WT2      1287     MECN     H13      HGA3     0.090000        1.0080           0
      7393 WT2      1287     MECN     C2       CG1N1    0.360000       12.0110           0
      7394 WT2      1287     MECN     N3       NG1T1   -0.460000       14.0070           0
      7395 WT2      1294     MECN     C1       CG331   -0.170000       12.0110           0
      7396 WT2      1294     MECN     H11      HGA3     0.090000        1.0080           0
      7397 WT2      1294     MECN     H12      HGA3     0.090000        1.0080           0
      7398 WT2      1294     MECN     H13      HGA3     0.090000        1.0080           0
      7399 WT2      1294     MECN     C2       CG1N1    0.360000       12.0110           0
      7400 WT2      1294     MECN     N3       NG1T1   -0.460000       14.0070           0
      7401 WT2      1304     MECN     C1       CG331   -0.170000       12.0110           0
      7402 WT2      1304     MECN     H11      HGA3     0.090000        1.0080           0
      7403 WT2      1304     MECN     H12      HGA3     0.090000        1.0080           0
      7404 WT2      1304     MECN     H13      HGA3     0.090000        1.0080           0
      7405 WT2      1304     MECN     C2       CG1N1    0.360000       12.0110           0
      7406 WT2      1304     MECN     N3       NG1T1   -0.460000       14.0070           0
      7407 WT2      1310     MECN     C1       CG331   -0.170000       12.0110           0
      7408 WT2      1310     MECN     H11      HGA3     0.090000        1.0080           0
      7409 WT2      1310     MECN     H12      HGA3     0.090000        1.0080           0
      7410 WT2      1310     MECN     H13      HGA3     0.090000        1.0080           0
      7411 WT2      1310     MECN     C2       CG1N1    0.360000       12.0110           0
      7412 WT2      1310     MECN     N3       NG1T1   -0.460000       14.0070           0
      7413 WT2      1312     MECN     C1       CG331   -0.170000       12.0110           0
      7414 WT2      1312     MECN     H11      HGA3     0.090000        1.0080           0
      7415 WT2      1312     MECN     H12      HGA3     0.090000        1.0080           0
      7416 WT2      1312     MECN     H13      HGA3     0.090000        1.0080           0
      7417 WT2      1312     MECN     C2       CG1N1    0.360000       12.0110           0
      7418 WT2      1312     MECN     N3       NG1T1   -0.460000       14.0070           0
      7419 WT2      1320     MECN     C1       CG331   -0.170000       12.0110           0
      7420 WT2      1320     MECN     H11      HGA3     0.090000        1.0080           0
      7421 WT2      1320     MECN     H12      HGA3     0.090000        1.0080           0
      7422 WT2      1320     MECN     H13      HGA3     0.090000        1.0080           0
      7423 WT2      1320     MECN     C2       CG1N1    0.360000       12.0110           0
      7424 WT2      1320     MECN     N3       NG1T1   -0.460000       14.0070           0
      7425 WT2      1323     MECN     C1       CG331   -0.170000       12.0110           0
      7426 WT2      1323     MECN     H11      HGA3     0.090000        1.0080           0
      7427 WT2      1323     MECN     H12      HGA3     0.090000        1.0080           0
      7428 WT2      1323     MECN     H13      HGA3     0.090000        1.0080           0
      7429 WT2      1323     MECN     C2       CG1N1    0.360000       12.0110           0
      7430 WT2      1323     MECN     N3       NG1T1   -0.460000       14.0070           0
      7431 WT2      1326     MECN     C1       CG331   -0.170000       12.0110           0
      7432 WT2      1326     MECN     H11      HGA3     0.090000        1.0080           0
      7433 WT2      1326     MECN     H12      HGA3     0.090000        1.0080           0
      7434 WT2      1326     MECN     H13      HGA3     0.090000        1.0080           0
      7435 WT2      1326     MECN     C2       CG1N1    0.360000       12.0110           0
      7436 WT2      1326     MECN     N3       NG1T1   -0.460000       14.0070           0
      7437 WT2      1330     MECN     C1       CG331   -0.170000       12.0110           0
      7438 WT2      1330     MECN     H11      HGA3     0.090000        1.0080           0
      7439 WT2      1330     MECN     H12      HGA3     0.090000        1.0080           0
      7440 WT2      1330     MECN     H13      HGA3     0.090000        1.0080           0
      7441 WT2      1330     MECN     C2       CG1N1    0.360000       12.0110           0
      7442 WT2      1330     MECN     N3       NG1T1   -0.460000       14.0070           0
      7443 WT3      3        MECN     C1       CG331   -0.170000       12.0110           0
      7444 WT3      3        MECN     H11      HGA3     0.090000        1.0080           0
      7445 WT3      3        MECN     H12      HGA3     0.090000        1.0080           0
      7446 WT3      3        MECN     H13      HGA3     0.090000        1.0080           0
      7447 WT3      3        MECN     C2       CG1N1    0.360000       12.0110           0
      7448 WT3      3        MECN     N3       NG1T1   -0.460000       14.0070           0
      7449 WT3      10       MECN     C1       CG331   -0.170000       12.0110           0
      7450 WT3      10       MECN     H11      HGA3     0.090000        1.0080           0
      7451 WT3      10       MECN     H12      HGA3     0.090000        1.0080           0
      7452 WT3      10       MECN     H13      HGA3     0.090000        1.0080           0
      7453 WT3      10       MECN     C2       CG1N1    0.360000       12.0110           0
      7454 WT3      10       MECN     N3       NG1T1   -0.460000       14.0070           0
      7455 WT3      12       MECN     C1       CG331   -0.170000       12.0110           0
      7456 WT3      12       MECN     H11      HGA3     0.090000        1.0080           0
      7457 WT3      12       MECN     H12      HGA3     0.090000        1.0080           0
      7458 WT3      12       MECN     H13      HGA3     0.090000        1.0080           0
      7459 WT3      12       MECN     C2       CG1N1    0.360000       12.0110           0
      7460 WT3      12       MECN     N3       NG1T1   -0.460000       14.0070           0
      7461 WT3      14       MECN     C1       CG331   -0.170000       12.0110           0
      7462 WT3      14       MECN     H11      HGA3     0.090000        1.0080           0
      7463 WT3      14       MECN     H12      HGA3     0.090000        1.0080           0
      7464 WT3      14       MECN     H13      HGA3     0.090000        1.0080           0
      7465 WT3      14       MECN     C2       CG1N1    0.360000       12.0110           0
      7466 WT3      14       MECN     N3       NG1T1   -0.460000       14.0070           0
      7467 WT3      21       MECN     C1       CG331   -0.170000       12.0110           0
      7468 WT3      21       MECN     H11      HGA3     0.090000        1.0080           0
      7469 WT3      21       MECN     H12      HGA3     0.090000        1.0080           0
      7470 WT3      21       MECN     H13      HGA3     0.090000        1.0080           0
      7471 WT3      21       MECN     C2       CG1N1    0.360000       12.0110           0
      7472 WT3      21       MECN     N3       NG1T1   -0.460000       14.0070           0
      7473 WT3      22       MECN     C1       CG331   -0.170000       12.0110           0
      7474 WT3      22       MECN     H11      HGA3     0.090000        1.0080           0
      7475 WT3      22       MECN     H12      HGA3     0.090000        1.0080           0
      7476 WT3      22       MECN     H13      HGA3     0.090000        1.0080           0
      7477 WT3      22       MECN     C2       CG1N1    0.360000       12.0110           0
      7478 WT3      22       MECN     N3       NG1T1   -0.460000       14.0070           0
      7479 WT3      27       MECN     C1       CG331   -0.170000       12.0110           0
      7480 WT3      27       MECN     H11      HGA3     0.090000        1.0080           0
      7481 WT3      27       MECN     H12      HGA3     0.090000        1.0080           0
      7482 WT3      27       MECN     H13      HGA3     0.090000        1.0080           0
      7483 WT3      27       MECN     C2       CG1N1    0.360000       12.0110           0
      7484 WT3      27       MECN     N3       NG1T1   -0.460000       14.0070           0
      7485 WT3      28       MECN     C1       CG331   -0.170000       12.0110           0
      7486 WT3      28       MECN     H11      HGA3     0.090000        1.0080           0
      7487 WT3      28       MECN     H12      HGA3     0.090000        1.0080           0
      7488 WT3      28       MECN     H13      HGA3     0.090000        1.0080           0
      7489 WT3      28       MECN     C2       CG1N1    0.360000       12.0110           0
      7490 WT3      28       MECN     N3       NG1T1   -0.460000       14.0070           0
      7491 WT3      44       MECN     C1       CG331   -0.170000       12.0110           0
      7492 WT3      44       MECN     H11      HGA3     0.090000        1.0080           0
      7493 WT3      44       MECN     H12      HGA3     0.090000        1.0080           0
      7494 WT3      44       MECN     H13      HGA3     0.090000        1.0080           0
      7495 WT3      44       MECN     C2       CG1N1    0.360000       12.0110           0
      7496 WT3      44       MECN     N3       NG1T1   -0.460000       14.0070           0
      7497 WT3      64       MECN     C1       CG331   -0.170000       12.0110           0
      7498 WT3      64       MECN     H11      HGA3     0.090000        1.0080           0
      7499 WT3      64       MECN     H12      HGA3     0.090000        1.0080           0
      7500 WT3      64       MECN     H13      HGA3     0.090000        1.0080           0
      7501 WT3      64       MECN     C2       CG1N1    0.360000       12.0110           0
      7502 WT3      64       MECN     N3       NG1T1   -0.460000       14.0070           0
      7503 WT3      65       MECN     C1       CG331   -0.170000       12.0110           0
      7504 WT3      65       MECN     H11      HGA3     0.090000        1.0080           0
      7505 WT3      65       MECN     H12      HGA3     0.090000        1.0080           0
      7506 WT3      65       MECN     H13      HGA3     0.090000        1.0080           0
      7507 WT3      65       MECN     C2       CG1N1    0.360000       12.0110           0
      7508 WT3      65       MECN     N3       NG1T1   -0.460000       14.0070           0
      7509 WT3      70       MECN     C1       CG331   -0.170000       12.0110           0
      7510 WT3      70       MECN     H11      HGA3     0.090000        1.0080           0
      7511 WT3      70       MECN     H12      HGA3     0.090000        1.0080           0
      7512 WT3      70       MECN     H13      HGA3     0.090000        1.0080           0
      7513 WT3      70       MECN     C2       CG1N1    0.360000       12.0110           0
      7514 WT3      70       MECN     N3       NG1T1   -0.460000       14.0070           0
      7515 WT3      74       MECN     C1       CG331   -0.170000       12.0110           0
      7516 WT3      74       MECN     H11      HGA3     0.090000        1.0080           0
      7517 WT3      74       MECN     H12      HGA3     0.090000        1.0080           0
      7518 WT3      74       MECN     H13      HGA3     0.090000        1.0080           0
      7519 WT3      74       MECN     C2       CG1N1    0.360000       12.0110           0
      7520 WT3      74       MECN     N3       NG1T1   -0.460000       14.0070           0
      7521 WT3      76       MECN     C1       CG331   -0.170000       12.0110           0
      7522 WT3      76       MECN     H11      HGA3     0.090000        1.0080           0
      7523 WT3      76       MECN     H12      HGA3     0.090000        1.0080           0
      7524 WT3      76       MECN     H13      HGA3     0.090000        1.0080           0
      7525 WT3      76       MECN     C2       CG1N1    0.360000       12.0110           0
      7526 WT3      76       MECN     N3       NG1T1   -0.460000       14.0070           0
      7527 WT3      85       MECN     C1       CG331   -0.170000       12.0110           0
      7528 WT3      85       MECN     H11      HGA3     0.090000        1.0080           0
      7529 WT3      85       MECN     H12      HGA3     0.090000        1.0080           0
      7530 WT3      85       MECN     H13      HGA3     0.090000        1.0080           0
      7531 WT3      85       MECN     C2       CG1N1    0.360000       12.0110           0
      7532 WT3      85       MECN     N3       NG1T1   -0.460000       14.0070           0
      7533 WT3      87       MECN     C1       CG331   -0.170000       12.0110           0
      7534 WT3      87       MECN     H11      HGA3     0.090000        1.0080           0
      7535 WT3      87       MECN     H12      HGA3     0.090000        1.0080           0
      7536 WT3      87       MECN     H13      HGA3     0.090000        1.0080           0
      7537 WT3      87       MECN     C2       CG1N1    0.360000       12.0110           0
      7538 WT3      87       MECN     N3       NG1T1   -0.460000       14.0070           0
      7539 WT3      98       MECN     C1       CG331   -0.170000       12.0110           0
      7540 WT3      98       MECN     H11      HGA3     0.090000        1.0080           0
      7541 WT3      98       MECN     H12      HGA3     0.090000        1.0080           0
      7542 WT3      98       MECN     H13      HGA3     0.090000        1.0080           0
      7543 WT3      98       MECN     C2       CG1N1    0.360000       12.0110           0
      7544 WT3      98       MECN     N3       NG1T1   -0.460000       14.0070           0
      7545 WT3      109      MECN     C1       CG331   -0.170000       12.0110           0
      7546 WT3      109      MECN     H11      HGA3     0.090000        1.0080           0
      7547 WT3      109      MECN     H12      HGA3     0.090000        1.0080           0
      7548 WT3      109      MECN     H13      HGA3     0.090000        1.0080           0
      7549 WT3      109      MECN     C2       CG1N1    0.360000       12.0110           0
      7550 WT3      109      MECN     N3       NG1T1   -0.460000       14.0070           0
      7551 WT3      110      MECN     C1       CG331   -0.170000       12.0110           0
      7552 WT3      110      MECN     H11      HGA3     0.090000        1.0080           0
      7553 WT3      110      MECN     H12      HGA3     0.090000        1.0080           0
      7554 WT3      110      MECN     H13      HGA3     0.090000        1.0080           0
      7555 WT3      110      MECN     C2       CG1N1    0.360000       12.0110           0
      7556 WT3      110      MECN     N3       NG1T1   -0.460000       14.0070           0
      7557 WT3      112      MECN     C1       CG331   -0.170000       12.0110           0
      7558 WT3      112      MECN     H11      HGA3     0.090000        1.0080           0
      7559 WT3      112      MECN     H12      HGA3     0.090000        1.0080           0
      7560 WT3      112      MECN     H13      HGA3     0.090000        1.0080           0
      7561 WT3      112      MECN     C2       CG1N1    0.360000       12.0110           0
      7562 WT3      112      MECN     N3       NG1T1   -0.460000       14.0070           0
      7563 WT3      113      MECN     C1       CG331   -0.170000       12.0110           0
      7564 WT3      113      MECN     H11      HGA3     0.090000        1.0080           0
      7565 WT3      113      MECN     H12      HGA3     0.090000        1.0080           0
      7566 WT3      113      MECN     H13      HGA3     0.090000        1.0080           0
      7567 WT3      113      MECN     C2       CG1N1    0.360000       12.0110           0
      7568 WT3      113      MECN     N3       NG1T1   -0.460000       14.0070           0
      7569 WT3      123      MECN     C1       CG331   -0.170000       12.0110           0
      7570 WT3      123      MECN     H11      HGA3     0.090000        1.0080           0
      7571 WT3      123      MECN     H12      HGA3     0.090000        1.0080           0
      7572 WT3      123      MECN     H13      HGA3     0.090000        1.0080           0
      7573 WT3      123      MECN     C2       CG1N1    0.360000       12.0110           0
      7574 WT3      123      MECN     N3       NG1T1   -0.460000       14.0070           0
      7575 WT3      125      MECN     C1       CG331   -0.170000       12.0110           0
      7576 WT3      125      MECN     H11      HGA3     0.090000        1.0080           0
      7577 WT3      125      MECN     H12      HGA3     0.090000        1.0080           0
      7578 WT3      125      MECN     H13      HGA3     0.090000        1.0080           0
      7579 WT3      125      MECN     C2       CG1N1    0.360000       12.0110           0
      7580 WT3      125      MECN     N3       NG1T1   -0.460000       14.0070           0
      7581 WT3      127      MECN     C1       CG331   -0.170000       12.0110           0
      7582 WT3      127      MECN     H11      HGA3     0.090000        1.0080           0
      7583 WT3      127      MECN     H12      HGA3     0.090000        1.0080           0
      7584 WT3      127      MECN     H13      HGA3     0.090000        1.0080           0
      7585 WT3      127      MECN     C2       CG1N1    0.360000       12.0110           0
      7586 WT3      127      MECN     N3       NG1T1   -0.460000       14.0070           0
      7587 WT3      132      MECN     C1       CG331   -0.170000       12.0110           0
      7588 WT3      132      MECN     H11      HGA3     0.090000        1.0080           0
      7589 WT3      132      MECN     H12      HGA3     0.090000        1.0080           0
      7590 WT3      132      MECN     H13      HGA3     0.090000        1.0080           0
      7591 WT3      132      MECN     C2       CG1N1    0.360000       12.0110           0
      7592 WT3      132      MECN     N3       NG1T1   -0.460000       14.0070           0
      7593 WT3      155      MECN     C1       CG331   -0.170000       12.0110           0
      7594 WT3      155      MECN     H11      HGA3     0.090000        1.0080           0
      7595 WT3      155      MECN     H12      HGA3     0.090000        1.0080           0
      7596 WT3      155      MECN     H13      HGA3     0.090000        1.0080           0
      7597 WT3      155      MECN     C2       CG1N1    0.360000       12.0110           0
      7598 WT3      155      MECN     N3       NG1T1   -0.460000       14.0070           0
      7599 WT3      169      MECN     C1       CG331   -0.170000       12.0110           0
      7600 WT3      169      MECN     H11      HGA3     0.090000        1.0080           0
      7601 WT3      169      MECN     H12      HGA3     0.090000        1.0080           0
      7602 WT3      169      MECN     H13      HGA3     0.090000        1.0080           0
      7603 WT3      169      MECN     C2       CG1N1    0.360000       12.0110           0
      7604 WT3      169      MECN     N3       NG1T1   -0.460000       14.0070           0
      7605 WT3      172      MECN     C1       CG331   -0.170000       12.0110           0
      7606 WT3      172      MECN     H11      HGA3     0.090000        1.0080           0
      7607 WT3      172      MECN     H12      HGA3     0.090000        1.0080           0
      7608 WT3      172      MECN     H13      HGA3     0.090000        1.0080           0
      7609 WT3      172      MECN     C2       CG1N1    0.360000       12.0110           0
      7610 WT3      172      MECN     N3       NG1T1   -0.460000       14.0070           0
      7611 WT3      174      MECN     C1       CG331   -0.170000       12.0110           0
      7612 WT3      174      MECN     H11      HGA3     0.090000        1.0080           0
      7613 WT3      174      MECN     H12      HGA3     0.090000        1.0080           0
      7614 WT3      174      MECN     H13      HGA3     0.090000        1.0080           0
      7615 WT3      174      MECN     C2       CG1N1    0.360000       12.0110           0
      7616 WT3      174      MECN     N3       NG1T1   -0.460000       14.0070           0
      7617 WT3      183      MECN     C1       CG331   -0.170000       12.0110           0
      7618 WT3      183      MECN     H11      HGA3     0.090000        1.0080           0
      7619 WT3      183      MECN     H12      HGA3     0.090000        1.0080           0
      7620 WT3      183      MECN     H13      HGA3     0.090000        1.0080           0
      7621 WT3      183      MECN     C2       CG1N1    0.360000       12.0110           0
      7622 WT3      183      MECN     N3       NG1T1   -0.460000       14.0070           0
      7623 WT3      185      MECN     C1       CG331   -0.170000       12.0110           0
      7624 WT3      185      MECN     H11      HGA3     0.090000        1.0080           0
      7625 WT3      185      MECN     H12      HGA3     0.090000        1.0080           0
      7626 WT3      185      MECN     H13      HGA3     0.090000        1.0080           0
      7627 WT3      185      MECN     C2       CG1N1    0.360000       12.0110           0
      7628 WT3      185      MECN     N3       NG1T1   -0.460000       14.0070           0
      7629 WT3      211      MECN     C1       CG331   -0.170000       12.0110           0
      7630 WT3      211      MECN     H11      HGA3     0.090000        1.0080           0
      7631 WT3      211      MECN     H12      HGA3     0.090000        1.0080           0
      7632 WT3      211      MECN     H13      HGA3     0.090000        1.0080           0
      7633 WT3      211      MECN     C2       CG1N1    0.360000       12.0110           0
      7634 WT3      211      MECN     N3       NG1T1   -0.460000       14.0070           0
      7635 WT3      220      MECN     C1       CG331   -0.170000       12.0110           0
      7636 WT3      220      MECN     H11      HGA3     0.090000        1.0080           0
      7637 WT3      220      MECN     H12      HGA3     0.090000        1.0080           0
      7638 WT3      220      MECN     H13      HGA3     0.090000        1.0080           0
      7639 WT3      220      MECN     C2       CG1N1    0.360000       12.0110           0
      7640 WT3      220      MECN     N3       NG1T1   -0.460000       14.0070           0
      7641 WT3      224      MECN     C1       CG331   -0.170000       12.0110           0
      7642 WT3      224      MECN     H11      HGA3     0.090000        1.0080           0
      7643 WT3      224      MECN     H12      HGA3     0.090000        1.0080           0
      7644 WT3      224      MECN     H13      HGA3     0.090000        1.0080           0
      7645 WT3      224      MECN     C2       CG1N1    0.360000       12.0110           0
      7646 WT3      224      MECN     N3       NG1T1   -0.460000       14.0070           0
      7647 WT3      225      MECN     C1       CG331   -0.170000       12.0110           0
      7648 WT3      225      MECN     H11      HGA3     0.090000        1.0080           0
      7649 WT3      225      MECN     H12      HGA3     0.090000        1.0080           0
      7650 WT3      225      MECN     H13      HGA3     0.090000        1.0080           0
      7651 WT3      225      MECN     C2       CG1N1    0.360000       12.0110           0
      7652 WT3      225      MECN     N3       NG1T1   -0.460000       14.0070           0
      7653 WT3      227      MECN     C1       CG331   -0.170000       12.0110           0
      7654 WT3      227      MECN     H11      HGA3     0.090000        1.0080           0
      7655 WT3      227      MECN     H12      HGA3     0.090000        1.0080           0
      7656 WT3      227      MECN     H13      HGA3     0.090000        1.0080           0
      7657 WT3      227      MECN     C2       CG1N1    0.360000       12.0110           0
      7658 WT3      227      MECN     N3       NG1T1   -0.460000       14.0070           0
      7659 WT3      229      MECN     C1       CG331   -0.170000       12.0110           0
      7660 WT3      229      MECN     H11      HGA3     0.090000        1.0080           0
      7661 WT3      229      MECN     H12      HGA3     0.090000        1.0080           0
      7662 WT3      229      MECN     H13      HGA3     0.090000        1.0080           0
      7663 WT3      229      MECN     C2       CG1N1    0.360000       12.0110           0
      7664 WT3      229      MECN     N3       NG1T1   -0.460000       14.0070           0
      7665 WT3      236      MECN     C1       CG331   -0.170000       12.0110           0
      7666 WT3      236      MECN     H11      HGA3     0.090000        1.0080           0
      7667 WT3      236      MECN     H12      HGA3     0.090000        1.0080           0
      7668 WT3      236      MECN     H13      HGA3     0.090000        1.0080           0
      7669 WT3      236      MECN     C2       CG1N1    0.360000       12.0110           0
      7670 WT3      236      MECN     N3       NG1T1   -0.460000       14.0070           0
      7671 WT3      237      MECN     C1       CG331   -0.170000       12.0110           0
      7672 WT3      237      MECN     H11      HGA3     0.090000        1.0080           0
      7673 WT3      237      MECN     H12      HGA3     0.090000        1.0080           0
      7674 WT3      237      MECN     H13      HGA3     0.090000        1.0080           0
      7675 WT3      237      MECN     C2       CG1N1    0.360000       12.0110           0
      7676 WT3      237      MECN     N3       NG1T1   -0.460000       14.0070           0
      7677 WT3      238      MECN     C1       CG331   -0.170000       12.0110           0
      7678 WT3      238      MECN     H11      HGA3     0.090000        1.0080           0
      7679 WT3      238      MECN     H12      HGA3     0.090000        1.0080           0
      7680 WT3      238      MECN     H13      HGA3     0.090000        1.0080           0
      7681 WT3      238      MECN     C2       CG1N1    0.360000       12.0110           0
      7682 WT3      238      MECN     N3       NG1T1   -0.460000       14.0070           0
      7683 WT3      242      MECN     C1       CG331   -0.170000       12.0110           0
      7684 WT3      242      MECN     H11      HGA3     0.090000        1.0080           0
      7685 WT3      242      MECN     H12      HGA3     0.090000        1.0080           0
      7686 WT3      242      MECN     H13      HGA3     0.090000        1.0080           0
      7687 WT3      242      MECN     C2       CG1N1    0.360000       12.0110           0
      7688 WT3      242      MECN     N3       NG1T1   -0.460000       14.0070           0
      7689 WT3      255      MECN     C1       CG331   -0.170000       12.0110           0
      7690 WT3      255      MECN     H11      HGA3     0.090000        1.0080           0
      7691 WT3      255      MECN     H12      HGA3     0.090000        1.0080           0
      7692 WT3      255      MECN     H13      HGA3     0.090000        1.0080           0
      7693 WT3      255      MECN     C2       CG1N1    0.360000       12.0110           0
      7694 WT3      255      MECN     N3       NG1T1   -0.460000       14.0070           0
      7695 WT3      267      MECN     C1       CG331   -0.170000       12.0110           0
      7696 WT3      267      MECN     H11      HGA3     0.090000        1.0080           0
      7697 WT3      267      MECN     H12      HGA3     0.090000        1.0080           0
      7698 WT3      267      MECN     H13      HGA3     0.090000        1.0080           0
      7699 WT3      267      MECN     C2       CG1N1    0.360000       12.0110           0
      7700 WT3      267      MECN     N3       NG1T1   -0.460000       14.0070           0
      7701 WT3      268      MECN     C1       CG331   -0.170000       12.0110           0
      7702 WT3      268      MECN     H11      HGA3     0.090000        1.0080           0
      7703 WT3      268      MECN     H12      HGA3     0.090000        1.0080           0
      7704 WT3      268      MECN     H13      HGA3     0.090000        1.0080           0
      7705 WT3      268      MECN     C2       CG1N1    0.360000       12.0110           0
      7706 WT3      268      MECN     N3       NG1T1   -0.460000       14.0070           0
      7707 WT3      286      MECN     C1       CG331   -0.170000       12.0110           0
      7708 WT3      286      MECN     H11      HGA3     0.090000        1.0080           0
      7709 WT3      286      MECN     H12      HGA3     0.090000        1.0080           0
      7710 WT3      286      MECN     H13      HGA3     0.090000        1.0080           0
      7711 WT3      286      MECN     C2       CG1N1    0.360000       12.0110           0
      7712 WT3      286      MECN     N3       NG1T1   -0.460000       14.0070           0
      7713 WT3      296      MECN     C1       CG331   -0.170000       12.0110           0
      7714 WT3      296      MECN     H11      HGA3     0.090000        1.0080           0
      7715 WT3      296      MECN     H12      HGA3     0.090000        1.0080           0
      7716 WT3      296      MECN     H13      HGA3     0.090000        1.0080           0
      7717 WT3      296      MECN     C2       CG1N1    0.360000       12.0110           0
      7718 WT3      296      MECN     N3       NG1T1   -0.460000       14.0070           0
      7719 WT3      306      MECN     C1       CG331   -0.170000       12.0110           0
      7720 WT3      306      MECN     H11      HGA3     0.090000        1.0080           0
      7721 WT3      306      MECN     H12      HGA3     0.090000        1.0080           0
      7722 WT3      306      MECN     H13      HGA3     0.090000        1.0080           0
      7723 WT3      306      MECN     C2       CG1N1    0.360000       12.0110           0
      7724 WT3      306      MECN     N3       NG1T1   -0.460000       14.0070           0
      7725 WT3      308      MECN     C1       CG331   -0.170000       12.0110           0
      7726 WT3      308      MECN     H11      HGA3     0.090000        1.0080           0
      7727 WT3      308      MECN     H12      HGA3     0.090000        1.0080           0
      7728 WT3      308      MECN     H13      HGA3     0.090000        1.0080           0
      7729 WT3      308      MECN     C2       CG1N1    0.360000       12.0110           0
      7730 WT3      308      MECN     N3       NG1T1   -0.460000       14.0070           0
      7731 WT3      316      MECN     C1       CG331   -0.170000       12.0110           0
      7732 WT3      316      MECN     H11      HGA3     0.090000        1.0080           0
      7733 WT3      316      MECN     H12      HGA3     0.090000        1.0080           0
      7734 WT3      316      MECN     H13      HGA3     0.090000        1.0080           0
      7735 WT3      316      MECN     C2       CG1N1    0.360000       12.0110           0
      7736 WT3      316      MECN     N3       NG1T1   -0.460000       14.0070           0
      7737 WT3      321      MECN     C1       CG331   -0.170000       12.0110           0
      7738 WT3      321      MECN     H11      HGA3     0.090000        1.0080           0
      7739 WT3      321      MECN     H12      HGA3     0.090000        1.0080           0
      7740 WT3      321      MECN     H13      HGA3     0.090000        1.0080           0
      7741 WT3      321      MECN     C2       CG1N1    0.360000       12.0110           0
      7742 WT3      321      MECN     N3       NG1T1   -0.460000       14.0070           0
      7743 WT3      323      MECN     C1       CG331   -0.170000       12.0110           0
      7744 WT3      323      MECN     H11      HGA3     0.090000        1.0080           0
      7745 WT3      323      MECN     H12      HGA3     0.090000        1.0080           0
      7746 WT3      323      MECN     H13      HGA3     0.090000        1.0080           0
      7747 WT3      323      MECN     C2       CG1N1    0.360000       12.0110           0
      7748 WT3      323      MECN     N3       NG1T1   -0.460000       14.0070           0
      7749 WT3      329      MECN     C1       CG331   -0.170000       12.0110           0
      7750 WT3      329      MECN     H11      HGA3     0.090000        1.0080           0
      7751 WT3      329      MECN     H12      HGA3     0.090000        1.0080           0
      7752 WT3      329      MECN     H13      HGA3     0.090000        1.0080           0
      7753 WT3      329      MECN     C2       CG1N1    0.360000       12.0110           0
      7754 WT3      329      MECN     N3       NG1T1   -0.460000       14.0070           0
      7755 WT3      331      MECN     C1       CG331   -0.170000       12.0110           0
      7756 WT3      331      MECN     H11      HGA3     0.090000        1.0080           0
      7757 WT3      331      MECN     H12      HGA3     0.090000        1.0080           0
      7758 WT3      331      MECN     H13      HGA3     0.090000        1.0080           0
      7759 WT3      331      MECN     C2       CG1N1    0.360000       12.0110           0
      7760 WT3      331      MECN     N3       NG1T1   -0.460000       14.0070           0
      7761 WT3      337      MECN     C1       CG331   -0.170000       12.0110           0
      7762 WT3      337      MECN     H11      HGA3     0.090000        1.0080           0
      7763 WT3      337      MECN     H12      HGA3     0.090000        1.0080           0
      7764 WT3      337      MECN     H13      HGA3     0.090000        1.0080           0
      7765 WT3      337      MECN     C2       CG1N1    0.360000       12.0110           0
      7766 WT3      337      MECN     N3       NG1T1   -0.460000       14.0070           0
      7767 WT3      351      MECN     C1       CG331   -0.170000       12.0110           0
      7768 WT3      351      MECN     H11      HGA3     0.090000        1.0080           0
      7769 WT3      351      MECN     H12      HGA3     0.090000        1.0080           0
      7770 WT3      351      MECN     H13      HGA3     0.090000        1.0080           0
      7771 WT3      351      MECN     C2       CG1N1    0.360000       12.0110           0
      7772 WT3      351      MECN     N3       NG1T1   -0.460000       14.0070           0
      7773 WT3      358      MECN     C1       CG331   -0.170000       12.0110           0
      7774 WT3      358      MECN     H11      HGA3     0.090000        1.0080           0
      7775 WT3      358      MECN     H12      HGA3     0.090000        1.0080           0
      7776 WT3      358      MECN     H13      HGA3     0.090000        1.0080           0
      7777 WT3      358      MECN     C2       CG1N1    0.360000       12.0110           0
      7778 WT3      358      MECN     N3       NG1T1   -0.460000       14.0070           0
      7779 WT3      382      MECN     C1       CG331   -0.170000       12.0110           0
      7780 WT3      382      MECN     H11      HGA3     0.090000        1.0080           0
      7781 WT3      382      MECN     H12      HGA3     0.090000        1.0080           0
      7782 WT3      382      MECN     H13      HGA3     0.090000        1.0080           0
      7783 WT3      382      MECN     C2       CG1N1    0.360000       12.0110           0
      7784 WT3      382      MECN     N3       NG1T1   -0.460000       14.0070           0
      7785 WT3      387      MECN     C1       CG331   -0.170000       12.0110           0
      7786 WT3      387      MECN     H11      HGA3     0.090000        1.0080           0
      7787 WT3      387      MECN     H12      HGA3     0.090000        1.0080           0
      7788 WT3      387      MECN     H13      HGA3     0.090000        1.0080           0
      7789 WT3      387      MECN     C2       CG1N1    0.360000       12.0110           0
      7790 WT3      387      MECN     N3       NG1T1   -0.460000       14.0070           0
      7791 WT3      388      MECN     C1       CG331   -0.170000       12.0110           0
      7792 WT3      388      MECN     H11      HGA3     0.090000        1.0080           0
      7793 WT3      388      MECN     H12      HGA3     0.090000        1.0080           0
      7794 WT3      388      MECN     H13      HGA3     0.090000        1.0080           0
      7795 WT3      388      MECN     C2       CG1N1    0.360000       12.0110           0
      7796 WT3      388      MECN     N3       NG1T1   -0.460000       14.0070           0
      7797 WT3      396      MECN     C1       CG331   -0.170000       12.0110           0
      7798 WT3      396      MECN     H11      HGA3     0.090000        1.0080           0
      7799 WT3      396      MECN     H12      HGA3     0.090000        1.0080           0
      7800 WT3      396      MECN     H13      HGA3     0.090000        1.0080           0
      7801 WT3      396      MECN     C2       CG1N1    0.360000       12.0110           0
      7802 WT3      396      MECN     N3       NG1T1   -0.460000       14.0070           0
      7803 WT3      401      MECN     C1       CG331   -0.170000       12.0110           0
      7804 WT3      401      MECN     H11      HGA3     0.090000        1.0080           0
      7805 WT3      401      MECN     H12      HGA3     0.090000        1.0080           0
      7806 WT3      401      MECN     H13      HGA3     0.090000        1.0080           0
      7807 WT3      401      MECN     C2       CG1N1    0.360000       12.0110           0
      7808 WT3      401      MECN     N3       NG1T1   -0.460000       14.0070           0
      7809 WT3      411      MECN     C1       CG331   -0.170000       12.0110           0
      7810 WT3      411      MECN     H11      HGA3     0.090000        1.0080           0
      7811 WT3      411      MECN     H12      HGA3     0.090000        1.0080           0
      7812 WT3      411      MECN     H13      HGA3     0.090000        1.0080           0
      7813 WT3      411      MECN     C2       CG1N1    0.360000       12.0110           0
      7814 WT3      411      MECN     N3       NG1T1   -0.460000       14.0070           0
      7815 WT3      416      MECN     C1       CG331   -0.170000       12.0110           0
      7816 WT3      416      MECN     H11      HGA3     0.090000        1.0080           0
      7817 WT3      416      MECN     H12      HGA3     0.090000        1.0080           0
      7818 WT3      416      MECN     H13      HGA3     0.090000        1.0080           0
      7819 WT3      416      MECN     C2       CG1N1    0.360000       12.0110           0
      7820 WT3      416      MECN     N3       NG1T1   -0.460000       14.0070           0
      7821 WT3      430      MECN     C1       CG331   -0.170000       12.0110           0
      7822 WT3      430      MECN     H11      HGA3     0.090000        1.0080           0
      7823 WT3      430      MECN     H12      HGA3     0.090000        1.0080           0
      7824 WT3      430      MECN     H13      HGA3     0.090000        1.0080           0
      7825 WT3      430      MECN     C2       CG1N1    0.360000       12.0110           0
      7826 WT3      430      MECN     N3       NG1T1   -0.460000       14.0070           0
      7827 WT3      436      MECN     C1       CG331   -0.170000       12.0110           0
      7828 WT3      436      MECN     H11      HGA3     0.090000        1.0080           0
      7829 WT3      436      MECN     H12      HGA3     0.090000        1.0080           0
      7830 WT3      436      MECN     H13      HGA3     0.090000        1.0080           0
      7831 WT3      436      MECN     C2       CG1N1    0.360000       12.0110           0
      7832 WT3      436      MECN     N3       NG1T1   -0.460000       14.0070           0
      7833 WT3      440      MECN     C1       CG331   -0.170000       12.0110           0
      7834 WT3      440      MECN     H11      HGA3     0.090000        1.0080           0
      7835 WT3      440      MECN     H12      HGA3     0.090000        1.0080           0
      7836 WT3      440      MECN     H13      HGA3     0.090000        1.0080           0
      7837 WT3      440      MECN     C2       CG1N1    0.360000       12.0110           0
      7838 WT3      440      MECN     N3       NG1T1   -0.460000       14.0070           0
      7839 WT3      450      MECN     C1       CG331   -0.170000       12.0110           0
      7840 WT3      450      MECN     H11      HGA3     0.090000        1.0080           0
      7841 WT3      450      MECN     H12      HGA3     0.090000        1.0080           0
      7842 WT3      450      MECN     H13      HGA3     0.090000        1.0080           0
      7843 WT3      450      MECN     C2       CG1N1    0.360000       12.0110           0
      7844 WT3      450      MECN     N3       NG1T1   -0.460000       14.0070           0
      7845 WT3      451      MECN     C1       CG331   -0.170000       12.0110           0
      7846 WT3      451      MECN     H11      HGA3     0.090000        1.0080           0
      7847 WT3      451      MECN     H12      HGA3     0.090000        1.0080           0
      7848 WT3      451      MECN     H13      HGA3     0.090000        1.0080           0
      7849 WT3      451      MECN     C2       CG1N1    0.360000       12.0110           0
      7850 WT3      451      MECN     N3       NG1T1   -0.460000       14.0070           0
      7851 WT3      457      MECN     C1       CG331   -0.170000       12.0110           0
      7852 WT3      457      MECN     H11      HGA3     0.090000        1.0080           0
      7853 WT3      457      MECN     H12      HGA3     0.090000        1.0080           0
      7854 WT3      457      MECN     H13      HGA3     0.090000        1.0080           0
      7855 WT3      457      MECN     C2       CG1N1    0.360000       12.0110           0
      7856 WT3      457      MECN     N3       NG1T1   -0.460000       14.0070           0
      7857 WT3      460      MECN     C1       CG331   -0.170000       12.0110           0
      7858 WT3      460      MECN     H11      HGA3     0.090000        1.0080           0
      7859 WT3      460      MECN     H12      HGA3     0.090000        1.0080           0
      7860 WT3      460      MECN     H13      HGA3     0.090000        1.0080           0
      7861 WT3      460      MECN     C2       CG1N1    0.360000       12.0110           0
      7862 WT3      460      MECN     N3       NG1T1   -0.460000       14.0070           0
      7863 WT3      475      MECN     C1       CG331   -0.170000       12.0110           0
      7864 WT3      475      MECN     H11      HGA3     0.090000        1.0080           0
      7865 WT3      475      MECN     H12      HGA3     0.090000        1.0080           0
      7866 WT3      475      MECN     H13      HGA3     0.090000        1.0080           0
      7867 WT3      475      MECN     C2       CG1N1    0.360000       12.0110           0
      7868 WT3      475      MECN     N3       NG1T1   -0.460000       14.0070           0
      7869 WT3      485      MECN     C1       CG331   -0.170000       12.0110           0
      7870 WT3      485      MECN     H11      HGA3     0.090000        1.0080           0
      7871 WT3      485      MECN     H12      HGA3     0.090000        1.0080           0
      7872 WT3      485      MECN     H13      HGA3     0.090000        1.0080           0
      7873 WT3      485      MECN     C2       CG1N1    0.360000       12.0110           0
      7874 WT3      485      MECN     N3       NG1T1   -0.460000       14.0070           0
      7875 WT3      486      MECN     C1       CG331   -0.170000       12.0110           0
      7876 WT3      486      MECN     H11      HGA3     0.090000        1.0080           0
      7877 WT3      486      MECN     H12      HGA3     0.090000        1.0080           0
      7878 WT3      486      MECN     H13      HGA3     0.090000        1.0080           0
      7879 WT3      486      MECN     C2       CG1N1    0.360000       12.0110           0
      7880 WT3      486      MECN     N3       NG1T1   -0.460000       14.0070           0
      7881 WT3      488      MECN     C1       CG331   -0.170000       12.0110           0
      7882 WT3      488      MECN     H11      HGA3     0.090000        1.0080           0
      7883 WT3      488      MECN     H12      HGA3     0.090000        1.0080           0
      7884 WT3      488      MECN     H13      HGA3     0.090000        1.0080           0
      7885 WT3      488      MECN     C2       CG1N1    0.360000       12.0110           0
      7886 WT3      488      MECN     N3       NG1T1   -0.460000       14.0070           0
      7887 WT3      513      MECN     C1       CG331   -0.170000       12.0110           0
      7888 WT3      513      MECN     H11      HGA3     0.090000        1.0080           0
      7889 WT3      513      MECN     H12      HGA3     0.090000        1.0080           0
      7890 WT3      513      MECN     H13      HGA3     0.090000        1.0080           0
      7891 WT3      513      MECN     C2       CG1N1    0.360000       12.0110           0
      7892 WT3      513      MECN     N3       NG1T1   -0.460000       14.0070           0
      7893 WT3      521      MECN     C1       CG331   -0.170000       12.0110           0
      7894 WT3      521      MECN     H11      HGA3     0.090000        1.0080           0
      7895 WT3      521      MECN     H12      HGA3     0.090000        1.0080           0
      7896 WT3      521      MECN     H13      HGA3     0.090000        1.0080           0
      7897 WT3      521      MECN     C2       CG1N1    0.360000       12.0110           0
      7898 WT3      521      MECN     N3       NG1T1   -0.460000       14.0070           0
      7899 WT3      523      MECN     C1       CG331   -0.170000       12.0110           0
      7900 WT3      523      MECN     H11      HGA3     0.090000        1.0080           0
      7901 WT3      523      MECN     H12      HGA3     0.090000        1.0080           0
      7902 WT3      523      MECN     H13      HGA3     0.090000        1.0080           0
      7903 WT3      523      MECN     C2       CG1N1    0.360000       12.0110           0
      7904 WT3      523      MECN     N3       NG1T1   -0.460000       14.0070           0
      7905 WT3      530      MECN     C1       CG331   -0.170000       12.0110           0
      7906 WT3      530      MECN     H11      HGA3     0.090000        1.0080           0
      7907 WT3      530      MECN     H12      HGA3     0.090000        1.0080           0
      7908 WT3      530      MECN     H13      HGA3     0.090000        1.0080           0
      7909 WT3      530      MECN     C2       CG1N1    0.360000       12.0110           0
      7910 WT3      530      MECN     N3       NG1T1   -0.460000       14.0070           0
      7911 WT3      532      MECN     C1       CG331   -0.170000       12.0110           0
      7912 WT3      532      MECN     H11      HGA3     0.090000        1.0080           0
      7913 WT3      532      MECN     H12      HGA3     0.090000        1.0080           0
      7914 WT3      532      MECN     H13      HGA3     0.090000        1.0080           0
      7915 WT3      532      MECN     C2       CG1N1    0.360000       12.0110           0
      7916 WT3      532      MECN     N3       NG1T1   -0.460000       14.0070           0
      7917 WT3      537      MECN     C1       CG331   -0.170000       12.0110           0
      7918 WT3      537      MECN     H11      HGA3     0.090000        1.0080           0
      7919 WT3      537      MECN     H12      HGA3     0.090000        1.0080           0
      7920 WT3      537      MECN     H13      HGA3     0.090000        1.0080           0
      7921 WT3      537      MECN     C2       CG1N1    0.360000       12.0110           0
      7922 WT3      537      MECN     N3       NG1T1   -0.460000       14.0070           0
      7923 WT3      546      MECN     C1       CG331   -0.170000       12.0110           0
      7924 WT3      546      MECN     H11      HGA3     0.090000        1.0080           0
      7925 WT3      546      MECN     H12      HGA3     0.090000        1.0080           0
      7926 WT3      546      MECN     H13      HGA3     0.090000        1.0080           0
      7927 WT3      546      MECN     C2       CG1N1    0.360000       12.0110           0
      7928 WT3      546      MECN     N3       NG1T1   -0.460000       14.0070           0
      7929 WT3      557      MECN     C1       CG331   -0.170000       12.0110           0
      7930 WT3      557      MECN     H11      HGA3     0.090000        1.0080           0
      7931 WT3      557      MECN     H12      HGA3     0.090000        1.0080           0
      7932 WT3      557      MECN     H13      HGA3     0.090000        1.0080           0
      7933 WT3      557      MECN     C2       CG1N1    0.360000       12.0110           0
      7934 WT3      557      MECN     N3       NG1T1   -0.460000       14.0070           0
      7935 WT3      560      MECN     C1       CG331   -0.170000       12.0110           0
      7936 WT3      560      MECN     H11      HGA3     0.090000        1.0080           0
      7937 WT3      560      MECN     H12      HGA3     0.090000        1.0080           0
      7938 WT3      560      MECN     H13      HGA3     0.090000        1.0080           0
      7939 WT3      560      MECN     C2       CG1N1    0.360000       12.0110           0
      7940 WT3      560      MECN     N3       NG1T1   -0.460000       14.0070           0
      7941 WT3      564      MECN     C1       CG331   -0.170000       12.0110           0
      7942 WT3      564      MECN     H11      HGA3     0.090000        1.0080           0
      7943 WT3      564      MECN     H12      HGA3     0.090000        1.0080           0
      7944 WT3      564      MECN     H13      HGA3     0.090000        1.0080           0
      7945 WT3      564      MECN     C2       CG1N1    0.360000       12.0110           0
      7946 WT3      564      MECN     N3       NG1T1   -0.460000       14.0070           0
      7947 WT3      576      MECN     C1       CG331   -0.170000       12.0110           0
      7948 WT3      576      MECN     H11      HGA3     0.090000        1.0080           0
      7949 WT3      576      MECN     H12      HGA3     0.090000        1.0080           0
      7950 WT3      576      MECN     H13      HGA3     0.090000        1.0080           0
      7951 WT3      576      MECN     C2       CG1N1    0.360000       12.0110           0
      7952 WT3      576      MECN     N3       NG1T1   -0.460000       14.0070           0
      7953 WT3      579      MECN     C1       CG331   -0.170000       12.0110           0
      7954 WT3      579      MECN     H11      HGA3     0.090000        1.0080           0
      7955 WT3      579      MECN     H12      HGA3     0.090000        1.0080           0
      7956 WT3      579      MECN     H13      HGA3     0.090000        1.0080           0
      7957 WT3      579      MECN     C2       CG1N1    0.360000       12.0110           0
      7958 WT3      579      MECN     N3       NG1T1   -0.460000       14.0070           0
      7959 WT3      584      MECN     C1       CG331   -0.170000       12.0110           0
      7960 WT3      584      MECN     H11      HGA3     0.090000        1.0080           0
      7961 WT3      584      MECN     H12      HGA3     0.090000        1.0080           0
      7962 WT3      584      MECN     H13      HGA3     0.090000        1.0080           0
      7963 WT3      584      MECN     C2       CG1N1    0.360000       12.0110           0
      7964 WT3      584      MECN     N3       NG1T1   -0.460000       14.0070           0
      7965 WT3      585      MECN     C1       CG331   -0.170000       12.0110           0
      7966 WT3      585      MECN     H11      HGA3     0.090000        1.0080           0
      7967 WT3      585      MECN     H12      HGA3     0.090000        1.0080           0
      7968 WT3      585      MECN     H13      HGA3     0.090000        1.0080           0
      7969 WT3      585      MECN     C2       CG1N1    0.360000       12.0110           0
      7970 WT3      585      MECN     N3       NG1T1   -0.460000       14.0070           0
      7971 WT3      591      MECN     C1       CG331   -0.170000       12.0110           0
      7972 WT3      591      MECN     H11      HGA3     0.090000        1.0080           0
      7973 WT3      591      MECN     H12      HGA3     0.090000        1.0080           0
      7974 WT3      591      MECN     H13      HGA3     0.090000        1.0080           0
      7975 WT3      591      MECN     C2       CG1N1    0.360000       12.0110           0
      7976 WT3      591      MECN     N3       NG1T1   -0.460000       14.0070           0
      7977 WT3      612      MECN     C1       CG331   -0.170000       12.0110           0
      7978 WT3      612      MECN     H11      HGA3     0.090000        1.0080           0
      7979 WT3      612      MECN     H12      HGA3     0.090000        1.0080           0
      7980 WT3      612      MECN     H13      HGA3     0.090000        1.0080           0
      7981 WT3      612      MECN     C2       CG1N1    0.360000       12.0110           0
      7982 WT3      612      MECN     N3       NG1T1   -0.460000       14.0070           0
      7983 WT3      623      MECN     C1       CG331   -0.170000       12.0110           0
      7984 WT3      623      MECN     H11      HGA3     0.090000        1.0080           0
      7985 WT3      623      MECN     H12      HGA3     0.090000        1.0080           0
      7986 WT3      623      MECN     H13      HGA3     0.090000        1.0080           0
      7987 WT3      623      MECN     C2       CG1N1    0.360000       12.0110           0
      7988 WT3      623      MECN     N3       NG1T1   -0.460000       14.0070           0
      7989 WT3      628      MECN     C1       CG331   -0.170000       12.0110           0
      7990 WT3      628      MECN     H11      HGA3     0.090000        1.0080           0
      7991 WT3      628      MECN     H12      HGA3     0.090000        1.0080           0
      7992 WT3      628      MECN     H13      HGA3     0.090000        1.0080           0
      7993 WT3      628      MECN     C2       CG1N1    0.360000       12.0110           0
      7994 WT3      628      MECN     N3       NG1T1   -0.460000       14.0070           0
      7995 WT3      632      MECN     C1       CG331   -0.170000       12.0110           0
      7996 WT3      632      MECN     H11      HGA3     0.090000        1.0080           0
      7997 WT3      632      MECN     H12      HGA3     0.090000        1.0080           0
      7998 WT3      632      MECN     H13      HGA3     0.090000        1.0080           0
      7999 WT3      632      MECN     C2       CG1N1    0.360000       12.0110           0
      8000 WT3      632      MECN     N3       NG1T1   -0.460000       14.0070           0
      8001 WT3      638      MECN     C1       CG331   -0.170000       12.0110           0
      8002 WT3      638      MECN     H11      HGA3     0.090000        1.0080           0
      8003 WT3      638      MECN     H12      HGA3     0.090000        1.0080           0
      8004 WT3      638      MECN     H13      HGA3     0.090000        1.0080           0
      8005 WT3      638      MECN     C2       CG1N1    0.360000       12.0110           0
      8006 WT3      638      MECN     N3       NG1T1   -0.460000       14.0070           0
      8007 WT3      642      MECN     C1       CG331   -0.170000       12.0110           0
      8008 WT3      642      MECN     H11      HGA3     0.090000        1.0080           0
      8009 WT3      642      MECN     H12      HGA3     0.090000        1.0080           0
      8010 WT3      642      MECN     H13      HGA3     0.090000        1.0080           0
      8011 WT3      642      MECN     C2       CG1N1    0.360000       12.0110           0
      8012 WT3      642      MECN     N3       NG1T1   -0.460000       14.0070           0
      8013 WT3      650      MECN     C1       CG331   -0.170000       12.0110           0
      8014 WT3      650      MECN     H11      HGA3     0.090000        1.0080           0
      8015 WT3      650      MECN     H12      HGA3     0.090000        1.0080           0
      8016 WT3      650      MECN     H13      HGA3     0.090000        1.0080           0
      8017 WT3      650      MECN     C2       CG1N1    0.360000       12.0110           0
      8018 WT3      650      MECN     N3       NG1T1   -0.460000       14.0070           0
      8019 WT3      658      MECN     C1       CG331   -0.170000       12.0110           0
      8020 WT3      658      MECN     H11      HGA3     0.090000        1.0080           0
      8021 WT3      658      MECN     H12      HGA3     0.090000        1.0080           0
      8022 WT3      658      MECN     H13      HGA3     0.090000        1.0080           0
      8023 WT3      658      MECN     C2       CG1N1    0.360000       12.0110           0
      8024 WT3      658      MECN     N3       NG1T1   -0.460000       14.0070           0
      8025 WT3      659      MECN     C1       CG331   -0.170000       12.0110           0
      8026 WT3      659      MECN     H11      HGA3     0.090000        1.0080           0
      8027 WT3      659      MECN     H12      HGA3     0.090000        1.0080           0
      8028 WT3      659      MECN     H13      HGA3     0.090000        1.0080           0
      8029 WT3      659      MECN     C2       CG1N1    0.360000       12.0110           0
      8030 WT3      659      MECN     N3       NG1T1   -0.460000       14.0070           0
      8031 WT3      663      MECN     C1       CG331   -0.170000       12.0110           0
      8032 WT3      663      MECN     H11      HGA3     0.090000        1.0080           0
      8033 WT3      663      MECN     H12      HGA3     0.090000        1.0080           0
      8034 WT3      663      MECN     H13      HGA3     0.090000        1.0080           0
      8035 WT3      663      MECN     C2       CG1N1    0.360000       12.0110           0
      8036 WT3      663      MECN     N3       NG1T1   -0.460000       14.0070           0
      8037 WT3      670      MECN     C1       CG331   -0.170000       12.0110           0
      8038 WT3      670      MECN     H11      HGA3     0.090000        1.0080           0
      8039 WT3      670      MECN     H12      HGA3     0.090000        1.0080           0
      8040 WT3      670      MECN     H13      HGA3     0.090000        1.0080           0
      8041 WT3      670      MECN     C2       CG1N1    0.360000       12.0110           0
      8042 WT3      670      MECN     N3       NG1T1   -0.460000       14.0070           0
      8043 WT3      679      MECN     C1       CG331   -0.170000       12.0110           0
      8044 WT3      679      MECN     H11      HGA3     0.090000        1.0080           0
      8045 WT3      679      MECN     H12      HGA3     0.090000        1.0080           0
      8046 WT3      679      MECN     H13      HGA3     0.090000        1.0080           0
      8047 WT3      679      MECN     C2       CG1N1    0.360000       12.0110           0
      8048 WT3      679      MECN     N3       NG1T1   -0.460000       14.0070           0
      8049 WT3      680      MECN     C1       CG331   -0.170000       12.0110           0
      8050 WT3      680      MECN     H11      HGA3     0.090000        1.0080           0
      8051 WT3      680      MECN     H12      HGA3     0.090000        1.0080           0
      8052 WT3      680      MECN     H13      HGA3     0.090000        1.0080           0
      8053 WT3      680      MECN     C2       CG1N1    0.360000       12.0110           0
      8054 WT3      680      MECN     N3       NG1T1   -0.460000       14.0070           0
      8055 WT3      688      MECN     C1       CG331   -0.170000       12.0110           0
      8056 WT3      688      MECN     H11      HGA3     0.090000        1.0080           0
      8057 WT3      688      MECN     H12      HGA3     0.090000        1.0080           0
      8058 WT3      688      MECN     H13      HGA3     0.090000        1.0080           0
      8059 WT3      688      MECN     C2       CG1N1    0.360000       12.0110           0
      8060 WT3      688      MECN     N3       NG1T1   -0.460000       14.0070           0
      8061 WT3      689      MECN     C1       CG331   -0.170000       12.0110           0
      8062 WT3      689      MECN     H11      HGA3     0.090000        1.0080           0
      8063 WT3      689      MECN     H12      HGA3     0.090000        1.0080           0
      8064 WT3      689      MECN     H13      HGA3     0.090000        1.0080           0
      8065 WT3      689      MECN     C2       CG1N1    0.360000       12.0110           0
      8066 WT3      689      MECN     N3       NG1T1   -0.460000       14.0070           0
      8067 WT3      692      MECN     C1       CG331   -0.170000       12.0110           0
      8068 WT3      692      MECN     H11      HGA3     0.090000        1.0080           0
      8069 WT3      692      MECN     H12      HGA3     0.090000        1.0080           0
      8070 WT3      692      MECN     H13      HGA3     0.090000        1.0080           0
      8071 WT3      692      MECN     C2       CG1N1    0.360000       12.0110           0
      8072 WT3      692      MECN     N3       NG1T1   -0.460000       14.0070           0
      8073 WT3      696      MECN     C1       CG331   -0.170000       12.0110           0
      8074 WT3      696      MECN     H11      HGA3     0.090000        1.0080           0
      8075 WT3      696      MECN     H12      HGA3     0.090000        1.0080           0
      8076 WT3      696      MECN     H13      HGA3     0.090000        1.0080           0
      8077 WT3      696      MECN     C2       CG1N1    0.360000       12.0110           0
      8078 WT3      696      MECN     N3       NG1T1   -0.460000       14.0070           0
      8079 WT3      705      MECN     C1       CG331   -0.170000       12.0110           0
      8080 WT3      705      MECN     H11      HGA3     0.090000        1.0080           0
      8081 WT3      705      MECN     H12      HGA3     0.090000        1.0080           0
      8082 WT3      705      MECN     H13      HGA3     0.090000        1.0080           0
      8083 WT3      705      MECN     C2       CG1N1    0.360000       12.0110           0
      8084 WT3      705      MECN     N3       NG1T1   -0.460000       14.0070           0
      8085 WT3      706      MECN     C1       CG331   -0.170000       12.0110           0
      8086 WT3      706      MECN     H11      HGA3     0.090000        1.0080           0
      8087 WT3      706      MECN     H12      HGA3     0.090000        1.0080           0
      8088 WT3      706      MECN     H13      HGA3     0.090000        1.0080           0
      8089 WT3      706      MECN     C2       CG1N1    0.360000       12.0110           0
      8090 WT3      706      MECN     N3       NG1T1   -0.460000       14.0070           0
      8091 WT3      715      MECN     C1       CG331   -0.170000       12.0110           0
      8092 WT3      715      MECN     H11      HGA3     0.090000        1.0080           0
      8093 WT3      715      MECN     H12      HGA3     0.090000        1.0080           0
      8094 WT3      715      MECN     H13      HGA3     0.090000        1.0080           0
      8095 WT3      715      MECN     C2       CG1N1    0.360000       12.0110           0
      8096 WT3      715      MECN     N3       NG1T1   -0.460000       14.0070           0
      8097 WT3      726      MECN     C1       CG331   -0.170000       12.0110           0
      8098 WT3      726      MECN     H11      HGA3     0.090000        1.0080           0
      8099 WT3      726      MECN     H12      HGA3     0.090000        1.0080           0
      8100 WT3      726      MECN     H13      HGA3     0.090000        1.0080           0
      8101 WT3      726      MECN     C2       CG1N1    0.360000       12.0110           0
      8102 WT3      726      MECN     N3       NG1T1   -0.460000       14.0070           0
      8103 WT3      728      MECN     C1       CG331   -0.170000       12.0110           0
      8104 WT3      728      MECN     H11      HGA3     0.090000        1.0080           0
      8105 WT3      728      MECN     H12      HGA3     0.090000        1.0080           0
      8106 WT3      728      MECN     H13      HGA3     0.090000        1.0080           0
      8107 WT3      728      MECN     C2       CG1N1    0.360000       12.0110           0
      8108 WT3      728      MECN     N3       NG1T1   -0.460000       14.0070           0
      8109 WT3      736      MECN     C1       CG331   -0.170000       12.0110           0
      8110 WT3      736      MECN     H11      HGA3     0.090000        1.0080           0
      8111 WT3      736      MECN     H12      HGA3     0.090000        1.0080           0
      8112 WT3      736      MECN     H13      HGA3     0.090000        1.0080           0
      8113 WT3      736      MECN     C2       CG1N1    0.360000       12.0110           0
      8114 WT3      736      MECN     N3       NG1T1   -0.460000       14.0070           0
      8115 WT3      744      MECN     C1       CG331   -0.170000       12.0110           0
      8116 WT3      744      MECN     H11      HGA3     0.090000        1.0080           0
      8117 WT3      744      MECN     H12      HGA3     0.090000        1.0080           0
      8118 WT3      744      MECN     H13      HGA3     0.090000        1.0080           0
      8119 WT3      744      MECN     C2       CG1N1    0.360000       12.0110           0
      8120 WT3      744      MECN     N3       NG1T1   -0.460000       14.0070           0
      8121 WT3      749      MECN     C1       CG331   -0.170000       12.0110           0
      8122 WT3      749      MECN     H11      HGA3     0.090000        1.0080           0
      8123 WT3      749      MECN     H12      HGA3     0.090000        1.0080           0
      8124 WT3      749      MECN     H13      HGA3     0.090000        1.0080           0
      8125 WT3      749      MECN     C2       CG1N1    0.360000       12.0110           0
      8126 WT3      749      MECN     N3       NG1T1   -0.460000       14.0070           0
      8127 WT3      758      MECN     C1       CG331   -0.170000       12.0110           0
      8128 WT3      758      MECN     H11      HGA3     0.090000        1.0080           0
      8129 WT3      758      MECN     H12      HGA3     0.090000        1.0080           0
      8130 WT3      758      MECN     H13      HGA3     0.090000        1.0080           0
      8131 WT3      758      MECN     C2       CG1N1    0.360000       12.0110           0
      8132 WT3      758      MECN     N3       NG1T1   -0.460000       14.0070           0
      8133 WT3      762      MECN     C1       CG331   -0.170000       12.0110           0
      8134 WT3      762      MECN     H11      HGA3     0.090000        1.0080           0
      8135 WT3      762      MECN     H12      HGA3     0.090000        1.0080           0
      8136 WT3      762      MECN     H13      HGA3     0.090000        1.0080           0
      8137 WT3      762      MECN     C2       CG1N1    0.360000       12.0110           0
      8138 WT3      762      MECN     N3       NG1T1   -0.460000       14.0070           0
      8139 WT3      777      MECN     C1       CG331   -0.170000       12.0110           0
      8140 WT3      777      MECN     H11      HGA3     0.090000        1.0080           0
      8141 WT3      777      MECN     H12      HGA3     0.090000        1.0080           0
      8142 WT3      777      MECN     H13      HGA3     0.090000        1.0080           0
      8143 WT3      777      MECN     C2       CG1N1    0.360000       12.0110           0
      8144 WT3      777      MECN     N3       NG1T1   -0.460000       14.0070           0
      8145 WT3      780      MECN     C1       CG331   -0.170000       12.0110           0
      8146 WT3      780      MECN     H11      HGA3     0.090000        1.0080           0
      8147 WT3      780      MECN     H12      HGA3     0.090000        1.0080           0
      8148 WT3      780      MECN     H13      HGA3     0.090000        1.0080           0
      8149 WT3      780      MECN     C2       CG1N1    0.360000       12.0110           0
      8150 WT3      780      MECN     N3       NG1T1   -0.460000       14.0070           0
      8151 WT3      781      MECN     C1       CG331   -0.170000       12.0110           0
      8152 WT3      781      MECN     H11      HGA3     0.090000        1.0080           0
      8153 WT3      781      MECN     H12      HGA3     0.090000        1.0080           0
      8154 WT3      781      MECN     H13      HGA3     0.090000        1.0080           0
      8155 WT3      781      MECN     C2       CG1N1    0.360000       12.0110           0
      8156 WT3      781      MECN     N3       NG1T1   -0.460000       14.0070           0
      8157 WT3      787      MECN     C1       CG331   -0.170000       12.0110           0
      8158 WT3      787      MECN     H11      HGA3     0.090000        1.0080           0
      8159 WT3      787      MECN     H12      HGA3     0.090000        1.0080           0
      8160 WT3      787      MECN     H13      HGA3     0.090000        1.0080           0
      8161 WT3      787      MECN     C2       CG1N1    0.360000       12.0110           0
      8162 WT3      787      MECN     N3       NG1T1   -0.460000       14.0070           0
      8163 WT3      805      MECN     C1       CG331   -0.170000       12.0110           0
      8164 WT3      805      MECN     H11      HGA3     0.090000        1.0080           0
      8165 WT3      805      MECN     H12      HGA3     0.090000        1.0080           0
      8166 WT3      805      MECN     H13      HGA3     0.090000        1.0080           0
      8167 WT3      805      MECN     C2       CG1N1    0.360000       12.0110           0
      8168 WT3      805      MECN     N3       NG1T1   -0.460000       14.0070           0
      8169 WT3      810      MECN     C1       CG331   -0.170000       12.0110           0
      8170 WT3      810      MECN     H11      HGA3     0.090000        1.0080           0
      8171 WT3      810      MECN     H12      HGA3     0.090000        1.0080           0
      8172 WT3      810      MECN     H13      HGA3     0.090000        1.0080           0
      8173 WT3      810      MECN     C2       CG1N1    0.360000       12.0110           0
      8174 WT3      810      MECN     N3       NG1T1   -0.460000       14.0070           0
      8175 WT3      818      MECN     C1       CG331   -0.170000       12.0110           0
      8176 WT3      818      MECN     H11      HGA3     0.090000        1.0080           0
      8177 WT3      818      MECN     H12      HGA3     0.090000        1.0080           0
      8178 WT3      818      MECN     H13      HGA3     0.090000        1.0080           0
      8179 WT3      818      MECN     C2       CG1N1    0.360000       12.0110           0
      8180 WT3      818      MECN     N3       NG1T1   -0.460000       14.0070           0
      8181 WT3      836      MECN     C1       CG331   -0.170000       12.0110           0
      8182 WT3      836      MECN     H11      HGA3     0.090000        1.0080           0
      8183 WT3      836      MECN     H12      HGA3     0.090000        1.0080           0
      8184 WT3      836      MECN     H13      HGA3     0.090000        1.0080           0
      8185 WT3      836      MECN     C2       CG1N1    0.360000       12.0110           0
      8186 WT3      836      MECN     N3       NG1T1   -0.460000       14.0070           0
      8187 WT3      838      MECN     C1       CG331   -0.170000       12.0110           0
      8188 WT3      838      MECN     H11      HGA3     0.090000        1.0080           0
      8189 WT3      838      MECN     H12      HGA3     0.090000        1.0080           0
      8190 WT3      838      MECN     H13      HGA3     0.090000        1.0080           0
      8191 WT3      838      MECN     C2       CG1N1    0.360000       12.0110           0
      8192 WT3      838      MECN     N3       NG1T1   -0.460000       14.0070           0
      8193 WT3      839      MECN     C1       CG331   -0.170000       12.0110           0
      8194 WT3      839      MECN     H11      HGA3     0.090000        1.0080           0
      8195 WT3      839      MECN     H12      HGA3     0.090000        1.0080           0
      8196 WT3      839      MECN     H13      HGA3     0.090000        1.0080           0
      8197 WT3      839      MECN     C2       CG1N1    0.360000       12.0110           0
      8198 WT3      839      MECN     N3       NG1T1   -0.460000       14.0070           0
      8199 WT3      851      MECN     C1       CG331   -0.170000       12.0110           0
      8200 WT3      851      MECN     H11      HGA3     0.090000        1.0080           0
      8201 WT3      851      MECN     H12      HGA3     0.090000        1.0080           0
      8202 WT3      851      MECN     H13      HGA3     0.090000        1.0080           0
      8203 WT3      851      MECN     C2       CG1N1    0.360000       12.0110           0
      8204 WT3      851      MECN     N3       NG1T1   -0.460000       14.0070           0
      8205 WT3      862      MECN     C1       CG331   -0.170000       12.0110           0
      8206 WT3      862      MECN     H11      HGA3     0.090000        1.0080           0
      8207 WT3      862      MECN     H12      HGA3     0.090000        1.0080           0
      8208 WT3      862      MECN     H13      HGA3     0.090000        1.0080           0
      8209 WT3      862      MECN     C2       CG1N1    0.360000       12.0110           0
      8210 WT3      862      MECN     N3       NG1T1   -0.460000       14.0070           0
      8211 WT3      866      MECN     C1       CG331   -0.170000       12.0110           0
      8212 WT3      866      MECN     H11      HGA3     0.090000        1.0080           0
      8213 WT3      866      MECN     H12      HGA3     0.090000        1.0080           0
      8214 WT3      866      MECN     H13      HGA3     0.090000        1.0080           0
      8215 WT3      866      MECN     C2       CG1N1    0.360000       12.0110           0
      8216 WT3      866      MECN     N3       NG1T1   -0.460000       14.0070           0
      8217 WT3      867      MECN     C1       CG331   -0.170000       12.0110           0
      8218 WT3      867      MECN     H11      HGA3     0.090000        1.0080           0
      8219 WT3      867      MECN     H12      HGA3     0.090000        1.0080           0
      8220 WT3      867      MECN     H13      HGA3     0.090000        1.0080           0
      8221 WT3      867      MECN     C2       CG1N1    0.360000       12.0110           0
      8222 WT3      867      MECN     N3       NG1T1   -0.460000       14.0070           0
      8223 WT3      871      MECN     C1       CG331   -0.170000       12.0110           0
      8224 WT3      871      MECN     H11      HGA3     0.090000        1.0080           0
      8225 WT3      871      MECN     H12      HGA3     0.090000        1.0080           0
      8226 WT3      871      MECN     H13      HGA3     0.090000        1.0080           0
      8227 WT3      871      MECN     C2       CG1N1    0.360000       12.0110           0
      8228 WT3      871      MECN     N3       NG1T1   -0.460000       14.0070           0
      8229 WT3      879      MECN     C1       CG331   -0.170000       12.0110           0
      8230 WT3      879      MECN     H11      HGA3     0.090000        1.0080           0
      8231 WT3      879      MECN     H12      HGA3     0.090000        1.0080           0
      8232 WT3      879      MECN     H13      HGA3     0.090000        1.0080           0
      8233 WT3      879      MECN     C2       CG1N1    0.360000       12.0110           0
      8234 WT3      879      MECN     N3       NG1T1   -0.460000       14.0070           0
      8235 WT3      880      MECN     C1       CG331   -0.170000       12.0110           0
      8236 WT3      880      MECN     H11      HGA3     0.090000        1.0080           0
      8237 WT3      880      MECN     H12      HGA3     0.090000        1.0080           0
      8238 WT3      880      MECN     H13      HGA3     0.090000        1.0080           0
      8239 WT3      880      MECN     C2       CG1N1    0.360000       12.0110           0
      8240 WT3      880      MECN     N3       NG1T1   -0.460000       14.0070           0
      8241 WT3      882      MECN     C1       CG331   -0.170000       12.0110           0
      8242 WT3      882      MECN     H11      HGA3     0.090000        1.0080           0
      8243 WT3      882      MECN     H12      HGA3     0.090000        1.0080           0
      8244 WT3      882      MECN     H13      HGA3     0.090000        1.0080           0
      8245 WT3      882      MECN     C2       CG1N1    0.360000       12.0110           0
      8246 WT3      882      MECN     N3       NG1T1   -0.460000       14.0070           0
      8247 WT3      883      MECN     C1       CG331   -0.170000       12.0110           0
      8248 WT3      883      MECN     H11      HGA3     0.090000        1.0080           0
      8249 WT3      883      MECN     H12      HGA3     0.090000        1.0080           0
      8250 WT3      883      MECN     H13      HGA3     0.090000        1.0080           0
      8251 WT3      883      MECN     C2       CG1N1    0.360000       12.0110           0
      8252 WT3      883      MECN     N3       NG1T1   -0.460000       14.0070           0
      8253 WT3      884      MECN     C1       CG331   -0.170000       12.0110           0
      8254 WT3      884      MECN     H11      HGA3     0.090000        1.0080           0
      8255 WT3      884      MECN     H12      HGA3     0.090000        1.0080           0
      8256 WT3      884      MECN     H13      HGA3     0.090000        1.0080           0
      8257 WT3      884      MECN     C2       CG1N1    0.360000       12.0110           0
      8258 WT3      884      MECN     N3       NG1T1   -0.460000       14.0070           0
      8259 WT3      901      MECN     C1       CG331   -0.170000       12.0110           0
      8260 WT3      901      MECN     H11      HGA3     0.090000        1.0080           0
      8261 WT3      901      MECN     H12      HGA3     0.090000        1.0080           0
      8262 WT3      901      MECN     H13      HGA3     0.090000        1.0080           0
      8263 WT3      901      MECN     C2       CG1N1    0.360000       12.0110           0
      8264 WT3      901      MECN     N3       NG1T1   -0.460000       14.0070           0
      8265 WT3      904      MECN     C1       CG331   -0.170000       12.0110           0
      8266 WT3      904      MECN     H11      HGA3     0.090000        1.0080           0
      8267 WT3      904      MECN     H12      HGA3     0.090000        1.0080           0
      8268 WT3      904      MECN     H13      HGA3     0.090000        1.0080           0
      8269 WT3      904      MECN     C2       CG1N1    0.360000       12.0110           0
      8270 WT3      904      MECN     N3       NG1T1   -0.460000       14.0070           0
      8271 WT3      907      MECN     C1       CG331   -0.170000       12.0110           0
      8272 WT3      907      MECN     H11      HGA3     0.090000        1.0080           0
      8273 WT3      907      MECN     H12      HGA3     0.090000        1.0080           0
      8274 WT3      907      MECN     H13      HGA3     0.090000        1.0080           0
      8275 WT3      907      MECN     C2       CG1N1    0.360000       12.0110           0
      8276 WT3      907      MECN     N3       NG1T1   -0.460000       14.0070           0
      8277 WT3      912      MECN     C1       CG331   -0.170000       12.0110           0
      8278 WT3      912      MECN     H11      HGA3     0.090000        1.0080           0
      8279 WT3      912      MECN     H12      HGA3     0.090000        1.0080           0
      8280 WT3      912      MECN     H13      HGA3     0.090000        1.0080           0
      8281 WT3      912      MECN     C2       CG1N1    0.360000       12.0110           0
      8282 WT3      912      MECN     N3       NG1T1   -0.460000       14.0070           0
      8283 WT3      934      MECN     C1       CG331   -0.170000       12.0110           0
      8284 WT3      934      MECN     H11      HGA3     0.090000        1.0080           0
      8285 WT3      934      MECN     H12      HGA3     0.090000        1.0080           0
      8286 WT3      934      MECN     H13      HGA3     0.090000        1.0080           0
      8287 WT3      934      MECN     C2       CG1N1    0.360000       12.0110           0
      8288 WT3      934      MECN     N3       NG1T1   -0.460000       14.0070           0
      8289 WT3      938      MECN     C1       CG331   -0.170000       12.0110           0
      8290 WT3      938      MECN     H11      HGA3     0.090000        1.0080           0
      8291 WT3      938      MECN     H12      HGA3     0.090000        1.0080           0
      8292 WT3      938      MECN     H13      HGA3     0.090000        1.0080           0
      8293 WT3      938      MECN     C2       CG1N1    0.360000       12.0110           0
      8294 WT3      938      MECN     N3       NG1T1   -0.460000       14.0070           0
      8295 WT3      943      MECN     C1       CG331   -0.170000       12.0110           0
      8296 WT3      943      MECN     H11      HGA3     0.090000        1.0080           0
      8297 WT3      943      MECN     H12      HGA3     0.090000        1.0080           0
      8298 WT3      943      MECN     H13      HGA3     0.090000        1.0080           0
      8299 WT3      943      MECN     C2       CG1N1    0.360000       12.0110           0
      8300 WT3      943      MECN     N3       NG1T1   -0.460000       14.0070           0
      8301 WT3      947      MECN     C1       CG331   -0.170000       12.0110           0
      8302 WT3      947      MECN     H11      HGA3     0.090000        1.0080           0
      8303 WT3      947      MECN     H12      HGA3     0.090000        1.0080           0
      8304 WT3      947      MECN     H13      HGA3     0.090000        1.0080           0
      8305 WT3      947      MECN     C2       CG1N1    0.360000       12.0110           0
      8306 WT3      947      MECN     N3       NG1T1   -0.460000       14.0070           0
      8307 WT3      959      MECN     C1       CG331   -0.170000       12.0110           0
      8308 WT3      959      MECN     H11      HGA3     0.090000        1.0080           0
      8309 WT3      959      MECN     H12      HGA3     0.090000        1.0080           0
      8310 WT3      959      MECN     H13      HGA3     0.090000        1.0080           0
      8311 WT3      959      MECN     C2       CG1N1    0.360000       12.0110           0
      8312 WT3      959      MECN     N3       NG1T1   -0.460000       14.0070           0
      8313 WT3      960      MECN     C1       CG331   -0.170000       12.0110           0
      8314 WT3      960      MECN     H11      HGA3     0.090000        1.0080           0
      8315 WT3      960      MECN     H12      HGA3     0.090000        1.0080           0
      8316 WT3      960      MECN     H13      HGA3     0.090000        1.0080           0
      8317 WT3      960      MECN     C2       CG1N1    0.360000       12.0110           0
      8318 WT3      960      MECN     N3       NG1T1   -0.460000       14.0070           0
      8319 WT3      963      MECN     C1       CG331   -0.170000       12.0110           0
      8320 WT3      963      MECN     H11      HGA3     0.090000        1.0080           0
      8321 WT3      963      MECN     H12      HGA3     0.090000        1.0080           0
      8322 WT3      963      MECN     H13      HGA3     0.090000        1.0080           0
      8323 WT3      963      MECN     C2       CG1N1    0.360000       12.0110           0
      8324 WT3      963      MECN     N3       NG1T1   -0.460000       14.0070           0
      8325 WT3      964      MECN     C1       CG331   -0.170000       12.0110           0
      8326 WT3      964      MECN     H11      HGA3     0.090000        1.0080           0
      8327 WT3      964      MECN     H12      HGA3     0.090000        1.0080           0
      8328 WT3      964      MECN     H13      HGA3     0.090000        1.0080           0
      8329 WT3      964      MECN     C2       CG1N1    0.360000       12.0110           0
      8330 WT3      964      MECN     N3       NG1T1   -0.460000       14.0070           0
      8331 WT3      967      MECN     C1       CG331   -0.170000       12.0110           0
      8332 WT3      967      MECN     H11      HGA3     0.090000        1.0080           0
      8333 WT3      967      MECN     H12      HGA3     0.090000        1.0080           0
      8334 WT3      967      MECN     H13      HGA3     0.090000        1.0080           0
      8335 WT3      967      MECN     C2       CG1N1    0.360000       12.0110           0
      8336 WT3      967      MECN     N3       NG1T1   -0.460000       14.0070           0
      8337 WT3      971      MECN     C1       CG331   -0.170000       12.0110           0
      8338 WT3      971      MECN     H11      HGA3     0.090000        1.0080           0
      8339 WT3      971      MECN     H12      HGA3     0.090000        1.0080           0
      8340 WT3      971      MECN     H13      HGA3     0.090000        1.0080           0
      8341 WT3      971      MECN     C2       CG1N1    0.360000       12.0110           0
      8342 WT3      971      MECN     N3       NG1T1   -0.460000       14.0070           0
      8343 WT3      975      MECN     C1       CG331   -0.170000       12.0110           0
      8344 WT3      975      MECN     H11      HGA3     0.090000        1.0080           0
      8345 WT3      975      MECN     H12      HGA3     0.090000        1.0080           0
      8346 WT3      975      MECN     H13      HGA3     0.090000        1.0080           0
      8347 WT3      975      MECN     C2       CG1N1    0.360000       12.0110           0
      8348 WT3      975      MECN     N3       NG1T1   -0.460000       14.0070           0
      8349 WT3      988      MECN     C1       CG331   -0.170000       12.0110           0
      8350 WT3      988      MECN     H11      HGA3     0.090000        1.0080           0
      8351 WT3      988      MECN     H12      HGA3     0.090000        1.0080           0
      8352 WT3      988      MECN     H13      HGA3     0.090000        1.0080           0
      8353 WT3      988      MECN     C2       CG1N1    0.360000       12.0110           0
      8354 WT3      988      MECN     N3       NG1T1   -0.460000       14.0070           0
      8355 WT3      999      MECN     C1       CG331   -0.170000       12.0110           0
      8356 WT3      999      MECN     H11      HGA3     0.090000        1.0080           0
      8357 WT3      999      MECN     H12      HGA3     0.090000        1.0080           0
      8358 WT3      999      MECN     H13      HGA3     0.090000        1.0080           0
      8359 WT3      999      MECN     C2       CG1N1    0.360000       12.0110           0
      8360 WT3      999      MECN     N3       NG1T1   -0.460000       14.0070           0
      8361 WT3      1001     MECN     C1       CG331   -0.170000       12.0110           0
      8362 WT3      1001     MECN     H11      HGA3     0.090000        1.0080           0
      8363 WT3      1001     MECN     H12      HGA3     0.090000        1.0080           0
      8364 WT3      1001     MECN     H13      HGA3     0.090000        1.0080           0
      8365 WT3      1001     MECN     C2       CG1N1    0.360000       12.0110           0
      8366 WT3      1001     MECN     N3       NG1T1   -0.460000       14.0070           0
      8367 WT3      1002     MECN     C1       CG331   -0.170000       12.0110           0
      8368 WT3      1002     MECN     H11      HGA3     0.090000        1.0080           0
      8369 WT3      1002     MECN     H12      HGA3     0.090000        1.0080           0
      8370 WT3      1002     MECN     H13      HGA3     0.090000        1.0080           0
      8371 WT3      1002     MECN     C2       CG1N1    0.360000       12.0110           0
      8372 WT3      1002     MECN     N3       NG1T1   -0.460000       14.0070           0
      8373 WT3      1005     MECN     C1       CG331   -0.170000       12.0110           0
      8374 WT3      1005     MECN     H11      HGA3     0.090000        1.0080           0
      8375 WT3      1005     MECN     H12      HGA3     0.090000        1.0080           0
      8376 WT3      1005     MECN     H13      HGA3     0.090000        1.0080           0
      8377 WT3      1005     MECN     C2       CG1N1    0.360000       12.0110           0
      8378 WT3      1005     MECN     N3       NG1T1   -0.460000       14.0070           0
      8379 WT3      1006     MECN     C1       CG331   -0.170000       12.0110           0
      8380 WT3      1006     MECN     H11      HGA3     0.090000        1.0080           0
      8381 WT3      1006     MECN     H12      HGA3     0.090000        1.0080           0
      8382 WT3      1006     MECN     H13      HGA3     0.090000        1.0080           0
      8383 WT3      1006     MECN     C2       CG1N1    0.360000       12.0110           0
      8384 WT3      1006     MECN     N3       NG1T1   -0.460000       14.0070           0
      8385 WT3      1016     MECN     C1       CG331   -0.170000       12.0110           0
      8386 WT3      1016     MECN     H11      HGA3     0.090000        1.0080           0
      8387 WT3      1016     MECN     H12      HGA3     0.090000        1.0080           0
      8388 WT3      1016     MECN     H13      HGA3     0.090000        1.0080           0
      8389 WT3      1016     MECN     C2       CG1N1    0.360000       12.0110           0
      8390 WT3      1016     MECN     N3       NG1T1   -0.460000       14.0070           0
      8391 WT3      1022     MECN     C1       CG331   -0.170000       12.0110           0
      8392 WT3      1022     MECN     H11      HGA3     0.090000        1.0080           0
      8393 WT3      1022     MECN     H12      HGA3     0.090000        1.0080           0
      8394 WT3      1022     MECN     H13      HGA3     0.090000        1.0080           0
      8395 WT3      1022     MECN     C2       CG1N1    0.360000       12.0110           0
      8396 WT3      1022     MECN     N3       NG1T1   -0.460000       14.0070           0
      8397 WT3      1026     MECN     C1       CG331   -0.170000       12.0110           0
      8398 WT3      1026     MECN     H11      HGA3     0.090000        1.0080           0
      8399 WT3      1026     MECN     H12      HGA3     0.090000        1.0080           0
      8400 WT3      1026     MECN     H13      HGA3     0.090000        1.0080           0
      8401 WT3      1026     MECN     C2       CG1N1    0.360000       12.0110           0
      8402 WT3      1026     MECN     N3       NG1T1   -0.460000       14.0070           0
      8403 WT3      1027     MECN     C1       CG331   -0.170000       12.0110           0
      8404 WT3      1027     MECN     H11      HGA3     0.090000        1.0080           0
      8405 WT3      1027     MECN     H12      HGA3     0.090000        1.0080           0
      8406 WT3      1027     MECN     H13      HGA3     0.090000        1.0080           0
      8407 WT3      1027     MECN     C2       CG1N1    0.360000       12.0110           0
      8408 WT3      1027     MECN     N3       NG1T1   -0.460000       14.0070           0
      8409 WT3      1038     MECN     C1       CG331   -0.170000       12.0110           0
      8410 WT3      1038     MECN     H11      HGA3     0.090000        1.0080           0
      8411 WT3      1038     MECN     H12      HGA3     0.090000        1.0080           0
      8412 WT3      1038     MECN     H13      HGA3     0.090000        1.0080           0
      8413 WT3      1038     MECN     C2       CG1N1    0.360000       12.0110           0
      8414 WT3      1038     MECN     N3       NG1T1   -0.460000       14.0070           0
      8415 WT3      1045     MECN     C1       CG331   -0.170000       12.0110           0
      8416 WT3      1045     MECN     H11      HGA3     0.090000        1.0080           0
      8417 WT3      1045     MECN     H12      HGA3     0.090000        1.0080           0
      8418 WT3      1045     MECN     H13      HGA3     0.090000        1.0080           0
      8419 WT3      1045     MECN     C2       CG1N1    0.360000       12.0110           0
      8420 WT3      1045     MECN     N3       NG1T1   -0.460000       14.0070           0
      8421 WT3      1054     MECN     C1       CG331   -0.170000       12.0110           0
      8422 WT3      1054     MECN     H11      HGA3     0.090000        1.0080           0
      8423 WT3      1054     MECN     H12      HGA3     0.090000        1.0080           0
      8424 WT3      1054     MECN     H13      HGA3     0.090000        1.0080           0
      8425 WT3      1054     MECN     C2       CG1N1    0.360000       12.0110           0
      8426 WT3      1054     MECN     N3       NG1T1   -0.460000       14.0070           0
      8427 WT3      1060     MECN     C1       CG331   -0.170000       12.0110           0
      8428 WT3      1060     MECN     H11      HGA3     0.090000        1.0080           0
      8429 WT3      1060     MECN     H12      HGA3     0.090000        1.0080           0
      8430 WT3      1060     MECN     H13      HGA3     0.090000        1.0080           0
      8431 WT3      1060     MECN     C2       CG1N1    0.360000       12.0110           0
      8432 WT3      1060     MECN     N3       NG1T1   -0.460000       14.0070           0
      8433 WT3      1073     MECN     C1       CG331   -0.170000       12.0110           0
      8434 WT3      1073     MECN     H11      HGA3     0.090000        1.0080           0
      8435 WT3      1073     MECN     H12      HGA3     0.090000        1.0080           0
      8436 WT3      1073     MECN     H13      HGA3     0.090000        1.0080           0
      8437 WT3      1073     MECN     C2       CG1N1    0.360000       12.0110           0
      8438 WT3      1073     MECN     N3       NG1T1   -0.460000       14.0070           0
      8439 WT3      1077     MECN     C1       CG331   -0.170000       12.0110           0
      8440 WT3      1077     MECN     H11      HGA3     0.090000        1.0080           0
      8441 WT3      1077     MECN     H12      HGA3     0.090000        1.0080           0
      8442 WT3      1077     MECN     H13      HGA3     0.090000        1.0080           0
      8443 WT3      1077     MECN     C2       CG1N1    0.360000       12.0110           0
      8444 WT3      1077     MECN     N3       NG1T1   -0.460000       14.0070           0
      8445 WT3      1088     MECN     C1       CG331   -0.170000       12.0110           0
      8446 WT3      1088     MECN     H11      HGA3     0.090000        1.0080           0
      8447 WT3      1088     MECN     H12      HGA3     0.090000        1.0080           0
      8448 WT3      1088     MECN     H13      HGA3     0.090000        1.0080           0
      8449 WT3      1088     MECN     C2       CG1N1    0.360000       12.0110           0
      8450 WT3      1088     MECN     N3       NG1T1   -0.460000       14.0070           0
      8451 WT3      1096     MECN     C1       CG331   -0.170000       12.0110           0
      8452 WT3      1096     MECN     H11      HGA3     0.090000        1.0080           0
      8453 WT3      1096     MECN     H12      HGA3     0.090000        1.0080           0
      8454 WT3      1096     MECN     H13      HGA3     0.090000        1.0080           0
      8455 WT3      1096     MECN     C2       CG1N1    0.360000       12.0110           0
      8456 WT3      1096     MECN     N3       NG1T1   -0.460000       14.0070           0
      8457 WT3      1099     MECN     C1       CG331   -0.170000       12.0110           0
      8458 WT3      1099     MECN     H11      HGA3     0.090000        1.0080           0
      8459 WT3      1099     MECN     H12      HGA3     0.090000        1.0080           0
      8460 WT3      1099     MECN     H13      HGA3     0.090000        1.0080           0
      8461 WT3      1099     MECN     C2       CG1N1    0.360000       12.0110           0
      8462 WT3      1099     MECN     N3       NG1T1   -0.460000       14.0070           0
      8463 WT3      1100     MECN     C1       CG331   -0.170000       12.0110           0
      8464 WT3      1100     MECN     H11      HGA3     0.090000        1.0080           0
      8465 WT3      1100     MECN     H12      HGA3     0.090000        1.0080           0
      8466 WT3      1100     MECN     H13      HGA3     0.090000        1.0080           0
      8467 WT3      1100     MECN     C2       CG1N1    0.360000       12.0110           0
      8468 WT3      1100     MECN     N3       NG1T1   -0.460000       14.0070           0
      8469 WT3      1101     MECN     C1       CG331   -0.170000       12.0110           0
      8470 WT3      1101     MECN     H11      HGA3     0.090000        1.0080           0
      8471 WT3      1101     MECN     H12      HGA3     0.090000        1.0080           0
      8472 WT3      1101     MECN     H13      HGA3     0.090000        1.0080           0
      8473 WT3      1101     MECN     C2       CG1N1    0.360000       12.0110           0
      8474 WT3      1101     MECN     N3       NG1T1   -0.460000       14.0070           0
      8475 WT3      1110     MECN     C1       CG331   -0.170000       12.0110           0
      8476 WT3      1110     MECN     H11      HGA3     0.090000        1.0080           0
      8477 WT3      1110     MECN     H12      HGA3     0.090000        1.0080           0
      8478 WT3      1110     MECN     H13      HGA3     0.090000        1.0080           0
      8479 WT3      1110     MECN     C2       CG1N1    0.360000       12.0110           0
      8480 WT3      1110     MECN     N3       NG1T1   -0.460000       14.0070           0
      8481 WT3      1121     MECN     C1       CG331   -0.170000       12.0110           0
      8482 WT3      1121     MECN     H11      HGA3     0.090000        1.0080           0
      8483 WT3      1121     MECN     H12      HGA3     0.090000        1.0080           0
      8484 WT3      1121     MECN     H13      HGA3     0.090000        1.0080           0
      8485 WT3      1121     MECN     C2       CG1N1    0.360000       12.0110           0
      8486 WT3      1121     MECN     N3       NG1T1   -0.460000       14.0070           0
      8487 WT3      1123     MECN     C1       CG331   -0.170000       12.0110           0
      8488 WT3      1123     MECN     H11      HGA3     0.090000        1.0080           0
      8489 WT3      1123     MECN     H12      HGA3     0.090000        1.0080           0
      8490 WT3      1123     MECN     H13      HGA3     0.090000        1.0080           0
      8491 WT3      1123     MECN     C2       CG1N1    0.360000       12.0110           0
      8492 WT3      1123     MECN     N3       NG1T1   -0.460000       14.0070           0
      8493 WT3      1129     MECN     C1       CG331   -0.170000       12.0110           0
      8494 WT3      1129     MECN     H11      HGA3     0.090000        1.0080           0
      8495 WT3      1129     MECN     H12      HGA3     0.090000        1.0080           0
      8496 WT3      1129     MECN     H13      HGA3     0.090000        1.0080           0
      8497 WT3      1129     MECN     C2       CG1N1    0.360000       12.0110           0
      8498 WT3      1129     MECN     N3       NG1T1   -0.460000       14.0070           0
      8499 WT3      1136     MECN     C1       CG331   -0.170000       12.0110           0
      8500 WT3      1136     MECN     H11      HGA3     0.090000        1.0080           0
      8501 WT3      1136     MECN     H12      HGA3     0.090000        1.0080           0
      8502 WT3      1136     MECN     H13      HGA3     0.090000        1.0080           0
      8503 WT3      1136     MECN     C2       CG1N1    0.360000       12.0110           0
      8504 WT3      1136     MECN     N3       NG1T1   -0.460000       14.0070           0
      8505 WT3      1141     MECN     C1       CG331   -0.170000       12.0110           0
      8506 WT3      1141     MECN     H11      HGA3     0.090000        1.0080           0
      8507 WT3      1141     MECN     H12      HGA3     0.090000        1.0080           0
      8508 WT3      1141     MECN     H13      HGA3     0.090000        1.0080           0
      8509 WT3      1141     MECN     C2       CG1N1    0.360000       12.0110           0
      8510 WT3      1141     MECN     N3       NG1T1   -0.460000       14.0070           0
      8511 WT3      1144     MECN     C1       CG331   -0.170000       12.0110           0
      8512 WT3      1144     MECN     H11      HGA3     0.090000        1.0080           0
      8513 WT3      1144     MECN     H12      HGA3     0.090000        1.0080           0
      8514 WT3      1144     MECN     H13      HGA3     0.090000        1.0080           0
      8515 WT3      1144     MECN     C2       CG1N1    0.360000       12.0110           0
      8516 WT3      1144     MECN     N3       NG1T1   -0.460000       14.0070           0
      8517 WT3      1153     MECN     C1       CG331   -0.170000       12.0110           0
      8518 WT3      1153     MECN     H11      HGA3     0.090000        1.0080           0
      8519 WT3      1153     MECN     H12      HGA3     0.090000        1.0080           0
      8520 WT3      1153     MECN     H13      HGA3     0.090000        1.0080           0
      8521 WT3      1153     MECN     C2       CG1N1    0.360000       12.0110           0
      8522 WT3      1153     MECN     N3       NG1T1   -0.460000       14.0070           0
      8523 WT3      1154     MECN     C1       CG331   -0.170000       12.0110           0
      8524 WT3      1154     MECN     H11      HGA3     0.090000        1.0080           0
      8525 WT3      1154     MECN     H12      HGA3     0.090000        1.0080           0
      8526 WT3      1154     MECN     H13      HGA3     0.090000        1.0080           0
      8527 WT3      1154     MECN     C2       CG1N1    0.360000       12.0110           0
      8528 WT3      1154     MECN     N3       NG1T1   -0.460000       14.0070           0
      8529 WT3      1169     MECN     C1       CG331   -0.170000       12.0110           0
      8530 WT3      1169     MECN     H11      HGA3     0.090000        1.0080           0
      8531 WT3      1169     MECN     H12      HGA3     0.090000        1.0080           0
      8532 WT3      1169     MECN     H13      HGA3     0.090000        1.0080           0
      8533 WT3      1169     MECN     C2       CG1N1    0.360000       12.0110           0
      8534 WT3      1169     MECN     N3       NG1T1   -0.460000       14.0070           0
      8535 WT3      1187     MECN     C1       CG331   -0.170000       12.0110           0
      8536 WT3      1187     MECN     H11      HGA3     0.090000        1.0080           0
      8537 WT3      1187     MECN     H12      HGA3     0.090000        1.0080           0
      8538 WT3      1187     MECN     H13      HGA3     0.090000        1.0080           0
      8539 WT3      1187     MECN     C2       CG1N1    0.360000       12.0110           0
      8540 WT3      1187     MECN     N3       NG1T1   -0.460000       14.0070           0
      8541 WT3      1189     MECN     C1       CG331   -0.170000       12.0110           0
      8542 WT3      1189     MECN     H11      HGA3     0.090000        1.0080           0
      8543 WT3      1189     MECN     H12      HGA3     0.090000        1.0080           0
      8544 WT3      1189     MECN     H13      HGA3     0.090000        1.0080           0
      8545 WT3      1189     MECN     C2       CG1N1    0.360000       12.0110           0
      8546 WT3      1189     MECN     N3       NG1T1   -0.460000       14.0070           0
      8547 WT3      1192     MECN     C1       CG331   -0.170000       12.0110           0
      8548 WT3      1192     MECN     H11      HGA3     0.090000        1.0080           0
      8549 WT3      1192     MECN     H12      HGA3     0.090000        1.0080           0
      8550 WT3      1192     MECN     H13      HGA3     0.090000        1.0080           0
      8551 WT3      1192     MECN     C2       CG1N1    0.360000       12.0110           0
      8552 WT3      1192     MECN     N3       NG1T1   -0.460000       14.0070           0
      8553 WT3      1198     MECN     C1       CG331   -0.170000       12.0110           0
      8554 WT3      1198     MECN     H11      HGA3     0.090000        1.0080           0
      8555 WT3      1198     MECN     H12      HGA3     0.090000        1.0080           0
      8556 WT3      1198     MECN     H13      HGA3     0.090000        1.0080           0
      8557 WT3      1198     MECN     C2       CG1N1    0.360000       12.0110           0
      8558 WT3      1198     MECN     N3       NG1T1   -0.460000       14.0070           0
      8559 WT3      1201     MECN     C1       CG331   -0.170000       12.0110           0
      8560 WT3      1201     MECN     H11      HGA3     0.090000        1.0080           0
      8561 WT3      1201     MECN     H12      HGA3     0.090000        1.0080           0
      8562 WT3      1201     MECN     H13      HGA3     0.090000        1.0080           0
      8563 WT3      1201     MECN     C2       CG1N1    0.360000       12.0110           0
      8564 WT3      1201     MECN     N3       NG1T1   -0.460000       14.0070           0
      8565 WT3      1212     MECN     C1       CG331   -0.170000       12.0110           0
      8566 WT3      1212     MECN     H11      HGA3     0.090000        1.0080           0
      8567 WT3      1212     MECN     H12      HGA3     0.090000        1.0080           0
      8568 WT3      1212     MECN     H13      HGA3     0.090000        1.0080           0
      8569 WT3      1212     MECN     C2       CG1N1    0.360000       12.0110           0
      8570 WT3      1212     MECN     N3       NG1T1   -0.460000       14.0070           0
      8571 WT3      1214     MECN     C1       CG331   -0.170000       12.0110           0
      8572 WT3      1214     MECN     H11      HGA3     0.090000        1.0080           0
      8573 WT3      1214     MECN     H12      HGA3     0.090000        1.0080           0
      8574 WT3      1214     MECN     H13      HGA3     0.090000        1.0080           0
      8575 WT3      1214     MECN     C2       CG1N1    0.360000       12.0110           0
      8576 WT3      1214     MECN     N3       NG1T1   -0.460000       14.0070           0
      8577 WT3      1228     MECN     C1       CG331   -0.170000       12.0110           0
      8578 WT3      1228     MECN     H11      HGA3     0.090000        1.0080           0
      8579 WT3      1228     MECN     H12      HGA3     0.090000        1.0080           0
      8580 WT3      1228     MECN     H13      HGA3     0.090000        1.0080           0
      8581 WT3      1228     MECN     C2       CG1N1    0.360000       12.0110           0
      8582 WT3      1228     MECN     N3       NG1T1   -0.460000       14.0070           0
      8583 WT3      1233     MECN     C1       CG331   -0.170000       12.0110           0
      8584 WT3      1233     MECN     H11      HGA3     0.090000        1.0080           0
      8585 WT3      1233     MECN     H12      HGA3     0.090000        1.0080           0
      8586 WT3      1233     MECN     H13      HGA3     0.090000        1.0080           0
      8587 WT3      1233     MECN     C2       CG1N1    0.360000       12.0110           0
      8588 WT3      1233     MECN     N3       NG1T1   -0.460000       14.0070           0
      8589 WT3      1236     MECN     C1       CG331   -0.170000       12.0110           0
      8590 WT3      1236     MECN     H11      HGA3     0.090000        1.0080           0
      8591 WT3      1236     MECN     H12      HGA3     0.090000        1.0080           0
      8592 WT3      1236     MECN     H13      HGA3     0.090000        1.0080           0
      8593 WT3      1236     MECN     C2       CG1N1    0.360000       12.0110           0
      8594 WT3      1236     MECN     N3       NG1T1   -0.460000       14.0070           0
      8595 WT3      1242     MECN     C1       CG331   -0.170000       12.0110           0
      8596 WT3      1242     MECN     H11      HGA3     0.090000        1.0080           0
      8597 WT3      1242     MECN     H12      HGA3     0.090000        1.0080           0
      8598 WT3      1242     MECN     H13      HGA3     0.090000        1.0080           0
      8599 WT3      1242     MECN     C2       CG1N1    0.360000       12.0110           0
      8600 WT3      1242     MECN     N3       NG1T1   -0.460000       14.0070           0
      8601 WT3      1245     MECN     C1       CG331   -0.170000       12.0110           0
      8602 WT3      1245     MECN     H11      HGA3     0.090000        1.0080           0
      8603 WT3      1245     MECN     H12      HGA3     0.090000        1.0080           0
      8604 WT3      1245     MECN     H13      HGA3     0.090000        1.0080           0
      8605 WT3      1245     MECN     C2       CG1N1    0.360000       12.0110           0
      8606 WT3      1245     MECN     N3       NG1T1   -0.460000       14.0070           0
      8607 WT3      1246     MECN     C1       CG331   -0.170000       12.0110           0
      8608 WT3      1246     MECN     H11      HGA3     0.090000        1.0080           0
      8609 WT3      1246     MECN     H12      HGA3     0.090000        1.0080           0
      8610 WT3      1246     MECN     H13      HGA3     0.090000        1.0080           0
      8611 WT3      1246     MECN     C2       CG1N1    0.360000       12.0110           0
      8612 WT3      1246     MECN     N3       NG1T1   -0.460000       14.0070           0
      8613 WT3      1266     MECN     C1       CG331   -0.170000       12.0110           0
      8614 WT3      1266     MECN     H11      HGA3     0.090000        1.0080           0
      8615 WT3      1266     MECN     H12      HGA3     0.090000        1.0080           0
      8616 WT3      1266     MECN     H13      HGA3     0.090000        1.0080           0
      8617 WT3      1266     MECN     C2       CG1N1    0.360000       12.0110           0
      8618 WT3      1266     MECN     N3       NG1T1   -0.460000       14.0070           0
      8619 WT3      1275     MECN     C1       CG331   -0.170000       12.0110           0
      8620 WT3      1275     MECN     H11      HGA3     0.090000        1.0080           0
      8621 WT3      1275     MECN     H12      HGA3     0.090000        1.0080           0
      8622 WT3      1275     MECN     H13      HGA3     0.090000        1.0080           0
      8623 WT3      1275     MECN     C2       CG1N1    0.360000       12.0110           0
      8624 WT3      1275     MECN     N3       NG1T1   -0.460000       14.0070           0
      8625 WT3      1278     MECN     C1       CG331   -0.170000       12.0110           0
      8626 WT3      1278     MECN     H11      HGA3     0.090000        1.0080           0
      8627 WT3      1278     MECN     H12      HGA3     0.090000        1.0080           0
      8628 WT3      1278     MECN     H13      HGA3     0.090000        1.0080           0
      8629 WT3      1278     MECN     C2       CG1N1    0.360000       12.0110           0
      8630 WT3      1278     MECN     N3       NG1T1   -0.460000       14.0070           0
      8631 WT3      1279     MECN     C1       CG331   -0.170000       12.0110           0
      8632 WT3      1279     MECN     H11      HGA3     0.090000        1.0080           0
      8633 WT3      1279     MECN     H12      HGA3     0.090000        1.0080           0
      8634 WT3      1279     MECN     H13      HGA3     0.090000        1.0080           0
      8635 WT3      1279     MECN     C2       CG1N1    0.360000       12.0110           0
      8636 WT3      1279     MECN     N3       NG1T1   -0.460000       14.0070           0
      8637 WT3      1282     MECN     C1       CG331   -0.170000       12.0110           0
      8638 WT3      1282     MECN     H11      HGA3     0.090000        1.0080           0
      8639 WT3      1282     MECN     H12      HGA3     0.090000        1.0080           0
      8640 WT3      1282     MECN     H13      HGA3     0.090000        1.0080           0
      8641 WT3      1282     MECN     C2       CG1N1    0.360000       12.0110           0
      8642 WT3      1282     MECN     N3       NG1T1   -0.460000       14.0070           0
      8643 WT3      1285     MECN     C1       CG331   -0.170000       12.0110           0
      8644 WT3      1285     MECN     H11      HGA3     0.090000        1.0080           0
      8645 WT3      1285     MECN     H12      HGA3     0.090000        1.0080           0
      8646 WT3      1285     MECN     H13      HGA3     0.090000        1.0080           0
      8647 WT3      1285     MECN     C2       CG1N1    0.360000       12.0110           0
      8648 WT3      1285     MECN     N3       NG1T1   -0.460000       14.0070           0
      8649 WT3      1296     MECN     C1       CG331   -0.170000       12.0110           0
      8650 WT3      1296     MECN     H11      HGA3     0.090000        1.0080           0
      8651 WT3      1296     MECN     H12      HGA3     0.090000        1.0080           0
      8652 WT3      1296     MECN     H13      HGA3     0.090000        1.0080           0
      8653 WT3      1296     MECN     C2       CG1N1    0.360000       12.0110           0
      8654 WT3      1296     MECN     N3       NG1T1   -0.460000       14.0070           0
      8655 WT3      1312     MECN     C1       CG331   -0.170000       12.0110           0
      8656 WT3      1312     MECN     H11      HGA3     0.090000        1.0080           0
      8657 WT3      1312     MECN     H12      HGA3     0.090000        1.0080           0
      8658 WT3      1312     MECN     H13      HGA3     0.090000        1.0080           0
      8659 WT3      1312     MECN     C2       CG1N1    0.360000       12.0110           0
      8660 WT3      1312     MECN     N3       NG1T1   -0.460000       14.0070           0
      8661 WT3      1320     MECN     C1       CG331   -0.170000       12.0110           0
      8662 WT3      1320     MECN     H11      HGA3     0.090000        1.0080           0
      8663 WT3      1320     MECN     H12      HGA3     0.090000        1.0080           0
      8664 WT3      1320     MECN     H13      HGA3     0.090000        1.0080           0
      8665 WT3      1320     MECN     C2       CG1N1    0.360000       12.0110           0
      8666 WT3      1320     MECN     N3       NG1T1   -0.460000       14.0070           0
      8667 WT3      1321     MECN     C1       CG331   -0.170000       12.0110           0
      8668 WT3      1321     MECN     H11      HGA3     0.090000        1.0080           0
      8669 WT3      1321     MECN     H12      HGA3     0.090000        1.0080           0
      8670 WT3      1321     MECN     H13      HGA3     0.090000        1.0080           0
      8671 WT3      1321     MECN     C2       CG1N1    0.360000       12.0110           0
      8672 WT3      1321     MECN     N3       NG1T1   -0.460000       14.0070           0
      8673 WT3      1322     MECN     C1       CG331   -0.170000       12.0110           0
      8674 WT3      1322     MECN     H11      HGA3     0.090000        1.0080           0
      8675 WT3      1322     MECN     H12      HGA3     0.090000        1.0080           0
      8676 WT3      1322     MECN     H13      HGA3     0.090000        1.0080           0
      8677 WT3      1322     MECN     C2       CG1N1    0.360000       12.0110           0
      8678 WT3      1322     MECN     N3       NG1T1   -0.460000       14.0070           0
      8679 WT3      1323     MECN     C1       CG331   -0.170000       12.0110           0
      8680 WT3      1323     MECN     H11      HGA3     0.090000        1.0080           0
      8681 WT3      1323     MECN     H12      HGA3     0.090000        1.0080           0
      8682 WT3      1323     MECN     H13      HGA3     0.090000        1.0080           0
      8683 WT3      1323     MECN     C2       CG1N1    0.360000       12.0110           0
      8684 WT3      1323     MECN     N3       NG1T1   -0.460000       14.0070           0
      8685 WT3      1330     MECN     C1       CG331   -0.170000       12.0110           0
      8686 WT3      1330     MECN     H11      HGA3     0.090000        1.0080           0
      8687 WT3      1330     MECN     H12      HGA3     0.090000        1.0080           0
      8688 WT3      1330     MECN     H13      HGA3     0.090000        1.0080           0
      8689 WT3      1330     MECN     C2       CG1N1    0.360000       12.0110           0
      8690 WT3      1330     MECN     N3       NG1T1   -0.460000       14.0070           0
      8691 WT4      1        MECN     C1       CG331   -0.170000       12.0110           0
      8692 WT4      1        MECN     H11      HGA3     0.090000        1.0080           0
      8693 WT4      1        MECN     H12      HGA3     0.090000        1.0080           0
      8694 WT4      1        MECN     H13      HGA3     0.090000        1.0080           0
      8695 WT4      1        MECN     C2       CG1N1    0.360000       12.0110           0
      8696 WT4      1        MECN     N3       NG1T1   -0.460000       14.0070           0
      8697 WT4      4        MECN     C1       CG331   -0.170000       12.0110           0
      8698 WT4      4        MECN     H11      HGA3     0.090000        1.0080           0
      8699 WT4      4        MECN     H12      HGA3     0.090000        1.0080           0
      8700 WT4      4        MECN     H13      HGA3     0.090000        1.0080           0
      8701 WT4      4        MECN     C2       CG1N1    0.360000       12.0110           0
      8702 WT4      4        MECN     N3       NG1T1   -0.460000       14.0070           0
      8703 WT4      9        MECN     C1       CG331   -0.170000       12.0110           0
      8704 WT4      9        MECN     H11      HGA3     0.090000        1.0080           0
      8705 WT4      9        MECN     H12      HGA3     0.090000        1.0080           0
      8706 WT4      9        MECN     H13      HGA3     0.090000        1.0080           0
      8707 WT4      9        MECN     C2       CG1N1    0.360000       12.0110           0
      8708 WT4      9        MECN     N3       NG1T1   -0.460000       14.0070           0
      8709 WT4      16       MECN     C1       CG331   -0.170000       12.0110           0
      8710 WT4      16       MECN     H11      HGA3     0.090000        1.0080           0
      8711 WT4      16       MECN     H12      HGA3     0.090000        1.0080           0
      8712 WT4      16       MECN     H13      HGA3     0.090000        1.0080           0
      8713 WT4      16       MECN     C2       CG1N1    0.360000       12.0110           0
      8714 WT4      16       MECN     N3       NG1T1   -0.460000       14.0070           0
      8715 WT4      17       MECN     C1       CG331   -0.170000       12.0110           0
      8716 WT4      17       MECN     H11      HGA3     0.090000        1.0080           0
      8717 WT4      17       MECN     H12      HGA3     0.090000        1.0080           0
      8718 WT4      17       MECN     H13      HGA3     0.090000        1.0080           0
      8719 WT4      17       MECN     C2       CG1N1    0.360000       12.0110           0
      8720 WT4      17       MECN     N3       NG1T1   -0.460000       14.0070           0
      8721 WT4      31       MECN     C1       CG331   -0.170000       12.0110           0
      8722 WT4      31       MECN     H11      HGA3     0.090000        1.0080           0
      8723 WT4      31       MECN     H12      HGA3     0.090000        1.0080           0
      8724 WT4      31       MECN     H13      HGA3     0.090000        1.0080           0
      8725 WT4      31       MECN     C2       CG1N1    0.360000       12.0110           0
      8726 WT4      31       MECN     N3       NG1T1   -0.460000       14.0070           0
      8727 WT4      33       MECN     C1       CG331   -0.170000       12.0110           0
      8728 WT4      33       MECN     H11      HGA3     0.090000        1.0080           0
      8729 WT4      33       MECN     H12      HGA3     0.090000        1.0080           0
      8730 WT4      33       MECN     H13      HGA3     0.090000        1.0080           0
      8731 WT4      33       MECN     C2       CG1N1    0.360000       12.0110           0
      8732 WT4      33       MECN     N3       NG1T1   -0.460000       14.0070           0
      8733 WT4      34       MECN     C1       CG331   -0.170000       12.0110           0
      8734 WT4      34       MECN     H11      HGA3     0.090000        1.0080           0
      8735 WT4      34       MECN     H12      HGA3     0.090000        1.0080           0
      8736 WT4      34       MECN     H13      HGA3     0.090000        1.0080           0
      8737 WT4      34       MECN     C2       CG1N1    0.360000       12.0110           0
      8738 WT4      34       MECN     N3       NG1T1   -0.460000       14.0070           0
      8739 WT4      36       MECN     C1       CG331   -0.170000       12.0110           0
      8740 WT4      36       MECN     H11      HGA3     0.090000        1.0080           0
      8741 WT4      36       MECN     H12      HGA3     0.090000        1.0080           0
      8742 WT4      36       MECN     H13      HGA3     0.090000        1.0080           0
      8743 WT4      36       MECN     C2       CG1N1    0.360000       12.0110           0
      8744 WT4      36       MECN     N3       NG1T1   -0.460000       14.0070           0
      8745 WT4      37       MECN     C1       CG331   -0.170000       12.0110           0
      8746 WT4      37       MECN     H11      HGA3     0.090000        1.0080           0
      8747 WT4      37       MECN     H12      HGA3     0.090000        1.0080           0
      8748 WT4      37       MECN     H13      HGA3     0.090000        1.0080           0
      8749 WT4      37       MECN     C2       CG1N1    0.360000       12.0110           0
      8750 WT4      37       MECN     N3       NG1T1   -0.460000       14.0070           0
      8751 WT4      42       MECN     C1       CG331   -0.170000       12.0110           0
      8752 WT4      42       MECN     H11      HGA3     0.090000        1.0080           0
      8753 WT4      42       MECN     H12      HGA3     0.090000        1.0080           0
      8754 WT4      42       MECN     H13      HGA3     0.090000        1.0080           0
      8755 WT4      42       MECN     C2       CG1N1    0.360000       12.0110           0
      8756 WT4      42       MECN     N3       NG1T1   -0.460000       14.0070           0
      8757 WT4      46       MECN     C1       CG331   -0.170000       12.0110           0
      8758 WT4      46       MECN     H11      HGA3     0.090000        1.0080           0
      8759 WT4      46       MECN     H12      HGA3     0.090000        1.0080           0
      8760 WT4      46       MECN     H13      HGA3     0.090000        1.0080           0
      8761 WT4      46       MECN     C2       CG1N1    0.360000       12.0110           0
      8762 WT4      46       MECN     N3       NG1T1   -0.460000       14.0070           0
      8763 WT4      50       MECN     C1       CG331   -0.170000       12.0110           0
      8764 WT4      50       MECN     H11      HGA3     0.090000        1.0080           0
      8765 WT4      50       MECN     H12      HGA3     0.090000        1.0080           0
      8766 WT4      50       MECN     H13      HGA3     0.090000        1.0080           0
      8767 WT4      50       MECN     C2       CG1N1    0.360000       12.0110           0
      8768 WT4      50       MECN     N3       NG1T1   -0.460000       14.0070           0
      8769 WT4      54       MECN     C1       CG331   -0.170000       12.0110           0
      8770 WT4      54       MECN     H11      HGA3     0.090000        1.0080           0
      8771 WT4      54       MECN     H12      HGA3     0.090000        1.0080           0
      8772 WT4      54       MECN     H13      HGA3     0.090000        1.0080           0
      8773 WT4      54       MECN     C2       CG1N1    0.360000       12.0110           0
      8774 WT4      54       MECN     N3       NG1T1   -0.460000       14.0070           0
      8775 WT4      58       MECN     C1       CG331   -0.170000       12.0110           0
      8776 WT4      58       MECN     H11      HGA3     0.090000        1.0080           0
      8777 WT4      58       MECN     H12      HGA3     0.090000        1.0080           0
      8778 WT4      58       MECN     H13      HGA3     0.090000        1.0080           0
      8779 WT4      58       MECN     C2       CG1N1    0.360000       12.0110           0
      8780 WT4      58       MECN     N3       NG1T1   -0.460000       14.0070           0
      8781 WT4      71       MECN     C1       CG331   -0.170000       12.0110           0
      8782 WT4      71       MECN     H11      HGA3     0.090000        1.0080           0
      8783 WT4      71       MECN     H12      HGA3     0.090000        1.0080           0
      8784 WT4      71       MECN     H13      HGA3     0.090000        1.0080           0
      8785 WT4      71       MECN     C2       CG1N1    0.360000       12.0110           0
      8786 WT4      71       MECN     N3       NG1T1   -0.460000       14.0070           0
      8787 WT4      73       MECN     C1       CG331   -0.170000       12.0110           0
      8788 WT4      73       MECN     H11      HGA3     0.090000        1.0080           0
      8789 WT4      73       MECN     H12      HGA3     0.090000        1.0080           0
      8790 WT4      73       MECN     H13      HGA3     0.090000        1.0080           0
      8791 WT4      73       MECN     C2       CG1N1    0.360000       12.0110           0
      8792 WT4      73       MECN     N3       NG1T1   -0.460000       14.0070           0
      8793 WT4      76       MECN     C1       CG331   -0.170000       12.0110           0
      8794 WT4      76       MECN     H11      HGA3     0.090000        1.0080           0
      8795 WT4      76       MECN     H12      HGA3     0.090000        1.0080           0
      8796 WT4      76       MECN     H13      HGA3     0.090000        1.0080           0
      8797 WT4      76       MECN     C2       CG1N1    0.360000       12.0110           0
      8798 WT4      76       MECN     N3       NG1T1   -0.460000       14.0070           0
      8799 WT4      79       MECN     C1       CG331   -0.170000       12.0110           0
      8800 WT4      79       MECN     H11      HGA3     0.090000        1.0080           0
      8801 WT4      79       MECN     H12      HGA3     0.090000        1.0080           0
      8802 WT4      79       MECN     H13      HGA3     0.090000        1.0080           0
      8803 WT4      79       MECN     C2       CG1N1    0.360000       12.0110           0
      8804 WT4      79       MECN     N3       NG1T1   -0.460000       14.0070           0
      8805 WT4      81       MECN     C1       CG331   -0.170000       12.0110           0
      8806 WT4      81       MECN     H11      HGA3     0.090000        1.0080           0
      8807 WT4      81       MECN     H12      HGA3     0.090000        1.0080           0
      8808 WT4      81       MECN     H13      HGA3     0.090000        1.0080           0
      8809 WT4      81       MECN     C2       CG1N1    0.360000       12.0110           0
      8810 WT4      81       MECN     N3       NG1T1   -0.460000       14.0070           0
      8811 WT4      84       MECN     C1       CG331   -0.170000       12.0110           0
      8812 WT4      84       MECN     H11      HGA3     0.090000        1.0080           0
      8813 WT4      84       MECN     H12      HGA3     0.090000        1.0080           0
      8814 WT4      84       MECN     H13      HGA3     0.090000        1.0080           0
      8815 WT4      84       MECN     C2       CG1N1    0.360000       12.0110           0
      8816 WT4      84       MECN     N3       NG1T1   -0.460000       14.0070           0
      8817 WT4      86       MECN     C1       CG331   -0.170000       12.0110           0
      8818 WT4      86       MECN     H11      HGA3     0.090000        1.0080           0
      8819 WT4      86       MECN     H12      HGA3     0.090000        1.0080           0
      8820 WT4      86       MECN     H13      HGA3     0.090000        1.0080           0
      8821 WT4      86       MECN     C2       CG1N1    0.360000       12.0110           0
      8822 WT4      86       MECN     N3       NG1T1   -0.460000       14.0070           0
      8823 WT4      91       MECN     C1       CG331   -0.170000       12.0110           0
      8824 WT4      91       MECN     H11      HGA3     0.090000        1.0080           0
      8825 WT4      91       MECN     H12      HGA3     0.090000        1.0080           0
      8826 WT4      91       MECN     H13      HGA3     0.090000        1.0080           0
      8827 WT4      91       MECN     C2       CG1N1    0.360000       12.0110           0
      8828 WT4      91       MECN     N3       NG1T1   -0.460000       14.0070           0
      8829 WT4      94       MECN     C1       CG331   -0.170000       12.0110           0
      8830 WT4      94       MECN     H11      HGA3     0.090000        1.0080           0
      8831 WT4      94       MECN     H12      HGA3     0.090000        1.0080           0
      8832 WT4      94       MECN     H13      HGA3     0.090000        1.0080           0
      8833 WT4      94       MECN     C2       CG1N1    0.360000       12.0110           0
      8834 WT4      94       MECN     N3       NG1T1   -0.460000       14.0070           0
      8835 WT4      101      MECN     C1       CG331   -0.170000       12.0110           0
      8836 WT4      101      MECN     H11      HGA3     0.090000        1.0080           0
      8837 WT4      101      MECN     H12      HGA3     0.090000        1.0080           0
      8838 WT4      101      MECN     H13      HGA3     0.090000        1.0080           0
      8839 WT4      101      MECN     C2       CG1N1    0.360000       12.0110           0
      8840 WT4      101      MECN     N3       NG1T1   -0.460000       14.0070           0
      8841 WT4      102      MECN     C1       CG331   -0.170000       12.0110           0
      8842 WT4      102      MECN     H11      HGA3     0.090000        1.0080           0
      8843 WT4      102      MECN     H12      HGA3     0.090000        1.0080           0
      8844 WT4      102      MECN     H13      HGA3     0.090000        1.0080           0
      8845 WT4      102      MECN     C2       CG1N1    0.360000       12.0110           0
      8846 WT4      102      MECN     N3       NG1T1   -0.460000       14.0070           0
      8847 WT4      105      MECN     C1       CG331   -0.170000       12.0110           0
      8848 WT4      105      MECN     H11      HGA3     0.090000        1.0080           0
      8849 WT4      105      MECN     H12      HGA3     0.090000        1.0080           0
      8850 WT4      105      MECN     H13      HGA3     0.090000        1.0080           0
      8851 WT4      105      MECN     C2       CG1N1    0.360000       12.0110           0
      8852 WT4      105      MECN     N3       NG1T1   -0.460000       14.0070           0
      8853 WT4      112      MECN     C1       CG331   -0.170000       12.0110           0
      8854 WT4      112      MECN     H11      HGA3     0.090000        1.0080           0
      8855 WT4      112      MECN     H12      HGA3     0.090000        1.0080           0
      8856 WT4      112      MECN     H13      HGA3     0.090000        1.0080           0
      8857 WT4      112      MECN     C2       CG1N1    0.360000       12.0110           0
      8858 WT4      112      MECN     N3       NG1T1   -0.460000       14.0070           0
      8859 WT4      138      MECN     C1       CG331   -0.170000       12.0110           0
      8860 WT4      138      MECN     H11      HGA3     0.090000        1.0080           0
      8861 WT4      138      MECN     H12      HGA3     0.090000        1.0080           0
      8862 WT4      138      MECN     H13      HGA3     0.090000        1.0080           0
      8863 WT4      138      MECN     C2       CG1N1    0.360000       12.0110           0
      8864 WT4      138      MECN     N3       NG1T1   -0.460000       14.0070           0
      8865 WT4      149      MECN     C1       CG331   -0.170000       12.0110           0
      8866 WT4      149      MECN     H11      HGA3     0.090000        1.0080           0
      8867 WT4      149      MECN     H12      HGA3     0.090000        1.0080           0
      8868 WT4      149      MECN     H13      HGA3     0.090000        1.0080           0
      8869 WT4      149      MECN     C2       CG1N1    0.360000       12.0110           0
      8870 WT4      149      MECN     N3       NG1T1   -0.460000       14.0070           0
      8871 WT4      158      MECN     C1       CG331   -0.170000       12.0110           0
      8872 WT4      158      MECN     H11      HGA3     0.090000        1.0080           0
      8873 WT4      158      MECN     H12      HGA3     0.090000        1.0080           0
      8874 WT4      158      MECN     H13      HGA3     0.090000        1.0080           0
      8875 WT4      158      MECN     C2       CG1N1    0.360000       12.0110           0
      8876 WT4      158      MECN     N3       NG1T1   -0.460000       14.0070           0
      8877 WT4      161      MECN     C1       CG331   -0.170000       12.0110           0
      8878 WT4      161      MECN     H11      HGA3     0.090000        1.0080           0
      8879 WT4      161      MECN     H12      HGA3     0.090000        1.0080           0
      8880 WT4      161      MECN     H13      HGA3     0.090000        1.0080           0
      8881 WT4      161      MECN     C2       CG1N1    0.360000       12.0110           0
      8882 WT4      161      MECN     N3       NG1T1   -0.460000       14.0070           0
      8883 WT4      171      MECN     C1       CG331   -0.170000       12.0110           0
      8884 WT4      171      MECN     H11      HGA3     0.090000        1.0080           0
      8885 WT4      171      MECN     H12      HGA3     0.090000        1.0080           0
      8886 WT4      171      MECN     H13      HGA3     0.090000        1.0080           0
      8887 WT4      171      MECN     C2       CG1N1    0.360000       12.0110           0
      8888 WT4      171      MECN     N3       NG1T1   -0.460000       14.0070           0
      8889 WT4      176      MECN     C1       CG331   -0.170000       12.0110           0
      8890 WT4      176      MECN     H11      HGA3     0.090000        1.0080           0
      8891 WT4      176      MECN     H12      HGA3     0.090000        1.0080           0
      8892 WT4      176      MECN     H13      HGA3     0.090000        1.0080           0
      8893 WT4      176      MECN     C2       CG1N1    0.360000       12.0110           0
      8894 WT4      176      MECN     N3       NG1T1   -0.460000       14.0070           0
      8895 WT4      177      MECN     C1       CG331   -0.170000       12.0110           0
      8896 WT4      177      MECN     H11      HGA3     0.090000        1.0080           0
      8897 WT4      177      MECN     H12      HGA3     0.090000        1.0080           0
      8898 WT4      177      MECN     H13      HGA3     0.090000        1.0080           0
      8899 WT4      177      MECN     C2       CG1N1    0.360000       12.0110           0
      8900 WT4      177      MECN     N3       NG1T1   -0.460000       14.0070           0
      8901 WT4      183      MECN     C1       CG331   -0.170000       12.0110           0
      8902 WT4      183      MECN     H11      HGA3     0.090000        1.0080           0
      8903 WT4      183      MECN     H12      HGA3     0.090000        1.0080           0
      8904 WT4      183      MECN     H13      HGA3     0.090000        1.0080           0
      8905 WT4      183      MECN     C2       CG1N1    0.360000       12.0110           0
      8906 WT4      183      MECN     N3       NG1T1   -0.460000       14.0070           0
      8907 WT4      185      MECN     C1       CG331   -0.170000       12.0110           0
      8908 WT4      185      MECN     H11      HGA3     0.090000        1.0080           0
      8909 WT4      185      MECN     H12      HGA3     0.090000        1.0080           0
      8910 WT4      185      MECN     H13      HGA3     0.090000        1.0080           0
      8911 WT4      185      MECN     C2       CG1N1    0.360000       12.0110           0
      8912 WT4      185      MECN     N3       NG1T1   -0.460000       14.0070           0
      8913 WT4      193      MECN     C1       CG331   -0.170000       12.0110           0
      8914 WT4      193      MECN     H11      HGA3     0.090000        1.0080           0
      8915 WT4      193      MECN     H12      HGA3     0.090000        1.0080           0
      8916 WT4      193      MECN     H13      HGA3     0.090000        1.0080           0
      8917 WT4      193      MECN     C2       CG1N1    0.360000       12.0110           0
      8918 WT4      193      MECN     N3       NG1T1   -0.460000       14.0070           0
      8919 WT4      195      MECN     C1       CG331   -0.170000       12.0110           0
      8920 WT4      195      MECN     H11      HGA3     0.090000        1.0080           0
      8921 WT4      195      MECN     H12      HGA3     0.090000        1.0080           0
      8922 WT4      195      MECN     H13      HGA3     0.090000        1.0080           0
      8923 WT4      195      MECN     C2       CG1N1    0.360000       12.0110           0
      8924 WT4      195      MECN     N3       NG1T1   -0.460000       14.0070           0
      8925 WT4      197      MECN     C1       CG331   -0.170000       12.0110           0
      8926 WT4      197      MECN     H11      HGA3     0.090000        1.0080           0
      8927 WT4      197      MECN     H12      HGA3     0.090000        1.0080           0
      8928 WT4      197      MECN     H13      HGA3     0.090000        1.0080           0
      8929 WT4      197      MECN     C2       CG1N1    0.360000       12.0110           0
      8930 WT4      197      MECN     N3       NG1T1   -0.460000       14.0070           0
      8931 WT4      200      MECN     C1       CG331   -0.170000       12.0110           0
      8932 WT4      200      MECN     H11      HGA3     0.090000        1.0080           0
      8933 WT4      200      MECN     H12      HGA3     0.090000        1.0080           0
      8934 WT4      200      MECN     H13      HGA3     0.090000        1.0080           0
      8935 WT4      200      MECN     C2       CG1N1    0.360000       12.0110           0
      8936 WT4      200      MECN     N3       NG1T1   -0.460000       14.0070           0
      8937 WT4      209      MECN     C1       CG331   -0.170000       12.0110           0
      8938 WT4      209      MECN     H11      HGA3     0.090000        1.0080           0
      8939 WT4      209      MECN     H12      HGA3     0.090000        1.0080           0
      8940 WT4      209      MECN     H13      HGA3     0.090000        1.0080           0
      8941 WT4      209      MECN     C2       CG1N1    0.360000       12.0110           0
      8942 WT4      209      MECN     N3       NG1T1   -0.460000       14.0070           0
      8943 WT4      210      MECN     C1       CG331   -0.170000       12.0110           0
      8944 WT4      210      MECN     H11      HGA3     0.090000        1.0080           0
      8945 WT4      210      MECN     H12      HGA3     0.090000        1.0080           0
      8946 WT4      210      MECN     H13      HGA3     0.090000        1.0080           0
      8947 WT4      210      MECN     C2       CG1N1    0.360000       12.0110           0
      8948 WT4      210      MECN     N3       NG1T1   -0.460000       14.0070           0
      8949 WT4      211      MECN     C1       CG331   -0.170000       12.0110           0
      8950 WT4      211      MECN     H11      HGA3     0.090000        1.0080           0
      8951 WT4      211      MECN     H12      HGA3     0.090000        1.0080           0
      8952 WT4      211      MECN     H13      HGA3     0.090000        1.0080           0
      8953 WT4      211      MECN     C2       CG1N1    0.360000       12.0110           0
      8954 WT4      211      MECN     N3       NG1T1   -0.460000       14.0070           0
      8955 WT4      213      MECN     C1       CG331   -0.170000       12.0110           0
      8956 WT4      213      MECN     H11      HGA3     0.090000        1.0080           0
      8957 WT4      213      MECN     H12      HGA3     0.090000        1.0080           0
      8958 WT4      213      MECN     H13      HGA3     0.090000        1.0080           0
      8959 WT4      213      MECN     C2       CG1N1    0.360000       12.0110           0
      8960 WT4      213      MECN     N3       NG1T1   -0.460000       14.0070           0
      8961 WT4      215      MECN     C1       CG331   -0.170000       12.0110           0
      8962 WT4      215      MECN     H11      HGA3     0.090000        1.0080           0
      8963 WT4      215      MECN     H12      HGA3     0.090000        1.0080           0
      8964 WT4      215      MECN     H13      HGA3     0.090000        1.0080           0
      8965 WT4      215      MECN     C2       CG1N1    0.360000       12.0110           0
      8966 WT4      215      MECN     N3       NG1T1   -0.460000       14.0070           0
      8967 WT4      216      MECN     C1       CG331   -0.170000       12.0110           0
      8968 WT4      216      MECN     H11      HGA3     0.090000        1.0080           0
      8969 WT4      216      MECN     H12      HGA3     0.090000        1.0080           0
      8970 WT4      216      MECN     H13      HGA3     0.090000        1.0080           0
      8971 WT4      216      MECN     C2       CG1N1    0.360000       12.0110           0
      8972 WT4      216      MECN     N3       NG1T1   -0.460000       14.0070           0
      8973 WT4      225      MECN     C1       CG331   -0.170000       12.0110           0
      8974 WT4      225      MECN     H11      HGA3     0.090000        1.0080           0
      8975 WT4      225      MECN     H12      HGA3     0.090000        1.0080           0
      8976 WT4      225      MECN     H13      HGA3     0.090000        1.0080           0
      8977 WT4      225      MECN     C2       CG1N1    0.360000       12.0110           0
      8978 WT4      225      MECN     N3       NG1T1   -0.460000       14.0070           0
      8979 WT4      228      MECN     C1       CG331   -0.170000       12.0110           0
      8980 WT4      228      MECN     H11      HGA3     0.090000        1.0080           0
      8981 WT4      228      MECN     H12      HGA3     0.090000        1.0080           0
      8982 WT4      228      MECN     H13      HGA3     0.090000        1.0080           0
      8983 WT4      228      MECN     C2       CG1N1    0.360000       12.0110           0
      8984 WT4      228      MECN     N3       NG1T1   -0.460000       14.0070           0
      8985 WT4      245      MECN     C1       CG331   -0.170000       12.0110           0
      8986 WT4      245      MECN     H11      HGA3     0.090000        1.0080           0
      8987 WT4      245      MECN     H12      HGA3     0.090000        1.0080           0
      8988 WT4      245      MECN     H13      HGA3     0.090000        1.0080           0
      8989 WT4      245      MECN     C2       CG1N1    0.360000       12.0110           0
      8990 WT4      245      MECN     N3       NG1T1   -0.460000       14.0070           0
      8991 WT4      255      MECN     C1       CG331   -0.170000       12.0110           0
      8992 WT4      255      MECN     H11      HGA3     0.090000        1.0080           0
      8993 WT4      255      MECN     H12      HGA3     0.090000        1.0080           0
      8994 WT4      255      MECN     H13      HGA3     0.090000        1.0080           0
      8995 WT4      255      MECN     C2       CG1N1    0.360000       12.0110           0
      8996 WT4      255      MECN     N3       NG1T1   -0.460000       14.0070           0
      8997 WT4      256      MECN     C1       CG331   -0.170000       12.0110           0
      8998 WT4      256      MECN     H11      HGA3     0.090000        1.0080           0
      8999 WT4      256      MECN     H12      HGA3     0.090000        1.0080           0
      9000 WT4      256      MECN     H13      HGA3     0.090000        1.0080           0
      9001 WT4      256      MECN     C2       CG1N1    0.360000       12.0110           0
      9002 WT4      256      MECN     N3       NG1T1   -0.460000       14.0070           0
      9003 WT4      257      MECN     C1       CG331   -0.170000       12.0110           0
      9004 WT4      257      MECN     H11      HGA3     0.090000        1.0080           0
      9005 WT4      257      MECN     H12      HGA3     0.090000        1.0080           0
      9006 WT4      257      MECN     H13      HGA3     0.090000        1.0080           0
      9007 WT4      257      MECN     C2       CG1N1    0.360000       12.0110           0
      9008 WT4      257      MECN     N3       NG1T1   -0.460000       14.0070           0
      9009 WT4      259      MECN     C1       CG331   -0.170000       12.0110           0
      9010 WT4      259      MECN     H11      HGA3     0.090000        1.0080           0
      9011 WT4      259      MECN     H12      HGA3     0.090000        1.0080           0
      9012 WT4      259      MECN     H13      HGA3     0.090000        1.0080           0
      9013 WT4      259      MECN     C2       CG1N1    0.360000       12.0110           0
      9014 WT4      259      MECN     N3       NG1T1   -0.460000       14.0070           0
      9015 WT4      260      MECN     C1       CG331   -0.170000       12.0110           0
      9016 WT4      260      MECN     H11      HGA3     0.090000        1.0080           0
      9017 WT4      260      MECN     H12      HGA3     0.090000        1.0080           0
      9018 WT4      260      MECN     H13      HGA3     0.090000        1.0080           0
      9019 WT4      260      MECN     C2       CG1N1    0.360000       12.0110           0
      9020 WT4      260      MECN     N3       NG1T1   -0.460000       14.0070           0
      9021 WT4      270      MECN     C1       CG331   -0.170000       12.0110           0
      9022 WT4      270      MECN     H11      HGA3     0.090000        1.0080           0
      9023 WT4      270      MECN     H12      HGA3     0.090000        1.0080           0
      9024 WT4      270      MECN     H13      HGA3     0.090000        1.0080           0
      9025 WT4      270      MECN     C2       CG1N1    0.360000       12.0110           0
      9026 WT4      270      MECN     N3       NG1T1   -0.460000       14.0070           0
      9027 WT4      273      MECN     C1       CG331   -0.170000       12.0110           0
      9028 WT4      273      MECN     H11      HGA3     0.090000        1.0080           0
      9029 WT4      273      MECN     H12      HGA3     0.090000        1.0080           0
      9030 WT4      273      MECN     H13      HGA3     0.090000        1.0080           0
      9031 WT4      273      MECN     C2       CG1N1    0.360000       12.0110           0
      9032 WT4      273      MECN     N3       NG1T1   -0.460000       14.0070           0
      9033 WT4      282      MECN     C1       CG331   -0.170000       12.0110           0
      9034 WT4      282      MECN     H11      HGA3     0.090000        1.0080           0
      9035 WT4      282      MECN     H12      HGA3     0.090000        1.0080           0
      9036 WT4      282      MECN     H13      HGA3     0.090000        1.0080           0
      9037 WT4      282      MECN     C2       CG1N1    0.360000       12.0110           0
      9038 WT4      282      MECN     N3       NG1T1   -0.460000       14.0070           0
      9039 WT4      289      MECN     C1       CG331   -0.170000       12.0110           0
      9040 WT4      289      MECN     H11      HGA3     0.090000        1.0080           0
      9041 WT4      289      MECN     H12      HGA3     0.090000        1.0080           0
      9042 WT4      289      MECN     H13      HGA3     0.090000        1.0080           0
      9043 WT4      289      MECN     C2       CG1N1    0.360000       12.0110           0
      9044 WT4      289      MECN     N3       NG1T1   -0.460000       14.0070           0
      9045 WT4      292      MECN     C1       CG331   -0.170000       12.0110           0
      9046 WT4      292      MECN     H11      HGA3     0.090000        1.0080           0
      9047 WT4      292      MECN     H12      HGA3     0.090000        1.0080           0
      9048 WT4      292      MECN     H13      HGA3     0.090000        1.0080           0
      9049 WT4      292      MECN     C2       CG1N1    0.360000       12.0110           0
      9050 WT4      292      MECN     N3       NG1T1   -0.460000       14.0070           0
      9051 WT4      296      MECN     C1       CG331   -0.170000       12.0110           0
      9052 WT4      296      MECN     H11      HGA3     0.090000        1.0080           0
      9053 WT4      296      MECN     H12      HGA3     0.090000        1.0080           0
      9054 WT4      296      MECN     H13      HGA3     0.090000        1.0080           0
      9055 WT4      296      MECN     C2       CG1N1    0.360000       12.0110           0
      9056 WT4      296      MECN     N3       NG1T1   -0.460000       14.0070           0
      9057 WT4      298      MECN     C1       CG331   -0.170000       12.0110           0
      9058 WT4      298      MECN     H11      HGA3     0.090000        1.0080           0
      9059 WT4      298      MECN     H12      HGA3     0.090000        1.0080           0
      9060 WT4      298      MECN     H13      HGA3     0.090000        1.0080           0
      9061 WT4      298      MECN     C2       CG1N1    0.360000       12.0110           0
      9062 WT4      298      MECN     N3       NG1T1   -0.460000       14.0070           0
      9063 WT4      299      MECN     C1       CG331   -0.170000       12.0110           0
      9064 WT4      299      MECN     H11      HGA3     0.090000        1.0080           0
      9065 WT4      299      MECN     H12      HGA3     0.090000        1.0080           0
      9066 WT4      299      MECN     H13      HGA3     0.090000        1.0080           0
      9067 WT4      299      MECN     C2       CG1N1    0.360000       12.0110           0
      9068 WT4      299      MECN     N3       NG1T1   -0.460000       14.0070           0
      9069 WT4      302      MECN     C1       CG331   -0.170000       12.0110           0
      9070 WT4      302      MECN     H11      HGA3     0.090000        1.0080           0
      9071 WT4      302      MECN     H12      HGA3     0.090000        1.0080           0
      9072 WT4      302      MECN     H13      HGA3     0.090000        1.0080           0
      9073 WT4      302      MECN     C2       CG1N1    0.360000       12.0110           0
      9074 WT4      302      MECN     N3       NG1T1   -0.460000       14.0070           0
      9075 WT4      303      MECN     C1       CG331   -0.170000       12.0110           0
      9076 WT4      303      MECN     H11      HGA3     0.090000        1.0080           0
      9077 WT4      303      MECN     H12      HGA3     0.090000        1.0080           0
      9078 WT4      303      MECN     H13      HGA3     0.090000        1.0080           0
      9079 WT4      303      MECN     C2       CG1N1    0.360000       12.0110           0
      9080 WT4      303      MECN     N3       NG1T1   -0.460000       14.0070           0
      9081 WT4      310      MECN     C1       CG331   -0.170000       12.0110           0
      9082 WT4      310      MECN     H11      HGA3     0.090000        1.0080           0
      9083 WT4      310      MECN     H12      HGA3     0.090000        1.0080           0
      9084 WT4      310      MECN     H13      HGA3     0.090000        1.0080           0
      9085 WT4      310      MECN     C2       CG1N1    0.360000       12.0110           0
      9086 WT4      310      MECN     N3       NG1T1   -0.460000       14.0070           0
      9087 WT4      312      MECN     C1       CG331   -0.170000       12.0110           0
      9088 WT4      312      MECN     H11      HGA3     0.090000        1.0080           0
      9089 WT4      312      MECN     H12      HGA3     0.090000        1.0080           0
      9090 WT4      312      MECN     H13      HGA3     0.090000        1.0080           0
      9091 WT4      312      MECN     C2       CG1N1    0.360000       12.0110           0
      9092 WT4      312      MECN     N3       NG1T1   -0.460000       14.0070           0
      9093 WT4      313      MECN     C1       CG331   -0.170000       12.0110           0
      9094 WT4      313      MECN     H11      HGA3     0.090000        1.0080           0
      9095 WT4      313      MECN     H12      HGA3     0.090000        1.0080           0
      9096 WT4      313      MECN     H13      HGA3     0.090000        1.0080           0
      9097 WT4      313      MECN     C2       CG1N1    0.360000       12.0110           0
      9098 WT4      313      MECN     N3       NG1T1   -0.460000       14.0070           0
      9099 WT4      322      MECN     C1       CG331   -0.170000       12.0110           0
      9100 WT4      322      MECN     H11      HGA3     0.090000        1.0080           0
      9101 WT4      322      MECN     H12      HGA3     0.090000        1.0080           0
      9102 WT4      322      MECN     H13      HGA3     0.090000        1.0080           0
      9103 WT4      322      MECN     C2       CG1N1    0.360000       12.0110           0
      9104 WT4      322      MECN     N3       NG1T1   -0.460000       14.0070           0
      9105 WT4      323      MECN     C1       CG331   -0.170000       12.0110           0
      9106 WT4      323      MECN     H11      HGA3     0.090000        1.0080           0
      9107 WT4      323      MECN     H12      HGA3     0.090000        1.0080           0
      9108 WT4      323      MECN     H13      HGA3     0.090000        1.0080           0
      9109 WT4      323      MECN     C2       CG1N1    0.360000       12.0110           0
      9110 WT4      323      MECN     N3       NG1T1   -0.460000       14.0070           0
      9111 WT4      326      MECN     C1       CG331   -0.170000       12.0110           0
      9112 WT4      326      MECN     H11      HGA3     0.090000        1.0080           0
      9113 WT4      326      MECN     H12      HGA3     0.090000        1.0080           0
      9114 WT4      326      MECN     H13      HGA3     0.090000        1.0080           0
      9115 WT4      326      MECN     C2       CG1N1    0.360000       12.0110           0
      9116 WT4      326      MECN     N3       NG1T1   -0.460000       14.0070           0
      9117 WT4      338      MECN     C1       CG331   -0.170000       12.0110           0
      9118 WT4      338      MECN     H11      HGA3     0.090000        1.0080           0
      9119 WT4      338      MECN     H12      HGA3     0.090000        1.0080           0
      9120 WT4      338      MECN     H13      HGA3     0.090000        1.0080           0
      9121 WT4      338      MECN     C2       CG1N1    0.360000       12.0110           0
      9122 WT4      338      MECN     N3       NG1T1   -0.460000       14.0070           0
      9123 WT4      342      MECN     C1       CG331   -0.170000       12.0110           0
      9124 WT4      342      MECN     H11      HGA3     0.090000        1.0080           0
      9125 WT4      342      MECN     H12      HGA3     0.090000        1.0080           0
      9126 WT4      342      MECN     H13      HGA3     0.090000        1.0080           0
      9127 WT4      342      MECN     C2       CG1N1    0.360000       12.0110           0
      9128 WT4      342      MECN     N3       NG1T1   -0.460000       14.0070           0
      9129 WT4      348      MECN     C1       CG331   -0.170000       12.0110           0
      9130 WT4      348      MECN     H11      HGA3     0.090000        1.0080           0
      9131 WT4      348      MECN     H12      HGA3     0.090000        1.0080           0
      9132 WT4      348      MECN     H13      HGA3     0.090000        1.0080           0
      9133 WT4      348      MECN     C2       CG1N1    0.360000       12.0110           0
      9134 WT4      348      MECN     N3       NG1T1   -0.460000       14.0070           0
      9135 WT4      349      MECN     C1       CG331   -0.170000       12.0110           0
      9136 WT4      349      MECN     H11      HGA3     0.090000        1.0080           0
      9137 WT4      349      MECN     H12      HGA3     0.090000        1.0080           0
      9138 WT4      349      MECN     H13      HGA3     0.090000        1.0080           0
      9139 WT4      349      MECN     C2       CG1N1    0.360000       12.0110           0
      9140 WT4      349      MECN     N3       NG1T1   -0.460000       14.0070           0
      9141 WT4      356      MECN     C1       CG331   -0.170000       12.0110           0
      9142 WT4      356      MECN     H11      HGA3     0.090000        1.0080           0
      9143 WT4      356      MECN     H12      HGA3     0.090000        1.0080           0
      9144 WT4      356      MECN     H13      HGA3     0.090000        1.0080           0
      9145 WT4      356      MECN     C2       CG1N1    0.360000       12.0110           0
      9146 WT4      356      MECN     N3       NG1T1   -0.460000       14.0070           0
      9147 WT4      366      MECN     C1       CG331   -0.170000       12.0110           0
      9148 WT4      366      MECN     H11      HGA3     0.090000        1.0080           0
      9149 WT4      366      MECN     H12      HGA3     0.090000        1.0080           0
      9150 WT4      366      MECN     H13      HGA3     0.090000        1.0080           0
      9151 WT4      366      MECN     C2       CG1N1    0.360000       12.0110           0
      9152 WT4      366      MECN     N3       NG1T1   -0.460000       14.0070           0
      9153 WT4      371      MECN     C1       CG331   -0.170000       12.0110           0
      9154 WT4      371      MECN     H11      HGA3     0.090000        1.0080           0
      9155 WT4      371      MECN     H12      HGA3     0.090000        1.0080           0
      9156 WT4      371      MECN     H13      HGA3     0.090000        1.0080           0
      9157 WT4      371      MECN     C2       CG1N1    0.360000       12.0110           0
      9158 WT4      371      MECN     N3       NG1T1   -0.460000       14.0070           0
      9159 WT4      381      MECN     C1       CG331   -0.170000       12.0110           0
      9160 WT4      381      MECN     H11      HGA3     0.090000        1.0080           0
      9161 WT4      381      MECN     H12      HGA3     0.090000        1.0080           0
      9162 WT4      381      MECN     H13      HGA3     0.090000        1.0080           0
      9163 WT4      381      MECN     C2       CG1N1    0.360000       12.0110           0
      9164 WT4      381      MECN     N3       NG1T1   -0.460000       14.0070           0
      9165 WT4      388      MECN     C1       CG331   -0.170000       12.0110           0
      9166 WT4      388      MECN     H11      HGA3     0.090000        1.0080           0
      9167 WT4      388      MECN     H12      HGA3     0.090000        1.0080           0
      9168 WT4      388      MECN     H13      HGA3     0.090000        1.0080           0
      9169 WT4      388      MECN     C2       CG1N1    0.360000       12.0110           0
      9170 WT4      388      MECN     N3       NG1T1   -0.460000       14.0070           0
      9171 WT4      392      MECN     C1       CG331   -0.170000       12.0110           0
      9172 WT4      392      MECN     H11      HGA3     0.090000        1.0080           0
      9173 WT4      392      MECN     H12      HGA3     0.090000        1.0080           0
      9174 WT4      392      MECN     H13      HGA3     0.090000        1.0080           0
      9175 WT4      392      MECN     C2       CG1N1    0.360000       12.0110           0
      9176 WT4      392      MECN     N3       NG1T1   -0.460000       14.0070           0
      9177 WT4      401      MECN     C1       CG331   -0.170000       12.0110           0
      9178 WT4      401      MECN     H11      HGA3     0.090000        1.0080           0
      9179 WT4      401      MECN     H12      HGA3     0.090000        1.0080           0
      9180 WT4      401      MECN     H13      HGA3     0.090000        1.0080           0
      9181 WT4      401      MECN     C2       CG1N1    0.360000       12.0110           0
      9182 WT4      401      MECN     N3       NG1T1   -0.460000       14.0070           0
      9183 WT4      402      MECN     C1       CG331   -0.170000       12.0110           0
      9184 WT4      402      MECN     H11      HGA3     0.090000        1.0080           0
      9185 WT4      402      MECN     H12      HGA3     0.090000        1.0080           0
      9186 WT4      402      MECN     H13      HGA3     0.090000        1.0080           0
      9187 WT4      402      MECN     C2       CG1N1    0.360000       12.0110           0
      9188 WT4      402      MECN     N3       NG1T1   -0.460000       14.0070           0
      9189 WT4      404      MECN     C1       CG331   -0.170000       12.0110           0
      9190 WT4      404      MECN     H11      HGA3     0.090000        1.0080           0
      9191 WT4      404      MECN     H12      HGA3     0.090000        1.0080           0
      9192 WT4      404      MECN     H13      HGA3     0.090000        1.0080           0
      9193 WT4      404      MECN     C2       CG1N1    0.360000       12.0110           0
      9194 WT4      404      MECN     N3       NG1T1   -0.460000       14.0070           0
      9195 WT4      407      MECN     C1       CG331   -0.170000       12.0110           0
      9196 WT4      407      MECN     H11      HGA3     0.090000        1.0080           0
      9197 WT4      407      MECN     H12      HGA3     0.090000        1.0080           0
      9198 WT4      407      MECN     H13      HGA3     0.090000        1.0080           0
      9199 WT4      407      MECN     C2       CG1N1    0.360000       12.0110           0
      9200 WT4      407      MECN     N3       NG1T1   -0.460000       14.0070           0
      9201 WT4      408      MECN     C1       CG331   -0.170000       12.0110           0
      9202 WT4      408      MECN     H11      HGA3     0.090000        1.0080           0
      9203 WT4      408      MECN     H12      HGA3     0.090000        1.0080           0
      9204 WT4      408      MECN     H13      HGA3     0.090000        1.0080           0
      9205 WT4      408      MECN     C2       CG1N1    0.360000       12.0110           0
      9206 WT4      408      MECN     N3       NG1T1   -0.460000       14.0070           0
      9207 WT4      412      MECN     C1       CG331   -0.170000       12.0110           0
      9208 WT4      412      MECN     H11      HGA3     0.090000        1.0080           0
      9209 WT4      412      MECN     H12      HGA3     0.090000        1.0080           0
      9210 WT4      412      MECN     H13      HGA3     0.090000        1.0080           0
      9211 WT4      412      MECN     C2       CG1N1    0.360000       12.0110           0
      9212 WT4      412      MECN     N3       NG1T1   -0.460000       14.0070           0
      9213 WT4      415      MECN     C1       CG331   -0.170000       12.0110           0
      9214 WT4      415      MECN     H11      HGA3     0.090000        1.0080           0
      9215 WT4      415      MECN     H12      HGA3     0.090000        1.0080           0
      9216 WT4      415      MECN     H13      HGA3     0.090000        1.0080           0
      9217 WT4      415      MECN     C2       CG1N1    0.360000       12.0110           0
      9218 WT4      415      MECN     N3       NG1T1   -0.460000       14.0070           0
      9219 WT4      416      MECN     C1       CG331   -0.170000       12.0110           0
      9220 WT4      416      MECN     H11      HGA3     0.090000        1.0080           0
      9221 WT4      416      MECN     H12      HGA3     0.090000        1.0080           0
      9222 WT4      416      MECN     H13      HGA3     0.090000        1.0080           0
      9223 WT4      416      MECN     C2       CG1N1    0.360000       12.0110           0
      9224 WT4      416      MECN     N3       NG1T1   -0.460000       14.0070           0
      9225 WT4      430      MECN     C1       CG331   -0.170000       12.0110           0
      9226 WT4      430      MECN     H11      HGA3     0.090000        1.0080           0
      9227 WT4      430      MECN     H12      HGA3     0.090000        1.0080           0
      9228 WT4      430      MECN     H13      HGA3     0.090000        1.0080           0
      9229 WT4      430      MECN     C2       CG1N1    0.360000       12.0110           0
      9230 WT4      430      MECN     N3       NG1T1   -0.460000       14.0070           0
      9231 WT4      436      MECN     C1       CG331   -0.170000       12.0110           0
      9232 WT4      436      MECN     H11      HGA3     0.090000        1.0080           0
      9233 WT4      436      MECN     H12      HGA3     0.090000        1.0080           0
      9234 WT4      436      MECN     H13      HGA3     0.090000        1.0080           0
      9235 WT4      436      MECN     C2       CG1N1    0.360000       12.0110           0
      9236 WT4      436      MECN     N3       NG1T1   -0.460000       14.0070           0
      9237 WT4      439      MECN     C1       CG331   -0.170000       12.0110           0
      9238 WT4      439      MECN     H11      HGA3     0.090000        1.0080           0
      9239 WT4      439      MECN     H12      HGA3     0.090000        1.0080           0
      9240 WT4      439      MECN     H13      HGA3     0.090000        1.0080           0
      9241 WT4      439      MECN     C2       CG1N1    0.360000       12.0110           0
      9242 WT4      439      MECN     N3       NG1T1   -0.460000       14.0070           0
      9243 WT4      440      MECN     C1       CG331   -0.170000       12.0110           0
      9244 WT4      440      MECN     H11      HGA3     0.090000        1.0080           0
      9245 WT4      440      MECN     H12      HGA3     0.090000        1.0080           0
      9246 WT4      440      MECN     H13      HGA3     0.090000        1.0080           0
      9247 WT4      440      MECN     C2       CG1N1    0.360000       12.0110           0
      9248 WT4      440      MECN     N3       NG1T1   -0.460000       14.0070           0
      9249 WT4      442      MECN     C1       CG331   -0.170000       12.0110           0
      9250 WT4      442      MECN     H11      HGA3     0.090000        1.0080           0
      9251 WT4      442      MECN     H12      HGA3     0.090000        1.0080           0
      9252 WT4      442      MECN     H13      HGA3     0.090000        1.0080           0
      9253 WT4      442      MECN     C2       CG1N1    0.360000       12.0110           0
      9254 WT4      442      MECN     N3       NG1T1   -0.460000       14.0070           0
      9255 WT4      444      MECN     C1       CG331   -0.170000       12.0110           0
      9256 WT4      444      MECN     H11      HGA3     0.090000        1.0080           0
      9257 WT4      444      MECN     H12      HGA3     0.090000        1.0080           0
      9258 WT4      444      MECN     H13      HGA3     0.090000        1.0080           0
      9259 WT4      444      MECN     C2       CG1N1    0.360000       12.0110           0
      9260 WT4      444      MECN     N3       NG1T1   -0.460000       14.0070           0
      9261 WT4      451      MECN     C1       CG331   -0.170000       12.0110           0
      9262 WT4      451      MECN     H11      HGA3     0.090000        1.0080           0
      9263 WT4      451      MECN     H12      HGA3     0.090000        1.0080           0
      9264 WT4      451      MECN     H13      HGA3     0.090000        1.0080           0
      9265 WT4      451      MECN     C2       CG1N1    0.360000       12.0110           0
      9266 WT4      451      MECN     N3       NG1T1   -0.460000       14.0070           0
      9267 WT4      465      MECN     C1       CG331   -0.170000       12.0110           0
      9268 WT4      465      MECN     H11      HGA3     0.090000        1.0080           0
      9269 WT4      465      MECN     H12      HGA3     0.090000        1.0080           0
      9270 WT4      465      MECN     H13      HGA3     0.090000        1.0080           0
      9271 WT4      465      MECN     C2       CG1N1    0.360000       12.0110           0
      9272 WT4      465      MECN     N3       NG1T1   -0.460000       14.0070           0
      9273 WT4      467      MECN     C1       CG331   -0.170000       12.0110           0
      9274 WT4      467      MECN     H11      HGA3     0.090000        1.0080           0
      9275 WT4      467      MECN     H12      HGA3     0.090000        1.0080           0
      9276 WT4      467      MECN     H13      HGA3     0.090000        1.0080           0
      9277 WT4      467      MECN     C2       CG1N1    0.360000       12.0110           0
      9278 WT4      467      MECN     N3       NG1T1   -0.460000       14.0070           0
      9279 WT4      469      MECN     C1       CG331   -0.170000       12.0110           0
      9280 WT4      469      MECN     H11      HGA3     0.090000        1.0080           0
      9281 WT4      469      MECN     H12      HGA3     0.090000        1.0080           0
      9282 WT4      469      MECN     H13      HGA3     0.090000        1.0080           0
      9283 WT4      469      MECN     C2       CG1N1    0.360000       12.0110           0
      9284 WT4      469      MECN     N3       NG1T1   -0.460000       14.0070           0
      9285 WT4      472      MECN     C1       CG331   -0.170000       12.0110           0
      9286 WT4      472      MECN     H11      HGA3     0.090000        1.0080           0
      9287 WT4      472      MECN     H12      HGA3     0.090000        1.0080           0
      9288 WT4      472      MECN     H13      HGA3     0.090000        1.0080           0
      9289 WT4      472      MECN     C2       CG1N1    0.360000       12.0110           0
      9290 WT4      472      MECN     N3       NG1T1   -0.460000       14.0070           0
      9291 WT4      478      MECN     C1       CG331   -0.170000       12.0110           0
      9292 WT4      478      MECN     H11      HGA3     0.090000        1.0080           0
      9293 WT4      478      MECN     H12      HGA3     0.090000        1.0080           0
      9294 WT4      478      MECN     H13      HGA3     0.090000        1.0080           0
      9295 WT4      478      MECN     C2       CG1N1    0.360000       12.0110           0
      9296 WT4      478      MECN     N3       NG1T1   -0.460000       14.0070           0
      9297 WT4      484      MECN     C1       CG331   -0.170000       12.0110           0
      9298 WT4      484      MECN     H11      HGA3     0.090000        1.0080           0
      9299 WT4      484      MECN     H12      HGA3     0.090000        1.0080           0
      9300 WT4      484      MECN     H13      HGA3     0.090000        1.0080           0
      9301 WT4      484      MECN     C2       CG1N1    0.360000       12.0110           0
      9302 WT4      484      MECN     N3       NG1T1   -0.460000       14.0070           0
      9303 WT4      485      MECN     C1       CG331   -0.170000       12.0110           0
      9304 WT4      485      MECN     H11      HGA3     0.090000        1.0080           0
      9305 WT4      485      MECN     H12      HGA3     0.090000        1.0080           0
      9306 WT4      485      MECN     H13      HGA3     0.090000        1.0080           0
      9307 WT4      485      MECN     C2       CG1N1    0.360000       12.0110           0
      9308 WT4      485      MECN     N3       NG1T1   -0.460000       14.0070           0
      9309 WT4      488      MECN     C1       CG331   -0.170000       12.0110           0
      9310 WT4      488      MECN     H11      HGA3     0.090000        1.0080           0
      9311 WT4      488      MECN     H12      HGA3     0.090000        1.0080           0
      9312 WT4      488      MECN     H13      HGA3     0.090000        1.0080           0
      9313 WT4      488      MECN     C2       CG1N1    0.360000       12.0110           0
      9314 WT4      488      MECN     N3       NG1T1   -0.460000       14.0070           0
      9315 WT4      492      MECN     C1       CG331   -0.170000       12.0110           0
      9316 WT4      492      MECN     H11      HGA3     0.090000        1.0080           0
      9317 WT4      492      MECN     H12      HGA3     0.090000        1.0080           0
      9318 WT4      492      MECN     H13      HGA3     0.090000        1.0080           0
      9319 WT4      492      MECN     C2       CG1N1    0.360000       12.0110           0
      9320 WT4      492      MECN     N3       NG1T1   -0.460000       14.0070           0
      9321 WT4      508      MECN     C1       CG331   -0.170000       12.0110           0
      9322 WT4      508      MECN     H11      HGA3     0.090000        1.0080           0
      9323 WT4      508      MECN     H12      HGA3     0.090000        1.0080           0
      9324 WT4      508      MECN     H13      HGA3     0.090000        1.0080           0
      9325 WT4      508      MECN     C2       CG1N1    0.360000       12.0110           0
      9326 WT4      508      MECN     N3       NG1T1   -0.460000       14.0070           0
      9327 WT4      512      MECN     C1       CG331   -0.170000       12.0110           0
      9328 WT4      512      MECN     H11      HGA3     0.090000        1.0080           0
      9329 WT4      512      MECN     H12      HGA3     0.090000        1.0080           0
      9330 WT4      512      MECN     H13      HGA3     0.090000        1.0080           0
      9331 WT4      512      MECN     C2       CG1N1    0.360000       12.0110           0
      9332 WT4      512      MECN     N3       NG1T1   -0.460000       14.0070           0
      9333 WT4      517      MECN     C1       CG331   -0.170000       12.0110           0
      9334 WT4      517      MECN     H11      HGA3     0.090000        1.0080           0
      9335 WT4      517      MECN     H12      HGA3     0.090000        1.0080           0
      9336 WT4      517      MECN     H13      HGA3     0.090000        1.0080           0
      9337 WT4      517      MECN     C2       CG1N1    0.360000       12.0110           0
      9338 WT4      517      MECN     N3       NG1T1   -0.460000       14.0070           0
      9339 WT4      518      MECN     C1       CG331   -0.170000       12.0110           0
      9340 WT4      518      MECN     H11      HGA3     0.090000        1.0080           0
      9341 WT4      518      MECN     H12      HGA3     0.090000        1.0080           0
      9342 WT4      518      MECN     H13      HGA3     0.090000        1.0080           0
      9343 WT4      518      MECN     C2       CG1N1    0.360000       12.0110           0
      9344 WT4      518      MECN     N3       NG1T1   -0.460000       14.0070           0
      9345 WT4      526      MECN     C1       CG331   -0.170000       12.0110           0
      9346 WT4      526      MECN     H11      HGA3     0.090000        1.0080           0
      9347 WT4      526      MECN     H12      HGA3     0.090000        1.0080           0
      9348 WT4      526      MECN     H13      HGA3     0.090000        1.0080           0
      9349 WT4      526      MECN     C2       CG1N1    0.360000       12.0110           0
      9350 WT4      526      MECN     N3       NG1T1   -0.460000       14.0070           0
      9351 WT4      527      MECN     C1       CG331   -0.170000       12.0110           0
      9352 WT4      527      MECN     H11      HGA3     0.090000        1.0080           0
      9353 WT4      527      MECN     H12      HGA3     0.090000        1.0080           0
      9354 WT4      527      MECN     H13      HGA3     0.090000        1.0080           0
      9355 WT4      527      MECN     C2       CG1N1    0.360000       12.0110           0
      9356 WT4      527      MECN     N3       NG1T1   -0.460000       14.0070           0
      9357 WT4      531      MECN     C1       CG331   -0.170000       12.0110           0
      9358 WT4      531      MECN     H11      HGA3     0.090000        1.0080           0
      9359 WT4      531      MECN     H12      HGA3     0.090000        1.0080           0
      9360 WT4      531      MECN     H13      HGA3     0.090000        1.0080           0
      9361 WT4      531      MECN     C2       CG1N1    0.360000       12.0110           0
      9362 WT4      531      MECN     N3       NG1T1   -0.460000       14.0070           0
      9363 WT4      541      MECN     C1       CG331   -0.170000       12.0110           0
      9364 WT4      541      MECN     H11      HGA3     0.090000        1.0080           0
      9365 WT4      541      MECN     H12      HGA3     0.090000        1.0080           0
      9366 WT4      541      MECN     H13      HGA3     0.090000        1.0080           0
      9367 WT4      541      MECN     C2       CG1N1    0.360000       12.0110           0
      9368 WT4      541      MECN     N3       NG1T1   -0.460000       14.0070           0
      9369 WT4      542      MECN     C1       CG331   -0.170000       12.0110           0
      9370 WT4      542      MECN     H11      HGA3     0.090000        1.0080           0
      9371 WT4      542      MECN     H12      HGA3     0.090000        1.0080           0
      9372 WT4      542      MECN     H13      HGA3     0.090000        1.0080           0
      9373 WT4      542      MECN     C2       CG1N1    0.360000       12.0110           0
      9374 WT4      542      MECN     N3       NG1T1   -0.460000       14.0070           0
      9375 WT4      543      MECN     C1       CG331   -0.170000       12.0110           0
      9376 WT4      543      MECN     H11      HGA3     0.090000        1.0080           0
      9377 WT4      543      MECN     H12      HGA3     0.090000        1.0080           0
      9378 WT4      543      MECN     H13      HGA3     0.090000        1.0080           0
      9379 WT4      543      MECN     C2       CG1N1    0.360000       12.0110           0
      9380 WT4      543      MECN     N3       NG1T1   -0.460000       14.0070           0
      9381 WT4      544      MECN     C1       CG331   -0.170000       12.0110           0
      9382 WT4      544      MECN     H11      HGA3     0.090000        1.0080           0
      9383 WT4      544      MECN     H12      HGA3     0.090000        1.0080           0
      9384 WT4      544      MECN     H13      HGA3     0.090000        1.0080           0
      9385 WT4      544      MECN     C2       CG1N1    0.360000       12.0110           0
      9386 WT4      544      MECN     N3       NG1T1   -0.460000       14.0070           0
      9387 WT4      546      MECN     C1       CG331   -0.170000       12.0110           0
      9388 WT4      546      MECN     H11      HGA3     0.090000        1.0080           0
      9389 WT4      546      MECN     H12      HGA3     0.090000        1.0080           0
      9390 WT4      546      MECN     H13      HGA3     0.090000        1.0080           0
      9391 WT4      546      MECN     C2       CG1N1    0.360000       12.0110           0
      9392 WT4      546      MECN     N3       NG1T1   -0.460000       14.0070           0
      9393 WT4      556      MECN     C1       CG331   -0.170000       12.0110           0
      9394 WT4      556      MECN     H11      HGA3     0.090000        1.0080           0
      9395 WT4      556      MECN     H12      HGA3     0.090000        1.0080           0
      9396 WT4      556      MECN     H13      HGA3     0.090000        1.0080           0
      9397 WT4      556      MECN     C2       CG1N1    0.360000       12.0110           0
      9398 WT4      556      MECN     N3       NG1T1   -0.460000       14.0070           0
      9399 WT4      558      MECN     C1       CG331   -0.170000       12.0110           0
      9400 WT4      558      MECN     H11      HGA3     0.090000        1.0080           0
      9401 WT4      558      MECN     H12      HGA3     0.090000        1.0080           0
      9402 WT4      558      MECN     H13      HGA3     0.090000        1.0080           0
      9403 WT4      558      MECN     C2       CG1N1    0.360000       12.0110           0
      9404 WT4      558      MECN     N3       NG1T1   -0.460000       14.0070           0
      9405 WT4      560      MECN     C1       CG331   -0.170000       12.0110           0
      9406 WT4      560      MECN     H11      HGA3     0.090000        1.0080           0
      9407 WT4      560      MECN     H12      HGA3     0.090000        1.0080           0
      9408 WT4      560      MECN     H13      HGA3     0.090000        1.0080           0
      9409 WT4      560      MECN     C2       CG1N1    0.360000       12.0110           0
      9410 WT4      560      MECN     N3       NG1T1   -0.460000       14.0070           0
      9411 WT4      566      MECN     C1       CG331   -0.170000       12.0110           0
      9412 WT4      566      MECN     H11      HGA3     0.090000        1.0080           0
      9413 WT4      566      MECN     H12      HGA3     0.090000        1.0080           0
      9414 WT4      566      MECN     H13      HGA3     0.090000        1.0080           0
      9415 WT4      566      MECN     C2       CG1N1    0.360000       12.0110           0
      9416 WT4      566      MECN     N3       NG1T1   -0.460000       14.0070           0
      9417 WT4      569      MECN     C1       CG331   -0.170000       12.0110           0
      9418 WT4      569      MECN     H11      HGA3     0.090000        1.0080           0
      9419 WT4      569      MECN     H12      HGA3     0.090000        1.0080           0
      9420 WT4      569      MECN     H13      HGA3     0.090000        1.0080           0
      9421 WT4      569      MECN     C2       CG1N1    0.360000       12.0110           0
      9422 WT4      569      MECN     N3       NG1T1   -0.460000       14.0070           0
      9423 WT4      579      MECN     C1       CG331   -0.170000       12.0110           0
      9424 WT4      579      MECN     H11      HGA3     0.090000        1.0080           0
      9425 WT4      579      MECN     H12      HGA3     0.090000        1.0080           0
      9426 WT4      579      MECN     H13      HGA3     0.090000        1.0080           0
      9427 WT4      579      MECN     C2       CG1N1    0.360000       12.0110           0
      9428 WT4      579      MECN     N3       NG1T1   -0.460000       14.0070           0
      9429 WT4      584      MECN     C1       CG331   -0.170000       12.0110           0
      9430 WT4      584      MECN     H11      HGA3     0.090000        1.0080           0
      9431 WT4      584      MECN     H12      HGA3     0.090000        1.0080           0
      9432 WT4      584      MECN     H13      HGA3     0.090000        1.0080           0
      9433 WT4      584      MECN     C2       CG1N1    0.360000       12.0110           0
      9434 WT4      584      MECN     N3       NG1T1   -0.460000       14.0070           0
      9435 WT4      585      MECN     C1       CG331   -0.170000       12.0110           0
      9436 WT4      585      MECN     H11      HGA3     0.090000        1.0080           0
      9437 WT4      585      MECN     H12      HGA3     0.090000        1.0080           0
      9438 WT4      585      MECN     H13      HGA3     0.090000        1.0080           0
      9439 WT4      585      MECN     C2       CG1N1    0.360000       12.0110           0
      9440 WT4      585      MECN     N3       NG1T1   -0.460000       14.0070           0
      9441 WT4      586      MECN     C1       CG331   -0.170000       12.0110           0
      9442 WT4      586      MECN     H11      HGA3     0.090000        1.0080           0
      9443 WT4      586      MECN     H12      HGA3     0.090000        1.0080           0
      9444 WT4      586      MECN     H13      HGA3     0.090000        1.0080           0
      9445 WT4      586      MECN     C2       CG1N1    0.360000       12.0110           0
      9446 WT4      586      MECN     N3       NG1T1   -0.460000       14.0070           0
      9447 WT4      594      MECN     C1       CG331   -0.170000       12.0110           0
      9448 WT4      594      MECN     H11      HGA3     0.090000        1.0080           0
      9449 WT4      594      MECN     H12      HGA3     0.090000        1.0080           0
      9450 WT4      594      MECN     H13      HGA3     0.090000        1.0080           0
      9451 WT4      594      MECN     C2       CG1N1    0.360000       12.0110           0
      9452 WT4      594      MECN     N3       NG1T1   -0.460000       14.0070           0
      9453 WT4      599      MECN     C1       CG331   -0.170000       12.0110           0
      9454 WT4      599      MECN     H11      HGA3     0.090000        1.0080           0
      9455 WT4      599      MECN     H12      HGA3     0.090000        1.0080           0
      9456 WT4      599      MECN     H13      HGA3     0.090000        1.0080           0
      9457 WT4      599      MECN     C2       CG1N1    0.360000       12.0110           0
      9458 WT4      599      MECN     N3       NG1T1   -0.460000       14.0070           0
      9459 WT4      601      MECN     C1       CG331   -0.170000       12.0110           0
      9460 WT4      601      MECN     H11      HGA3     0.090000        1.0080           0
      9461 WT4      601      MECN     H12      HGA3     0.090000        1.0080           0
      9462 WT4      601      MECN     H13      HGA3     0.090000        1.0080           0
      9463 WT4      601      MECN     C2       CG1N1    0.360000       12.0110           0
      9464 WT4      601      MECN     N3       NG1T1   -0.460000       14.0070           0
      9465 WT4      605      MECN     C1       CG331   -0.170000       12.0110           0
      9466 WT4      605      MECN     H11      HGA3     0.090000        1.0080           0
      9467 WT4      605      MECN     H12      HGA3     0.090000        1.0080           0
      9468 WT4      605      MECN     H13      HGA3     0.090000        1.0080           0
      9469 WT4      605      MECN     C2       CG1N1    0.360000       12.0110           0
      9470 WT4      605      MECN     N3       NG1T1   -0.460000       14.0070           0
      9471 WT4      611      MECN     C1       CG331   -0.170000       12.0110           0
      9472 WT4      611      MECN     H11      HGA3     0.090000        1.0080           0
      9473 WT4      611      MECN     H12      HGA3     0.090000        1.0080           0
      9474 WT4      611      MECN     H13      HGA3     0.090000        1.0080           0
      9475 WT4      611      MECN     C2       CG1N1    0.360000       12.0110           0
      9476 WT4      611      MECN     N3       NG1T1   -0.460000       14.0070           0
      9477 WT4      617      MECN     C1       CG331   -0.170000       12.0110           0
      9478 WT4      617      MECN     H11      HGA3     0.090000        1.0080           0
      9479 WT4      617      MECN     H12      HGA3     0.090000        1.0080           0
      9480 WT4      617      MECN     H13      HGA3     0.090000        1.0080           0
      9481 WT4      617      MECN     C2       CG1N1    0.360000       12.0110           0
      9482 WT4      617      MECN     N3       NG1T1   -0.460000       14.0070           0
      9483 WT4      620      MECN     C1       CG331   -0.170000       12.0110           0
      9484 WT4      620      MECN     H11      HGA3     0.090000        1.0080           0
      9485 WT4      620      MECN     H12      HGA3     0.090000        1.0080           0
      9486 WT4      620      MECN     H13      HGA3     0.090000        1.0080           0
      9487 WT4      620      MECN     C2       CG1N1    0.360000       12.0110           0
      9488 WT4      620      MECN     N3       NG1T1   -0.460000       14.0070           0
      9489 WT4      623      MECN     C1       CG331   -0.170000       12.0110           0
      9490 WT4      623      MECN     H11      HGA3     0.090000        1.0080           0
      9491 WT4      623      MECN     H12      HGA3     0.090000        1.0080           0
      9492 WT4      623      MECN     H13      HGA3     0.090000        1.0080           0
      9493 WT4      623      MECN     C2       CG1N1    0.360000       12.0110           0
      9494 WT4      623      MECN     N3       NG1T1   -0.460000       14.0070           0
      9495 WT4      625      MECN     C1       CG331   -0.170000       12.0110           0
      9496 WT4      625      MECN     H11      HGA3     0.090000        1.0080           0
      9497 WT4      625      MECN     H12      HGA3     0.090000        1.0080           0
      9498 WT4      625      MECN     H13      HGA3     0.090000        1.0080           0
      9499 WT4      625      MECN     C2       CG1N1    0.360000       12.0110           0
      9500 WT4      625      MECN     N3       NG1T1   -0.460000       14.0070           0
      9501 WT4      633      MECN     C1       CG331   -0.170000       12.0110           0
      9502 WT4      633      MECN     H11      HGA3     0.090000        1.0080           0
      9503 WT4      633      MECN     H12      HGA3     0.090000        1.0080           0
      9504 WT4      633      MECN     H13      HGA3     0.090000        1.0080           0
      9505 WT4      633      MECN     C2       CG1N1    0.360000       12.0110           0
      9506 WT4      633      MECN     N3       NG1T1   -0.460000       14.0070           0
      9507 WT4      636      MECN     C1       CG331   -0.170000       12.0110           0
      9508 WT4      636      MECN     H11      HGA3     0.090000        1.0080           0
      9509 WT4      636      MECN     H12      HGA3     0.090000        1.0080           0
      9510 WT4      636      MECN     H13      HGA3     0.090000        1.0080           0
      9511 WT4      636      MECN     C2       CG1N1    0.360000       12.0110           0
      9512 WT4      636      MECN     N3       NG1T1   -0.460000       14.0070           0
      9513 WT4      639      MECN     C1       CG331   -0.170000       12.0110           0
      9514 WT4      639      MECN     H11      HGA3     0.090000        1.0080           0
      9515 WT4      639      MECN     H12      HGA3     0.090000        1.0080           0
      9516 WT4      639      MECN     H13      HGA3     0.090000        1.0080           0
      9517 WT4      639      MECN     C2       CG1N1    0.360000       12.0110           0
      9518 WT4      639      MECN     N3       NG1T1   -0.460000       14.0070           0
      9519 WT4      641      MECN     C1       CG331   -0.170000       12.0110           0
      9520 WT4      641      MECN     H11      HGA3     0.090000        1.0080           0
      9521 WT4      641      MECN     H12      HGA3     0.090000        1.0080           0
      9522 WT4      641      MECN     H13      HGA3     0.090000        1.0080           0
      9523 WT4      641      MECN     C2       CG1N1    0.360000       12.0110           0
      9524 WT4      641      MECN     N3       NG1T1   -0.460000       14.0070           0
      9525 WT4      644      MECN     C1       CG331   -0.170000       12.0110           0
      9526 WT4      644      MECN     H11      HGA3     0.090000        1.0080           0
      9527 WT4      644      MECN     H12      HGA3     0.090000        1.0080           0
      9528 WT4      644      MECN     H13      HGA3     0.090000        1.0080           0
      9529 WT4      644      MECN     C2       CG1N1    0.360000       12.0110           0
      9530 WT4      644      MECN     N3       NG1T1   -0.460000       14.0070           0
      9531 WT4      646      MECN     C1       CG331   -0.170000       12.0110           0
      9532 WT4      646      MECN     H11      HGA3     0.090000        1.0080           0
      9533 WT4      646      MECN     H12      HGA3     0.090000        1.0080           0
      9534 WT4      646      MECN     H13      HGA3     0.090000        1.0080           0
      9535 WT4      646      MECN     C2       CG1N1    0.360000       12.0110           0
      9536 WT4      646      MECN     N3       NG1T1   -0.460000       14.0070           0
      9537 WT4      650      MECN     C1       CG331   -0.170000       12.0110           0
      9538 WT4      650      MECN     H11      HGA3     0.090000        1.0080           0
      9539 WT4      650      MECN     H12      HGA3     0.090000        1.0080           0
      9540 WT4      650      MECN     H13      HGA3     0.090000        1.0080           0
      9541 WT4      650      MECN     C2       CG1N1    0.360000       12.0110           0
      9542 WT4      650      MECN     N3       NG1T1   -0.460000       14.0070           0
      9543 WT4      651      MECN     C1       CG331   -0.170000       12.0110           0
      9544 WT4      651      MECN     H11      HGA3     0.090000        1.0080           0
      9545 WT4      651      MECN     H12      HGA3     0.090000        1.0080           0
      9546 WT4      651      MECN     H13      HGA3     0.090000        1.0080           0
      9547 WT4      651      MECN     C2       CG1N1    0.360000       12.0110           0
      9548 WT4      651      MECN     N3       NG1T1   -0.460000       14.0070           0
      9549 WT4      655      MECN     C1       CG331   -0.170000       12.0110           0
      9550 WT4      655      MECN     H11      HGA3     0.090000        1.0080           0
      9551 WT4      655      MECN     H12      HGA3     0.090000        1.0080           0
      9552 WT4      655      MECN     H13      HGA3     0.090000        1.0080           0
      9553 WT4      655      MECN     C2       CG1N1    0.360000       12.0110           0
      9554 WT4      655      MECN     N3       NG1T1   -0.460000       14.0070           0
      9555 WT4      656      MECN     C1       CG331   -0.170000       12.0110           0
      9556 WT4      656      MECN     H11      HGA3     0.090000        1.0080           0
      9557 WT4      656      MECN     H12      HGA3     0.090000        1.0080           0
      9558 WT4      656      MECN     H13      HGA3     0.090000        1.0080           0
      9559 WT4      656      MECN     C2       CG1N1    0.360000       12.0110           0
      9560 WT4      656      MECN     N3       NG1T1   -0.460000       14.0070           0
      9561 WT4      657      MECN     C1       CG331   -0.170000       12.0110           0
      9562 WT4      657      MECN     H11      HGA3     0.090000        1.0080           0
      9563 WT4      657      MECN     H12      HGA3     0.090000        1.0080           0
      9564 WT4      657      MECN     H13      HGA3     0.090000        1.0080           0
      9565 WT4      657      MECN     C2       CG1N1    0.360000       12.0110           0
      9566 WT4      657      MECN     N3       NG1T1   -0.460000       14.0070           0
      9567 WT4      658      MECN     C1       CG331   -0.170000       12.0110           0
      9568 WT4      658      MECN     H11      HGA3     0.090000        1.0080           0
      9569 WT4      658      MECN     H12      HGA3     0.090000        1.0080           0
      9570 WT4      658      MECN     H13      HGA3     0.090000        1.0080           0
      9571 WT4      658      MECN     C2       CG1N1    0.360000       12.0110           0
      9572 WT4      658      MECN     N3       NG1T1   -0.460000       14.0070           0
      9573 WT4      659      MECN     C1       CG331   -0.170000       12.0110           0
      9574 WT4      659      MECN     H11      HGA3     0.090000        1.0080           0
      9575 WT4      659      MECN     H12      HGA3     0.090000        1.0080           0
      9576 WT4      659      MECN     H13      HGA3     0.090000        1.0080           0
      9577 WT4      659      MECN     C2       CG1N1    0.360000       12.0110           0
      9578 WT4      659      MECN     N3       NG1T1   -0.460000       14.0070           0
      9579 WT4      661      MECN     C1       CG331   -0.170000       12.0110           0
      9580 WT4      661      MECN     H11      HGA3     0.090000        1.0080           0
      9581 WT4      661      MECN     H12      HGA3     0.090000        1.0080           0
      9582 WT4      661      MECN     H13      HGA3     0.090000        1.0080           0
      9583 WT4      661      MECN     C2       CG1N1    0.360000       12.0110           0
      9584 WT4      661      MECN     N3       NG1T1   -0.460000       14.0070           0
      9585 WT4      664      MECN     C1       CG331   -0.170000       12.0110           0
      9586 WT4      664      MECN     H11      HGA3     0.090000        1.0080           0
      9587 WT4      664      MECN     H12      HGA3     0.090000        1.0080           0
      9588 WT4      664      MECN     H13      HGA3     0.090000        1.0080           0
      9589 WT4      664      MECN     C2       CG1N1    0.360000       12.0110           0
      9590 WT4      664      MECN     N3       NG1T1   -0.460000       14.0070           0
      9591 WT4      667      MECN     C1       CG331   -0.170000       12.0110           0
      9592 WT4      667      MECN     H11      HGA3     0.090000        1.0080           0
      9593 WT4      667      MECN     H12      HGA3     0.090000        1.0080           0
      9594 WT4      667      MECN     H13      HGA3     0.090000        1.0080           0
      9595 WT4      667      MECN     C2       CG1N1    0.360000       12.0110           0
      9596 WT4      667      MECN     N3       NG1T1   -0.460000       14.0070           0
      9597 WT4      672      MECN     C1       CG331   -0.170000       12.0110           0
      9598 WT4      672      MECN     H11      HGA3     0.090000        1.0080           0
      9599 WT4      672      MECN     H12      HGA3     0.090000        1.0080           0
      9600 WT4      672      MECN     H13      HGA3     0.090000        1.0080           0
      9601 WT4      672      MECN     C2       CG1N1    0.360000       12.0110           0
      9602 WT4      672      MECN     N3       NG1T1   -0.460000       14.0070           0
      9603 WT4      673      MECN     C1       CG331   -0.170000       12.0110           0
      9604 WT4      673      MECN     H11      HGA3     0.090000        1.0080           0
      9605 WT4      673      MECN     H12      HGA3     0.090000        1.0080           0
      9606 WT4      673      MECN     H13      HGA3     0.090000        1.0080           0
      9607 WT4      673      MECN     C2       CG1N1    0.360000       12.0110           0
      9608 WT4      673      MECN     N3       NG1T1   -0.460000       14.0070           0
      9609 WT4      674      MECN     C1       CG331   -0.170000       12.0110           0
      9610 WT4      674      MECN     H11      HGA3     0.090000        1.0080           0
      9611 WT4      674      MECN     H12      HGA3     0.090000        1.0080           0
      9612 WT4      674      MECN     H13      HGA3     0.090000        1.0080           0
      9613 WT4      674      MECN     C2       CG1N1    0.360000       12.0110           0
      9614 WT4      674      MECN     N3       NG1T1   -0.460000       14.0070           0
      9615 WT4      678      MECN     C1       CG331   -0.170000       12.0110           0
      9616 WT4      678      MECN     H11      HGA3     0.090000        1.0080           0
      9617 WT4      678      MECN     H12      HGA3     0.090000        1.0080           0
      9618 WT4      678      MECN     H13      HGA3     0.090000        1.0080           0
      9619 WT4      678      MECN     C2       CG1N1    0.360000       12.0110           0
      9620 WT4      678      MECN     N3       NG1T1   -0.460000       14.0070           0
      9621 WT4      680      MECN     C1       CG331   -0.170000       12.0110           0
      9622 WT4      680      MECN     H11      HGA3     0.090000        1.0080           0
      9623 WT4      680      MECN     H12      HGA3     0.090000        1.0080           0
      9624 WT4      680      MECN     H13      HGA3     0.090000        1.0080           0
      9625 WT4      680      MECN     C2       CG1N1    0.360000       12.0110           0
      9626 WT4      680      MECN     N3       NG1T1   -0.460000       14.0070           0
      9627 WT4      681      MECN     C1       CG331   -0.170000       12.0110           0
      9628 WT4      681      MECN     H11      HGA3     0.090000        1.0080           0
      9629 WT4      681      MECN     H12      HGA3     0.090000        1.0080           0
      9630 WT4      681      MECN     H13      HGA3     0.090000        1.0080           0
      9631 WT4      681      MECN     C2       CG1N1    0.360000       12.0110           0
      9632 WT4      681      MECN     N3       NG1T1   -0.460000       14.0070           0
      9633 WT4      691      MECN     C1       CG331   -0.170000       12.0110           0
      9634 WT4      691      MECN     H11      HGA3     0.090000        1.0080           0
      9635 WT4      691      MECN     H12      HGA3     0.090000        1.0080           0
      9636 WT4      691      MECN     H13      HGA3     0.090000        1.0080           0
      9637 WT4      691      MECN     C2       CG1N1    0.360000       12.0110           0
      9638 WT4      691      MECN     N3       NG1T1   -0.460000       14.0070           0
      9639 WT4      696      MECN     C1       CG331   -0.170000       12.0110           0
      9640 WT4      696      MECN     H11      HGA3     0.090000        1.0080           0
      9641 WT4      696      MECN     H12      HGA3     0.090000        1.0080           0
      9642 WT4      696      MECN     H13      HGA3     0.090000        1.0080           0
      9643 WT4      696      MECN     C2       CG1N1    0.360000       12.0110           0
      9644 WT4      696      MECN     N3       NG1T1   -0.460000       14.0070           0
      9645 WT4      699      MECN     C1       CG331   -0.170000       12.0110           0
      9646 WT4      699      MECN     H11      HGA3     0.090000        1.0080           0
      9647 WT4      699      MECN     H12      HGA3     0.090000        1.0080           0
      9648 WT4      699      MECN     H13      HGA3     0.090000        1.0080           0
      9649 WT4      699      MECN     C2       CG1N1    0.360000       12.0110           0
      9650 WT4      699      MECN     N3       NG1T1   -0.460000       14.0070           0
      9651 WT4      700      MECN     C1       CG331   -0.170000       12.0110           0
      9652 WT4      700      MECN     H11      HGA3     0.090000        1.0080           0
      9653 WT4      700      MECN     H12      HGA3     0.090000        1.0080           0
      9654 WT4      700      MECN     H13      HGA3     0.090000        1.0080           0
      9655 WT4      700      MECN     C2       CG1N1    0.360000       12.0110           0
      9656 WT4      700      MECN     N3       NG1T1   -0.460000       14.0070           0
      9657 WT4      710      MECN     C1       CG331   -0.170000       12.0110           0
      9658 WT4      710      MECN     H11      HGA3     0.090000        1.0080           0
      9659 WT4      710      MECN     H12      HGA3     0.090000        1.0080           0
      9660 WT4      710      MECN     H13      HGA3     0.090000        1.0080           0
      9661 WT4      710      MECN     C2       CG1N1    0.360000       12.0110           0
      9662 WT4      710      MECN     N3       NG1T1   -0.460000       14.0070           0
      9663 WT4      711      MECN     C1       CG331   -0.170000       12.0110           0
      9664 WT4      711      MECN     H11      HGA3     0.090000        1.0080           0
      9665 WT4      711      MECN     H12      HGA3     0.090000        1.0080           0
      9666 WT4      711      MECN     H13      HGA3     0.090000        1.0080           0
      9667 WT4      711      MECN     C2       CG1N1    0.360000       12.0110           0
      9668 WT4      711      MECN     N3       NG1T1   -0.460000       14.0070           0
      9669 WT4      714      MECN     C1       CG331   -0.170000       12.0110           0
      9670 WT4      714      MECN     H11      HGA3     0.090000        1.0080           0
      9671 WT4      714      MECN     H12      HGA3     0.090000        1.0080           0
      9672 WT4      714      MECN     H13      HGA3     0.090000        1.0080           0
      9673 WT4      714      MECN     C2       CG1N1    0.360000       12.0110           0
      9674 WT4      714      MECN     N3       NG1T1   -0.460000       14.0070           0
      9675 WT4      722      MECN     C1       CG331   -0.170000       12.0110           0
      9676 WT4      722      MECN     H11      HGA3     0.090000        1.0080           0
      9677 WT4      722      MECN     H12      HGA3     0.090000        1.0080           0
      9678 WT4      722      MECN     H13      HGA3     0.090000        1.0080           0
      9679 WT4      722      MECN     C2       CG1N1    0.360000       12.0110           0
      9680 WT4      722      MECN     N3       NG1T1   -0.460000       14.0070           0
      9681 WT4      724      MECN     C1       CG331   -0.170000       12.0110           0
      9682 WT4      724      MECN     H11      HGA3     0.090000        1.0080           0
      9683 WT4      724      MECN     H12      HGA3     0.090000        1.0080           0
      9684 WT4      724      MECN     H13      HGA3     0.090000        1.0080           0
      9685 WT4      724      MECN     C2       CG1N1    0.360000       12.0110           0
      9686 WT4      724      MECN     N3       NG1T1   -0.460000       14.0070           0
      9687 WT4      725      MECN     C1       CG331   -0.170000       12.0110           0
      9688 WT4      725      MECN     H11      HGA3     0.090000        1.0080           0
      9689 WT4      725      MECN     H12      HGA3     0.090000        1.0080           0
      9690 WT4      725      MECN     H13      HGA3     0.090000        1.0080           0
      9691 WT4      725      MECN     C2       CG1N1    0.360000       12.0110           0
      9692 WT4      725      MECN     N3       NG1T1   -0.460000       14.0070           0
      9693 WT4      726      MECN     C1       CG331   -0.170000       12.0110           0
      9694 WT4      726      MECN     H11      HGA3     0.090000        1.0080           0
      9695 WT4      726      MECN     H12      HGA3     0.090000        1.0080           0
      9696 WT4      726      MECN     H13      HGA3     0.090000        1.0080           0
      9697 WT4      726      MECN     C2       CG1N1    0.360000       12.0110           0
      9698 WT4      726      MECN     N3       NG1T1   -0.460000       14.0070           0
      9699 WT4      727      MECN     C1       CG331   -0.170000       12.0110           0
      9700 WT4      727      MECN     H11      HGA3     0.090000        1.0080           0
      9701 WT4      727      MECN     H12      HGA3     0.090000        1.0080           0
      9702 WT4      727      MECN     H13      HGA3     0.090000        1.0080           0
      9703 WT4      727      MECN     C2       CG1N1    0.360000       12.0110           0
      9704 WT4      727      MECN     N3       NG1T1   -0.460000       14.0070           0
      9705 WT4      751      MECN     C1       CG331   -0.170000       12.0110           0
      9706 WT4      751      MECN     H11      HGA3     0.090000        1.0080           0
      9707 WT4      751      MECN     H12      HGA3     0.090000        1.0080           0
      9708 WT4      751      MECN     H13      HGA3     0.090000        1.0080           0
      9709 WT4      751      MECN     C2       CG1N1    0.360000       12.0110           0
      9710 WT4      751      MECN     N3       NG1T1   -0.460000       14.0070           0
      9711 WT4      762      MECN     C1       CG331   -0.170000       12.0110           0
      9712 WT4      762      MECN     H11      HGA3     0.090000        1.0080           0
      9713 WT4      762      MECN     H12      HGA3     0.090000        1.0080           0
      9714 WT4      762      MECN     H13      HGA3     0.090000        1.0080           0
      9715 WT4      762      MECN     C2       CG1N1    0.360000       12.0110           0
      9716 WT4      762      MECN     N3       NG1T1   -0.460000       14.0070           0
      9717 WT4      765      MECN     C1       CG331   -0.170000       12.0110           0
      9718 WT4      765      MECN     H11      HGA3     0.090000        1.0080           0
      9719 WT4      765      MECN     H12      HGA3     0.090000        1.0080           0
      9720 WT4      765      MECN     H13      HGA3     0.090000        1.0080           0
      9721 WT4      765      MECN     C2       CG1N1    0.360000       12.0110           0
      9722 WT4      765      MECN     N3       NG1T1   -0.460000       14.0070           0
      9723 WT4      770      MECN     C1       CG331   -0.170000       12.0110           0
      9724 WT4      770      MECN     H11      HGA3     0.090000        1.0080           0
      9725 WT4      770      MECN     H12      HGA3     0.090000        1.0080           0
      9726 WT4      770      MECN     H13      HGA3     0.090000        1.0080           0
      9727 WT4      770      MECN     C2       CG1N1    0.360000       12.0110           0
      9728 WT4      770      MECN     N3       NG1T1   -0.460000       14.0070           0
      9729 WT4      771      MECN     C1       CG331   -0.170000       12.0110           0
      9730 WT4      771      MECN     H11      HGA3     0.090000        1.0080           0
      9731 WT4      771      MECN     H12      HGA3     0.090000        1.0080           0
      9732 WT4      771      MECN     H13      HGA3     0.090000        1.0080           0
      9733 WT4      771      MECN     C2       CG1N1    0.360000       12.0110           0
      9734 WT4      771      MECN     N3       NG1T1   -0.460000       14.0070           0
      9735 WT4      774      MECN     C1       CG331   -0.170000       12.0110           0
      9736 WT4      774      MECN     H11      HGA3     0.090000        1.0080           0
      9737 WT4      774      MECN     H12      HGA3     0.090000        1.0080           0
      9738 WT4      774      MECN     H13      HGA3     0.090000        1.0080           0
      9739 WT4      774      MECN     C2       CG1N1    0.360000       12.0110           0
      9740 WT4      774      MECN     N3       NG1T1   -0.460000       14.0070           0
      9741 WT4      783      MECN     C1       CG331   -0.170000       12.0110           0
      9742 WT4      783      MECN     H11      HGA3     0.090000        1.0080           0
      9743 WT4      783      MECN     H12      HGA3     0.090000        1.0080           0
      9744 WT4      783      MECN     H13      HGA3     0.090000        1.0080           0
      9745 WT4      783      MECN     C2       CG1N1    0.360000       12.0110           0
      9746 WT4      783      MECN     N3       NG1T1   -0.460000       14.0070           0
      9747 WT4      788      MECN     C1       CG331   -0.170000       12.0110           0
      9748 WT4      788      MECN     H11      HGA3     0.090000        1.0080           0
      9749 WT4      788      MECN     H12      HGA3     0.090000        1.0080           0
      9750 WT4      788      MECN     H13      HGA3     0.090000        1.0080           0
      9751 WT4      788      MECN     C2       CG1N1    0.360000       12.0110           0
      9752 WT4      788      MECN     N3       NG1T1   -0.460000       14.0070           0
      9753 WT4      791      MECN     C1       CG331   -0.170000       12.0110           0
      9754 WT4      791      MECN     H11      HGA3     0.090000        1.0080           0
      9755 WT4      791      MECN     H12      HGA3     0.090000        1.0080           0
      9756 WT4      791      MECN     H13      HGA3     0.090000        1.0080           0
      9757 WT4      791      MECN     C2       CG1N1    0.360000       12.0110           0
      9758 WT4      791      MECN     N3       NG1T1   -0.460000       14.0070           0
      9759 WT4      793      MECN     C1       CG331   -0.170000       12.0110           0
      9760 WT4      793      MECN     H11      HGA3     0.090000        1.0080           0
      9761 WT4      793      MECN     H12      HGA3     0.090000        1.0080           0
      9762 WT4      793      MECN     H13      HGA3     0.090000        1.0080           0
      9763 WT4      793      MECN     C2       CG1N1    0.360000       12.0110           0
      9764 WT4      793      MECN     N3       NG1T1   -0.460000       14.0070           0
      9765 WT4      794      MECN     C1       CG331   -0.170000       12.0110           0
      9766 WT4      794      MECN     H11      HGA3     0.090000        1.0080           0
      9767 WT4      794      MECN     H12      HGA3     0.090000        1.0080           0
      9768 WT4      794      MECN     H13      HGA3     0.090000        1.0080           0
      9769 WT4      794      MECN     C2       CG1N1    0.360000       12.0110           0
      9770 WT4      794      MECN     N3       NG1T1   -0.460000       14.0070           0
      9771 WT4      805      MECN     C1       CG331   -0.170000       12.0110           0
      9772 WT4      805      MECN     H11      HGA3     0.090000        1.0080           0
      9773 WT4      805      MECN     H12      HGA3     0.090000        1.0080           0
      9774 WT4      805      MECN     H13      HGA3     0.090000        1.0080           0
      9775 WT4      805      MECN     C2       CG1N1    0.360000       12.0110           0
      9776 WT4      805      MECN     N3       NG1T1   -0.460000       14.0070           0
      9777 WT4      807      MECN     C1       CG331   -0.170000       12.0110           0
      9778 WT4      807      MECN     H11      HGA3     0.090000        1.0080           0
      9779 WT4      807      MECN     H12      HGA3     0.090000        1.0080           0
      9780 WT4      807      MECN     H13      HGA3     0.090000        1.0080           0
      9781 WT4      807      MECN     C2       CG1N1    0.360000       12.0110           0
      9782 WT4      807      MECN     N3       NG1T1   -0.460000       14.0070           0
      9783 WT4      808      MECN     C1       CG331   -0.170000       12.0110           0
      9784 WT4      808      MECN     H11      HGA3     0.090000        1.0080           0
      9785 WT4      808      MECN     H12      HGA3     0.090000        1.0080           0
      9786 WT4      808      MECN     H13      HGA3     0.090000        1.0080           0
      9787 WT4      808      MECN     C2       CG1N1    0.360000       12.0110           0
      9788 WT4      808      MECN     N3       NG1T1   -0.460000       14.0070           0
      9789 WT4      818      MECN     C1       CG331   -0.170000       12.0110           0
      9790 WT4      818      MECN     H11      HGA3     0.090000        1.0080           0
      9791 WT4      818      MECN     H12      HGA3     0.090000        1.0080           0
      9792 WT4      818      MECN     H13      HGA3     0.090000        1.0080           0
      9793 WT4      818      MECN     C2       CG1N1    0.360000       12.0110           0
      9794 WT4      818      MECN     N3       NG1T1   -0.460000       14.0070           0
      9795 WT4      832      MECN     C1       CG331   -0.170000       12.0110           0
      9796 WT4      832      MECN     H11      HGA3     0.090000        1.0080           0
      9797 WT4      832      MECN     H12      HGA3     0.090000        1.0080           0
      9798 WT4      832      MECN     H13      HGA3     0.090000        1.0080           0
      9799 WT4      832      MECN     C2       CG1N1    0.360000       12.0110           0
      9800 WT4      832      MECN     N3       NG1T1   -0.460000       14.0070           0
      9801 WT4      839      MECN     C1       CG331   -0.170000       12.0110           0
      9802 WT4      839      MECN     H11      HGA3     0.090000        1.0080           0
      9803 WT4      839      MECN     H12      HGA3     0.090000        1.0080           0
      9804 WT4      839      MECN     H13      HGA3     0.090000        1.0080           0
      9805 WT4      839      MECN     C2       CG1N1    0.360000       12.0110           0
      9806 WT4      839      MECN     N3       NG1T1   -0.460000       14.0070           0
      9807 WT4      841      MECN     C1       CG331   -0.170000       12.0110           0
      9808 WT4      841      MECN     H11      HGA3     0.090000        1.0080           0
      9809 WT4      841      MECN     H12      HGA3     0.090000        1.0080           0
      9810 WT4      841      MECN     H13      HGA3     0.090000        1.0080           0
      9811 WT4      841      MECN     C2       CG1N1    0.360000       12.0110           0
      9812 WT4      841      MECN     N3       NG1T1   -0.460000       14.0070           0
      9813 WT4      846      MECN     C1       CG331   -0.170000       12.0110           0
      9814 WT4      846      MECN     H11      HGA3     0.090000        1.0080           0
      9815 WT4      846      MECN     H12      HGA3     0.090000        1.0080           0
      9816 WT4      846      MECN     H13      HGA3     0.090000        1.0080           0
      9817 WT4      846      MECN     C2       CG1N1    0.360000       12.0110           0
      9818 WT4      846      MECN     N3       NG1T1   -0.460000       14.0070           0
      9819 WT4      848      MECN     C1       CG331   -0.170000       12.0110           0
      9820 WT4      848      MECN     H11      HGA3     0.090000        1.0080           0
      9821 WT4      848      MECN     H12      HGA3     0.090000        1.0080           0
      9822 WT4      848      MECN     H13      HGA3     0.090000        1.0080           0
      9823 WT4      848      MECN     C2       CG1N1    0.360000       12.0110           0
      9824 WT4      848      MECN     N3       NG1T1   -0.460000       14.0070           0
      9825 WT4      856      MECN     C1       CG331   -0.170000       12.0110           0
      9826 WT4      856      MECN     H11      HGA3     0.090000        1.0080           0
      9827 WT4      856      MECN     H12      HGA3     0.090000        1.0080           0
      9828 WT4      856      MECN     H13      HGA3     0.090000        1.0080           0
      9829 WT4      856      MECN     C2       CG1N1    0.360000       12.0110           0
      9830 WT4      856      MECN     N3       NG1T1   -0.460000       14.0070           0
      9831 WT4      862      MECN     C1       CG331   -0.170000       12.0110           0
      9832 WT4      862      MECN     H11      HGA3     0.090000        1.0080           0
      9833 WT4      862      MECN     H12      HGA3     0.090000        1.0080           0
      9834 WT4      862      MECN     H13      HGA3     0.090000        1.0080           0
      9835 WT4      862      MECN     C2       CG1N1    0.360000       12.0110           0
      9836 WT4      862      MECN     N3       NG1T1   -0.460000       14.0070           0
      9837 WT4      863      MECN     C1       CG331   -0.170000       12.0110           0
      9838 WT4      863      MECN     H11      HGA3     0.090000        1.0080           0
      9839 WT4      863      MECN     H12      HGA3     0.090000        1.0080           0
      9840 WT4      863      MECN     H13      HGA3     0.090000        1.0080           0
      9841 WT4      863      MECN     C2       CG1N1    0.360000       12.0110           0
      9842 WT4      863      MECN     N3       NG1T1   -0.460000       14.0070           0
      9843 WT4      866      MECN     C1       CG331   -0.170000       12.0110           0
      9844 WT4      866      MECN     H11      HGA3     0.090000        1.0080           0
      9845 WT4      866      MECN     H12      HGA3     0.090000        1.0080           0
      9846 WT4      866      MECN     H13      HGA3     0.090000        1.0080           0
      9847 WT4      866      MECN     C2       CG1N1    0.360000       12.0110           0
      9848 WT4      866      MECN     N3       NG1T1   -0.460000       14.0070           0
      9849 WT4      867      MECN     C1       CG331   -0.170000       12.0110           0
      9850 WT4      867      MECN     H11      HGA3     0.090000        1.0080           0
      9851 WT4      867      MECN     H12      HGA3     0.090000        1.0080           0
      9852 WT4      867      MECN     H13      HGA3     0.090000        1.0080           0
      9853 WT4      867      MECN     C2       CG1N1    0.360000       12.0110           0
      9854 WT4      867      MECN     N3       NG1T1   -0.460000       14.0070           0
      9855 WT4      875      MECN     C1       CG331   -0.170000       12.0110           0
      9856 WT4      875      MECN     H11      HGA3     0.090000        1.0080           0
      9857 WT4      875      MECN     H12      HGA3     0.090000        1.0080           0
      9858 WT4      875      MECN     H13      HGA3     0.090000        1.0080           0
      9859 WT4      875      MECN     C2       CG1N1    0.360000       12.0110           0
      9860 WT4      875      MECN     N3       NG1T1   -0.460000       14.0070           0
      9861 WT4      882      MECN     C1       CG331   -0.170000       12.0110           0
      9862 WT4      882      MECN     H11      HGA3     0.090000        1.0080           0
      9863 WT4      882      MECN     H12      HGA3     0.090000        1.0080           0
      9864 WT4      882      MECN     H13      HGA3     0.090000        1.0080           0
      9865 WT4      882      MECN     C2       CG1N1    0.360000       12.0110           0
      9866 WT4      882      MECN     N3       NG1T1   -0.460000       14.0070           0
      9867 WT4      895      MECN     C1       CG331   -0.170000       12.0110           0
      9868 WT4      895      MECN     H11      HGA3     0.090000        1.0080           0
      9869 WT4      895      MECN     H12      HGA3     0.090000        1.0080           0
      9870 WT4      895      MECN     H13      HGA3     0.090000        1.0080           0
      9871 WT4      895      MECN     C2       CG1N1    0.360000       12.0110           0
      9872 WT4      895      MECN     N3       NG1T1   -0.460000       14.0070           0
      9873 WT4      897      MECN     C1       CG331   -0.170000       12.0110           0
      9874 WT4      897      MECN     H11      HGA3     0.090000        1.0080           0
      9875 WT4      897      MECN     H12      HGA3     0.090000        1.0080           0
      9876 WT4      897      MECN     H13      HGA3     0.090000        1.0080           0
      9877 WT4      897      MECN     C2       CG1N1    0.360000       12.0110           0
      9878 WT4      897      MECN     N3       NG1T1   -0.460000       14.0070           0
      9879 WT4      898      MECN     C1       CG331   -0.170000       12.0110           0
      9880 WT4      898      MECN     H11      HGA3     0.090000        1.0080           0
      9881 WT4      898      MECN     H12      HGA3     0.090000        1.0080           0
      9882 WT4      898      MECN     H13      HGA3     0.090000        1.0080           0
      9883 WT4      898      MECN     C2       CG1N1    0.360000       12.0110           0
      9884 WT4      898      MECN     N3       NG1T1   -0.460000       14.0070           0
      9885 WT4      899      MECN     C1       CG331   -0.170000       12.0110           0
      9886 WT4      899      MECN     H11      HGA3     0.090000        1.0080           0
      9887 WT4      899      MECN     H12      HGA3     0.090000        1.0080           0
      9888 WT4      899      MECN     H13      HGA3     0.090000        1.0080           0
      9889 WT4      899      MECN     C2       CG1N1    0.360000       12.0110           0
      9890 WT4      899      MECN     N3       NG1T1   -0.460000       14.0070           0
      9891 WT4      904      MECN     C1       CG331   -0.170000       12.0110           0
      9892 WT4      904      MECN     H11      HGA3     0.090000        1.0080           0
      9893 WT4      904      MECN     H12      HGA3     0.090000        1.0080           0
      9894 WT4      904      MECN     H13      HGA3     0.090000        1.0080           0
      9895 WT4      904      MECN     C2       CG1N1    0.360000       12.0110           0
      9896 WT4      904      MECN     N3       NG1T1   -0.460000       14.0070           0
      9897 WT4      908      MECN     C1       CG331   -0.170000       12.0110           0
      9898 WT4      908      MECN     H11      HGA3     0.090000        1.0080           0
      9899 WT4      908      MECN     H12      HGA3     0.090000        1.0080           0
      9900 WT4      908      MECN     H13      HGA3     0.090000        1.0080           0
      9901 WT4      908      MECN     C2       CG1N1    0.360000       12.0110           0
      9902 WT4      908      MECN     N3       NG1T1   -0.460000       14.0070           0
      9903 WT4      909      MECN     C1       CG331   -0.170000       12.0110           0
      9904 WT4      909      MECN     H11      HGA3     0.090000        1.0080           0
      9905 WT4      909      MECN     H12      HGA3     0.090000        1.0080           0
      9906 WT4      909      MECN     H13      HGA3     0.090000        1.0080           0
      9907 WT4      909      MECN     C2       CG1N1    0.360000       12.0110           0
      9908 WT4      909      MECN     N3       NG1T1   -0.460000       14.0070           0
      9909 WT4      913      MECN     C1       CG331   -0.170000       12.0110           0
      9910 WT4      913      MECN     H11      HGA3     0.090000        1.0080           0
      9911 WT4      913      MECN     H12      HGA3     0.090000        1.0080           0
      9912 WT4      913      MECN     H13      HGA3     0.090000        1.0080           0
      9913 WT4      913      MECN     C2       CG1N1    0.360000       12.0110           0
      9914 WT4      913      MECN     N3       NG1T1   -0.460000       14.0070           0
      9915 WT4      914      MECN     C1       CG331   -0.170000       12.0110           0
      9916 WT4      914      MECN     H11      HGA3     0.090000        1.0080           0
      9917 WT4      914      MECN     H12      HGA3     0.090000        1.0080           0
      9918 WT4      914      MECN     H13      HGA3     0.090000        1.0080           0
      9919 WT4      914      MECN     C2       CG1N1    0.360000       12.0110           0
      9920 WT4      914      MECN     N3       NG1T1   -0.460000       14.0070           0
      9921 WT4      916      MECN     C1       CG331   -0.170000       12.0110           0
      9922 WT4      916      MECN     H11      HGA3     0.090000        1.0080           0
      9923 WT4      916      MECN     H12      HGA3     0.090000        1.0080           0
      9924 WT4      916      MECN     H13      HGA3     0.090000        1.0080           0
      9925 WT4      916      MECN     C2       CG1N1    0.360000       12.0110           0
      9926 WT4      916      MECN     N3       NG1T1   -0.460000       14.0070           0
      9927 WT4      918      MECN     C1       CG331   -0.170000       12.0110           0
      9928 WT4      918      MECN     H11      HGA3     0.090000        1.0080           0
      9929 WT4      918      MECN     H12      HGA3     0.090000        1.0080           0
      9930 WT4      918      MECN     H13      HGA3     0.090000        1.0080           0
      9931 WT4      918      MECN     C2       CG1N1    0.360000       12.0110           0
      9932 WT4      918      MECN     N3       NG1T1   -0.460000       14.0070           0
      9933 WT4      919      MECN     C1       CG331   -0.170000       12.0110           0
      9934 WT4      919      MECN     H11      HGA3     0.090000        1.0080           0
      9935 WT4      919      MECN     H12      HGA3     0.090000        1.0080           0
      9936 WT4      919      MECN     H13      HGA3     0.090000        1.0080           0
      9937 WT4      919      MECN     C2       CG1N1    0.360000       12.0110           0
      9938 WT4      919      MECN     N3       NG1T1   -0.460000       14.0070           0
      9939 WT4      922      MECN     C1       CG331   -0.170000       12.0110           0
      9940 WT4      922      MECN     H11      HGA3     0.090000        1.0080           0
      9941 WT4      922      MECN     H12      HGA3     0.090000        1.0080           0
      9942 WT4      922      MECN     H13      HGA3     0.090000        1.0080           0
      9943 WT4      922      MECN     C2       CG1N1    0.360000       12.0110           0
      9944 WT4      922      MECN     N3       NG1T1   -0.460000       14.0070           0
      9945 WT4      923      MECN     C1       CG331   -0.170000       12.0110           0
      9946 WT4      923      MECN     H11      HGA3     0.090000        1.0080           0
      9947 WT4      923      MECN     H12      HGA3     0.090000        1.0080           0
      9948 WT4      923      MECN     H13      HGA3     0.090000        1.0080           0
      9949 WT4      923      MECN     C2       CG1N1    0.360000       12.0110           0
      9950 WT4      923      MECN     N3       NG1T1   -0.460000       14.0070           0
      9951 WT4      934      MECN     C1       CG331   -0.170000       12.0110           0
      9952 WT4      934      MECN     H11      HGA3     0.090000        1.0080           0
      9953 WT4      934      MECN     H12      HGA3     0.090000        1.0080           0
      9954 WT4      934      MECN     H13      HGA3     0.090000        1.0080           0
      9955 WT4      934      MECN     C2       CG1N1    0.360000       12.0110           0
      9956 WT4      934      MECN     N3       NG1T1   -0.460000       14.0070           0
      9957 WT4      935      MECN     C1       CG331   -0.170000       12.0110           0
      9958 WT4      935      MECN     H11      HGA3     0.090000        1.0080           0
      9959 WT4      935      MECN     H12      HGA3     0.090000        1.0080           0
      9960 WT4      935      MECN     H13      HGA3     0.090000        1.0080           0
      9961 WT4      935      MECN     C2       CG1N1    0.360000       12.0110           0
      9962 WT4      935      MECN     N3       NG1T1   -0.460000       14.0070           0
      9963 WT4      938      MECN     C1       CG331   -0.170000       12.0110           0
      9964 WT4      938      MECN     H11      HGA3     0.090000        1.0080           0
      9965 WT4      938      MECN     H12      HGA3     0.090000        1.0080           0
      9966 WT4      938      MECN     H13      HGA3     0.090000        1.0080           0
      9967 WT4      938      MECN     C2       CG1N1    0.360000       12.0110           0
      9968 WT4      938      MECN     N3       NG1T1   -0.460000       14.0070           0
      9969 WT4      939      MECN     C1       CG331   -0.170000       12.0110           0
      9970 WT4      939      MECN     H11      HGA3     0.090000        1.0080           0
      9971 WT4      939      MECN     H12      HGA3     0.090000        1.0080           0
      9972 WT4      939      MECN     H13      HGA3     0.090000        1.0080           0
      9973 WT4      939      MECN     C2       CG1N1    0.360000       12.0110           0
      9974 WT4      939      MECN     N3       NG1T1   -0.460000       14.0070           0
      9975 WT4      941      MECN     C1       CG331   -0.170000       12.0110           0
      9976 WT4      941      MECN     H11      HGA3     0.090000        1.0080           0
      9977 WT4      941      MECN     H12      HGA3     0.090000        1.0080           0
      9978 WT4      941      MECN     H13      HGA3     0.090000        1.0080           0
      9979 WT4      941      MECN     C2       CG1N1    0.360000       12.0110           0
      9980 WT4      941      MECN     N3       NG1T1   -0.460000       14.0070           0
      9981 WT4      943      MECN     C1       CG331   -0.170000       12.0110           0
      9982 WT4      943      MECN     H11      HGA3     0.090000        1.0080           0
      9983 WT4      943      MECN     H12      HGA3     0.090000        1.0080           0
      9984 WT4      943      MECN     H13      HGA3     0.090000        1.0080           0
      9985 WT4      943      MECN     C2       CG1N1    0.360000       12.0110           0
      9986 WT4      943      MECN     N3       NG1T1   -0.460000       14.0070           0
      9987 WT4      945      MECN     C1       CG331   -0.170000       12.0110           0
      9988 WT4      945      MECN     H11      HGA3     0.090000        1.0080           0
      9989 WT4      945      MECN     H12      HGA3     0.090000        1.0080           0
      9990 WT4      945      MECN     H13      HGA3     0.090000        1.0080           0
      9991 WT4      945      MECN     C2       CG1N1    0.360000       12.0110           0
      9992 WT4      945      MECN     N3       NG1T1   -0.460000       14.0070           0
      9993 WT4      949      MECN     C1       CG331   -0.170000       12.0110           0
      9994 WT4      949      MECN     H11      HGA3     0.090000        1.0080           0
      9995 WT4      949      MECN     H12      HGA3     0.090000        1.0080           0
      9996 WT4      949      MECN     H13      HGA3     0.090000        1.0080           0
      9997 WT4      949      MECN     C2       CG1N1    0.360000       12.0110           0
      9998 WT4      949      MECN     N3       NG1T1   -0.460000       14.0070           0
      9999 WT4      957      MECN     C1       CG331   -0.170000       12.0110           0
     10000 WT4      957      MECN     H11      HGA3     0.090000        1.0080           0
     10001 WT4      957      MECN     H12      HGA3     0.090000        1.0080           0
     10002 WT4      957      MECN     H13      HGA3     0.090000        1.0080           0
     10003 WT4      957      MECN     C2       CG1N1    0.360000       12.0110           0
     10004 WT4      957      MECN     N3       NG1T1   -0.460000       14.0070           0
     10005 WT4      968      MECN     C1       CG331   -0.170000       12.0110           0
     10006 WT4      968      MECN     H11      HGA3     0.090000        1.0080           0
     10007 WT4      968      MECN     H12      HGA3     0.090000        1.0080           0
     10008 WT4      968      MECN     H13      HGA3     0.090000        1.0080           0
     10009 WT4      968      MECN     C2       CG1N1    0.360000       12.0110           0
     10010 WT4      968      MECN     N3       NG1T1   -0.460000       14.0070           0
     10011 WT4      982      MECN     C1       CG331   -0.170000       12.0110           0
     10012 WT4      982      MECN     H11      HGA3     0.090000        1.0080           0
     10013 WT4      982      MECN     H12      HGA3     0.090000        1.0080           0
     10014 WT4      982      MECN     H13      HGA3     0.090000        1.0080           0
     10015 WT4      982      MECN     C2       CG1N1    0.360000       12.0110           0
     10016 WT4      982      MECN     N3       NG1T1   -0.460000       14.0070           0
     10017 WT4      983      MECN     C1       CG331   -0.170000       12.0110           0
     10018 WT4      983      MECN     H11      HGA3     0.090000        1.0080           0
     10019 WT4      983      MECN     H12      HGA3     0.090000        1.0080           0
     10020 WT4      983      MECN     H13      HGA3     0.090000        1.0080           0
     10021 WT4      983      MECN     C2       CG1N1    0.360000       12.0110           0
     10022 WT4      983      MECN     N3       NG1T1   -0.460000       14.0070           0
     10023 WT4      986      MECN     C1       CG331   -0.170000       12.0110           0
     10024 WT4      986      MECN     H11      HGA3     0.090000        1.0080           0
     10025 WT4      986      MECN     H12      HGA3     0.090000        1.0080           0
     10026 WT4      986      MECN     H13      HGA3     0.090000        1.0080           0
     10027 WT4      986      MECN     C2       CG1N1    0.360000       12.0110           0
     10028 WT4      986      MECN     N3       NG1T1   -0.460000       14.0070           0
     10029 WT4      987      MECN     C1       CG331   -0.170000       12.0110           0
     10030 WT4      987      MECN     H11      HGA3     0.090000        1.0080           0
     10031 WT4      987      MECN     H12      HGA3     0.090000        1.0080           0
     10032 WT4      987      MECN     H13      HGA3     0.090000        1.0080           0
     10033 WT4      987      MECN     C2       CG1N1    0.360000       12.0110           0
     10034 WT4      987      MECN     N3       NG1T1   -0.460000       14.0070           0
     10035 WT4      988      MECN     C1       CG331   -0.170000       12.0110           0
     10036 WT4      988      MECN     H11      HGA3     0.090000        1.0080           0
     10037 WT4      988      MECN     H12      HGA3     0.090000        1.0080           0
     10038 WT4      988      MECN     H13      HGA3     0.090000        1.0080           0
     10039 WT4      988      MECN     C2       CG1N1    0.360000       12.0110           0
     10040 WT4      988      MECN     N3       NG1T1   -0.460000       14.0070           0
     10041 WT4      989      MECN     C1       CG331   -0.170000       12.0110           0
     10042 WT4      989      MECN     H11      HGA3     0.090000        1.0080           0
     10043 WT4      989      MECN     H12      HGA3     0.090000        1.0080           0
     10044 WT4      989      MECN     H13      HGA3     0.090000        1.0080           0
     10045 WT4      989      MECN     C2       CG1N1    0.360000       12.0110           0
     10046 WT4      989      MECN     N3       NG1T1   -0.460000       14.0070           0
     10047 WT4      990      MECN     C1       CG331   -0.170000       12.0110           0
     10048 WT4      990      MECN     H11      HGA3     0.090000        1.0080           0
     10049 WT4      990      MECN     H12      HGA3     0.090000        1.0080           0
     10050 WT4      990      MECN     H13      HGA3     0.090000        1.0080           0
     10051 WT4      990      MECN     C2       CG1N1    0.360000       12.0110           0
     10052 WT4      990      MECN     N3       NG1T1   -0.460000       14.0070           0
     10053 WT4      994      MECN     C1       CG331   -0.170000       12.0110           0
     10054 WT4      994      MECN     H11      HGA3     0.090000        1.0080           0
     10055 WT4      994      MECN     H12      HGA3     0.090000        1.0080           0
     10056 WT4      994      MECN     H13      HGA3     0.090000        1.0080           0
     10057 WT4      994      MECN     C2       CG1N1    0.360000       12.0110           0
     10058 WT4      994      MECN     N3       NG1T1   -0.460000       14.0070           0
     10059 WT4      999      MECN     C1       CG331   -0.170000       12.0110           0
     10060 WT4      999      MECN     H11      HGA3     0.090000        1.0080           0
     10061 WT4      999      MECN     H12      HGA3     0.090000        1.0080           0
     10062 WT4      999      MECN     H13      HGA3     0.090000        1.0080           0
     10063 WT4      999      MECN     C2       CG1N1    0.360000       12.0110           0
     10064 WT4      999      MECN     N3       NG1T1   -0.460000       14.0070           0
     10065 WT4      1004     MECN     C1       CG331   -0.170000       12.0110           0
     10066 WT4      1004     MECN     H11      HGA3     0.090000        1.0080           0
     10067 WT4      1004     MECN     H12      HGA3     0.090000        1.0080           0
     10068 WT4      1004     MECN     H13      HGA3     0.090000        1.0080           0
     10069 WT4      1004     MECN     C2       CG1N1    0.360000       12.0110           0
     10070 WT4      1004     MECN     N3       NG1T1   -0.460000       14.0070           0
     10071 WT4      1006     MECN     C1       CG331   -0.170000       12.0110           0
     10072 WT4      1006     MECN     H11      HGA3     0.090000        1.0080           0
     10073 WT4      1006     MECN     H12      HGA3     0.090000        1.0080           0
     10074 WT4      1006     MECN     H13      HGA3     0.090000        1.0080           0
     10075 WT4      1006     MECN     C2       CG1N1    0.360000       12.0110           0
     10076 WT4      1006     MECN     N3       NG1T1   -0.460000       14.0070           0
     10077 WT4      1010     MECN     C1       CG331   -0.170000       12.0110           0
     10078 WT4      1010     MECN     H11      HGA3     0.090000        1.0080           0
     10079 WT4      1010     MECN     H12      HGA3     0.090000        1.0080           0
     10080 WT4      1010     MECN     H13      HGA3     0.090000        1.0080           0
     10081 WT4      1010     MECN     C2       CG1N1    0.360000       12.0110           0
     10082 WT4      1010     MECN     N3       NG1T1   -0.460000       14.0070           0
     10083 WT4      1015     MECN     C1       CG331   -0.170000       12.0110           0
     10084 WT4      1015     MECN     H11      HGA3     0.090000        1.0080           0
     10085 WT4      1015     MECN     H12      HGA3     0.090000        1.0080           0
     10086 WT4      1015     MECN     H13      HGA3     0.090000        1.0080           0
     10087 WT4      1015     MECN     C2       CG1N1    0.360000       12.0110           0
     10088 WT4      1015     MECN     N3       NG1T1   -0.460000       14.0070           0
     10089 WT4      1019     MECN     C1       CG331   -0.170000       12.0110           0
     10090 WT4      1019     MECN     H11      HGA3     0.090000        1.0080           0
     10091 WT4      1019     MECN     H12      HGA3     0.090000        1.0080           0
     10092 WT4      1019     MECN     H13      HGA3     0.090000        1.0080           0
     10093 WT4      1019     MECN     C2       CG1N1    0.360000       12.0110           0
     10094 WT4      1019     MECN     N3       NG1T1   -0.460000       14.0070           0
     10095 WT4      1020     MECN     C1       CG331   -0.170000       12.0110           0
     10096 WT4      1020     MECN     H11      HGA3     0.090000        1.0080           0
     10097 WT4      1020     MECN     H12      HGA3     0.090000        1.0080           0
     10098 WT4      1020     MECN     H13      HGA3     0.090000        1.0080           0
     10099 WT4      1020     MECN     C2       CG1N1    0.360000       12.0110           0
     10100 WT4      1020     MECN     N3       NG1T1   -0.460000       14.0070           0
     10101 WT4      1023     MECN     C1       CG331   -0.170000       12.0110           0
     10102 WT4      1023     MECN     H11      HGA3     0.090000        1.0080           0
     10103 WT4      1023     MECN     H12      HGA3     0.090000        1.0080           0
     10104 WT4      1023     MECN     H13      HGA3     0.090000        1.0080           0
     10105 WT4      1023     MECN     C2       CG1N1    0.360000       12.0110           0
     10106 WT4      1023     MECN     N3       NG1T1   -0.460000       14.0070           0
     10107 WT4      1030     MECN     C1       CG331   -0.170000       12.0110           0
     10108 WT4      1030     MECN     H11      HGA3     0.090000        1.0080           0
     10109 WT4      1030     MECN     H12      HGA3     0.090000        1.0080           0
     10110 WT4      1030     MECN     H13      HGA3     0.090000        1.0080           0
     10111 WT4      1030     MECN     C2       CG1N1    0.360000       12.0110           0
     10112 WT4      1030     MECN     N3       NG1T1   -0.460000       14.0070           0
     10113 WT4      1036     MECN     C1       CG331   -0.170000       12.0110           0
     10114 WT4      1036     MECN     H11      HGA3     0.090000        1.0080           0
     10115 WT4      1036     MECN     H12      HGA3     0.090000        1.0080           0
     10116 WT4      1036     MECN     H13      HGA3     0.090000        1.0080           0
     10117 WT4      1036     MECN     C2       CG1N1    0.360000       12.0110           0
     10118 WT4      1036     MECN     N3       NG1T1   -0.460000       14.0070           0
     10119 WT4      1048     MECN     C1       CG331   -0.170000       12.0110           0
     10120 WT4      1048     MECN     H11      HGA3     0.090000        1.0080           0
     10121 WT4      1048     MECN     H12      HGA3     0.090000        1.0080           0
     10122 WT4      1048     MECN     H13      HGA3     0.090000        1.0080           0
     10123 WT4      1048     MECN     C2       CG1N1    0.360000       12.0110           0
     10124 WT4      1048     MECN     N3       NG1T1   -0.460000       14.0070           0
     10125 WT4      1050     MECN     C1       CG331   -0.170000       12.0110           0
     10126 WT4      1050     MECN     H11      HGA3     0.090000        1.0080           0
     10127 WT4      1050     MECN     H12      HGA3     0.090000        1.0080           0
     10128 WT4      1050     MECN     H13      HGA3     0.090000        1.0080           0
     10129 WT4      1050     MECN     C2       CG1N1    0.360000       12.0110           0
     10130 WT4      1050     MECN     N3       NG1T1   -0.460000       14.0070           0
     10131 WT4      1053     MECN     C1       CG331   -0.170000       12.0110           0
     10132 WT4      1053     MECN     H11      HGA3     0.090000        1.0080           0
     10133 WT4      1053     MECN     H12      HGA3     0.090000        1.0080           0
     10134 WT4      1053     MECN     H13      HGA3     0.090000        1.0080           0
     10135 WT4      1053     MECN     C2       CG1N1    0.360000       12.0110           0
     10136 WT4      1053     MECN     N3       NG1T1   -0.460000       14.0070           0
     10137 WT4      1054     MECN     C1       CG331   -0.170000       12.0110           0
     10138 WT4      1054     MECN     H11      HGA3     0.090000        1.0080           0
     10139 WT4      1054     MECN     H12      HGA3     0.090000        1.0080           0
     10140 WT4      1054     MECN     H13      HGA3     0.090000        1.0080           0
     10141 WT4      1054     MECN     C2       CG1N1    0.360000       12.0110           0
     10142 WT4      1054     MECN     N3       NG1T1   -0.460000       14.0070           0
     10143 WT4      1062     MECN     C1       CG331   -0.170000       12.0110           0
     10144 WT4      1062     MECN     H11      HGA3     0.090000        1.0080           0
     10145 WT4      1062     MECN     H12      HGA3     0.090000        1.0080           0
     10146 WT4      1062     MECN     H13      HGA3     0.090000        1.0080           0
     10147 WT4      1062     MECN     C2       CG1N1    0.360000       12.0110           0
     10148 WT4      1062     MECN     N3       NG1T1   -0.460000       14.0070           0
     10149 WT4      1068     MECN     C1       CG331   -0.170000       12.0110           0
     10150 WT4      1068     MECN     H11      HGA3     0.090000        1.0080           0
     10151 WT4      1068     MECN     H12      HGA3     0.090000        1.0080           0
     10152 WT4      1068     MECN     H13      HGA3     0.090000        1.0080           0
     10153 WT4      1068     MECN     C2       CG1N1    0.360000       12.0110           0
     10154 WT4      1068     MECN     N3       NG1T1   -0.460000       14.0070           0
     10155 WT4      1080     MECN     C1       CG331   -0.170000       12.0110           0
     10156 WT4      1080     MECN     H11      HGA3     0.090000        1.0080           0
     10157 WT4      1080     MECN     H12      HGA3     0.090000        1.0080           0
     10158 WT4      1080     MECN     H13      HGA3     0.090000        1.0080           0
     10159 WT4      1080     MECN     C2       CG1N1    0.360000       12.0110           0
     10160 WT4      1080     MECN     N3       NG1T1   -0.460000       14.0070           0
     10161 WT4      1081     MECN     C1       CG331   -0.170000       12.0110           0
     10162 WT4      1081     MECN     H11      HGA3     0.090000        1.0080           0
     10163 WT4      1081     MECN     H12      HGA3     0.090000        1.0080           0
     10164 WT4      1081     MECN     H13      HGA3     0.090000        1.0080           0
     10165 WT4      1081     MECN     C2       CG1N1    0.360000       12.0110           0
     10166 WT4      1081     MECN     N3       NG1T1   -0.460000       14.0070           0
     10167 WT4      1085     MECN     C1       CG331   -0.170000       12.0110           0
     10168 WT4      1085     MECN     H11      HGA3     0.090000        1.0080           0
     10169 WT4      1085     MECN     H12      HGA3     0.090000        1.0080           0
     10170 WT4      1085     MECN     H13      HGA3     0.090000        1.0080           0
     10171 WT4      1085     MECN     C2       CG1N1    0.360000       12.0110           0
     10172 WT4      1085     MECN     N3       NG1T1   -0.460000       14.0070           0
     10173 WT4      1091     MECN     C1       CG331   -0.170000       12.0110           0
     10174 WT4      1091     MECN     H11      HGA3     0.090000        1.0080           0
     10175 WT4      1091     MECN     H12      HGA3     0.090000        1.0080           0
     10176 WT4      1091     MECN     H13      HGA3     0.090000        1.0080           0
     10177 WT4      1091     MECN     C2       CG1N1    0.360000       12.0110           0
     10178 WT4      1091     MECN     N3       NG1T1   -0.460000       14.0070           0
     10179 WT4      1094     MECN     C1       CG331   -0.170000       12.0110           0
     10180 WT4      1094     MECN     H11      HGA3     0.090000        1.0080           0
     10181 WT4      1094     MECN     H12      HGA3     0.090000        1.0080           0
     10182 WT4      1094     MECN     H13      HGA3     0.090000        1.0080           0
     10183 WT4      1094     MECN     C2       CG1N1    0.360000       12.0110           0
     10184 WT4      1094     MECN     N3       NG1T1   -0.460000       14.0070           0
     10185 WT4      1095     MECN     C1       CG331   -0.170000       12.0110           0
     10186 WT4      1095     MECN     H11      HGA3     0.090000        1.0080           0
     10187 WT4      1095     MECN     H12      HGA3     0.090000        1.0080           0
     10188 WT4      1095     MECN     H13      HGA3     0.090000        1.0080           0
     10189 WT4      1095     MECN     C2       CG1N1    0.360000       12.0110           0
     10190 WT4      1095     MECN     N3       NG1T1   -0.460000       14.0070           0
     10191 WT4      1098     MECN     C1       CG331   -0.170000       12.0110           0
     10192 WT4      1098     MECN     H11      HGA3     0.090000        1.0080           0
     10193 WT4      1098     MECN     H12      HGA3     0.090000        1.0080           0
     10194 WT4      1098     MECN     H13      HGA3     0.090000        1.0080           0
     10195 WT4      1098     MECN     C2       CG1N1    0.360000       12.0110           0
     10196 WT4      1098     MECN     N3       NG1T1   -0.460000       14.0070           0
     10197 WT4      1099     MECN     C1       CG331   -0.170000       12.0110           0
     10198 WT4      1099     MECN     H11      HGA3     0.090000        1.0080           0
     10199 WT4      1099     MECN     H12      HGA3     0.090000        1.0080           0
     10200 WT4      1099     MECN     H13      HGA3     0.090000        1.0080           0
     10201 WT4      1099     MECN     C2       CG1N1    0.360000       12.0110           0
     10202 WT4      1099     MECN     N3       NG1T1   -0.460000       14.0070           0
     10203 WT4      1107     MECN     C1       CG331   -0.170000       12.0110           0
     10204 WT4      1107     MECN     H11      HGA3     0.090000        1.0080           0
     10205 WT4      1107     MECN     H12      HGA3     0.090000        1.0080           0
     10206 WT4      1107     MECN     H13      HGA3     0.090000        1.0080           0
     10207 WT4      1107     MECN     C2       CG1N1    0.360000       12.0110           0
     10208 WT4      1107     MECN     N3       NG1T1   -0.460000       14.0070           0
     10209 WT4      1115     MECN     C1       CG331   -0.170000       12.0110           0
     10210 WT4      1115     MECN     H11      HGA3     0.090000        1.0080           0
     10211 WT4      1115     MECN     H12      HGA3     0.090000        1.0080           0
     10212 WT4      1115     MECN     H13      HGA3     0.090000        1.0080           0
     10213 WT4      1115     MECN     C2       CG1N1    0.360000       12.0110           0
     10214 WT4      1115     MECN     N3       NG1T1   -0.460000       14.0070           0
     10215 WT4      1117     MECN     C1       CG331   -0.170000       12.0110           0
     10216 WT4      1117     MECN     H11      HGA3     0.090000        1.0080           0
     10217 WT4      1117     MECN     H12      HGA3     0.090000        1.0080           0
     10218 WT4      1117     MECN     H13      HGA3     0.090000        1.0080           0
     10219 WT4      1117     MECN     C2       CG1N1    0.360000       12.0110           0
     10220 WT4      1117     MECN     N3       NG1T1   -0.460000       14.0070           0
     10221 WT4      1121     MECN     C1       CG331   -0.170000       12.0110           0
     10222 WT4      1121     MECN     H11      HGA3     0.090000        1.0080           0
     10223 WT4      1121     MECN     H12      HGA3     0.090000        1.0080           0
     10224 WT4      1121     MECN     H13      HGA3     0.090000        1.0080           0
     10225 WT4      1121     MECN     C2       CG1N1    0.360000       12.0110           0
     10226 WT4      1121     MECN     N3       NG1T1   -0.460000       14.0070           0
     10227 WT4      1125     MECN     C1       CG331   -0.170000       12.0110           0
     10228 WT4      1125     MECN     H11      HGA3     0.090000        1.0080           0
     10229 WT4      1125     MECN     H12      HGA3     0.090000        1.0080           0
     10230 WT4      1125     MECN     H13      HGA3     0.090000        1.0080           0
     10231 WT4      1125     MECN     C2       CG1N1    0.360000       12.0110           0
     10232 WT4      1125     MECN     N3       NG1T1   -0.460000       14.0070           0
     10233 WT4      1136     MECN     C1       CG331   -0.170000       12.0110           0
     10234 WT4      1136     MECN     H11      HGA3     0.090000        1.0080           0
     10235 WT4      1136     MECN     H12      HGA3     0.090000        1.0080           0
     10236 WT4      1136     MECN     H13      HGA3     0.090000        1.0080           0
     10237 WT4      1136     MECN     C2       CG1N1    0.360000       12.0110           0
     10238 WT4      1136     MECN     N3       NG1T1   -0.460000       14.0070           0
     10239 WT4      1137     MECN     C1       CG331   -0.170000       12.0110           0
     10240 WT4      1137     MECN     H11      HGA3     0.090000        1.0080           0
     10241 WT4      1137     MECN     H12      HGA3     0.090000        1.0080           0
     10242 WT4      1137     MECN     H13      HGA3     0.090000        1.0080           0
     10243 WT4      1137     MECN     C2       CG1N1    0.360000       12.0110           0
     10244 WT4      1137     MECN     N3       NG1T1   -0.460000       14.0070           0
     10245 WT4      1143     MECN     C1       CG331   -0.170000       12.0110           0
     10246 WT4      1143     MECN     H11      HGA3     0.090000        1.0080           0
     10247 WT4      1143     MECN     H12      HGA3     0.090000        1.0080           0
     10248 WT4      1143     MECN     H13      HGA3     0.090000        1.0080           0
     10249 WT4      1143     MECN     C2       CG1N1    0.360000       12.0110           0
     10250 WT4      1143     MECN     N3       NG1T1   -0.460000       14.0070           0
     10251 WT4      1147     MECN     C1       CG331   -0.170000       12.0110           0
     10252 WT4      1147     MECN     H11      HGA3     0.090000        1.0080           0
     10253 WT4      1147     MECN     H12      HGA3     0.090000        1.0080           0
     10254 WT4      1147     MECN     H13      HGA3     0.090000        1.0080           0
     10255 WT4      1147     MECN     C2       CG1N1    0.360000       12.0110           0
     10256 WT4      1147     MECN     N3       NG1T1   -0.460000       14.0070           0
     10257 WT4      1156     MECN     C1       CG331   -0.170000       12.0110           0
     10258 WT4      1156     MECN     H11      HGA3     0.090000        1.0080           0
     10259 WT4      1156     MECN     H12      HGA3     0.090000        1.0080           0
     10260 WT4      1156     MECN     H13      HGA3     0.090000        1.0080           0
     10261 WT4      1156     MECN     C2       CG1N1    0.360000       12.0110           0
     10262 WT4      1156     MECN     N3       NG1T1   -0.460000       14.0070           0
     10263 WT4      1178     MECN     C1       CG331   -0.170000       12.0110           0
     10264 WT4      1178     MECN     H11      HGA3     0.090000        1.0080           0
     10265 WT4      1178     MECN     H12      HGA3     0.090000        1.0080           0
     10266 WT4      1178     MECN     H13      HGA3     0.090000        1.0080           0
     10267 WT4      1178     MECN     C2       CG1N1    0.360000       12.0110           0
     10268 WT4      1178     MECN     N3       NG1T1   -0.460000       14.0070           0
     10269 WT4      1184     MECN     C1       CG331   -0.170000       12.0110           0
     10270 WT4      1184     MECN     H11      HGA3     0.090000        1.0080           0
     10271 WT4      1184     MECN     H12      HGA3     0.090000        1.0080           0
     10272 WT4      1184     MECN     H13      HGA3     0.090000        1.0080           0
     10273 WT4      1184     MECN     C2       CG1N1    0.360000       12.0110           0
     10274 WT4      1184     MECN     N3       NG1T1   -0.460000       14.0070           0
     10275 WT4      1195     MECN     C1       CG331   -0.170000       12.0110           0
     10276 WT4      1195     MECN     H11      HGA3     0.090000        1.0080           0
     10277 WT4      1195     MECN     H12      HGA3     0.090000        1.0080           0
     10278 WT4      1195     MECN     H13      HGA3     0.090000        1.0080           0
     10279 WT4      1195     MECN     C2       CG1N1    0.360000       12.0110           0
     10280 WT4      1195     MECN     N3       NG1T1   -0.460000       14.0070           0
     10281 WT4      1196     MECN     C1       CG331   -0.170000       12.0110           0
     10282 WT4      1196     MECN     H11      HGA3     0.090000        1.0080           0
     10283 WT4      1196     MECN     H12      HGA3     0.090000        1.0080           0
     10284 WT4      1196     MECN     H13      HGA3     0.090000        1.0080           0
     10285 WT4      1196     MECN     C2       CG1N1    0.360000       12.0110           0
     10286 WT4      1196     MECN     N3       NG1T1   -0.460000       14.0070           0
     10287 WT4      1207     MECN     C1       CG331   -0.170000       12.0110           0
     10288 WT4      1207     MECN     H11      HGA3     0.090000        1.0080           0
     10289 WT4      1207     MECN     H12      HGA3     0.090000        1.0080           0
     10290 WT4      1207     MECN     H13      HGA3     0.090000        1.0080           0
     10291 WT4      1207     MECN     C2       CG1N1    0.360000       12.0110           0
     10292 WT4      1207     MECN     N3       NG1T1   -0.460000       14.0070           0
     10293 WT4      1215     MECN     C1       CG331   -0.170000       12.0110           0
     10294 WT4      1215     MECN     H11      HGA3     0.090000        1.0080           0
     10295 WT4      1215     MECN     H12      HGA3     0.090000        1.0080           0
     10296 WT4      1215     MECN     H13      HGA3     0.090000        1.0080           0
     10297 WT4      1215     MECN     C2       CG1N1    0.360000       12.0110           0
     10298 WT4      1215     MECN     N3       NG1T1   -0.460000       14.0070           0
     10299 WT4      1218     MECN     C1       CG331   -0.170000       12.0110           0
     10300 WT4      1218     MECN     H11      HGA3     0.090000        1.0080           0
     10301 WT4      1218     MECN     H12      HGA3     0.090000        1.0080           0
     10302 WT4      1218     MECN     H13      HGA3     0.090000        1.0080           0
     10303 WT4      1218     MECN     C2       CG1N1    0.360000       12.0110           0
     10304 WT4      1218     MECN     N3       NG1T1   -0.460000       14.0070           0
     10305 WT4      1228     MECN     C1       CG331   -0.170000       12.0110           0
     10306 WT4      1228     MECN     H11      HGA3     0.090000        1.0080           0
     10307 WT4      1228     MECN     H12      HGA3     0.090000        1.0080           0
     10308 WT4      1228     MECN     H13      HGA3     0.090000        1.0080           0
     10309 WT4      1228     MECN     C2       CG1N1    0.360000       12.0110           0
     10310 WT4      1228     MECN     N3       NG1T1   -0.460000       14.0070           0
     10311 WT4      1229     MECN     C1       CG331   -0.170000       12.0110           0
     10312 WT4      1229     MECN     H11      HGA3     0.090000        1.0080           0
     10313 WT4      1229     MECN     H12      HGA3     0.090000        1.0080           0
     10314 WT4      1229     MECN     H13      HGA3     0.090000        1.0080           0
     10315 WT4      1229     MECN     C2       CG1N1    0.360000       12.0110           0
     10316 WT4      1229     MECN     N3       NG1T1   -0.460000       14.0070           0
     10317 WT4      1234     MECN     C1       CG331   -0.170000       12.0110           0
     10318 WT4      1234     MECN     H11      HGA3     0.090000        1.0080           0
     10319 WT4      1234     MECN     H12      HGA3     0.090000        1.0080           0
     10320 WT4      1234     MECN     H13      HGA3     0.090000        1.0080           0
     10321 WT4      1234     MECN     C2       CG1N1    0.360000       12.0110           0
     10322 WT4      1234     MECN     N3       NG1T1   -0.460000       14.0070           0
     10323 WT4      1236     MECN     C1       CG331   -0.170000       12.0110           0
     10324 WT4      1236     MECN     H11      HGA3     0.090000        1.0080           0
     10325 WT4      1236     MECN     H12      HGA3     0.090000        1.0080           0
     10326 WT4      1236     MECN     H13      HGA3     0.090000        1.0080           0
     10327 WT4      1236     MECN     C2       CG1N1    0.360000       12.0110           0
     10328 WT4      1236     MECN     N3       NG1T1   -0.460000       14.0070           0
     10329 WT4      1242     MECN     C1       CG331   -0.170000       12.0110           0
     10330 WT4      1242     MECN     H11      HGA3     0.090000        1.0080           0
     10331 WT4      1242     MECN     H12      HGA3     0.090000        1.0080           0
     10332 WT4      1242     MECN     H13      HGA3     0.090000        1.0080           0
     10333 WT4      1242     MECN     C2       CG1N1    0.360000       12.0110           0
     10334 WT4      1242     MECN     N3       NG1T1   -0.460000       14.0070           0
     10335 WT4      1245     MECN     C1       CG331   -0.170000       12.0110           0
     10336 WT4      1245     MECN     H11      HGA3     0.090000        1.0080           0
     10337 WT4      1245     MECN     H12      HGA3     0.090000        1.0080           0
     10338 WT4      1245     MECN     H13      HGA3     0.090000        1.0080           0
     10339 WT4      1245     MECN     C2       CG1N1    0.360000       12.0110           0
     10340 WT4      1245     MECN     N3       NG1T1   -0.460000       14.0070           0
     10341 WT4      1246     MECN     C1       CG331   -0.170000       12.0110           0
     10342 WT4      1246     MECN     H11      HGA3     0.090000        1.0080           0
     10343 WT4      1246     MECN     H12      HGA3     0.090000        1.0080           0
     10344 WT4      1246     MECN     H13      HGA3     0.090000        1.0080           0
     10345 WT4      1246     MECN     C2       CG1N1    0.360000       12.0110           0
     10346 WT4      1246     MECN     N3       NG1T1   -0.460000       14.0070           0
     10347 WT4      1248     MECN     C1       CG331   -0.170000       12.0110           0
     10348 WT4      1248     MECN     H11      HGA3     0.090000        1.0080           0
     10349 WT4      1248     MECN     H12      HGA3     0.090000        1.0080           0
     10350 WT4      1248     MECN     H13      HGA3     0.090000        1.0080           0
     10351 WT4      1248     MECN     C2       CG1N1    0.360000       12.0110           0
     10352 WT4      1248     MECN     N3       NG1T1   -0.460000       14.0070           0
     10353 WT4      1253     MECN     C1       CG331   -0.170000       12.0110           0
     10354 WT4      1253     MECN     H11      HGA3     0.090000        1.0080           0
     10355 WT4      1253     MECN     H12      HGA3     0.090000        1.0080           0
     10356 WT4      1253     MECN     H13      HGA3     0.090000        1.0080           0
     10357 WT4      1253     MECN     C2       CG1N1    0.360000       12.0110           0
     10358 WT4      1253     MECN     N3       NG1T1   -0.460000       14.0070           0
     10359 WT4      1263     MECN     C1       CG331   -0.170000       12.0110           0
     10360 WT4      1263     MECN     H11      HGA3     0.090000        1.0080           0
     10361 WT4      1263     MECN     H12      HGA3     0.090000        1.0080           0
     10362 WT4      1263     MECN     H13      HGA3     0.090000        1.0080           0
     10363 WT4      1263     MECN     C2       CG1N1    0.360000       12.0110           0
     10364 WT4      1263     MECN     N3       NG1T1   -0.460000       14.0070           0
     10365 WT4      1267     MECN     C1       CG331   -0.170000       12.0110           0
     10366 WT4      1267     MECN     H11      HGA3     0.090000        1.0080           0
     10367 WT4      1267     MECN     H12      HGA3     0.090000        1.0080           0
     10368 WT4      1267     MECN     H13      HGA3     0.090000        1.0080           0
     10369 WT4      1267     MECN     C2       CG1N1    0.360000       12.0110           0
     10370 WT4      1267     MECN     N3       NG1T1   -0.460000       14.0070           0
     10371 WT4      1270     MECN     C1       CG331   -0.170000       12.0110           0
     10372 WT4      1270     MECN     H11      HGA3     0.090000        1.0080           0
     10373 WT4      1270     MECN     H12      HGA3     0.090000        1.0080           0
     10374 WT4      1270     MECN     H13      HGA3     0.090000        1.0080           0
     10375 WT4      1270     MECN     C2       CG1N1    0.360000       12.0110           0
     10376 WT4      1270     MECN     N3       NG1T1   -0.460000       14.0070           0
     10377 WT4      1273     MECN     C1       CG331   -0.170000       12.0110           0
     10378 WT4      1273     MECN     H11      HGA3     0.090000        1.0080           0
     10379 WT4      1273     MECN     H12      HGA3     0.090000        1.0080           0
     10380 WT4      1273     MECN     H13      HGA3     0.090000        1.0080           0
     10381 WT4      1273     MECN     C2       CG1N1    0.360000       12.0110           0
     10382 WT4      1273     MECN     N3       NG1T1   -0.460000       14.0070           0
     10383 WT4      1281     MECN     C1       CG331   -0.170000       12.0110           0
     10384 WT4      1281     MECN     H11      HGA3     0.090000        1.0080           0
     10385 WT4      1281     MECN     H12      HGA3     0.090000        1.0080           0
     10386 WT4      1281     MECN     H13      HGA3     0.090000        1.0080           0
     10387 WT4      1281     MECN     C2       CG1N1    0.360000       12.0110           0
     10388 WT4      1281     MECN     N3       NG1T1   -0.460000       14.0070           0
     10389 WT4      1284     MECN     C1       CG331   -0.170000       12.0110           0
     10390 WT4      1284     MECN     H11      HGA3     0.090000        1.0080           0
     10391 WT4      1284     MECN     H12      HGA3     0.090000        1.0080           0
     10392 WT4      1284     MECN     H13      HGA3     0.090000        1.0080           0
     10393 WT4      1284     MECN     C2       CG1N1    0.360000       12.0110           0
     10394 WT4      1284     MECN     N3       NG1T1   -0.460000       14.0070           0
     10395 WT4      1287     MECN     C1       CG331   -0.170000       12.0110           0
     10396 WT4      1287     MECN     H11      HGA3     0.090000        1.0080           0
     10397 WT4      1287     MECN     H12      HGA3     0.090000        1.0080           0
     10398 WT4      1287     MECN     H13      HGA3     0.090000        1.0080           0
     10399 WT4      1287     MECN     C2       CG1N1    0.360000       12.0110           0
     10400 WT4      1287     MECN     N3       NG1T1   -0.460000       14.0070           0
     10401 WT4      1294     MECN     C1       CG331   -0.170000       12.0110           0
     10402 WT4      1294     MECN     H11      HGA3     0.090000        1.0080           0
     10403 WT4      1294     MECN     H12      HGA3     0.090000        1.0080           0
     10404 WT4      1294     MECN     H13      HGA3     0.090000        1.0080           0
     10405 WT4      1294     MECN     C2       CG1N1    0.360000       12.0110           0
     10406 WT4      1294     MECN     N3       NG1T1   -0.460000       14.0070           0
     10407 WT4      1296     MECN     C1       CG331   -0.170000       12.0110           0
     10408 WT4      1296     MECN     H11      HGA3     0.090000        1.0080           0
     10409 WT4      1296     MECN     H12      HGA3     0.090000        1.0080           0
     10410 WT4      1296     MECN     H13      HGA3     0.090000        1.0080           0
     10411 WT4      1296     MECN     C2       CG1N1    0.360000       12.0110           0
     10412 WT4      1296     MECN     N3       NG1T1   -0.460000       14.0070           0
     10413 WT4      1303     MECN     C1       CG331   -0.170000       12.0110           0
     10414 WT4      1303     MECN     H11      HGA3     0.090000        1.0080           0
     10415 WT4      1303     MECN     H12      HGA3     0.090000        1.0080           0
     10416 WT4      1303     MECN     H13      HGA3     0.090000        1.0080           0
     10417 WT4      1303     MECN     C2       CG1N1    0.360000       12.0110           0
     10418 WT4      1303     MECN     N3       NG1T1   -0.460000       14.0070           0
     10419 WT4      1304     MECN     C1       CG331   -0.170000       12.0110           0
     10420 WT4      1304     MECN     H11      HGA3     0.090000        1.0080           0
     10421 WT4      1304     MECN     H12      HGA3     0.090000        1.0080           0
     10422 WT4      1304     MECN     H13      HGA3     0.090000        1.0080           0
     10423 WT4      1304     MECN     C2       CG1N1    0.360000       12.0110           0
     10424 WT4      1304     MECN     N3       NG1T1   -0.460000       14.0070           0
     10425 WT4      1306     MECN     C1       CG331   -0.170000       12.0110           0
     10426 WT4      1306     MECN     H11      HGA3     0.090000        1.0080           0
     10427 WT4      1306     MECN     H12      HGA3     0.090000        1.0080           0
     10428 WT4      1306     MECN     H13      HGA3     0.090000        1.0080           0
     10429 WT4      1306     MECN     C2       CG1N1    0.360000       12.0110           0
     10430 WT4      1306     MECN     N3       NG1T1   -0.460000       14.0070           0
     10431 WT4      1307     MECN     C1       CG331   -0.170000       12.0110           0
     10432 WT4      1307     MECN     H11      HGA3     0.090000        1.0080           0
     10433 WT4      1307     MECN     H12      HGA3     0.090000        1.0080           0
     10434 WT4      1307     MECN     H13      HGA3     0.090000        1.0080           0
     10435 WT4      1307     MECN     C2       CG1N1    0.360000       12.0110           0
     10436 WT4      1307     MECN     N3       NG1T1   -0.460000       14.0070           0
     10437 WT4      1310     MECN     C1       CG331   -0.170000       12.0110           0
     10438 WT4      1310     MECN     H11      HGA3     0.090000        1.0080           0
     10439 WT4      1310     MECN     H12      HGA3     0.090000        1.0080           0
     10440 WT4      1310     MECN     H13      HGA3     0.090000        1.0080           0
     10441 WT4      1310     MECN     C2       CG1N1    0.360000       12.0110           0
     10442 WT4      1310     MECN     N3       NG1T1   -0.460000       14.0070           0
     10443 WT4      1315     MECN     C1       CG331   -0.170000       12.0110           0
     10444 WT4      1315     MECN     H11      HGA3     0.090000        1.0080           0
     10445 WT4      1315     MECN     H12      HGA3     0.090000        1.0080           0
     10446 WT4      1315     MECN     H13      HGA3     0.090000        1.0080           0
     10447 WT4      1315     MECN     C2       CG1N1    0.360000       12.0110           0
     10448 WT4      1315     MECN     N3       NG1T1   -0.460000       14.0070           0
     10449 WT4      1321     MECN     C1       CG331   -0.170000       12.0110           0
     10450 WT4      1321     MECN     H11      HGA3     0.090000        1.0080           0
     10451 WT4      1321     MECN     H12      HGA3     0.090000        1.0080           0
     10452 WT4      1321     MECN     H13      HGA3     0.090000        1.0080           0
     10453 WT4      1321     MECN     C2       CG1N1    0.360000       12.0110           0
     10454 WT4      1321     MECN     N3       NG1T1   -0.460000       14.0070           0
     10455 WT4      1322     MECN     C1       CG331   -0.170000       12.0110           0
     10456 WT4      1322     MECN     H11      HGA3     0.090000        1.0080           0
     10457 WT4      1322     MECN     H12      HGA3     0.090000        1.0080           0
     10458 WT4      1322     MECN     H13      HGA3     0.090000        1.0080           0
     10459 WT4      1322     MECN     C2       CG1N1    0.360000       12.0110           0
     10460 WT4      1322     MECN     N3       NG1T1   -0.460000       14.0070           0
     10461 WT4      1329     MECN     C1       CG331   -0.170000       12.0110           0
     10462 WT4      1329     MECN     H11      HGA3     0.090000        1.0080           0
     10463 WT4      1329     MECN     H12      HGA3     0.090000        1.0080           0
     10464 WT4      1329     MECN     H13      HGA3     0.090000        1.0080           0
     10465 WT4      1329     MECN     C2       CG1N1    0.360000       12.0110           0
     10466 WT4      1329     MECN     N3       NG1T1   -0.460000       14.0070           0
     10467 WT5      1        MECN     C1       CG331   -0.170000       12.0110           0
     10468 WT5      1        MECN     H11      HGA3     0.090000        1.0080           0
     10469 WT5      1        MECN     H12      HGA3     0.090000        1.0080           0
     10470 WT5      1        MECN     H13      HGA3     0.090000        1.0080           0
     10471 WT5      1        MECN     C2       CG1N1    0.360000       12.0110           0
     10472 WT5      1        MECN     N3       NG1T1   -0.460000       14.0070           0
     10473 WT5      2        MECN     C1       CG331   -0.170000       12.0110           0
     10474 WT5      2        MECN     H11      HGA3     0.090000        1.0080           0
     10475 WT5      2        MECN     H12      HGA3     0.090000        1.0080           0
     10476 WT5      2        MECN     H13      HGA3     0.090000        1.0080           0
     10477 WT5      2        MECN     C2       CG1N1    0.360000       12.0110           0
     10478 WT5      2        MECN     N3       NG1T1   -0.460000       14.0070           0
     10479 WT5      3        MECN     C1       CG331   -0.170000       12.0110           0
     10480 WT5      3        MECN     H11      HGA3     0.090000        1.0080           0
     10481 WT5      3        MECN     H12      HGA3     0.090000        1.0080           0
     10482 WT5      3        MECN     H13      HGA3     0.090000        1.0080           0
     10483 WT5      3        MECN     C2       CG1N1    0.360000       12.0110           0
     10484 WT5      3        MECN     N3       NG1T1   -0.460000       14.0070           0
     10485 WT5      4        MECN     C1       CG331   -0.170000       12.0110           0
     10486 WT5      4        MECN     H11      HGA3     0.090000        1.0080           0
     10487 WT5      4        MECN     H12      HGA3     0.090000        1.0080           0
     10488 WT5      4        MECN     H13      HGA3     0.090000        1.0080           0
     10489 WT5      4        MECN     C2       CG1N1    0.360000       12.0110           0
     10490 WT5      4        MECN     N3       NG1T1   -0.460000       14.0070           0
     10491 WT5      5        MECN     C1       CG331   -0.170000       12.0110           0
     10492 WT5      5        MECN     H11      HGA3     0.090000        1.0080           0
     10493 WT5      5        MECN     H12      HGA3     0.090000        1.0080           0
     10494 WT5      5        MECN     H13      HGA3     0.090000        1.0080           0
     10495 WT5      5        MECN     C2       CG1N1    0.360000       12.0110           0
     10496 WT5      5        MECN     N3       NG1T1   -0.460000       14.0070           0
     10497 WT5      9        MECN     C1       CG331   -0.170000       12.0110           0
     10498 WT5      9        MECN     H11      HGA3     0.090000        1.0080           0
     10499 WT5      9        MECN     H12      HGA3     0.090000        1.0080           0
     10500 WT5      9        MECN     H13      HGA3     0.090000        1.0080           0
     10501 WT5      9        MECN     C2       CG1N1    0.360000       12.0110           0
     10502 WT5      9        MECN     N3       NG1T1   -0.460000       14.0070           0
     10503 WT5      10       MECN     C1       CG331   -0.170000       12.0110           0
     10504 WT5      10       MECN     H11      HGA3     0.090000        1.0080           0
     10505 WT5      10       MECN     H12      HGA3     0.090000        1.0080           0
     10506 WT5      10       MECN     H13      HGA3     0.090000        1.0080           0
     10507 WT5      10       MECN     C2       CG1N1    0.360000       12.0110           0
     10508 WT5      10       MECN     N3       NG1T1   -0.460000       14.0070           0
     10509 WT5      12       MECN     C1       CG331   -0.170000       12.0110           0
     10510 WT5      12       MECN     H11      HGA3     0.090000        1.0080           0
     10511 WT5      12       MECN     H12      HGA3     0.090000        1.0080           0
     10512 WT5      12       MECN     H13      HGA3     0.090000        1.0080           0
     10513 WT5      12       MECN     C2       CG1N1    0.360000       12.0110           0
     10514 WT5      12       MECN     N3       NG1T1   -0.460000       14.0070           0
     10515 WT5      13       MECN     C1       CG331   -0.170000       12.0110           0
     10516 WT5      13       MECN     H11      HGA3     0.090000        1.0080           0
     10517 WT5      13       MECN     H12      HGA3     0.090000        1.0080           0
     10518 WT5      13       MECN     H13      HGA3     0.090000        1.0080           0
     10519 WT5      13       MECN     C2       CG1N1    0.360000       12.0110           0
     10520 WT5      13       MECN     N3       NG1T1   -0.460000       14.0070           0
     10521 WT5      14       MECN     C1       CG331   -0.170000       12.0110           0
     10522 WT5      14       MECN     H11      HGA3     0.090000        1.0080           0
     10523 WT5      14       MECN     H12      HGA3     0.090000        1.0080           0
     10524 WT5      14       MECN     H13      HGA3     0.090000        1.0080           0
     10525 WT5      14       MECN     C2       CG1N1    0.360000       12.0110           0
     10526 WT5      14       MECN     N3       NG1T1   -0.460000       14.0070           0
     10527 WT5      16       MECN     C1       CG331   -0.170000       12.0110           0
     10528 WT5      16       MECN     H11      HGA3     0.090000        1.0080           0
     10529 WT5      16       MECN     H12      HGA3     0.090000        1.0080           0
     10530 WT5      16       MECN     H13      HGA3     0.090000        1.0080           0
     10531 WT5      16       MECN     C2       CG1N1    0.360000       12.0110           0
     10532 WT5      16       MECN     N3       NG1T1   -0.460000       14.0070           0
     10533 WT5      17       MECN     C1       CG331   -0.170000       12.0110           0
     10534 WT5      17       MECN     H11      HGA3     0.090000        1.0080           0
     10535 WT5      17       MECN     H12      HGA3     0.090000        1.0080           0
     10536 WT5      17       MECN     H13      HGA3     0.090000        1.0080           0
     10537 WT5      17       MECN     C2       CG1N1    0.360000       12.0110           0
     10538 WT5      17       MECN     N3       NG1T1   -0.460000       14.0070           0
     10539 WT5      21       MECN     C1       CG331   -0.170000       12.0110           0
     10540 WT5      21       MECN     H11      HGA3     0.090000        1.0080           0
     10541 WT5      21       MECN     H12      HGA3     0.090000        1.0080           0
     10542 WT5      21       MECN     H13      HGA3     0.090000        1.0080           0
     10543 WT5      21       MECN     C2       CG1N1    0.360000       12.0110           0
     10544 WT5      21       MECN     N3       NG1T1   -0.460000       14.0070           0
     10545 WT5      22       MECN     C1       CG331   -0.170000       12.0110           0
     10546 WT5      22       MECN     H11      HGA3     0.090000        1.0080           0
     10547 WT5      22       MECN     H12      HGA3     0.090000        1.0080           0
     10548 WT5      22       MECN     H13      HGA3     0.090000        1.0080           0
     10549 WT5      22       MECN     C2       CG1N1    0.360000       12.0110           0
     10550 WT5      22       MECN     N3       NG1T1   -0.460000       14.0070           0
     10551 WT5      24       MECN     C1       CG331   -0.170000       12.0110           0
     10552 WT5      24       MECN     H11      HGA3     0.090000        1.0080           0
     10553 WT5      24       MECN     H12      HGA3     0.090000        1.0080           0
     10554 WT5      24       MECN     H13      HGA3     0.090000        1.0080           0
     10555 WT5      24       MECN     C2       CG1N1    0.360000       12.0110           0
     10556 WT5      24       MECN     N3       NG1T1   -0.460000       14.0070           0
     10557 WT5      26       MECN     C1       CG331   -0.170000       12.0110           0
     10558 WT5      26       MECN     H11      HGA3     0.090000        1.0080           0
     10559 WT5      26       MECN     H12      HGA3     0.090000        1.0080           0
     10560 WT5      26       MECN     H13      HGA3     0.090000        1.0080           0
     10561 WT5      26       MECN     C2       CG1N1    0.360000       12.0110           0
     10562 WT5      26       MECN     N3       NG1T1   -0.460000       14.0070           0
     10563 WT5      27       MECN     C1       CG331   -0.170000       12.0110           0
     10564 WT5      27       MECN     H11      HGA3     0.090000        1.0080           0
     10565 WT5      27       MECN     H12      HGA3     0.090000        1.0080           0
     10566 WT5      27       MECN     H13      HGA3     0.090000        1.0080           0
     10567 WT5      27       MECN     C2       CG1N1    0.360000       12.0110           0
     10568 WT5      27       MECN     N3       NG1T1   -0.460000       14.0070           0
     10569 WT5      28       MECN     C1       CG331   -0.170000       12.0110           0
     10570 WT5      28       MECN     H11      HGA3     0.090000        1.0080           0
     10571 WT5      28       MECN     H12      HGA3     0.090000        1.0080           0
     10572 WT5      28       MECN     H13      HGA3     0.090000        1.0080           0
     10573 WT5      28       MECN     C2       CG1N1    0.360000       12.0110           0
     10574 WT5      28       MECN     N3       NG1T1   -0.460000       14.0070           0
     10575 WT5      31       MECN     C1       CG331   -0.170000       12.0110           0
     10576 WT5      31       MECN     H11      HGA3     0.090000        1.0080           0
     10577 WT5      31       MECN     H12      HGA3     0.090000        1.0080           0
     10578 WT5      31       MECN     H13      HGA3     0.090000        1.0080           0
     10579 WT5      31       MECN     C2       CG1N1    0.360000       12.0110           0
     10580 WT5      31       MECN     N3       NG1T1   -0.460000       14.0070           0
     10581 WT5      33       MECN     C1       CG331   -0.170000       12.0110           0
     10582 WT5      33       MECN     H11      HGA3     0.090000        1.0080           0
     10583 WT5      33       MECN     H12      HGA3     0.090000        1.0080           0
     10584 WT5      33       MECN     H13      HGA3     0.090000        1.0080           0
     10585 WT5      33       MECN     C2       CG1N1    0.360000       12.0110           0
     10586 WT5      33       MECN     N3       NG1T1   -0.460000       14.0070           0
     10587 WT5      34       MECN     C1       CG331   -0.170000       12.0110           0
     10588 WT5      34       MECN     H11      HGA3     0.090000        1.0080           0
     10589 WT5      34       MECN     H12      HGA3     0.090000        1.0080           0
     10590 WT5      34       MECN     H13      HGA3     0.090000        1.0080           0
     10591 WT5      34       MECN     C2       CG1N1    0.360000       12.0110           0
     10592 WT5      34       MECN     N3       NG1T1   -0.460000       14.0070           0
     10593 WT5      36       MECN     C1       CG331   -0.170000       12.0110           0
     10594 WT5      36       MECN     H11      HGA3     0.090000        1.0080           0
     10595 WT5      36       MECN     H12      HGA3     0.090000        1.0080           0
     10596 WT5      36       MECN     H13      HGA3     0.090000        1.0080           0
     10597 WT5      36       MECN     C2       CG1N1    0.360000       12.0110           0
     10598 WT5      36       MECN     N3       NG1T1   -0.460000       14.0070           0
     10599 WT5      37       MECN     C1       CG331   -0.170000       12.0110           0
     10600 WT5      37       MECN     H11      HGA3     0.090000        1.0080           0
     10601 WT5      37       MECN     H12      HGA3     0.090000        1.0080           0
     10602 WT5      37       MECN     H13      HGA3     0.090000        1.0080           0
     10603 WT5      37       MECN     C2       CG1N1    0.360000       12.0110           0
     10604 WT5      37       MECN     N3       NG1T1   -0.460000       14.0070           0
     10605 WT5      42       MECN     C1       CG331   -0.170000       12.0110           0
     10606 WT5      42       MECN     H11      HGA3     0.090000        1.0080           0
     10607 WT5      42       MECN     H12      HGA3     0.090000        1.0080           0
     10608 WT5      42       MECN     H13      HGA3     0.090000        1.0080           0
     10609 WT5      42       MECN     C2       CG1N1    0.360000       12.0110           0
     10610 WT5      42       MECN     N3       NG1T1   -0.460000       14.0070           0
     10611 WT5      44       MECN     C1       CG331   -0.170000       12.0110           0
     10612 WT5      44       MECN     H11      HGA3     0.090000        1.0080           0
     10613 WT5      44       MECN     H12      HGA3     0.090000        1.0080           0
     10614 WT5      44       MECN     H13      HGA3     0.090000        1.0080           0
     10615 WT5      44       MECN     C2       CG1N1    0.360000       12.0110           0
     10616 WT5      44       MECN     N3       NG1T1   -0.460000       14.0070           0
     10617 WT5      46       MECN     C1       CG331   -0.170000       12.0110           0
     10618 WT5      46       MECN     H11      HGA3     0.090000        1.0080           0
     10619 WT5      46       MECN     H12      HGA3     0.090000        1.0080           0
     10620 WT5      46       MECN     H13      HGA3     0.090000        1.0080           0
     10621 WT5      46       MECN     C2       CG1N1    0.360000       12.0110           0
     10622 WT5      46       MECN     N3       NG1T1   -0.460000       14.0070           0
     10623 WT5      50       MECN     C1       CG331   -0.170000       12.0110           0
     10624 WT5      50       MECN     H11      HGA3     0.090000        1.0080           0
     10625 WT5      50       MECN     H12      HGA3     0.090000        1.0080           0
     10626 WT5      50       MECN     H13      HGA3     0.090000        1.0080           0
     10627 WT5      50       MECN     C2       CG1N1    0.360000       12.0110           0
     10628 WT5      50       MECN     N3       NG1T1   -0.460000       14.0070           0
     10629 WT5      51       MECN     C1       CG331   -0.170000       12.0110           0
     10630 WT5      51       MECN     H11      HGA3     0.090000        1.0080           0
     10631 WT5      51       MECN     H12      HGA3     0.090000        1.0080           0
     10632 WT5      51       MECN     H13      HGA3     0.090000        1.0080           0
     10633 WT5      51       MECN     C2       CG1N1    0.360000       12.0110           0
     10634 WT5      51       MECN     N3       NG1T1   -0.460000       14.0070           0
     10635 WT5      53       MECN     C1       CG331   -0.170000       12.0110           0
     10636 WT5      53       MECN     H11      HGA3     0.090000        1.0080           0
     10637 WT5      53       MECN     H12      HGA3     0.090000        1.0080           0
     10638 WT5      53       MECN     H13      HGA3     0.090000        1.0080           0
     10639 WT5      53       MECN     C2       CG1N1    0.360000       12.0110           0
     10640 WT5      53       MECN     N3       NG1T1   -0.460000       14.0070           0
     10641 WT5      54       MECN     C1       CG331   -0.170000       12.0110           0
     10642 WT5      54       MECN     H11      HGA3     0.090000        1.0080           0
     10643 WT5      54       MECN     H12      HGA3     0.090000        1.0080           0
     10644 WT5      54       MECN     H13      HGA3     0.090000        1.0080           0
     10645 WT5      54       MECN     C2       CG1N1    0.360000       12.0110           0
     10646 WT5      54       MECN     N3       NG1T1   -0.460000       14.0070           0
     10647 WT5      58       MECN     C1       CG331   -0.170000       12.0110           0
     10648 WT5      58       MECN     H11      HGA3     0.090000        1.0080           0
     10649 WT5      58       MECN     H12      HGA3     0.090000        1.0080           0
     10650 WT5      58       MECN     H13      HGA3     0.090000        1.0080           0
     10651 WT5      58       MECN     C2       CG1N1    0.360000       12.0110           0
     10652 WT5      58       MECN     N3       NG1T1   -0.460000       14.0070           0
     10653 WT5      64       MECN     C1       CG331   -0.170000       12.0110           0
     10654 WT5      64       MECN     H11      HGA3     0.090000        1.0080           0
     10655 WT5      64       MECN     H12      HGA3     0.090000        1.0080           0
     10656 WT5      64       MECN     H13      HGA3     0.090000        1.0080           0
     10657 WT5      64       MECN     C2       CG1N1    0.360000       12.0110           0
     10658 WT5      64       MECN     N3       NG1T1   -0.460000       14.0070           0
     10659 WT5      65       MECN     C1       CG331   -0.170000       12.0110           0
     10660 WT5      65       MECN     H11      HGA3     0.090000        1.0080           0
     10661 WT5      65       MECN     H12      HGA3     0.090000        1.0080           0
     10662 WT5      65       MECN     H13      HGA3     0.090000        1.0080           0
     10663 WT5      65       MECN     C2       CG1N1    0.360000       12.0110           0
     10664 WT5      65       MECN     N3       NG1T1   -0.460000       14.0070           0
     10665 WT5      68       MECN     C1       CG331   -0.170000       12.0110           0
     10666 WT5      68       MECN     H11      HGA3     0.090000        1.0080           0
     10667 WT5      68       MECN     H12      HGA3     0.090000        1.0080           0
     10668 WT5      68       MECN     H13      HGA3     0.090000        1.0080           0
     10669 WT5      68       MECN     C2       CG1N1    0.360000       12.0110           0
     10670 WT5      68       MECN     N3       NG1T1   -0.460000       14.0070           0
     10671 WT5      69       MECN     C1       CG331   -0.170000       12.0110           0
     10672 WT5      69       MECN     H11      HGA3     0.090000        1.0080           0
     10673 WT5      69       MECN     H12      HGA3     0.090000        1.0080           0
     10674 WT5      69       MECN     H13      HGA3     0.090000        1.0080           0
     10675 WT5      69       MECN     C2       CG1N1    0.360000       12.0110           0
     10676 WT5      69       MECN     N3       NG1T1   -0.460000       14.0070           0
     10677 WT5      70       MECN     C1       CG331   -0.170000       12.0110           0
     10678 WT5      70       MECN     H11      HGA3     0.090000        1.0080           0
     10679 WT5      70       MECN     H12      HGA3     0.090000        1.0080           0
     10680 WT5      70       MECN     H13      HGA3     0.090000        1.0080           0
     10681 WT5      70       MECN     C2       CG1N1    0.360000       12.0110           0
     10682 WT5      70       MECN     N3       NG1T1   -0.460000       14.0070           0
     10683 WT5      71       MECN     C1       CG331   -0.170000       12.0110           0
     10684 WT5      71       MECN     H11      HGA3     0.090000        1.0080           0
     10685 WT5      71       MECN     H12      HGA3     0.090000        1.0080           0
     10686 WT5      71       MECN     H13      HGA3     0.090000        1.0080           0
     10687 WT5      71       MECN     C2       CG1N1    0.360000       12.0110           0
     10688 WT5      71       MECN     N3       NG1T1   -0.460000       14.0070           0
     10689 WT5      73       MECN     C1       CG331   -0.170000       12.0110           0
     10690 WT5      73       MECN     H11      HGA3     0.090000        1.0080           0
     10691 WT5      73       MECN     H12      HGA3     0.090000        1.0080           0
     10692 WT5      73       MECN     H13      HGA3     0.090000        1.0080           0
     10693 WT5      73       MECN     C2       CG1N1    0.360000       12.0110           0
     10694 WT5      73       MECN     N3       NG1T1   -0.460000       14.0070           0
     10695 WT5      74       MECN     C1       CG331   -0.170000       12.0110           0
     10696 WT5      74       MECN     H11      HGA3     0.090000        1.0080           0
     10697 WT5      74       MECN     H12      HGA3     0.090000        1.0080           0
     10698 WT5      74       MECN     H13      HGA3     0.090000        1.0080           0
     10699 WT5      74       MECN     C2       CG1N1    0.360000       12.0110           0
     10700 WT5      74       MECN     N3       NG1T1   -0.460000       14.0070           0
     10701 WT5      76       MECN     C1       CG331   -0.170000       12.0110           0
     10702 WT5      76       MECN     H11      HGA3     0.090000        1.0080           0
     10703 WT5      76       MECN     H12      HGA3     0.090000        1.0080           0
     10704 WT5      76       MECN     H13      HGA3     0.090000        1.0080           0
     10705 WT5      76       MECN     C2       CG1N1    0.360000       12.0110           0
     10706 WT5      76       MECN     N3       NG1T1   -0.460000       14.0070           0
     10707 WT5      77       MECN     C1       CG331   -0.170000       12.0110           0
     10708 WT5      77       MECN     H11      HGA3     0.090000        1.0080           0
     10709 WT5      77       MECN     H12      HGA3     0.090000        1.0080           0
     10710 WT5      77       MECN     H13      HGA3     0.090000        1.0080           0
     10711 WT5      77       MECN     C2       CG1N1    0.360000       12.0110           0
     10712 WT5      77       MECN     N3       NG1T1   -0.460000       14.0070           0
     10713 WT5      79       MECN     C1       CG331   -0.170000       12.0110           0
     10714 WT5      79       MECN     H11      HGA3     0.090000        1.0080           0
     10715 WT5      79       MECN     H12      HGA3     0.090000        1.0080           0
     10716 WT5      79       MECN     H13      HGA3     0.090000        1.0080           0
     10717 WT5      79       MECN     C2       CG1N1    0.360000       12.0110           0
     10718 WT5      79       MECN     N3       NG1T1   -0.460000       14.0070           0
     10719 WT5      81       MECN     C1       CG331   -0.170000       12.0110           0
     10720 WT5      81       MECN     H11      HGA3     0.090000        1.0080           0
     10721 WT5      81       MECN     H12      HGA3     0.090000        1.0080           0
     10722 WT5      81       MECN     H13      HGA3     0.090000        1.0080           0
     10723 WT5      81       MECN     C2       CG1N1    0.360000       12.0110           0
     10724 WT5      81       MECN     N3       NG1T1   -0.460000       14.0070           0
     10725 WT5      84       MECN     C1       CG331   -0.170000       12.0110           0
     10726 WT5      84       MECN     H11      HGA3     0.090000        1.0080           0
     10727 WT5      84       MECN     H12      HGA3     0.090000        1.0080           0
     10728 WT5      84       MECN     H13      HGA3     0.090000        1.0080           0
     10729 WT5      84       MECN     C2       CG1N1    0.360000       12.0110           0
     10730 WT5      84       MECN     N3       NG1T1   -0.460000       14.0070           0
     10731 WT5      85       MECN     C1       CG331   -0.170000       12.0110           0
     10732 WT5      85       MECN     H11      HGA3     0.090000        1.0080           0
     10733 WT5      85       MECN     H12      HGA3     0.090000        1.0080           0
     10734 WT5      85       MECN     H13      HGA3     0.090000        1.0080           0
     10735 WT5      85       MECN     C2       CG1N1    0.360000       12.0110           0
     10736 WT5      85       MECN     N3       NG1T1   -0.460000       14.0070           0
     10737 WT5      86       MECN     C1       CG331   -0.170000       12.0110           0
     10738 WT5      86       MECN     H11      HGA3     0.090000        1.0080           0
     10739 WT5      86       MECN     H12      HGA3     0.090000        1.0080           0
     10740 WT5      86       MECN     H13      HGA3     0.090000        1.0080           0
     10741 WT5      86       MECN     C2       CG1N1    0.360000       12.0110           0
     10742 WT5      86       MECN     N3       NG1T1   -0.460000       14.0070           0
     10743 WT5      87       MECN     C1       CG331   -0.170000       12.0110           0
     10744 WT5      87       MECN     H11      HGA3     0.090000        1.0080           0
     10745 WT5      87       MECN     H12      HGA3     0.090000        1.0080           0
     10746 WT5      87       MECN     H13      HGA3     0.090000        1.0080           0
     10747 WT5      87       MECN     C2       CG1N1    0.360000       12.0110           0
     10748 WT5      87       MECN     N3       NG1T1   -0.460000       14.0070           0
     10749 WT5      91       MECN     C1       CG331   -0.170000       12.0110           0
     10750 WT5      91       MECN     H11      HGA3     0.090000        1.0080           0
     10751 WT5      91       MECN     H12      HGA3     0.090000        1.0080           0
     10752 WT5      91       MECN     H13      HGA3     0.090000        1.0080           0
     10753 WT5      91       MECN     C2       CG1N1    0.360000       12.0110           0
     10754 WT5      91       MECN     N3       NG1T1   -0.460000       14.0070           0
     10755 WT5      94       MECN     C1       CG331   -0.170000       12.0110           0
     10756 WT5      94       MECN     H11      HGA3     0.090000        1.0080           0
     10757 WT5      94       MECN     H12      HGA3     0.090000        1.0080           0
     10758 WT5      94       MECN     H13      HGA3     0.090000        1.0080           0
     10759 WT5      94       MECN     C2       CG1N1    0.360000       12.0110           0
     10760 WT5      94       MECN     N3       NG1T1   -0.460000       14.0070           0
     10761 WT5      98       MECN     C1       CG331   -0.170000       12.0110           0
     10762 WT5      98       MECN     H11      HGA3     0.090000        1.0080           0
     10763 WT5      98       MECN     H12      HGA3     0.090000        1.0080           0
     10764 WT5      98       MECN     H13      HGA3     0.090000        1.0080           0
     10765 WT5      98       MECN     C2       CG1N1    0.360000       12.0110           0
     10766 WT5      98       MECN     N3       NG1T1   -0.460000       14.0070           0
     10767 WT5      99       MECN     C1       CG331   -0.170000       12.0110           0
     10768 WT5      99       MECN     H11      HGA3     0.090000        1.0080           0
     10769 WT5      99       MECN     H12      HGA3     0.090000        1.0080           0
     10770 WT5      99       MECN     H13      HGA3     0.090000        1.0080           0
     10771 WT5      99       MECN     C2       CG1N1    0.360000       12.0110           0
     10772 WT5      99       MECN     N3       NG1T1   -0.460000       14.0070           0
     10773 WT5      101      MECN     C1       CG331   -0.170000       12.0110           0
     10774 WT5      101      MECN     H11      HGA3     0.090000        1.0080           0
     10775 WT5      101      MECN     H12      HGA3     0.090000        1.0080           0
     10776 WT5      101      MECN     H13      HGA3     0.090000        1.0080           0
     10777 WT5      101      MECN     C2       CG1N1    0.360000       12.0110           0
     10778 WT5      101      MECN     N3       NG1T1   -0.460000       14.0070           0
     10779 WT5      103      MECN     C1       CG331   -0.170000       12.0110           0
     10780 WT5      103      MECN     H11      HGA3     0.090000        1.0080           0
     10781 WT5      103      MECN     H12      HGA3     0.090000        1.0080           0
     10782 WT5      103      MECN     H13      HGA3     0.090000        1.0080           0
     10783 WT5      103      MECN     C2       CG1N1    0.360000       12.0110           0
     10784 WT5      103      MECN     N3       NG1T1   -0.460000       14.0070           0
     10785 WT5      105      MECN     C1       CG331   -0.170000       12.0110           0
     10786 WT5      105      MECN     H11      HGA3     0.090000        1.0080           0
     10787 WT5      105      MECN     H12      HGA3     0.090000        1.0080           0
     10788 WT5      105      MECN     H13      HGA3     0.090000        1.0080           0
     10789 WT5      105      MECN     C2       CG1N1    0.360000       12.0110           0
     10790 WT5      105      MECN     N3       NG1T1   -0.460000       14.0070           0
     10791 WT5      109      MECN     C1       CG331   -0.170000       12.0110           0
     10792 WT5      109      MECN     H11      HGA3     0.090000        1.0080           0
     10793 WT5      109      MECN     H12      HGA3     0.090000        1.0080           0
     10794 WT5      109      MECN     H13      HGA3     0.090000        1.0080           0
     10795 WT5      109      MECN     C2       CG1N1    0.360000       12.0110           0
     10796 WT5      109      MECN     N3       NG1T1   -0.460000       14.0070           0
     10797 WT5      110      MECN     C1       CG331   -0.170000       12.0110           0
     10798 WT5      110      MECN     H11      HGA3     0.090000        1.0080           0
     10799 WT5      110      MECN     H12      HGA3     0.090000        1.0080           0
     10800 WT5      110      MECN     H13      HGA3     0.090000        1.0080           0
     10801 WT5      110      MECN     C2       CG1N1    0.360000       12.0110           0
     10802 WT5      110      MECN     N3       NG1T1   -0.460000       14.0070           0
     10803 WT5      112      MECN     C1       CG331   -0.170000       12.0110           0
     10804 WT5      112      MECN     H11      HGA3     0.090000        1.0080           0
     10805 WT5      112      MECN     H12      HGA3     0.090000        1.0080           0
     10806 WT5      112      MECN     H13      HGA3     0.090000        1.0080           0
     10807 WT5      112      MECN     C2       CG1N1    0.360000       12.0110           0
     10808 WT5      112      MECN     N3       NG1T1   -0.460000       14.0070           0
     10809 WT5      113      MECN     C1       CG331   -0.170000       12.0110           0
     10810 WT5      113      MECN     H11      HGA3     0.090000        1.0080           0
     10811 WT5      113      MECN     H12      HGA3     0.090000        1.0080           0
     10812 WT5      113      MECN     H13      HGA3     0.090000        1.0080           0
     10813 WT5      113      MECN     C2       CG1N1    0.360000       12.0110           0
     10814 WT5      113      MECN     N3       NG1T1   -0.460000       14.0070           0
     10815 WT5      114      MECN     C1       CG331   -0.170000       12.0110           0
     10816 WT5      114      MECN     H11      HGA3     0.090000        1.0080           0
     10817 WT5      114      MECN     H12      HGA3     0.090000        1.0080           0
     10818 WT5      114      MECN     H13      HGA3     0.090000        1.0080           0
     10819 WT5      114      MECN     C2       CG1N1    0.360000       12.0110           0
     10820 WT5      114      MECN     N3       NG1T1   -0.460000       14.0070           0
     10821 WT5      116      MECN     C1       CG331   -0.170000       12.0110           0
     10822 WT5      116      MECN     H11      HGA3     0.090000        1.0080           0
     10823 WT5      116      MECN     H12      HGA3     0.090000        1.0080           0
     10824 WT5      116      MECN     H13      HGA3     0.090000        1.0080           0
     10825 WT5      116      MECN     C2       CG1N1    0.360000       12.0110           0
     10826 WT5      116      MECN     N3       NG1T1   -0.460000       14.0070           0
     10827 WT5      120      MECN     C1       CG331   -0.170000       12.0110           0
     10828 WT5      120      MECN     H11      HGA3     0.090000        1.0080           0
     10829 WT5      120      MECN     H12      HGA3     0.090000        1.0080           0
     10830 WT5      120      MECN     H13      HGA3     0.090000        1.0080           0
     10831 WT5      120      MECN     C2       CG1N1    0.360000       12.0110           0
     10832 WT5      120      MECN     N3       NG1T1   -0.460000       14.0070           0
     10833 WT5      123      MECN     C1       CG331   -0.170000       12.0110           0
     10834 WT5      123      MECN     H11      HGA3     0.090000        1.0080           0
     10835 WT5      123      MECN     H12      HGA3     0.090000        1.0080           0
     10836 WT5      123      MECN     H13      HGA3     0.090000        1.0080           0
     10837 WT5      123      MECN     C2       CG1N1    0.360000       12.0110           0
     10838 WT5      123      MECN     N3       NG1T1   -0.460000       14.0070           0
     10839 WT5      125      MECN     C1       CG331   -0.170000       12.0110           0
     10840 WT5      125      MECN     H11      HGA3     0.090000        1.0080           0
     10841 WT5      125      MECN     H12      HGA3     0.090000        1.0080           0
     10842 WT5      125      MECN     H13      HGA3     0.090000        1.0080           0
     10843 WT5      125      MECN     C2       CG1N1    0.360000       12.0110           0
     10844 WT5      125      MECN     N3       NG1T1   -0.460000       14.0070           0
     10845 WT5      127      MECN     C1       CG331   -0.170000       12.0110           0
     10846 WT5      127      MECN     H11      HGA3     0.090000        1.0080           0
     10847 WT5      127      MECN     H12      HGA3     0.090000        1.0080           0
     10848 WT5      127      MECN     H13      HGA3     0.090000        1.0080           0
     10849 WT5      127      MECN     C2       CG1N1    0.360000       12.0110           0
     10850 WT5      127      MECN     N3       NG1T1   -0.460000       14.0070           0
     10851 WT5      128      MECN     C1       CG331   -0.170000       12.0110           0
     10852 WT5      128      MECN     H11      HGA3     0.090000        1.0080           0
     10853 WT5      128      MECN     H12      HGA3     0.090000        1.0080           0
     10854 WT5      128      MECN     H13      HGA3     0.090000        1.0080           0
     10855 WT5      128      MECN     C2       CG1N1    0.360000       12.0110           0
     10856 WT5      128      MECN     N3       NG1T1   -0.460000       14.0070           0
     10857 WT5      132      MECN     C1       CG331   -0.170000       12.0110           0
     10858 WT5      132      MECN     H11      HGA3     0.090000        1.0080           0
     10859 WT5      132      MECN     H12      HGA3     0.090000        1.0080           0
     10860 WT5      132      MECN     H13      HGA3     0.090000        1.0080           0
     10861 WT5      132      MECN     C2       CG1N1    0.360000       12.0110           0
     10862 WT5      132      MECN     N3       NG1T1   -0.460000       14.0070           0
     10863 WT5      138      MECN     C1       CG331   -0.170000       12.0110           0
     10864 WT5      138      MECN     H11      HGA3     0.090000        1.0080           0
     10865 WT5      138      MECN     H12      HGA3     0.090000        1.0080           0
     10866 WT5      138      MECN     H13      HGA3     0.090000        1.0080           0
     10867 WT5      138      MECN     C2       CG1N1    0.360000       12.0110           0
     10868 WT5      138      MECN     N3       NG1T1   -0.460000       14.0070           0
     10869 WT5      139      MECN     C1       CG331   -0.170000       12.0110           0
     10870 WT5      139      MECN     H11      HGA3     0.090000        1.0080           0
     10871 WT5      139      MECN     H12      HGA3     0.090000        1.0080           0
     10872 WT5      139      MECN     H13      HGA3     0.090000        1.0080           0
     10873 WT5      139      MECN     C2       CG1N1    0.360000       12.0110           0
     10874 WT5      139      MECN     N3       NG1T1   -0.460000       14.0070           0
     10875 WT5      140      MECN     C1       CG331   -0.170000       12.0110           0
     10876 WT5      140      MECN     H11      HGA3     0.090000        1.0080           0
     10877 WT5      140      MECN     H12      HGA3     0.090000        1.0080           0
     10878 WT5      140      MECN     H13      HGA3     0.090000        1.0080           0
     10879 WT5      140      MECN     C2       CG1N1    0.360000       12.0110           0
     10880 WT5      140      MECN     N3       NG1T1   -0.460000       14.0070           0
     10881 WT5      149      MECN     C1       CG331   -0.170000       12.0110           0
     10882 WT5      149      MECN     H11      HGA3     0.090000        1.0080           0
     10883 WT5      149      MECN     H12      HGA3     0.090000        1.0080           0
     10884 WT5      149      MECN     H13      HGA3     0.090000        1.0080           0
     10885 WT5      149      MECN     C2       CG1N1    0.360000       12.0110           0
     10886 WT5      149      MECN     N3       NG1T1   -0.460000       14.0070           0
     10887 WT5      155      MECN     C1       CG331   -0.170000       12.0110           0
     10888 WT5      155      MECN     H11      HGA3     0.090000        1.0080           0
     10889 WT5      155      MECN     H12      HGA3     0.090000        1.0080           0
     10890 WT5      155      MECN     H13      HGA3     0.090000        1.0080           0
     10891 WT5      155      MECN     C2       CG1N1    0.360000       12.0110           0
     10892 WT5      155      MECN     N3       NG1T1   -0.460000       14.0070           0
     10893 WT5      156      MECN     C1       CG331   -0.170000       12.0110           0
     10894 WT5      156      MECN     H11      HGA3     0.090000        1.0080           0
     10895 WT5      156      MECN     H12      HGA3     0.090000        1.0080           0
     10896 WT5      156      MECN     H13      HGA3     0.090000        1.0080           0
     10897 WT5      156      MECN     C2       CG1N1    0.360000       12.0110           0
     10898 WT5      156      MECN     N3       NG1T1   -0.460000       14.0070           0
     10899 WT5      157      MECN     C1       CG331   -0.170000       12.0110           0
     10900 WT5      157      MECN     H11      HGA3     0.090000        1.0080           0
     10901 WT5      157      MECN     H12      HGA3     0.090000        1.0080           0
     10902 WT5      157      MECN     H13      HGA3     0.090000        1.0080           0
     10903 WT5      157      MECN     C2       CG1N1    0.360000       12.0110           0
     10904 WT5      157      MECN     N3       NG1T1   -0.460000       14.0070           0
     10905 WT5      158      MECN     C1       CG331   -0.170000       12.0110           0
     10906 WT5      158      MECN     H11      HGA3     0.090000        1.0080           0
     10907 WT5      158      MECN     H12      HGA3     0.090000        1.0080           0
     10908 WT5      158      MECN     H13      HGA3     0.090000        1.0080           0
     10909 WT5      158      MECN     C2       CG1N1    0.360000       12.0110           0
     10910 WT5      158      MECN     N3       NG1T1   -0.460000       14.0070           0
     10911 WT5      160      MECN     C1       CG331   -0.170000       12.0110           0
     10912 WT5      160      MECN     H11      HGA3     0.090000        1.0080           0
     10913 WT5      160      MECN     H12      HGA3     0.090000        1.0080           0
     10914 WT5      160      MECN     H13      HGA3     0.090000        1.0080           0
     10915 WT5      160      MECN     C2       CG1N1    0.360000       12.0110           0
     10916 WT5      160      MECN     N3       NG1T1   -0.460000       14.0070           0
     10917 WT5      170      MECN     C1       CG331   -0.170000       12.0110           0
     10918 WT5      170      MECN     H11      HGA3     0.090000        1.0080           0
     10919 WT5      170      MECN     H12      HGA3     0.090000        1.0080           0
     10920 WT5      170      MECN     H13      HGA3     0.090000        1.0080           0
     10921 WT5      170      MECN     C2       CG1N1    0.360000       12.0110           0
     10922 WT5      170      MECN     N3       NG1T1   -0.460000       14.0070           0
     10923 WT5      171      MECN     C1       CG331   -0.170000       12.0110           0
     10924 WT5      171      MECN     H11      HGA3     0.090000        1.0080           0
     10925 WT5      171      MECN     H12      HGA3     0.090000        1.0080           0
     10926 WT5      171      MECN     H13      HGA3     0.090000        1.0080           0
     10927 WT5      171      MECN     C2       CG1N1    0.360000       12.0110           0
     10928 WT5      171      MECN     N3       NG1T1   -0.460000       14.0070           0
     10929 WT5      172      MECN     C1       CG331   -0.170000       12.0110           0
     10930 WT5      172      MECN     H11      HGA3     0.090000        1.0080           0
     10931 WT5      172      MECN     H12      HGA3     0.090000        1.0080           0
     10932 WT5      172      MECN     H13      HGA3     0.090000        1.0080           0
     10933 WT5      172      MECN     C2       CG1N1    0.360000       12.0110           0
     10934 WT5      172      MECN     N3       NG1T1   -0.460000       14.0070           0
     10935 WT5      174      MECN     C1       CG331   -0.170000       12.0110           0
     10936 WT5      174      MECN     H11      HGA3     0.090000        1.0080           0
     10937 WT5      174      MECN     H12      HGA3     0.090000        1.0080           0
     10938 WT5      174      MECN     H13      HGA3     0.090000        1.0080           0
     10939 WT5      174      MECN     C2       CG1N1    0.360000       12.0110           0
     10940 WT5      174      MECN     N3       NG1T1   -0.460000       14.0070           0
     10941 WT5      176      MECN     C1       CG331   -0.170000       12.0110           0
     10942 WT5      176      MECN     H11      HGA3     0.090000        1.0080           0
     10943 WT5      176      MECN     H12      HGA3     0.090000        1.0080           0
     10944 WT5      176      MECN     H13      HGA3     0.090000        1.0080           0
     10945 WT5      176      MECN     C2       CG1N1    0.360000       12.0110           0
     10946 WT5      176      MECN     N3       NG1T1   -0.460000       14.0070           0
     10947 WT5      180      MECN     C1       CG331   -0.170000       12.0110           0
     10948 WT5      180      MECN     H11      HGA3     0.090000        1.0080           0
     10949 WT5      180      MECN     H12      HGA3     0.090000        1.0080           0
     10950 WT5      180      MECN     H13      HGA3     0.090000        1.0080           0
     10951 WT5      180      MECN     C2       CG1N1    0.360000       12.0110           0
     10952 WT5      180      MECN     N3       NG1T1   -0.460000       14.0070           0
     10953 WT5      183      MECN     C1       CG331   -0.170000       12.0110           0
     10954 WT5      183      MECN     H11      HGA3     0.090000        1.0080           0
     10955 WT5      183      MECN     H12      HGA3     0.090000        1.0080           0
     10956 WT5      183      MECN     H13      HGA3     0.090000        1.0080           0
     10957 WT5      183      MECN     C2       CG1N1    0.360000       12.0110           0
     10958 WT5      183      MECN     N3       NG1T1   -0.460000       14.0070           0
     10959 WT5      185      MECN     C1       CG331   -0.170000       12.0110           0
     10960 WT5      185      MECN     H11      HGA3     0.090000        1.0080           0
     10961 WT5      185      MECN     H12      HGA3     0.090000        1.0080           0
     10962 WT5      185      MECN     H13      HGA3     0.090000        1.0080           0
     10963 WT5      185      MECN     C2       CG1N1    0.360000       12.0110           0
     10964 WT5      185      MECN     N3       NG1T1   -0.460000       14.0070           0
     10965 WT5      187      MECN     C1       CG331   -0.170000       12.0110           0
     10966 WT5      187      MECN     H11      HGA3     0.090000        1.0080           0
     10967 WT5      187      MECN     H12      HGA3     0.090000        1.0080           0
     10968 WT5      187      MECN     H13      HGA3     0.090000        1.0080           0
     10969 WT5      187      MECN     C2       CG1N1    0.360000       12.0110           0
     10970 WT5      187      MECN     N3       NG1T1   -0.460000       14.0070           0
     10971 WT5      188      MECN     C1       CG331   -0.170000       12.0110           0
     10972 WT5      188      MECN     H11      HGA3     0.090000        1.0080           0
     10973 WT5      188      MECN     H12      HGA3     0.090000        1.0080           0
     10974 WT5      188      MECN     H13      HGA3     0.090000        1.0080           0
     10975 WT5      188      MECN     C2       CG1N1    0.360000       12.0110           0
     10976 WT5      188      MECN     N3       NG1T1   -0.460000       14.0070           0
     10977 WT5      197      MECN     C1       CG331   -0.170000       12.0110           0
     10978 WT5      197      MECN     H11      HGA3     0.090000        1.0080           0
     10979 WT5      197      MECN     H12      HGA3     0.090000        1.0080           0
     10980 WT5      197      MECN     H13      HGA3     0.090000        1.0080           0
     10981 WT5      197      MECN     C2       CG1N1    0.360000       12.0110           0
     10982 WT5      197      MECN     N3       NG1T1   -0.460000       14.0070           0
     10983 WT5      200      MECN     C1       CG331   -0.170000       12.0110           0
     10984 WT5      200      MECN     H11      HGA3     0.090000        1.0080           0
     10985 WT5      200      MECN     H12      HGA3     0.090000        1.0080           0
     10986 WT5      200      MECN     H13      HGA3     0.090000        1.0080           0
     10987 WT5      200      MECN     C2       CG1N1    0.360000       12.0110           0
     10988 WT5      200      MECN     N3       NG1T1   -0.460000       14.0070           0
     10989 WT5      206      MECN     C1       CG331   -0.170000       12.0110           0
     10990 WT5      206      MECN     H11      HGA3     0.090000        1.0080           0
     10991 WT5      206      MECN     H12      HGA3     0.090000        1.0080           0
     10992 WT5      206      MECN     H13      HGA3     0.090000        1.0080           0
     10993 WT5      206      MECN     C2       CG1N1    0.360000       12.0110           0
     10994 WT5      206      MECN     N3       NG1T1   -0.460000       14.0070           0
     10995 WT5      209      MECN     C1       CG331   -0.170000       12.0110           0
     10996 WT5      209      MECN     H11      HGA3     0.090000        1.0080           0
     10997 WT5      209      MECN     H12      HGA3     0.090000        1.0080           0
     10998 WT5      209      MECN     H13      HGA3     0.090000        1.0080           0
     10999 WT5      209      MECN     C2       CG1N1    0.360000       12.0110           0
     11000 WT5      209      MECN     N3       NG1T1   -0.460000       14.0070           0
     11001 WT5      210      MECN     C1       CG331   -0.170000       12.0110           0
     11002 WT5      210      MECN     H11      HGA3     0.090000        1.0080           0
     11003 WT5      210      MECN     H12      HGA3     0.090000        1.0080           0
     11004 WT5      210      MECN     H13      HGA3     0.090000        1.0080           0
     11005 WT5      210      MECN     C2       CG1N1    0.360000       12.0110           0
     11006 WT5      210      MECN     N3       NG1T1   -0.460000       14.0070           0
     11007 WT5      214      MECN     C1       CG331   -0.170000       12.0110           0
     11008 WT5      214      MECN     H11      HGA3     0.090000        1.0080           0
     11009 WT5      214      MECN     H12      HGA3     0.090000        1.0080           0
     11010 WT5      214      MECN     H13      HGA3     0.090000        1.0080           0
     11011 WT5      214      MECN     C2       CG1N1    0.360000       12.0110           0
     11012 WT5      214      MECN     N3       NG1T1   -0.460000       14.0070           0
     11013 WT5      215      MECN     C1       CG331   -0.170000       12.0110           0
     11014 WT5      215      MECN     H11      HGA3     0.090000        1.0080           0
     11015 WT5      215      MECN     H12      HGA3     0.090000        1.0080           0
     11016 WT5      215      MECN     H13      HGA3     0.090000        1.0080           0
     11017 WT5      215      MECN     C2       CG1N1    0.360000       12.0110           0
     11018 WT5      215      MECN     N3       NG1T1   -0.460000       14.0070           0
     11019 WT5      216      MECN     C1       CG331   -0.170000       12.0110           0
     11020 WT5      216      MECN     H11      HGA3     0.090000        1.0080           0
     11021 WT5      216      MECN     H12      HGA3     0.090000        1.0080           0
     11022 WT5      216      MECN     H13      HGA3     0.090000        1.0080           0
     11023 WT5      216      MECN     C2       CG1N1    0.360000       12.0110           0
     11024 WT5      216      MECN     N3       NG1T1   -0.460000       14.0070           0
     11025 WT5      220      MECN     C1       CG331   -0.170000       12.0110           0
     11026 WT5      220      MECN     H11      HGA3     0.090000        1.0080           0
     11027 WT5      220      MECN     H12      HGA3     0.090000        1.0080           0
     11028 WT5      220      MECN     H13      HGA3     0.090000        1.0080           0
     11029 WT5      220      MECN     C2       CG1N1    0.360000       12.0110           0
     11030 WT5      220      MECN     N3       NG1T1   -0.460000       14.0070           0
     11031 WT5      222      MECN     C1       CG331   -0.170000       12.0110           0
     11032 WT5      222      MECN     H11      HGA3     0.090000        1.0080           0
     11033 WT5      222      MECN     H12      HGA3     0.090000        1.0080           0
     11034 WT5      222      MECN     H13      HGA3     0.090000        1.0080           0
     11035 WT5      222      MECN     C2       CG1N1    0.360000       12.0110           0
     11036 WT5      222      MECN     N3       NG1T1   -0.460000       14.0070           0
     11037 WT5      224      MECN     C1       CG331   -0.170000       12.0110           0
     11038 WT5      224      MECN     H11      HGA3     0.090000        1.0080           0
     11039 WT5      224      MECN     H12      HGA3     0.090000        1.0080           0
     11040 WT5      224      MECN     H13      HGA3     0.090000        1.0080           0
     11041 WT5      224      MECN     C2       CG1N1    0.360000       12.0110           0
     11042 WT5      224      MECN     N3       NG1T1   -0.460000       14.0070           0
     11043 WT5      226      MECN     C1       CG331   -0.170000       12.0110           0
     11044 WT5      226      MECN     H11      HGA3     0.090000        1.0080           0
     11045 WT5      226      MECN     H12      HGA3     0.090000        1.0080           0
     11046 WT5      226      MECN     H13      HGA3     0.090000        1.0080           0
     11047 WT5      226      MECN     C2       CG1N1    0.360000       12.0110           0
     11048 WT5      226      MECN     N3       NG1T1   -0.460000       14.0070           0
     11049 WT5      227      MECN     C1       CG331   -0.170000       12.0110           0
     11050 WT5      227      MECN     H11      HGA3     0.090000        1.0080           0
     11051 WT5      227      MECN     H12      HGA3     0.090000        1.0080           0
     11052 WT5      227      MECN     H13      HGA3     0.090000        1.0080           0
     11053 WT5      227      MECN     C2       CG1N1    0.360000       12.0110           0
     11054 WT5      227      MECN     N3       NG1T1   -0.460000       14.0070           0
     11055 WT5      228      MECN     C1       CG331   -0.170000       12.0110           0
     11056 WT5      228      MECN     H11      HGA3     0.090000        1.0080           0
     11057 WT5      228      MECN     H12      HGA3     0.090000        1.0080           0
     11058 WT5      228      MECN     H13      HGA3     0.090000        1.0080           0
     11059 WT5      228      MECN     C2       CG1N1    0.360000       12.0110           0
     11060 WT5      228      MECN     N3       NG1T1   -0.460000       14.0070           0
     11061 WT5      229      MECN     C1       CG331   -0.170000       12.0110           0
     11062 WT5      229      MECN     H11      HGA3     0.090000        1.0080           0
     11063 WT5      229      MECN     H12      HGA3     0.090000        1.0080           0
     11064 WT5      229      MECN     H13      HGA3     0.090000        1.0080           0
     11065 WT5      229      MECN     C2       CG1N1    0.360000       12.0110           0
     11066 WT5      229      MECN     N3       NG1T1   -0.460000       14.0070           0
     11067 WT5      234      MECN     C1       CG331   -0.170000       12.0110           0
     11068 WT5      234      MECN     H11      HGA3     0.090000        1.0080           0
     11069 WT5      234      MECN     H12      HGA3     0.090000        1.0080           0
     11070 WT5      234      MECN     H13      HGA3     0.090000        1.0080           0
     11071 WT5      234      MECN     C2       CG1N1    0.360000       12.0110           0
     11072 WT5      234      MECN     N3       NG1T1   -0.460000       14.0070           0
     11073 WT5      236      MECN     C1       CG331   -0.170000       12.0110           0
     11074 WT5      236      MECN     H11      HGA3     0.090000        1.0080           0
     11075 WT5      236      MECN     H12      HGA3     0.090000        1.0080           0
     11076 WT5      236      MECN     H13      HGA3     0.090000        1.0080           0
     11077 WT5      236      MECN     C2       CG1N1    0.360000       12.0110           0
     11078 WT5      236      MECN     N3       NG1T1   -0.460000       14.0070           0
     11079 WT5      237      MECN     C1       CG331   -0.170000       12.0110           0
     11080 WT5      237      MECN     H11      HGA3     0.090000        1.0080           0
     11081 WT5      237      MECN     H12      HGA3     0.090000        1.0080           0
     11082 WT5      237      MECN     H13      HGA3     0.090000        1.0080           0
     11083 WT5      237      MECN     C2       CG1N1    0.360000       12.0110           0
     11084 WT5      237      MECN     N3       NG1T1   -0.460000       14.0070           0
     11085 WT5      238      MECN     C1       CG331   -0.170000       12.0110           0
     11086 WT5      238      MECN     H11      HGA3     0.090000        1.0080           0
     11087 WT5      238      MECN     H12      HGA3     0.090000        1.0080           0
     11088 WT5      238      MECN     H13      HGA3     0.090000        1.0080           0
     11089 WT5      238      MECN     C2       CG1N1    0.360000       12.0110           0
     11090 WT5      238      MECN     N3       NG1T1   -0.460000       14.0070           0
     11091 WT5      239      MECN     C1       CG331   -0.170000       12.0110           0
     11092 WT5      239      MECN     H11      HGA3     0.090000        1.0080           0
     11093 WT5      239      MECN     H12      HGA3     0.090000        1.0080           0
     11094 WT5      239      MECN     H13      HGA3     0.090000        1.0080           0
     11095 WT5      239      MECN     C2       CG1N1    0.360000       12.0110           0
     11096 WT5      239      MECN     N3       NG1T1   -0.460000       14.0070           0
     11097 WT5      240      MECN     C1       CG331   -0.170000       12.0110           0
     11098 WT5      240      MECN     H11      HGA3     0.090000        1.0080           0
     11099 WT5      240      MECN     H12      HGA3     0.090000        1.0080           0
     11100 WT5      240      MECN     H13      HGA3     0.090000        1.0080           0
     11101 WT5      240      MECN     C2       CG1N1    0.360000       12.0110           0
     11102 WT5      240      MECN     N3       NG1T1   -0.460000       14.0070           0
     11103 WT5      242      MECN     C1       CG331   -0.170000       12.0110           0
     11104 WT5      242      MECN     H11      HGA3     0.090000        1.0080           0
     11105 WT5      242      MECN     H12      HGA3     0.090000        1.0080           0
     11106 WT5      242      MECN     H13      HGA3     0.090000        1.0080           0
     11107 WT5      242      MECN     C2       CG1N1    0.360000       12.0110           0
     11108 WT5      242      MECN     N3       NG1T1   -0.460000       14.0070           0
     11109 WT5      245      MECN     C1       CG331   -0.170000       12.0110           0
     11110 WT5      245      MECN     H11      HGA3     0.090000        1.0080           0
     11111 WT5      245      MECN     H12      HGA3     0.090000        1.0080           0
     11112 WT5      245      MECN     H13      HGA3     0.090000        1.0080           0
     11113 WT5      245      MECN     C2       CG1N1    0.360000       12.0110           0
     11114 WT5      245      MECN     N3       NG1T1   -0.460000       14.0070           0
     11115 WT5      249      MECN     C1       CG331   -0.170000       12.0110           0
     11116 WT5      249      MECN     H11      HGA3     0.090000        1.0080           0
     11117 WT5      249      MECN     H12      HGA3     0.090000        1.0080           0
     11118 WT5      249      MECN     H13      HGA3     0.090000        1.0080           0
     11119 WT5      249      MECN     C2       CG1N1    0.360000       12.0110           0
     11120 WT5      249      MECN     N3       NG1T1   -0.460000       14.0070           0
     11121 WT5      250      MECN     C1       CG331   -0.170000       12.0110           0
     11122 WT5      250      MECN     H11      HGA3     0.090000        1.0080           0
     11123 WT5      250      MECN     H12      HGA3     0.090000        1.0080           0
     11124 WT5      250      MECN     H13      HGA3     0.090000        1.0080           0
     11125 WT5      250      MECN     C2       CG1N1    0.360000       12.0110           0
     11126 WT5      250      MECN     N3       NG1T1   -0.460000       14.0070           0
     11127 WT5      254      MECN     C1       CG331   -0.170000       12.0110           0
     11128 WT5      254      MECN     H11      HGA3     0.090000        1.0080           0
     11129 WT5      254      MECN     H12      HGA3     0.090000        1.0080           0
     11130 WT5      254      MECN     H13      HGA3     0.090000        1.0080           0
     11131 WT5      254      MECN     C2       CG1N1    0.360000       12.0110           0
     11132 WT5      254      MECN     N3       NG1T1   -0.460000       14.0070           0
     11133 WT5      256      MECN     C1       CG331   -0.170000       12.0110           0
     11134 WT5      256      MECN     H11      HGA3     0.090000        1.0080           0
     11135 WT5      256      MECN     H12      HGA3     0.090000        1.0080           0
     11136 WT5      256      MECN     H13      HGA3     0.090000        1.0080           0
     11137 WT5      256      MECN     C2       CG1N1    0.360000       12.0110           0
     11138 WT5      256      MECN     N3       NG1T1   -0.460000       14.0070           0
     11139 WT5      259      MECN     C1       CG331   -0.170000       12.0110           0
     11140 WT5      259      MECN     H11      HGA3     0.090000        1.0080           0
     11141 WT5      259      MECN     H12      HGA3     0.090000        1.0080           0
     11142 WT5      259      MECN     H13      HGA3     0.090000        1.0080           0
     11143 WT5      259      MECN     C2       CG1N1    0.360000       12.0110           0
     11144 WT5      259      MECN     N3       NG1T1   -0.460000       14.0070           0
     11145 WT5      260      MECN     C1       CG331   -0.170000       12.0110           0
     11146 WT5      260      MECN     H11      HGA3     0.090000        1.0080           0
     11147 WT5      260      MECN     H12      HGA3     0.090000        1.0080           0
     11148 WT5      260      MECN     H13      HGA3     0.090000        1.0080           0
     11149 WT5      260      MECN     C2       CG1N1    0.360000       12.0110           0
     11150 WT5      260      MECN     N3       NG1T1   -0.460000       14.0070           0
     11151 WT5      261      MECN     C1       CG331   -0.170000       12.0110           0
     11152 WT5      261      MECN     H11      HGA3     0.090000        1.0080           0
     11153 WT5      261      MECN     H12      HGA3     0.090000        1.0080           0
     11154 WT5      261      MECN     H13      HGA3     0.090000        1.0080           0
     11155 WT5      261      MECN     C2       CG1N1    0.360000       12.0110           0
     11156 WT5      261      MECN     N3       NG1T1   -0.460000       14.0070           0
     11157 WT5      267      MECN     C1       CG331   -0.170000       12.0110           0
     11158 WT5      267      MECN     H11      HGA3     0.090000        1.0080           0
     11159 WT5      267      MECN     H12      HGA3     0.090000        1.0080           0
     11160 WT5      267      MECN     H13      HGA3     0.090000        1.0080           0
     11161 WT5      267      MECN     C2       CG1N1    0.360000       12.0110           0
     11162 WT5      267      MECN     N3       NG1T1   -0.460000       14.0070           0
     11163 WT5      268      MECN     C1       CG331   -0.170000       12.0110           0
     11164 WT5      268      MECN     H11      HGA3     0.090000        1.0080           0
     11165 WT5      268      MECN     H12      HGA3     0.090000        1.0080           0
     11166 WT5      268      MECN     H13      HGA3     0.090000        1.0080           0
     11167 WT5      268      MECN     C2       CG1N1    0.360000       12.0110           0
     11168 WT5      268      MECN     N3       NG1T1   -0.460000       14.0070           0
     11169 WT5      269      MECN     C1       CG331   -0.170000       12.0110           0
     11170 WT5      269      MECN     H11      HGA3     0.090000        1.0080           0
     11171 WT5      269      MECN     H12      HGA3     0.090000        1.0080           0
     11172 WT5      269      MECN     H13      HGA3     0.090000        1.0080           0
     11173 WT5      269      MECN     C2       CG1N1    0.360000       12.0110           0
     11174 WT5      269      MECN     N3       NG1T1   -0.460000       14.0070           0
     11175 WT5      270      MECN     C1       CG331   -0.170000       12.0110           0
     11176 WT5      270      MECN     H11      HGA3     0.090000        1.0080           0
     11177 WT5      270      MECN     H12      HGA3     0.090000        1.0080           0
     11178 WT5      270      MECN     H13      HGA3     0.090000        1.0080           0
     11179 WT5      270      MECN     C2       CG1N1    0.360000       12.0110           0
     11180 WT5      270      MECN     N3       NG1T1   -0.460000       14.0070           0
     11181 WT5      273      MECN     C1       CG331   -0.170000       12.0110           0
     11182 WT5      273      MECN     H11      HGA3     0.090000        1.0080           0
     11183 WT5      273      MECN     H12      HGA3     0.090000        1.0080           0
     11184 WT5      273      MECN     H13      HGA3     0.090000        1.0080           0
     11185 WT5      273      MECN     C2       CG1N1    0.360000       12.0110           0
     11186 WT5      273      MECN     N3       NG1T1   -0.460000       14.0070           0
     11187 WT5      277      MECN     C1       CG331   -0.170000       12.0110           0
     11188 WT5      277      MECN     H11      HGA3     0.090000        1.0080           0
     11189 WT5      277      MECN     H12      HGA3     0.090000        1.0080           0
     11190 WT5      277      MECN     H13      HGA3     0.090000        1.0080           0
     11191 WT5      277      MECN     C2       CG1N1    0.360000       12.0110           0
     11192 WT5      277      MECN     N3       NG1T1   -0.460000       14.0070           0
     11193 WT5      284      MECN     C1       CG331   -0.170000       12.0110           0
     11194 WT5      284      MECN     H11      HGA3     0.090000        1.0080           0
     11195 WT5      284      MECN     H12      HGA3     0.090000        1.0080           0
     11196 WT5      284      MECN     H13      HGA3     0.090000        1.0080           0
     11197 WT5      284      MECN     C2       CG1N1    0.360000       12.0110           0
     11198 WT5      284      MECN     N3       NG1T1   -0.460000       14.0070           0
     11199 WT5      286      MECN     C1       CG331   -0.170000       12.0110           0
     11200 WT5      286      MECN     H11      HGA3     0.090000        1.0080           0
     11201 WT5      286      MECN     H12      HGA3     0.090000        1.0080           0
     11202 WT5      286      MECN     H13      HGA3     0.090000        1.0080           0
     11203 WT5      286      MECN     C2       CG1N1    0.360000       12.0110           0
     11204 WT5      286      MECN     N3       NG1T1   -0.460000       14.0070           0
     11205 WT5      287      MECN     C1       CG331   -0.170000       12.0110           0
     11206 WT5      287      MECN     H11      HGA3     0.090000        1.0080           0
     11207 WT5      287      MECN     H12      HGA3     0.090000        1.0080           0
     11208 WT5      287      MECN     H13      HGA3     0.090000        1.0080           0
     11209 WT5      287      MECN     C2       CG1N1    0.360000       12.0110           0
     11210 WT5      287      MECN     N3       NG1T1   -0.460000       14.0070           0
     11211 WT5      289      MECN     C1       CG331   -0.170000       12.0110           0
     11212 WT5      289      MECN     H11      HGA3     0.090000        1.0080           0
     11213 WT5      289      MECN     H12      HGA3     0.090000        1.0080           0
     11214 WT5      289      MECN     H13      HGA3     0.090000        1.0080           0
     11215 WT5      289      MECN     C2       CG1N1    0.360000       12.0110           0
     11216 WT5      289      MECN     N3       NG1T1   -0.460000       14.0070           0
     11217 WT5      291      MECN     C1       CG331   -0.170000       12.0110           0
     11218 WT5      291      MECN     H11      HGA3     0.090000        1.0080           0
     11219 WT5      291      MECN     H12      HGA3     0.090000        1.0080           0
     11220 WT5      291      MECN     H13      HGA3     0.090000        1.0080           0
     11221 WT5      291      MECN     C2       CG1N1    0.360000       12.0110           0
     11222 WT5      291      MECN     N3       NG1T1   -0.460000       14.0070           0
     11223 WT5      292      MECN     C1       CG331   -0.170000       12.0110           0
     11224 WT5      292      MECN     H11      HGA3     0.090000        1.0080           0
     11225 WT5      292      MECN     H12      HGA3     0.090000        1.0080           0
     11226 WT5      292      MECN     H13      HGA3     0.090000        1.0080           0
     11227 WT5      292      MECN     C2       CG1N1    0.360000       12.0110           0
     11228 WT5      292      MECN     N3       NG1T1   -0.460000       14.0070           0
     11229 WT5      293      MECN     C1       CG331   -0.170000       12.0110           0
     11230 WT5      293      MECN     H11      HGA3     0.090000        1.0080           0
     11231 WT5      293      MECN     H12      HGA3     0.090000        1.0080           0
     11232 WT5      293      MECN     H13      HGA3     0.090000        1.0080           0
     11233 WT5      293      MECN     C2       CG1N1    0.360000       12.0110           0
     11234 WT5      293      MECN     N3       NG1T1   -0.460000       14.0070           0
     11235 WT5      298      MECN     C1       CG331   -0.170000       12.0110           0
     11236 WT5      298      MECN     H11      HGA3     0.090000        1.0080           0
     11237 WT5      298      MECN     H12      HGA3     0.090000        1.0080           0
     11238 WT5      298      MECN     H13      HGA3     0.090000        1.0080           0
     11239 WT5      298      MECN     C2       CG1N1    0.360000       12.0110           0
     11240 WT5      298      MECN     N3       NG1T1   -0.460000       14.0070           0
     11241 WT5      299      MECN     C1       CG331   -0.170000       12.0110           0
     11242 WT5      299      MECN     H11      HGA3     0.090000        1.0080           0
     11243 WT5      299      MECN     H12      HGA3     0.090000        1.0080           0
     11244 WT5      299      MECN     H13      HGA3     0.090000        1.0080           0
     11245 WT5      299      MECN     C2       CG1N1    0.360000       12.0110           0
     11246 WT5      299      MECN     N3       NG1T1   -0.460000       14.0070           0
     11247 WT5      303      MECN     C1       CG331   -0.170000       12.0110           0
     11248 WT5      303      MECN     H11      HGA3     0.090000        1.0080           0
     11249 WT5      303      MECN     H12      HGA3     0.090000        1.0080           0
     11250 WT5      303      MECN     H13      HGA3     0.090000        1.0080           0
     11251 WT5      303      MECN     C2       CG1N1    0.360000       12.0110           0
     11252 WT5      303      MECN     N3       NG1T1   -0.460000       14.0070           0
     11253 WT5      306      MECN     C1       CG331   -0.170000       12.0110           0
     11254 WT5      306      MECN     H11      HGA3     0.090000        1.0080           0
     11255 WT5      306      MECN     H12      HGA3     0.090000        1.0080           0
     11256 WT5      306      MECN     H13      HGA3     0.090000        1.0080           0
     11257 WT5      306      MECN     C2       CG1N1    0.360000       12.0110           0
     11258 WT5      306      MECN     N3       NG1T1   -0.460000       14.0070           0
     11259 WT5      310      MECN     C1       CG331   -0.170000       12.0110           0
     11260 WT5      310      MECN     H11      HGA3     0.090000        1.0080           0
     11261 WT5      310      MECN     H12      HGA3     0.090000        1.0080           0
     11262 WT5      310      MECN     H13      HGA3     0.090000        1.0080           0
     11263 WT5      310      MECN     C2       CG1N1    0.360000       12.0110           0
     11264 WT5      310      MECN     N3       NG1T1   -0.460000       14.0070           0
     11265 WT5      312      MECN     C1       CG331   -0.170000       12.0110           0
     11266 WT5      312      MECN     H11      HGA3     0.090000        1.0080           0
     11267 WT5      312      MECN     H12      HGA3     0.090000        1.0080           0
     11268 WT5      312      MECN     H13      HGA3     0.090000        1.0080           0
     11269 WT5      312      MECN     C2       CG1N1    0.360000       12.0110           0
     11270 WT5      312      MECN     N3       NG1T1   -0.460000       14.0070           0
     11271 WT5      313      MECN     C1       CG331   -0.170000       12.0110           0
     11272 WT5      313      MECN     H11      HGA3     0.090000        1.0080           0
     11273 WT5      313      MECN     H12      HGA3     0.090000        1.0080           0
     11274 WT5      313      MECN     H13      HGA3     0.090000        1.0080           0
     11275 WT5      313      MECN     C2       CG1N1    0.360000       12.0110           0
     11276 WT5      313      MECN     N3       NG1T1   -0.460000       14.0070           0
     11277 WT5      316      MECN     C1       CG331   -0.170000       12.0110           0
     11278 WT5      316      MECN     H11      HGA3     0.090000        1.0080           0
     11279 WT5      316      MECN     H12      HGA3     0.090000        1.0080           0
     11280 WT5      316      MECN     H13      HGA3     0.090000        1.0080           0
     11281 WT5      316      MECN     C2       CG1N1    0.360000       12.0110           0
     11282 WT5      316      MECN     N3       NG1T1   -0.460000       14.0070           0
     11283 WT5      320      MECN     C1       CG331   -0.170000       12.0110           0
     11284 WT5      320      MECN     H11      HGA3     0.090000        1.0080           0
     11285 WT5      320      MECN     H12      HGA3     0.090000        1.0080           0
     11286 WT5      320      MECN     H13      HGA3     0.090000        1.0080           0
     11287 WT5      320      MECN     C2       CG1N1    0.360000       12.0110           0
     11288 WT5      320      MECN     N3       NG1T1   -0.460000       14.0070           0
     11289 WT5      321      MECN     C1       CG331   -0.170000       12.0110           0
     11290 WT5      321      MECN     H11      HGA3     0.090000        1.0080           0
     11291 WT5      321      MECN     H12      HGA3     0.090000        1.0080           0
     11292 WT5      321      MECN     H13      HGA3     0.090000        1.0080           0
     11293 WT5      321      MECN     C2       CG1N1    0.360000       12.0110           0
     11294 WT5      321      MECN     N3       NG1T1   -0.460000       14.0070           0
     11295 WT5      322      MECN     C1       CG331   -0.170000       12.0110           0
     11296 WT5      322      MECN     H11      HGA3     0.090000        1.0080           0
     11297 WT5      322      MECN     H12      HGA3     0.090000        1.0080           0
     11298 WT5      322      MECN     H13      HGA3     0.090000        1.0080           0
     11299 WT5      322      MECN     C2       CG1N1    0.360000       12.0110           0
     11300 WT5      322      MECN     N3       NG1T1   -0.460000       14.0070           0
     11301 WT5      324      MECN     C1       CG331   -0.170000       12.0110           0
     11302 WT5      324      MECN     H11      HGA3     0.090000        1.0080           0
     11303 WT5      324      MECN     H12      HGA3     0.090000        1.0080           0
     11304 WT5      324      MECN     H13      HGA3     0.090000        1.0080           0
     11305 WT5      324      MECN     C2       CG1N1    0.360000       12.0110           0
     11306 WT5      324      MECN     N3       NG1T1   -0.460000       14.0070           0
     11307 WT5      329      MECN     C1       CG331   -0.170000       12.0110           0
     11308 WT5      329      MECN     H11      HGA3     0.090000        1.0080           0
     11309 WT5      329      MECN     H12      HGA3     0.090000        1.0080           0
     11310 WT5      329      MECN     H13      HGA3     0.090000        1.0080           0
     11311 WT5      329      MECN     C2       CG1N1    0.360000       12.0110           0
     11312 WT5      329      MECN     N3       NG1T1   -0.460000       14.0070           0
     11313 WT5      331      MECN     C1       CG331   -0.170000       12.0110           0
     11314 WT5      331      MECN     H11      HGA3     0.090000        1.0080           0
     11315 WT5      331      MECN     H12      HGA3     0.090000        1.0080           0
     11316 WT5      331      MECN     H13      HGA3     0.090000        1.0080           0
     11317 WT5      331      MECN     C2       CG1N1    0.360000       12.0110           0
     11318 WT5      331      MECN     N3       NG1T1   -0.460000       14.0070           0
     11319 WT5      337      MECN     C1       CG331   -0.170000       12.0110           0
     11320 WT5      337      MECN     H11      HGA3     0.090000        1.0080           0
     11321 WT5      337      MECN     H12      HGA3     0.090000        1.0080           0
     11322 WT5      337      MECN     H13      HGA3     0.090000        1.0080           0
     11323 WT5      337      MECN     C2       CG1N1    0.360000       12.0110           0
     11324 WT5      337      MECN     N3       NG1T1   -0.460000       14.0070           0
     11325 WT5      338      MECN     C1       CG331   -0.170000       12.0110           0
     11326 WT5      338      MECN     H11      HGA3     0.090000        1.0080           0
     11327 WT5      338      MECN     H12      HGA3     0.090000        1.0080           0
     11328 WT5      338      MECN     H13      HGA3     0.090000        1.0080           0
     11329 WT5      338      MECN     C2       CG1N1    0.360000       12.0110           0
     11330 WT5      338      MECN     N3       NG1T1   -0.460000       14.0070           0
     11331 WT5      342      MECN     C1       CG331   -0.170000       12.0110           0
     11332 WT5      342      MECN     H11      HGA3     0.090000        1.0080           0
     11333 WT5      342      MECN     H12      HGA3     0.090000        1.0080           0
     11334 WT5      342      MECN     H13      HGA3     0.090000        1.0080           0
     11335 WT5      342      MECN     C2       CG1N1    0.360000       12.0110           0
     11336 WT5      342      MECN     N3       NG1T1   -0.460000       14.0070           0
     11337 WT5      349      MECN     C1       CG331   -0.170000       12.0110           0
     11338 WT5      349      MECN     H11      HGA3     0.090000        1.0080           0
     11339 WT5      349      MECN     H12      HGA3     0.090000        1.0080           0
     11340 WT5      349      MECN     H13      HGA3     0.090000        1.0080           0
     11341 WT5      349      MECN     C2       CG1N1    0.360000       12.0110           0
     11342 WT5      349      MECN     N3       NG1T1   -0.460000       14.0070           0
     11343 WT5      350      MECN     C1       CG331   -0.170000       12.0110           0
     11344 WT5      350      MECN     H11      HGA3     0.090000        1.0080           0
     11345 WT5      350      MECN     H12      HGA3     0.090000        1.0080           0
     11346 WT5      350      MECN     H13      HGA3     0.090000        1.0080           0
     11347 WT5      350      MECN     C2       CG1N1    0.360000       12.0110           0
     11348 WT5      350      MECN     N3       NG1T1   -0.460000       14.0070           0
     11349 WT5      351      MECN     C1       CG331   -0.170000       12.0110           0
     11350 WT5      351      MECN     H11      HGA3     0.090000        1.0080           0
     11351 WT5      351      MECN     H12      HGA3     0.090000        1.0080           0
     11352 WT5      351      MECN     H13      HGA3     0.090000        1.0080           0
     11353 WT5      351      MECN     C2       CG1N1    0.360000       12.0110           0
     11354 WT5      351      MECN     N3       NG1T1   -0.460000       14.0070           0
     11355 WT5      352      MECN     C1       CG331   -0.170000       12.0110           0
     11356 WT5      352      MECN     H11      HGA3     0.090000        1.0080           0
     11357 WT5      352      MECN     H12      HGA3     0.090000        1.0080           0
     11358 WT5      352      MECN     H13      HGA3     0.090000        1.0080           0
     11359 WT5      352      MECN     C2       CG1N1    0.360000       12.0110           0
     11360 WT5      352      MECN     N3       NG1T1   -0.460000       14.0070           0
     11361 WT5      354      MECN     C1       CG331   -0.170000       12.0110           0
     11362 WT5      354      MECN     H11      HGA3     0.090000        1.0080           0
     11363 WT5      354      MECN     H12      HGA3     0.090000        1.0080           0
     11364 WT5      354      MECN     H13      HGA3     0.090000        1.0080           0
     11365 WT5      354      MECN     C2       CG1N1    0.360000       12.0110           0
     11366 WT5      354      MECN     N3       NG1T1   -0.460000       14.0070           0
     11367 WT5      355      MECN     C1       CG331   -0.170000       12.0110           0
     11368 WT5      355      MECN     H11      HGA3     0.090000        1.0080           0
     11369 WT5      355      MECN     H12      HGA3     0.090000        1.0080           0
     11370 WT5      355      MECN     H13      HGA3     0.090000        1.0080           0
     11371 WT5      355      MECN     C2       CG1N1    0.360000       12.0110           0
     11372 WT5      355      MECN     N3       NG1T1   -0.460000       14.0070           0
     11373 WT5      357      MECN     C1       CG331   -0.170000       12.0110           0
     11374 WT5      357      MECN     H11      HGA3     0.090000        1.0080           0
     11375 WT5      357      MECN     H12      HGA3     0.090000        1.0080           0
     11376 WT5      357      MECN     H13      HGA3     0.090000        1.0080           0
     11377 WT5      357      MECN     C2       CG1N1    0.360000       12.0110           0
     11378 WT5      357      MECN     N3       NG1T1   -0.460000       14.0070           0
     11379 WT5      358      MECN     C1       CG331   -0.170000       12.0110           0
     11380 WT5      358      MECN     H11      HGA3     0.090000        1.0080           0
     11381 WT5      358      MECN     H12      HGA3     0.090000        1.0080           0
     11382 WT5      358      MECN     H13      HGA3     0.090000        1.0080           0
     11383 WT5      358      MECN     C2       CG1N1    0.360000       12.0110           0
     11384 WT5      358      MECN     N3       NG1T1   -0.460000       14.0070           0
     11385 WT5      363      MECN     C1       CG331   -0.170000       12.0110           0
     11386 WT5      363      MECN     H11      HGA3     0.090000        1.0080           0
     11387 WT5      363      MECN     H12      HGA3     0.090000        1.0080           0
     11388 WT5      363      MECN     H13      HGA3     0.090000        1.0080           0
     11389 WT5      363      MECN     C2       CG1N1    0.360000       12.0110           0
     11390 WT5      363      MECN     N3       NG1T1   -0.460000       14.0070           0
     11391 WT5      365      MECN     C1       CG331   -0.170000       12.0110           0
     11392 WT5      365      MECN     H11      HGA3     0.090000        1.0080           0
     11393 WT5      365      MECN     H12      HGA3     0.090000        1.0080           0
     11394 WT5      365      MECN     H13      HGA3     0.090000        1.0080           0
     11395 WT5      365      MECN     C2       CG1N1    0.360000       12.0110           0
     11396 WT5      365      MECN     N3       NG1T1   -0.460000       14.0070           0
     11397 WT5      366      MECN     C1       CG331   -0.170000       12.0110           0
     11398 WT5      366      MECN     H11      HGA3     0.090000        1.0080           0
     11399 WT5      366      MECN     H12      HGA3     0.090000        1.0080           0
     11400 WT5      366      MECN     H13      HGA3     0.090000        1.0080           0
     11401 WT5      366      MECN     C2       CG1N1    0.360000       12.0110           0
     11402 WT5      366      MECN     N3       NG1T1   -0.460000       14.0070           0
     11403 WT5      368      MECN     C1       CG331   -0.170000       12.0110           0
     11404 WT5      368      MECN     H11      HGA3     0.090000        1.0080           0
     11405 WT5      368      MECN     H12      HGA3     0.090000        1.0080           0
     11406 WT5      368      MECN     H13      HGA3     0.090000        1.0080           0
     11407 WT5      368      MECN     C2       CG1N1    0.360000       12.0110           0
     11408 WT5      368      MECN     N3       NG1T1   -0.460000       14.0070           0
     11409 WT5      370      MECN     C1       CG331   -0.170000       12.0110           0
     11410 WT5      370      MECN     H11      HGA3     0.090000        1.0080           0
     11411 WT5      370      MECN     H12      HGA3     0.090000        1.0080           0
     11412 WT5      370      MECN     H13      HGA3     0.090000        1.0080           0
     11413 WT5      370      MECN     C2       CG1N1    0.360000       12.0110           0
     11414 WT5      370      MECN     N3       NG1T1   -0.460000       14.0070           0
     11415 WT5      372      MECN     C1       CG331   -0.170000       12.0110           0
     11416 WT5      372      MECN     H11      HGA3     0.090000        1.0080           0
     11417 WT5      372      MECN     H12      HGA3     0.090000        1.0080           0
     11418 WT5      372      MECN     H13      HGA3     0.090000        1.0080           0
     11419 WT5      372      MECN     C2       CG1N1    0.360000       12.0110           0
     11420 WT5      372      MECN     N3       NG1T1   -0.460000       14.0070           0
     11421 WT5      379      MECN     C1       CG331   -0.170000       12.0110           0
     11422 WT5      379      MECN     H11      HGA3     0.090000        1.0080           0
     11423 WT5      379      MECN     H12      HGA3     0.090000        1.0080           0
     11424 WT5      379      MECN     H13      HGA3     0.090000        1.0080           0
     11425 WT5      379      MECN     C2       CG1N1    0.360000       12.0110           0
     11426 WT5      379      MECN     N3       NG1T1   -0.460000       14.0070           0
     11427 WT5      381      MECN     C1       CG331   -0.170000       12.0110           0
     11428 WT5      381      MECN     H11      HGA3     0.090000        1.0080           0
     11429 WT5      381      MECN     H12      HGA3     0.090000        1.0080           0
     11430 WT5      381      MECN     H13      HGA3     0.090000        1.0080           0
     11431 WT5      381      MECN     C2       CG1N1    0.360000       12.0110           0
     11432 WT5      381      MECN     N3       NG1T1   -0.460000       14.0070           0
     11433 WT5      382      MECN     C1       CG331   -0.170000       12.0110           0
     11434 WT5      382      MECN     H11      HGA3     0.090000        1.0080           0
     11435 WT5      382      MECN     H12      HGA3     0.090000        1.0080           0
     11436 WT5      382      MECN     H13      HGA3     0.090000        1.0080           0
     11437 WT5      382      MECN     C2       CG1N1    0.360000       12.0110           0
     11438 WT5      382      MECN     N3       NG1T1   -0.460000       14.0070           0
     11439 WT5      387      MECN     C1       CG331   -0.170000       12.0110           0
     11440 WT5      387      MECN     H11      HGA3     0.090000        1.0080           0
     11441 WT5      387      MECN     H12      HGA3     0.090000        1.0080           0
     11442 WT5      387      MECN     H13      HGA3     0.090000        1.0080           0
     11443 WT5      387      MECN     C2       CG1N1    0.360000       12.0110           0
     11444 WT5      387      MECN     N3       NG1T1   -0.460000       14.0070           0
     11445 WT5      390      MECN     C1       CG331   -0.170000       12.0110           0
     11446 WT5      390      MECN     H11      HGA3     0.090000        1.0080           0
     11447 WT5      390      MECN     H12      HGA3     0.090000        1.0080           0
     11448 WT5      390      MECN     H13      HGA3     0.090000        1.0080           0
     11449 WT5      390      MECN     C2       CG1N1    0.360000       12.0110           0
     11450 WT5      390      MECN     N3       NG1T1   -0.460000       14.0070           0
     11451 WT5      392      MECN     C1       CG331   -0.170000       12.0110           0
     11452 WT5      392      MECN     H11      HGA3     0.090000        1.0080           0
     11453 WT5      392      MECN     H12      HGA3     0.090000        1.0080           0
     11454 WT5      392      MECN     H13      HGA3     0.090000        1.0080           0
     11455 WT5      392      MECN     C2       CG1N1    0.360000       12.0110           0
     11456 WT5      392      MECN     N3       NG1T1   -0.460000       14.0070           0
     11457 WT5      396      MECN     C1       CG331   -0.170000       12.0110           0
     11458 WT5      396      MECN     H11      HGA3     0.090000        1.0080           0
     11459 WT5      396      MECN     H12      HGA3     0.090000        1.0080           0
     11460 WT5      396      MECN     H13      HGA3     0.090000        1.0080           0
     11461 WT5      396      MECN     C2       CG1N1    0.360000       12.0110           0
     11462 WT5      396      MECN     N3       NG1T1   -0.460000       14.0070           0
     11463 WT5      398      MECN     C1       CG331   -0.170000       12.0110           0
     11464 WT5      398      MECN     H11      HGA3     0.090000        1.0080           0
     11465 WT5      398      MECN     H12      HGA3     0.090000        1.0080           0
     11466 WT5      398      MECN     H13      HGA3     0.090000        1.0080           0
     11467 WT5      398      MECN     C2       CG1N1    0.360000       12.0110           0
     11468 WT5      398      MECN     N3       NG1T1   -0.460000       14.0070           0
     11469 WT5      399      MECN     C1       CG331   -0.170000       12.0110           0
     11470 WT5      399      MECN     H11      HGA3     0.090000        1.0080           0
     11471 WT5      399      MECN     H12      HGA3     0.090000        1.0080           0
     11472 WT5      399      MECN     H13      HGA3     0.090000        1.0080           0
     11473 WT5      399      MECN     C2       CG1N1    0.360000       12.0110           0
     11474 WT5      399      MECN     N3       NG1T1   -0.460000       14.0070           0
     11475 WT5      402      MECN     C1       CG331   -0.170000       12.0110           0
     11476 WT5      402      MECN     H11      HGA3     0.090000        1.0080           0
     11477 WT5      402      MECN     H12      HGA3     0.090000        1.0080           0
     11478 WT5      402      MECN     H13      HGA3     0.090000        1.0080           0
     11479 WT5      402      MECN     C2       CG1N1    0.360000       12.0110           0
     11480 WT5      402      MECN     N3       NG1T1   -0.460000       14.0070           0
     11481 WT5      407      MECN     C1       CG331   -0.170000       12.0110           0
     11482 WT5      407      MECN     H11      HGA3     0.090000        1.0080           0
     11483 WT5      407      MECN     H12      HGA3     0.090000        1.0080           0
     11484 WT5      407      MECN     H13      HGA3     0.090000        1.0080           0
     11485 WT5      407      MECN     C2       CG1N1    0.360000       12.0110           0
     11486 WT5      407      MECN     N3       NG1T1   -0.460000       14.0070           0
     11487 WT5      408      MECN     C1       CG331   -0.170000       12.0110           0
     11488 WT5      408      MECN     H11      HGA3     0.090000        1.0080           0
     11489 WT5      408      MECN     H12      HGA3     0.090000        1.0080           0
     11490 WT5      408      MECN     H13      HGA3     0.090000        1.0080           0
     11491 WT5      408      MECN     C2       CG1N1    0.360000       12.0110           0
     11492 WT5      408      MECN     N3       NG1T1   -0.460000       14.0070           0
     11493 WT5      411      MECN     C1       CG331   -0.170000       12.0110           0
     11494 WT5      411      MECN     H11      HGA3     0.090000        1.0080           0
     11495 WT5      411      MECN     H12      HGA3     0.090000        1.0080           0
     11496 WT5      411      MECN     H13      HGA3     0.090000        1.0080           0
     11497 WT5      411      MECN     C2       CG1N1    0.360000       12.0110           0
     11498 WT5      411      MECN     N3       NG1T1   -0.460000       14.0070           0
     11499 WT5      412      MECN     C1       CG331   -0.170000       12.0110           0
     11500 WT5      412      MECN     H11      HGA3     0.090000        1.0080           0
     11501 WT5      412      MECN     H12      HGA3     0.090000        1.0080           0
     11502 WT5      412      MECN     H13      HGA3     0.090000        1.0080           0
     11503 WT5      412      MECN     C2       CG1N1    0.360000       12.0110           0
     11504 WT5      412      MECN     N3       NG1T1   -0.460000       14.0070           0
     11505 WT5      419      MECN     C1       CG331   -0.170000       12.0110           0
     11506 WT5      419      MECN     H11      HGA3     0.090000        1.0080           0
     11507 WT5      419      MECN     H12      HGA3     0.090000        1.0080           0
     11508 WT5      419      MECN     H13      HGA3     0.090000        1.0080           0
     11509 WT5      419      MECN     C2       CG1N1    0.360000       12.0110           0
     11510 WT5      419      MECN     N3       NG1T1   -0.460000       14.0070           0
     11511 WT5      424      MECN     C1       CG331   -0.170000       12.0110           0
     11512 WT5      424      MECN     H11      HGA3     0.090000        1.0080           0
     11513 WT5      424      MECN     H12      HGA3     0.090000        1.0080           0
     11514 WT5      424      MECN     H13      HGA3     0.090000        1.0080           0
     11515 WT5      424      MECN     C2       CG1N1    0.360000       12.0110           0
     11516 WT5      424      MECN     N3       NG1T1   -0.460000       14.0070           0
     11517 WT5      425      MECN     C1       CG331   -0.170000       12.0110           0
     11518 WT5      425      MECN     H11      HGA3     0.090000        1.0080           0
     11519 WT5      425      MECN     H12      HGA3     0.090000        1.0080           0
     11520 WT5      425      MECN     H13      HGA3     0.090000        1.0080           0
     11521 WT5      425      MECN     C2       CG1N1    0.360000       12.0110           0
     11522 WT5      425      MECN     N3       NG1T1   -0.460000       14.0070           0
     11523 WT5      426      MECN     C1       CG331   -0.170000       12.0110           0
     11524 WT5      426      MECN     H11      HGA3     0.090000        1.0080           0
     11525 WT5      426      MECN     H12      HGA3     0.090000        1.0080           0
     11526 WT5      426      MECN     H13      HGA3     0.090000        1.0080           0
     11527 WT5      426      MECN     C2       CG1N1    0.360000       12.0110           0
     11528 WT5      426      MECN     N3       NG1T1   -0.460000       14.0070           0
     11529 WT5      428      MECN     C1       CG331   -0.170000       12.0110           0
     11530 WT5      428      MECN     H11      HGA3     0.090000        1.0080           0
     11531 WT5      428      MECN     H12      HGA3     0.090000        1.0080           0
     11532 WT5      428      MECN     H13      HGA3     0.090000        1.0080           0
     11533 WT5      428      MECN     C2       CG1N1    0.360000       12.0110           0
     11534 WT5      428      MECN     N3       NG1T1   -0.460000       14.0070           0
     11535 WT5      442      MECN     C1       CG331   -0.170000       12.0110           0
     11536 WT5      442      MECN     H11      HGA3     0.090000        1.0080           0
     11537 WT5      442      MECN     H12      HGA3     0.090000        1.0080           0
     11538 WT5      442      MECN     H13      HGA3     0.090000        1.0080           0
     11539 WT5      442      MECN     C2       CG1N1    0.360000       12.0110           0
     11540 WT5      442      MECN     N3       NG1T1   -0.460000       14.0070           0
     11541 WT5      444      MECN     C1       CG331   -0.170000       12.0110           0
     11542 WT5      444      MECN     H11      HGA3     0.090000        1.0080           0
     11543 WT5      444      MECN     H12      HGA3     0.090000        1.0080           0
     11544 WT5      444      MECN     H13      HGA3     0.090000        1.0080           0
     11545 WT5      444      MECN     C2       CG1N1    0.360000       12.0110           0
     11546 WT5      444      MECN     N3       NG1T1   -0.460000       14.0070           0
     11547 WT5      447      MECN     C1       CG331   -0.170000       12.0110           0
     11548 WT5      447      MECN     H11      HGA3     0.090000        1.0080           0
     11549 WT5      447      MECN     H12      HGA3     0.090000        1.0080           0
     11550 WT5      447      MECN     H13      HGA3     0.090000        1.0080           0
     11551 WT5      447      MECN     C2       CG1N1    0.360000       12.0110           0
     11552 WT5      447      MECN     N3       NG1T1   -0.460000       14.0070           0
     11553 WT5      450      MECN     C1       CG331   -0.170000       12.0110           0
     11554 WT5      450      MECN     H11      HGA3     0.090000        1.0080           0
     11555 WT5      450      MECN     H12      HGA3     0.090000        1.0080           0
     11556 WT5      450      MECN     H13      HGA3     0.090000        1.0080           0
     11557 WT5      450      MECN     C2       CG1N1    0.360000       12.0110           0
     11558 WT5      450      MECN     N3       NG1T1   -0.460000       14.0070           0
     11559 WT5      457      MECN     C1       CG331   -0.170000       12.0110           0
     11560 WT5      457      MECN     H11      HGA3     0.090000        1.0080           0
     11561 WT5      457      MECN     H12      HGA3     0.090000        1.0080           0
     11562 WT5      457      MECN     H13      HGA3     0.090000        1.0080           0
     11563 WT5      457      MECN     C2       CG1N1    0.360000       12.0110           0
     11564 WT5      457      MECN     N3       NG1T1   -0.460000       14.0070           0
     11565 WT5      459      MECN     C1       CG331   -0.170000       12.0110           0
     11566 WT5      459      MECN     H11      HGA3     0.090000        1.0080           0
     11567 WT5      459      MECN     H12      HGA3     0.090000        1.0080           0
     11568 WT5      459      MECN     H13      HGA3     0.090000        1.0080           0
     11569 WT5      459      MECN     C2       CG1N1    0.360000       12.0110           0
     11570 WT5      459      MECN     N3       NG1T1   -0.460000       14.0070           0
     11571 WT5      460      MECN     C1       CG331   -0.170000       12.0110           0
     11572 WT5      460      MECN     H11      HGA3     0.090000        1.0080           0
     11573 WT5      460      MECN     H12      HGA3     0.090000        1.0080           0
     11574 WT5      460      MECN     H13      HGA3     0.090000        1.0080           0
     11575 WT5      460      MECN     C2       CG1N1    0.360000       12.0110           0
     11576 WT5      460      MECN     N3       NG1T1   -0.460000       14.0070           0
     11577 WT5      463      MECN     C1       CG331   -0.170000       12.0110           0
     11578 WT5      463      MECN     H11      HGA3     0.090000        1.0080           0
     11579 WT5      463      MECN     H12      HGA3     0.090000        1.0080           0
     11580 WT5      463      MECN     H13      HGA3     0.090000        1.0080           0
     11581 WT5      463      MECN     C2       CG1N1    0.360000       12.0110           0
     11582 WT5      463      MECN     N3       NG1T1   -0.460000       14.0070           0
     11583 WT5      465      MECN     C1       CG331   -0.170000       12.0110           0
     11584 WT5      465      MECN     H11      HGA3     0.090000        1.0080           0
     11585 WT5      465      MECN     H12      HGA3     0.090000        1.0080           0
     11586 WT5      465      MECN     H13      HGA3     0.090000        1.0080           0
     11587 WT5      465      MECN     C2       CG1N1    0.360000       12.0110           0
     11588 WT5      465      MECN     N3       NG1T1   -0.460000       14.0070           0
     11589 WT5      467      MECN     C1       CG331   -0.170000       12.0110           0
     11590 WT5      467      MECN     H11      HGA3     0.090000        1.0080           0
     11591 WT5      467      MECN     H12      HGA3     0.090000        1.0080           0
     11592 WT5      467      MECN     H13      HGA3     0.090000        1.0080           0
     11593 WT5      467      MECN     C2       CG1N1    0.360000       12.0110           0
     11594 WT5      467      MECN     N3       NG1T1   -0.460000       14.0070           0
     11595 WT5      469      MECN     C1       CG331   -0.170000       12.0110           0
     11596 WT5      469      MECN     H11      HGA3     0.090000        1.0080           0
     11597 WT5      469      MECN     H12      HGA3     0.090000        1.0080           0
     11598 WT5      469      MECN     H13      HGA3     0.090000        1.0080           0
     11599 WT5      469      MECN     C2       CG1N1    0.360000       12.0110           0
     11600 WT5      469      MECN     N3       NG1T1   -0.460000       14.0070           0
     11601 WT5      475      MECN     C1       CG331   -0.170000       12.0110           0
     11602 WT5      475      MECN     H11      HGA3     0.090000        1.0080           0
     11603 WT5      475      MECN     H12      HGA3     0.090000        1.0080           0
     11604 WT5      475      MECN     H13      HGA3     0.090000        1.0080           0
     11605 WT5      475      MECN     C2       CG1N1    0.360000       12.0110           0
     11606 WT5      475      MECN     N3       NG1T1   -0.460000       14.0070           0
     11607 WT5      485      MECN     C1       CG331   -0.170000       12.0110           0
     11608 WT5      485      MECN     H11      HGA3     0.090000        1.0080           0
     11609 WT5      485      MECN     H12      HGA3     0.090000        1.0080           0
     11610 WT5      485      MECN     H13      HGA3     0.090000        1.0080           0
     11611 WT5      485      MECN     C2       CG1N1    0.360000       12.0110           0
     11612 WT5      485      MECN     N3       NG1T1   -0.460000       14.0070           0
     11613 WT5      486      MECN     C1       CG331   -0.170000       12.0110           0
     11614 WT5      486      MECN     H11      HGA3     0.090000        1.0080           0
     11615 WT5      486      MECN     H12      HGA3     0.090000        1.0080           0
     11616 WT5      486      MECN     H13      HGA3     0.090000        1.0080           0
     11617 WT5      486      MECN     C2       CG1N1    0.360000       12.0110           0
     11618 WT5      486      MECN     N3       NG1T1   -0.460000       14.0070           0
     11619 WT5      487      MECN     C1       CG331   -0.170000       12.0110           0
     11620 WT5      487      MECN     H11      HGA3     0.090000        1.0080           0
     11621 WT5      487      MECN     H12      HGA3     0.090000        1.0080           0
     11622 WT5      487      MECN     H13      HGA3     0.090000        1.0080           0
     11623 WT5      487      MECN     C2       CG1N1    0.360000       12.0110           0
     11624 WT5      487      MECN     N3       NG1T1   -0.460000       14.0070           0
     11625 WT5      492      MECN     C1       CG331   -0.170000       12.0110           0
     11626 WT5      492      MECN     H11      HGA3     0.090000        1.0080           0
     11627 WT5      492      MECN     H12      HGA3     0.090000        1.0080           0
     11628 WT5      492      MECN     H13      HGA3     0.090000        1.0080           0
     11629 WT5      492      MECN     C2       CG1N1    0.360000       12.0110           0
     11630 WT5      492      MECN     N3       NG1T1   -0.460000       14.0070           0
     11631 WT5      500      MECN     C1       CG331   -0.170000       12.0110           0
     11632 WT5      500      MECN     H11      HGA3     0.090000        1.0080           0
     11633 WT5      500      MECN     H12      HGA3     0.090000        1.0080           0
     11634 WT5      500      MECN     H13      HGA3     0.090000        1.0080           0
     11635 WT5      500      MECN     C2       CG1N1    0.360000       12.0110           0
     11636 WT5      500      MECN     N3       NG1T1   -0.460000       14.0070           0
     11637 WT5      512      MECN     C1       CG331   -0.170000       12.0110           0
     11638 WT5      512      MECN     H11      HGA3     0.090000        1.0080           0
     11639 WT5      512      MECN     H12      HGA3     0.090000        1.0080           0
     11640 WT5      512      MECN     H13      HGA3     0.090000        1.0080           0
     11641 WT5      512      MECN     C2       CG1N1    0.360000       12.0110           0
     11642 WT5      512      MECN     N3       NG1T1   -0.460000       14.0070           0
     11643 WT5      513      MECN     C1       CG331   -0.170000       12.0110           0
     11644 WT5      513      MECN     H11      HGA3     0.090000        1.0080           0
     11645 WT5      513      MECN     H12      HGA3     0.090000        1.0080           0
     11646 WT5      513      MECN     H13      HGA3     0.090000        1.0080           0
     11647 WT5      513      MECN     C2       CG1N1    0.360000       12.0110           0
     11648 WT5      513      MECN     N3       NG1T1   -0.460000       14.0070           0
     11649 WT5      517      MECN     C1       CG331   -0.170000       12.0110           0
     11650 WT5      517      MECN     H11      HGA3     0.090000        1.0080           0
     11651 WT5      517      MECN     H12      HGA3     0.090000        1.0080           0
     11652 WT5      517      MECN     H13      HGA3     0.090000        1.0080           0
     11653 WT5      517      MECN     C2       CG1N1    0.360000       12.0110           0
     11654 WT5      517      MECN     N3       NG1T1   -0.460000       14.0070           0
     11655 WT5      521      MECN     C1       CG331   -0.170000       12.0110           0
     11656 WT5      521      MECN     H11      HGA3     0.090000        1.0080           0
     11657 WT5      521      MECN     H12      HGA3     0.090000        1.0080           0
     11658 WT5      521      MECN     H13      HGA3     0.090000        1.0080           0
     11659 WT5      521      MECN     C2       CG1N1    0.360000       12.0110           0
     11660 WT5      521      MECN     N3       NG1T1   -0.460000       14.0070           0
     11661 WT5      523      MECN     C1       CG331   -0.170000       12.0110           0
     11662 WT5      523      MECN     H11      HGA3     0.090000        1.0080           0
     11663 WT5      523      MECN     H12      HGA3     0.090000        1.0080           0
     11664 WT5      523      MECN     H13      HGA3     0.090000        1.0080           0
     11665 WT5      523      MECN     C2       CG1N1    0.360000       12.0110           0
     11666 WT5      523      MECN     N3       NG1T1   -0.460000       14.0070           0
     11667 WT5      524      MECN     C1       CG331   -0.170000       12.0110           0
     11668 WT5      524      MECN     H11      HGA3     0.090000        1.0080           0
     11669 WT5      524      MECN     H12      HGA3     0.090000        1.0080           0
     11670 WT5      524      MECN     H13      HGA3     0.090000        1.0080           0
     11671 WT5      524      MECN     C2       CG1N1    0.360000       12.0110           0
     11672 WT5      524      MECN     N3       NG1T1   -0.460000       14.0070           0
     11673 WT5      527      MECN     C1       CG331   -0.170000       12.0110           0
     11674 WT5      527      MECN     H11      HGA3     0.090000        1.0080           0
     11675 WT5      527      MECN     H12      HGA3     0.090000        1.0080           0
     11676 WT5      527      MECN     H13      HGA3     0.090000        1.0080           0
     11677 WT5      527      MECN     C2       CG1N1    0.360000       12.0110           0
     11678 WT5      527      MECN     N3       NG1T1   -0.460000       14.0070           0
     11679 WT5      530      MECN     C1       CG331   -0.170000       12.0110           0
     11680 WT5      530      MECN     H11      HGA3     0.090000        1.0080           0
     11681 WT5      530      MECN     H12      HGA3     0.090000        1.0080           0
     11682 WT5      530      MECN     H13      HGA3     0.090000        1.0080           0
     11683 WT5      530      MECN     C2       CG1N1    0.360000       12.0110           0
     11684 WT5      530      MECN     N3       NG1T1   -0.460000       14.0070           0
     11685 WT5      531      MECN     C1       CG331   -0.170000       12.0110           0
     11686 WT5      531      MECN     H11      HGA3     0.090000        1.0080           0
     11687 WT5      531      MECN     H12      HGA3     0.090000        1.0080           0
     11688 WT5      531      MECN     H13      HGA3     0.090000        1.0080           0
     11689 WT5      531      MECN     C2       CG1N1    0.360000       12.0110           0
     11690 WT5      531      MECN     N3       NG1T1   -0.460000       14.0070           0
     11691 WT5      532      MECN     C1       CG331   -0.170000       12.0110           0
     11692 WT5      532      MECN     H11      HGA3     0.090000        1.0080           0
     11693 WT5      532      MECN     H12      HGA3     0.090000        1.0080           0
     11694 WT5      532      MECN     H13      HGA3     0.090000        1.0080           0
     11695 WT5      532      MECN     C2       CG1N1    0.360000       12.0110           0
     11696 WT5      532      MECN     N3       NG1T1   -0.460000       14.0070           0
     11697 WT5      537      MECN     C1       CG331   -0.170000       12.0110           0
     11698 WT5      537      MECN     H11      HGA3     0.090000        1.0080           0
     11699 WT5      537      MECN     H12      HGA3     0.090000        1.0080           0
     11700 WT5      537      MECN     H13      HGA3     0.090000        1.0080           0
     11701 WT5      537      MECN     C2       CG1N1    0.360000       12.0110           0
     11702 WT5      537      MECN     N3       NG1T1   -0.460000       14.0070           0
     11703 WT5      543      MECN     C1       CG331   -0.170000       12.0110           0
     11704 WT5      543      MECN     H11      HGA3     0.090000        1.0080           0
     11705 WT5      543      MECN     H12      HGA3     0.090000        1.0080           0
     11706 WT5      543      MECN     H13      HGA3     0.090000        1.0080           0
     11707 WT5      543      MECN     C2       CG1N1    0.360000       12.0110           0
     11708 WT5      543      MECN     N3       NG1T1   -0.460000       14.0070           0
     11709 WT5      544      MECN     C1       CG331   -0.170000       12.0110           0
     11710 WT5      544      MECN     H11      HGA3     0.090000        1.0080           0
     11711 WT5      544      MECN     H12      HGA3     0.090000        1.0080           0
     11712 WT5      544      MECN     H13      HGA3     0.090000        1.0080           0
     11713 WT5      544      MECN     C2       CG1N1    0.360000       12.0110           0
     11714 WT5      544      MECN     N3       NG1T1   -0.460000       14.0070           0
     11715 WT5      549      MECN     C1       CG331   -0.170000       12.0110           0
     11716 WT5      549      MECN     H11      HGA3     0.090000        1.0080           0
     11717 WT5      549      MECN     H12      HGA3     0.090000        1.0080           0
     11718 WT5      549      MECN     H13      HGA3     0.090000        1.0080           0
     11719 WT5      549      MECN     C2       CG1N1    0.360000       12.0110           0
     11720 WT5      549      MECN     N3       NG1T1   -0.460000       14.0070           0
     11721 WT5      556      MECN     C1       CG331   -0.170000       12.0110           0
     11722 WT5      556      MECN     H11      HGA3     0.090000        1.0080           0
     11723 WT5      556      MECN     H12      HGA3     0.090000        1.0080           0
     11724 WT5      556      MECN     H13      HGA3     0.090000        1.0080           0
     11725 WT5      556      MECN     C2       CG1N1    0.360000       12.0110           0
     11726 WT5      556      MECN     N3       NG1T1   -0.460000       14.0070           0
     11727 WT5      557      MECN     C1       CG331   -0.170000       12.0110           0
     11728 WT5      557      MECN     H11      HGA3     0.090000        1.0080           0
     11729 WT5      557      MECN     H12      HGA3     0.090000        1.0080           0
     11730 WT5      557      MECN     H13      HGA3     0.090000        1.0080           0
     11731 WT5      557      MECN     C2       CG1N1    0.360000       12.0110           0
     11732 WT5      557      MECN     N3       NG1T1   -0.460000       14.0070           0
     11733 WT5      558      MECN     C1       CG331   -0.170000       12.0110           0
     11734 WT5      558      MECN     H11      HGA3     0.090000        1.0080           0
     11735 WT5      558      MECN     H12      HGA3     0.090000        1.0080           0
     11736 WT5      558      MECN     H13      HGA3     0.090000        1.0080           0
     11737 WT5      558      MECN     C2       CG1N1    0.360000       12.0110           0
     11738 WT5      558      MECN     N3       NG1T1   -0.460000       14.0070           0
     11739 WT5      560      MECN     C1       CG331   -0.170000       12.0110           0
     11740 WT5      560      MECN     H11      HGA3     0.090000        1.0080           0
     11741 WT5      560      MECN     H12      HGA3     0.090000        1.0080           0
     11742 WT5      560      MECN     H13      HGA3     0.090000        1.0080           0
     11743 WT5      560      MECN     C2       CG1N1    0.360000       12.0110           0
     11744 WT5      560      MECN     N3       NG1T1   -0.460000       14.0070           0
     11745 WT5      563      MECN     C1       CG331   -0.170000       12.0110           0
     11746 WT5      563      MECN     H11      HGA3     0.090000        1.0080           0
     11747 WT5      563      MECN     H12      HGA3     0.090000        1.0080           0
     11748 WT5      563      MECN     H13      HGA3     0.090000        1.0080           0
     11749 WT5      563      MECN     C2       CG1N1    0.360000       12.0110           0
     11750 WT5      563      MECN     N3       NG1T1   -0.460000       14.0070           0
     11751 WT5      564      MECN     C1       CG331   -0.170000       12.0110           0
     11752 WT5      564      MECN     H11      HGA3     0.090000        1.0080           0
     11753 WT5      564      MECN     H12      HGA3     0.090000        1.0080           0
     11754 WT5      564      MECN     H13      HGA3     0.090000        1.0080           0
     11755 WT5      564      MECN     C2       CG1N1    0.360000       12.0110           0
     11756 WT5      564      MECN     N3       NG1T1   -0.460000       14.0070           0
     11757 WT5      565      MECN     C1       CG331   -0.170000       12.0110           0
     11758 WT5      565      MECN     H11      HGA3     0.090000        1.0080           0
     11759 WT5      565      MECN     H12      HGA3     0.090000        1.0080           0
     11760 WT5      565      MECN     H13      HGA3     0.090000        1.0080           0
     11761 WT5      565      MECN     C2       CG1N1    0.360000       12.0110           0
     11762 WT5      565      MECN     N3       NG1T1   -0.460000       14.0070           0
     11763 WT5      566      MECN     C1       CG331   -0.170000       12.0110           0
     11764 WT5      566      MECN     H11      HGA3     0.090000        1.0080           0
     11765 WT5      566      MECN     H12      HGA3     0.090000        1.0080           0
     11766 WT5      566      MECN     H13      HGA3     0.090000        1.0080           0
     11767 WT5      566      MECN     C2       CG1N1    0.360000       12.0110           0
     11768 WT5      566      MECN     N3       NG1T1   -0.460000       14.0070           0
     11769 WT5      567      MECN     C1       CG331   -0.170000       12.0110           0
     11770 WT5      567      MECN     H11      HGA3     0.090000        1.0080           0
     11771 WT5      567      MECN     H12      HGA3     0.090000        1.0080           0
     11772 WT5      567      MECN     H13      HGA3     0.090000        1.0080           0
     11773 WT5      567      MECN     C2       CG1N1    0.360000       12.0110           0
     11774 WT5      567      MECN     N3       NG1T1   -0.460000       14.0070           0
     11775 WT5      568      MECN     C1       CG331   -0.170000       12.0110           0
     11776 WT5      568      MECN     H11      HGA3     0.090000        1.0080           0
     11777 WT5      568      MECN     H12      HGA3     0.090000        1.0080           0
     11778 WT5      568      MECN     H13      HGA3     0.090000        1.0080           0
     11779 WT5      568      MECN     C2       CG1N1    0.360000       12.0110           0
     11780 WT5      568      MECN     N3       NG1T1   -0.460000       14.0070           0
     11781 WT5      570      MECN     C1       CG331   -0.170000       12.0110           0
     11782 WT5      570      MECN     H11      HGA3     0.090000        1.0080           0
     11783 WT5      570      MECN     H12      HGA3     0.090000        1.0080           0
     11784 WT5      570      MECN     H13      HGA3     0.090000        1.0080           0
     11785 WT5      570      MECN     C2       CG1N1    0.360000       12.0110           0
     11786 WT5      570      MECN     N3       NG1T1   -0.460000       14.0070           0
     11787 WT5      572      MECN     C1       CG331   -0.170000       12.0110           0
     11788 WT5      572      MECN     H11      HGA3     0.090000        1.0080           0
     11789 WT5      572      MECN     H12      HGA3     0.090000        1.0080           0
     11790 WT5      572      MECN     H13      HGA3     0.090000        1.0080           0
     11791 WT5      572      MECN     C2       CG1N1    0.360000       12.0110           0
     11792 WT5      572      MECN     N3       NG1T1   -0.460000       14.0070           0
     11793 WT5      574      MECN     C1       CG331   -0.170000       12.0110           0
     11794 WT5      574      MECN     H11      HGA3     0.090000        1.0080           0
     11795 WT5      574      MECN     H12      HGA3     0.090000        1.0080           0
     11796 WT5      574      MECN     H13      HGA3     0.090000        1.0080           0
     11797 WT5      574      MECN     C2       CG1N1    0.360000       12.0110           0
     11798 WT5      574      MECN     N3       NG1T1   -0.460000       14.0070           0
     11799 WT5      576      MECN     C1       CG331   -0.170000       12.0110           0
     11800 WT5      576      MECN     H11      HGA3     0.090000        1.0080           0
     11801 WT5      576      MECN     H12      HGA3     0.090000        1.0080           0
     11802 WT5      576      MECN     H13      HGA3     0.090000        1.0080           0
     11803 WT5      576      MECN     C2       CG1N1    0.360000       12.0110           0
     11804 WT5      576      MECN     N3       NG1T1   -0.460000       14.0070           0
     11805 WT5      581      MECN     C1       CG331   -0.170000       12.0110           0
     11806 WT5      581      MECN     H11      HGA3     0.090000        1.0080           0
     11807 WT5      581      MECN     H12      HGA3     0.090000        1.0080           0
     11808 WT5      581      MECN     H13      HGA3     0.090000        1.0080           0
     11809 WT5      581      MECN     C2       CG1N1    0.360000       12.0110           0
     11810 WT5      581      MECN     N3       NG1T1   -0.460000       14.0070           0
     11811 WT5      584      MECN     C1       CG331   -0.170000       12.0110           0
     11812 WT5      584      MECN     H11      HGA3     0.090000        1.0080           0
     11813 WT5      584      MECN     H12      HGA3     0.090000        1.0080           0
     11814 WT5      584      MECN     H13      HGA3     0.090000        1.0080           0
     11815 WT5      584      MECN     C2       CG1N1    0.360000       12.0110           0
     11816 WT5      584      MECN     N3       NG1T1   -0.460000       14.0070           0
     11817 WT5      586      MECN     C1       CG331   -0.170000       12.0110           0
     11818 WT5      586      MECN     H11      HGA3     0.090000        1.0080           0
     11819 WT5      586      MECN     H12      HGA3     0.090000        1.0080           0
     11820 WT5      586      MECN     H13      HGA3     0.090000        1.0080           0
     11821 WT5      586      MECN     C2       CG1N1    0.360000       12.0110           0
     11822 WT5      586      MECN     N3       NG1T1   -0.460000       14.0070           0
     11823 WT5      591      MECN     C1       CG331   -0.170000       12.0110           0
     11824 WT5      591      MECN     H11      HGA3     0.090000        1.0080           0
     11825 WT5      591      MECN     H12      HGA3     0.090000        1.0080           0
     11826 WT5      591      MECN     H13      HGA3     0.090000        1.0080           0
     11827 WT5      591      MECN     C2       CG1N1    0.360000       12.0110           0
     11828 WT5      591      MECN     N3       NG1T1   -0.460000       14.0070           0
     11829 WT5      594      MECN     C1       CG331   -0.170000       12.0110           0
     11830 WT5      594      MECN     H11      HGA3     0.090000        1.0080           0
     11831 WT5      594      MECN     H12      HGA3     0.090000        1.0080           0
     11832 WT5      594      MECN     H13      HGA3     0.090000        1.0080           0
     11833 WT5      594      MECN     C2       CG1N1    0.360000       12.0110           0
     11834 WT5      594      MECN     N3       NG1T1   -0.460000       14.0070           0
     11835 WT5      596      MECN     C1       CG331   -0.170000       12.0110           0
     11836 WT5      596      MECN     H11      HGA3     0.090000        1.0080           0
     11837 WT5      596      MECN     H12      HGA3     0.090000        1.0080           0
     11838 WT5      596      MECN     H13      HGA3     0.090000        1.0080           0
     11839 WT5      596      MECN     C2       CG1N1    0.360000       12.0110           0
     11840 WT5      596      MECN     N3       NG1T1   -0.460000       14.0070           0
     11841 WT5      599      MECN     C1       CG331   -0.170000       12.0110           0
     11842 WT5      599      MECN     H11      HGA3     0.090000        1.0080           0
     11843 WT5      599      MECN     H12      HGA3     0.090000        1.0080           0
     11844 WT5      599      MECN     H13      HGA3     0.090000        1.0080           0
     11845 WT5      599      MECN     C2       CG1N1    0.360000       12.0110           0
     11846 WT5      599      MECN     N3       NG1T1   -0.460000       14.0070           0
     11847 WT5      601      MECN     C1       CG331   -0.170000       12.0110           0
     11848 WT5      601      MECN     H11      HGA3     0.090000        1.0080           0
     11849 WT5      601      MECN     H12      HGA3     0.090000        1.0080           0
     11850 WT5      601      MECN     H13      HGA3     0.090000        1.0080           0
     11851 WT5      601      MECN     C2       CG1N1    0.360000       12.0110           0
     11852 WT5      601      MECN     N3       NG1T1   -0.460000       14.0070           0
     11853 WT5      603      MECN     C1       CG331   -0.170000       12.0110           0
     11854 WT5      603      MECN     H11      HGA3     0.090000        1.0080           0
     11855 WT5      603      MECN     H12      HGA3     0.090000        1.0080           0
     11856 WT5      603      MECN     H13      HGA3     0.090000        1.0080           0
     11857 WT5      603      MECN     C2       CG1N1    0.360000       12.0110           0
     11858 WT5      603      MECN     N3       NG1T1   -0.460000       14.0070           0
     11859 WT5      606      MECN     C1       CG331   -0.170000       12.0110           0
     11860 WT5      606      MECN     H11      HGA3     0.090000        1.0080           0
     11861 WT5      606      MECN     H12      HGA3     0.090000        1.0080           0
     11862 WT5      606      MECN     H13      HGA3     0.090000        1.0080           0
     11863 WT5      606      MECN     C2       CG1N1    0.360000       12.0110           0
     11864 WT5      606      MECN     N3       NG1T1   -0.460000       14.0070           0
     11865 WT5      609      MECN     C1       CG331   -0.170000       12.0110           0
     11866 WT5      609      MECN     H11      HGA3     0.090000        1.0080           0
     11867 WT5      609      MECN     H12      HGA3     0.090000        1.0080           0
     11868 WT5      609      MECN     H13      HGA3     0.090000        1.0080           0
     11869 WT5      609      MECN     C2       CG1N1    0.360000       12.0110           0
     11870 WT5      609      MECN     N3       NG1T1   -0.460000       14.0070           0
     11871 WT5      610      MECN     C1       CG331   -0.170000       12.0110           0
     11872 WT5      610      MECN     H11      HGA3     0.090000        1.0080           0
     11873 WT5      610      MECN     H12      HGA3     0.090000        1.0080           0
     11874 WT5      610      MECN     H13      HGA3     0.090000        1.0080           0
     11875 WT5      610      MECN     C2       CG1N1    0.360000       12.0110           0
     11876 WT5      610      MECN     N3       NG1T1   -0.460000       14.0070           0
     11877 WT5      611      MECN     C1       CG331   -0.170000       12.0110           0
     11878 WT5      611      MECN     H11      HGA3     0.090000        1.0080           0
     11879 WT5      611      MECN     H12      HGA3     0.090000        1.0080           0
     11880 WT5      611      MECN     H13      HGA3     0.090000        1.0080           0
     11881 WT5      611      MECN     C2       CG1N1    0.360000       12.0110           0
     11882 WT5      611      MECN     N3       NG1T1   -0.460000       14.0070           0
     11883 WT5      612      MECN     C1       CG331   -0.170000       12.0110           0
     11884 WT5      612      MECN     H11      HGA3     0.090000        1.0080           0
     11885 WT5      612      MECN     H12      HGA3     0.090000        1.0080           0
     11886 WT5      612      MECN     H13      HGA3     0.090000        1.0080           0
     11887 WT5      612      MECN     C2       CG1N1    0.360000       12.0110           0
     11888 WT5      612      MECN     N3       NG1T1   -0.460000       14.0070           0
     11889 WT5      614      MECN     C1       CG331   -0.170000       12.0110           0
     11890 WT5      614      MECN     H11      HGA3     0.090000        1.0080           0
     11891 WT5      614      MECN     H12      HGA3     0.090000        1.0080           0
     11892 WT5      614      MECN     H13      HGA3     0.090000        1.0080           0
     11893 WT5      614      MECN     C2       CG1N1    0.360000       12.0110           0
     11894 WT5      614      MECN     N3       NG1T1   -0.460000       14.0070           0
     11895 WT5      616      MECN     C1       CG331   -0.170000       12.0110           0
     11896 WT5      616      MECN     H11      HGA3     0.090000        1.0080           0
     11897 WT5      616      MECN     H12      HGA3     0.090000        1.0080           0
     11898 WT5      616      MECN     H13      HGA3     0.090000        1.0080           0
     11899 WT5      616      MECN     C2       CG1N1    0.360000       12.0110           0
     11900 WT5      616      MECN     N3       NG1T1   -0.460000       14.0070           0
     11901 WT5      617      MECN     C1       CG331   -0.170000       12.0110           0
     11902 WT5      617      MECN     H11      HGA3     0.090000        1.0080           0
     11903 WT5      617      MECN     H12      HGA3     0.090000        1.0080           0
     11904 WT5      617      MECN     H13      HGA3     0.090000        1.0080           0
     11905 WT5      617      MECN     C2       CG1N1    0.360000       12.0110           0
     11906 WT5      617      MECN     N3       NG1T1   -0.460000       14.0070           0
     11907 WT5      620      MECN     C1       CG331   -0.170000       12.0110           0
     11908 WT5      620      MECN     H11      HGA3     0.090000        1.0080           0
     11909 WT5      620      MECN     H12      HGA3     0.090000        1.0080           0
     11910 WT5      620      MECN     H13      HGA3     0.090000        1.0080           0
     11911 WT5      620      MECN     C2       CG1N1    0.360000       12.0110           0
     11912 WT5      620      MECN     N3       NG1T1   -0.460000       14.0070           0
     11913 WT5      625      MECN     C1       CG331   -0.170000       12.0110           0
     11914 WT5      625      MECN     H11      HGA3     0.090000        1.0080           0
     11915 WT5      625      MECN     H12      HGA3     0.090000        1.0080           0
     11916 WT5      625      MECN     H13      HGA3     0.090000        1.0080           0
     11917 WT5      625      MECN     C2       CG1N1    0.360000       12.0110           0
     11918 WT5      625      MECN     N3       NG1T1   -0.460000       14.0070           0
     11919 WT5      628      MECN     C1       CG331   -0.170000       12.0110           0
     11920 WT5      628      MECN     H11      HGA3     0.090000        1.0080           0
     11921 WT5      628      MECN     H12      HGA3     0.090000        1.0080           0
     11922 WT5      628      MECN     H13      HGA3     0.090000        1.0080           0
     11923 WT5      628      MECN     C2       CG1N1    0.360000       12.0110           0
     11924 WT5      628      MECN     N3       NG1T1   -0.460000       14.0070           0
     11925 WT5      630      MECN     C1       CG331   -0.170000       12.0110           0
     11926 WT5      630      MECN     H11      HGA3     0.090000        1.0080           0
     11927 WT5      630      MECN     H12      HGA3     0.090000        1.0080           0
     11928 WT5      630      MECN     H13      HGA3     0.090000        1.0080           0
     11929 WT5      630      MECN     C2       CG1N1    0.360000       12.0110           0
     11930 WT5      630      MECN     N3       NG1T1   -0.460000       14.0070           0
     11931 WT5      632      MECN     C1       CG331   -0.170000       12.0110           0
     11932 WT5      632      MECN     H11      HGA3     0.090000        1.0080           0
     11933 WT5      632      MECN     H12      HGA3     0.090000        1.0080           0
     11934 WT5      632      MECN     H13      HGA3     0.090000        1.0080           0
     11935 WT5      632      MECN     C2       CG1N1    0.360000       12.0110           0
     11936 WT5      632      MECN     N3       NG1T1   -0.460000       14.0070           0
     11937 WT5      636      MECN     C1       CG331   -0.170000       12.0110           0
     11938 WT5      636      MECN     H11      HGA3     0.090000        1.0080           0
     11939 WT5      636      MECN     H12      HGA3     0.090000        1.0080           0
     11940 WT5      636      MECN     H13      HGA3     0.090000        1.0080           0
     11941 WT5      636      MECN     C2       CG1N1    0.360000       12.0110           0
     11942 WT5      636      MECN     N3       NG1T1   -0.460000       14.0070           0
     11943 WT5      638      MECN     C1       CG331   -0.170000       12.0110           0
     11944 WT5      638      MECN     H11      HGA3     0.090000        1.0080           0
     11945 WT5      638      MECN     H12      HGA3     0.090000        1.0080           0
     11946 WT5      638      MECN     H13      HGA3     0.090000        1.0080           0
     11947 WT5      638      MECN     C2       CG1N1    0.360000       12.0110           0
     11948 WT5      638      MECN     N3       NG1T1   -0.460000       14.0070           0
     11949 WT5      639      MECN     C1       CG331   -0.170000       12.0110           0
     11950 WT5      639      MECN     H11      HGA3     0.090000        1.0080           0
     11951 WT5      639      MECN     H12      HGA3     0.090000        1.0080           0
     11952 WT5      639      MECN     H13      HGA3     0.090000        1.0080           0
     11953 WT5      639      MECN     C2       CG1N1    0.360000       12.0110           0
     11954 WT5      639      MECN     N3       NG1T1   -0.460000       14.0070           0
     11955 WT5      641      MECN     C1       CG331   -0.170000       12.0110           0
     11956 WT5      641      MECN     H11      HGA3     0.090000        1.0080           0
     11957 WT5      641      MECN     H12      HGA3     0.090000        1.0080           0
     11958 WT5      641      MECN     H13      HGA3     0.090000        1.0080           0
     11959 WT5      641      MECN     C2       CG1N1    0.360000       12.0110           0
     11960 WT5      641      MECN     N3       NG1T1   -0.460000       14.0070           0
     11961 WT5      642      MECN     C1       CG331   -0.170000       12.0110           0
     11962 WT5      642      MECN     H11      HGA3     0.090000        1.0080           0
     11963 WT5      642      MECN     H12      HGA3     0.090000        1.0080           0
     11964 WT5      642      MECN     H13      HGA3     0.090000        1.0080           0
     11965 WT5      642      MECN     C2       CG1N1    0.360000       12.0110           0
     11966 WT5      642      MECN     N3       NG1T1   -0.460000       14.0070           0
     11967 WT5      644      MECN     C1       CG331   -0.170000       12.0110           0
     11968 WT5      644      MECN     H11      HGA3     0.090000        1.0080           0
     11969 WT5      644      MECN     H12      HGA3     0.090000        1.0080           0
     11970 WT5      644      MECN     H13      HGA3     0.090000        1.0080           0
     11971 WT5      644      MECN     C2       CG1N1    0.360000       12.0110           0
     11972 WT5      644      MECN     N3       NG1T1   -0.460000       14.0070           0
     11973 WT5      646      MECN     C1       CG331   -0.170000       12.0110           0
     11974 WT5      646      MECN     H11      HGA3     0.090000        1.0080           0
     11975 WT5      646      MECN     H12      HGA3     0.090000        1.0080           0
     11976 WT5      646      MECN     H13      HGA3     0.090000        1.0080           0
     11977 WT5      646      MECN     C2       CG1N1    0.360000       12.0110           0
     11978 WT5      646      MECN     N3       NG1T1   -0.460000       14.0070           0
     11979 WT5      650      MECN     C1       CG331   -0.170000       12.0110           0
     11980 WT5      650      MECN     H11      HGA3     0.090000        1.0080           0
     11981 WT5      650      MECN     H12      HGA3     0.090000        1.0080           0
     11982 WT5      650      MECN     H13      HGA3     0.090000        1.0080           0
     11983 WT5      650      MECN     C2       CG1N1    0.360000       12.0110           0
     11984 WT5      650      MECN     N3       NG1T1   -0.460000       14.0070           0
     11985 WT5      651      MECN     C1       CG331   -0.170000       12.0110           0
     11986 WT5      651      MECN     H11      HGA3     0.090000        1.0080           0
     11987 WT5      651      MECN     H12      HGA3     0.090000        1.0080           0
     11988 WT5      651      MECN     H13      HGA3     0.090000        1.0080           0
     11989 WT5      651      MECN     C2       CG1N1    0.360000       12.0110           0
     11990 WT5      651      MECN     N3       NG1T1   -0.460000       14.0070           0
     11991 WT5      655      MECN     C1       CG331   -0.170000       12.0110           0
     11992 WT5      655      MECN     H11      HGA3     0.090000        1.0080           0
     11993 WT5      655      MECN     H12      HGA3     0.090000        1.0080           0
     11994 WT5      655      MECN     H13      HGA3     0.090000        1.0080           0
     11995 WT5      655      MECN     C2       CG1N1    0.360000       12.0110           0
     11996 WT5      655      MECN     N3       NG1T1   -0.460000       14.0070           0
     11997 WT5      656      MECN     C1       CG331   -0.170000       12.0110           0
     11998 WT5      656      MECN     H11      HGA3     0.090000        1.0080           0
     11999 WT5      656      MECN     H12      HGA3     0.090000        1.0080           0
     12000 WT5      656      MECN     H13      HGA3     0.090000        1.0080           0
     12001 WT5      656      MECN     C2       CG1N1    0.360000       12.0110           0
     12002 WT5      656      MECN     N3       NG1T1   -0.460000       14.0070           0
     12003 WT5      657      MECN     C1       CG331   -0.170000       12.0110           0
     12004 WT5      657      MECN     H11      HGA3     0.090000        1.0080           0
     12005 WT5      657      MECN     H12      HGA3     0.090000        1.0080           0
     12006 WT5      657      MECN     H13      HGA3     0.090000        1.0080           0
     12007 WT5      657      MECN     C2       CG1N1    0.360000       12.0110           0
     12008 WT5      657      MECN     N3       NG1T1   -0.460000       14.0070           0
     12009 WT5      658      MECN     C1       CG331   -0.170000       12.0110           0
     12010 WT5      658      MECN     H11      HGA3     0.090000        1.0080           0
     12011 WT5      658      MECN     H12      HGA3     0.090000        1.0080           0
     12012 WT5      658      MECN     H13      HGA3     0.090000        1.0080           0
     12013 WT5      658      MECN     C2       CG1N1    0.360000       12.0110           0
     12014 WT5      658      MECN     N3       NG1T1   -0.460000       14.0070           0
     12015 WT5      663      MECN     C1       CG331   -0.170000       12.0110           0
     12016 WT5      663      MECN     H11      HGA3     0.090000        1.0080           0
     12017 WT5      663      MECN     H12      HGA3     0.090000        1.0080           0
     12018 WT5      663      MECN     H13      HGA3     0.090000        1.0080           0
     12019 WT5      663      MECN     C2       CG1N1    0.360000       12.0110           0
     12020 WT5      663      MECN     N3       NG1T1   -0.460000       14.0070           0
     12021 WT5      664      MECN     C1       CG331   -0.170000       12.0110           0
     12022 WT5      664      MECN     H11      HGA3     0.090000        1.0080           0
     12023 WT5      664      MECN     H12      HGA3     0.090000        1.0080           0
     12024 WT5      664      MECN     H13      HGA3     0.090000        1.0080           0
     12025 WT5      664      MECN     C2       CG1N1    0.360000       12.0110           0
     12026 WT5      664      MECN     N3       NG1T1   -0.460000       14.0070           0
     12027 WT5      667      MECN     C1       CG331   -0.170000       12.0110           0
     12028 WT5      667      MECN     H11      HGA3     0.090000        1.0080           0
     12029 WT5      667      MECN     H12      HGA3     0.090000        1.0080           0
     12030 WT5      667      MECN     H13      HGA3     0.090000        1.0080           0
     12031 WT5      667      MECN     C2       CG1N1    0.360000       12.0110           0
     12032 WT5      667      MECN     N3       NG1T1   -0.460000       14.0070           0
     12033 WT5      668      MECN     C1       CG331   -0.170000       12.0110           0
     12034 WT5      668      MECN     H11      HGA3     0.090000        1.0080           0
     12035 WT5      668      MECN     H12      HGA3     0.090000        1.0080           0
     12036 WT5      668      MECN     H13      HGA3     0.090000        1.0080           0
     12037 WT5      668      MECN     C2       CG1N1    0.360000       12.0110           0
     12038 WT5      668      MECN     N3       NG1T1   -0.460000       14.0070           0
     12039 WT5      670      MECN     C1       CG331   -0.170000       12.0110           0
     12040 WT5      670      MECN     H11      HGA3     0.090000        1.0080           0
     12041 WT5      670      MECN     H12      HGA3     0.090000        1.0080           0
     12042 WT5      670      MECN     H13      HGA3     0.090000        1.0080           0
     12043 WT5      670      MECN     C2       CG1N1    0.360000       12.0110           0
     12044 WT5      670      MECN     N3       NG1T1   -0.460000       14.0070           0
     12045 WT5      672      MECN     C1       CG331   -0.170000       12.0110           0
     12046 WT5      672      MECN     H11      HGA3     0.090000        1.0080           0
     12047 WT5      672      MECN     H12      HGA3     0.090000        1.0080           0
     12048 WT5      672      MECN     H13      HGA3     0.090000        1.0080           0
     12049 WT5      672      MECN     C2       CG1N1    0.360000       12.0110           0
     12050 WT5      672      MECN     N3       NG1T1   -0.460000       14.0070           0
     12051 WT5      673      MECN     C1       CG331   -0.170000       12.0110           0
     12052 WT5      673      MECN     H11      HGA3     0.090000        1.0080           0
     12053 WT5      673      MECN     H12      HGA3     0.090000        1.0080           0
     12054 WT5      673      MECN     H13      HGA3     0.090000        1.0080           0
     12055 WT5      673      MECN     C2       CG1N1    0.360000       12.0110           0
     12056 WT5      673      MECN     N3       NG1T1   -0.460000       14.0070           0
     12057 WT5      677      MECN     C1       CG331   -0.170000       12.0110           0
     12058 WT5      677      MECN     H11      HGA3     0.090000        1.0080           0
     12059 WT5      677      MECN     H12      HGA3     0.090000        1.0080           0
     12060 WT5      677      MECN     H13      HGA3     0.090000        1.0080           0
     12061 WT5      677      MECN     C2       CG1N1    0.360000       12.0110           0
     12062 WT5      677      MECN     N3       NG1T1   -0.460000       14.0070           0
     12063 WT5      678      MECN     C1       CG331   -0.170000       12.0110           0
     12064 WT5      678      MECN     H11      HGA3     0.090000        1.0080           0
     12065 WT5      678      MECN     H12      HGA3     0.090000        1.0080           0
     12066 WT5      678      MECN     H13      HGA3     0.090000        1.0080           0
     12067 WT5      678      MECN     C2       CG1N1    0.360000       12.0110           0
     12068 WT5      678      MECN     N3       NG1T1   -0.460000       14.0070           0
     12069 WT5      679      MECN     C1       CG331   -0.170000       12.0110           0
     12070 WT5      679      MECN     H11      HGA3     0.090000        1.0080           0
     12071 WT5      679      MECN     H12      HGA3     0.090000        1.0080           0
     12072 WT5      679      MECN     H13      HGA3     0.090000        1.0080           0
     12073 WT5      679      MECN     C2       CG1N1    0.360000       12.0110           0
     12074 WT5      679      MECN     N3       NG1T1   -0.460000       14.0070           0
     12075 WT5      681      MECN     C1       CG331   -0.170000       12.0110           0
     12076 WT5      681      MECN     H11      HGA3     0.090000        1.0080           0
     12077 WT5      681      MECN     H12      HGA3     0.090000        1.0080           0
     12078 WT5      681      MECN     H13      HGA3     0.090000        1.0080           0
     12079 WT5      681      MECN     C2       CG1N1    0.360000       12.0110           0
     12080 WT5      681      MECN     N3       NG1T1   -0.460000       14.0070           0
     12081 WT5      687      MECN     C1       CG331   -0.170000       12.0110           0
     12082 WT5      687      MECN     H11      HGA3     0.090000        1.0080           0
     12083 WT5      687      MECN     H12      HGA3     0.090000        1.0080           0
     12084 WT5      687      MECN     H13      HGA3     0.090000        1.0080           0
     12085 WT5      687      MECN     C2       CG1N1    0.360000       12.0110           0
     12086 WT5      687      MECN     N3       NG1T1   -0.460000       14.0070           0
     12087 WT5      688      MECN     C1       CG331   -0.170000       12.0110           0
     12088 WT5      688      MECN     H11      HGA3     0.090000        1.0080           0
     12089 WT5      688      MECN     H12      HGA3     0.090000        1.0080           0
     12090 WT5      688      MECN     H13      HGA3     0.090000        1.0080           0
     12091 WT5      688      MECN     C2       CG1N1    0.360000       12.0110           0
     12092 WT5      688      MECN     N3       NG1T1   -0.460000       14.0070           0
     12093 WT5      691      MECN     C1       CG331   -0.170000       12.0110           0
     12094 WT5      691      MECN     H11      HGA3     0.090000        1.0080           0
     12095 WT5      691      MECN     H12      HGA3     0.090000        1.0080           0
     12096 WT5      691      MECN     H13      HGA3     0.090000        1.0080           0
     12097 WT5      691      MECN     C2       CG1N1    0.360000       12.0110           0
     12098 WT5      691      MECN     N3       NG1T1   -0.460000       14.0070           0
     12099 WT5      692      MECN     C1       CG331   -0.170000       12.0110           0
     12100 WT5      692      MECN     H11      HGA3     0.090000        1.0080           0
     12101 WT5      692      MECN     H12      HGA3     0.090000        1.0080           0
     12102 WT5      692      MECN     H13      HGA3     0.090000        1.0080           0
     12103 WT5      692      MECN     C2       CG1N1    0.360000       12.0110           0
     12104 WT5      692      MECN     N3       NG1T1   -0.460000       14.0070           0
     12105 WT5      695      MECN     C1       CG331   -0.170000       12.0110           0
     12106 WT5      695      MECN     H11      HGA3     0.090000        1.0080           0
     12107 WT5      695      MECN     H12      HGA3     0.090000        1.0080           0
     12108 WT5      695      MECN     H13      HGA3     0.090000        1.0080           0
     12109 WT5      695      MECN     C2       CG1N1    0.360000       12.0110           0
     12110 WT5      695      MECN     N3       NG1T1   -0.460000       14.0070           0
     12111 WT5      696      MECN     C1       CG331   -0.170000       12.0110           0
     12112 WT5      696      MECN     H11      HGA3     0.090000        1.0080           0
     12113 WT5      696      MECN     H12      HGA3     0.090000        1.0080           0
     12114 WT5      696      MECN     H13      HGA3     0.090000        1.0080           0
     12115 WT5      696      MECN     C2       CG1N1    0.360000       12.0110           0
     12116 WT5      696      MECN     N3       NG1T1   -0.460000       14.0070           0
     12117 WT5      699      MECN     C1       CG331   -0.170000       12.0110           0
     12118 WT5      699      MECN     H11      HGA3     0.090000        1.0080           0
     12119 WT5      699      MECN     H12      HGA3     0.090000        1.0080           0
     12120 WT5      699      MECN     H13      HGA3     0.090000        1.0080           0
     12121 WT5      699      MECN     C2       CG1N1    0.360000       12.0110           0
     12122 WT5      699      MECN     N3       NG1T1   -0.460000       14.0070           0
     12123 WT5      703      MECN     C1       CG331   -0.170000       12.0110           0
     12124 WT5      703      MECN     H11      HGA3     0.090000        1.0080           0
     12125 WT5      703      MECN     H12      HGA3     0.090000        1.0080           0
     12126 WT5      703      MECN     H13      HGA3     0.090000        1.0080           0
     12127 WT5      703      MECN     C2       CG1N1    0.360000       12.0110           0
     12128 WT5      703      MECN     N3       NG1T1   -0.460000       14.0070           0
     12129 WT5      705      MECN     C1       CG331   -0.170000       12.0110           0
     12130 WT5      705      MECN     H11      HGA3     0.090000        1.0080           0
     12131 WT5      705      MECN     H12      HGA3     0.090000        1.0080           0
     12132 WT5      705      MECN     H13      HGA3     0.090000        1.0080           0
     12133 WT5      705      MECN     C2       CG1N1    0.360000       12.0110           0
     12134 WT5      705      MECN     N3       NG1T1   -0.460000       14.0070           0
     12135 WT5      706      MECN     C1       CG331   -0.170000       12.0110           0
     12136 WT5      706      MECN     H11      HGA3     0.090000        1.0080           0
     12137 WT5      706      MECN     H12      HGA3     0.090000        1.0080           0
     12138 WT5      706      MECN     H13      HGA3     0.090000        1.0080           0
     12139 WT5      706      MECN     C2       CG1N1    0.360000       12.0110           0
     12140 WT5      706      MECN     N3       NG1T1   -0.460000       14.0070           0
     12141 WT5      707      MECN     C1       CG331   -0.170000       12.0110           0
     12142 WT5      707      MECN     H11      HGA3     0.090000        1.0080           0
     12143 WT5      707      MECN     H12      HGA3     0.090000        1.0080           0
     12144 WT5      707      MECN     H13      HGA3     0.090000        1.0080           0
     12145 WT5      707      MECN     C2       CG1N1    0.360000       12.0110           0
     12146 WT5      707      MECN     N3       NG1T1   -0.460000       14.0070           0
     12147 WT5      711      MECN     C1       CG331   -0.170000       12.0110           0
     12148 WT5      711      MECN     H11      HGA3     0.090000        1.0080           0
     12149 WT5      711      MECN     H12      HGA3     0.090000        1.0080           0
     12150 WT5      711      MECN     H13      HGA3     0.090000        1.0080           0
     12151 WT5      711      MECN     C2       CG1N1    0.360000       12.0110           0
     12152 WT5      711      MECN     N3       NG1T1   -0.460000       14.0070           0
     12153 WT5      718      MECN     C1       CG331   -0.170000       12.0110           0
     12154 WT5      718      MECN     H11      HGA3     0.090000        1.0080           0
     12155 WT5      718      MECN     H12      HGA3     0.090000        1.0080           0
     12156 WT5      718      MECN     H13      HGA3     0.090000        1.0080           0
     12157 WT5      718      MECN     C2       CG1N1    0.360000       12.0110           0
     12158 WT5      718      MECN     N3       NG1T1   -0.460000       14.0070           0
     12159 WT5      719      MECN     C1       CG331   -0.170000       12.0110           0
     12160 WT5      719      MECN     H11      HGA3     0.090000        1.0080           0
     12161 WT5      719      MECN     H12      HGA3     0.090000        1.0080           0
     12162 WT5      719      MECN     H13      HGA3     0.090000        1.0080           0
     12163 WT5      719      MECN     C2       CG1N1    0.360000       12.0110           0
     12164 WT5      719      MECN     N3       NG1T1   -0.460000       14.0070           0
     12165 WT5      722      MECN     C1       CG331   -0.170000       12.0110           0
     12166 WT5      722      MECN     H11      HGA3     0.090000        1.0080           0
     12167 WT5      722      MECN     H12      HGA3     0.090000        1.0080           0
     12168 WT5      722      MECN     H13      HGA3     0.090000        1.0080           0
     12169 WT5      722      MECN     C2       CG1N1    0.360000       12.0110           0
     12170 WT5      722      MECN     N3       NG1T1   -0.460000       14.0070           0
     12171 WT5      724      MECN     C1       CG331   -0.170000       12.0110           0
     12172 WT5      724      MECN     H11      HGA3     0.090000        1.0080           0
     12173 WT5      724      MECN     H12      HGA3     0.090000        1.0080           0
     12174 WT5      724      MECN     H13      HGA3     0.090000        1.0080           0
     12175 WT5      724      MECN     C2       CG1N1    0.360000       12.0110           0
     12176 WT5      724      MECN     N3       NG1T1   -0.460000       14.0070           0
     12177 WT5      725      MECN     C1       CG331   -0.170000       12.0110           0
     12178 WT5      725      MECN     H11      HGA3     0.090000        1.0080           0
     12179 WT5      725      MECN     H12      HGA3     0.090000        1.0080           0
     12180 WT5      725      MECN     H13      HGA3     0.090000        1.0080           0
     12181 WT5      725      MECN     C2       CG1N1    0.360000       12.0110           0
     12182 WT5      725      MECN     N3       NG1T1   -0.460000       14.0070           0
     12183 WT5      727      MECN     C1       CG331   -0.170000       12.0110           0
     12184 WT5      727      MECN     H11      HGA3     0.090000        1.0080           0
     12185 WT5      727      MECN     H12      HGA3     0.090000        1.0080           0
     12186 WT5      727      MECN     H13      HGA3     0.090000        1.0080           0
     12187 WT5      727      MECN     C2       CG1N1    0.360000       12.0110           0
     12188 WT5      727      MECN     N3       NG1T1   -0.460000       14.0070           0
     12189 WT5      728      MECN     C1       CG331   -0.170000       12.0110           0
     12190 WT5      728      MECN     H11      HGA3     0.090000        1.0080           0
     12191 WT5      728      MECN     H12      HGA3     0.090000        1.0080           0
     12192 WT5      728      MECN     H13      HGA3     0.090000        1.0080           0
     12193 WT5      728      MECN     C2       CG1N1    0.360000       12.0110           0
     12194 WT5      728      MECN     N3       NG1T1   -0.460000       14.0070           0
     12195 WT5      736      MECN     C1       CG331   -0.170000       12.0110           0
     12196 WT5      736      MECN     H11      HGA3     0.090000        1.0080           0
     12197 WT5      736      MECN     H12      HGA3     0.090000        1.0080           0
     12198 WT5      736      MECN     H13      HGA3     0.090000        1.0080           0
     12199 WT5      736      MECN     C2       CG1N1    0.360000       12.0110           0
     12200 WT5      736      MECN     N3       NG1T1   -0.460000       14.0070           0
     12201 WT5      738      MECN     C1       CG331   -0.170000       12.0110           0
     12202 WT5      738      MECN     H11      HGA3     0.090000        1.0080           0
     12203 WT5      738      MECN     H12      HGA3     0.090000        1.0080           0
     12204 WT5      738      MECN     H13      HGA3     0.090000        1.0080           0
     12205 WT5      738      MECN     C2       CG1N1    0.360000       12.0110           0
     12206 WT5      738      MECN     N3       NG1T1   -0.460000       14.0070           0
     12207 WT5      739      MECN     C1       CG331   -0.170000       12.0110           0
     12208 WT5      739      MECN     H11      HGA3     0.090000        1.0080           0
     12209 WT5      739      MECN     H12      HGA3     0.090000        1.0080           0
     12210 WT5      739      MECN     H13      HGA3     0.090000        1.0080           0
     12211 WT5      739      MECN     C2       CG1N1    0.360000       12.0110           0
     12212 WT5      739      MECN     N3       NG1T1   -0.460000       14.0070           0
     12213 WT5      742      MECN     C1       CG331   -0.170000       12.0110           0
     12214 WT5      742      MECN     H11      HGA3     0.090000        1.0080           0
     12215 WT5      742      MECN     H12      HGA3     0.090000        1.0080           0
     12216 WT5      742      MECN     H13      HGA3     0.090000        1.0080           0
     12217 WT5      742      MECN     C2       CG1N1    0.360000       12.0110           0
     12218 WT5      742      MECN     N3       NG1T1   -0.460000       14.0070           0
     12219 WT5      744      MECN     C1       CG331   -0.170000       12.0110           0
     12220 WT5      744      MECN     H11      HGA3     0.090000        1.0080           0
     12221 WT5      744      MECN     H12      HGA3     0.090000        1.0080           0
     12222 WT5      744      MECN     H13      HGA3     0.090000        1.0080           0
     12223 WT5      744      MECN     C2       CG1N1    0.360000       12.0110           0
     12224 WT5      744      MECN     N3       NG1T1   -0.460000       14.0070           0
     12225 WT5      745      MECN     C1       CG331   -0.170000       12.0110           0
     12226 WT5      745      MECN     H11      HGA3     0.090000        1.0080           0
     12227 WT5      745      MECN     H12      HGA3     0.090000        1.0080           0
     12228 WT5      745      MECN     H13      HGA3     0.090000        1.0080           0
     12229 WT5      745      MECN     C2       CG1N1    0.360000       12.0110           0
     12230 WT5      745      MECN     N3       NG1T1   -0.460000       14.0070           0
     12231 WT5      749      MECN     C1       CG331   -0.170000       12.0110           0
     12232 WT5      749      MECN     H11      HGA3     0.090000        1.0080           0
     12233 WT5      749      MECN     H12      HGA3     0.090000        1.0080           0
     12234 WT5      749      MECN     H13      HGA3     0.090000        1.0080           0
     12235 WT5      749      MECN     C2       CG1N1    0.360000       12.0110           0
     12236 WT5      749      MECN     N3       NG1T1   -0.460000       14.0070           0
     12237 WT5      751      MECN     C1       CG331   -0.170000       12.0110           0
     12238 WT5      751      MECN     H11      HGA3     0.090000        1.0080           0
     12239 WT5      751      MECN     H12      HGA3     0.090000        1.0080           0
     12240 WT5      751      MECN     H13      HGA3     0.090000        1.0080           0
     12241 WT5      751      MECN     C2       CG1N1    0.360000       12.0110           0
     12242 WT5      751      MECN     N3       NG1T1   -0.460000       14.0070           0
     12243 WT5      758      MECN     C1       CG331   -0.170000       12.0110           0
     12244 WT5      758      MECN     H11      HGA3     0.090000        1.0080           0
     12245 WT5      758      MECN     H12      HGA3     0.090000        1.0080           0
     12246 WT5      758      MECN     H13      HGA3     0.090000        1.0080           0
     12247 WT5      758      MECN     C2       CG1N1    0.360000       12.0110           0
     12248 WT5      758      MECN     N3       NG1T1   -0.460000       14.0070           0
     12249 WT5      759      MECN     C1       CG331   -0.170000       12.0110           0
     12250 WT5      759      MECN     H11      HGA3     0.090000        1.0080           0
     12251 WT5      759      MECN     H12      HGA3     0.090000        1.0080           0
     12252 WT5      759      MECN     H13      HGA3     0.090000        1.0080           0
     12253 WT5      759      MECN     C2       CG1N1    0.360000       12.0110           0
     12254 WT5      759      MECN     N3       NG1T1   -0.460000       14.0070           0
     12255 WT5      762      MECN     C1       CG331   -0.170000       12.0110           0
     12256 WT5      762      MECN     H11      HGA3     0.090000        1.0080           0
     12257 WT5      762      MECN     H12      HGA3     0.090000        1.0080           0
     12258 WT5      762      MECN     H13      HGA3     0.090000        1.0080           0
     12259 WT5      762      MECN     C2       CG1N1    0.360000       12.0110           0
     12260 WT5      762      MECN     N3       NG1T1   -0.460000       14.0070           0
     12261 WT5      770      MECN     C1       CG331   -0.170000       12.0110           0
     12262 WT5      770      MECN     H11      HGA3     0.090000        1.0080           0
     12263 WT5      770      MECN     H12      HGA3     0.090000        1.0080           0
     12264 WT5      770      MECN     H13      HGA3     0.090000        1.0080           0
     12265 WT5      770      MECN     C2       CG1N1    0.360000       12.0110           0
     12266 WT5      770      MECN     N3       NG1T1   -0.460000       14.0070           0
     12267 WT5      771      MECN     C1       CG331   -0.170000       12.0110           0
     12268 WT5      771      MECN     H11      HGA3     0.090000        1.0080           0
     12269 WT5      771      MECN     H12      HGA3     0.090000        1.0080           0
     12270 WT5      771      MECN     H13      HGA3     0.090000        1.0080           0
     12271 WT5      771      MECN     C2       CG1N1    0.360000       12.0110           0
     12272 WT5      771      MECN     N3       NG1T1   -0.460000       14.0070           0
     12273 WT5      774      MECN     C1       CG331   -0.170000       12.0110           0
     12274 WT5      774      MECN     H11      HGA3     0.090000        1.0080           0
     12275 WT5      774      MECN     H12      HGA3     0.090000        1.0080           0
     12276 WT5      774      MECN     H13      HGA3     0.090000        1.0080           0
     12277 WT5      774      MECN     C2       CG1N1    0.360000       12.0110           0
     12278 WT5      774      MECN     N3       NG1T1   -0.460000       14.0070           0
     12279 WT5      777      MECN     C1       CG331   -0.170000       12.0110           0
     12280 WT5      777      MECN     H11      HGA3     0.090000        1.0080           0
     12281 WT5      777      MECN     H12      HGA3     0.090000        1.0080           0
     12282 WT5      777      MECN     H13      HGA3     0.090000        1.0080           0
     12283 WT5      777      MECN     C2       CG1N1    0.360000       12.0110           0
     12284 WT5      777      MECN     N3       NG1T1   -0.460000       14.0070           0
     12285 WT5      780      MECN     C1       CG331   -0.170000       12.0110           0
     12286 WT5      780      MECN     H11      HGA3     0.090000        1.0080           0
     12287 WT5      780      MECN     H12      HGA3     0.090000        1.0080           0
     12288 WT5      780      MECN     H13      HGA3     0.090000        1.0080           0
     12289 WT5      780      MECN     C2       CG1N1    0.360000       12.0110           0
     12290 WT5      780      MECN     N3       NG1T1   -0.460000       14.0070           0
     12291 WT5      781      MECN     C1       CG331   -0.170000       12.0110           0
     12292 WT5      781      MECN     H11      HGA3     0.090000        1.0080           0
     12293 WT5      781      MECN     H12      HGA3     0.090000        1.0080           0
     12294 WT5      781      MECN     H13      HGA3     0.090000        1.0080           0
     12295 WT5      781      MECN     C2       CG1N1    0.360000       12.0110           0
     12296 WT5      781      MECN     N3       NG1T1   -0.460000       14.0070           0
     12297 WT5      783      MECN     C1       CG331   -0.170000       12.0110           0
     12298 WT5      783      MECN     H11      HGA3     0.090000        1.0080           0
     12299 WT5      783      MECN     H12      HGA3     0.090000        1.0080           0
     12300 WT5      783      MECN     H13      HGA3     0.090000        1.0080           0
     12301 WT5      783      MECN     C2       CG1N1    0.360000       12.0110           0
     12302 WT5      783      MECN     N3       NG1T1   -0.460000       14.0070           0
     12303 WT5      785      MECN     C1       CG331   -0.170000       12.0110           0
     12304 WT5      785      MECN     H11      HGA3     0.090000        1.0080           0
     12305 WT5      785      MECN     H12      HGA3     0.090000        1.0080           0
     12306 WT5      785      MECN     H13      HGA3     0.090000        1.0080           0
     12307 WT5      785      MECN     C2       CG1N1    0.360000       12.0110           0
     12308 WT5      785      MECN     N3       NG1T1   -0.460000       14.0070           0
     12309 WT5      787      MECN     C1       CG331   -0.170000       12.0110           0
     12310 WT5      787      MECN     H11      HGA3     0.090000        1.0080           0
     12311 WT5      787      MECN     H12      HGA3     0.090000        1.0080           0
     12312 WT5      787      MECN     H13      HGA3     0.090000        1.0080           0
     12313 WT5      787      MECN     C2       CG1N1    0.360000       12.0110           0
     12314 WT5      787      MECN     N3       NG1T1   -0.460000       14.0070           0
     12315 WT5      790      MECN     C1       CG331   -0.170000       12.0110           0
     12316 WT5      790      MECN     H11      HGA3     0.090000        1.0080           0
     12317 WT5      790      MECN     H12      HGA3     0.090000        1.0080           0
     12318 WT5      790      MECN     H13      HGA3     0.090000        1.0080           0
     12319 WT5      790      MECN     C2       CG1N1    0.360000       12.0110           0
     12320 WT5      790      MECN     N3       NG1T1   -0.460000       14.0070           0
     12321 WT5      791      MECN     C1       CG331   -0.170000       12.0110           0
     12322 WT5      791      MECN     H11      HGA3     0.090000        1.0080           0
     12323 WT5      791      MECN     H12      HGA3     0.090000        1.0080           0
     12324 WT5      791      MECN     H13      HGA3     0.090000        1.0080           0
     12325 WT5      791      MECN     C2       CG1N1    0.360000       12.0110           0
     12326 WT5      791      MECN     N3       NG1T1   -0.460000       14.0070           0
     12327 WT5      792      MECN     C1       CG331   -0.170000       12.0110           0
     12328 WT5      792      MECN     H11      HGA3     0.090000        1.0080           0
     12329 WT5      792      MECN     H12      HGA3     0.090000        1.0080           0
     12330 WT5      792      MECN     H13      HGA3     0.090000        1.0080           0
     12331 WT5      792      MECN     C2       CG1N1    0.360000       12.0110           0
     12332 WT5      792      MECN     N3       NG1T1   -0.460000       14.0070           0
     12333 WT5      793      MECN     C1       CG331   -0.170000       12.0110           0
     12334 WT5      793      MECN     H11      HGA3     0.090000        1.0080           0
     12335 WT5      793      MECN     H12      HGA3     0.090000        1.0080           0
     12336 WT5      793      MECN     H13      HGA3     0.090000        1.0080           0
     12337 WT5      793      MECN     C2       CG1N1    0.360000       12.0110           0
     12338 WT5      793      MECN     N3       NG1T1   -0.460000       14.0070           0
     12339 WT5      804      MECN     C1       CG331   -0.170000       12.0110           0
     12340 WT5      804      MECN     H11      HGA3     0.090000        1.0080           0
     12341 WT5      804      MECN     H12      HGA3     0.090000        1.0080           0
     12342 WT5      804      MECN     H13      HGA3     0.090000        1.0080           0
     12343 WT5      804      MECN     C2       CG1N1    0.360000       12.0110           0
     12344 WT5      804      MECN     N3       NG1T1   -0.460000       14.0070           0
     12345 WT5      805      MECN     C1       CG331   -0.170000       12.0110           0
     12346 WT5      805      MECN     H11      HGA3     0.090000        1.0080           0
     12347 WT5      805      MECN     H12      HGA3     0.090000        1.0080           0
     12348 WT5      805      MECN     H13      HGA3     0.090000        1.0080           0
     12349 WT5      805      MECN     C2       CG1N1    0.360000       12.0110           0
     12350 WT5      805      MECN     N3       NG1T1   -0.460000       14.0070           0
     12351 WT5      807      MECN     C1       CG331   -0.170000       12.0110           0
     12352 WT5      807      MECN     H11      HGA3     0.090000        1.0080           0
     12353 WT5      807      MECN     H12      HGA3     0.090000        1.0080           0
     12354 WT5      807      MECN     H13      HGA3     0.090000        1.0080           0
     12355 WT5      807      MECN     C2       CG1N1    0.360000       12.0110           0
     12356 WT5      807      MECN     N3       NG1T1   -0.460000       14.0070           0
     12357 WT5      808      MECN     C1       CG331   -0.170000       12.0110           0
     12358 WT5      808      MECN     H11      HGA3     0.090000        1.0080           0
     12359 WT5      808      MECN     H12      HGA3     0.090000        1.0080           0
     12360 WT5      808      MECN     H13      HGA3     0.090000        1.0080           0
     12361 WT5      808      MECN     C2       CG1N1    0.360000       12.0110           0
     12362 WT5      808      MECN     N3       NG1T1   -0.460000       14.0070           0
     12363 WT5      810      MECN     C1       CG331   -0.170000       12.0110           0
     12364 WT5      810      MECN     H11      HGA3     0.090000        1.0080           0
     12365 WT5      810      MECN     H12      HGA3     0.090000        1.0080           0
     12366 WT5      810      MECN     H13      HGA3     0.090000        1.0080           0
     12367 WT5      810      MECN     C2       CG1N1    0.360000       12.0110           0
     12368 WT5      810      MECN     N3       NG1T1   -0.460000       14.0070           0
     12369 WT5      811      MECN     C1       CG331   -0.170000       12.0110           0
     12370 WT5      811      MECN     H11      HGA3     0.090000        1.0080           0
     12371 WT5      811      MECN     H12      HGA3     0.090000        1.0080           0
     12372 WT5      811      MECN     H13      HGA3     0.090000        1.0080           0
     12373 WT5      811      MECN     C2       CG1N1    0.360000       12.0110           0
     12374 WT5      811      MECN     N3       NG1T1   -0.460000       14.0070           0
     12375 WT5      813      MECN     C1       CG331   -0.170000       12.0110           0
     12376 WT5      813      MECN     H11      HGA3     0.090000        1.0080           0
     12377 WT5      813      MECN     H12      HGA3     0.090000        1.0080           0
     12378 WT5      813      MECN     H13      HGA3     0.090000        1.0080           0
     12379 WT5      813      MECN     C2       CG1N1    0.360000       12.0110           0
     12380 WT5      813      MECN     N3       NG1T1   -0.460000       14.0070           0
     12381 WT5      820      MECN     C1       CG331   -0.170000       12.0110           0
     12382 WT5      820      MECN     H11      HGA3     0.090000        1.0080           0
     12383 WT5      820      MECN     H12      HGA3     0.090000        1.0080           0
     12384 WT5      820      MECN     H13      HGA3     0.090000        1.0080           0
     12385 WT5      820      MECN     C2       CG1N1    0.360000       12.0110           0
     12386 WT5      820      MECN     N3       NG1T1   -0.460000       14.0070           0
     12387 WT5      825      MECN     C1       CG331   -0.170000       12.0110           0
     12388 WT5      825      MECN     H11      HGA3     0.090000        1.0080           0
     12389 WT5      825      MECN     H12      HGA3     0.090000        1.0080           0
     12390 WT5      825      MECN     H13      HGA3     0.090000        1.0080           0
     12391 WT5      825      MECN     C2       CG1N1    0.360000       12.0110           0
     12392 WT5      825      MECN     N3       NG1T1   -0.460000       14.0070           0
     12393 WT5      830      MECN     C1       CG331   -0.170000       12.0110           0
     12394 WT5      830      MECN     H11      HGA3     0.090000        1.0080           0
     12395 WT5      830      MECN     H12      HGA3     0.090000        1.0080           0
     12396 WT5      830      MECN     H13      HGA3     0.090000        1.0080           0
     12397 WT5      830      MECN     C2       CG1N1    0.360000       12.0110           0
     12398 WT5      830      MECN     N3       NG1T1   -0.460000       14.0070           0
     12399 WT5      832      MECN     C1       CG331   -0.170000       12.0110           0
     12400 WT5      832      MECN     H11      HGA3     0.090000        1.0080           0
     12401 WT5      832      MECN     H12      HGA3     0.090000        1.0080           0
     12402 WT5      832      MECN     H13      HGA3     0.090000        1.0080           0
     12403 WT5      832      MECN     C2       CG1N1    0.360000       12.0110           0
     12404 WT5      832      MECN     N3       NG1T1   -0.460000       14.0070           0
     12405 WT5      836      MECN     C1       CG331   -0.170000       12.0110           0
     12406 WT5      836      MECN     H11      HGA3     0.090000        1.0080           0
     12407 WT5      836      MECN     H12      HGA3     0.090000        1.0080           0
     12408 WT5      836      MECN     H13      HGA3     0.090000        1.0080           0
     12409 WT5      836      MECN     C2       CG1N1    0.360000       12.0110           0
     12410 WT5      836      MECN     N3       NG1T1   -0.460000       14.0070           0
     12411 WT5      837      MECN     C1       CG331   -0.170000       12.0110           0
     12412 WT5      837      MECN     H11      HGA3     0.090000        1.0080           0
     12413 WT5      837      MECN     H12      HGA3     0.090000        1.0080           0
     12414 WT5      837      MECN     H13      HGA3     0.090000        1.0080           0
     12415 WT5      837      MECN     C2       CG1N1    0.360000       12.0110           0
     12416 WT5      837      MECN     N3       NG1T1   -0.460000       14.0070           0
     12417 WT5      838      MECN     C1       CG331   -0.170000       12.0110           0
     12418 WT5      838      MECN     H11      HGA3     0.090000        1.0080           0
     12419 WT5      838      MECN     H12      HGA3     0.090000        1.0080           0
     12420 WT5      838      MECN     H13      HGA3     0.090000        1.0080           0
     12421 WT5      838      MECN     C2       CG1N1    0.360000       12.0110           0
     12422 WT5      838      MECN     N3       NG1T1   -0.460000       14.0070           0
     12423 WT5      839      MECN     C1       CG331   -0.170000       12.0110           0
     12424 WT5      839      MECN     H11      HGA3     0.090000        1.0080           0
     12425 WT5      839      MECN     H12      HGA3     0.090000        1.0080           0
     12426 WT5      839      MECN     H13      HGA3     0.090000        1.0080           0
     12427 WT5      839      MECN     C2       CG1N1    0.360000       12.0110           0
     12428 WT5      839      MECN     N3       NG1T1   -0.460000       14.0070           0
     12429 WT5      841      MECN     C1       CG331   -0.170000       12.0110           0
     12430 WT5      841      MECN     H11      HGA3     0.090000        1.0080           0
     12431 WT5      841      MECN     H12      HGA3     0.090000        1.0080           0
     12432 WT5      841      MECN     H13      HGA3     0.090000        1.0080           0
     12433 WT5      841      MECN     C2       CG1N1    0.360000       12.0110           0
     12434 WT5      841      MECN     N3       NG1T1   -0.460000       14.0070           0
     12435 WT5      845      MECN     C1       CG331   -0.170000       12.0110           0
     12436 WT5      845      MECN     H11      HGA3     0.090000        1.0080           0
     12437 WT5      845      MECN     H12      HGA3     0.090000        1.0080           0
     12438 WT5      845      MECN     H13      HGA3     0.090000        1.0080           0
     12439 WT5      845      MECN     C2       CG1N1    0.360000       12.0110           0
     12440 WT5      845      MECN     N3       NG1T1   -0.460000       14.0070           0
     12441 WT5      846      MECN     C1       CG331   -0.170000       12.0110           0
     12442 WT5      846      MECN     H11      HGA3     0.090000        1.0080           0
     12443 WT5      846      MECN     H12      HGA3     0.090000        1.0080           0
     12444 WT5      846      MECN     H13      HGA3     0.090000        1.0080           0
     12445 WT5      846      MECN     C2       CG1N1    0.360000       12.0110           0
     12446 WT5      846      MECN     N3       NG1T1   -0.460000       14.0070           0
     12447 WT5      853      MECN     C1       CG331   -0.170000       12.0110           0
     12448 WT5      853      MECN     H11      HGA3     0.090000        1.0080           0
     12449 WT5      853      MECN     H12      HGA3     0.090000        1.0080           0
     12450 WT5      853      MECN     H13      HGA3     0.090000        1.0080           0
     12451 WT5      853      MECN     C2       CG1N1    0.360000       12.0110           0
     12452 WT5      853      MECN     N3       NG1T1   -0.460000       14.0070           0
     12453 WT5      854      MECN     C1       CG331   -0.170000       12.0110           0
     12454 WT5      854      MECN     H11      HGA3     0.090000        1.0080           0
     12455 WT5      854      MECN     H12      HGA3     0.090000        1.0080           0
     12456 WT5      854      MECN     H13      HGA3     0.090000        1.0080           0
     12457 WT5      854      MECN     C2       CG1N1    0.360000       12.0110           0
     12458 WT5      854      MECN     N3       NG1T1   -0.460000       14.0070           0
     12459 WT5      855      MECN     C1       CG331   -0.170000       12.0110           0
     12460 WT5      855      MECN     H11      HGA3     0.090000        1.0080           0
     12461 WT5      855      MECN     H12      HGA3     0.090000        1.0080           0
     12462 WT5      855      MECN     H13      HGA3     0.090000        1.0080           0
     12463 WT5      855      MECN     C2       CG1N1    0.360000       12.0110           0
     12464 WT5      855      MECN     N3       NG1T1   -0.460000       14.0070           0
     12465 WT5      863      MECN     C1       CG331   -0.170000       12.0110           0
     12466 WT5      863      MECN     H11      HGA3     0.090000        1.0080           0
     12467 WT5      863      MECN     H12      HGA3     0.090000        1.0080           0
     12468 WT5      863      MECN     H13      HGA3     0.090000        1.0080           0
     12469 WT5      863      MECN     C2       CG1N1    0.360000       12.0110           0
     12470 WT5      863      MECN     N3       NG1T1   -0.460000       14.0070           0
     12471 WT5      866      MECN     C1       CG331   -0.170000       12.0110           0
     12472 WT5      866      MECN     H11      HGA3     0.090000        1.0080           0
     12473 WT5      866      MECN     H12      HGA3     0.090000        1.0080           0
     12474 WT5      866      MECN     H13      HGA3     0.090000        1.0080           0
     12475 WT5      866      MECN     C2       CG1N1    0.360000       12.0110           0
     12476 WT5      866      MECN     N3       NG1T1   -0.460000       14.0070           0
     12477 WT5      870      MECN     C1       CG331   -0.170000       12.0110           0
     12478 WT5      870      MECN     H11      HGA3     0.090000        1.0080           0
     12479 WT5      870      MECN     H12      HGA3     0.090000        1.0080           0
     12480 WT5      870      MECN     H13      HGA3     0.090000        1.0080           0
     12481 WT5      870      MECN     C2       CG1N1    0.360000       12.0110           0
     12482 WT5      870      MECN     N3       NG1T1   -0.460000       14.0070           0
     12483 WT5      871      MECN     C1       CG331   -0.170000       12.0110           0
     12484 WT5      871      MECN     H11      HGA3     0.090000        1.0080           0
     12485 WT5      871      MECN     H12      HGA3     0.090000        1.0080           0
     12486 WT5      871      MECN     H13      HGA3     0.090000        1.0080           0
     12487 WT5      871      MECN     C2       CG1N1    0.360000       12.0110           0
     12488 WT5      871      MECN     N3       NG1T1   -0.460000       14.0070           0
     12489 WT5      875      MECN     C1       CG331   -0.170000       12.0110           0
     12490 WT5      875      MECN     H11      HGA3     0.090000        1.0080           0
     12491 WT5      875      MECN     H12      HGA3     0.090000        1.0080           0
     12492 WT5      875      MECN     H13      HGA3     0.090000        1.0080           0
     12493 WT5      875      MECN     C2       CG1N1    0.360000       12.0110           0
     12494 WT5      875      MECN     N3       NG1T1   -0.460000       14.0070           0
     12495 WT5      877      MECN     C1       CG331   -0.170000       12.0110           0
     12496 WT5      877      MECN     H11      HGA3     0.090000        1.0080           0
     12497 WT5      877      MECN     H12      HGA3     0.090000        1.0080           0
     12498 WT5      877      MECN     H13      HGA3     0.090000        1.0080           0
     12499 WT5      877      MECN     C2       CG1N1    0.360000       12.0110           0
     12500 WT5      877      MECN     N3       NG1T1   -0.460000       14.0070           0
     12501 WT5      879      MECN     C1       CG331   -0.170000       12.0110           0
     12502 WT5      879      MECN     H11      HGA3     0.090000        1.0080           0
     12503 WT5      879      MECN     H12      HGA3     0.090000        1.0080           0
     12504 WT5      879      MECN     H13      HGA3     0.090000        1.0080           0
     12505 WT5      879      MECN     C2       CG1N1    0.360000       12.0110           0
     12506 WT5      879      MECN     N3       NG1T1   -0.460000       14.0070           0
     12507 WT5      880      MECN     C1       CG331   -0.170000       12.0110           0
     12508 WT5      880      MECN     H11      HGA3     0.090000        1.0080           0
     12509 WT5      880      MECN     H12      HGA3     0.090000        1.0080           0
     12510 WT5      880      MECN     H13      HGA3     0.090000        1.0080           0
     12511 WT5      880      MECN     C2       CG1N1    0.360000       12.0110           0
     12512 WT5      880      MECN     N3       NG1T1   -0.460000       14.0070           0
     12513 WT5      882      MECN     C1       CG331   -0.170000       12.0110           0
     12514 WT5      882      MECN     H11      HGA3     0.090000        1.0080           0
     12515 WT5      882      MECN     H12      HGA3     0.090000        1.0080           0
     12516 WT5      882      MECN     H13      HGA3     0.090000        1.0080           0
     12517 WT5      882      MECN     C2       CG1N1    0.360000       12.0110           0
     12518 WT5      882      MECN     N3       NG1T1   -0.460000       14.0070           0
     12519 WT5      883      MECN     C1       CG331   -0.170000       12.0110           0
     12520 WT5      883      MECN     H11      HGA3     0.090000        1.0080           0
     12521 WT5      883      MECN     H12      HGA3     0.090000        1.0080           0
     12522 WT5      883      MECN     H13      HGA3     0.090000        1.0080           0
     12523 WT5      883      MECN     C2       CG1N1    0.360000       12.0110           0
     12524 WT5      883      MECN     N3       NG1T1   -0.460000       14.0070           0
     12525 WT5      884      MECN     C1       CG331   -0.170000       12.0110           0
     12526 WT5      884      MECN     H11      HGA3     0.090000        1.0080           0
     12527 WT5      884      MECN     H12      HGA3     0.090000        1.0080           0
     12528 WT5      884      MECN     H13      HGA3     0.090000        1.0080           0
     12529 WT5      884      MECN     C2       CG1N1    0.360000       12.0110           0
     12530 WT5      884      MECN     N3       NG1T1   -0.460000       14.0070           0
     12531 WT5      892      MECN     C1       CG331   -0.170000       12.0110           0
     12532 WT5      892      MECN     H11      HGA3     0.090000        1.0080           0
     12533 WT5      892      MECN     H12      HGA3     0.090000        1.0080           0
     12534 WT5      892      MECN     H13      HGA3     0.090000        1.0080           0
     12535 WT5      892      MECN     C2       CG1N1    0.360000       12.0110           0
     12536 WT5      892      MECN     N3       NG1T1   -0.460000       14.0070           0
     12537 WT5      895      MECN     C1       CG331   -0.170000       12.0110           0
     12538 WT5      895      MECN     H11      HGA3     0.090000        1.0080           0
     12539 WT5      895      MECN     H12      HGA3     0.090000        1.0080           0
     12540 WT5      895      MECN     H13      HGA3     0.090000        1.0080           0
     12541 WT5      895      MECN     C2       CG1N1    0.360000       12.0110           0
     12542 WT5      895      MECN     N3       NG1T1   -0.460000       14.0070           0
     12543 WT5      897      MECN     C1       CG331   -0.170000       12.0110           0
     12544 WT5      897      MECN     H11      HGA3     0.090000        1.0080           0
     12545 WT5      897      MECN     H12      HGA3     0.090000        1.0080           0
     12546 WT5      897      MECN     H13      HGA3     0.090000        1.0080           0
     12547 WT5      897      MECN     C2       CG1N1    0.360000       12.0110           0
     12548 WT5      897      MECN     N3       NG1T1   -0.460000       14.0070           0
     12549 WT5      898      MECN     C1       CG331   -0.170000       12.0110           0
     12550 WT5      898      MECN     H11      HGA3     0.090000        1.0080           0
     12551 WT5      898      MECN     H12      HGA3     0.090000        1.0080           0
     12552 WT5      898      MECN     H13      HGA3     0.090000        1.0080           0
     12553 WT5      898      MECN     C2       CG1N1    0.360000       12.0110           0
     12554 WT5      898      MECN     N3       NG1T1   -0.460000       14.0070           0
     12555 WT5      899      MECN     C1       CG331   -0.170000       12.0110           0
     12556 WT5      899      MECN     H11      HGA3     0.090000        1.0080           0
     12557 WT5      899      MECN     H12      HGA3     0.090000        1.0080           0
     12558 WT5      899      MECN     H13      HGA3     0.090000        1.0080           0
     12559 WT5      899      MECN     C2       CG1N1    0.360000       12.0110           0
     12560 WT5      899      MECN     N3       NG1T1   -0.460000       14.0070           0
     12561 WT5      901      MECN     C1       CG331   -0.170000       12.0110           0
     12562 WT5      901      MECN     H11      HGA3     0.090000        1.0080           0
     12563 WT5      901      MECN     H12      HGA3     0.090000        1.0080           0
     12564 WT5      901      MECN     H13      HGA3     0.090000        1.0080           0
     12565 WT5      901      MECN     C2       CG1N1    0.360000       12.0110           0
     12566 WT5      901      MECN     N3       NG1T1   -0.460000       14.0070           0
     12567 WT5      903      MECN     C1       CG331   -0.170000       12.0110           0
     12568 WT5      903      MECN     H11      HGA3     0.090000        1.0080           0
     12569 WT5      903      MECN     H12      HGA3     0.090000        1.0080           0
     12570 WT5      903      MECN     H13      HGA3     0.090000        1.0080           0
     12571 WT5      903      MECN     C2       CG1N1    0.360000       12.0110           0
     12572 WT5      903      MECN     N3       NG1T1   -0.460000       14.0070           0
     12573 WT5      904      MECN     C1       CG331   -0.170000       12.0110           0
     12574 WT5      904      MECN     H11      HGA3     0.090000        1.0080           0
     12575 WT5      904      MECN     H12      HGA3     0.090000        1.0080           0
     12576 WT5      904      MECN     H13      HGA3     0.090000        1.0080           0
     12577 WT5      904      MECN     C2       CG1N1    0.360000       12.0110           0
     12578 WT5      904      MECN     N3       NG1T1   -0.460000       14.0070           0
     12579 WT5      907      MECN     C1       CG331   -0.170000       12.0110           0
     12580 WT5      907      MECN     H11      HGA3     0.090000        1.0080           0
     12581 WT5      907      MECN     H12      HGA3     0.090000        1.0080           0
     12582 WT5      907      MECN     H13      HGA3     0.090000        1.0080           0
     12583 WT5      907      MECN     C2       CG1N1    0.360000       12.0110           0
     12584 WT5      907      MECN     N3       NG1T1   -0.460000       14.0070           0
     12585 WT5      908      MECN     C1       CG331   -0.170000       12.0110           0
     12586 WT5      908      MECN     H11      HGA3     0.090000        1.0080           0
     12587 WT5      908      MECN     H12      HGA3     0.090000        1.0080           0
     12588 WT5      908      MECN     H13      HGA3     0.090000        1.0080           0
     12589 WT5      908      MECN     C2       CG1N1    0.360000       12.0110           0
     12590 WT5      908      MECN     N3       NG1T1   -0.460000       14.0070           0
     12591 WT5      912      MECN     C1       CG331   -0.170000       12.0110           0
     12592 WT5      912      MECN     H11      HGA3     0.090000        1.0080           0
     12593 WT5      912      MECN     H12      HGA3     0.090000        1.0080           0
     12594 WT5      912      MECN     H13      HGA3     0.090000        1.0080           0
     12595 WT5      912      MECN     C2       CG1N1    0.360000       12.0110           0
     12596 WT5      912      MECN     N3       NG1T1   -0.460000       14.0070           0
     12597 WT5      914      MECN     C1       CG331   -0.170000       12.0110           0
     12598 WT5      914      MECN     H11      HGA3     0.090000        1.0080           0
     12599 WT5      914      MECN     H12      HGA3     0.090000        1.0080           0
     12600 WT5      914      MECN     H13      HGA3     0.090000        1.0080           0
     12601 WT5      914      MECN     C2       CG1N1    0.360000       12.0110           0
     12602 WT5      914      MECN     N3       NG1T1   -0.460000       14.0070           0
     12603 WT5      916      MECN     C1       CG331   -0.170000       12.0110           0
     12604 WT5      916      MECN     H11      HGA3     0.090000        1.0080           0
     12605 WT5      916      MECN     H12      HGA3     0.090000        1.0080           0
     12606 WT5      916      MECN     H13      HGA3     0.090000        1.0080           0
     12607 WT5      916      MECN     C2       CG1N1    0.360000       12.0110           0
     12608 WT5      916      MECN     N3       NG1T1   -0.460000       14.0070           0
     12609 WT5      918      MECN     C1       CG331   -0.170000       12.0110           0
     12610 WT5      918      MECN     H11      HGA3     0.090000        1.0080           0
     12611 WT5      918      MECN     H12      HGA3     0.090000        1.0080           0
     12612 WT5      918      MECN     H13      HGA3     0.090000        1.0080           0
     12613 WT5      918      MECN     C2       CG1N1    0.360000       12.0110           0
     12614 WT5      918      MECN     N3       NG1T1   -0.460000       14.0070           0
     12615 WT5      919      MECN     C1       CG331   -0.170000       12.0110           0
     12616 WT5      919      MECN     H11      HGA3     0.090000        1.0080           0
     12617 WT5      919      MECN     H12      HGA3     0.090000        1.0080           0
     12618 WT5      919      MECN     H13      HGA3     0.090000        1.0080           0
     12619 WT5      919      MECN     C2       CG1N1    0.360000       12.0110           0
     12620 WT5      919      MECN     N3       NG1T1   -0.460000       14.0070           0
     12621 WT5      922      MECN     C1       CG331   -0.170000       12.0110           0
     12622 WT5      922      MECN     H11      HGA3     0.090000        1.0080           0
     12623 WT5      922      MECN     H12      HGA3     0.090000        1.0080           0
     12624 WT5      922      MECN     H13      HGA3     0.090000        1.0080           0
     12625 WT5      922      MECN     C2       CG1N1    0.360000       12.0110           0
     12626 WT5      922      MECN     N3       NG1T1   -0.460000       14.0070           0
     12627 WT5      927      MECN     C1       CG331   -0.170000       12.0110           0
     12628 WT5      927      MECN     H11      HGA3     0.090000        1.0080           0
     12629 WT5      927      MECN     H12      HGA3     0.090000        1.0080           0
     12630 WT5      927      MECN     H13      HGA3     0.090000        1.0080           0
     12631 WT5      927      MECN     C2       CG1N1    0.360000       12.0110           0
     12632 WT5      927      MECN     N3       NG1T1   -0.460000       14.0070           0
     12633 WT5      929      MECN     C1       CG331   -0.170000       12.0110           0
     12634 WT5      929      MECN     H11      HGA3     0.090000        1.0080           0
     12635 WT5      929      MECN     H12      HGA3     0.090000        1.0080           0
     12636 WT5      929      MECN     H13      HGA3     0.090000        1.0080           0
     12637 WT5      929      MECN     C2       CG1N1    0.360000       12.0110           0
     12638 WT5      929      MECN     N3       NG1T1   -0.460000       14.0070           0
     12639 WT5      930      MECN     C1       CG331   -0.170000       12.0110           0
     12640 WT5      930      MECN     H11      HGA3     0.090000        1.0080           0
     12641 WT5      930      MECN     H12      HGA3     0.090000        1.0080           0
     12642 WT5      930      MECN     H13      HGA3     0.090000        1.0080           0
     12643 WT5      930      MECN     C2       CG1N1    0.360000       12.0110           0
     12644 WT5      930      MECN     N3       NG1T1   -0.460000       14.0070           0
     12645 WT5      932      MECN     C1       CG331   -0.170000       12.0110           0
     12646 WT5      932      MECN     H11      HGA3     0.090000        1.0080           0
     12647 WT5      932      MECN     H12      HGA3     0.090000        1.0080           0
     12648 WT5      932      MECN     H13      HGA3     0.090000        1.0080           0
     12649 WT5      932      MECN     C2       CG1N1    0.360000       12.0110           0
     12650 WT5      932      MECN     N3       NG1T1   -0.460000       14.0070           0
     12651 WT5      934      MECN     C1       CG331   -0.170000       12.0110           0
     12652 WT5      934      MECN     H11      HGA3     0.090000        1.0080           0
     12653 WT5      934      MECN     H12      HGA3     0.090000        1.0080           0
     12654 WT5      934      MECN     H13      HGA3     0.090000        1.0080           0
     12655 WT5      934      MECN     C2       CG1N1    0.360000       12.0110           0
     12656 WT5      934      MECN     N3       NG1T1   -0.460000       14.0070           0
     12657 WT5      935      MECN     C1       CG331   -0.170000       12.0110           0
     12658 WT5      935      MECN     H11      HGA3     0.090000        1.0080           0
     12659 WT5      935      MECN     H12      HGA3     0.090000        1.0080           0
     12660 WT5      935      MECN     H13      HGA3     0.090000        1.0080           0
     12661 WT5      935      MECN     C2       CG1N1    0.360000       12.0110           0
     12662 WT5      935      MECN     N3       NG1T1   -0.460000       14.0070           0
     12663 WT5      937      MECN     C1       CG331   -0.170000       12.0110           0
     12664 WT5      937      MECN     H11      HGA3     0.090000        1.0080           0
     12665 WT5      937      MECN     H12      HGA3     0.090000        1.0080           0
     12666 WT5      937      MECN     H13      HGA3     0.090000        1.0080           0
     12667 WT5      937      MECN     C2       CG1N1    0.360000       12.0110           0
     12668 WT5      937      MECN     N3       NG1T1   -0.460000       14.0070           0
     12669 WT5      938      MECN     C1       CG331   -0.170000       12.0110           0
     12670 WT5      938      MECN     H11      HGA3     0.090000        1.0080           0
     12671 WT5      938      MECN     H12      HGA3     0.090000        1.0080           0
     12672 WT5      938      MECN     H13      HGA3     0.090000        1.0080           0
     12673 WT5      938      MECN     C2       CG1N1    0.360000       12.0110           0
     12674 WT5      938      MECN     N3       NG1T1   -0.460000       14.0070           0
     12675 WT5      939      MECN     C1       CG331   -0.170000       12.0110           0
     12676 WT5      939      MECN     H11      HGA3     0.090000        1.0080           0
     12677 WT5      939      MECN     H12      HGA3     0.090000        1.0080           0
     12678 WT5      939      MECN     H13      HGA3     0.090000        1.0080           0
     12679 WT5      939      MECN     C2       CG1N1    0.360000       12.0110           0
     12680 WT5      939      MECN     N3       NG1T1   -0.460000       14.0070           0
     12681 WT5      941      MECN     C1       CG331   -0.170000       12.0110           0
     12682 WT5      941      MECN     H11      HGA3     0.090000        1.0080           0
     12683 WT5      941      MECN     H12      HGA3     0.090000        1.0080           0
     12684 WT5      941      MECN     H13      HGA3     0.090000        1.0080           0
     12685 WT5      941      MECN     C2       CG1N1    0.360000       12.0110           0
     12686 WT5      941      MECN     N3       NG1T1   -0.460000       14.0070           0
     12687 WT5      942      MECN     C1       CG331   -0.170000       12.0110           0
     12688 WT5      942      MECN     H11      HGA3     0.090000        1.0080           0
     12689 WT5      942      MECN     H12      HGA3     0.090000        1.0080           0
     12690 WT5      942      MECN     H13      HGA3     0.090000        1.0080           0
     12691 WT5      942      MECN     C2       CG1N1    0.360000       12.0110           0
     12692 WT5      942      MECN     N3       NG1T1   -0.460000       14.0070           0
     12693 WT5      947      MECN     C1       CG331   -0.170000       12.0110           0
     12694 WT5      947      MECN     H11      HGA3     0.090000        1.0080           0
     12695 WT5      947      MECN     H12      HGA3     0.090000        1.0080           0
     12696 WT5      947      MECN     H13      HGA3     0.090000        1.0080           0
     12697 WT5      947      MECN     C2       CG1N1    0.360000       12.0110           0
     12698 WT5      947      MECN     N3       NG1T1   -0.460000       14.0070           0
     12699 WT5      948      MECN     C1       CG331   -0.170000       12.0110           0
     12700 WT5      948      MECN     H11      HGA3     0.090000        1.0080           0
     12701 WT5      948      MECN     H12      HGA3     0.090000        1.0080           0
     12702 WT5      948      MECN     H13      HGA3     0.090000        1.0080           0
     12703 WT5      948      MECN     C2       CG1N1    0.360000       12.0110           0
     12704 WT5      948      MECN     N3       NG1T1   -0.460000       14.0070           0
     12705 WT5      949      MECN     C1       CG331   -0.170000       12.0110           0
     12706 WT5      949      MECN     H11      HGA3     0.090000        1.0080           0
     12707 WT5      949      MECN     H12      HGA3     0.090000        1.0080           0
     12708 WT5      949      MECN     H13      HGA3     0.090000        1.0080           0
     12709 WT5      949      MECN     C2       CG1N1    0.360000       12.0110           0
     12710 WT5      949      MECN     N3       NG1T1   -0.460000       14.0070           0
     12711 WT5      950      MECN     C1       CG331   -0.170000       12.0110           0
     12712 WT5      950      MECN     H11      HGA3     0.090000        1.0080           0
     12713 WT5      950      MECN     H12      HGA3     0.090000        1.0080           0
     12714 WT5      950      MECN     H13      HGA3     0.090000        1.0080           0
     12715 WT5      950      MECN     C2       CG1N1    0.360000       12.0110           0
     12716 WT5      950      MECN     N3       NG1T1   -0.460000       14.0070           0
     12717 WT5      953      MECN     C1       CG331   -0.170000       12.0110           0
     12718 WT5      953      MECN     H11      HGA3     0.090000        1.0080           0
     12719 WT5      953      MECN     H12      HGA3     0.090000        1.0080           0
     12720 WT5      953      MECN     H13      HGA3     0.090000        1.0080           0
     12721 WT5      953      MECN     C2       CG1N1    0.360000       12.0110           0
     12722 WT5      953      MECN     N3       NG1T1   -0.460000       14.0070           0
     12723 WT5      957      MECN     C1       CG331   -0.170000       12.0110           0
     12724 WT5      957      MECN     H11      HGA3     0.090000        1.0080           0
     12725 WT5      957      MECN     H12      HGA3     0.090000        1.0080           0
     12726 WT5      957      MECN     H13      HGA3     0.090000        1.0080           0
     12727 WT5      957      MECN     C2       CG1N1    0.360000       12.0110           0
     12728 WT5      957      MECN     N3       NG1T1   -0.460000       14.0070           0
     12729 WT5      958      MECN     C1       CG331   -0.170000       12.0110           0
     12730 WT5      958      MECN     H11      HGA3     0.090000        1.0080           0
     12731 WT5      958      MECN     H12      HGA3     0.090000        1.0080           0
     12732 WT5      958      MECN     H13      HGA3     0.090000        1.0080           0
     12733 WT5      958      MECN     C2       CG1N1    0.360000       12.0110           0
     12734 WT5      958      MECN     N3       NG1T1   -0.460000       14.0070           0
     12735 WT5      959      MECN     C1       CG331   -0.170000       12.0110           0
     12736 WT5      959      MECN     H11      HGA3     0.090000        1.0080           0
     12737 WT5      959      MECN     H12      HGA3     0.090000        1.0080           0
     12738 WT5      959      MECN     H13      HGA3     0.090000        1.0080           0
     12739 WT5      959      MECN     C2       CG1N1    0.360000       12.0110           0
     12740 WT5      959      MECN     N3       NG1T1   -0.460000       14.0070           0
     12741 WT5      960      MECN     C1       CG331   -0.170000       12.0110           0
     12742 WT5      960      MECN     H11      HGA3     0.090000        1.0080           0
     12743 WT5      960      MECN     H12      HGA3     0.090000        1.0080           0
     12744 WT5      960      MECN     H13      HGA3     0.090000        1.0080           0
     12745 WT5      960      MECN     C2       CG1N1    0.360000       12.0110           0
     12746 WT5      960      MECN     N3       NG1T1   -0.460000       14.0070           0
     12747 WT5      963      MECN     C1       CG331   -0.170000       12.0110           0
     12748 WT5      963      MECN     H11      HGA3     0.090000        1.0080           0
     12749 WT5      963      MECN     H12      HGA3     0.090000        1.0080           0
     12750 WT5      963      MECN     H13      HGA3     0.090000        1.0080           0
     12751 WT5      963      MECN     C2       CG1N1    0.360000       12.0110           0
     12752 WT5      963      MECN     N3       NG1T1   -0.460000       14.0070           0
     12753 WT5      964      MECN     C1       CG331   -0.170000       12.0110           0
     12754 WT5      964      MECN     H11      HGA3     0.090000        1.0080           0
     12755 WT5      964      MECN     H12      HGA3     0.090000        1.0080           0
     12756 WT5      964      MECN     H13      HGA3     0.090000        1.0080           0
     12757 WT5      964      MECN     C2       CG1N1    0.360000       12.0110           0
     12758 WT5      964      MECN     N3       NG1T1   -0.460000       14.0070           0
     12759 WT5      967      MECN     C1       CG331   -0.170000       12.0110           0
     12760 WT5      967      MECN     H11      HGA3     0.090000        1.0080           0
     12761 WT5      967      MECN     H12      HGA3     0.090000        1.0080           0
     12762 WT5      967      MECN     H13      HGA3     0.090000        1.0080           0
     12763 WT5      967      MECN     C2       CG1N1    0.360000       12.0110           0
     12764 WT5      967      MECN     N3       NG1T1   -0.460000       14.0070           0
     12765 WT5      968      MECN     C1       CG331   -0.170000       12.0110           0
     12766 WT5      968      MECN     H11      HGA3     0.090000        1.0080           0
     12767 WT5      968      MECN     H12      HGA3     0.090000        1.0080           0
     12768 WT5      968      MECN     H13      HGA3     0.090000        1.0080           0
     12769 WT5      968      MECN     C2       CG1N1    0.360000       12.0110           0
     12770 WT5      968      MECN     N3       NG1T1   -0.460000       14.0070           0
     12771 WT5      969      MECN     C1       CG331   -0.170000       12.0110           0
     12772 WT5      969      MECN     H11      HGA3     0.090000        1.0080           0
     12773 WT5      969      MECN     H12      HGA3     0.090000        1.0080           0
     12774 WT5      969      MECN     H13      HGA3     0.090000        1.0080           0
     12775 WT5      969      MECN     C2       CG1N1    0.360000       12.0110           0
     12776 WT5      969      MECN     N3       NG1T1   -0.460000       14.0070           0
     12777 WT5      970      MECN     C1       CG331   -0.170000       12.0110           0
     12778 WT5      970      MECN     H11      HGA3     0.090000        1.0080           0
     12779 WT5      970      MECN     H12      HGA3     0.090000        1.0080           0
     12780 WT5      970      MECN     H13      HGA3     0.090000        1.0080           0
     12781 WT5      970      MECN     C2       CG1N1    0.360000       12.0110           0
     12782 WT5      970      MECN     N3       NG1T1   -0.460000       14.0070           0
     12783 WT5      971      MECN     C1       CG331   -0.170000       12.0110           0
     12784 WT5      971      MECN     H11      HGA3     0.090000        1.0080           0
     12785 WT5      971      MECN     H12      HGA3     0.090000        1.0080           0
     12786 WT5      971      MECN     H13      HGA3     0.090000        1.0080           0
     12787 WT5      971      MECN     C2       CG1N1    0.360000       12.0110           0
     12788 WT5      971      MECN     N3       NG1T1   -0.460000       14.0070           0
     12789 WT5      974      MECN     C1       CG331   -0.170000       12.0110           0
     12790 WT5      974      MECN     H11      HGA3     0.090000        1.0080           0
     12791 WT5      974      MECN     H12      HGA3     0.090000        1.0080           0
     12792 WT5      974      MECN     H13      HGA3     0.090000        1.0080           0
     12793 WT5      974      MECN     C2       CG1N1    0.360000       12.0110           0
     12794 WT5      974      MECN     N3       NG1T1   -0.460000       14.0070           0
     12795 WT5      975      MECN     C1       CG331   -0.170000       12.0110           0
     12796 WT5      975      MECN     H11      HGA3     0.090000        1.0080           0
     12797 WT5      975      MECN     H12      HGA3     0.090000        1.0080           0
     12798 WT5      975      MECN     H13      HGA3     0.090000        1.0080           0
     12799 WT5      975      MECN     C2       CG1N1    0.360000       12.0110           0
     12800 WT5      975      MECN     N3       NG1T1   -0.460000       14.0070           0
     12801 WT5      982      MECN     C1       CG331   -0.170000       12.0110           0
     12802 WT5      982      MECN     H11      HGA3     0.090000        1.0080           0
     12803 WT5      982      MECN     H12      HGA3     0.090000        1.0080           0
     12804 WT5      982      MECN     H13      HGA3     0.090000        1.0080           0
     12805 WT5      982      MECN     C2       CG1N1    0.360000       12.0110           0
     12806 WT5      982      MECN     N3       NG1T1   -0.460000       14.0070           0
     12807 WT5      983      MECN     C1       CG331   -0.170000       12.0110           0
     12808 WT5      983      MECN     H11      HGA3     0.090000        1.0080           0
     12809 WT5      983      MECN     H12      HGA3     0.090000        1.0080           0
     12810 WT5      983      MECN     H13      HGA3     0.090000        1.0080           0
     12811 WT5      983      MECN     C2       CG1N1    0.360000       12.0110           0
     12812 WT5      983      MECN     N3       NG1T1   -0.460000       14.0070           0
     12813 WT5      986      MECN     C1       CG331   -0.170000       12.0110           0
     12814 WT5      986      MECN     H11      HGA3     0.090000        1.0080           0
     12815 WT5      986      MECN     H12      HGA3     0.090000        1.0080           0
     12816 WT5      986      MECN     H13      HGA3     0.090000        1.0080           0
     12817 WT5      986      MECN     C2       CG1N1    0.360000       12.0110           0
     12818 WT5      986      MECN     N3       NG1T1   -0.460000       14.0070           0
     12819 WT5      987      MECN     C1       CG331   -0.170000       12.0110           0
     12820 WT5      987      MECN     H11      HGA3     0.090000        1.0080           0
     12821 WT5      987      MECN     H12      HGA3     0.090000        1.0080           0
     12822 WT5      987      MECN     H13      HGA3     0.090000        1.0080           0
     12823 WT5      987      MECN     C2       CG1N1    0.360000       12.0110           0
     12824 WT5      987      MECN     N3       NG1T1   -0.460000       14.0070           0
     12825 WT5      989      MECN     C1       CG331   -0.170000       12.0110           0
     12826 WT5      989      MECN     H11      HGA3     0.090000        1.0080           0
     12827 WT5      989      MECN     H12      HGA3     0.090000        1.0080           0
     12828 WT5      989      MECN     H13      HGA3     0.090000        1.0080           0
     12829 WT5      989      MECN     C2       CG1N1    0.360000       12.0110           0
     12830 WT5      989      MECN     N3       NG1T1   -0.460000       14.0070           0
     12831 WT5      990      MECN     C1       CG331   -0.170000       12.0110           0
     12832 WT5      990      MECN     H11      HGA3     0.090000        1.0080           0
     12833 WT5      990      MECN     H12      HGA3     0.090000        1.0080           0
     12834 WT5      990      MECN     H13      HGA3     0.090000        1.0080           0
     12835 WT5      990      MECN     C2       CG1N1    0.360000       12.0110           0
     12836 WT5      990      MECN     N3       NG1T1   -0.460000       14.0070           0
     12837 WT5      994      MECN     C1       CG331   -0.170000       12.0110           0
     12838 WT5      994      MECN     H11      HGA3     0.090000        1.0080           0
     12839 WT5      994      MECN     H12      HGA3     0.090000        1.0080           0
     12840 WT5      994      MECN     H13      HGA3     0.090000        1.0080           0
     12841 WT5      994      MECN     C2       CG1N1    0.360000       12.0110           0
     12842 WT5      994      MECN     N3       NG1T1   -0.460000       14.0070           0
     12843 WT5      995      MECN     C1       CG331   -0.170000       12.0110           0
     12844 WT5      995      MECN     H11      HGA3     0.090000        1.0080           0
     12845 WT5      995      MECN     H12      HGA3     0.090000        1.0080           0
     12846 WT5      995      MECN     H13      HGA3     0.090000        1.0080           0
     12847 WT5      995      MECN     C2       CG1N1    0.360000       12.0110           0
     12848 WT5      995      MECN     N3       NG1T1   -0.460000       14.0070           0
     12849 WT5      997      MECN     C1       CG331   -0.170000       12.0110           0
     12850 WT5      997      MECN     H11      HGA3     0.090000        1.0080           0
     12851 WT5      997      MECN     H12      HGA3     0.090000        1.0080           0
     12852 WT5      997      MECN     H13      HGA3     0.090000        1.0080           0
     12853 WT5      997      MECN     C2       CG1N1    0.360000       12.0110           0
     12854 WT5      997      MECN     N3       NG1T1   -0.460000       14.0070           0
     12855 WT5      999      MECN     C1       CG331   -0.170000       12.0110           0
     12856 WT5      999      MECN     H11      HGA3     0.090000        1.0080           0
     12857 WT5      999      MECN     H12      HGA3     0.090000        1.0080           0
     12858 WT5      999      MECN     H13      HGA3     0.090000        1.0080           0
     12859 WT5      999      MECN     C2       CG1N1    0.360000       12.0110           0
     12860 WT5      999      MECN     N3       NG1T1   -0.460000       14.0070           0
     12861 WT5      1002     MECN     C1       CG331   -0.170000       12.0110           0
     12862 WT5      1002     MECN     H11      HGA3     0.090000        1.0080           0
     12863 WT5      1002     MECN     H12      HGA3     0.090000        1.0080           0
     12864 WT5      1002     MECN     H13      HGA3     0.090000        1.0080           0
     12865 WT5      1002     MECN     C2       CG1N1    0.360000       12.0110           0
     12866 WT5      1002     MECN     N3       NG1T1   -0.460000       14.0070           0
     12867 WT5      1004     MECN     C1       CG331   -0.170000       12.0110           0
     12868 WT5      1004     MECN     H11      HGA3     0.090000        1.0080           0
     12869 WT5      1004     MECN     H12      HGA3     0.090000        1.0080           0
     12870 WT5      1004     MECN     H13      HGA3     0.090000        1.0080           0
     12871 WT5      1004     MECN     C2       CG1N1    0.360000       12.0110           0
     12872 WT5      1004     MECN     N3       NG1T1   -0.460000       14.0070           0
     12873 WT5      1005     MECN     C1       CG331   -0.170000       12.0110           0
     12874 WT5      1005     MECN     H11      HGA3     0.090000        1.0080           0
     12875 WT5      1005     MECN     H12      HGA3     0.090000        1.0080           0
     12876 WT5      1005     MECN     H13      HGA3     0.090000        1.0080           0
     12877 WT5      1005     MECN     C2       CG1N1    0.360000       12.0110           0
     12878 WT5      1005     MECN     N3       NG1T1   -0.460000       14.0070           0
     12879 WT5      1010     MECN     C1       CG331   -0.170000       12.0110           0
     12880 WT5      1010     MECN     H11      HGA3     0.090000        1.0080           0
     12881 WT5      1010     MECN     H12      HGA3     0.090000        1.0080           0
     12882 WT5      1010     MECN     H13      HGA3     0.090000        1.0080           0
     12883 WT5      1010     MECN     C2       CG1N1    0.360000       12.0110           0
     12884 WT5      1010     MECN     N3       NG1T1   -0.460000       14.0070           0
     12885 WT5      1015     MECN     C1       CG331   -0.170000       12.0110           0
     12886 WT5      1015     MECN     H11      HGA3     0.090000        1.0080           0
     12887 WT5      1015     MECN     H12      HGA3     0.090000        1.0080           0
     12888 WT5      1015     MECN     H13      HGA3     0.090000        1.0080           0
     12889 WT5      1015     MECN     C2       CG1N1    0.360000       12.0110           0
     12890 WT5      1015     MECN     N3       NG1T1   -0.460000       14.0070           0
     12891 WT5      1016     MECN     C1       CG331   -0.170000       12.0110           0
     12892 WT5      1016     MECN     H11      HGA3     0.090000        1.0080           0
     12893 WT5      1016     MECN     H12      HGA3     0.090000        1.0080           0
     12894 WT5      1016     MECN     H13      HGA3     0.090000        1.0080           0
     12895 WT5      1016     MECN     C2       CG1N1    0.360000       12.0110           0
     12896 WT5      1016     MECN     N3       NG1T1   -0.460000       14.0070           0
     12897 WT5      1019     MECN     C1       CG331   -0.170000       12.0110           0
     12898 WT5      1019     MECN     H11      HGA3     0.090000        1.0080           0
     12899 WT5      1019     MECN     H12      HGA3     0.090000        1.0080           0
     12900 WT5      1019     MECN     H13      HGA3     0.090000        1.0080           0
     12901 WT5      1019     MECN     C2       CG1N1    0.360000       12.0110           0
     12902 WT5      1019     MECN     N3       NG1T1   -0.460000       14.0070           0
     12903 WT5      1020     MECN     C1       CG331   -0.170000       12.0110           0
     12904 WT5      1020     MECN     H11      HGA3     0.090000        1.0080           0
     12905 WT5      1020     MECN     H12      HGA3     0.090000        1.0080           0
     12906 WT5      1020     MECN     H13      HGA3     0.090000        1.0080           0
     12907 WT5      1020     MECN     C2       CG1N1    0.360000       12.0110           0
     12908 WT5      1020     MECN     N3       NG1T1   -0.460000       14.0070           0
     12909 WT5      1022     MECN     C1       CG331   -0.170000       12.0110           0
     12910 WT5      1022     MECN     H11      HGA3     0.090000        1.0080           0
     12911 WT5      1022     MECN     H12      HGA3     0.090000        1.0080           0
     12912 WT5      1022     MECN     H13      HGA3     0.090000        1.0080           0
     12913 WT5      1022     MECN     C2       CG1N1    0.360000       12.0110           0
     12914 WT5      1022     MECN     N3       NG1T1   -0.460000       14.0070           0
     12915 WT5      1023     MECN     C1       CG331   -0.170000       12.0110           0
     12916 WT5      1023     MECN     H11      HGA3     0.090000        1.0080           0
     12917 WT5      1023     MECN     H12      HGA3     0.090000        1.0080           0
     12918 WT5      1023     MECN     H13      HGA3     0.090000        1.0080           0
     12919 WT5      1023     MECN     C2       CG1N1    0.360000       12.0110           0
     12920 WT5      1023     MECN     N3       NG1T1   -0.460000       14.0070           0
     12921 WT5      1024     MECN     C1       CG331   -0.170000       12.0110           0
     12922 WT5      1024     MECN     H11      HGA3     0.090000        1.0080           0
     12923 WT5      1024     MECN     H12      HGA3     0.090000        1.0080           0
     12924 WT5      1024     MECN     H13      HGA3     0.090000        1.0080           0
     12925 WT5      1024     MECN     C2       CG1N1    0.360000       12.0110           0
     12926 WT5      1024     MECN     N3       NG1T1   -0.460000       14.0070           0
     12927 WT5      1025     MECN     C1       CG331   -0.170000       12.0110           0
     12928 WT5      1025     MECN     H11      HGA3     0.090000        1.0080           0
     12929 WT5      1025     MECN     H12      HGA3     0.090000        1.0080           0
     12930 WT5      1025     MECN     H13      HGA3     0.090000        1.0080           0
     12931 WT5      1025     MECN     C2       CG1N1    0.360000       12.0110           0
     12932 WT5      1025     MECN     N3       NG1T1   -0.460000       14.0070           0
     12933 WT5      1026     MECN     C1       CG331   -0.170000       12.0110           0
     12934 WT5      1026     MECN     H11      HGA3     0.090000        1.0080           0
     12935 WT5      1026     MECN     H12      HGA3     0.090000        1.0080           0
     12936 WT5      1026     MECN     H13      HGA3     0.090000        1.0080           0
     12937 WT5      1026     MECN     C2       CG1N1    0.360000       12.0110           0
     12938 WT5      1026     MECN     N3       NG1T1   -0.460000       14.0070           0
     12939 WT5      1027     MECN     C1       CG331   -0.170000       12.0110           0
     12940 WT5      1027     MECN     H11      HGA3     0.090000        1.0080           0
     12941 WT5      1027     MECN     H12      HGA3     0.090000        1.0080           0
     12942 WT5      1027     MECN     H13      HGA3     0.090000        1.0080           0
     12943 WT5      1027     MECN     C2       CG1N1    0.360000       12.0110           0
     12944 WT5      1027     MECN     N3       NG1T1   -0.460000       14.0070           0
     12945 WT5      1036     MECN     C1       CG331   -0.170000       12.0110           0
     12946 WT5      1036     MECN     H11      HGA3     0.090000        1.0080           0
     12947 WT5      1036     MECN     H12      HGA3     0.090000        1.0080           0
     12948 WT5      1036     MECN     H13      HGA3     0.090000        1.0080           0
     12949 WT5      1036     MECN     C2       CG1N1    0.360000       12.0110           0
     12950 WT5      1036     MECN     N3       NG1T1   -0.460000       14.0070           0
     12951 WT5      1037     MECN     C1       CG331   -0.170000       12.0110           0
     12952 WT5      1037     MECN     H11      HGA3     0.090000        1.0080           0
     12953 WT5      1037     MECN     H12      HGA3     0.090000        1.0080           0
     12954 WT5      1037     MECN     H13      HGA3     0.090000        1.0080           0
     12955 WT5      1037     MECN     C2       CG1N1    0.360000       12.0110           0
     12956 WT5      1037     MECN     N3       NG1T1   -0.460000       14.0070           0
     12957 WT5      1038     MECN     C1       CG331   -0.170000       12.0110           0
     12958 WT5      1038     MECN     H11      HGA3     0.090000        1.0080           0
     12959 WT5      1038     MECN     H12      HGA3     0.090000        1.0080           0
     12960 WT5      1038     MECN     H13      HGA3     0.090000        1.0080           0
     12961 WT5      1038     MECN     C2       CG1N1    0.360000       12.0110           0
     12962 WT5      1038     MECN     N3       NG1T1   -0.460000       14.0070           0
     12963 WT5      1045     MECN     C1       CG331   -0.170000       12.0110           0
     12964 WT5      1045     MECN     H11      HGA3     0.090000        1.0080           0
     12965 WT5      1045     MECN     H12      HGA3     0.090000        1.0080           0
     12966 WT5      1045     MECN     H13      HGA3     0.090000        1.0080           0
     12967 WT5      1045     MECN     C2       CG1N1    0.360000       12.0110           0
     12968 WT5      1045     MECN     N3       NG1T1   -0.460000       14.0070           0
     12969 WT5      1046     MECN     C1       CG331   -0.170000       12.0110           0
     12970 WT5      1046     MECN     H11      HGA3     0.090000        1.0080           0
     12971 WT5      1046     MECN     H12      HGA3     0.090000        1.0080           0
     12972 WT5      1046     MECN     H13      HGA3     0.090000        1.0080           0
     12973 WT5      1046     MECN     C2       CG1N1    0.360000       12.0110           0
     12974 WT5      1046     MECN     N3       NG1T1   -0.460000       14.0070           0
     12975 WT5      1047     MECN     C1       CG331   -0.170000       12.0110           0
     12976 WT5      1047     MECN     H11      HGA3     0.090000        1.0080           0
     12977 WT5      1047     MECN     H12      HGA3     0.090000        1.0080           0
     12978 WT5      1047     MECN     H13      HGA3     0.090000        1.0080           0
     12979 WT5      1047     MECN     C2       CG1N1    0.360000       12.0110           0
     12980 WT5      1047     MECN     N3       NG1T1   -0.460000       14.0070           0
     12981 WT5      1048     MECN     C1       CG331   -0.170000       12.0110           0
     12982 WT5      1048     MECN     H11      HGA3     0.090000        1.0080           0
     12983 WT5      1048     MECN     H12      HGA3     0.090000        1.0080           0
     12984 WT5      1048     MECN     H13      HGA3     0.090000        1.0080           0
     12985 WT5      1048     MECN     C2       CG1N1    0.360000       12.0110           0
     12986 WT5      1048     MECN     N3       NG1T1   -0.460000       14.0070           0
     12987 WT5      1050     MECN     C1       CG331   -0.170000       12.0110           0
     12988 WT5      1050     MECN     H11      HGA3     0.090000        1.0080           0
     12989 WT5      1050     MECN     H12      HGA3     0.090000        1.0080           0
     12990 WT5      1050     MECN     H13      HGA3     0.090000        1.0080           0
     12991 WT5      1050     MECN     C2       CG1N1    0.360000       12.0110           0
     12992 WT5      1050     MECN     N3       NG1T1   -0.460000       14.0070           0
     12993 WT5      1053     MECN     C1       CG331   -0.170000       12.0110           0
     12994 WT5      1053     MECN     H11      HGA3     0.090000        1.0080           0
     12995 WT5      1053     MECN     H12      HGA3     0.090000        1.0080           0
     12996 WT5      1053     MECN     H13      HGA3     0.090000        1.0080           0
     12997 WT5      1053     MECN     C2       CG1N1    0.360000       12.0110           0
     12998 WT5      1053     MECN     N3       NG1T1   -0.460000       14.0070           0
     12999 WT5      1056     MECN     C1       CG331   -0.170000       12.0110           0
     13000 WT5      1056     MECN     H11      HGA3     0.090000        1.0080           0
     13001 WT5      1056     MECN     H12      HGA3     0.090000        1.0080           0
     13002 WT5      1056     MECN     H13      HGA3     0.090000        1.0080           0
     13003 WT5      1056     MECN     C2       CG1N1    0.360000       12.0110           0
     13004 WT5      1056     MECN     N3       NG1T1   -0.460000       14.0070           0
     13005 WT5      1060     MECN     C1       CG331   -0.170000       12.0110           0
     13006 WT5      1060     MECN     H11      HGA3     0.090000        1.0080           0
     13007 WT5      1060     MECN     H12      HGA3     0.090000        1.0080           0
     13008 WT5      1060     MECN     H13      HGA3     0.090000        1.0080           0
     13009 WT5      1060     MECN     C2       CG1N1    0.360000       12.0110           0
     13010 WT5      1060     MECN     N3       NG1T1   -0.460000       14.0070           0
     13011 WT5      1062     MECN     C1       CG331   -0.170000       12.0110           0
     13012 WT5      1062     MECN     H11      HGA3     0.090000        1.0080           0
     13013 WT5      1062     MECN     H12      HGA3     0.090000        1.0080           0
     13014 WT5      1062     MECN     H13      HGA3     0.090000        1.0080           0
     13015 WT5      1062     MECN     C2       CG1N1    0.360000       12.0110           0
     13016 WT5      1062     MECN     N3       NG1T1   -0.460000       14.0070           0
     13017 WT5      1064     MECN     C1       CG331   -0.170000       12.0110           0
     13018 WT5      1064     MECN     H11      HGA3     0.090000        1.0080           0
     13019 WT5      1064     MECN     H12      HGA3     0.090000        1.0080           0
     13020 WT5      1064     MECN     H13      HGA3     0.090000        1.0080           0
     13021 WT5      1064     MECN     C2       CG1N1    0.360000       12.0110           0
     13022 WT5      1064     MECN     N3       NG1T1   -0.460000       14.0070           0
     13023 WT5      1065     MECN     C1       CG331   -0.170000       12.0110           0
     13024 WT5      1065     MECN     H11      HGA3     0.090000        1.0080           0
     13025 WT5      1065     MECN     H12      HGA3     0.090000        1.0080           0
     13026 WT5      1065     MECN     H13      HGA3     0.090000        1.0080           0
     13027 WT5      1065     MECN     C2       CG1N1    0.360000       12.0110           0
     13028 WT5      1065     MECN     N3       NG1T1   -0.460000       14.0070           0
     13029 WT5      1066     MECN     C1       CG331   -0.170000       12.0110           0
     13030 WT5      1066     MECN     H11      HGA3     0.090000        1.0080           0
     13031 WT5      1066     MECN     H12      HGA3     0.090000        1.0080           0
     13032 WT5      1066     MECN     H13      HGA3     0.090000        1.0080           0
     13033 WT5      1066     MECN     C2       CG1N1    0.360000       12.0110           0
     13034 WT5      1066     MECN     N3       NG1T1   -0.460000       14.0070           0
     13035 WT5      1068     MECN     C1       CG331   -0.170000       12.0110           0
     13036 WT5      1068     MECN     H11      HGA3     0.090000        1.0080           0
     13037 WT5      1068     MECN     H12      HGA3     0.090000        1.0080           0
     13038 WT5      1068     MECN     H13      HGA3     0.090000        1.0080           0
     13039 WT5      1068     MECN     C2       CG1N1    0.360000       12.0110           0
     13040 WT5      1068     MECN     N3       NG1T1   -0.460000       14.0070           0
     13041 WT5      1069     MECN     C1       CG331   -0.170000       12.0110           0
     13042 WT5      1069     MECN     H11      HGA3     0.090000        1.0080           0
     13043 WT5      1069     MECN     H12      HGA3     0.090000        1.0080           0
     13044 WT5      1069     MECN     H13      HGA3     0.090000        1.0080           0
     13045 WT5      1069     MECN     C2       CG1N1    0.360000       12.0110           0
     13046 WT5      1069     MECN     N3       NG1T1   -0.460000       14.0070           0
     13047 WT5      1073     MECN     C1       CG331   -0.170000       12.0110           0
     13048 WT5      1073     MECN     H11      HGA3     0.090000        1.0080           0
     13049 WT5      1073     MECN     H12      HGA3     0.090000        1.0080           0
     13050 WT5      1073     MECN     H13      HGA3     0.090000        1.0080           0
     13051 WT5      1073     MECN     C2       CG1N1    0.360000       12.0110           0
     13052 WT5      1073     MECN     N3       NG1T1   -0.460000       14.0070           0
     13053 WT5      1077     MECN     C1       CG331   -0.170000       12.0110           0
     13054 WT5      1077     MECN     H11      HGA3     0.090000        1.0080           0
     13055 WT5      1077     MECN     H12      HGA3     0.090000        1.0080           0
     13056 WT5      1077     MECN     H13      HGA3     0.090000        1.0080           0
     13057 WT5      1077     MECN     C2       CG1N1    0.360000       12.0110           0
     13058 WT5      1077     MECN     N3       NG1T1   -0.460000       14.0070           0
     13059 WT5      1078     MECN     C1       CG331   -0.170000       12.0110           0
     13060 WT5      1078     MECN     H11      HGA3     0.090000        1.0080           0
     13061 WT5      1078     MECN     H12      HGA3     0.090000        1.0080           0
     13062 WT5      1078     MECN     H13      HGA3     0.090000        1.0080           0
     13063 WT5      1078     MECN     C2       CG1N1    0.360000       12.0110           0
     13064 WT5      1078     MECN     N3       NG1T1   -0.460000       14.0070           0
     13065 WT5      1080     MECN     C1       CG331   -0.170000       12.0110           0
     13066 WT5      1080     MECN     H11      HGA3     0.090000        1.0080           0
     13067 WT5      1080     MECN     H12      HGA3     0.090000        1.0080           0
     13068 WT5      1080     MECN     H13      HGA3     0.090000        1.0080           0
     13069 WT5      1080     MECN     C2       CG1N1    0.360000       12.0110           0
     13070 WT5      1080     MECN     N3       NG1T1   -0.460000       14.0070           0
     13071 WT5      1081     MECN     C1       CG331   -0.170000       12.0110           0
     13072 WT5      1081     MECN     H11      HGA3     0.090000        1.0080           0
     13073 WT5      1081     MECN     H12      HGA3     0.090000        1.0080           0
     13074 WT5      1081     MECN     H13      HGA3     0.090000        1.0080           0
     13075 WT5      1081     MECN     C2       CG1N1    0.360000       12.0110           0
     13076 WT5      1081     MECN     N3       NG1T1   -0.460000       14.0070           0
     13077 WT5      1085     MECN     C1       CG331   -0.170000       12.0110           0
     13078 WT5      1085     MECN     H11      HGA3     0.090000        1.0080           0
     13079 WT5      1085     MECN     H12      HGA3     0.090000        1.0080           0
     13080 WT5      1085     MECN     H13      HGA3     0.090000        1.0080           0
     13081 WT5      1085     MECN     C2       CG1N1    0.360000       12.0110           0
     13082 WT5      1085     MECN     N3       NG1T1   -0.460000       14.0070           0
     13083 WT5      1088     MECN     C1       CG331   -0.170000       12.0110           0
     13084 WT5      1088     MECN     H11      HGA3     0.090000        1.0080           0
     13085 WT5      1088     MECN     H12      HGA3     0.090000        1.0080           0
     13086 WT5      1088     MECN     H13      HGA3     0.090000        1.0080           0
     13087 WT5      1088     MECN     C2       CG1N1    0.360000       12.0110           0
     13088 WT5      1088     MECN     N3       NG1T1   -0.460000       14.0070           0
     13089 WT5      1091     MECN     C1       CG331   -0.170000       12.0110           0
     13090 WT5      1091     MECN     H11      HGA3     0.090000        1.0080           0
     13091 WT5      1091     MECN     H12      HGA3     0.090000        1.0080           0
     13092 WT5      1091     MECN     H13      HGA3     0.090000        1.0080           0
     13093 WT5      1091     MECN     C2       CG1N1    0.360000       12.0110           0
     13094 WT5      1091     MECN     N3       NG1T1   -0.460000       14.0070           0
     13095 WT5      1092     MECN     C1       CG331   -0.170000       12.0110           0
     13096 WT5      1092     MECN     H11      HGA3     0.090000        1.0080           0
     13097 WT5      1092     MECN     H12      HGA3     0.090000        1.0080           0
     13098 WT5      1092     MECN     H13      HGA3     0.090000        1.0080           0
     13099 WT5      1092     MECN     C2       CG1N1    0.360000       12.0110           0
     13100 WT5      1092     MECN     N3       NG1T1   -0.460000       14.0070           0
     13101 WT5      1094     MECN     C1       CG331   -0.170000       12.0110           0
     13102 WT5      1094     MECN     H11      HGA3     0.090000        1.0080           0
     13103 WT5      1094     MECN     H12      HGA3     0.090000        1.0080           0
     13104 WT5      1094     MECN     H13      HGA3     0.090000        1.0080           0
     13105 WT5      1094     MECN     C2       CG1N1    0.360000       12.0110           0
     13106 WT5      1094     MECN     N3       NG1T1   -0.460000       14.0070           0
     13107 WT5      1095     MECN     C1       CG331   -0.170000       12.0110           0
     13108 WT5      1095     MECN     H11      HGA3     0.090000        1.0080           0
     13109 WT5      1095     MECN     H12      HGA3     0.090000        1.0080           0
     13110 WT5      1095     MECN     H13      HGA3     0.090000        1.0080           0
     13111 WT5      1095     MECN     C2       CG1N1    0.360000       12.0110           0
     13112 WT5      1095     MECN     N3       NG1T1   -0.460000       14.0070           0
     13113 WT5      1096     MECN     C1       CG331   -0.170000       12.0110           0
     13114 WT5      1096     MECN     H11      HGA3     0.090000        1.0080           0
     13115 WT5      1096     MECN     H12      HGA3     0.090000        1.0080           0
     13116 WT5      1096     MECN     H13      HGA3     0.090000        1.0080           0
     13117 WT5      1096     MECN     C2       CG1N1    0.360000       12.0110           0
     13118 WT5      1096     MECN     N3       NG1T1   -0.460000       14.0070           0
     13119 WT5      1098     MECN     C1       CG331   -0.170000       12.0110           0
     13120 WT5      1098     MECN     H11      HGA3     0.090000        1.0080           0
     13121 WT5      1098     MECN     H12      HGA3     0.090000        1.0080           0
     13122 WT5      1098     MECN     H13      HGA3     0.090000        1.0080           0
     13123 WT5      1098     MECN     C2       CG1N1    0.360000       12.0110           0
     13124 WT5      1098     MECN     N3       NG1T1   -0.460000       14.0070           0
     13125 WT5      1099     MECN     C1       CG331   -0.170000       12.0110           0
     13126 WT5      1099     MECN     H11      HGA3     0.090000        1.0080           0
     13127 WT5      1099     MECN     H12      HGA3     0.090000        1.0080           0
     13128 WT5      1099     MECN     H13      HGA3     0.090000        1.0080           0
     13129 WT5      1099     MECN     C2       CG1N1    0.360000       12.0110           0
     13130 WT5      1099     MECN     N3       NG1T1   -0.460000       14.0070           0
     13131 WT5      1100     MECN     C1       CG331   -0.170000       12.0110           0
     13132 WT5      1100     MECN     H11      HGA3     0.090000        1.0080           0
     13133 WT5      1100     MECN     H12      HGA3     0.090000        1.0080           0
     13134 WT5      1100     MECN     H13      HGA3     0.090000        1.0080           0
     13135 WT5      1100     MECN     C2       CG1N1    0.360000       12.0110           0
     13136 WT5      1100     MECN     N3       NG1T1   -0.460000       14.0070           0
     13137 WT5      1101     MECN     C1       CG331   -0.170000       12.0110           0
     13138 WT5      1101     MECN     H11      HGA3     0.090000        1.0080           0
     13139 WT5      1101     MECN     H12      HGA3     0.090000        1.0080           0
     13140 WT5      1101     MECN     H13      HGA3     0.090000        1.0080           0
     13141 WT5      1101     MECN     C2       CG1N1    0.360000       12.0110           0
     13142 WT5      1101     MECN     N3       NG1T1   -0.460000       14.0070           0
     13143 WT5      1103     MECN     C1       CG331   -0.170000       12.0110           0
     13144 WT5      1103     MECN     H11      HGA3     0.090000        1.0080           0
     13145 WT5      1103     MECN     H12      HGA3     0.090000        1.0080           0
     13146 WT5      1103     MECN     H13      HGA3     0.090000        1.0080           0
     13147 WT5      1103     MECN     C2       CG1N1    0.360000       12.0110           0
     13148 WT5      1103     MECN     N3       NG1T1   -0.460000       14.0070           0
     13149 WT5      1110     MECN     C1       CG331   -0.170000       12.0110           0
     13150 WT5      1110     MECN     H11      HGA3     0.090000        1.0080           0
     13151 WT5      1110     MECN     H12      HGA3     0.090000        1.0080           0
     13152 WT5      1110     MECN     H13      HGA3     0.090000        1.0080           0
     13153 WT5      1110     MECN     C2       CG1N1    0.360000       12.0110           0
     13154 WT5      1110     MECN     N3       NG1T1   -0.460000       14.0070           0
     13155 WT5      1111     MECN     C1       CG331   -0.170000       12.0110           0
     13156 WT5      1111     MECN     H11      HGA3     0.090000        1.0080           0
     13157 WT5      1111     MECN     H12      HGA3     0.090000        1.0080           0
     13158 WT5      1111     MECN     H13      HGA3     0.090000        1.0080           0
     13159 WT5      1111     MECN     C2       CG1N1    0.360000       12.0110           0
     13160 WT5      1111     MECN     N3       NG1T1   -0.460000       14.0070           0
     13161 WT5      1114     MECN     C1       CG331   -0.170000       12.0110           0
     13162 WT5      1114     MECN     H11      HGA3     0.090000        1.0080           0
     13163 WT5      1114     MECN     H12      HGA3     0.090000        1.0080           0
     13164 WT5      1114     MECN     H13      HGA3     0.090000        1.0080           0
     13165 WT5      1114     MECN     C2       CG1N1    0.360000       12.0110           0
     13166 WT5      1114     MECN     N3       NG1T1   -0.460000       14.0070           0
     13167 WT5      1115     MECN     C1       CG331   -0.170000       12.0110           0
     13168 WT5      1115     MECN     H11      HGA3     0.090000        1.0080           0
     13169 WT5      1115     MECN     H12      HGA3     0.090000        1.0080           0
     13170 WT5      1115     MECN     H13      HGA3     0.090000        1.0080           0
     13171 WT5      1115     MECN     C2       CG1N1    0.360000       12.0110           0
     13172 WT5      1115     MECN     N3       NG1T1   -0.460000       14.0070           0
     13173 WT5      1116     MECN     C1       CG331   -0.170000       12.0110           0
     13174 WT5      1116     MECN     H11      HGA3     0.090000        1.0080           0
     13175 WT5      1116     MECN     H12      HGA3     0.090000        1.0080           0
     13176 WT5      1116     MECN     H13      HGA3     0.090000        1.0080           0
     13177 WT5      1116     MECN     C2       CG1N1    0.360000       12.0110           0
     13178 WT5      1116     MECN     N3       NG1T1   -0.460000       14.0070           0
     13179 WT5      1119     MECN     C1       CG331   -0.170000       12.0110           0
     13180 WT5      1119     MECN     H11      HGA3     0.090000        1.0080           0
     13181 WT5      1119     MECN     H12      HGA3     0.090000        1.0080           0
     13182 WT5      1119     MECN     H13      HGA3     0.090000        1.0080           0
     13183 WT5      1119     MECN     C2       CG1N1    0.360000       12.0110           0
     13184 WT5      1119     MECN     N3       NG1T1   -0.460000       14.0070           0
     13185 WT5      1120     MECN     C1       CG331   -0.170000       12.0110           0
     13186 WT5      1120     MECN     H11      HGA3     0.090000        1.0080           0
     13187 WT5      1120     MECN     H12      HGA3     0.090000        1.0080           0
     13188 WT5      1120     MECN     H13      HGA3     0.090000        1.0080           0
     13189 WT5      1120     MECN     C2       CG1N1    0.360000       12.0110           0
     13190 WT5      1120     MECN     N3       NG1T1   -0.460000       14.0070           0
     13191 WT5      1123     MECN     C1       CG331   -0.170000       12.0110           0
     13192 WT5      1123     MECN     H11      HGA3     0.090000        1.0080           0
     13193 WT5      1123     MECN     H12      HGA3     0.090000        1.0080           0
     13194 WT5      1123     MECN     H13      HGA3     0.090000        1.0080           0
     13195 WT5      1123     MECN     C2       CG1N1    0.360000       12.0110           0
     13196 WT5      1123     MECN     N3       NG1T1   -0.460000       14.0070           0
     13197 WT5      1125     MECN     C1       CG331   -0.170000       12.0110           0
     13198 WT5      1125     MECN     H11      HGA3     0.090000        1.0080           0
     13199 WT5      1125     MECN     H12      HGA3     0.090000        1.0080           0
     13200 WT5      1125     MECN     H13      HGA3     0.090000        1.0080           0
     13201 WT5      1125     MECN     C2       CG1N1    0.360000       12.0110           0
     13202 WT5      1125     MECN     N3       NG1T1   -0.460000       14.0070           0
     13203 WT5      1128     MECN     C1       CG331   -0.170000       12.0110           0
     13204 WT5      1128     MECN     H11      HGA3     0.090000        1.0080           0
     13205 WT5      1128     MECN     H12      HGA3     0.090000        1.0080           0
     13206 WT5      1128     MECN     H13      HGA3     0.090000        1.0080           0
     13207 WT5      1128     MECN     C2       CG1N1    0.360000       12.0110           0
     13208 WT5      1128     MECN     N3       NG1T1   -0.460000       14.0070           0
     13209 WT5      1129     MECN     C1       CG331   -0.170000       12.0110           0
     13210 WT5      1129     MECN     H11      HGA3     0.090000        1.0080           0
     13211 WT5      1129     MECN     H12      HGA3     0.090000        1.0080           0
     13212 WT5      1129     MECN     H13      HGA3     0.090000        1.0080           0
     13213 WT5      1129     MECN     C2       CG1N1    0.360000       12.0110           0
     13214 WT5      1129     MECN     N3       NG1T1   -0.460000       14.0070           0
     13215 WT5      1135     MECN     C1       CG331   -0.170000       12.0110           0
     13216 WT5      1135     MECN     H11      HGA3     0.090000        1.0080           0
     13217 WT5      1135     MECN     H12      HGA3     0.090000        1.0080           0
     13218 WT5      1135     MECN     H13      HGA3     0.090000        1.0080           0
     13219 WT5      1135     MECN     C2       CG1N1    0.360000       12.0110           0
     13220 WT5      1135     MECN     N3       NG1T1   -0.460000       14.0070           0
     13221 WT5      1137     MECN     C1       CG331   -0.170000       12.0110           0
     13222 WT5      1137     MECN     H11      HGA3     0.090000        1.0080           0
     13223 WT5      1137     MECN     H12      HGA3     0.090000        1.0080           0
     13224 WT5      1137     MECN     H13      HGA3     0.090000        1.0080           0
     13225 WT5      1137     MECN     C2       CG1N1    0.360000       12.0110           0
     13226 WT5      1137     MECN     N3       NG1T1   -0.460000       14.0070           0
     13227 WT5      1141     MECN     C1       CG331   -0.170000       12.0110           0
     13228 WT5      1141     MECN     H11      HGA3     0.090000        1.0080           0
     13229 WT5      1141     MECN     H12      HGA3     0.090000        1.0080           0
     13230 WT5      1141     MECN     H13      HGA3     0.090000        1.0080           0
     13231 WT5      1141     MECN     C2       CG1N1    0.360000       12.0110           0
     13232 WT5      1141     MECN     N3       NG1T1   -0.460000       14.0070           0
     13233 WT5      1143     MECN     C1       CG331   -0.170000       12.0110           0
     13234 WT5      1143     MECN     H11      HGA3     0.090000        1.0080           0
     13235 WT5      1143     MECN     H12      HGA3     0.090000        1.0080           0
     13236 WT5      1143     MECN     H13      HGA3     0.090000        1.0080           0
     13237 WT5      1143     MECN     C2       CG1N1    0.360000       12.0110           0
     13238 WT5      1143     MECN     N3       NG1T1   -0.460000       14.0070           0
     13239 WT5      1144     MECN     C1       CG331   -0.170000       12.0110           0
     13240 WT5      1144     MECN     H11      HGA3     0.090000        1.0080           0
     13241 WT5      1144     MECN     H12      HGA3     0.090000        1.0080           0
     13242 WT5      1144     MECN     H13      HGA3     0.090000        1.0080           0
     13243 WT5      1144     MECN     C2       CG1N1    0.360000       12.0110           0
     13244 WT5      1144     MECN     N3       NG1T1   -0.460000       14.0070           0
     13245 WT5      1145     MECN     C1       CG331   -0.170000       12.0110           0
     13246 WT5      1145     MECN     H11      HGA3     0.090000        1.0080           0
     13247 WT5      1145     MECN     H12      HGA3     0.090000        1.0080           0
     13248 WT5      1145     MECN     H13      HGA3     0.090000        1.0080           0
     13249 WT5      1145     MECN     C2       CG1N1    0.360000       12.0110           0
     13250 WT5      1145     MECN     N3       NG1T1   -0.460000       14.0070           0
     13251 WT5      1147     MECN     C1       CG331   -0.170000       12.0110           0
     13252 WT5      1147     MECN     H11      HGA3     0.090000        1.0080           0
     13253 WT5      1147     MECN     H12      HGA3     0.090000        1.0080           0
     13254 WT5      1147     MECN     H13      HGA3     0.090000        1.0080           0
     13255 WT5      1147     MECN     C2       CG1N1    0.360000       12.0110           0
     13256 WT5      1147     MECN     N3       NG1T1   -0.460000       14.0070           0
     13257 WT5      1150     MECN     C1       CG331   -0.170000       12.0110           0
     13258 WT5      1150     MECN     H11      HGA3     0.090000        1.0080           0
     13259 WT5      1150     MECN     H12      HGA3     0.090000        1.0080           0
     13260 WT5      1150     MECN     H13      HGA3     0.090000        1.0080           0
     13261 WT5      1150     MECN     C2       CG1N1    0.360000       12.0110           0
     13262 WT5      1150     MECN     N3       NG1T1   -0.460000       14.0070           0
     13263 WT5      1152     MECN     C1       CG331   -0.170000       12.0110           0
     13264 WT5      1152     MECN     H11      HGA3     0.090000        1.0080           0
     13265 WT5      1152     MECN     H12      HGA3     0.090000        1.0080           0
     13266 WT5      1152     MECN     H13      HGA3     0.090000        1.0080           0
     13267 WT5      1152     MECN     C2       CG1N1    0.360000       12.0110           0
     13268 WT5      1152     MECN     N3       NG1T1   -0.460000       14.0070           0
     13269 WT5      1153     MECN     C1       CG331   -0.170000       12.0110           0
     13270 WT5      1153     MECN     H11      HGA3     0.090000        1.0080           0
     13271 WT5      1153     MECN     H12      HGA3     0.090000        1.0080           0
     13272 WT5      1153     MECN     H13      HGA3     0.090000        1.0080           0
     13273 WT5      1153     MECN     C2       CG1N1    0.360000       12.0110           0
     13274 WT5      1153     MECN     N3       NG1T1   -0.460000       14.0070           0
     13275 WT5      1154     MECN     C1       CG331   -0.170000       12.0110           0
     13276 WT5      1154     MECN     H11      HGA3     0.090000        1.0080           0
     13277 WT5      1154     MECN     H12      HGA3     0.090000        1.0080           0
     13278 WT5      1154     MECN     H13      HGA3     0.090000        1.0080           0
     13279 WT5      1154     MECN     C2       CG1N1    0.360000       12.0110           0
     13280 WT5      1154     MECN     N3       NG1T1   -0.460000       14.0070           0
     13281 WT5      1156     MECN     C1       CG331   -0.170000       12.0110           0
     13282 WT5      1156     MECN     H11      HGA3     0.090000        1.0080           0
     13283 WT5      1156     MECN     H12      HGA3     0.090000        1.0080           0
     13284 WT5      1156     MECN     H13      HGA3     0.090000        1.0080           0
     13285 WT5      1156     MECN     C2       CG1N1    0.360000       12.0110           0
     13286 WT5      1156     MECN     N3       NG1T1   -0.460000       14.0070           0
     13287 WT5      1159     MECN     C1       CG331   -0.170000       12.0110           0
     13288 WT5      1159     MECN     H11      HGA3     0.090000        1.0080           0
     13289 WT5      1159     MECN     H12      HGA3     0.090000        1.0080           0
     13290 WT5      1159     MECN     H13      HGA3     0.090000        1.0080           0
     13291 WT5      1159     MECN     C2       CG1N1    0.360000       12.0110           0
     13292 WT5      1159     MECN     N3       NG1T1   -0.460000       14.0070           0
     13293 WT5      1160     MECN     C1       CG331   -0.170000       12.0110           0
     13294 WT5      1160     MECN     H11      HGA3     0.090000        1.0080           0
     13295 WT5      1160     MECN     H12      HGA3     0.090000        1.0080           0
     13296 WT5      1160     MECN     H13      HGA3     0.090000        1.0080           0
     13297 WT5      1160     MECN     C2       CG1N1    0.360000       12.0110           0
     13298 WT5      1160     MECN     N3       NG1T1   -0.460000       14.0070           0
     13299 WT5      1169     MECN     C1       CG331   -0.170000       12.0110           0
     13300 WT5      1169     MECN     H11      HGA3     0.090000        1.0080           0
     13301 WT5      1169     MECN     H12      HGA3     0.090000        1.0080           0
     13302 WT5      1169     MECN     H13      HGA3     0.090000        1.0080           0
     13303 WT5      1169     MECN     C2       CG1N1    0.360000       12.0110           0
     13304 WT5      1169     MECN     N3       NG1T1   -0.460000       14.0070           0
     13305 WT5      1175     MECN     C1       CG331   -0.170000       12.0110           0
     13306 WT5      1175     MECN     H11      HGA3     0.090000        1.0080           0
     13307 WT5      1175     MECN     H12      HGA3     0.090000        1.0080           0
     13308 WT5      1175     MECN     H13      HGA3     0.090000        1.0080           0
     13309 WT5      1175     MECN     C2       CG1N1    0.360000       12.0110           0
     13310 WT5      1175     MECN     N3       NG1T1   -0.460000       14.0070           0
     13311 WT5      1176     MECN     C1       CG331   -0.170000       12.0110           0
     13312 WT5      1176     MECN     H11      HGA3     0.090000        1.0080           0
     13313 WT5      1176     MECN     H12      HGA3     0.090000        1.0080           0
     13314 WT5      1176     MECN     H13      HGA3     0.090000        1.0080           0
     13315 WT5      1176     MECN     C2       CG1N1    0.360000       12.0110           0
     13316 WT5      1176     MECN     N3       NG1T1   -0.460000       14.0070           0
     13317 WT5      1177     MECN     C1       CG331   -0.170000       12.0110           0
     13318 WT5      1177     MECN     H11      HGA3     0.090000        1.0080           0
     13319 WT5      1177     MECN     H12      HGA3     0.090000        1.0080           0
     13320 WT5      1177     MECN     H13      HGA3     0.090000        1.0080           0
     13321 WT5      1177     MECN     C2       CG1N1    0.360000       12.0110           0
     13322 WT5      1177     MECN     N3       NG1T1   -0.460000       14.0070           0
     13323 WT5      1178     MECN     C1       CG331   -0.170000       12.0110           0
     13324 WT5      1178     MECN     H11      HGA3     0.090000        1.0080           0
     13325 WT5      1178     MECN     H12      HGA3     0.090000        1.0080           0
     13326 WT5      1178     MECN     H13      HGA3     0.090000        1.0080           0
     13327 WT5      1178     MECN     C2       CG1N1    0.360000       12.0110           0
     13328 WT5      1178     MECN     N3       NG1T1   -0.460000       14.0070           0
     13329 WT5      1182     MECN     C1       CG331   -0.170000       12.0110           0
     13330 WT5      1182     MECN     H11      HGA3     0.090000        1.0080           0
     13331 WT5      1182     MECN     H12      HGA3     0.090000        1.0080           0
     13332 WT5      1182     MECN     H13      HGA3     0.090000        1.0080           0
     13333 WT5      1182     MECN     C2       CG1N1    0.360000       12.0110           0
     13334 WT5      1182     MECN     N3       NG1T1   -0.460000       14.0070           0
     13335 WT5      1183     MECN     C1       CG331   -0.170000       12.0110           0
     13336 WT5      1183     MECN     H11      HGA3     0.090000        1.0080           0
     13337 WT5      1183     MECN     H12      HGA3     0.090000        1.0080           0
     13338 WT5      1183     MECN     H13      HGA3     0.090000        1.0080           0
     13339 WT5      1183     MECN     C2       CG1N1    0.360000       12.0110           0
     13340 WT5      1183     MECN     N3       NG1T1   -0.460000       14.0070           0
     13341 WT5      1184     MECN     C1       CG331   -0.170000       12.0110           0
     13342 WT5      1184     MECN     H11      HGA3     0.090000        1.0080           0
     13343 WT5      1184     MECN     H12      HGA3     0.090000        1.0080           0
     13344 WT5      1184     MECN     H13      HGA3     0.090000        1.0080           0
     13345 WT5      1184     MECN     C2       CG1N1    0.360000       12.0110           0
     13346 WT5      1184     MECN     N3       NG1T1   -0.460000       14.0070           0
     13347 WT5      1186     MECN     C1       CG331   -0.170000       12.0110           0
     13348 WT5      1186     MECN     H11      HGA3     0.090000        1.0080           0
     13349 WT5      1186     MECN     H12      HGA3     0.090000        1.0080           0
     13350 WT5      1186     MECN     H13      HGA3     0.090000        1.0080           0
     13351 WT5      1186     MECN     C2       CG1N1    0.360000       12.0110           0
     13352 WT5      1186     MECN     N3       NG1T1   -0.460000       14.0070           0
     13353 WT5      1187     MECN     C1       CG331   -0.170000       12.0110           0
     13354 WT5      1187     MECN     H11      HGA3     0.090000        1.0080           0
     13355 WT5      1187     MECN     H12      HGA3     0.090000        1.0080           0
     13356 WT5      1187     MECN     H13      HGA3     0.090000        1.0080           0
     13357 WT5      1187     MECN     C2       CG1N1    0.360000       12.0110           0
     13358 WT5      1187     MECN     N3       NG1T1   -0.460000       14.0070           0
     13359 WT5      1189     MECN     C1       CG331   -0.170000       12.0110           0
     13360 WT5      1189     MECN     H11      HGA3     0.090000        1.0080           0
     13361 WT5      1189     MECN     H12      HGA3     0.090000        1.0080           0
     13362 WT5      1189     MECN     H13      HGA3     0.090000        1.0080           0
     13363 WT5      1189     MECN     C2       CG1N1    0.360000       12.0110           0
     13364 WT5      1189     MECN     N3       NG1T1   -0.460000       14.0070           0
     13365 WT5      1192     MECN     C1       CG331   -0.170000       12.0110           0
     13366 WT5      1192     MECN     H11      HGA3     0.090000        1.0080           0
     13367 WT5      1192     MECN     H12      HGA3     0.090000        1.0080           0
     13368 WT5      1192     MECN     H13      HGA3     0.090000        1.0080           0
     13369 WT5      1192     MECN     C2       CG1N1    0.360000       12.0110           0
     13370 WT5      1192     MECN     N3       NG1T1   -0.460000       14.0070           0
     13371 WT5      1194     MECN     C1       CG331   -0.170000       12.0110           0
     13372 WT5      1194     MECN     H11      HGA3     0.090000        1.0080           0
     13373 WT5      1194     MECN     H12      HGA3     0.090000        1.0080           0
     13374 WT5      1194     MECN     H13      HGA3     0.090000        1.0080           0
     13375 WT5      1194     MECN     C2       CG1N1    0.360000       12.0110           0
     13376 WT5      1194     MECN     N3       NG1T1   -0.460000       14.0070           0
     13377 WT5      1195     MECN     C1       CG331   -0.170000       12.0110           0
     13378 WT5      1195     MECN     H11      HGA3     0.090000        1.0080           0
     13379 WT5      1195     MECN     H12      HGA3     0.090000        1.0080           0
     13380 WT5      1195     MECN     H13      HGA3     0.090000        1.0080           0
     13381 WT5      1195     MECN     C2       CG1N1    0.360000       12.0110           0
     13382 WT5      1195     MECN     N3       NG1T1   -0.460000       14.0070           0
     13383 WT5      1196     MECN     C1       CG331   -0.170000       12.0110           0
     13384 WT5      1196     MECN     H11      HGA3     0.090000        1.0080           0
     13385 WT5      1196     MECN     H12      HGA3     0.090000        1.0080           0
     13386 WT5      1196     MECN     H13      HGA3     0.090000        1.0080           0
     13387 WT5      1196     MECN     C2       CG1N1    0.360000       12.0110           0
     13388 WT5      1196     MECN     N3       NG1T1   -0.460000       14.0070           0
     13389 WT5      1198     MECN     C1       CG331   -0.170000       12.0110           0
     13390 WT5      1198     MECN     H11      HGA3     0.090000        1.0080           0
     13391 WT5      1198     MECN     H12      HGA3     0.090000        1.0080           0
     13392 WT5      1198     MECN     H13      HGA3     0.090000        1.0080           0
     13393 WT5      1198     MECN     C2       CG1N1    0.360000       12.0110           0
     13394 WT5      1198     MECN     N3       NG1T1   -0.460000       14.0070           0
     13395 WT5      1201     MECN     C1       CG331   -0.170000       12.0110           0
     13396 WT5      1201     MECN     H11      HGA3     0.090000        1.0080           0
     13397 WT5      1201     MECN     H12      HGA3     0.090000        1.0080           0
     13398 WT5      1201     MECN     H13      HGA3     0.090000        1.0080           0
     13399 WT5      1201     MECN     C2       CG1N1    0.360000       12.0110           0
     13400 WT5      1201     MECN     N3       NG1T1   -0.460000       14.0070           0
     13401 WT5      1207     MECN     C1       CG331   -0.170000       12.0110           0
     13402 WT5      1207     MECN     H11      HGA3     0.090000        1.0080           0
     13403 WT5      1207     MECN     H12      HGA3     0.090000        1.0080           0
     13404 WT5      1207     MECN     H13      HGA3     0.090000        1.0080           0
     13405 WT5      1207     MECN     C2       CG1N1    0.360000       12.0110           0
     13406 WT5      1207     MECN     N3       NG1T1   -0.460000       14.0070           0
     13407 WT5      1208     MECN     C1       CG331   -0.170000       12.0110           0
     13408 WT5      1208     MECN     H11      HGA3     0.090000        1.0080           0
     13409 WT5      1208     MECN     H12      HGA3     0.090000        1.0080           0
     13410 WT5      1208     MECN     H13      HGA3     0.090000        1.0080           0
     13411 WT5      1208     MECN     C2       CG1N1    0.360000       12.0110           0
     13412 WT5      1208     MECN     N3       NG1T1   -0.460000       14.0070           0
     13413 WT5      1209     MECN     C1       CG331   -0.170000       12.0110           0
     13414 WT5      1209     MECN     H11      HGA3     0.090000        1.0080           0
     13415 WT5      1209     MECN     H12      HGA3     0.090000        1.0080           0
     13416 WT5      1209     MECN     H13      HGA3     0.090000        1.0080           0
     13417 WT5      1209     MECN     C2       CG1N1    0.360000       12.0110           0
     13418 WT5      1209     MECN     N3       NG1T1   -0.460000       14.0070           0
     13419 WT5      1212     MECN     C1       CG331   -0.170000       12.0110           0
     13420 WT5      1212     MECN     H11      HGA3     0.090000        1.0080           0
     13421 WT5      1212     MECN     H12      HGA3     0.090000        1.0080           0
     13422 WT5      1212     MECN     H13      HGA3     0.090000        1.0080           0
     13423 WT5      1212     MECN     C2       CG1N1    0.360000       12.0110           0
     13424 WT5      1212     MECN     N3       NG1T1   -0.460000       14.0070           0
     13425 WT5      1214     MECN     C1       CG331   -0.170000       12.0110           0
     13426 WT5      1214     MECN     H11      HGA3     0.090000        1.0080           0
     13427 WT5      1214     MECN     H12      HGA3     0.090000        1.0080           0
     13428 WT5      1214     MECN     H13      HGA3     0.090000        1.0080           0
     13429 WT5      1214     MECN     C2       CG1N1    0.360000       12.0110           0
     13430 WT5      1214     MECN     N3       NG1T1   -0.460000       14.0070           0
     13431 WT5      1215     MECN     C1       CG331   -0.170000       12.0110           0
     13432 WT5      1215     MECN     H11      HGA3     0.090000        1.0080           0
     13433 WT5      1215     MECN     H12      HGA3     0.090000        1.0080           0
     13434 WT5      1215     MECN     H13      HGA3     0.090000        1.0080           0
     13435 WT5      1215     MECN     C2       CG1N1    0.360000       12.0110           0
     13436 WT5      1215     MECN     N3       NG1T1   -0.460000       14.0070           0
     13437 WT5      1216     MECN     C1       CG331   -0.170000       12.0110           0
     13438 WT5      1216     MECN     H11      HGA3     0.090000        1.0080           0
     13439 WT5      1216     MECN     H12      HGA3     0.090000        1.0080           0
     13440 WT5      1216     MECN     H13      HGA3     0.090000        1.0080           0
     13441 WT5      1216     MECN     C2       CG1N1    0.360000       12.0110           0
     13442 WT5      1216     MECN     N3       NG1T1   -0.460000       14.0070           0
     13443 WT5      1218     MECN     C1       CG331   -0.170000       12.0110           0
     13444 WT5      1218     MECN     H11      HGA3     0.090000        1.0080           0
     13445 WT5      1218     MECN     H12      HGA3     0.090000        1.0080           0
     13446 WT5      1218     MECN     H13      HGA3     0.090000        1.0080           0
     13447 WT5      1218     MECN     C2       CG1N1    0.360000       12.0110           0
     13448 WT5      1218     MECN     N3       NG1T1   -0.460000       14.0070           0
     13449 WT5      1221     MECN     C1       CG331   -0.170000       12.0110           0
     13450 WT5      1221     MECN     H11      HGA3     0.090000        1.0080           0
     13451 WT5      1221     MECN     H12      HGA3     0.090000        1.0080           0
     13452 WT5      1221     MECN     H13      HGA3     0.090000        1.0080           0
     13453 WT5      1221     MECN     C2       CG1N1    0.360000       12.0110           0
     13454 WT5      1221     MECN     N3       NG1T1   -0.460000       14.0070           0
     13455 WT5      1229     MECN     C1       CG331   -0.170000       12.0110           0
     13456 WT5      1229     MECN     H11      HGA3     0.090000        1.0080           0
     13457 WT5      1229     MECN     H12      HGA3     0.090000        1.0080           0
     13458 WT5      1229     MECN     H13      HGA3     0.090000        1.0080           0
     13459 WT5      1229     MECN     C2       CG1N1    0.360000       12.0110           0
     13460 WT5      1229     MECN     N3       NG1T1   -0.460000       14.0070           0
     13461 WT5      1233     MECN     C1       CG331   -0.170000       12.0110           0
     13462 WT5      1233     MECN     H11      HGA3     0.090000        1.0080           0
     13463 WT5      1233     MECN     H12      HGA3     0.090000        1.0080           0
     13464 WT5      1233     MECN     H13      HGA3     0.090000        1.0080           0
     13465 WT5      1233     MECN     C2       CG1N1    0.360000       12.0110           0
     13466 WT5      1233     MECN     N3       NG1T1   -0.460000       14.0070           0
     13467 WT5      1241     MECN     C1       CG331   -0.170000       12.0110           0
     13468 WT5      1241     MECN     H11      HGA3     0.090000        1.0080           0
     13469 WT5      1241     MECN     H12      HGA3     0.090000        1.0080           0
     13470 WT5      1241     MECN     H13      HGA3     0.090000        1.0080           0
     13471 WT5      1241     MECN     C2       CG1N1    0.360000       12.0110           0
     13472 WT5      1241     MECN     N3       NG1T1   -0.460000       14.0070           0
     13473 WT5      1243     MECN     C1       CG331   -0.170000       12.0110           0
     13474 WT5      1243     MECN     H11      HGA3     0.090000        1.0080           0
     13475 WT5      1243     MECN     H12      HGA3     0.090000        1.0080           0
     13476 WT5      1243     MECN     H13      HGA3     0.090000        1.0080           0
     13477 WT5      1243     MECN     C2       CG1N1    0.360000       12.0110           0
     13478 WT5      1243     MECN     N3       NG1T1   -0.460000       14.0070           0
     13479 WT5      1245     MECN     C1       CG331   -0.170000       12.0110           0
     13480 WT5      1245     MECN     H11      HGA3     0.090000        1.0080           0
     13481 WT5      1245     MECN     H12      HGA3     0.090000        1.0080           0
     13482 WT5      1245     MECN     H13      HGA3     0.090000        1.0080           0
     13483 WT5      1245     MECN     C2       CG1N1    0.360000       12.0110           0
     13484 WT5      1245     MECN     N3       NG1T1   -0.460000       14.0070           0
     13485 WT5      1246     MECN     C1       CG331   -0.170000       12.0110           0
     13486 WT5      1246     MECN     H11      HGA3     0.090000        1.0080           0
     13487 WT5      1246     MECN     H12      HGA3     0.090000        1.0080           0
     13488 WT5      1246     MECN     H13      HGA3     0.090000        1.0080           0
     13489 WT5      1246     MECN     C2       CG1N1    0.360000       12.0110           0
     13490 WT5      1246     MECN     N3       NG1T1   -0.460000       14.0070           0
     13491 WT5      1248     MECN     C1       CG331   -0.170000       12.0110           0
     13492 WT5      1248     MECN     H11      HGA3     0.090000        1.0080           0
     13493 WT5      1248     MECN     H12      HGA3     0.090000        1.0080           0
     13494 WT5      1248     MECN     H13      HGA3     0.090000        1.0080           0
     13495 WT5      1248     MECN     C2       CG1N1    0.360000       12.0110           0
     13496 WT5      1248     MECN     N3       NG1T1   -0.460000       14.0070           0
     13497 WT5      1251     MECN     C1       CG331   -0.170000       12.0110           0
     13498 WT5      1251     MECN     H11      HGA3     0.090000        1.0080           0
     13499 WT5      1251     MECN     H12      HGA3     0.090000        1.0080           0
     13500 WT5      1251     MECN     H13      HGA3     0.090000        1.0080           0
     13501 WT5      1251     MECN     C2       CG1N1    0.360000       12.0110           0
     13502 WT5      1251     MECN     N3       NG1T1   -0.460000       14.0070           0
     13503 WT5      1253     MECN     C1       CG331   -0.170000       12.0110           0
     13504 WT5      1253     MECN     H11      HGA3     0.090000        1.0080           0
     13505 WT5      1253     MECN     H12      HGA3     0.090000        1.0080           0
     13506 WT5      1253     MECN     H13      HGA3     0.090000        1.0080           0
     13507 WT5      1253     MECN     C2       CG1N1    0.360000       12.0110           0
     13508 WT5      1253     MECN     N3       NG1T1   -0.460000       14.0070           0
     13509 WT5      1258     MECN     C1       CG331   -0.170000       12.0110           0
     13510 WT5      1258     MECN     H11      HGA3     0.090000        1.0080           0
     13511 WT5      1258     MECN     H12      HGA3     0.090000        1.0080           0
     13512 WT5      1258     MECN     H13      HGA3     0.090000        1.0080           0
     13513 WT5      1258     MECN     C2       CG1N1    0.360000       12.0110           0
     13514 WT5      1258     MECN     N3       NG1T1   -0.460000       14.0070           0
     13515 WT5      1260     MECN     C1       CG331   -0.170000       12.0110           0
     13516 WT5      1260     MECN     H11      HGA3     0.090000        1.0080           0
     13517 WT5      1260     MECN     H12      HGA3     0.090000        1.0080           0
     13518 WT5      1260     MECN     H13      HGA3     0.090000        1.0080           0
     13519 WT5      1260     MECN     C2       CG1N1    0.360000       12.0110           0
     13520 WT5      1260     MECN     N3       NG1T1   -0.460000       14.0070           0
     13521 WT5      1263     MECN     C1       CG331   -0.170000       12.0110           0
     13522 WT5      1263     MECN     H11      HGA3     0.090000        1.0080           0
     13523 WT5      1263     MECN     H12      HGA3     0.090000        1.0080           0
     13524 WT5      1263     MECN     H13      HGA3     0.090000        1.0080           0
     13525 WT5      1263     MECN     C2       CG1N1    0.360000       12.0110           0
     13526 WT5      1263     MECN     N3       NG1T1   -0.460000       14.0070           0
     13527 WT5      1266     MECN     C1       CG331   -0.170000       12.0110           0
     13528 WT5      1266     MECN     H11      HGA3     0.090000        1.0080           0
     13529 WT5      1266     MECN     H12      HGA3     0.090000        1.0080           0
     13530 WT5      1266     MECN     H13      HGA3     0.090000        1.0080           0
     13531 WT5      1266     MECN     C2       CG1N1    0.360000       12.0110           0
     13532 WT5      1266     MECN     N3       NG1T1   -0.460000       14.0070           0
     13533 WT5      1270     MECN     C1       CG331   -0.170000       12.0110           0
     13534 WT5      1270     MECN     H11      HGA3     0.090000        1.0080           0
     13535 WT5      1270     MECN     H12      HGA3     0.090000        1.0080           0
     13536 WT5      1270     MECN     H13      HGA3     0.090000        1.0080           0
     13537 WT5      1270     MECN     C2       CG1N1    0.360000       12.0110           0
     13538 WT5      1270     MECN     N3       NG1T1   -0.460000       14.0070           0
     13539 WT5      1273     MECN     C1       CG331   -0.170000       12.0110           0
     13540 WT5      1273     MECN     H11      HGA3     0.090000        1.0080           0
     13541 WT5      1273     MECN     H12      HGA3     0.090000        1.0080           0
     13542 WT5      1273     MECN     H13      HGA3     0.090000        1.0080           0
     13543 WT5      1273     MECN     C2       CG1N1    0.360000       12.0110           0
     13544 WT5      1273     MECN     N3       NG1T1   -0.460000       14.0070           0
     13545 WT5      1275     MECN     C1       CG331   -0.170000       12.0110           0
     13546 WT5      1275     MECN     H11      HGA3     0.090000        1.0080           0
     13547 WT5      1275     MECN     H12      HGA3     0.090000        1.0080           0
     13548 WT5      1275     MECN     H13      HGA3     0.090000        1.0080           0
     13549 WT5      1275     MECN     C2       CG1N1    0.360000       12.0110           0
     13550 WT5      1275     MECN     N3       NG1T1   -0.460000       14.0070           0
     13551 WT5      1278     MECN     C1       CG331   -0.170000       12.0110           0
     13552 WT5      1278     MECN     H11      HGA3     0.090000        1.0080           0
     13553 WT5      1278     MECN     H12      HGA3     0.090000        1.0080           0
     13554 WT5      1278     MECN     H13      HGA3     0.090000        1.0080           0
     13555 WT5      1278     MECN     C2       CG1N1    0.360000       12.0110           0
     13556 WT5      1278     MECN     N3       NG1T1   -0.460000       14.0070           0
     13557 WT5      1279     MECN     C1       CG331   -0.170000       12.0110           0
     13558 WT5      1279     MECN     H11      HGA3     0.090000        1.0080           0
     13559 WT5      1279     MECN     H12      HGA3     0.090000        1.0080           0
     13560 WT5      1279     MECN     H13      HGA3     0.090000        1.0080           0
     13561 WT5      1279     MECN     C2       CG1N1    0.360000       12.0110           0
     13562 WT5      1279     MECN     N3       NG1T1   -0.460000       14.0070           0
     13563 WT5      1281     MECN     C1       CG331   -0.170000       12.0110           0
     13564 WT5      1281     MECN     H11      HGA3     0.090000        1.0080           0
     13565 WT5      1281     MECN     H12      HGA3     0.090000        1.0080           0
     13566 WT5      1281     MECN     H13      HGA3     0.090000        1.0080           0
     13567 WT5      1281     MECN     C2       CG1N1    0.360000       12.0110           0
     13568 WT5      1281     MECN     N3       NG1T1   -0.460000       14.0070           0
     13569 WT5      1282     MECN     C1       CG331   -0.170000       12.0110           0
     13570 WT5      1282     MECN     H11      HGA3     0.090000        1.0080           0
     13571 WT5      1282     MECN     H12      HGA3     0.090000        1.0080           0
     13572 WT5      1282     MECN     H13      HGA3     0.090000        1.0080           0
     13573 WT5      1282     MECN     C2       CG1N1    0.360000       12.0110           0
     13574 WT5      1282     MECN     N3       NG1T1   -0.460000       14.0070           0
     13575 WT5      1284     MECN     C1       CG331   -0.170000       12.0110           0
     13576 WT5      1284     MECN     H11      HGA3     0.090000        1.0080           0
     13577 WT5      1284     MECN     H12      HGA3     0.090000        1.0080           0
     13578 WT5      1284     MECN     H13      HGA3     0.090000        1.0080           0
     13579 WT5      1284     MECN     C2       CG1N1    0.360000       12.0110           0
     13580 WT5      1284     MECN     N3       NG1T1   -0.460000       14.0070           0
     13581 WT5      1285     MECN     C1       CG331   -0.170000       12.0110           0
     13582 WT5      1285     MECN     H11      HGA3     0.090000        1.0080           0
     13583 WT5      1285     MECN     H12      HGA3     0.090000        1.0080           0
     13584 WT5      1285     MECN     H13      HGA3     0.090000        1.0080           0
     13585 WT5      1285     MECN     C2       CG1N1    0.360000       12.0110           0
     13586 WT5      1285     MECN     N3       NG1T1   -0.460000       14.0070           0
     13587 WT5      1287     MECN     C1       CG331   -0.170000       12.0110           0
     13588 WT5      1287     MECN     H11      HGA3     0.090000        1.0080           0
     13589 WT5      1287     MECN     H12      HGA3     0.090000        1.0080           0
     13590 WT5      1287     MECN     H13      HGA3     0.090000        1.0080           0
     13591 WT5      1287     MECN     C2       CG1N1    0.360000       12.0110           0
     13592 WT5      1287     MECN     N3       NG1T1   -0.460000       14.0070           0
     13593 WT5      1294     MECN     C1       CG331   -0.170000       12.0110           0
     13594 WT5      1294     MECN     H11      HGA3     0.090000        1.0080           0
     13595 WT5      1294     MECN     H12      HGA3     0.090000        1.0080           0
     13596 WT5      1294     MECN     H13      HGA3     0.090000        1.0080           0
     13597 WT5      1294     MECN     C2       CG1N1    0.360000       12.0110           0
     13598 WT5      1294     MECN     N3       NG1T1   -0.460000       14.0070           0
     13599 WT5      1303     MECN     C1       CG331   -0.170000       12.0110           0
     13600 WT5      1303     MECN     H11      HGA3     0.090000        1.0080           0
     13601 WT5      1303     MECN     H12      HGA3     0.090000        1.0080           0
     13602 WT5      1303     MECN     H13      HGA3     0.090000        1.0080           0
     13603 WT5      1303     MECN     C2       CG1N1    0.360000       12.0110           0
     13604 WT5      1303     MECN     N3       NG1T1   -0.460000       14.0070           0
     13605 WT5      1304     MECN     C1       CG331   -0.170000       12.0110           0
     13606 WT5      1304     MECN     H11      HGA3     0.090000        1.0080           0
     13607 WT5      1304     MECN     H12      HGA3     0.090000        1.0080           0
     13608 WT5      1304     MECN     H13      HGA3     0.090000        1.0080           0
     13609 WT5      1304     MECN     C2       CG1N1    0.360000       12.0110           0
     13610 WT5      1304     MECN     N3       NG1T1   -0.460000       14.0070           0
     13611 WT5      1306     MECN     C1       CG331   -0.170000       12.0110           0
     13612 WT5      1306     MECN     H11      HGA3     0.090000        1.0080           0
     13613 WT5      1306     MECN     H12      HGA3     0.090000        1.0080           0
     13614 WT5      1306     MECN     H13      HGA3     0.090000        1.0080           0
     13615 WT5      1306     MECN     C2       CG1N1    0.360000       12.0110           0
     13616 WT5      1306     MECN     N3       NG1T1   -0.460000       14.0070           0
     13617 WT5      1307     MECN     C1       CG331   -0.170000       12.0110           0
     13618 WT5      1307     MECN     H11      HGA3     0.090000        1.0080           0
     13619 WT5      1307     MECN     H12      HGA3     0.090000        1.0080           0
     13620 WT5      1307     MECN     H13      HGA3     0.090000        1.0080           0
     13621 WT5      1307     MECN     C2       CG1N1    0.360000       12.0110           0
     13622 WT5      1307     MECN     N3       NG1T1   -0.460000       14.0070           0
     13623 WT5      1310     MECN     C1       CG331   -0.170000       12.0110           0
     13624 WT5      1310     MECN     H11      HGA3     0.090000        1.0080           0
     13625 WT5      1310     MECN     H12      HGA3     0.090000        1.0080           0
     13626 WT5      1310     MECN     H13      HGA3     0.090000        1.0080           0
     13627 WT5      1310     MECN     C2       CG1N1    0.360000       12.0110           0
     13628 WT5      1310     MECN     N3       NG1T1   -0.460000       14.0070           0
     13629 WT5      1312     MECN     C1       CG331   -0.170000       12.0110           0
     13630 WT5      1312     MECN     H11      HGA3     0.090000        1.0080           0
     13631 WT5      1312     MECN     H12      HGA3     0.090000        1.0080           0
     13632 WT5      1312     MECN     H13      HGA3     0.090000        1.0080           0
     13633 WT5      1312     MECN     C2       CG1N1    0.360000       12.0110           0
     13634 WT5      1312     MECN     N3       NG1T1   -0.460000       14.0070           0
     13635 WT5      1314     MECN     C1       CG331   -0.170000       12.0110           0
     13636 WT5      1314     MECN     H11      HGA3     0.090000        1.0080           0
     13637 WT5      1314     MECN     H12      HGA3     0.090000        1.0080           0
     13638 WT5      1314     MECN     H13      HGA3     0.090000        1.0080           0
     13639 WT5      1314     MECN     C2       CG1N1    0.360000       12.0110           0
     13640 WT5      1314     MECN     N3       NG1T1   -0.460000       14.0070           0
     13641 WT5      1315     MECN     C1       CG331   -0.170000       12.0110           0
     13642 WT5      1315     MECN     H11      HGA3     0.090000        1.0080           0
     13643 WT5      1315     MECN     H12      HGA3     0.090000        1.0080           0
     13644 WT5      1315     MECN     H13      HGA3     0.090000        1.0080           0
     13645 WT5      1315     MECN     C2       CG1N1    0.360000       12.0110           0
     13646 WT5      1315     MECN     N3       NG1T1   -0.460000       14.0070           0
     13647 WT5      1317     MECN     C1       CG331   -0.170000       12.0110           0
     13648 WT5      1317     MECN     H11      HGA3     0.090000        1.0080           0
     13649 WT5      1317     MECN     H12      HGA3     0.090000        1.0080           0
     13650 WT5      1317     MECN     H13      HGA3     0.090000        1.0080           0
     13651 WT5      1317     MECN     C2       CG1N1    0.360000       12.0110           0
     13652 WT5      1317     MECN     N3       NG1T1   -0.460000       14.0070           0
     13653 WT5      1320     MECN     C1       CG331   -0.170000       12.0110           0
     13654 WT5      1320     MECN     H11      HGA3     0.090000        1.0080           0
     13655 WT5      1320     MECN     H12      HGA3     0.090000        1.0080           0
     13656 WT5      1320     MECN     H13      HGA3     0.090000        1.0080           0
     13657 WT5      1320     MECN     C2       CG1N1    0.360000       12.0110           0
     13658 WT5      1320     MECN     N3       NG1T1   -0.460000       14.0070           0
     13659 WT5      1323     MECN     C1       CG331   -0.170000       12.0110           0
     13660 WT5      1323     MECN     H11      HGA3     0.090000        1.0080           0
     13661 WT5      1323     MECN     H12      HGA3     0.090000        1.0080           0
     13662 WT5      1323     MECN     H13      HGA3     0.090000        1.0080           0
     13663 WT5      1323     MECN     C2       CG1N1    0.360000       12.0110           0
     13664 WT5      1323     MECN     N3       NG1T1   -0.460000       14.0070           0
     13665 WT5      1326     MECN     C1       CG331   -0.170000       12.0110           0
     13666 WT5      1326     MECN     H11      HGA3     0.090000        1.0080           0
     13667 WT5      1326     MECN     H12      HGA3     0.090000        1.0080           0
     13668 WT5      1326     MECN     H13      HGA3     0.090000        1.0080           0
     13669 WT5      1326     MECN     C2       CG1N1    0.360000       12.0110           0
     13670 WT5      1326     MECN     N3       NG1T1   -0.460000       14.0070           0
     13671 WT5      1329     MECN     C1       CG331   -0.170000       12.0110           0
     13672 WT5      1329     MECN     H11      HGA3     0.090000        1.0080           0
     13673 WT5      1329     MECN     H12      HGA3     0.090000        1.0080           0
     13674 WT5      1329     MECN     H13      HGA3     0.090000        1.0080           0
     13675 WT5      1329     MECN     C2       CG1N1    0.360000       12.0110           0
     13676 WT5      1329     MECN     N3       NG1T1   -0.460000       14.0070           0
     13677 WT5      1330     MECN     C1       CG331   -0.170000       12.0110           0
     13678 WT5      1330     MECN     H11      HGA3     0.090000        1.0080           0
     13679 WT5      1330     MECN     H12      HGA3     0.090000        1.0080           0
     13680 WT5      1330     MECN     H13      HGA3     0.090000        1.0080           0
     13681 WT5      1330     MECN     C2       CG1N1    0.360000       12.0110           0
     13682 WT5      1330     MECN     N3       NG1T1   -0.460000       14.0070           0
     13683 WT6      2        MECN     C1       CG331   -0.170000       12.0110           0
     13684 WT6      2        MECN     H11      HGA3     0.090000        1.0080           0
     13685 WT6      2        MECN     H12      HGA3     0.090000        1.0080           0
     13686 WT6      2        MECN     H13      HGA3     0.090000        1.0080           0
     13687 WT6      2        MECN     C2       CG1N1    0.360000       12.0110           0
     13688 WT6      2        MECN     N3       NG1T1   -0.460000       14.0070           0
     13689 WT6      3        MECN     C1       CG331   -0.170000       12.0110           0
     13690 WT6      3        MECN     H11      HGA3     0.090000        1.0080           0
     13691 WT6      3        MECN     H12      HGA3     0.090000        1.0080           0
     13692 WT6      3        MECN     H13      HGA3     0.090000        1.0080           0
     13693 WT6      3        MECN     C2       CG1N1    0.360000       12.0110           0
     13694 WT6      3        MECN     N3       NG1T1   -0.460000       14.0070           0
     13695 WT6      5        MECN     C1       CG331   -0.170000       12.0110           0
     13696 WT6      5        MECN     H11      HGA3     0.090000        1.0080           0
     13697 WT6      5        MECN     H12      HGA3     0.090000        1.0080           0
     13698 WT6      5        MECN     H13      HGA3     0.090000        1.0080           0
     13699 WT6      5        MECN     C2       CG1N1    0.360000       12.0110           0
     13700 WT6      5        MECN     N3       NG1T1   -0.460000       14.0070           0
     13701 WT6      10       MECN     C1       CG331   -0.170000       12.0110           0
     13702 WT6      10       MECN     H11      HGA3     0.090000        1.0080           0
     13703 WT6      10       MECN     H12      HGA3     0.090000        1.0080           0
     13704 WT6      10       MECN     H13      HGA3     0.090000        1.0080           0
     13705 WT6      10       MECN     C2       CG1N1    0.360000       12.0110           0
     13706 WT6      10       MECN     N3       NG1T1   -0.460000       14.0070           0
     13707 WT6      12       MECN     C1       CG331   -0.170000       12.0110           0
     13708 WT6      12       MECN     H11      HGA3     0.090000        1.0080           0
     13709 WT6      12       MECN     H12      HGA3     0.090000        1.0080           0
     13710 WT6      12       MECN     H13      HGA3     0.090000        1.0080           0
     13711 WT6      12       MECN     C2       CG1N1    0.360000       12.0110           0
     13712 WT6      12       MECN     N3       NG1T1   -0.460000       14.0070           0
     13713 WT6      13       MECN     C1       CG331   -0.170000       12.0110           0
     13714 WT6      13       MECN     H11      HGA3     0.090000        1.0080           0
     13715 WT6      13       MECN     H12      HGA3     0.090000        1.0080           0
     13716 WT6      13       MECN     H13      HGA3     0.090000        1.0080           0
     13717 WT6      13       MECN     C2       CG1N1    0.360000       12.0110           0
     13718 WT6      13       MECN     N3       NG1T1   -0.460000       14.0070           0
     13719 WT6      14       MECN     C1       CG331   -0.170000       12.0110           0
     13720 WT6      14       MECN     H11      HGA3     0.090000        1.0080           0
     13721 WT6      14       MECN     H12      HGA3     0.090000        1.0080           0
     13722 WT6      14       MECN     H13      HGA3     0.090000        1.0080           0
     13723 WT6      14       MECN     C2       CG1N1    0.360000       12.0110           0
     13724 WT6      14       MECN     N3       NG1T1   -0.460000       14.0070           0
     13725 WT6      17       MECN     C1       CG331   -0.170000       12.0110           0
     13726 WT6      17       MECN     H11      HGA3     0.090000        1.0080           0
     13727 WT6      17       MECN     H12      HGA3     0.090000        1.0080           0
     13728 WT6      17       MECN     H13      HGA3     0.090000        1.0080           0
     13729 WT6      17       MECN     C2       CG1N1    0.360000       12.0110           0
     13730 WT6      17       MECN     N3       NG1T1   -0.460000       14.0070           0
     13731 WT6      19       MECN     C1       CG331   -0.170000       12.0110           0
     13732 WT6      19       MECN     H11      HGA3     0.090000        1.0080           0
     13733 WT6      19       MECN     H12      HGA3     0.090000        1.0080           0
     13734 WT6      19       MECN     H13      HGA3     0.090000        1.0080           0
     13735 WT6      19       MECN     C2       CG1N1    0.360000       12.0110           0
     13736 WT6      19       MECN     N3       NG1T1   -0.460000       14.0070           0
     13737 WT6      21       MECN     C1       CG331   -0.170000       12.0110           0
     13738 WT6      21       MECN     H11      HGA3     0.090000        1.0080           0
     13739 WT6      21       MECN     H12      HGA3     0.090000        1.0080           0
     13740 WT6      21       MECN     H13      HGA3     0.090000        1.0080           0
     13741 WT6      21       MECN     C2       CG1N1    0.360000       12.0110           0
     13742 WT6      21       MECN     N3       NG1T1   -0.460000       14.0070           0
     13743 WT6      22       MECN     C1       CG331   -0.170000       12.0110           0
     13744 WT6      22       MECN     H11      HGA3     0.090000        1.0080           0
     13745 WT6      22       MECN     H12      HGA3     0.090000        1.0080           0
     13746 WT6      22       MECN     H13      HGA3     0.090000        1.0080           0
     13747 WT6      22       MECN     C2       CG1N1    0.360000       12.0110           0
     13748 WT6      22       MECN     N3       NG1T1   -0.460000       14.0070           0
     13749 WT6      24       MECN     C1       CG331   -0.170000       12.0110           0
     13750 WT6      24       MECN     H11      HGA3     0.090000        1.0080           0
     13751 WT6      24       MECN     H12      HGA3     0.090000        1.0080           0
     13752 WT6      24       MECN     H13      HGA3     0.090000        1.0080           0
     13753 WT6      24       MECN     C2       CG1N1    0.360000       12.0110           0
     13754 WT6      24       MECN     N3       NG1T1   -0.460000       14.0070           0
     13755 WT6      26       MECN     C1       CG331   -0.170000       12.0110           0
     13756 WT6      26       MECN     H11      HGA3     0.090000        1.0080           0
     13757 WT6      26       MECN     H12      HGA3     0.090000        1.0080           0
     13758 WT6      26       MECN     H13      HGA3     0.090000        1.0080           0
     13759 WT6      26       MECN     C2       CG1N1    0.360000       12.0110           0
     13760 WT6      26       MECN     N3       NG1T1   -0.460000       14.0070           0
     13761 WT6      27       MECN     C1       CG331   -0.170000       12.0110           0
     13762 WT6      27       MECN     H11      HGA3     0.090000        1.0080           0
     13763 WT6      27       MECN     H12      HGA3     0.090000        1.0080           0
     13764 WT6      27       MECN     H13      HGA3     0.090000        1.0080           0
     13765 WT6      27       MECN     C2       CG1N1    0.360000       12.0110           0
     13766 WT6      27       MECN     N3       NG1T1   -0.460000       14.0070           0
     13767 WT6      28       MECN     C1       CG331   -0.170000       12.0110           0
     13768 WT6      28       MECN     H11      HGA3     0.090000        1.0080           0
     13769 WT6      28       MECN     H12      HGA3     0.090000        1.0080           0
     13770 WT6      28       MECN     H13      HGA3     0.090000        1.0080           0
     13771 WT6      28       MECN     C2       CG1N1    0.360000       12.0110           0
     13772 WT6      28       MECN     N3       NG1T1   -0.460000       14.0070           0
     13773 WT6      44       MECN     C1       CG331   -0.170000       12.0110           0
     13774 WT6      44       MECN     H11      HGA3     0.090000        1.0080           0
     13775 WT6      44       MECN     H12      HGA3     0.090000        1.0080           0
     13776 WT6      44       MECN     H13      HGA3     0.090000        1.0080           0
     13777 WT6      44       MECN     C2       CG1N1    0.360000       12.0110           0
     13778 WT6      44       MECN     N3       NG1T1   -0.460000       14.0070           0
     13779 WT6      51       MECN     C1       CG331   -0.170000       12.0110           0
     13780 WT6      51       MECN     H11      HGA3     0.090000        1.0080           0
     13781 WT6      51       MECN     H12      HGA3     0.090000        1.0080           0
     13782 WT6      51       MECN     H13      HGA3     0.090000        1.0080           0
     13783 WT6      51       MECN     C2       CG1N1    0.360000       12.0110           0
     13784 WT6      51       MECN     N3       NG1T1   -0.460000       14.0070           0
     13785 WT6      53       MECN     C1       CG331   -0.170000       12.0110           0
     13786 WT6      53       MECN     H11      HGA3     0.090000        1.0080           0
     13787 WT6      53       MECN     H12      HGA3     0.090000        1.0080           0
     13788 WT6      53       MECN     H13      HGA3     0.090000        1.0080           0
     13789 WT6      53       MECN     C2       CG1N1    0.360000       12.0110           0
     13790 WT6      53       MECN     N3       NG1T1   -0.460000       14.0070           0
     13791 WT6      64       MECN     C1       CG331   -0.170000       12.0110           0
     13792 WT6      64       MECN     H11      HGA3     0.090000        1.0080           0
     13793 WT6      64       MECN     H12      HGA3     0.090000        1.0080           0
     13794 WT6      64       MECN     H13      HGA3     0.090000        1.0080           0
     13795 WT6      64       MECN     C2       CG1N1    0.360000       12.0110           0
     13796 WT6      64       MECN     N3       NG1T1   -0.460000       14.0070           0
     13797 WT6      65       MECN     C1       CG331   -0.170000       12.0110           0
     13798 WT6      65       MECN     H11      HGA3     0.090000        1.0080           0
     13799 WT6      65       MECN     H12      HGA3     0.090000        1.0080           0
     13800 WT6      65       MECN     H13      HGA3     0.090000        1.0080           0
     13801 WT6      65       MECN     C2       CG1N1    0.360000       12.0110           0
     13802 WT6      65       MECN     N3       NG1T1   -0.460000       14.0070           0
     13803 WT6      68       MECN     C1       CG331   -0.170000       12.0110           0
     13804 WT6      68       MECN     H11      HGA3     0.090000        1.0080           0
     13805 WT6      68       MECN     H12      HGA3     0.090000        1.0080           0
     13806 WT6      68       MECN     H13      HGA3     0.090000        1.0080           0
     13807 WT6      68       MECN     C2       CG1N1    0.360000       12.0110           0
     13808 WT6      68       MECN     N3       NG1T1   -0.460000       14.0070           0
     13809 WT6      69       MECN     C1       CG331   -0.170000       12.0110           0
     13810 WT6      69       MECN     H11      HGA3     0.090000        1.0080           0
     13811 WT6      69       MECN     H12      HGA3     0.090000        1.0080           0
     13812 WT6      69       MECN     H13      HGA3     0.090000        1.0080           0
     13813 WT6      69       MECN     C2       CG1N1    0.360000       12.0110           0
     13814 WT6      69       MECN     N3       NG1T1   -0.460000       14.0070           0
     13815 WT6      70       MECN     C1       CG331   -0.170000       12.0110           0
     13816 WT6      70       MECN     H11      HGA3     0.090000        1.0080           0
     13817 WT6      70       MECN     H12      HGA3     0.090000        1.0080           0
     13818 WT6      70       MECN     H13      HGA3     0.090000        1.0080           0
     13819 WT6      70       MECN     C2       CG1N1    0.360000       12.0110           0
     13820 WT6      70       MECN     N3       NG1T1   -0.460000       14.0070           0
     13821 WT6      73       MECN     C1       CG331   -0.170000       12.0110           0
     13822 WT6      73       MECN     H11      HGA3     0.090000        1.0080           0
     13823 WT6      73       MECN     H12      HGA3     0.090000        1.0080           0
     13824 WT6      73       MECN     H13      HGA3     0.090000        1.0080           0
     13825 WT6      73       MECN     C2       CG1N1    0.360000       12.0110           0
     13826 WT6      73       MECN     N3       NG1T1   -0.460000       14.0070           0
     13827 WT6      74       MECN     C1       CG331   -0.170000       12.0110           0
     13828 WT6      74       MECN     H11      HGA3     0.090000        1.0080           0
     13829 WT6      74       MECN     H12      HGA3     0.090000        1.0080           0
     13830 WT6      74       MECN     H13      HGA3     0.090000        1.0080           0
     13831 WT6      74       MECN     C2       CG1N1    0.360000       12.0110           0
     13832 WT6      74       MECN     N3       NG1T1   -0.460000       14.0070           0
     13833 WT6      76       MECN     C1       CG331   -0.170000       12.0110           0
     13834 WT6      76       MECN     H11      HGA3     0.090000        1.0080           0
     13835 WT6      76       MECN     H12      HGA3     0.090000        1.0080           0
     13836 WT6      76       MECN     H13      HGA3     0.090000        1.0080           0
     13837 WT6      76       MECN     C2       CG1N1    0.360000       12.0110           0
     13838 WT6      76       MECN     N3       NG1T1   -0.460000       14.0070           0
     13839 WT6      77       MECN     C1       CG331   -0.170000       12.0110           0
     13840 WT6      77       MECN     H11      HGA3     0.090000        1.0080           0
     13841 WT6      77       MECN     H12      HGA3     0.090000        1.0080           0
     13842 WT6      77       MECN     H13      HGA3     0.090000        1.0080           0
     13843 WT6      77       MECN     C2       CG1N1    0.360000       12.0110           0
     13844 WT6      77       MECN     N3       NG1T1   -0.460000       14.0070           0
     13845 WT6      85       MECN     C1       CG331   -0.170000       12.0110           0
     13846 WT6      85       MECN     H11      HGA3     0.090000        1.0080           0
     13847 WT6      85       MECN     H12      HGA3     0.090000        1.0080           0
     13848 WT6      85       MECN     H13      HGA3     0.090000        1.0080           0
     13849 WT6      85       MECN     C2       CG1N1    0.360000       12.0110           0
     13850 WT6      85       MECN     N3       NG1T1   -0.460000       14.0070           0
     13851 WT6      87       MECN     C1       CG331   -0.170000       12.0110           0
     13852 WT6      87       MECN     H11      HGA3     0.090000        1.0080           0
     13853 WT6      87       MECN     H12      HGA3     0.090000        1.0080           0
     13854 WT6      87       MECN     H13      HGA3     0.090000        1.0080           0
     13855 WT6      87       MECN     C2       CG1N1    0.360000       12.0110           0
     13856 WT6      87       MECN     N3       NG1T1   -0.460000       14.0070           0
     13857 WT6      98       MECN     C1       CG331   -0.170000       12.0110           0
     13858 WT6      98       MECN     H11      HGA3     0.090000        1.0080           0
     13859 WT6      98       MECN     H12      HGA3     0.090000        1.0080           0
     13860 WT6      98       MECN     H13      HGA3     0.090000        1.0080           0
     13861 WT6      98       MECN     C2       CG1N1    0.360000       12.0110           0
     13862 WT6      98       MECN     N3       NG1T1   -0.460000       14.0070           0
     13863 WT6      99       MECN     C1       CG331   -0.170000       12.0110           0
     13864 WT6      99       MECN     H11      HGA3     0.090000        1.0080           0
     13865 WT6      99       MECN     H12      HGA3     0.090000        1.0080           0
     13866 WT6      99       MECN     H13      HGA3     0.090000        1.0080           0
     13867 WT6      99       MECN     C2       CG1N1    0.360000       12.0110           0
     13868 WT6      99       MECN     N3       NG1T1   -0.460000       14.0070           0
     13869 WT6      102      MECN     C1       CG331   -0.170000       12.0110           0
     13870 WT6      102      MECN     H11      HGA3     0.090000        1.0080           0
     13871 WT6      102      MECN     H12      HGA3     0.090000        1.0080           0
     13872 WT6      102      MECN     H13      HGA3     0.090000        1.0080           0
     13873 WT6      102      MECN     C2       CG1N1    0.360000       12.0110           0
     13874 WT6      102      MECN     N3       NG1T1   -0.460000       14.0070           0
     13875 WT6      103      MECN     C1       CG331   -0.170000       12.0110           0
     13876 WT6      103      MECN     H11      HGA3     0.090000        1.0080           0
     13877 WT6      103      MECN     H12      HGA3     0.090000        1.0080           0
     13878 WT6      103      MECN     H13      HGA3     0.090000        1.0080           0
     13879 WT6      103      MECN     C2       CG1N1    0.360000       12.0110           0
     13880 WT6      103      MECN     N3       NG1T1   -0.460000       14.0070           0
     13881 WT6      109      MECN     C1       CG331   -0.170000       12.0110           0
     13882 WT6      109      MECN     H11      HGA3     0.090000        1.0080           0
     13883 WT6      109      MECN     H12      HGA3     0.090000        1.0080           0
     13884 WT6      109      MECN     H13      HGA3     0.090000        1.0080           0
     13885 WT6      109      MECN     C2       CG1N1    0.360000       12.0110           0
     13886 WT6      109      MECN     N3       NG1T1   -0.460000       14.0070           0
     13887 WT6      110      MECN     C1       CG331   -0.170000       12.0110           0
     13888 WT6      110      MECN     H11      HGA3     0.090000        1.0080           0
     13889 WT6      110      MECN     H12      HGA3     0.090000        1.0080           0
     13890 WT6      110      MECN     H13      HGA3     0.090000        1.0080           0
     13891 WT6      110      MECN     C2       CG1N1    0.360000       12.0110           0
     13892 WT6      110      MECN     N3       NG1T1   -0.460000       14.0070           0
     13893 WT6      112      MECN     C1       CG331   -0.170000       12.0110           0
     13894 WT6      112      MECN     H11      HGA3     0.090000        1.0080           0
     13895 WT6      112      MECN     H12      HGA3     0.090000        1.0080           0
     13896 WT6      112      MECN     H13      HGA3     0.090000        1.0080           0
     13897 WT6      112      MECN     C2       CG1N1    0.360000       12.0110           0
     13898 WT6      112      MECN     N3       NG1T1   -0.460000       14.0070           0
     13899 WT6      113      MECN     C1       CG331   -0.170000       12.0110           0
     13900 WT6      113      MECN     H11      HGA3     0.090000        1.0080           0
     13901 WT6      113      MECN     H12      HGA3     0.090000        1.0080           0
     13902 WT6      113      MECN     H13      HGA3     0.090000        1.0080           0
     13903 WT6      113      MECN     C2       CG1N1    0.360000       12.0110           0
     13904 WT6      113      MECN     N3       NG1T1   -0.460000       14.0070           0
     13905 WT6      114      MECN     C1       CG331   -0.170000       12.0110           0
     13906 WT6      114      MECN     H11      HGA3     0.090000        1.0080           0
     13907 WT6      114      MECN     H12      HGA3     0.090000        1.0080           0
     13908 WT6      114      MECN     H13      HGA3     0.090000        1.0080           0
     13909 WT6      114      MECN     C2       CG1N1    0.360000       12.0110           0
     13910 WT6      114      MECN     N3       NG1T1   -0.460000       14.0070           0
     13911 WT6      116      MECN     C1       CG331   -0.170000       12.0110           0
     13912 WT6      116      MECN     H11      HGA3     0.090000        1.0080           0
     13913 WT6      116      MECN     H12      HGA3     0.090000        1.0080           0
     13914 WT6      116      MECN     H13      HGA3     0.090000        1.0080           0
     13915 WT6      116      MECN     C2       CG1N1    0.360000       12.0110           0
     13916 WT6      116      MECN     N3       NG1T1   -0.460000       14.0070           0
     13917 WT6      123      MECN     C1       CG331   -0.170000       12.0110           0
     13918 WT6      123      MECN     H11      HGA3     0.090000        1.0080           0
     13919 WT6      123      MECN     H12      HGA3     0.090000        1.0080           0
     13920 WT6      123      MECN     H13      HGA3     0.090000        1.0080           0
     13921 WT6      123      MECN     C2       CG1N1    0.360000       12.0110           0
     13922 WT6      123      MECN     N3       NG1T1   -0.460000       14.0070           0
     13923 WT6      125      MECN     C1       CG331   -0.170000       12.0110           0
     13924 WT6      125      MECN     H11      HGA3     0.090000        1.0080           0
     13925 WT6      125      MECN     H12      HGA3     0.090000        1.0080           0
     13926 WT6      125      MECN     H13      HGA3     0.090000        1.0080           0
     13927 WT6      125      MECN     C2       CG1N1    0.360000       12.0110           0
     13928 WT6      125      MECN     N3       NG1T1   -0.460000       14.0070           0
     13929 WT6      127      MECN     C1       CG331   -0.170000       12.0110           0
     13930 WT6      127      MECN     H11      HGA3     0.090000        1.0080           0
     13931 WT6      127      MECN     H12      HGA3     0.090000        1.0080           0
     13932 WT6      127      MECN     H13      HGA3     0.090000        1.0080           0
     13933 WT6      127      MECN     C2       CG1N1    0.360000       12.0110           0
     13934 WT6      127      MECN     N3       NG1T1   -0.460000       14.0070           0
     13935 WT6      128      MECN     C1       CG331   -0.170000       12.0110           0
     13936 WT6      128      MECN     H11      HGA3     0.090000        1.0080           0
     13937 WT6      128      MECN     H12      HGA3     0.090000        1.0080           0
     13938 WT6      128      MECN     H13      HGA3     0.090000        1.0080           0
     13939 WT6      128      MECN     C2       CG1N1    0.360000       12.0110           0
     13940 WT6      128      MECN     N3       NG1T1   -0.460000       14.0070           0
     13941 WT6      132      MECN     C1       CG331   -0.170000       12.0110           0
     13942 WT6      132      MECN     H11      HGA3     0.090000        1.0080           0
     13943 WT6      132      MECN     H12      HGA3     0.090000        1.0080           0
     13944 WT6      132      MECN     H13      HGA3     0.090000        1.0080           0
     13945 WT6      132      MECN     C2       CG1N1    0.360000       12.0110           0
     13946 WT6      132      MECN     N3       NG1T1   -0.460000       14.0070           0
     13947 WT6      139      MECN     C1       CG331   -0.170000       12.0110           0
     13948 WT6      139      MECN     H11      HGA3     0.090000        1.0080           0
     13949 WT6      139      MECN     H12      HGA3     0.090000        1.0080           0
     13950 WT6      139      MECN     H13      HGA3     0.090000        1.0080           0
     13951 WT6      139      MECN     C2       CG1N1    0.360000       12.0110           0
     13952 WT6      139      MECN     N3       NG1T1   -0.460000       14.0070           0
     13953 WT6      140      MECN     C1       CG331   -0.170000       12.0110           0
     13954 WT6      140      MECN     H11      HGA3     0.090000        1.0080           0
     13955 WT6      140      MECN     H12      HGA3     0.090000        1.0080           0
     13956 WT6      140      MECN     H13      HGA3     0.090000        1.0080           0
     13957 WT6      140      MECN     C2       CG1N1    0.360000       12.0110           0
     13958 WT6      140      MECN     N3       NG1T1   -0.460000       14.0070           0
     13959 WT6      155      MECN     C1       CG331   -0.170000       12.0110           0
     13960 WT6      155      MECN     H11      HGA3     0.090000        1.0080           0
     13961 WT6      155      MECN     H12      HGA3     0.090000        1.0080           0
     13962 WT6      155      MECN     H13      HGA3     0.090000        1.0080           0
     13963 WT6      155      MECN     C2       CG1N1    0.360000       12.0110           0
     13964 WT6      155      MECN     N3       NG1T1   -0.460000       14.0070           0
     13965 WT6      156      MECN     C1       CG331   -0.170000       12.0110           0
     13966 WT6      156      MECN     H11      HGA3     0.090000        1.0080           0
     13967 WT6      156      MECN     H12      HGA3     0.090000        1.0080           0
     13968 WT6      156      MECN     H13      HGA3     0.090000        1.0080           0
     13969 WT6      156      MECN     C2       CG1N1    0.360000       12.0110           0
     13970 WT6      156      MECN     N3       NG1T1   -0.460000       14.0070           0
     13971 WT6      157      MECN     C1       CG331   -0.170000       12.0110           0
     13972 WT6      157      MECN     H11      HGA3     0.090000        1.0080           0
     13973 WT6      157      MECN     H12      HGA3     0.090000        1.0080           0
     13974 WT6      157      MECN     H13      HGA3     0.090000        1.0080           0
     13975 WT6      157      MECN     C2       CG1N1    0.360000       12.0110           0
     13976 WT6      157      MECN     N3       NG1T1   -0.460000       14.0070           0
     13977 WT6      158      MECN     C1       CG331   -0.170000       12.0110           0
     13978 WT6      158      MECN     H11      HGA3     0.090000        1.0080           0
     13979 WT6      158      MECN     H12      HGA3     0.090000        1.0080           0
     13980 WT6      158      MECN     H13      HGA3     0.090000        1.0080           0
     13981 WT6      158      MECN     C2       CG1N1    0.360000       12.0110           0
     13982 WT6      158      MECN     N3       NG1T1   -0.460000       14.0070           0
     13983 WT6      160      MECN     C1       CG331   -0.170000       12.0110           0
     13984 WT6      160      MECN     H11      HGA3     0.090000        1.0080           0
     13985 WT6      160      MECN     H12      HGA3     0.090000        1.0080           0
     13986 WT6      160      MECN     H13      HGA3     0.090000        1.0080           0
     13987 WT6      160      MECN     C2       CG1N1    0.360000       12.0110           0
     13988 WT6      160      MECN     N3       NG1T1   -0.460000       14.0070           0
     13989 WT6      167      MECN     C1       CG331   -0.170000       12.0110           0
     13990 WT6      167      MECN     H11      HGA3     0.090000        1.0080           0
     13991 WT6      167      MECN     H12      HGA3     0.090000        1.0080           0
     13992 WT6      167      MECN     H13      HGA3     0.090000        1.0080           0
     13993 WT6      167      MECN     C2       CG1N1    0.360000       12.0110           0
     13994 WT6      167      MECN     N3       NG1T1   -0.460000       14.0070           0
     13995 WT6      169      MECN     C1       CG331   -0.170000       12.0110           0
     13996 WT6      169      MECN     H11      HGA3     0.090000        1.0080           0
     13997 WT6      169      MECN     H12      HGA3     0.090000        1.0080           0
     13998 WT6      169      MECN     H13      HGA3     0.090000        1.0080           0
     13999 WT6      169      MECN     C2       CG1N1    0.360000       12.0110           0
     14000 WT6      169      MECN     N3       NG1T1   -0.460000       14.0070           0
     14001 WT6      170      MECN     C1       CG331   -0.170000       12.0110           0
     14002 WT6      170      MECN     H11      HGA3     0.090000        1.0080           0
     14003 WT6      170      MECN     H12      HGA3     0.090000        1.0080           0
     14004 WT6      170      MECN     H13      HGA3     0.090000        1.0080           0
     14005 WT6      170      MECN     C2       CG1N1    0.360000       12.0110           0
     14006 WT6      170      MECN     N3       NG1T1   -0.460000       14.0070           0
     14007 WT6      172      MECN     C1       CG331   -0.170000       12.0110           0
     14008 WT6      172      MECN     H11      HGA3     0.090000        1.0080           0
     14009 WT6      172      MECN     H12      HGA3     0.090000        1.0080           0
     14010 WT6      172      MECN     H13      HGA3     0.090000        1.0080           0
     14011 WT6      172      MECN     C2       CG1N1    0.360000       12.0110           0
     14012 WT6      172      MECN     N3       NG1T1   -0.460000       14.0070           0
     14013 WT6      174      MECN     C1       CG331   -0.170000       12.0110           0
     14014 WT6      174      MECN     H11      HGA3     0.090000        1.0080           0
     14015 WT6      174      MECN     H12      HGA3     0.090000        1.0080           0
     14016 WT6      174      MECN     H13      HGA3     0.090000        1.0080           0
     14017 WT6      174      MECN     C2       CG1N1    0.360000       12.0110           0
     14018 WT6      174      MECN     N3       NG1T1   -0.460000       14.0070           0
     14019 WT6      176      MECN     C1       CG331   -0.170000       12.0110           0
     14020 WT6      176      MECN     H11      HGA3     0.090000        1.0080           0
     14021 WT6      176      MECN     H12      HGA3     0.090000        1.0080           0
     14022 WT6      176      MECN     H13      HGA3     0.090000        1.0080           0
     14023 WT6      176      MECN     C2       CG1N1    0.360000       12.0110           0
     14024 WT6      176      MECN     N3       NG1T1   -0.460000       14.0070           0
     14025 WT6      177      MECN     C1       CG331   -0.170000       12.0110           0
     14026 WT6      177      MECN     H11      HGA3     0.090000        1.0080           0
     14027 WT6      177      MECN     H12      HGA3     0.090000        1.0080           0
     14028 WT6      177      MECN     H13      HGA3     0.090000        1.0080           0
     14029 WT6      177      MECN     C2       CG1N1    0.360000       12.0110           0
     14030 WT6      177      MECN     N3       NG1T1   -0.460000       14.0070           0
     14031 WT6      180      MECN     C1       CG331   -0.170000       12.0110           0
     14032 WT6      180      MECN     H11      HGA3     0.090000        1.0080           0
     14033 WT6      180      MECN     H12      HGA3     0.090000        1.0080           0
     14034 WT6      180      MECN     H13      HGA3     0.090000        1.0080           0
     14035 WT6      180      MECN     C2       CG1N1    0.360000       12.0110           0
     14036 WT6      180      MECN     N3       NG1T1   -0.460000       14.0070           0
     14037 WT6      183      MECN     C1       CG331   -0.170000       12.0110           0
     14038 WT6      183      MECN     H11      HGA3     0.090000        1.0080           0
     14039 WT6      183      MECN     H12      HGA3     0.090000        1.0080           0
     14040 WT6      183      MECN     H13      HGA3     0.090000        1.0080           0
     14041 WT6      183      MECN     C2       CG1N1    0.360000       12.0110           0
     14042 WT6      183      MECN     N3       NG1T1   -0.460000       14.0070           0
     14043 WT6      185      MECN     C1       CG331   -0.170000       12.0110           0
     14044 WT6      185      MECN     H11      HGA3     0.090000        1.0080           0
     14045 WT6      185      MECN     H12      HGA3     0.090000        1.0080           0
     14046 WT6      185      MECN     H13      HGA3     0.090000        1.0080           0
     14047 WT6      185      MECN     C2       CG1N1    0.360000       12.0110           0
     14048 WT6      185      MECN     N3       NG1T1   -0.460000       14.0070           0
     14049 WT6      187      MECN     C1       CG331   -0.170000       12.0110           0
     14050 WT6      187      MECN     H11      HGA3     0.090000        1.0080           0
     14051 WT6      187      MECN     H12      HGA3     0.090000        1.0080           0
     14052 WT6      187      MECN     H13      HGA3     0.090000        1.0080           0
     14053 WT6      187      MECN     C2       CG1N1    0.360000       12.0110           0
     14054 WT6      187      MECN     N3       NG1T1   -0.460000       14.0070           0
     14055 WT6      188      MECN     C1       CG331   -0.170000       12.0110           0
     14056 WT6      188      MECN     H11      HGA3     0.090000        1.0080           0
     14057 WT6      188      MECN     H12      HGA3     0.090000        1.0080           0
     14058 WT6      188      MECN     H13      HGA3     0.090000        1.0080           0
     14059 WT6      188      MECN     C2       CG1N1    0.360000       12.0110           0
     14060 WT6      188      MECN     N3       NG1T1   -0.460000       14.0070           0
     14061 WT6      193      MECN     C1       CG331   -0.170000       12.0110           0
     14062 WT6      193      MECN     H11      HGA3     0.090000        1.0080           0
     14063 WT6      193      MECN     H12      HGA3     0.090000        1.0080           0
     14064 WT6      193      MECN     H13      HGA3     0.090000        1.0080           0
     14065 WT6      193      MECN     C2       CG1N1    0.360000       12.0110           0
     14066 WT6      193      MECN     N3       NG1T1   -0.460000       14.0070           0
     14067 WT6      206      MECN     C1       CG331   -0.170000       12.0110           0
     14068 WT6      206      MECN     H11      HGA3     0.090000        1.0080           0
     14069 WT6      206      MECN     H12      HGA3     0.090000        1.0080           0
     14070 WT6      206      MECN     H13      HGA3     0.090000        1.0080           0
     14071 WT6      206      MECN     C2       CG1N1    0.360000       12.0110           0
     14072 WT6      206      MECN     N3       NG1T1   -0.460000       14.0070           0
     14073 WT6      210      MECN     C1       CG331   -0.170000       12.0110           0
     14074 WT6      210      MECN     H11      HGA3     0.090000        1.0080           0
     14075 WT6      210      MECN     H12      HGA3     0.090000        1.0080           0
     14076 WT6      210      MECN     H13      HGA3     0.090000        1.0080           0
     14077 WT6      210      MECN     C2       CG1N1    0.360000       12.0110           0
     14078 WT6      210      MECN     N3       NG1T1   -0.460000       14.0070           0
     14079 WT6      211      MECN     C1       CG331   -0.170000       12.0110           0
     14080 WT6      211      MECN     H11      HGA3     0.090000        1.0080           0
     14081 WT6      211      MECN     H12      HGA3     0.090000        1.0080           0
     14082 WT6      211      MECN     H13      HGA3     0.090000        1.0080           0
     14083 WT6      211      MECN     C2       CG1N1    0.360000       12.0110           0
     14084 WT6      211      MECN     N3       NG1T1   -0.460000       14.0070           0
     14085 WT6      213      MECN     C1       CG331   -0.170000       12.0110           0
     14086 WT6      213      MECN     H11      HGA3     0.090000        1.0080           0
     14087 WT6      213      MECN     H12      HGA3     0.090000        1.0080           0
     14088 WT6      213      MECN     H13      HGA3     0.090000        1.0080           0
     14089 WT6      213      MECN     C2       CG1N1    0.360000       12.0110           0
     14090 WT6      213      MECN     N3       NG1T1   -0.460000       14.0070           0
     14091 WT6      214      MECN     C1       CG331   -0.170000       12.0110           0
     14092 WT6      214      MECN     H11      HGA3     0.090000        1.0080           0
     14093 WT6      214      MECN     H12      HGA3     0.090000        1.0080           0
     14094 WT6      214      MECN     H13      HGA3     0.090000        1.0080           0
     14095 WT6      214      MECN     C2       CG1N1    0.360000       12.0110           0
     14096 WT6      214      MECN     N3       NG1T1   -0.460000       14.0070           0
     14097 WT6      220      MECN     C1       CG331   -0.170000       12.0110           0
     14098 WT6      220      MECN     H11      HGA3     0.090000        1.0080           0
     14099 WT6      220      MECN     H12      HGA3     0.090000        1.0080           0
     14100 WT6      220      MECN     H13      HGA3     0.090000        1.0080           0
     14101 WT6      220      MECN     C2       CG1N1    0.360000       12.0110           0
     14102 WT6      220      MECN     N3       NG1T1   -0.460000       14.0070           0
     14103 WT6      222      MECN     C1       CG331   -0.170000       12.0110           0
     14104 WT6      222      MECN     H11      HGA3     0.090000        1.0080           0
     14105 WT6      222      MECN     H12      HGA3     0.090000        1.0080           0
     14106 WT6      222      MECN     H13      HGA3     0.090000        1.0080           0
     14107 WT6      222      MECN     C2       CG1N1    0.360000       12.0110           0
     14108 WT6      222      MECN     N3       NG1T1   -0.460000       14.0070           0
     14109 WT6      224      MECN     C1       CG331   -0.170000       12.0110           0
     14110 WT6      224      MECN     H11      HGA3     0.090000        1.0080           0
     14111 WT6      224      MECN     H12      HGA3     0.090000        1.0080           0
     14112 WT6      224      MECN     H13      HGA3     0.090000        1.0080           0
     14113 WT6      224      MECN     C2       CG1N1    0.360000       12.0110           0
     14114 WT6      224      MECN     N3       NG1T1   -0.460000       14.0070           0
     14115 WT6      225      MECN     C1       CG331   -0.170000       12.0110           0
     14116 WT6      225      MECN     H11      HGA3     0.090000        1.0080           0
     14117 WT6      225      MECN     H12      HGA3     0.090000        1.0080           0
     14118 WT6      225      MECN     H13      HGA3     0.090000        1.0080           0
     14119 WT6      225      MECN     C2       CG1N1    0.360000       12.0110           0
     14120 WT6      225      MECN     N3       NG1T1   -0.460000       14.0070           0
     14121 WT6      226      MECN     C1       CG331   -0.170000       12.0110           0
     14122 WT6      226      MECN     H11      HGA3     0.090000        1.0080           0
     14123 WT6      226      MECN     H12      HGA3     0.090000        1.0080           0
     14124 WT6      226      MECN     H13      HGA3     0.090000        1.0080           0
     14125 WT6      226      MECN     C2       CG1N1    0.360000       12.0110           0
     14126 WT6      226      MECN     N3       NG1T1   -0.460000       14.0070           0
     14127 WT6      227      MECN     C1       CG331   -0.170000       12.0110           0
     14128 WT6      227      MECN     H11      HGA3     0.090000        1.0080           0
     14129 WT6      227      MECN     H12      HGA3     0.090000        1.0080           0
     14130 WT6      227      MECN     H13      HGA3     0.090000        1.0080           0
     14131 WT6      227      MECN     C2       CG1N1    0.360000       12.0110           0
     14132 WT6      227      MECN     N3       NG1T1   -0.460000       14.0070           0
     14133 WT6      228      MECN     C1       CG331   -0.170000       12.0110           0
     14134 WT6      228      MECN     H11      HGA3     0.090000        1.0080           0
     14135 WT6      228      MECN     H12      HGA3     0.090000        1.0080           0
     14136 WT6      228      MECN     H13      HGA3     0.090000        1.0080           0
     14137 WT6      228      MECN     C2       CG1N1    0.360000       12.0110           0
     14138 WT6      228      MECN     N3       NG1T1   -0.460000       14.0070           0
     14139 WT6      229      MECN     C1       CG331   -0.170000       12.0110           0
     14140 WT6      229      MECN     H11      HGA3     0.090000        1.0080           0
     14141 WT6      229      MECN     H12      HGA3     0.090000        1.0080           0
     14142 WT6      229      MECN     H13      HGA3     0.090000        1.0080           0
     14143 WT6      229      MECN     C2       CG1N1    0.360000       12.0110           0
     14144 WT6      229      MECN     N3       NG1T1   -0.460000       14.0070           0
     14145 WT6      234      MECN     C1       CG331   -0.170000       12.0110           0
     14146 WT6      234      MECN     H11      HGA3     0.090000        1.0080           0
     14147 WT6      234      MECN     H12      HGA3     0.090000        1.0080           0
     14148 WT6      234      MECN     H13      HGA3     0.090000        1.0080           0
     14149 WT6      234      MECN     C2       CG1N1    0.360000       12.0110           0
     14150 WT6      234      MECN     N3       NG1T1   -0.460000       14.0070           0
     14151 WT6      236      MECN     C1       CG331   -0.170000       12.0110           0
     14152 WT6      236      MECN     H11      HGA3     0.090000        1.0080           0
     14153 WT6      236      MECN     H12      HGA3     0.090000        1.0080           0
     14154 WT6      236      MECN     H13      HGA3     0.090000        1.0080           0
     14155 WT6      236      MECN     C2       CG1N1    0.360000       12.0110           0
     14156 WT6      236      MECN     N3       NG1T1   -0.460000       14.0070           0
     14157 WT6      237      MECN     C1       CG331   -0.170000       12.0110           0
     14158 WT6      237      MECN     H11      HGA3     0.090000        1.0080           0
     14159 WT6      237      MECN     H12      HGA3     0.090000        1.0080           0
     14160 WT6      237      MECN     H13      HGA3     0.090000        1.0080           0
     14161 WT6      237      MECN     C2       CG1N1    0.360000       12.0110           0
     14162 WT6      237      MECN     N3       NG1T1   -0.460000       14.0070           0
     14163 WT6      238      MECN     C1       CG331   -0.170000       12.0110           0
     14164 WT6      238      MECN     H11      HGA3     0.090000        1.0080           0
     14165 WT6      238      MECN     H12      HGA3     0.090000        1.0080           0
     14166 WT6      238      MECN     H13      HGA3     0.090000        1.0080           0
     14167 WT6      238      MECN     C2       CG1N1    0.360000       12.0110           0
     14168 WT6      238      MECN     N3       NG1T1   -0.460000       14.0070           0
     14169 WT6      239      MECN     C1       CG331   -0.170000       12.0110           0
     14170 WT6      239      MECN     H11      HGA3     0.090000        1.0080           0
     14171 WT6      239      MECN     H12      HGA3     0.090000        1.0080           0
     14172 WT6      239      MECN     H13      HGA3     0.090000        1.0080           0
     14173 WT6      239      MECN     C2       CG1N1    0.360000       12.0110           0
     14174 WT6      239      MECN     N3       NG1T1   -0.460000       14.0070           0
     14175 WT6      240      MECN     C1       CG331   -0.170000       12.0110           0
     14176 WT6      240      MECN     H11      HGA3     0.090000        1.0080           0
     14177 WT6      240      MECN     H12      HGA3     0.090000        1.0080           0
     14178 WT6      240      MECN     H13      HGA3     0.090000        1.0080           0
     14179 WT6      240      MECN     C2       CG1N1    0.360000       12.0110           0
     14180 WT6      240      MECN     N3       NG1T1   -0.460000       14.0070           0
     14181 WT6      242      MECN     C1       CG331   -0.170000       12.0110           0
     14182 WT6      242      MECN     H11      HGA3     0.090000        1.0080           0
     14183 WT6      242      MECN     H12      HGA3     0.090000        1.0080           0
     14184 WT6      242      MECN     H13      HGA3     0.090000        1.0080           0
     14185 WT6      242      MECN     C2       CG1N1    0.360000       12.0110           0
     14186 WT6      242      MECN     N3       NG1T1   -0.460000       14.0070           0
     14187 WT6      249      MECN     C1       CG331   -0.170000       12.0110           0
     14188 WT6      249      MECN     H11      HGA3     0.090000        1.0080           0
     14189 WT6      249      MECN     H12      HGA3     0.090000        1.0080           0
     14190 WT6      249      MECN     H13      HGA3     0.090000        1.0080           0
     14191 WT6      249      MECN     C2       CG1N1    0.360000       12.0110           0
     14192 WT6      249      MECN     N3       NG1T1   -0.460000       14.0070           0
     14193 WT6      250      MECN     C1       CG331   -0.170000       12.0110           0
     14194 WT6      250      MECN     H11      HGA3     0.090000        1.0080           0
     14195 WT6      250      MECN     H12      HGA3     0.090000        1.0080           0
     14196 WT6      250      MECN     H13      HGA3     0.090000        1.0080           0
     14197 WT6      250      MECN     C2       CG1N1    0.360000       12.0110           0
     14198 WT6      250      MECN     N3       NG1T1   -0.460000       14.0070           0
     14199 WT6      254      MECN     C1       CG331   -0.170000       12.0110           0
     14200 WT6      254      MECN     H11      HGA3     0.090000        1.0080           0
     14201 WT6      254      MECN     H12      HGA3     0.090000        1.0080           0
     14202 WT6      254      MECN     H13      HGA3     0.090000        1.0080           0
     14203 WT6      254      MECN     C2       CG1N1    0.360000       12.0110           0
     14204 WT6      254      MECN     N3       NG1T1   -0.460000       14.0070           0
     14205 WT6      255      MECN     C1       CG331   -0.170000       12.0110           0
     14206 WT6      255      MECN     H11      HGA3     0.090000        1.0080           0
     14207 WT6      255      MECN     H12      HGA3     0.090000        1.0080           0
     14208 WT6      255      MECN     H13      HGA3     0.090000        1.0080           0
     14209 WT6      255      MECN     C2       CG1N1    0.360000       12.0110           0
     14210 WT6      255      MECN     N3       NG1T1   -0.460000       14.0070           0
     14211 WT6      257      MECN     C1       CG331   -0.170000       12.0110           0
     14212 WT6      257      MECN     H11      HGA3     0.090000        1.0080           0
     14213 WT6      257      MECN     H12      HGA3     0.090000        1.0080           0
     14214 WT6      257      MECN     H13      HGA3     0.090000        1.0080           0
     14215 WT6      257      MECN     C2       CG1N1    0.360000       12.0110           0
     14216 WT6      257      MECN     N3       NG1T1   -0.460000       14.0070           0
     14217 WT6      259      MECN     C1       CG331   -0.170000       12.0110           0
     14218 WT6      259      MECN     H11      HGA3     0.090000        1.0080           0
     14219 WT6      259      MECN     H12      HGA3     0.090000        1.0080           0
     14220 WT6      259      MECN     H13      HGA3     0.090000        1.0080           0
     14221 WT6      259      MECN     C2       CG1N1    0.360000       12.0110           0
     14222 WT6      259      MECN     N3       NG1T1   -0.460000       14.0070           0
     14223 WT6      261      MECN     C1       CG331   -0.170000       12.0110           0
     14224 WT6      261      MECN     H11      HGA3     0.090000        1.0080           0
     14225 WT6      261      MECN     H12      HGA3     0.090000        1.0080           0
     14226 WT6      261      MECN     H13      HGA3     0.090000        1.0080           0
     14227 WT6      261      MECN     C2       CG1N1    0.360000       12.0110           0
     14228 WT6      261      MECN     N3       NG1T1   -0.460000       14.0070           0
     14229 WT6      267      MECN     C1       CG331   -0.170000       12.0110           0
     14230 WT6      267      MECN     H11      HGA3     0.090000        1.0080           0
     14231 WT6      267      MECN     H12      HGA3     0.090000        1.0080           0
     14232 WT6      267      MECN     H13      HGA3     0.090000        1.0080           0
     14233 WT6      267      MECN     C2       CG1N1    0.360000       12.0110           0
     14234 WT6      267      MECN     N3       NG1T1   -0.460000       14.0070           0
     14235 WT6      277      MECN     C1       CG331   -0.170000       12.0110           0
     14236 WT6      277      MECN     H11      HGA3     0.090000        1.0080           0
     14237 WT6      277      MECN     H12      HGA3     0.090000        1.0080           0
     14238 WT6      277      MECN     H13      HGA3     0.090000        1.0080           0
     14239 WT6      277      MECN     C2       CG1N1    0.360000       12.0110           0
     14240 WT6      277      MECN     N3       NG1T1   -0.460000       14.0070           0
     14241 WT6      282      MECN     C1       CG331   -0.170000       12.0110           0
     14242 WT6      282      MECN     H11      HGA3     0.090000        1.0080           0
     14243 WT6      282      MECN     H12      HGA3     0.090000        1.0080           0
     14244 WT6      282      MECN     H13      HGA3     0.090000        1.0080           0
     14245 WT6      282      MECN     C2       CG1N1    0.360000       12.0110           0
     14246 WT6      282      MECN     N3       NG1T1   -0.460000       14.0070           0
     14247 WT6      284      MECN     C1       CG331   -0.170000       12.0110           0
     14248 WT6      284      MECN     H11      HGA3     0.090000        1.0080           0
     14249 WT6      284      MECN     H12      HGA3     0.090000        1.0080           0
     14250 WT6      284      MECN     H13      HGA3     0.090000        1.0080           0
     14251 WT6      284      MECN     C2       CG1N1    0.360000       12.0110           0
     14252 WT6      284      MECN     N3       NG1T1   -0.460000       14.0070           0
     14253 WT6      286      MECN     C1       CG331   -0.170000       12.0110           0
     14254 WT6      286      MECN     H11      HGA3     0.090000        1.0080           0
     14255 WT6      286      MECN     H12      HGA3     0.090000        1.0080           0
     14256 WT6      286      MECN     H13      HGA3     0.090000        1.0080           0
     14257 WT6      286      MECN     C2       CG1N1    0.360000       12.0110           0
     14258 WT6      286      MECN     N3       NG1T1   -0.460000       14.0070           0
     14259 WT6      291      MECN     C1       CG331   -0.170000       12.0110           0
     14260 WT6      291      MECN     H11      HGA3     0.090000        1.0080           0
     14261 WT6      291      MECN     H12      HGA3     0.090000        1.0080           0
     14262 WT6      291      MECN     H13      HGA3     0.090000        1.0080           0
     14263 WT6      291      MECN     C2       CG1N1    0.360000       12.0110           0
     14264 WT6      291      MECN     N3       NG1T1   -0.460000       14.0070           0
     14265 WT6      293      MECN     C1       CG331   -0.170000       12.0110           0
     14266 WT6      293      MECN     H11      HGA3     0.090000        1.0080           0
     14267 WT6      293      MECN     H12      HGA3     0.090000        1.0080           0
     14268 WT6      293      MECN     H13      HGA3     0.090000        1.0080           0
     14269 WT6      293      MECN     C2       CG1N1    0.360000       12.0110           0
     14270 WT6      293      MECN     N3       NG1T1   -0.460000       14.0070           0
     14271 WT6      296      MECN     C1       CG331   -0.170000       12.0110           0
     14272 WT6      296      MECN     H11      HGA3     0.090000        1.0080           0
     14273 WT6      296      MECN     H12      HGA3     0.090000        1.0080           0
     14274 WT6      296      MECN     H13      HGA3     0.090000        1.0080           0
     14275 WT6      296      MECN     C2       CG1N1    0.360000       12.0110           0
     14276 WT6      296      MECN     N3       NG1T1   -0.460000       14.0070           0
     14277 WT6      302      MECN     C1       CG331   -0.170000       12.0110           0
     14278 WT6      302      MECN     H11      HGA3     0.090000        1.0080           0
     14279 WT6      302      MECN     H12      HGA3     0.090000        1.0080           0
     14280 WT6      302      MECN     H13      HGA3     0.090000        1.0080           0
     14281 WT6      302      MECN     C2       CG1N1    0.360000       12.0110           0
     14282 WT6      302      MECN     N3       NG1T1   -0.460000       14.0070           0
     14283 WT6      303      MECN     C1       CG331   -0.170000       12.0110           0
     14284 WT6      303      MECN     H11      HGA3     0.090000        1.0080           0
     14285 WT6      303      MECN     H12      HGA3     0.090000        1.0080           0
     14286 WT6      303      MECN     H13      HGA3     0.090000        1.0080           0
     14287 WT6      303      MECN     C2       CG1N1    0.360000       12.0110           0
     14288 WT6      303      MECN     N3       NG1T1   -0.460000       14.0070           0
     14289 WT6      306      MECN     C1       CG331   -0.170000       12.0110           0
     14290 WT6      306      MECN     H11      HGA3     0.090000        1.0080           0
     14291 WT6      306      MECN     H12      HGA3     0.090000        1.0080           0
     14292 WT6      306      MECN     H13      HGA3     0.090000        1.0080           0
     14293 WT6      306      MECN     C2       CG1N1    0.360000       12.0110           0
     14294 WT6      306      MECN     N3       NG1T1   -0.460000       14.0070           0
     14295 WT6      308      MECN     C1       CG331   -0.170000       12.0110           0
     14296 WT6      308      MECN     H11      HGA3     0.090000        1.0080           0
     14297 WT6      308      MECN     H12      HGA3     0.090000        1.0080           0
     14298 WT6      308      MECN     H13      HGA3     0.090000        1.0080           0
     14299 WT6      308      MECN     C2       CG1N1    0.360000       12.0110           0
     14300 WT6      308      MECN     N3       NG1T1   -0.460000       14.0070           0
     14301 WT6      316      MECN     C1       CG331   -0.170000       12.0110           0
     14302 WT6      316      MECN     H11      HGA3     0.090000        1.0080           0
     14303 WT6      316      MECN     H12      HGA3     0.090000        1.0080           0
     14304 WT6      316      MECN     H13      HGA3     0.090000        1.0080           0
     14305 WT6      316      MECN     C2       CG1N1    0.360000       12.0110           0
     14306 WT6      316      MECN     N3       NG1T1   -0.460000       14.0070           0
     14307 WT6      320      MECN     C1       CG331   -0.170000       12.0110           0
     14308 WT6      320      MECN     H11      HGA3     0.090000        1.0080           0
     14309 WT6      320      MECN     H12      HGA3     0.090000        1.0080           0
     14310 WT6      320      MECN     H13      HGA3     0.090000        1.0080           0
     14311 WT6      320      MECN     C2       CG1N1    0.360000       12.0110           0
     14312 WT6      320      MECN     N3       NG1T1   -0.460000       14.0070           0
     14313 WT6      321      MECN     C1       CG331   -0.170000       12.0110           0
     14314 WT6      321      MECN     H11      HGA3     0.090000        1.0080           0
     14315 WT6      321      MECN     H12      HGA3     0.090000        1.0080           0
     14316 WT6      321      MECN     H13      HGA3     0.090000        1.0080           0
     14317 WT6      321      MECN     C2       CG1N1    0.360000       12.0110           0
     14318 WT6      321      MECN     N3       NG1T1   -0.460000       14.0070           0
     14319 WT6      323      MECN     C1       CG331   -0.170000       12.0110           0
     14320 WT6      323      MECN     H11      HGA3     0.090000        1.0080           0
     14321 WT6      323      MECN     H12      HGA3     0.090000        1.0080           0
     14322 WT6      323      MECN     H13      HGA3     0.090000        1.0080           0
     14323 WT6      323      MECN     C2       CG1N1    0.360000       12.0110           0
     14324 WT6      323      MECN     N3       NG1T1   -0.460000       14.0070           0
     14325 WT6      324      MECN     C1       CG331   -0.170000       12.0110           0
     14326 WT6      324      MECN     H11      HGA3     0.090000        1.0080           0
     14327 WT6      324      MECN     H12      HGA3     0.090000        1.0080           0
     14328 WT6      324      MECN     H13      HGA3     0.090000        1.0080           0
     14329 WT6      324      MECN     C2       CG1N1    0.360000       12.0110           0
     14330 WT6      324      MECN     N3       NG1T1   -0.460000       14.0070           0
     14331 WT6      326      MECN     C1       CG331   -0.170000       12.0110           0
     14332 WT6      326      MECN     H11      HGA3     0.090000        1.0080           0
     14333 WT6      326      MECN     H12      HGA3     0.090000        1.0080           0
     14334 WT6      326      MECN     H13      HGA3     0.090000        1.0080           0
     14335 WT6      326      MECN     C2       CG1N1    0.360000       12.0110           0
     14336 WT6      326      MECN     N3       NG1T1   -0.460000       14.0070           0
     14337 WT6      331      MECN     C1       CG331   -0.170000       12.0110           0
     14338 WT6      331      MECN     H11      HGA3     0.090000        1.0080           0
     14339 WT6      331      MECN     H12      HGA3     0.090000        1.0080           0
     14340 WT6      331      MECN     H13      HGA3     0.090000        1.0080           0
     14341 WT6      331      MECN     C2       CG1N1    0.360000       12.0110           0
     14342 WT6      331      MECN     N3       NG1T1   -0.460000       14.0070           0
     14343 WT6      337      MECN     C1       CG331   -0.170000       12.0110           0
     14344 WT6      337      MECN     H11      HGA3     0.090000        1.0080           0
     14345 WT6      337      MECN     H12      HGA3     0.090000        1.0080           0
     14346 WT6      337      MECN     H13      HGA3     0.090000        1.0080           0
     14347 WT6      337      MECN     C2       CG1N1    0.360000       12.0110           0
     14348 WT6      337      MECN     N3       NG1T1   -0.460000       14.0070           0
     14349 WT6      348      MECN     C1       CG331   -0.170000       12.0110           0
     14350 WT6      348      MECN     H11      HGA3     0.090000        1.0080           0
     14351 WT6      348      MECN     H12      HGA3     0.090000        1.0080           0
     14352 WT6      348      MECN     H13      HGA3     0.090000        1.0080           0
     14353 WT6      348      MECN     C2       CG1N1    0.360000       12.0110           0
     14354 WT6      348      MECN     N3       NG1T1   -0.460000       14.0070           0
     14355 WT6      350      MECN     C1       CG331   -0.170000       12.0110           0
     14356 WT6      350      MECN     H11      HGA3     0.090000        1.0080           0
     14357 WT6      350      MECN     H12      HGA3     0.090000        1.0080           0
     14358 WT6      350      MECN     H13      HGA3     0.090000        1.0080           0
     14359 WT6      350      MECN     C2       CG1N1    0.360000       12.0110           0
     14360 WT6      350      MECN     N3       NG1T1   -0.460000       14.0070           0
     14361 WT6      351      MECN     C1       CG331   -0.170000       12.0110           0
     14362 WT6      351      MECN     H11      HGA3     0.090000        1.0080           0
     14363 WT6      351      MECN     H12      HGA3     0.090000        1.0080           0
     14364 WT6      351      MECN     H13      HGA3     0.090000        1.0080           0
     14365 WT6      351      MECN     C2       CG1N1    0.360000       12.0110           0
     14366 WT6      351      MECN     N3       NG1T1   -0.460000       14.0070           0
     14367 WT6      352      MECN     C1       CG331   -0.170000       12.0110           0
     14368 WT6      352      MECN     H11      HGA3     0.090000        1.0080           0
     14369 WT6      352      MECN     H12      HGA3     0.090000        1.0080           0
     14370 WT6      352      MECN     H13      HGA3     0.090000        1.0080           0
     14371 WT6      352      MECN     C2       CG1N1    0.360000       12.0110           0
     14372 WT6      352      MECN     N3       NG1T1   -0.460000       14.0070           0
     14373 WT6      354      MECN     C1       CG331   -0.170000       12.0110           0
     14374 WT6      354      MECN     H11      HGA3     0.090000        1.0080           0
     14375 WT6      354      MECN     H12      HGA3     0.090000        1.0080           0
     14376 WT6      354      MECN     H13      HGA3     0.090000        1.0080           0
     14377 WT6      354      MECN     C2       CG1N1    0.360000       12.0110           0
     14378 WT6      354      MECN     N3       NG1T1   -0.460000       14.0070           0
     14379 WT6      355      MECN     C1       CG331   -0.170000       12.0110           0
     14380 WT6      355      MECN     H11      HGA3     0.090000        1.0080           0
     14381 WT6      355      MECN     H12      HGA3     0.090000        1.0080           0
     14382 WT6      355      MECN     H13      HGA3     0.090000        1.0080           0
     14383 WT6      355      MECN     C2       CG1N1    0.360000       12.0110           0
     14384 WT6      355      MECN     N3       NG1T1   -0.460000       14.0070           0
     14385 WT6      356      MECN     C1       CG331   -0.170000       12.0110           0
     14386 WT6      356      MECN     H11      HGA3     0.090000        1.0080           0
     14387 WT6      356      MECN     H12      HGA3     0.090000        1.0080           0
     14388 WT6      356      MECN     H13      HGA3     0.090000        1.0080           0
     14389 WT6      356      MECN     C2       CG1N1    0.360000       12.0110           0
     14390 WT6      356      MECN     N3       NG1T1   -0.460000       14.0070           0
     14391 WT6      357      MECN     C1       CG331   -0.170000       12.0110           0
     14392 WT6      357      MECN     H11      HGA3     0.090000        1.0080           0
     14393 WT6      357      MECN     H12      HGA3     0.090000        1.0080           0
     14394 WT6      357      MECN     H13      HGA3     0.090000        1.0080           0
     14395 WT6      357      MECN     C2       CG1N1    0.360000       12.0110           0
     14396 WT6      357      MECN     N3       NG1T1   -0.460000       14.0070           0
     14397 WT6      358      MECN     C1       CG331   -0.170000       12.0110           0
     14398 WT6      358      MECN     H11      HGA3     0.090000        1.0080           0
     14399 WT6      358      MECN     H12      HGA3     0.090000        1.0080           0
     14400 WT6      358      MECN     H13      HGA3     0.090000        1.0080           0
     14401 WT6      358      MECN     C2       CG1N1    0.360000       12.0110           0
     14402 WT6      358      MECN     N3       NG1T1   -0.460000       14.0070           0
     14403 WT6      363      MECN     C1       CG331   -0.170000       12.0110           0
     14404 WT6      363      MECN     H11      HGA3     0.090000        1.0080           0
     14405 WT6      363      MECN     H12      HGA3     0.090000        1.0080           0
     14406 WT6      363      MECN     H13      HGA3     0.090000        1.0080           0
     14407 WT6      363      MECN     C2       CG1N1    0.360000       12.0110           0
     14408 WT6      363      MECN     N3       NG1T1   -0.460000       14.0070           0
     14409 WT6      365      MECN     C1       CG331   -0.170000       12.0110           0
     14410 WT6      365      MECN     H11      HGA3     0.090000        1.0080           0
     14411 WT6      365      MECN     H12      HGA3     0.090000        1.0080           0
     14412 WT6      365      MECN     H13      HGA3     0.090000        1.0080           0
     14413 WT6      365      MECN     C2       CG1N1    0.360000       12.0110           0
     14414 WT6      365      MECN     N3       NG1T1   -0.460000       14.0070           0
     14415 WT6      368      MECN     C1       CG331   -0.170000       12.0110           0
     14416 WT6      368      MECN     H11      HGA3     0.090000        1.0080           0
     14417 WT6      368      MECN     H12      HGA3     0.090000        1.0080           0
     14418 WT6      368      MECN     H13      HGA3     0.090000        1.0080           0
     14419 WT6      368      MECN     C2       CG1N1    0.360000       12.0110           0
     14420 WT6      368      MECN     N3       NG1T1   -0.460000       14.0070           0
     14421 WT6      370      MECN     C1       CG331   -0.170000       12.0110           0
     14422 WT6      370      MECN     H11      HGA3     0.090000        1.0080           0
     14423 WT6      370      MECN     H12      HGA3     0.090000        1.0080           0
     14424 WT6      370      MECN     H13      HGA3     0.090000        1.0080           0
     14425 WT6      370      MECN     C2       CG1N1    0.360000       12.0110           0
     14426 WT6      370      MECN     N3       NG1T1   -0.460000       14.0070           0
     14427 WT6      371      MECN     C1       CG331   -0.170000       12.0110           0
     14428 WT6      371      MECN     H11      HGA3     0.090000        1.0080           0
     14429 WT6      371      MECN     H12      HGA3     0.090000        1.0080           0
     14430 WT6      371      MECN     H13      HGA3     0.090000        1.0080           0
     14431 WT6      371      MECN     C2       CG1N1    0.360000       12.0110           0
     14432 WT6      371      MECN     N3       NG1T1   -0.460000       14.0070           0
     14433 WT6      372      MECN     C1       CG331   -0.170000       12.0110           0
     14434 WT6      372      MECN     H11      HGA3     0.090000        1.0080           0
     14435 WT6      372      MECN     H12      HGA3     0.090000        1.0080           0
     14436 WT6      372      MECN     H13      HGA3     0.090000        1.0080           0
     14437 WT6      372      MECN     C2       CG1N1    0.360000       12.0110           0
     14438 WT6      372      MECN     N3       NG1T1   -0.460000       14.0070           0
     14439 WT6      379      MECN     C1       CG331   -0.170000       12.0110           0
     14440 WT6      379      MECN     H11      HGA3     0.090000        1.0080           0
     14441 WT6      379      MECN     H12      HGA3     0.090000        1.0080           0
     14442 WT6      379      MECN     H13      HGA3     0.090000        1.0080           0
     14443 WT6      379      MECN     C2       CG1N1    0.360000       12.0110           0
     14444 WT6      379      MECN     N3       NG1T1   -0.460000       14.0070           0
     14445 WT6      382      MECN     C1       CG331   -0.170000       12.0110           0
     14446 WT6      382      MECN     H11      HGA3     0.090000        1.0080           0
     14447 WT6      382      MECN     H12      HGA3     0.090000        1.0080           0
     14448 WT6      382      MECN     H13      HGA3     0.090000        1.0080           0
     14449 WT6      382      MECN     C2       CG1N1    0.360000       12.0110           0
     14450 WT6      382      MECN     N3       NG1T1   -0.460000       14.0070           0
     14451 WT6      387      MECN     C1       CG331   -0.170000       12.0110           0
     14452 WT6      387      MECN     H11      HGA3     0.090000        1.0080           0
     14453 WT6      387      MECN     H12      HGA3     0.090000        1.0080           0
     14454 WT6      387      MECN     H13      HGA3     0.090000        1.0080           0
     14455 WT6      387      MECN     C2       CG1N1    0.360000       12.0110           0
     14456 WT6      387      MECN     N3       NG1T1   -0.460000       14.0070           0
     14457 WT6      388      MECN     C1       CG331   -0.170000       12.0110           0
     14458 WT6      388      MECN     H11      HGA3     0.090000        1.0080           0
     14459 WT6      388      MECN     H12      HGA3     0.090000        1.0080           0
     14460 WT6      388      MECN     H13      HGA3     0.090000        1.0080           0
     14461 WT6      388      MECN     C2       CG1N1    0.360000       12.0110           0
     14462 WT6      388      MECN     N3       NG1T1   -0.460000       14.0070           0
     14463 WT6      390      MECN     C1       CG331   -0.170000       12.0110           0
     14464 WT6      390      MECN     H11      HGA3     0.090000        1.0080           0
     14465 WT6      390      MECN     H12      HGA3     0.090000        1.0080           0
     14466 WT6      390      MECN     H13      HGA3     0.090000        1.0080           0
     14467 WT6      390      MECN     C2       CG1N1    0.360000       12.0110           0
     14468 WT6      390      MECN     N3       NG1T1   -0.460000       14.0070           0
     14469 WT6      396      MECN     C1       CG331   -0.170000       12.0110           0
     14470 WT6      396      MECN     H11      HGA3     0.090000        1.0080           0
     14471 WT6      396      MECN     H12      HGA3     0.090000        1.0080           0
     14472 WT6      396      MECN     H13      HGA3     0.090000        1.0080           0
     14473 WT6      396      MECN     C2       CG1N1    0.360000       12.0110           0
     14474 WT6      396      MECN     N3       NG1T1   -0.460000       14.0070           0
     14475 WT6      397      MECN     C1       CG331   -0.170000       12.0110           0
     14476 WT6      397      MECN     H11      HGA3     0.090000        1.0080           0
     14477 WT6      397      MECN     H12      HGA3     0.090000        1.0080           0
     14478 WT6      397      MECN     H13      HGA3     0.090000        1.0080           0
     14479 WT6      397      MECN     C2       CG1N1    0.360000       12.0110           0
     14480 WT6      397      MECN     N3       NG1T1   -0.460000       14.0070           0
     14481 WT6      398      MECN     C1       CG331   -0.170000       12.0110           0
     14482 WT6      398      MECN     H11      HGA3     0.090000        1.0080           0
     14483 WT6      398      MECN     H12      HGA3     0.090000        1.0080           0
     14484 WT6      398      MECN     H13      HGA3     0.090000        1.0080           0
     14485 WT6      398      MECN     C2       CG1N1    0.360000       12.0110           0
     14486 WT6      398      MECN     N3       NG1T1   -0.460000       14.0070           0
     14487 WT6      399      MECN     C1       CG331   -0.170000       12.0110           0
     14488 WT6      399      MECN     H11      HGA3     0.090000        1.0080           0
     14489 WT6      399      MECN     H12      HGA3     0.090000        1.0080           0
     14490 WT6      399      MECN     H13      HGA3     0.090000        1.0080           0
     14491 WT6      399      MECN     C2       CG1N1    0.360000       12.0110           0
     14492 WT6      399      MECN     N3       NG1T1   -0.460000       14.0070           0
     14493 WT6      401      MECN     C1       CG331   -0.170000       12.0110           0
     14494 WT6      401      MECN     H11      HGA3     0.090000        1.0080           0
     14495 WT6      401      MECN     H12      HGA3     0.090000        1.0080           0
     14496 WT6      401      MECN     H13      HGA3     0.090000        1.0080           0
     14497 WT6      401      MECN     C2       CG1N1    0.360000       12.0110           0
     14498 WT6      401      MECN     N3       NG1T1   -0.460000       14.0070           0
     14499 WT6      407      MECN     C1       CG331   -0.170000       12.0110           0
     14500 WT6      407      MECN     H11      HGA3     0.090000        1.0080           0
     14501 WT6      407      MECN     H12      HGA3     0.090000        1.0080           0
     14502 WT6      407      MECN     H13      HGA3     0.090000        1.0080           0
     14503 WT6      407      MECN     C2       CG1N1    0.360000       12.0110           0
     14504 WT6      407      MECN     N3       NG1T1   -0.460000       14.0070           0
     14505 WT6      411      MECN     C1       CG331   -0.170000       12.0110           0
     14506 WT6      411      MECN     H11      HGA3     0.090000        1.0080           0
     14507 WT6      411      MECN     H12      HGA3     0.090000        1.0080           0
     14508 WT6      411      MECN     H13      HGA3     0.090000        1.0080           0
     14509 WT6      411      MECN     C2       CG1N1    0.360000       12.0110           0
     14510 WT6      411      MECN     N3       NG1T1   -0.460000       14.0070           0
     14511 WT6      415      MECN     C1       CG331   -0.170000       12.0110           0
     14512 WT6      415      MECN     H11      HGA3     0.090000        1.0080           0
     14513 WT6      415      MECN     H12      HGA3     0.090000        1.0080           0
     14514 WT6      415      MECN     H13      HGA3     0.090000        1.0080           0
     14515 WT6      415      MECN     C2       CG1N1    0.360000       12.0110           0
     14516 WT6      415      MECN     N3       NG1T1   -0.460000       14.0070           0
     14517 WT6      416      MECN     C1       CG331   -0.170000       12.0110           0
     14518 WT6      416      MECN     H11      HGA3     0.090000        1.0080           0
     14519 WT6      416      MECN     H12      HGA3     0.090000        1.0080           0
     14520 WT6      416      MECN     H13      HGA3     0.090000        1.0080           0
     14521 WT6      416      MECN     C2       CG1N1    0.360000       12.0110           0
     14522 WT6      416      MECN     N3       NG1T1   -0.460000       14.0070           0
     14523 WT6      419      MECN     C1       CG331   -0.170000       12.0110           0
     14524 WT6      419      MECN     H11      HGA3     0.090000        1.0080           0
     14525 WT6      419      MECN     H12      HGA3     0.090000        1.0080           0
     14526 WT6      419      MECN     H13      HGA3     0.090000        1.0080           0
     14527 WT6      419      MECN     C2       CG1N1    0.360000       12.0110           0
     14528 WT6      419      MECN     N3       NG1T1   -0.460000       14.0070           0
     14529 WT6      424      MECN     C1       CG331   -0.170000       12.0110           0
     14530 WT6      424      MECN     H11      HGA3     0.090000        1.0080           0
     14531 WT6      424      MECN     H12      HGA3     0.090000        1.0080           0
     14532 WT6      424      MECN     H13      HGA3     0.090000        1.0080           0
     14533 WT6      424      MECN     C2       CG1N1    0.360000       12.0110           0
     14534 WT6      424      MECN     N3       NG1T1   -0.460000       14.0070           0
     14535 WT6      425      MECN     C1       CG331   -0.170000       12.0110           0
     14536 WT6      425      MECN     H11      HGA3     0.090000        1.0080           0
     14537 WT6      425      MECN     H12      HGA3     0.090000        1.0080           0
     14538 WT6      425      MECN     H13      HGA3     0.090000        1.0080           0
     14539 WT6      425      MECN     C2       CG1N1    0.360000       12.0110           0
     14540 WT6      425      MECN     N3       NG1T1   -0.460000       14.0070           0
     14541 WT6      426      MECN     C1       CG331   -0.170000       12.0110           0
     14542 WT6      426      MECN     H11      HGA3     0.090000        1.0080           0
     14543 WT6      426      MECN     H12      HGA3     0.090000        1.0080           0
     14544 WT6      426      MECN     H13      HGA3     0.090000        1.0080           0
     14545 WT6      426      MECN     C2       CG1N1    0.360000       12.0110           0
     14546 WT6      426      MECN     N3       NG1T1   -0.460000       14.0070           0
     14547 WT6      428      MECN     C1       CG331   -0.170000       12.0110           0
     14548 WT6      428      MECN     H11      HGA3     0.090000        1.0080           0
     14549 WT6      428      MECN     H12      HGA3     0.090000        1.0080           0
     14550 WT6      428      MECN     H13      HGA3     0.090000        1.0080           0
     14551 WT6      428      MECN     C2       CG1N1    0.360000       12.0110           0
     14552 WT6      428      MECN     N3       NG1T1   -0.460000       14.0070           0
     14553 WT6      430      MECN     C1       CG331   -0.170000       12.0110           0
     14554 WT6      430      MECN     H11      HGA3     0.090000        1.0080           0
     14555 WT6      430      MECN     H12      HGA3     0.090000        1.0080           0
     14556 WT6      430      MECN     H13      HGA3     0.090000        1.0080           0
     14557 WT6      430      MECN     C2       CG1N1    0.360000       12.0110           0
     14558 WT6      430      MECN     N3       NG1T1   -0.460000       14.0070           0
     14559 WT6      439      MECN     C1       CG331   -0.170000       12.0110           0
     14560 WT6      439      MECN     H11      HGA3     0.090000        1.0080           0
     14561 WT6      439      MECN     H12      HGA3     0.090000        1.0080           0
     14562 WT6      439      MECN     H13      HGA3     0.090000        1.0080           0
     14563 WT6      439      MECN     C2       CG1N1    0.360000       12.0110           0
     14564 WT6      439      MECN     N3       NG1T1   -0.460000       14.0070           0
     14565 WT6      440      MECN     C1       CG331   -0.170000       12.0110           0
     14566 WT6      440      MECN     H11      HGA3     0.090000        1.0080           0
     14567 WT6      440      MECN     H12      HGA3     0.090000        1.0080           0
     14568 WT6      440      MECN     H13      HGA3     0.090000        1.0080           0
     14569 WT6      440      MECN     C2       CG1N1    0.360000       12.0110           0
     14570 WT6      440      MECN     N3       NG1T1   -0.460000       14.0070           0
     14571 WT6      444      MECN     C1       CG331   -0.170000       12.0110           0
     14572 WT6      444      MECN     H11      HGA3     0.090000        1.0080           0
     14573 WT6      444      MECN     H12      HGA3     0.090000        1.0080           0
     14574 WT6      444      MECN     H13      HGA3     0.090000        1.0080           0
     14575 WT6      444      MECN     C2       CG1N1    0.360000       12.0110           0
     14576 WT6      444      MECN     N3       NG1T1   -0.460000       14.0070           0
     14577 WT6      447      MECN     C1       CG331   -0.170000       12.0110           0
     14578 WT6      447      MECN     H11      HGA3     0.090000        1.0080           0
     14579 WT6      447      MECN     H12      HGA3     0.090000        1.0080           0
     14580 WT6      447      MECN     H13      HGA3     0.090000        1.0080           0
     14581 WT6      447      MECN     C2       CG1N1    0.360000       12.0110           0
     14582 WT6      447      MECN     N3       NG1T1   -0.460000       14.0070           0
     14583 WT6      450      MECN     C1       CG331   -0.170000       12.0110           0
     14584 WT6      450      MECN     H11      HGA3     0.090000        1.0080           0
     14585 WT6      450      MECN     H12      HGA3     0.090000        1.0080           0
     14586 WT6      450      MECN     H13      HGA3     0.090000        1.0080           0
     14587 WT6      450      MECN     C2       CG1N1    0.360000       12.0110           0
     14588 WT6      450      MECN     N3       NG1T1   -0.460000       14.0070           0
     14589 WT6      451      MECN     C1       CG331   -0.170000       12.0110           0
     14590 WT6      451      MECN     H11      HGA3     0.090000        1.0080           0
     14591 WT6      451      MECN     H12      HGA3     0.090000        1.0080           0
     14592 WT6      451      MECN     H13      HGA3     0.090000        1.0080           0
     14593 WT6      451      MECN     C2       CG1N1    0.360000       12.0110           0
     14594 WT6      451      MECN     N3       NG1T1   -0.460000       14.0070           0
     14595 WT6      457      MECN     C1       CG331   -0.170000       12.0110           0
     14596 WT6      457      MECN     H11      HGA3     0.090000        1.0080           0
     14597 WT6      457      MECN     H12      HGA3     0.090000        1.0080           0
     14598 WT6      457      MECN     H13      HGA3     0.090000        1.0080           0
     14599 WT6      457      MECN     C2       CG1N1    0.360000       12.0110           0
     14600 WT6      457      MECN     N3       NG1T1   -0.460000       14.0070           0
     14601 WT6      459      MECN     C1       CG331   -0.170000       12.0110           0
     14602 WT6      459      MECN     H11      HGA3     0.090000        1.0080           0
     14603 WT6      459      MECN     H12      HGA3     0.090000        1.0080           0
     14604 WT6      459      MECN     H13      HGA3     0.090000        1.0080           0
     14605 WT6      459      MECN     C2       CG1N1    0.360000       12.0110           0
     14606 WT6      459      MECN     N3       NG1T1   -0.460000       14.0070           0
     14607 WT6      460      MECN     C1       CG331   -0.170000       12.0110           0
     14608 WT6      460      MECN     H11      HGA3     0.090000        1.0080           0
     14609 WT6      460      MECN     H12      HGA3     0.090000        1.0080           0
     14610 WT6      460      MECN     H13      HGA3     0.090000        1.0080           0
     14611 WT6      460      MECN     C2       CG1N1    0.360000       12.0110           0
     14612 WT6      460      MECN     N3       NG1T1   -0.460000       14.0070           0
     14613 WT6      463      MECN     C1       CG331   -0.170000       12.0110           0
     14614 WT6      463      MECN     H11      HGA3     0.090000        1.0080           0
     14615 WT6      463      MECN     H12      HGA3     0.090000        1.0080           0
     14616 WT6      463      MECN     H13      HGA3     0.090000        1.0080           0
     14617 WT6      463      MECN     C2       CG1N1    0.360000       12.0110           0
     14618 WT6      463      MECN     N3       NG1T1   -0.460000       14.0070           0
     14619 WT6      472      MECN     C1       CG331   -0.170000       12.0110           0
     14620 WT6      472      MECN     H11      HGA3     0.090000        1.0080           0
     14621 WT6      472      MECN     H12      HGA3     0.090000        1.0080           0
     14622 WT6      472      MECN     H13      HGA3     0.090000        1.0080           0
     14623 WT6      472      MECN     C2       CG1N1    0.360000       12.0110           0
     14624 WT6      472      MECN     N3       NG1T1   -0.460000       14.0070           0
     14625 WT6      473      MECN     C1       CG331   -0.170000       12.0110           0
     14626 WT6      473      MECN     H11      HGA3     0.090000        1.0080           0
     14627 WT6      473      MECN     H12      HGA3     0.090000        1.0080           0
     14628 WT6      473      MECN     H13      HGA3     0.090000        1.0080           0
     14629 WT6      473      MECN     C2       CG1N1    0.360000       12.0110           0
     14630 WT6      473      MECN     N3       NG1T1   -0.460000       14.0070           0
     14631 WT6      475      MECN     C1       CG331   -0.170000       12.0110           0
     14632 WT6      475      MECN     H11      HGA3     0.090000        1.0080           0
     14633 WT6      475      MECN     H12      HGA3     0.090000        1.0080           0
     14634 WT6      475      MECN     H13      HGA3     0.090000        1.0080           0
     14635 WT6      475      MECN     C2       CG1N1    0.360000       12.0110           0
     14636 WT6      475      MECN     N3       NG1T1   -0.460000       14.0070           0
     14637 WT6      484      MECN     C1       CG331   -0.170000       12.0110           0
     14638 WT6      484      MECN     H11      HGA3     0.090000        1.0080           0
     14639 WT6      484      MECN     H12      HGA3     0.090000        1.0080           0
     14640 WT6      484      MECN     H13      HGA3     0.090000        1.0080           0
     14641 WT6      484      MECN     C2       CG1N1    0.360000       12.0110           0
     14642 WT6      484      MECN     N3       NG1T1   -0.460000       14.0070           0
     14643 WT6      485      MECN     C1       CG331   -0.170000       12.0110           0
     14644 WT6      485      MECN     H11      HGA3     0.090000        1.0080           0
     14645 WT6      485      MECN     H12      HGA3     0.090000        1.0080           0
     14646 WT6      485      MECN     H13      HGA3     0.090000        1.0080           0
     14647 WT6      485      MECN     C2       CG1N1    0.360000       12.0110           0
     14648 WT6      485      MECN     N3       NG1T1   -0.460000       14.0070           0
     14649 WT6      486      MECN     C1       CG331   -0.170000       12.0110           0
     14650 WT6      486      MECN     H11      HGA3     0.090000        1.0080           0
     14651 WT6      486      MECN     H12      HGA3     0.090000        1.0080           0
     14652 WT6      486      MECN     H13      HGA3     0.090000        1.0080           0
     14653 WT6      486      MECN     C2       CG1N1    0.360000       12.0110           0
     14654 WT6      486      MECN     N3       NG1T1   -0.460000       14.0070           0
     14655 WT6      487      MECN     C1       CG331   -0.170000       12.0110           0
     14656 WT6      487      MECN     H11      HGA3     0.090000        1.0080           0
     14657 WT6      487      MECN     H12      HGA3     0.090000        1.0080           0
     14658 WT6      487      MECN     H13      HGA3     0.090000        1.0080           0
     14659 WT6      487      MECN     C2       CG1N1    0.360000       12.0110           0
     14660 WT6      487      MECN     N3       NG1T1   -0.460000       14.0070           0
     14661 WT6      488      MECN     C1       CG331   -0.170000       12.0110           0
     14662 WT6      488      MECN     H11      HGA3     0.090000        1.0080           0
     14663 WT6      488      MECN     H12      HGA3     0.090000        1.0080           0
     14664 WT6      488      MECN     H13      HGA3     0.090000        1.0080           0
     14665 WT6      488      MECN     C2       CG1N1    0.360000       12.0110           0
     14666 WT6      488      MECN     N3       NG1T1   -0.460000       14.0070           0
     14667 WT6      500      MECN     C1       CG331   -0.170000       12.0110           0
     14668 WT6      500      MECN     H11      HGA3     0.090000        1.0080           0
     14669 WT6      500      MECN     H12      HGA3     0.090000        1.0080           0
     14670 WT6      500      MECN     H13      HGA3     0.090000        1.0080           0
     14671 WT6      500      MECN     C2       CG1N1    0.360000       12.0110           0
     14672 WT6      500      MECN     N3       NG1T1   -0.460000       14.0070           0
     14673 WT6      508      MECN     C1       CG331   -0.170000       12.0110           0
     14674 WT6      508      MECN     H11      HGA3     0.090000        1.0080           0
     14675 WT6      508      MECN     H12      HGA3     0.090000        1.0080           0
     14676 WT6      508      MECN     H13      HGA3     0.090000        1.0080           0
     14677 WT6      508      MECN     C2       CG1N1    0.360000       12.0110           0
     14678 WT6      508      MECN     N3       NG1T1   -0.460000       14.0070           0
     14679 WT6      512      MECN     C1       CG331   -0.170000       12.0110           0
     14680 WT6      512      MECN     H11      HGA3     0.090000        1.0080           0
     14681 WT6      512      MECN     H12      HGA3     0.090000        1.0080           0
     14682 WT6      512      MECN     H13      HGA3     0.090000        1.0080           0
     14683 WT6      512      MECN     C2       CG1N1    0.360000       12.0110           0
     14684 WT6      512      MECN     N3       NG1T1   -0.460000       14.0070           0
     14685 WT6      513      MECN     C1       CG331   -0.170000       12.0110           0
     14686 WT6      513      MECN     H11      HGA3     0.090000        1.0080           0
     14687 WT6      513      MECN     H12      HGA3     0.090000        1.0080           0
     14688 WT6      513      MECN     H13      HGA3     0.090000        1.0080           0
     14689 WT6      513      MECN     C2       CG1N1    0.360000       12.0110           0
     14690 WT6      513      MECN     N3       NG1T1   -0.460000       14.0070           0
     14691 WT6      518      MECN     C1       CG331   -0.170000       12.0110           0
     14692 WT6      518      MECN     H11      HGA3     0.090000        1.0080           0
     14693 WT6      518      MECN     H12      HGA3     0.090000        1.0080           0
     14694 WT6      518      MECN     H13      HGA3     0.090000        1.0080           0
     14695 WT6      518      MECN     C2       CG1N1    0.360000       12.0110           0
     14696 WT6      518      MECN     N3       NG1T1   -0.460000       14.0070           0
     14697 WT6      521      MECN     C1       CG331   -0.170000       12.0110           0
     14698 WT6      521      MECN     H11      HGA3     0.090000        1.0080           0
     14699 WT6      521      MECN     H12      HGA3     0.090000        1.0080           0
     14700 WT6      521      MECN     H13      HGA3     0.090000        1.0080           0
     14701 WT6      521      MECN     C2       CG1N1    0.360000       12.0110           0
     14702 WT6      521      MECN     N3       NG1T1   -0.460000       14.0070           0
     14703 WT6      523      MECN     C1       CG331   -0.170000       12.0110           0
     14704 WT6      523      MECN     H11      HGA3     0.090000        1.0080           0
     14705 WT6      523      MECN     H12      HGA3     0.090000        1.0080           0
     14706 WT6      523      MECN     H13      HGA3     0.090000        1.0080           0
     14707 WT6      523      MECN     C2       CG1N1    0.360000       12.0110           0
     14708 WT6      523      MECN     N3       NG1T1   -0.460000       14.0070           0
     14709 WT6      524      MECN     C1       CG331   -0.170000       12.0110           0
     14710 WT6      524      MECN     H11      HGA3     0.090000        1.0080           0
     14711 WT6      524      MECN     H12      HGA3     0.090000        1.0080           0
     14712 WT6      524      MECN     H13      HGA3     0.090000        1.0080           0
     14713 WT6      524      MECN     C2       CG1N1    0.360000       12.0110           0
     14714 WT6      524      MECN     N3       NG1T1   -0.460000       14.0070           0
     14715 WT6      526      MECN     C1       CG331   -0.170000       12.0110           0
     14716 WT6      526      MECN     H11      HGA3     0.090000        1.0080           0
     14717 WT6      526      MECN     H12      HGA3     0.090000        1.0080           0
     14718 WT6      526      MECN     H13      HGA3     0.090000        1.0080           0
     14719 WT6      526      MECN     C2       CG1N1    0.360000       12.0110           0
     14720 WT6      526      MECN     N3       NG1T1   -0.460000       14.0070           0
     14721 WT6      530      MECN     C1       CG331   -0.170000       12.0110           0
     14722 WT6      530      MECN     H11      HGA3     0.090000        1.0080           0
     14723 WT6      530      MECN     H12      HGA3     0.090000        1.0080           0
     14724 WT6      530      MECN     H13      HGA3     0.090000        1.0080           0
     14725 WT6      530      MECN     C2       CG1N1    0.360000       12.0110           0
     14726 WT6      530      MECN     N3       NG1T1   -0.460000       14.0070           0
     14727 WT6      532      MECN     C1       CG331   -0.170000       12.0110           0
     14728 WT6      532      MECN     H11      HGA3     0.090000        1.0080           0
     14729 WT6      532      MECN     H12      HGA3     0.090000        1.0080           0
     14730 WT6      532      MECN     H13      HGA3     0.090000        1.0080           0
     14731 WT6      532      MECN     C2       CG1N1    0.360000       12.0110           0
     14732 WT6      532      MECN     N3       NG1T1   -0.460000       14.0070           0
     14733 WT6      537      MECN     C1       CG331   -0.170000       12.0110           0
     14734 WT6      537      MECN     H11      HGA3     0.090000        1.0080           0
     14735 WT6      537      MECN     H12      HGA3     0.090000        1.0080           0
     14736 WT6      537      MECN     H13      HGA3     0.090000        1.0080           0
     14737 WT6      537      MECN     C2       CG1N1    0.360000       12.0110           0
     14738 WT6      537      MECN     N3       NG1T1   -0.460000       14.0070           0
     14739 WT6      541      MECN     C1       CG331   -0.170000       12.0110           0
     14740 WT6      541      MECN     H11      HGA3     0.090000        1.0080           0
     14741 WT6      541      MECN     H12      HGA3     0.090000        1.0080           0
     14742 WT6      541      MECN     H13      HGA3     0.090000        1.0080           0
     14743 WT6      541      MECN     C2       CG1N1    0.360000       12.0110           0
     14744 WT6      541      MECN     N3       NG1T1   -0.460000       14.0070           0
     14745 WT6      542      MECN     C1       CG331   -0.170000       12.0110           0
     14746 WT6      542      MECN     H11      HGA3     0.090000        1.0080           0
     14747 WT6      542      MECN     H12      HGA3     0.090000        1.0080           0
     14748 WT6      542      MECN     H13      HGA3     0.090000        1.0080           0
     14749 WT6      542      MECN     C2       CG1N1    0.360000       12.0110           0
     14750 WT6      542      MECN     N3       NG1T1   -0.460000       14.0070           0
     14751 WT6      546      MECN     C1       CG331   -0.170000       12.0110           0
     14752 WT6      546      MECN     H11      HGA3     0.090000        1.0080           0
     14753 WT6      546      MECN     H12      HGA3     0.090000        1.0080           0
     14754 WT6      546      MECN     H13      HGA3     0.090000        1.0080           0
     14755 WT6      546      MECN     C2       CG1N1    0.360000       12.0110           0
     14756 WT6      546      MECN     N3       NG1T1   -0.460000       14.0070           0
     14757 WT6      549      MECN     C1       CG331   -0.170000       12.0110           0
     14758 WT6      549      MECN     H11      HGA3     0.090000        1.0080           0
     14759 WT6      549      MECN     H12      HGA3     0.090000        1.0080           0
     14760 WT6      549      MECN     H13      HGA3     0.090000        1.0080           0
     14761 WT6      549      MECN     C2       CG1N1    0.360000       12.0110           0
     14762 WT6      549      MECN     N3       NG1T1   -0.460000       14.0070           0
     14763 WT6      557      MECN     C1       CG331   -0.170000       12.0110           0
     14764 WT6      557      MECN     H11      HGA3     0.090000        1.0080           0
     14765 WT6      557      MECN     H12      HGA3     0.090000        1.0080           0
     14766 WT6      557      MECN     H13      HGA3     0.090000        1.0080           0
     14767 WT6      557      MECN     C2       CG1N1    0.360000       12.0110           0
     14768 WT6      557      MECN     N3       NG1T1   -0.460000       14.0070           0
     14769 WT6      560      MECN     C1       CG331   -0.170000       12.0110           0
     14770 WT6      560      MECN     H11      HGA3     0.090000        1.0080           0
     14771 WT6      560      MECN     H12      HGA3     0.090000        1.0080           0
     14772 WT6      560      MECN     H13      HGA3     0.090000        1.0080           0
     14773 WT6      560      MECN     C2       CG1N1    0.360000       12.0110           0
     14774 WT6      560      MECN     N3       NG1T1   -0.460000       14.0070           0
     14775 WT6      563      MECN     C1       CG331   -0.170000       12.0110           0
     14776 WT6      563      MECN     H11      HGA3     0.090000        1.0080           0
     14777 WT6      563      MECN     H12      HGA3     0.090000        1.0080           0
     14778 WT6      563      MECN     H13      HGA3     0.090000        1.0080           0
     14779 WT6      563      MECN     C2       CG1N1    0.360000       12.0110           0
     14780 WT6      563      MECN     N3       NG1T1   -0.460000       14.0070           0
     14781 WT6      564      MECN     C1       CG331   -0.170000       12.0110           0
     14782 WT6      564      MECN     H11      HGA3     0.090000        1.0080           0
     14783 WT6      564      MECN     H12      HGA3     0.090000        1.0080           0
     14784 WT6      564      MECN     H13      HGA3     0.090000        1.0080           0
     14785 WT6      564      MECN     C2       CG1N1    0.360000       12.0110           0
     14786 WT6      564      MECN     N3       NG1T1   -0.460000       14.0070           0
     14787 WT6      565      MECN     C1       CG331   -0.170000       12.0110           0
     14788 WT6      565      MECN     H11      HGA3     0.090000        1.0080           0
     14789 WT6      565      MECN     H12      HGA3     0.090000        1.0080           0
     14790 WT6      565      MECN     H13      HGA3     0.090000        1.0080           0
     14791 WT6      565      MECN     C2       CG1N1    0.360000       12.0110           0
     14792 WT6      565      MECN     N3       NG1T1   -0.460000       14.0070           0
     14793 WT6      567      MECN     C1       CG331   -0.170000       12.0110           0
     14794 WT6      567      MECN     H11      HGA3     0.090000        1.0080           0
     14795 WT6      567      MECN     H12      HGA3     0.090000        1.0080           0
     14796 WT6      567      MECN     H13      HGA3     0.090000        1.0080           0
     14797 WT6      567      MECN     C2       CG1N1    0.360000       12.0110           0
     14798 WT6      567      MECN     N3       NG1T1   -0.460000       14.0070           0
     14799 WT6      568      MECN     C1       CG331   -0.170000       12.0110           0
     14800 WT6      568      MECN     H11      HGA3     0.090000        1.0080           0
     14801 WT6      568      MECN     H12      HGA3     0.090000        1.0080           0
     14802 WT6      568      MECN     H13      HGA3     0.090000        1.0080           0
     14803 WT6      568      MECN     C2       CG1N1    0.360000       12.0110           0
     14804 WT6      568      MECN     N3       NG1T1   -0.460000       14.0070           0
     14805 WT6      569      MECN     C1       CG331   -0.170000       12.0110           0
     14806 WT6      569      MECN     H11      HGA3     0.090000        1.0080           0
     14807 WT6      569      MECN     H12      HGA3     0.090000        1.0080           0
     14808 WT6      569      MECN     H13      HGA3     0.090000        1.0080           0
     14809 WT6      569      MECN     C2       CG1N1    0.360000       12.0110           0
     14810 WT6      569      MECN     N3       NG1T1   -0.460000       14.0070           0
     14811 WT6      570      MECN     C1       CG331   -0.170000       12.0110           0
     14812 WT6      570      MECN     H11      HGA3     0.090000        1.0080           0
     14813 WT6      570      MECN     H12      HGA3     0.090000        1.0080           0
     14814 WT6      570      MECN     H13      HGA3     0.090000        1.0080           0
     14815 WT6      570      MECN     C2       CG1N1    0.360000       12.0110           0
     14816 WT6      570      MECN     N3       NG1T1   -0.460000       14.0070           0
     14817 WT6      572      MECN     C1       CG331   -0.170000       12.0110           0
     14818 WT6      572      MECN     H11      HGA3     0.090000        1.0080           0
     14819 WT6      572      MECN     H12      HGA3     0.090000        1.0080           0
     14820 WT6      572      MECN     H13      HGA3     0.090000        1.0080           0
     14821 WT6      572      MECN     C2       CG1N1    0.360000       12.0110           0
     14822 WT6      572      MECN     N3       NG1T1   -0.460000       14.0070           0
     14823 WT6      574      MECN     C1       CG331   -0.170000       12.0110           0
     14824 WT6      574      MECN     H11      HGA3     0.090000        1.0080           0
     14825 WT6      574      MECN     H12      HGA3     0.090000        1.0080           0
     14826 WT6      574      MECN     H13      HGA3     0.090000        1.0080           0
     14827 WT6      574      MECN     C2       CG1N1    0.360000       12.0110           0
     14828 WT6      574      MECN     N3       NG1T1   -0.460000       14.0070           0
     14829 WT6      576      MECN     C1       CG331   -0.170000       12.0110           0
     14830 WT6      576      MECN     H11      HGA3     0.090000        1.0080           0
     14831 WT6      576      MECN     H12      HGA3     0.090000        1.0080           0
     14832 WT6      576      MECN     H13      HGA3     0.090000        1.0080           0
     14833 WT6      576      MECN     C2       CG1N1    0.360000       12.0110           0
     14834 WT6      576      MECN     N3       NG1T1   -0.460000       14.0070           0
     14835 WT6      579      MECN     C1       CG331   -0.170000       12.0110           0
     14836 WT6      579      MECN     H11      HGA3     0.090000        1.0080           0
     14837 WT6      579      MECN     H12      HGA3     0.090000        1.0080           0
     14838 WT6      579      MECN     H13      HGA3     0.090000        1.0080           0
     14839 WT6      579      MECN     C2       CG1N1    0.360000       12.0110           0
     14840 WT6      579      MECN     N3       NG1T1   -0.460000       14.0070           0
     14841 WT6      581      MECN     C1       CG331   -0.170000       12.0110           0
     14842 WT6      581      MECN     H11      HGA3     0.090000        1.0080           0
     14843 WT6      581      MECN     H12      HGA3     0.090000        1.0080           0
     14844 WT6      581      MECN     H13      HGA3     0.090000        1.0080           0
     14845 WT6      581      MECN     C2       CG1N1    0.360000       12.0110           0
     14846 WT6      581      MECN     N3       NG1T1   -0.460000       14.0070           0
     14847 WT6      584      MECN     C1       CG331   -0.170000       12.0110           0
     14848 WT6      584      MECN     H11      HGA3     0.090000        1.0080           0
     14849 WT6      584      MECN     H12      HGA3     0.090000        1.0080           0
     14850 WT6      584      MECN     H13      HGA3     0.090000        1.0080           0
     14851 WT6      584      MECN     C2       CG1N1    0.360000       12.0110           0
     14852 WT6      584      MECN     N3       NG1T1   -0.460000       14.0070           0
     14853 WT6      585      MECN     C1       CG331   -0.170000       12.0110           0
     14854 WT6      585      MECN     H11      HGA3     0.090000        1.0080           0
     14855 WT6      585      MECN     H12      HGA3     0.090000        1.0080           0
     14856 WT6      585      MECN     H13      HGA3     0.090000        1.0080           0
     14857 WT6      585      MECN     C2       CG1N1    0.360000       12.0110           0
     14858 WT6      585      MECN     N3       NG1T1   -0.460000       14.0070           0
     14859 WT6      591      MECN     C1       CG331   -0.170000       12.0110           0
     14860 WT6      591      MECN     H11      HGA3     0.090000        1.0080           0
     14861 WT6      591      MECN     H12      HGA3     0.090000        1.0080           0
     14862 WT6      591      MECN     H13      HGA3     0.090000        1.0080           0
     14863 WT6      591      MECN     C2       CG1N1    0.360000       12.0110           0
     14864 WT6      591      MECN     N3       NG1T1   -0.460000       14.0070           0
     14865 WT6      594      MECN     C1       CG331   -0.170000       12.0110           0
     14866 WT6      594      MECN     H11      HGA3     0.090000        1.0080           0
     14867 WT6      594      MECN     H12      HGA3     0.090000        1.0080           0
     14868 WT6      594      MECN     H13      HGA3     0.090000        1.0080           0
     14869 WT6      594      MECN     C2       CG1N1    0.360000       12.0110           0
     14870 WT6      594      MECN     N3       NG1T1   -0.460000       14.0070           0
     14871 WT6      596      MECN     C1       CG331   -0.170000       12.0110           0
     14872 WT6      596      MECN     H11      HGA3     0.090000        1.0080           0
     14873 WT6      596      MECN     H12      HGA3     0.090000        1.0080           0
     14874 WT6      596      MECN     H13      HGA3     0.090000        1.0080           0
     14875 WT6      596      MECN     C2       CG1N1    0.360000       12.0110           0
     14876 WT6      596      MECN     N3       NG1T1   -0.460000       14.0070           0
     14877 WT6      603      MECN     C1       CG331   -0.170000       12.0110           0
     14878 WT6      603      MECN     H11      HGA3     0.090000        1.0080           0
     14879 WT6      603      MECN     H12      HGA3     0.090000        1.0080           0
     14880 WT6      603      MECN     H13      HGA3     0.090000        1.0080           0
     14881 WT6      603      MECN     C2       CG1N1    0.360000       12.0110           0
     14882 WT6      603      MECN     N3       NG1T1   -0.460000       14.0070           0
     14883 WT6      605      MECN     C1       CG331   -0.170000       12.0110           0
     14884 WT6      605      MECN     H11      HGA3     0.090000        1.0080           0
     14885 WT6      605      MECN     H12      HGA3     0.090000        1.0080           0
     14886 WT6      605      MECN     H13      HGA3     0.090000        1.0080           0
     14887 WT6      605      MECN     C2       CG1N1    0.360000       12.0110           0
     14888 WT6      605      MECN     N3       NG1T1   -0.460000       14.0070           0
     14889 WT6      606      MECN     C1       CG331   -0.170000       12.0110           0
     14890 WT6      606      MECN     H11      HGA3     0.090000        1.0080           0
     14891 WT6      606      MECN     H12      HGA3     0.090000        1.0080           0
     14892 WT6      606      MECN     H13      HGA3     0.090000        1.0080           0
     14893 WT6      606      MECN     C2       CG1N1    0.360000       12.0110           0
     14894 WT6      606      MECN     N3       NG1T1   -0.460000       14.0070           0
     14895 WT6      609      MECN     C1       CG331   -0.170000       12.0110           0
     14896 WT6      609      MECN     H11      HGA3     0.090000        1.0080           0
     14897 WT6      609      MECN     H12      HGA3     0.090000        1.0080           0
     14898 WT6      609      MECN     H13      HGA3     0.090000        1.0080           0
     14899 WT6      609      MECN     C2       CG1N1    0.360000       12.0110           0
     14900 WT6      609      MECN     N3       NG1T1   -0.460000       14.0070           0
     14901 WT6      610      MECN     C1       CG331   -0.170000       12.0110           0
     14902 WT6      610      MECN     H11      HGA3     0.090000        1.0080           0
     14903 WT6      610      MECN     H12      HGA3     0.090000        1.0080           0
     14904 WT6      610      MECN     H13      HGA3     0.090000        1.0080           0
     14905 WT6      610      MECN     C2       CG1N1    0.360000       12.0110           0
     14906 WT6      610      MECN     N3       NG1T1   -0.460000       14.0070           0
     14907 WT6      612      MECN     C1       CG331   -0.170000       12.0110           0
     14908 WT6      612      MECN     H11      HGA3     0.090000        1.0080           0
     14909 WT6      612      MECN     H12      HGA3     0.090000        1.0080           0
     14910 WT6      612      MECN     H13      HGA3     0.090000        1.0080           0
     14911 WT6      612      MECN     C2       CG1N1    0.360000       12.0110           0
     14912 WT6      612      MECN     N3       NG1T1   -0.460000       14.0070           0
     14913 WT6      614      MECN     C1       CG331   -0.170000       12.0110           0
     14914 WT6      614      MECN     H11      HGA3     0.090000        1.0080           0
     14915 WT6      614      MECN     H12      HGA3     0.090000        1.0080           0
     14916 WT6      614      MECN     H13      HGA3     0.090000        1.0080           0
     14917 WT6      614      MECN     C2       CG1N1    0.360000       12.0110           0
     14918 WT6      614      MECN     N3       NG1T1   -0.460000       14.0070           0
     14919 WT6      616      MECN     C1       CG331   -0.170000       12.0110           0
     14920 WT6      616      MECN     H11      HGA3     0.090000        1.0080           0
     14921 WT6      616      MECN     H12      HGA3     0.090000        1.0080           0
     14922 WT6      616      MECN     H13      HGA3     0.090000        1.0080           0
     14923 WT6      616      MECN     C2       CG1N1    0.360000       12.0110           0
     14924 WT6      616      MECN     N3       NG1T1   -0.460000       14.0070           0
     14925 WT6      623      MECN     C1       CG331   -0.170000       12.0110           0
     14926 WT6      623      MECN     H11      HGA3     0.090000        1.0080           0
     14927 WT6      623      MECN     H12      HGA3     0.090000        1.0080           0
     14928 WT6      623      MECN     H13      HGA3     0.090000        1.0080           0
     14929 WT6      623      MECN     C2       CG1N1    0.360000       12.0110           0
     14930 WT6      623      MECN     N3       NG1T1   -0.460000       14.0070           0
     14931 WT6      628      MECN     C1       CG331   -0.170000       12.0110           0
     14932 WT6      628      MECN     H11      HGA3     0.090000        1.0080           0
     14933 WT6      628      MECN     H12      HGA3     0.090000        1.0080           0
     14934 WT6      628      MECN     H13      HGA3     0.090000        1.0080           0
     14935 WT6      628      MECN     C2       CG1N1    0.360000       12.0110           0
     14936 WT6      628      MECN     N3       NG1T1   -0.460000       14.0070           0
     14937 WT6      630      MECN     C1       CG331   -0.170000       12.0110           0
     14938 WT6      630      MECN     H11      HGA3     0.090000        1.0080           0
     14939 WT6      630      MECN     H12      HGA3     0.090000        1.0080           0
     14940 WT6      630      MECN     H13      HGA3     0.090000        1.0080           0
     14941 WT6      630      MECN     C2       CG1N1    0.360000       12.0110           0
     14942 WT6      630      MECN     N3       NG1T1   -0.460000       14.0070           0
     14943 WT6      632      MECN     C1       CG331   -0.170000       12.0110           0
     14944 WT6      632      MECN     H11      HGA3     0.090000        1.0080           0
     14945 WT6      632      MECN     H12      HGA3     0.090000        1.0080           0
     14946 WT6      632      MECN     H13      HGA3     0.090000        1.0080           0
     14947 WT6      632      MECN     C2       CG1N1    0.360000       12.0110           0
     14948 WT6      632      MECN     N3       NG1T1   -0.460000       14.0070           0
     14949 WT6      638      MECN     C1       CG331   -0.170000       12.0110           0
     14950 WT6      638      MECN     H11      HGA3     0.090000        1.0080           0
     14951 WT6      638      MECN     H12      HGA3     0.090000        1.0080           0
     14952 WT6      638      MECN     H13      HGA3     0.090000        1.0080           0
     14953 WT6      638      MECN     C2       CG1N1    0.360000       12.0110           0
     14954 WT6      638      MECN     N3       NG1T1   -0.460000       14.0070           0
     14955 WT6      642      MECN     C1       CG331   -0.170000       12.0110           0
     14956 WT6      642      MECN     H11      HGA3     0.090000        1.0080           0
     14957 WT6      642      MECN     H12      HGA3     0.090000        1.0080           0
     14958 WT6      642      MECN     H13      HGA3     0.090000        1.0080           0
     14959 WT6      642      MECN     C2       CG1N1    0.360000       12.0110           0
     14960 WT6      642      MECN     N3       NG1T1   -0.460000       14.0070           0
     14961 WT6      650      MECN     C1       CG331   -0.170000       12.0110           0
     14962 WT6      650      MECN     H11      HGA3     0.090000        1.0080           0
     14963 WT6      650      MECN     H12      HGA3     0.090000        1.0080           0
     14964 WT6      650      MECN     H13      HGA3     0.090000        1.0080           0
     14965 WT6      650      MECN     C2       CG1N1    0.360000       12.0110           0
     14966 WT6      650      MECN     N3       NG1T1   -0.460000       14.0070           0
     14967 WT6      658      MECN     C1       CG331   -0.170000       12.0110           0
     14968 WT6      658      MECN     H11      HGA3     0.090000        1.0080           0
     14969 WT6      658      MECN     H12      HGA3     0.090000        1.0080           0
     14970 WT6      658      MECN     H13      HGA3     0.090000        1.0080           0
     14971 WT6      658      MECN     C2       CG1N1    0.360000       12.0110           0
     14972 WT6      658      MECN     N3       NG1T1   -0.460000       14.0070           0
     14973 WT6      659      MECN     C1       CG331   -0.170000       12.0110           0
     14974 WT6      659      MECN     H11      HGA3     0.090000        1.0080           0
     14975 WT6      659      MECN     H12      HGA3     0.090000        1.0080           0
     14976 WT6      659      MECN     H13      HGA3     0.090000        1.0080           0
     14977 WT6      659      MECN     C2       CG1N1    0.360000       12.0110           0
     14978 WT6      659      MECN     N3       NG1T1   -0.460000       14.0070           0
     14979 WT6      663      MECN     C1       CG331   -0.170000       12.0110           0
     14980 WT6      663      MECN     H11      HGA3     0.090000        1.0080           0
     14981 WT6      663      MECN     H12      HGA3     0.090000        1.0080           0
     14982 WT6      663      MECN     H13      HGA3     0.090000        1.0080           0
     14983 WT6      663      MECN     C2       CG1N1    0.360000       12.0110           0
     14984 WT6      663      MECN     N3       NG1T1   -0.460000       14.0070           0
     14985 WT6      668      MECN     C1       CG331   -0.170000       12.0110           0
     14986 WT6      668      MECN     H11      HGA3     0.090000        1.0080           0
     14987 WT6      668      MECN     H12      HGA3     0.090000        1.0080           0
     14988 WT6      668      MECN     H13      HGA3     0.090000        1.0080           0
     14989 WT6      668      MECN     C2       CG1N1    0.360000       12.0110           0
     14990 WT6      668      MECN     N3       NG1T1   -0.460000       14.0070           0
     14991 WT6      670      MECN     C1       CG331   -0.170000       12.0110           0
     14992 WT6      670      MECN     H11      HGA3     0.090000        1.0080           0
     14993 WT6      670      MECN     H12      HGA3     0.090000        1.0080           0
     14994 WT6      670      MECN     H13      HGA3     0.090000        1.0080           0
     14995 WT6      670      MECN     C2       CG1N1    0.360000       12.0110           0
     14996 WT6      670      MECN     N3       NG1T1   -0.460000       14.0070           0
     14997 WT6      674      MECN     C1       CG331   -0.170000       12.0110           0
     14998 WT6      674      MECN     H11      HGA3     0.090000        1.0080           0
     14999 WT6      674      MECN     H12      HGA3     0.090000        1.0080           0
     15000 WT6      674      MECN     H13      HGA3     0.090000        1.0080           0
     15001 WT6      674      MECN     C2       CG1N1    0.360000       12.0110           0
     15002 WT6      674      MECN     N3       NG1T1   -0.460000       14.0070           0
     15003 WT6      677      MECN     C1       CG331   -0.170000       12.0110           0
     15004 WT6      677      MECN     H11      HGA3     0.090000        1.0080           0
     15005 WT6      677      MECN     H12      HGA3     0.090000        1.0080           0
     15006 WT6      677      MECN     H13      HGA3     0.090000        1.0080           0
     15007 WT6      677      MECN     C2       CG1N1    0.360000       12.0110           0
     15008 WT6      677      MECN     N3       NG1T1   -0.460000       14.0070           0
     15009 WT6      679      MECN     C1       CG331   -0.170000       12.0110           0
     15010 WT6      679      MECN     H11      HGA3     0.090000        1.0080           0
     15011 WT6      679      MECN     H12      HGA3     0.090000        1.0080           0
     15012 WT6      679      MECN     H13      HGA3     0.090000        1.0080           0
     15013 WT6      679      MECN     C2       CG1N1    0.360000       12.0110           0
     15014 WT6      679      MECN     N3       NG1T1   -0.460000       14.0070           0
     15015 WT6      680      MECN     C1       CG331   -0.170000       12.0110           0
     15016 WT6      680      MECN     H11      HGA3     0.090000        1.0080           0
     15017 WT6      680      MECN     H12      HGA3     0.090000        1.0080           0
     15018 WT6      680      MECN     H13      HGA3     0.090000        1.0080           0
     15019 WT6      680      MECN     C2       CG1N1    0.360000       12.0110           0
     15020 WT6      680      MECN     N3       NG1T1   -0.460000       14.0070           0
     15021 WT6      681      MECN     C1       CG331   -0.170000       12.0110           0
     15022 WT6      681      MECN     H11      HGA3     0.090000        1.0080           0
     15023 WT6      681      MECN     H12      HGA3     0.090000        1.0080           0
     15024 WT6      681      MECN     H13      HGA3     0.090000        1.0080           0
     15025 WT6      681      MECN     C2       CG1N1    0.360000       12.0110           0
     15026 WT6      681      MECN     N3       NG1T1   -0.460000       14.0070           0
     15027 WT6      687      MECN     C1       CG331   -0.170000       12.0110           0
     15028 WT6      687      MECN     H11      HGA3     0.090000        1.0080           0
     15029 WT6      687      MECN     H12      HGA3     0.090000        1.0080           0
     15030 WT6      687      MECN     H13      HGA3     0.090000        1.0080           0
     15031 WT6      687      MECN     C2       CG1N1    0.360000       12.0110           0
     15032 WT6      687      MECN     N3       NG1T1   -0.460000       14.0070           0
     15033 WT6      688      MECN     C1       CG331   -0.170000       12.0110           0
     15034 WT6      688      MECN     H11      HGA3     0.090000        1.0080           0
     15035 WT6      688      MECN     H12      HGA3     0.090000        1.0080           0
     15036 WT6      688      MECN     H13      HGA3     0.090000        1.0080           0
     15037 WT6      688      MECN     C2       CG1N1    0.360000       12.0110           0
     15038 WT6      688      MECN     N3       NG1T1   -0.460000       14.0070           0
     15039 WT6      689      MECN     C1       CG331   -0.170000       12.0110           0
     15040 WT6      689      MECN     H11      HGA3     0.090000        1.0080           0
     15041 WT6      689      MECN     H12      HGA3     0.090000        1.0080           0
     15042 WT6      689      MECN     H13      HGA3     0.090000        1.0080           0
     15043 WT6      689      MECN     C2       CG1N1    0.360000       12.0110           0
     15044 WT6      689      MECN     N3       NG1T1   -0.460000       14.0070           0
     15045 WT6      692      MECN     C1       CG331   -0.170000       12.0110           0
     15046 WT6      692      MECN     H11      HGA3     0.090000        1.0080           0
     15047 WT6      692      MECN     H12      HGA3     0.090000        1.0080           0
     15048 WT6      692      MECN     H13      HGA3     0.090000        1.0080           0
     15049 WT6      692      MECN     C2       CG1N1    0.360000       12.0110           0
     15050 WT6      692      MECN     N3       NG1T1   -0.460000       14.0070           0
     15051 WT6      695      MECN     C1       CG331   -0.170000       12.0110           0
     15052 WT6      695      MECN     H11      HGA3     0.090000        1.0080           0
     15053 WT6      695      MECN     H12      HGA3     0.090000        1.0080           0
     15054 WT6      695      MECN     H13      HGA3     0.090000        1.0080           0
     15055 WT6      695      MECN     C2       CG1N1    0.360000       12.0110           0
     15056 WT6      695      MECN     N3       NG1T1   -0.460000       14.0070           0
     15057 WT6      696      MECN     C1       CG331   -0.170000       12.0110           0
     15058 WT6      696      MECN     H11      HGA3     0.090000        1.0080           0
     15059 WT6      696      MECN     H12      HGA3     0.090000        1.0080           0
     15060 WT6      696      MECN     H13      HGA3     0.090000        1.0080           0
     15061 WT6      696      MECN     C2       CG1N1    0.360000       12.0110           0
     15062 WT6      696      MECN     N3       NG1T1   -0.460000       14.0070           0
     15063 WT6      700      MECN     C1       CG331   -0.170000       12.0110           0
     15064 WT6      700      MECN     H11      HGA3     0.090000        1.0080           0
     15065 WT6      700      MECN     H12      HGA3     0.090000        1.0080           0
     15066 WT6      700      MECN     H13      HGA3     0.090000        1.0080           0
     15067 WT6      700      MECN     C2       CG1N1    0.360000       12.0110           0
     15068 WT6      700      MECN     N3       NG1T1   -0.460000       14.0070           0
     15069 WT6      703      MECN     C1       CG331   -0.170000       12.0110           0
     15070 WT6      703      MECN     H11      HGA3     0.090000        1.0080           0
     15071 WT6      703      MECN     H12      HGA3     0.090000        1.0080           0
     15072 WT6      703      MECN     H13      HGA3     0.090000        1.0080           0
     15073 WT6      703      MECN     C2       CG1N1    0.360000       12.0110           0
     15074 WT6      703      MECN     N3       NG1T1   -0.460000       14.0070           0
     15075 WT6      705      MECN     C1       CG331   -0.170000       12.0110           0
     15076 WT6      705      MECN     H11      HGA3     0.090000        1.0080           0
     15077 WT6      705      MECN     H12      HGA3     0.090000        1.0080           0
     15078 WT6      705      MECN     H13      HGA3     0.090000        1.0080           0
     15079 WT6      705      MECN     C2       CG1N1    0.360000       12.0110           0
     15080 WT6      705      MECN     N3       NG1T1   -0.460000       14.0070           0
     15081 WT6      706      MECN     C1       CG331   -0.170000       12.0110           0
     15082 WT6      706      MECN     H11      HGA3     0.090000        1.0080           0
     15083 WT6      706      MECN     H12      HGA3     0.090000        1.0080           0
     15084 WT6      706      MECN     H13      HGA3     0.090000        1.0080           0
     15085 WT6      706      MECN     C2       CG1N1    0.360000       12.0110           0
     15086 WT6      706      MECN     N3       NG1T1   -0.460000       14.0070           0
     15087 WT6      707      MECN     C1       CG331   -0.170000       12.0110           0
     15088 WT6      707      MECN     H11      HGA3     0.090000        1.0080           0
     15089 WT6      707      MECN     H12      HGA3     0.090000        1.0080           0
     15090 WT6      707      MECN     H13      HGA3     0.090000        1.0080           0
     15091 WT6      707      MECN     C2       CG1N1    0.360000       12.0110           0
     15092 WT6      707      MECN     N3       NG1T1   -0.460000       14.0070           0
     15093 WT6      710      MECN     C1       CG331   -0.170000       12.0110           0
     15094 WT6      710      MECN     H11      HGA3     0.090000        1.0080           0
     15095 WT6      710      MECN     H12      HGA3     0.090000        1.0080           0
     15096 WT6      710      MECN     H13      HGA3     0.090000        1.0080           0
     15097 WT6      710      MECN     C2       CG1N1    0.360000       12.0110           0
     15098 WT6      710      MECN     N3       NG1T1   -0.460000       14.0070           0
     15099 WT6      711      MECN     C1       CG331   -0.170000       12.0110           0
     15100 WT6      711      MECN     H11      HGA3     0.090000        1.0080           0
     15101 WT6      711      MECN     H12      HGA3     0.090000        1.0080           0
     15102 WT6      711      MECN     H13      HGA3     0.090000        1.0080           0
     15103 WT6      711      MECN     C2       CG1N1    0.360000       12.0110           0
     15104 WT6      711      MECN     N3       NG1T1   -0.460000       14.0070           0
     15105 WT6      714      MECN     C1       CG331   -0.170000       12.0110           0
     15106 WT6      714      MECN     H11      HGA3     0.090000        1.0080           0
     15107 WT6      714      MECN     H12      HGA3     0.090000        1.0080           0
     15108 WT6      714      MECN     H13      HGA3     0.090000        1.0080           0
     15109 WT6      714      MECN     C2       CG1N1    0.360000       12.0110           0
     15110 WT6      714      MECN     N3       NG1T1   -0.460000       14.0070           0
     15111 WT6      715      MECN     C1       CG331   -0.170000       12.0110           0
     15112 WT6      715      MECN     H11      HGA3     0.090000        1.0080           0
     15113 WT6      715      MECN     H12      HGA3     0.090000        1.0080           0
     15114 WT6      715      MECN     H13      HGA3     0.090000        1.0080           0
     15115 WT6      715      MECN     C2       CG1N1    0.360000       12.0110           0
     15116 WT6      715      MECN     N3       NG1T1   -0.460000       14.0070           0
     15117 WT6      718      MECN     C1       CG331   -0.170000       12.0110           0
     15118 WT6      718      MECN     H11      HGA3     0.090000        1.0080           0
     15119 WT6      718      MECN     H12      HGA3     0.090000        1.0080           0
     15120 WT6      718      MECN     H13      HGA3     0.090000        1.0080           0
     15121 WT6      718      MECN     C2       CG1N1    0.360000       12.0110           0
     15122 WT6      718      MECN     N3       NG1T1   -0.460000       14.0070           0
     15123 WT6      719      MECN     C1       CG331   -0.170000       12.0110           0
     15124 WT6      719      MECN     H11      HGA3     0.090000        1.0080           0
     15125 WT6      719      MECN     H12      HGA3     0.090000        1.0080           0
     15126 WT6      719      MECN     H13      HGA3     0.090000        1.0080           0
     15127 WT6      719      MECN     C2       CG1N1    0.360000       12.0110           0
     15128 WT6      719      MECN     N3       NG1T1   -0.460000       14.0070           0
     15129 WT6      725      MECN     C1       CG331   -0.170000       12.0110           0
     15130 WT6      725      MECN     H11      HGA3     0.090000        1.0080           0
     15131 WT6      725      MECN     H12      HGA3     0.090000        1.0080           0
     15132 WT6      725      MECN     H13      HGA3     0.090000        1.0080           0
     15133 WT6      725      MECN     C2       CG1N1    0.360000       12.0110           0
     15134 WT6      725      MECN     N3       NG1T1   -0.460000       14.0070           0
     15135 WT6      726      MECN     C1       CG331   -0.170000       12.0110           0
     15136 WT6      726      MECN     H11      HGA3     0.090000        1.0080           0
     15137 WT6      726      MECN     H12      HGA3     0.090000        1.0080           0
     15138 WT6      726      MECN     H13      HGA3     0.090000        1.0080           0
     15139 WT6      726      MECN     C2       CG1N1    0.360000       12.0110           0
     15140 WT6      726      MECN     N3       NG1T1   -0.460000       14.0070           0
     15141 WT6      728      MECN     C1       CG331   -0.170000       12.0110           0
     15142 WT6      728      MECN     H11      HGA3     0.090000        1.0080           0
     15143 WT6      728      MECN     H12      HGA3     0.090000        1.0080           0
     15144 WT6      728      MECN     H13      HGA3     0.090000        1.0080           0
     15145 WT6      728      MECN     C2       CG1N1    0.360000       12.0110           0
     15146 WT6      728      MECN     N3       NG1T1   -0.460000       14.0070           0
     15147 WT6      736      MECN     C1       CG331   -0.170000       12.0110           0
     15148 WT6      736      MECN     H11      HGA3     0.090000        1.0080           0
     15149 WT6      736      MECN     H12      HGA3     0.090000        1.0080           0
     15150 WT6      736      MECN     H13      HGA3     0.090000        1.0080           0
     15151 WT6      736      MECN     C2       CG1N1    0.360000       12.0110           0
     15152 WT6      736      MECN     N3       NG1T1   -0.460000       14.0070           0
     15153 WT6      738      MECN     C1       CG331   -0.170000       12.0110           0
     15154 WT6      738      MECN     H11      HGA3     0.090000        1.0080           0
     15155 WT6      738      MECN     H12      HGA3     0.090000        1.0080           0
     15156 WT6      738      MECN     H13      HGA3     0.090000        1.0080           0
     15157 WT6      738      MECN     C2       CG1N1    0.360000       12.0110           0
     15158 WT6      738      MECN     N3       NG1T1   -0.460000       14.0070           0
     15159 WT6      739      MECN     C1       CG331   -0.170000       12.0110           0
     15160 WT6      739      MECN     H11      HGA3     0.090000        1.0080           0
     15161 WT6      739      MECN     H12      HGA3     0.090000        1.0080           0
     15162 WT6      739      MECN     H13      HGA3     0.090000        1.0080           0
     15163 WT6      739      MECN     C2       CG1N1    0.360000       12.0110           0
     15164 WT6      739      MECN     N3       NG1T1   -0.460000       14.0070           0
     15165 WT6      742      MECN     C1       CG331   -0.170000       12.0110           0
     15166 WT6      742      MECN     H11      HGA3     0.090000        1.0080           0
     15167 WT6      742      MECN     H12      HGA3     0.090000        1.0080           0
     15168 WT6      742      MECN     H13      HGA3     0.090000        1.0080           0
     15169 WT6      742      MECN     C2       CG1N1    0.360000       12.0110           0
     15170 WT6      742      MECN     N3       NG1T1   -0.460000       14.0070           0
     15171 WT6      744      MECN     C1       CG331   -0.170000       12.0110           0
     15172 WT6      744      MECN     H11      HGA3     0.090000        1.0080           0
     15173 WT6      744      MECN     H12      HGA3     0.090000        1.0080           0
     15174 WT6      744      MECN     H13      HGA3     0.090000        1.0080           0
     15175 WT6      744      MECN     C2       CG1N1    0.360000       12.0110           0
     15176 WT6      744      MECN     N3       NG1T1   -0.460000       14.0070           0
     15177 WT6      749      MECN     C1       CG331   -0.170000       12.0110           0
     15178 WT6      749      MECN     H11      HGA3     0.090000        1.0080           0
     15179 WT6      749      MECN     H12      HGA3     0.090000        1.0080           0
     15180 WT6      749      MECN     H13      HGA3     0.090000        1.0080           0
     15181 WT6      749      MECN     C2       CG1N1    0.360000       12.0110           0
     15182 WT6      749      MECN     N3       NG1T1   -0.460000       14.0070           0
     15183 WT6      751      MECN     C1       CG331   -0.170000       12.0110           0
     15184 WT6      751      MECN     H11      HGA3     0.090000        1.0080           0
     15185 WT6      751      MECN     H12      HGA3     0.090000        1.0080           0
     15186 WT6      751      MECN     H13      HGA3     0.090000        1.0080           0
     15187 WT6      751      MECN     C2       CG1N1    0.360000       12.0110           0
     15188 WT6      751      MECN     N3       NG1T1   -0.460000       14.0070           0
     15189 WT6      758      MECN     C1       CG331   -0.170000       12.0110           0
     15190 WT6      758      MECN     H11      HGA3     0.090000        1.0080           0
     15191 WT6      758      MECN     H12      HGA3     0.090000        1.0080           0
     15192 WT6      758      MECN     H13      HGA3     0.090000        1.0080           0
     15193 WT6      758      MECN     C2       CG1N1    0.360000       12.0110           0
     15194 WT6      758      MECN     N3       NG1T1   -0.460000       14.0070           0
     15195 WT6      759      MECN     C1       CG331   -0.170000       12.0110           0
     15196 WT6      759      MECN     H11      HGA3     0.090000        1.0080           0
     15197 WT6      759      MECN     H12      HGA3     0.090000        1.0080           0
     15198 WT6      759      MECN     H13      HGA3     0.090000        1.0080           0
     15199 WT6      759      MECN     C2       CG1N1    0.360000       12.0110           0
     15200 WT6      759      MECN     N3       NG1T1   -0.460000       14.0070           0
     15201 WT6      762      MECN     C1       CG331   -0.170000       12.0110           0
     15202 WT6      762      MECN     H11      HGA3     0.090000        1.0080           0
     15203 WT6      762      MECN     H12      HGA3     0.090000        1.0080           0
     15204 WT6      762      MECN     H13      HGA3     0.090000        1.0080           0
     15205 WT6      762      MECN     C2       CG1N1    0.360000       12.0110           0
     15206 WT6      762      MECN     N3       NG1T1   -0.460000       14.0070           0
     15207 WT6      777      MECN     C1       CG331   -0.170000       12.0110           0
     15208 WT6      777      MECN     H11      HGA3     0.090000        1.0080           0
     15209 WT6      777      MECN     H12      HGA3     0.090000        1.0080           0
     15210 WT6      777      MECN     H13      HGA3     0.090000        1.0080           0
     15211 WT6      777      MECN     C2       CG1N1    0.360000       12.0110           0
     15212 WT6      777      MECN     N3       NG1T1   -0.460000       14.0070           0
     15213 WT6      780      MECN     C1       CG331   -0.170000       12.0110           0
     15214 WT6      780      MECN     H11      HGA3     0.090000        1.0080           0
     15215 WT6      780      MECN     H12      HGA3     0.090000        1.0080           0
     15216 WT6      780      MECN     H13      HGA3     0.090000        1.0080           0
     15217 WT6      780      MECN     C2       CG1N1    0.360000       12.0110           0
     15218 WT6      780      MECN     N3       NG1T1   -0.460000       14.0070           0
     15219 WT6      781      MECN     C1       CG331   -0.170000       12.0110           0
     15220 WT6      781      MECN     H11      HGA3     0.090000        1.0080           0
     15221 WT6      781      MECN     H12      HGA3     0.090000        1.0080           0
     15222 WT6      781      MECN     H13      HGA3     0.090000        1.0080           0
     15223 WT6      781      MECN     C2       CG1N1    0.360000       12.0110           0
     15224 WT6      781      MECN     N3       NG1T1   -0.460000       14.0070           0
     15225 WT6      785      MECN     C1       CG331   -0.170000       12.0110           0
     15226 WT6      785      MECN     H11      HGA3     0.090000        1.0080           0
     15227 WT6      785      MECN     H12      HGA3     0.090000        1.0080           0
     15228 WT6      785      MECN     H13      HGA3     0.090000        1.0080           0
     15229 WT6      785      MECN     C2       CG1N1    0.360000       12.0110           0
     15230 WT6      785      MECN     N3       NG1T1   -0.460000       14.0070           0
     15231 WT6      787      MECN     C1       CG331   -0.170000       12.0110           0
     15232 WT6      787      MECN     H11      HGA3     0.090000        1.0080           0
     15233 WT6      787      MECN     H12      HGA3     0.090000        1.0080           0
     15234 WT6      787      MECN     H13      HGA3     0.090000        1.0080           0
     15235 WT6      787      MECN     C2       CG1N1    0.360000       12.0110           0
     15236 WT6      787      MECN     N3       NG1T1   -0.460000       14.0070           0
     15237 WT6      790      MECN     C1       CG331   -0.170000       12.0110           0
     15238 WT6      790      MECN     H11      HGA3     0.090000        1.0080           0
     15239 WT6      790      MECN     H12      HGA3     0.090000        1.0080           0
     15240 WT6      790      MECN     H13      HGA3     0.090000        1.0080           0
     15241 WT6      790      MECN     C2       CG1N1    0.360000       12.0110           0
     15242 WT6      790      MECN     N3       NG1T1   -0.460000       14.0070           0
     15243 WT6      792      MECN     C1       CG331   -0.170000       12.0110           0
     15244 WT6      792      MECN     H11      HGA3     0.090000        1.0080           0
     15245 WT6      792      MECN     H12      HGA3     0.090000        1.0080           0
     15246 WT6      792      MECN     H13      HGA3     0.090000        1.0080           0
     15247 WT6      792      MECN     C2       CG1N1    0.360000       12.0110           0
     15248 WT6      792      MECN     N3       NG1T1   -0.460000       14.0070           0
     15249 WT6      794      MECN     C1       CG331   -0.170000       12.0110           0
     15250 WT6      794      MECN     H11      HGA3     0.090000        1.0080           0
     15251 WT6      794      MECN     H12      HGA3     0.090000        1.0080           0
     15252 WT6      794      MECN     H13      HGA3     0.090000        1.0080           0
     15253 WT6      794      MECN     C2       CG1N1    0.360000       12.0110           0
     15254 WT6      794      MECN     N3       NG1T1   -0.460000       14.0070           0
     15255 WT6      804      MECN     C1       CG331   -0.170000       12.0110           0
     15256 WT6      804      MECN     H11      HGA3     0.090000        1.0080           0
     15257 WT6      804      MECN     H12      HGA3     0.090000        1.0080           0
     15258 WT6      804      MECN     H13      HGA3     0.090000        1.0080           0
     15259 WT6      804      MECN     C2       CG1N1    0.360000       12.0110           0
     15260 WT6      804      MECN     N3       NG1T1   -0.460000       14.0070           0
     15261 WT6      805      MECN     C1       CG331   -0.170000       12.0110           0
     15262 WT6      805      MECN     H11      HGA3     0.090000        1.0080           0
     15263 WT6      805      MECN     H12      HGA3     0.090000        1.0080           0
     15264 WT6      805      MECN     H13      HGA3     0.090000        1.0080           0
     15265 WT6      805      MECN     C2       CG1N1    0.360000       12.0110           0
     15266 WT6      805      MECN     N3       NG1T1   -0.460000       14.0070           0
     15267 WT6      810      MECN     C1       CG331   -0.170000       12.0110           0
     15268 WT6      810      MECN     H11      HGA3     0.090000        1.0080           0
     15269 WT6      810      MECN     H12      HGA3     0.090000        1.0080           0
     15270 WT6      810      MECN     H13      HGA3     0.090000        1.0080           0
     15271 WT6      810      MECN     C2       CG1N1    0.360000       12.0110           0
     15272 WT6      810      MECN     N3       NG1T1   -0.460000       14.0070           0
     15273 WT6      811      MECN     C1       CG331   -0.170000       12.0110           0
     15274 WT6      811      MECN     H11      HGA3     0.090000        1.0080           0
     15275 WT6      811      MECN     H12      HGA3     0.090000        1.0080           0
     15276 WT6      811      MECN     H13      HGA3     0.090000        1.0080           0
     15277 WT6      811      MECN     C2       CG1N1    0.360000       12.0110           0
     15278 WT6      811      MECN     N3       NG1T1   -0.460000       14.0070           0
     15279 WT6      813      MECN     C1       CG331   -0.170000       12.0110           0
     15280 WT6      813      MECN     H11      HGA3     0.090000        1.0080           0
     15281 WT6      813      MECN     H12      HGA3     0.090000        1.0080           0
     15282 WT6      813      MECN     H13      HGA3     0.090000        1.0080           0
     15283 WT6      813      MECN     C2       CG1N1    0.360000       12.0110           0
     15284 WT6      813      MECN     N3       NG1T1   -0.460000       14.0070           0
     15285 WT6      818      MECN     C1       CG331   -0.170000       12.0110           0
     15286 WT6      818      MECN     H11      HGA3     0.090000        1.0080           0
     15287 WT6      818      MECN     H12      HGA3     0.090000        1.0080           0
     15288 WT6      818      MECN     H13      HGA3     0.090000        1.0080           0
     15289 WT6      818      MECN     C2       CG1N1    0.360000       12.0110           0
     15290 WT6      818      MECN     N3       NG1T1   -0.460000       14.0070           0
     15291 WT6      820      MECN     C1       CG331   -0.170000       12.0110           0
     15292 WT6      820      MECN     H11      HGA3     0.090000        1.0080           0
     15293 WT6      820      MECN     H12      HGA3     0.090000        1.0080           0
     15294 WT6      820      MECN     H13      HGA3     0.090000        1.0080           0
     15295 WT6      820      MECN     C2       CG1N1    0.360000       12.0110           0
     15296 WT6      820      MECN     N3       NG1T1   -0.460000       14.0070           0
     15297 WT6      825      MECN     C1       CG331   -0.170000       12.0110           0
     15298 WT6      825      MECN     H11      HGA3     0.090000        1.0080           0
     15299 WT6      825      MECN     H12      HGA3     0.090000        1.0080           0
     15300 WT6      825      MECN     H13      HGA3     0.090000        1.0080           0
     15301 WT6      825      MECN     C2       CG1N1    0.360000       12.0110           0
     15302 WT6      825      MECN     N3       NG1T1   -0.460000       14.0070           0
     15303 WT6      830      MECN     C1       CG331   -0.170000       12.0110           0
     15304 WT6      830      MECN     H11      HGA3     0.090000        1.0080           0
     15305 WT6      830      MECN     H12      HGA3     0.090000        1.0080           0
     15306 WT6      830      MECN     H13      HGA3     0.090000        1.0080           0
     15307 WT6      830      MECN     C2       CG1N1    0.360000       12.0110           0
     15308 WT6      830      MECN     N3       NG1T1   -0.460000       14.0070           0
     15309 WT6      832      MECN     C1       CG331   -0.170000       12.0110           0
     15310 WT6      832      MECN     H11      HGA3     0.090000        1.0080           0
     15311 WT6      832      MECN     H12      HGA3     0.090000        1.0080           0
     15312 WT6      832      MECN     H13      HGA3     0.090000        1.0080           0
     15313 WT6      832      MECN     C2       CG1N1    0.360000       12.0110           0
     15314 WT6      832      MECN     N3       NG1T1   -0.460000       14.0070           0
     15315 WT6      836      MECN     C1       CG331   -0.170000       12.0110           0
     15316 WT6      836      MECN     H11      HGA3     0.090000        1.0080           0
     15317 WT6      836      MECN     H12      HGA3     0.090000        1.0080           0
     15318 WT6      836      MECN     H13      HGA3     0.090000        1.0080           0
     15319 WT6      836      MECN     C2       CG1N1    0.360000       12.0110           0
     15320 WT6      836      MECN     N3       NG1T1   -0.460000       14.0070           0
     15321 WT6      837      MECN     C1       CG331   -0.170000       12.0110           0
     15322 WT6      837      MECN     H11      HGA3     0.090000        1.0080           0
     15323 WT6      837      MECN     H12      HGA3     0.090000        1.0080           0
     15324 WT6      837      MECN     H13      HGA3     0.090000        1.0080           0
     15325 WT6      837      MECN     C2       CG1N1    0.360000       12.0110           0
     15326 WT6      837      MECN     N3       NG1T1   -0.460000       14.0070           0
     15327 WT6      838      MECN     C1       CG331   -0.170000       12.0110           0
     15328 WT6      838      MECN     H11      HGA3     0.090000        1.0080           0
     15329 WT6      838      MECN     H12      HGA3     0.090000        1.0080           0
     15330 WT6      838      MECN     H13      HGA3     0.090000        1.0080           0
     15331 WT6      838      MECN     C2       CG1N1    0.360000       12.0110           0
     15332 WT6      838      MECN     N3       NG1T1   -0.460000       14.0070           0
     15333 WT6      839      MECN     C1       CG331   -0.170000       12.0110           0
     15334 WT6      839      MECN     H11      HGA3     0.090000        1.0080           0
     15335 WT6      839      MECN     H12      HGA3     0.090000        1.0080           0
     15336 WT6      839      MECN     H13      HGA3     0.090000        1.0080           0
     15337 WT6      839      MECN     C2       CG1N1    0.360000       12.0110           0
     15338 WT6      839      MECN     N3       NG1T1   -0.460000       14.0070           0
     15339 WT6      845      MECN     C1       CG331   -0.170000       12.0110           0
     15340 WT6      845      MECN     H11      HGA3     0.090000        1.0080           0
     15341 WT6      845      MECN     H12      HGA3     0.090000        1.0080           0
     15342 WT6      845      MECN     H13      HGA3     0.090000        1.0080           0
     15343 WT6      845      MECN     C2       CG1N1    0.360000       12.0110           0
     15344 WT6      845      MECN     N3       NG1T1   -0.460000       14.0070           0
     15345 WT6      848      MECN     C1       CG331   -0.170000       12.0110           0
     15346 WT6      848      MECN     H11      HGA3     0.090000        1.0080           0
     15347 WT6      848      MECN     H12      HGA3     0.090000        1.0080           0
     15348 WT6      848      MECN     H13      HGA3     0.090000        1.0080           0
     15349 WT6      848      MECN     C2       CG1N1    0.360000       12.0110           0
     15350 WT6      848      MECN     N3       NG1T1   -0.460000       14.0070           0
     15351 WT6      851      MECN     C1       CG331   -0.170000       12.0110           0
     15352 WT6      851      MECN     H11      HGA3     0.090000        1.0080           0
     15353 WT6      851      MECN     H12      HGA3     0.090000        1.0080           0
     15354 WT6      851      MECN     H13      HGA3     0.090000        1.0080           0
     15355 WT6      851      MECN     C2       CG1N1    0.360000       12.0110           0
     15356 WT6      851      MECN     N3       NG1T1   -0.460000       14.0070           0
     15357 WT6      853      MECN     C1       CG331   -0.170000       12.0110           0
     15358 WT6      853      MECN     H11      HGA3     0.090000        1.0080           0
     15359 WT6      853      MECN     H12      HGA3     0.090000        1.0080           0
     15360 WT6      853      MECN     H13      HGA3     0.090000        1.0080           0
     15361 WT6      853      MECN     C2       CG1N1    0.360000       12.0110           0
     15362 WT6      853      MECN     N3       NG1T1   -0.460000       14.0070           0
     15363 WT6      854      MECN     C1       CG331   -0.170000       12.0110           0
     15364 WT6      854      MECN     H11      HGA3     0.090000        1.0080           0
     15365 WT6      854      MECN     H12      HGA3     0.090000        1.0080           0
     15366 WT6      854      MECN     H13      HGA3     0.090000        1.0080           0
     15367 WT6      854      MECN     C2       CG1N1    0.360000       12.0110           0
     15368 WT6      854      MECN     N3       NG1T1   -0.460000       14.0070           0
     15369 WT6      855      MECN     C1       CG331   -0.170000       12.0110           0
     15370 WT6      855      MECN     H11      HGA3     0.090000        1.0080           0
     15371 WT6      855      MECN     H12      HGA3     0.090000        1.0080           0
     15372 WT6      855      MECN     H13      HGA3     0.090000        1.0080           0
     15373 WT6      855      MECN     C2       CG1N1    0.360000       12.0110           0
     15374 WT6      855      MECN     N3       NG1T1   -0.460000       14.0070           0
     15375 WT6      856      MECN     C1       CG331   -0.170000       12.0110           0
     15376 WT6      856      MECN     H11      HGA3     0.090000        1.0080           0
     15377 WT6      856      MECN     H12      HGA3     0.090000        1.0080           0
     15378 WT6      856      MECN     H13      HGA3     0.090000        1.0080           0
     15379 WT6      856      MECN     C2       CG1N1    0.360000       12.0110           0
     15380 WT6      856      MECN     N3       NG1T1   -0.460000       14.0070           0
     15381 WT6      862      MECN     C1       CG331   -0.170000       12.0110           0
     15382 WT6      862      MECN     H11      HGA3     0.090000        1.0080           0
     15383 WT6      862      MECN     H12      HGA3     0.090000        1.0080           0
     15384 WT6      862      MECN     H13      HGA3     0.090000        1.0080           0
     15385 WT6      862      MECN     C2       CG1N1    0.360000       12.0110           0
     15386 WT6      862      MECN     N3       NG1T1   -0.460000       14.0070           0
     15387 WT6      866      MECN     C1       CG331   -0.170000       12.0110           0
     15388 WT6      866      MECN     H11      HGA3     0.090000        1.0080           0
     15389 WT6      866      MECN     H12      HGA3     0.090000        1.0080           0
     15390 WT6      866      MECN     H13      HGA3     0.090000        1.0080           0
     15391 WT6      866      MECN     C2       CG1N1    0.360000       12.0110           0
     15392 WT6      866      MECN     N3       NG1T1   -0.460000       14.0070           0
     15393 WT6      867      MECN     C1       CG331   -0.170000       12.0110           0
     15394 WT6      867      MECN     H11      HGA3     0.090000        1.0080           0
     15395 WT6      867      MECN     H12      HGA3     0.090000        1.0080           0
     15396 WT6      867      MECN     H13      HGA3     0.090000        1.0080           0
     15397 WT6      867      MECN     C2       CG1N1    0.360000       12.0110           0
     15398 WT6      867      MECN     N3       NG1T1   -0.460000       14.0070           0
     15399 WT6      870      MECN     C1       CG331   -0.170000       12.0110           0
     15400 WT6      870      MECN     H11      HGA3     0.090000        1.0080           0
     15401 WT6      870      MECN     H12      HGA3     0.090000        1.0080           0
     15402 WT6      870      MECN     H13      HGA3     0.090000        1.0080           0
     15403 WT6      870      MECN     C2       CG1N1    0.360000       12.0110           0
     15404 WT6      870      MECN     N3       NG1T1   -0.460000       14.0070           0
     15405 WT6      871      MECN     C1       CG331   -0.170000       12.0110           0
     15406 WT6      871      MECN     H11      HGA3     0.090000        1.0080           0
     15407 WT6      871      MECN     H12      HGA3     0.090000        1.0080           0
     15408 WT6      871      MECN     H13      HGA3     0.090000        1.0080           0
     15409 WT6      871      MECN     C2       CG1N1    0.360000       12.0110           0
     15410 WT6      871      MECN     N3       NG1T1   -0.460000       14.0070           0
     15411 WT6      877      MECN     C1       CG331   -0.170000       12.0110           0
     15412 WT6      877      MECN     H11      HGA3     0.090000        1.0080           0
     15413 WT6      877      MECN     H12      HGA3     0.090000        1.0080           0
     15414 WT6      877      MECN     H13      HGA3     0.090000        1.0080           0
     15415 WT6      877      MECN     C2       CG1N1    0.360000       12.0110           0
     15416 WT6      877      MECN     N3       NG1T1   -0.460000       14.0070           0
     15417 WT6      879      MECN     C1       CG331   -0.170000       12.0110           0
     15418 WT6      879      MECN     H11      HGA3     0.090000        1.0080           0
     15419 WT6      879      MECN     H12      HGA3     0.090000        1.0080           0
     15420 WT6      879      MECN     H13      HGA3     0.090000        1.0080           0
     15421 WT6      879      MECN     C2       CG1N1    0.360000       12.0110           0
     15422 WT6      879      MECN     N3       NG1T1   -0.460000       14.0070           0
     15423 WT6      880      MECN     C1       CG331   -0.170000       12.0110           0
     15424 WT6      880      MECN     H11      HGA3     0.090000        1.0080           0
     15425 WT6      880      MECN     H12      HGA3     0.090000        1.0080           0
     15426 WT6      880      MECN     H13      HGA3     0.090000        1.0080           0
     15427 WT6      880      MECN     C2       CG1N1    0.360000       12.0110           0
     15428 WT6      880      MECN     N3       NG1T1   -0.460000       14.0070           0
     15429 WT6      881      MECN     C1       CG331   -0.170000       12.0110           0
     15430 WT6      881      MECN     H11      HGA3     0.090000        1.0080           0
     15431 WT6      881      MECN     H12      HGA3     0.090000        1.0080           0
     15432 WT6      881      MECN     H13      HGA3     0.090000        1.0080           0
     15433 WT6      881      MECN     C2       CG1N1    0.360000       12.0110           0
     15434 WT6      881      MECN     N3       NG1T1   -0.460000       14.0070           0
     15435 WT6      882      MECN     C1       CG331   -0.170000       12.0110           0
     15436 WT6      882      MECN     H11      HGA3     0.090000        1.0080           0
     15437 WT6      882      MECN     H12      HGA3     0.090000        1.0080           0
     15438 WT6      882      MECN     H13      HGA3     0.090000        1.0080           0
     15439 WT6      882      MECN     C2       CG1N1    0.360000       12.0110           0
     15440 WT6      882      MECN     N3       NG1T1   -0.460000       14.0070           0
     15441 WT6      883      MECN     C1       CG331   -0.170000       12.0110           0
     15442 WT6      883      MECN     H11      HGA3     0.090000        1.0080           0
     15443 WT6      883      MECN     H12      HGA3     0.090000        1.0080           0
     15444 WT6      883      MECN     H13      HGA3     0.090000        1.0080           0
     15445 WT6      883      MECN     C2       CG1N1    0.360000       12.0110           0
     15446 WT6      883      MECN     N3       NG1T1   -0.460000       14.0070           0
     15447 WT6      884      MECN     C1       CG331   -0.170000       12.0110           0
     15448 WT6      884      MECN     H11      HGA3     0.090000        1.0080           0
     15449 WT6      884      MECN     H12      HGA3     0.090000        1.0080           0
     15450 WT6      884      MECN     H13      HGA3     0.090000        1.0080           0
     15451 WT6      884      MECN     C2       CG1N1    0.360000       12.0110           0
     15452 WT6      884      MECN     N3       NG1T1   -0.460000       14.0070           0
     15453 WT6      901      MECN     C1       CG331   -0.170000       12.0110           0
     15454 WT6      901      MECN     H11      HGA3     0.090000        1.0080           0
     15455 WT6      901      MECN     H12      HGA3     0.090000        1.0080           0
     15456 WT6      901      MECN     H13      HGA3     0.090000        1.0080           0
     15457 WT6      901      MECN     C2       CG1N1    0.360000       12.0110           0
     15458 WT6      901      MECN     N3       NG1T1   -0.460000       14.0070           0
     15459 WT6      902      MECN     C1       CG331   -0.170000       12.0110           0
     15460 WT6      902      MECN     H11      HGA3     0.090000        1.0080           0
     15461 WT6      902      MECN     H12      HGA3     0.090000        1.0080           0
     15462 WT6      902      MECN     H13      HGA3     0.090000        1.0080           0
     15463 WT6      902      MECN     C2       CG1N1    0.360000       12.0110           0
     15464 WT6      902      MECN     N3       NG1T1   -0.460000       14.0070           0
     15465 WT6      903      MECN     C1       CG331   -0.170000       12.0110           0
     15466 WT6      903      MECN     H11      HGA3     0.090000        1.0080           0
     15467 WT6      903      MECN     H12      HGA3     0.090000        1.0080           0
     15468 WT6      903      MECN     H13      HGA3     0.090000        1.0080           0
     15469 WT6      903      MECN     C2       CG1N1    0.360000       12.0110           0
     15470 WT6      903      MECN     N3       NG1T1   -0.460000       14.0070           0
     15471 WT6      907      MECN     C1       CG331   -0.170000       12.0110           0
     15472 WT6      907      MECN     H11      HGA3     0.090000        1.0080           0
     15473 WT6      907      MECN     H12      HGA3     0.090000        1.0080           0
     15474 WT6      907      MECN     H13      HGA3     0.090000        1.0080           0
     15475 WT6      907      MECN     C2       CG1N1    0.360000       12.0110           0
     15476 WT6      907      MECN     N3       NG1T1   -0.460000       14.0070           0
     15477 WT6      909      MECN     C1       CG331   -0.170000       12.0110           0
     15478 WT6      909      MECN     H11      HGA3     0.090000        1.0080           0
     15479 WT6      909      MECN     H12      HGA3     0.090000        1.0080           0
     15480 WT6      909      MECN     H13      HGA3     0.090000        1.0080           0
     15481 WT6      909      MECN     C2       CG1N1    0.360000       12.0110           0
     15482 WT6      909      MECN     N3       NG1T1   -0.460000       14.0070           0
     15483 WT6      912      MECN     C1       CG331   -0.170000       12.0110           0
     15484 WT6      912      MECN     H11      HGA3     0.090000        1.0080           0
     15485 WT6      912      MECN     H12      HGA3     0.090000        1.0080           0
     15486 WT6      912      MECN     H13      HGA3     0.090000        1.0080           0
     15487 WT6      912      MECN     C2       CG1N1    0.360000       12.0110           0
     15488 WT6      912      MECN     N3       NG1T1   -0.460000       14.0070           0
     15489 WT6      913      MECN     C1       CG331   -0.170000       12.0110           0
     15490 WT6      913      MECN     H11      HGA3     0.090000        1.0080           0
     15491 WT6      913      MECN     H12      HGA3     0.090000        1.0080           0
     15492 WT6      913      MECN     H13      HGA3     0.090000        1.0080           0
     15493 WT6      913      MECN     C2       CG1N1    0.360000       12.0110           0
     15494 WT6      913      MECN     N3       NG1T1   -0.460000       14.0070           0
     15495 WT6      923      MECN     C1       CG331   -0.170000       12.0110           0
     15496 WT6      923      MECN     H11      HGA3     0.090000        1.0080           0
     15497 WT6      923      MECN     H12      HGA3     0.090000        1.0080           0
     15498 WT6      923      MECN     H13      HGA3     0.090000        1.0080           0
     15499 WT6      923      MECN     C2       CG1N1    0.360000       12.0110           0
     15500 WT6      923      MECN     N3       NG1T1   -0.460000       14.0070           0
     15501 WT6      927      MECN     C1       CG331   -0.170000       12.0110           0
     15502 WT6      927      MECN     H11      HGA3     0.090000        1.0080           0
     15503 WT6      927      MECN     H12      HGA3     0.090000        1.0080           0
     15504 WT6      927      MECN     H13      HGA3     0.090000        1.0080           0
     15505 WT6      927      MECN     C2       CG1N1    0.360000       12.0110           0
     15506 WT6      927      MECN     N3       NG1T1   -0.460000       14.0070           0
     15507 WT6      930      MECN     C1       CG331   -0.170000       12.0110           0
     15508 WT6      930      MECN     H11      HGA3     0.090000        1.0080           0
     15509 WT6      930      MECN     H12      HGA3     0.090000        1.0080           0
     15510 WT6      930      MECN     H13      HGA3     0.090000        1.0080           0
     15511 WT6      930      MECN     C2       CG1N1    0.360000       12.0110           0
     15512 WT6      930      MECN     N3       NG1T1   -0.460000       14.0070           0
     15513 WT6      932      MECN     C1       CG331   -0.170000       12.0110           0
     15514 WT6      932      MECN     H11      HGA3     0.090000        1.0080           0
     15515 WT6      932      MECN     H12      HGA3     0.090000        1.0080           0
     15516 WT6      932      MECN     H13      HGA3     0.090000        1.0080           0
     15517 WT6      932      MECN     C2       CG1N1    0.360000       12.0110           0
     15518 WT6      932      MECN     N3       NG1T1   -0.460000       14.0070           0
     15519 WT6      934      MECN     C1       CG331   -0.170000       12.0110           0
     15520 WT6      934      MECN     H11      HGA3     0.090000        1.0080           0
     15521 WT6      934      MECN     H12      HGA3     0.090000        1.0080           0
     15522 WT6      934      MECN     H13      HGA3     0.090000        1.0080           0
     15523 WT6      934      MECN     C2       CG1N1    0.360000       12.0110           0
     15524 WT6      934      MECN     N3       NG1T1   -0.460000       14.0070           0
     15525 WT6      937      MECN     C1       CG331   -0.170000       12.0110           0
     15526 WT6      937      MECN     H11      HGA3     0.090000        1.0080           0
     15527 WT6      937      MECN     H12      HGA3     0.090000        1.0080           0
     15528 WT6      937      MECN     H13      HGA3     0.090000        1.0080           0
     15529 WT6      937      MECN     C2       CG1N1    0.360000       12.0110           0
     15530 WT6      937      MECN     N3       NG1T1   -0.460000       14.0070           0
     15531 WT6      938      MECN     C1       CG331   -0.170000       12.0110           0
     15532 WT6      938      MECN     H11      HGA3     0.090000        1.0080           0
     15533 WT6      938      MECN     H12      HGA3     0.090000        1.0080           0
     15534 WT6      938      MECN     H13      HGA3     0.090000        1.0080           0
     15535 WT6      938      MECN     C2       CG1N1    0.360000       12.0110           0
     15536 WT6      938      MECN     N3       NG1T1   -0.460000       14.0070           0
     15537 WT6      942      MECN     C1       CG331   -0.170000       12.0110           0
     15538 WT6      942      MECN     H11      HGA3     0.090000        1.0080           0
     15539 WT6      942      MECN     H12      HGA3     0.090000        1.0080           0
     15540 WT6      942      MECN     H13      HGA3     0.090000        1.0080           0
     15541 WT6      942      MECN     C2       CG1N1    0.360000       12.0110           0
     15542 WT6      942      MECN     N3       NG1T1   -0.460000       14.0070           0
     15543 WT6      943      MECN     C1       CG331   -0.170000       12.0110           0
     15544 WT6      943      MECN     H11      HGA3     0.090000        1.0080           0
     15545 WT6      943      MECN     H12      HGA3     0.090000        1.0080           0
     15546 WT6      943      MECN     H13      HGA3     0.090000        1.0080           0
     15547 WT6      943      MECN     C2       CG1N1    0.360000       12.0110           0
     15548 WT6      943      MECN     N3       NG1T1   -0.460000       14.0070           0
     15549 WT6      945      MECN     C1       CG331   -0.170000       12.0110           0
     15550 WT6      945      MECN     H11      HGA3     0.090000        1.0080           0
     15551 WT6      945      MECN     H12      HGA3     0.090000        1.0080           0
     15552 WT6      945      MECN     H13      HGA3     0.090000        1.0080           0
     15553 WT6      945      MECN     C2       CG1N1    0.360000       12.0110           0
     15554 WT6      945      MECN     N3       NG1T1   -0.460000       14.0070           0
     15555 WT6      947      MECN     C1       CG331   -0.170000       12.0110           0
     15556 WT6      947      MECN     H11      HGA3     0.090000        1.0080           0
     15557 WT6      947      MECN     H12      HGA3     0.090000        1.0080           0
     15558 WT6      947      MECN     H13      HGA3     0.090000        1.0080           0
     15559 WT6      947      MECN     C2       CG1N1    0.360000       12.0110           0
     15560 WT6      947      MECN     N3       NG1T1   -0.460000       14.0070           0
     15561 WT6      948      MECN     C1       CG331   -0.170000       12.0110           0
     15562 WT6      948      MECN     H11      HGA3     0.090000        1.0080           0
     15563 WT6      948      MECN     H12      HGA3     0.090000        1.0080           0
     15564 WT6      948      MECN     H13      HGA3     0.090000        1.0080           0
     15565 WT6      948      MECN     C2       CG1N1    0.360000       12.0110           0
     15566 WT6      948      MECN     N3       NG1T1   -0.460000       14.0070           0
     15567 WT6      949      MECN     C1       CG331   -0.170000       12.0110           0
     15568 WT6      949      MECN     H11      HGA3     0.090000        1.0080           0
     15569 WT6      949      MECN     H12      HGA3     0.090000        1.0080           0
     15570 WT6      949      MECN     H13      HGA3     0.090000        1.0080           0
     15571 WT6      949      MECN     C2       CG1N1    0.360000       12.0110           0
     15572 WT6      949      MECN     N3       NG1T1   -0.460000       14.0070           0
     15573 WT6      950      MECN     C1       CG331   -0.170000       12.0110           0
     15574 WT6      950      MECN     H11      HGA3     0.090000        1.0080           0
     15575 WT6      950      MECN     H12      HGA3     0.090000        1.0080           0
     15576 WT6      950      MECN     H13      HGA3     0.090000        1.0080           0
     15577 WT6      950      MECN     C2       CG1N1    0.360000       12.0110           0
     15578 WT6      950      MECN     N3       NG1T1   -0.460000       14.0070           0
     15579 WT6      953      MECN     C1       CG331   -0.170000       12.0110           0
     15580 WT6      953      MECN     H11      HGA3     0.090000        1.0080           0
     15581 WT6      953      MECN     H12      HGA3     0.090000        1.0080           0
     15582 WT6      953      MECN     H13      HGA3     0.090000        1.0080           0
     15583 WT6      953      MECN     C2       CG1N1    0.360000       12.0110           0
     15584 WT6      953      MECN     N3       NG1T1   -0.460000       14.0070           0
     15585 WT6      957      MECN     C1       CG331   -0.170000       12.0110           0
     15586 WT6      957      MECN     H11      HGA3     0.090000        1.0080           0
     15587 WT6      957      MECN     H12      HGA3     0.090000        1.0080           0
     15588 WT6      957      MECN     H13      HGA3     0.090000        1.0080           0
     15589 WT6      957      MECN     C2       CG1N1    0.360000       12.0110           0
     15590 WT6      957      MECN     N3       NG1T1   -0.460000       14.0070           0
     15591 WT6      958      MECN     C1       CG331   -0.170000       12.0110           0
     15592 WT6      958      MECN     H11      HGA3     0.090000        1.0080           0
     15593 WT6      958      MECN     H12      HGA3     0.090000        1.0080           0
     15594 WT6      958      MECN     H13      HGA3     0.090000        1.0080           0
     15595 WT6      958      MECN     C2       CG1N1    0.360000       12.0110           0
     15596 WT6      958      MECN     N3       NG1T1   -0.460000       14.0070           0
     15597 WT6      959      MECN     C1       CG331   -0.170000       12.0110           0
     15598 WT6      959      MECN     H11      HGA3     0.090000        1.0080           0
     15599 WT6      959      MECN     H12      HGA3     0.090000        1.0080           0
     15600 WT6      959      MECN     H13      HGA3     0.090000        1.0080           0
     15601 WT6      959      MECN     C2       CG1N1    0.360000       12.0110           0
     15602 WT6      959      MECN     N3       NG1T1   -0.460000       14.0070           0
     15603 WT6      960      MECN     C1       CG331   -0.170000       12.0110           0
     15604 WT6      960      MECN     H11      HGA3     0.090000        1.0080           0
     15605 WT6      960      MECN     H12      HGA3     0.090000        1.0080           0
     15606 WT6      960      MECN     H13      HGA3     0.090000        1.0080           0
     15607 WT6      960      MECN     C2       CG1N1    0.360000       12.0110           0
     15608 WT6      960      MECN     N3       NG1T1   -0.460000       14.0070           0
     15609 WT6      963      MECN     C1       CG331   -0.170000       12.0110           0
     15610 WT6      963      MECN     H11      HGA3     0.090000        1.0080           0
     15611 WT6      963      MECN     H12      HGA3     0.090000        1.0080           0
     15612 WT6      963      MECN     H13      HGA3     0.090000        1.0080           0
     15613 WT6      963      MECN     C2       CG1N1    0.360000       12.0110           0
     15614 WT6      963      MECN     N3       NG1T1   -0.460000       14.0070           0
     15615 WT6      964      MECN     C1       CG331   -0.170000       12.0110           0
     15616 WT6      964      MECN     H11      HGA3     0.090000        1.0080           0
     15617 WT6      964      MECN     H12      HGA3     0.090000        1.0080           0
     15618 WT6      964      MECN     H13      HGA3     0.090000        1.0080           0
     15619 WT6      964      MECN     C2       CG1N1    0.360000       12.0110           0
     15620 WT6      964      MECN     N3       NG1T1   -0.460000       14.0070           0
     15621 WT6      967      MECN     C1       CG331   -0.170000       12.0110           0
     15622 WT6      967      MECN     H11      HGA3     0.090000        1.0080           0
     15623 WT6      967      MECN     H12      HGA3     0.090000        1.0080           0
     15624 WT6      967      MECN     H13      HGA3     0.090000        1.0080           0
     15625 WT6      967      MECN     C2       CG1N1    0.360000       12.0110           0
     15626 WT6      967      MECN     N3       NG1T1   -0.460000       14.0070           0
     15627 WT6      969      MECN     C1       CG331   -0.170000       12.0110           0
     15628 WT6      969      MECN     H11      HGA3     0.090000        1.0080           0
     15629 WT6      969      MECN     H12      HGA3     0.090000        1.0080           0
     15630 WT6      969      MECN     H13      HGA3     0.090000        1.0080           0
     15631 WT6      969      MECN     C2       CG1N1    0.360000       12.0110           0
     15632 WT6      969      MECN     N3       NG1T1   -0.460000       14.0070           0
     15633 WT6      970      MECN     C1       CG331   -0.170000       12.0110           0
     15634 WT6      970      MECN     H11      HGA3     0.090000        1.0080           0
     15635 WT6      970      MECN     H12      HGA3     0.090000        1.0080           0
     15636 WT6      970      MECN     H13      HGA3     0.090000        1.0080           0
     15637 WT6      970      MECN     C2       CG1N1    0.360000       12.0110           0
     15638 WT6      970      MECN     N3       NG1T1   -0.460000       14.0070           0
     15639 WT6      971      MECN     C1       CG331   -0.170000       12.0110           0
     15640 WT6      971      MECN     H11      HGA3     0.090000        1.0080           0
     15641 WT6      971      MECN     H12      HGA3     0.090000        1.0080           0
     15642 WT6      971      MECN     H13      HGA3     0.090000        1.0080           0
     15643 WT6      971      MECN     C2       CG1N1    0.360000       12.0110           0
     15644 WT6      971      MECN     N3       NG1T1   -0.460000       14.0070           0
     15645 WT6      974      MECN     C1       CG331   -0.170000       12.0110           0
     15646 WT6      974      MECN     H11      HGA3     0.090000        1.0080           0
     15647 WT6      974      MECN     H12      HGA3     0.090000        1.0080           0
     15648 WT6      974      MECN     H13      HGA3     0.090000        1.0080           0
     15649 WT6      974      MECN     C2       CG1N1    0.360000       12.0110           0
     15650 WT6      974      MECN     N3       NG1T1   -0.460000       14.0070           0
     15651 WT6      975      MECN     C1       CG331   -0.170000       12.0110           0
     15652 WT6      975      MECN     H11      HGA3     0.090000        1.0080           0
     15653 WT6      975      MECN     H12      HGA3     0.090000        1.0080           0
     15654 WT6      975      MECN     H13      HGA3     0.090000        1.0080           0
     15655 WT6      975      MECN     C2       CG1N1    0.360000       12.0110           0
     15656 WT6      975      MECN     N3       NG1T1   -0.460000       14.0070           0
     15657 WT6      988      MECN     C1       CG331   -0.170000       12.0110           0
     15658 WT6      988      MECN     H11      HGA3     0.090000        1.0080           0
     15659 WT6      988      MECN     H12      HGA3     0.090000        1.0080           0
     15660 WT6      988      MECN     H13      HGA3     0.090000        1.0080           0
     15661 WT6      988      MECN     C2       CG1N1    0.360000       12.0110           0
     15662 WT6      988      MECN     N3       NG1T1   -0.460000       14.0070           0
     15663 WT6      995      MECN     C1       CG331   -0.170000       12.0110           0
     15664 WT6      995      MECN     H11      HGA3     0.090000        1.0080           0
     15665 WT6      995      MECN     H12      HGA3     0.090000        1.0080           0
     15666 WT6      995      MECN     H13      HGA3     0.090000        1.0080           0
     15667 WT6      995      MECN     C2       CG1N1    0.360000       12.0110           0
     15668 WT6      995      MECN     N3       NG1T1   -0.460000       14.0070           0
     15669 WT6      997      MECN     C1       CG331   -0.170000       12.0110           0
     15670 WT6      997      MECN     H11      HGA3     0.090000        1.0080           0
     15671 WT6      997      MECN     H12      HGA3     0.090000        1.0080           0
     15672 WT6      997      MECN     H13      HGA3     0.090000        1.0080           0
     15673 WT6      997      MECN     C2       CG1N1    0.360000       12.0110           0
     15674 WT6      997      MECN     N3       NG1T1   -0.460000       14.0070           0
     15675 WT6      999      MECN     C1       CG331   -0.170000       12.0110           0
     15676 WT6      999      MECN     H11      HGA3     0.090000        1.0080           0
     15677 WT6      999      MECN     H12      HGA3     0.090000        1.0080           0
     15678 WT6      999      MECN     H13      HGA3     0.090000        1.0080           0
     15679 WT6      999      MECN     C2       CG1N1    0.360000       12.0110           0
     15680 WT6      999      MECN     N3       NG1T1   -0.460000       14.0070           0
     15681 WT6      1001     MECN     C1       CG331   -0.170000       12.0110           0
     15682 WT6      1001     MECN     H11      HGA3     0.090000        1.0080           0
     15683 WT6      1001     MECN     H12      HGA3     0.090000        1.0080           0
     15684 WT6      1001     MECN     H13      HGA3     0.090000        1.0080           0
     15685 WT6      1001     MECN     C2       CG1N1    0.360000       12.0110           0
     15686 WT6      1001     MECN     N3       NG1T1   -0.460000       14.0070           0
     15687 WT6      1002     MECN     C1       CG331   -0.170000       12.0110           0
     15688 WT6      1002     MECN     H11      HGA3     0.090000        1.0080           0
     15689 WT6      1002     MECN     H12      HGA3     0.090000        1.0080           0
     15690 WT6      1002     MECN     H13      HGA3     0.090000        1.0080           0
     15691 WT6      1002     MECN     C2       CG1N1    0.360000       12.0110           0
     15692 WT6      1002     MECN     N3       NG1T1   -0.460000       14.0070           0
     15693 WT6      1004     MECN     C1       CG331   -0.170000       12.0110           0
     15694 WT6      1004     MECN     H11      HGA3     0.090000        1.0080           0
     15695 WT6      1004     MECN     H12      HGA3     0.090000        1.0080           0
     15696 WT6      1004     MECN     H13      HGA3     0.090000        1.0080           0
     15697 WT6      1004     MECN     C2       CG1N1    0.360000       12.0110           0
     15698 WT6      1004     MECN     N3       NG1T1   -0.460000       14.0070           0
     15699 WT6      1005     MECN     C1       CG331   -0.170000       12.0110           0
     15700 WT6      1005     MECN     H11      HGA3     0.090000        1.0080           0
     15701 WT6      1005     MECN     H12      HGA3     0.090000        1.0080           0
     15702 WT6      1005     MECN     H13      HGA3     0.090000        1.0080           0
     15703 WT6      1005     MECN     C2       CG1N1    0.360000       12.0110           0
     15704 WT6      1005     MECN     N3       NG1T1   -0.460000       14.0070           0
     15705 WT6      1006     MECN     C1       CG331   -0.170000       12.0110           0
     15706 WT6      1006     MECN     H11      HGA3     0.090000        1.0080           0
     15707 WT6      1006     MECN     H12      HGA3     0.090000        1.0080           0
     15708 WT6      1006     MECN     H13      HGA3     0.090000        1.0080           0
     15709 WT6      1006     MECN     C2       CG1N1    0.360000       12.0110           0
     15710 WT6      1006     MECN     N3       NG1T1   -0.460000       14.0070           0
     15711 WT6      1016     MECN     C1       CG331   -0.170000       12.0110           0
     15712 WT6      1016     MECN     H11      HGA3     0.090000        1.0080           0
     15713 WT6      1016     MECN     H12      HGA3     0.090000        1.0080           0
     15714 WT6      1016     MECN     H13      HGA3     0.090000        1.0080           0
     15715 WT6      1016     MECN     C2       CG1N1    0.360000       12.0110           0
     15716 WT6      1016     MECN     N3       NG1T1   -0.460000       14.0070           0
     15717 WT6      1024     MECN     C1       CG331   -0.170000       12.0110           0
     15718 WT6      1024     MECN     H11      HGA3     0.090000        1.0080           0
     15719 WT6      1024     MECN     H12      HGA3     0.090000        1.0080           0
     15720 WT6      1024     MECN     H13      HGA3     0.090000        1.0080           0
     15721 WT6      1024     MECN     C2       CG1N1    0.360000       12.0110           0
     15722 WT6      1024     MECN     N3       NG1T1   -0.460000       14.0070           0
     15723 WT6      1025     MECN     C1       CG331   -0.170000       12.0110           0
     15724 WT6      1025     MECN     H11      HGA3     0.090000        1.0080           0
     15725 WT6      1025     MECN     H12      HGA3     0.090000        1.0080           0
     15726 WT6      1025     MECN     H13      HGA3     0.090000        1.0080           0
     15727 WT6      1025     MECN     C2       CG1N1    0.360000       12.0110           0
     15728 WT6      1025     MECN     N3       NG1T1   -0.460000       14.0070           0
     15729 WT6      1026     MECN     C1       CG331   -0.170000       12.0110           0
     15730 WT6      1026     MECN     H11      HGA3     0.090000        1.0080           0
     15731 WT6      1026     MECN     H12      HGA3     0.090000        1.0080           0
     15732 WT6      1026     MECN     H13      HGA3     0.090000        1.0080           0
     15733 WT6      1026     MECN     C2       CG1N1    0.360000       12.0110           0
     15734 WT6      1026     MECN     N3       NG1T1   -0.460000       14.0070           0
     15735 WT6      1027     MECN     C1       CG331   -0.170000       12.0110           0
     15736 WT6      1027     MECN     H11      HGA3     0.090000        1.0080           0
     15737 WT6      1027     MECN     H12      HGA3     0.090000        1.0080           0
     15738 WT6      1027     MECN     H13      HGA3     0.090000        1.0080           0
     15739 WT6      1027     MECN     C2       CG1N1    0.360000       12.0110           0
     15740 WT6      1027     MECN     N3       NG1T1   -0.460000       14.0070           0
     15741 WT6      1036     MECN     C1       CG331   -0.170000       12.0110           0
     15742 WT6      1036     MECN     H11      HGA3     0.090000        1.0080           0
     15743 WT6      1036     MECN     H12      HGA3     0.090000        1.0080           0
     15744 WT6      1036     MECN     H13      HGA3     0.090000        1.0080           0
     15745 WT6      1036     MECN     C2       CG1N1    0.360000       12.0110           0
     15746 WT6      1036     MECN     N3       NG1T1   -0.460000       14.0070           0
     15747 WT6      1037     MECN     C1       CG331   -0.170000       12.0110           0
     15748 WT6      1037     MECN     H11      HGA3     0.090000        1.0080           0
     15749 WT6      1037     MECN     H12      HGA3     0.090000        1.0080           0
     15750 WT6      1037     MECN     H13      HGA3     0.090000        1.0080           0
     15751 WT6      1037     MECN     C2       CG1N1    0.360000       12.0110           0
     15752 WT6      1037     MECN     N3       NG1T1   -0.460000       14.0070           0
     15753 WT6      1038     MECN     C1       CG331   -0.170000       12.0110           0
     15754 WT6      1038     MECN     H11      HGA3     0.090000        1.0080           0
     15755 WT6      1038     MECN     H12      HGA3     0.090000        1.0080           0
     15756 WT6      1038     MECN     H13      HGA3     0.090000        1.0080           0
     15757 WT6      1038     MECN     C2       CG1N1    0.360000       12.0110           0
     15758 WT6      1038     MECN     N3       NG1T1   -0.460000       14.0070           0
     15759 WT6      1045     MECN     C1       CG331   -0.170000       12.0110           0
     15760 WT6      1045     MECN     H11      HGA3     0.090000        1.0080           0
     15761 WT6      1045     MECN     H12      HGA3     0.090000        1.0080           0
     15762 WT6      1045     MECN     H13      HGA3     0.090000        1.0080           0
     15763 WT6      1045     MECN     C2       CG1N1    0.360000       12.0110           0
     15764 WT6      1045     MECN     N3       NG1T1   -0.460000       14.0070           0
     15765 WT6      1046     MECN     C1       CG331   -0.170000       12.0110           0
     15766 WT6      1046     MECN     H11      HGA3     0.090000        1.0080           0
     15767 WT6      1046     MECN     H12      HGA3     0.090000        1.0080           0
     15768 WT6      1046     MECN     H13      HGA3     0.090000        1.0080           0
     15769 WT6      1046     MECN     C2       CG1N1    0.360000       12.0110           0
     15770 WT6      1046     MECN     N3       NG1T1   -0.460000       14.0070           0
     15771 WT6      1047     MECN     C1       CG331   -0.170000       12.0110           0
     15772 WT6      1047     MECN     H11      HGA3     0.090000        1.0080           0
     15773 WT6      1047     MECN     H12      HGA3     0.090000        1.0080           0
     15774 WT6      1047     MECN     H13      HGA3     0.090000        1.0080           0
     15775 WT6      1047     MECN     C2       CG1N1    0.360000       12.0110           0
     15776 WT6      1047     MECN     N3       NG1T1   -0.460000       14.0070           0
     15777 WT6      1054     MECN     C1       CG331   -0.170000       12.0110           0
     15778 WT6      1054     MECN     H11      HGA3     0.090000        1.0080           0
     15779 WT6      1054     MECN     H12      HGA3     0.090000        1.0080           0
     15780 WT6      1054     MECN     H13      HGA3     0.090000        1.0080           0
     15781 WT6      1054     MECN     C2       CG1N1    0.360000       12.0110           0
     15782 WT6      1054     MECN     N3       NG1T1   -0.460000       14.0070           0
     15783 WT6      1056     MECN     C1       CG331   -0.170000       12.0110           0
     15784 WT6      1056     MECN     H11      HGA3     0.090000        1.0080           0
     15785 WT6      1056     MECN     H12      HGA3     0.090000        1.0080           0
     15786 WT6      1056     MECN     H13      HGA3     0.090000        1.0080           0
     15787 WT6      1056     MECN     C2       CG1N1    0.360000       12.0110           0
     15788 WT6      1056     MECN     N3       NG1T1   -0.460000       14.0070           0
     15789 WT6      1060     MECN     C1       CG331   -0.170000       12.0110           0
     15790 WT6      1060     MECN     H11      HGA3     0.090000        1.0080           0
     15791 WT6      1060     MECN     H12      HGA3     0.090000        1.0080           0
     15792 WT6      1060     MECN     H13      HGA3     0.090000        1.0080           0
     15793 WT6      1060     MECN     C2       CG1N1    0.360000       12.0110           0
     15794 WT6      1060     MECN     N3       NG1T1   -0.460000       14.0070           0
     15795 WT6      1064     MECN     C1       CG331   -0.170000       12.0110           0
     15796 WT6      1064     MECN     H11      HGA3     0.090000        1.0080           0
     15797 WT6      1064     MECN     H12      HGA3     0.090000        1.0080           0
     15798 WT6      1064     MECN     H13      HGA3     0.090000        1.0080           0
     15799 WT6      1064     MECN     C2       CG1N1    0.360000       12.0110           0
     15800 WT6      1064     MECN     N3       NG1T1   -0.460000       14.0070           0
     15801 WT6      1065     MECN     C1       CG331   -0.170000       12.0110           0
     15802 WT6      1065     MECN     H11      HGA3     0.090000        1.0080           0
     15803 WT6      1065     MECN     H12      HGA3     0.090000        1.0080           0
     15804 WT6      1065     MECN     H13      HGA3     0.090000        1.0080           0
     15805 WT6      1065     MECN     C2       CG1N1    0.360000       12.0110           0
     15806 WT6      1065     MECN     N3       NG1T1   -0.460000       14.0070           0
     15807 WT6      1066     MECN     C1       CG331   -0.170000       12.0110           0
     15808 WT6      1066     MECN     H11      HGA3     0.090000        1.0080           0
     15809 WT6      1066     MECN     H12      HGA3     0.090000        1.0080           0
     15810 WT6      1066     MECN     H13      HGA3     0.090000        1.0080           0
     15811 WT6      1066     MECN     C2       CG1N1    0.360000       12.0110           0
     15812 WT6      1066     MECN     N3       NG1T1   -0.460000       14.0070           0
     15813 WT6      1068     MECN     C1       CG331   -0.170000       12.0110           0
     15814 WT6      1068     MECN     H11      HGA3     0.090000        1.0080           0
     15815 WT6      1068     MECN     H12      HGA3     0.090000        1.0080           0
     15816 WT6      1068     MECN     H13      HGA3     0.090000        1.0080           0
     15817 WT6      1068     MECN     C2       CG1N1    0.360000       12.0110           0
     15818 WT6      1068     MECN     N3       NG1T1   -0.460000       14.0070           0
     15819 WT6      1069     MECN     C1       CG331   -0.170000       12.0110           0
     15820 WT6      1069     MECN     H11      HGA3     0.090000        1.0080           0
     15821 WT6      1069     MECN     H12      HGA3     0.090000        1.0080           0
     15822 WT6      1069     MECN     H13      HGA3     0.090000        1.0080           0
     15823 WT6      1069     MECN     C2       CG1N1    0.360000       12.0110           0
     15824 WT6      1069     MECN     N3       NG1T1   -0.460000       14.0070           0
     15825 WT6      1073     MECN     C1       CG331   -0.170000       12.0110           0
     15826 WT6      1073     MECN     H11      HGA3     0.090000        1.0080           0
     15827 WT6      1073     MECN     H12      HGA3     0.090000        1.0080           0
     15828 WT6      1073     MECN     H13      HGA3     0.090000        1.0080           0
     15829 WT6      1073     MECN     C2       CG1N1    0.360000       12.0110           0
     15830 WT6      1073     MECN     N3       NG1T1   -0.460000       14.0070           0
     15831 WT6      1077     MECN     C1       CG331   -0.170000       12.0110           0
     15832 WT6      1077     MECN     H11      HGA3     0.090000        1.0080           0
     15833 WT6      1077     MECN     H12      HGA3     0.090000        1.0080           0
     15834 WT6      1077     MECN     H13      HGA3     0.090000        1.0080           0
     15835 WT6      1077     MECN     C2       CG1N1    0.360000       12.0110           0
     15836 WT6      1077     MECN     N3       NG1T1   -0.460000       14.0070           0
     15837 WT6      1078     MECN     C1       CG331   -0.170000       12.0110           0
     15838 WT6      1078     MECN     H11      HGA3     0.090000        1.0080           0
     15839 WT6      1078     MECN     H12      HGA3     0.090000        1.0080           0
     15840 WT6      1078     MECN     H13      HGA3     0.090000        1.0080           0
     15841 WT6      1078     MECN     C2       CG1N1    0.360000       12.0110           0
     15842 WT6      1078     MECN     N3       NG1T1   -0.460000       14.0070           0
     15843 WT6      1088     MECN     C1       CG331   -0.170000       12.0110           0
     15844 WT6      1088     MECN     H11      HGA3     0.090000        1.0080           0
     15845 WT6      1088     MECN     H12      HGA3     0.090000        1.0080           0
     15846 WT6      1088     MECN     H13      HGA3     0.090000        1.0080           0
     15847 WT6      1088     MECN     C2       CG1N1    0.360000       12.0110           0
     15848 WT6      1088     MECN     N3       NG1T1   -0.460000       14.0070           0
     15849 WT6      1092     MECN     C1       CG331   -0.170000       12.0110           0
     15850 WT6      1092     MECN     H11      HGA3     0.090000        1.0080           0
     15851 WT6      1092     MECN     H12      HGA3     0.090000        1.0080           0
     15852 WT6      1092     MECN     H13      HGA3     0.090000        1.0080           0
     15853 WT6      1092     MECN     C2       CG1N1    0.360000       12.0110           0
     15854 WT6      1092     MECN     N3       NG1T1   -0.460000       14.0070           0
     15855 WT6      1096     MECN     C1       CG331   -0.170000       12.0110           0
     15856 WT6      1096     MECN     H11      HGA3     0.090000        1.0080           0
     15857 WT6      1096     MECN     H12      HGA3     0.090000        1.0080           0
     15858 WT6      1096     MECN     H13      HGA3     0.090000        1.0080           0
     15859 WT6      1096     MECN     C2       CG1N1    0.360000       12.0110           0
     15860 WT6      1096     MECN     N3       NG1T1   -0.460000       14.0070           0
     15861 WT6      1099     MECN     C1       CG331   -0.170000       12.0110           0
     15862 WT6      1099     MECN     H11      HGA3     0.090000        1.0080           0
     15863 WT6      1099     MECN     H12      HGA3     0.090000        1.0080           0
     15864 WT6      1099     MECN     H13      HGA3     0.090000        1.0080           0
     15865 WT6      1099     MECN     C2       CG1N1    0.360000       12.0110           0
     15866 WT6      1099     MECN     N3       NG1T1   -0.460000       14.0070           0
     15867 WT6      1100     MECN     C1       CG331   -0.170000       12.0110           0
     15868 WT6      1100     MECN     H11      HGA3     0.090000        1.0080           0
     15869 WT6      1100     MECN     H12      HGA3     0.090000        1.0080           0
     15870 WT6      1100     MECN     H13      HGA3     0.090000        1.0080           0
     15871 WT6      1100     MECN     C2       CG1N1    0.360000       12.0110           0
     15872 WT6      1100     MECN     N3       NG1T1   -0.460000       14.0070           0
     15873 WT6      1101     MECN     C1       CG331   -0.170000       12.0110           0
     15874 WT6      1101     MECN     H11      HGA3     0.090000        1.0080           0
     15875 WT6      1101     MECN     H12      HGA3     0.090000        1.0080           0
     15876 WT6      1101     MECN     H13      HGA3     0.090000        1.0080           0
     15877 WT6      1101     MECN     C2       CG1N1    0.360000       12.0110           0
     15878 WT6      1101     MECN     N3       NG1T1   -0.460000       14.0070           0
     15879 WT6      1103     MECN     C1       CG331   -0.170000       12.0110           0
     15880 WT6      1103     MECN     H11      HGA3     0.090000        1.0080           0
     15881 WT6      1103     MECN     H12      HGA3     0.090000        1.0080           0
     15882 WT6      1103     MECN     H13      HGA3     0.090000        1.0080           0
     15883 WT6      1103     MECN     C2       CG1N1    0.360000       12.0110           0
     15884 WT6      1103     MECN     N3       NG1T1   -0.460000       14.0070           0
     15885 WT6      1107     MECN     C1       CG331   -0.170000       12.0110           0
     15886 WT6      1107     MECN     H11      HGA3     0.090000        1.0080           0
     15887 WT6      1107     MECN     H12      HGA3     0.090000        1.0080           0
     15888 WT6      1107     MECN     H13      HGA3     0.090000        1.0080           0
     15889 WT6      1107     MECN     C2       CG1N1    0.360000       12.0110           0
     15890 WT6      1107     MECN     N3       NG1T1   -0.460000       14.0070           0
     15891 WT6      1110     MECN     C1       CG331   -0.170000       12.0110           0
     15892 WT6      1110     MECN     H11      HGA3     0.090000        1.0080           0
     15893 WT6      1110     MECN     H12      HGA3     0.090000        1.0080           0
     15894 WT6      1110     MECN     H13      HGA3     0.090000        1.0080           0
     15895 WT6      1110     MECN     C2       CG1N1    0.360000       12.0110           0
     15896 WT6      1110     MECN     N3       NG1T1   -0.460000       14.0070           0
     15897 WT6      1111     MECN     C1       CG331   -0.170000       12.0110           0
     15898 WT6      1111     MECN     H11      HGA3     0.090000        1.0080           0
     15899 WT6      1111     MECN     H12      HGA3     0.090000        1.0080           0
     15900 WT6      1111     MECN     H13      HGA3     0.090000        1.0080           0
     15901 WT6      1111     MECN     C2       CG1N1    0.360000       12.0110           0
     15902 WT6      1111     MECN     N3       NG1T1   -0.460000       14.0070           0
     15903 WT6      1114     MECN     C1       CG331   -0.170000       12.0110           0
     15904 WT6      1114     MECN     H11      HGA3     0.090000        1.0080           0
     15905 WT6      1114     MECN     H12      HGA3     0.090000        1.0080           0
     15906 WT6      1114     MECN     H13      HGA3     0.090000        1.0080           0
     15907 WT6      1114     MECN     C2       CG1N1    0.360000       12.0110           0
     15908 WT6      1114     MECN     N3       NG1T1   -0.460000       14.0070           0
     15909 WT6      1116     MECN     C1       CG331   -0.170000       12.0110           0
     15910 WT6      1116     MECN     H11      HGA3     0.090000        1.0080           0
     15911 WT6      1116     MECN     H12      HGA3     0.090000        1.0080           0
     15912 WT6      1116     MECN     H13      HGA3     0.090000        1.0080           0
     15913 WT6      1116     MECN     C2       CG1N1    0.360000       12.0110           0
     15914 WT6      1116     MECN     N3       NG1T1   -0.460000       14.0070           0
     15915 WT6      1117     MECN     C1       CG331   -0.170000       12.0110           0
     15916 WT6      1117     MECN     H11      HGA3     0.090000        1.0080           0
     15917 WT6      1117     MECN     H12      HGA3     0.090000        1.0080           0
     15918 WT6      1117     MECN     H13      HGA3     0.090000        1.0080           0
     15919 WT6      1117     MECN     C2       CG1N1    0.360000       12.0110           0
     15920 WT6      1117     MECN     N3       NG1T1   -0.460000       14.0070           0
     15921 WT6      1119     MECN     C1       CG331   -0.170000       12.0110           0
     15922 WT6      1119     MECN     H11      HGA3     0.090000        1.0080           0
     15923 WT6      1119     MECN     H12      HGA3     0.090000        1.0080           0
     15924 WT6      1119     MECN     H13      HGA3     0.090000        1.0080           0
     15925 WT6      1119     MECN     C2       CG1N1    0.360000       12.0110           0
     15926 WT6      1119     MECN     N3       NG1T1   -0.460000       14.0070           0
     15927 WT6      1121     MECN     C1       CG331   -0.170000       12.0110           0
     15928 WT6      1121     MECN     H11      HGA3     0.090000        1.0080           0
     15929 WT6      1121     MECN     H12      HGA3     0.090000        1.0080           0
     15930 WT6      1121     MECN     H13      HGA3     0.090000        1.0080           0
     15931 WT6      1121     MECN     C2       CG1N1    0.360000       12.0110           0
     15932 WT6      1121     MECN     N3       NG1T1   -0.460000       14.0070           0
     15933 WT6      1123     MECN     C1       CG331   -0.170000       12.0110           0
     15934 WT6      1123     MECN     H11      HGA3     0.090000        1.0080           0
     15935 WT6      1123     MECN     H12      HGA3     0.090000        1.0080           0
     15936 WT6      1123     MECN     H13      HGA3     0.090000        1.0080           0
     15937 WT6      1123     MECN     C2       CG1N1    0.360000       12.0110           0
     15938 WT6      1123     MECN     N3       NG1T1   -0.460000       14.0070           0
     15939 WT6      1128     MECN     C1       CG331   -0.170000       12.0110           0
     15940 WT6      1128     MECN     H11      HGA3     0.090000        1.0080           0
     15941 WT6      1128     MECN     H12      HGA3     0.090000        1.0080           0
     15942 WT6      1128     MECN     H13      HGA3     0.090000        1.0080           0
     15943 WT6      1128     MECN     C2       CG1N1    0.360000       12.0110           0
     15944 WT6      1128     MECN     N3       NG1T1   -0.460000       14.0070           0
     15945 WT6      1129     MECN     C1       CG331   -0.170000       12.0110           0
     15946 WT6      1129     MECN     H11      HGA3     0.090000        1.0080           0
     15947 WT6      1129     MECN     H12      HGA3     0.090000        1.0080           0
     15948 WT6      1129     MECN     H13      HGA3     0.090000        1.0080           0
     15949 WT6      1129     MECN     C2       CG1N1    0.360000       12.0110           0
     15950 WT6      1129     MECN     N3       NG1T1   -0.460000       14.0070           0
     15951 WT6      1135     MECN     C1       CG331   -0.170000       12.0110           0
     15952 WT6      1135     MECN     H11      HGA3     0.090000        1.0080           0
     15953 WT6      1135     MECN     H12      HGA3     0.090000        1.0080           0
     15954 WT6      1135     MECN     H13      HGA3     0.090000        1.0080           0
     15955 WT6      1135     MECN     C2       CG1N1    0.360000       12.0110           0
     15956 WT6      1135     MECN     N3       NG1T1   -0.460000       14.0070           0
     15957 WT6      1136     MECN     C1       CG331   -0.170000       12.0110           0
     15958 WT6      1136     MECN     H11      HGA3     0.090000        1.0080           0
     15959 WT6      1136     MECN     H12      HGA3     0.090000        1.0080           0
     15960 WT6      1136     MECN     H13      HGA3     0.090000        1.0080           0
     15961 WT6      1136     MECN     C2       CG1N1    0.360000       12.0110           0
     15962 WT6      1136     MECN     N3       NG1T1   -0.460000       14.0070           0
     15963 WT6      1141     MECN     C1       CG331   -0.170000       12.0110           0
     15964 WT6      1141     MECN     H11      HGA3     0.090000        1.0080           0
     15965 WT6      1141     MECN     H12      HGA3     0.090000        1.0080           0
     15966 WT6      1141     MECN     H13      HGA3     0.090000        1.0080           0
     15967 WT6      1141     MECN     C2       CG1N1    0.360000       12.0110           0
     15968 WT6      1141     MECN     N3       NG1T1   -0.460000       14.0070           0
     15969 WT6      1144     MECN     C1       CG331   -0.170000       12.0110           0
     15970 WT6      1144     MECN     H11      HGA3     0.090000        1.0080           0
     15971 WT6      1144     MECN     H12      HGA3     0.090000        1.0080           0
     15972 WT6      1144     MECN     H13      HGA3     0.090000        1.0080           0
     15973 WT6      1144     MECN     C2       CG1N1    0.360000       12.0110           0
     15974 WT6      1144     MECN     N3       NG1T1   -0.460000       14.0070           0
     15975 WT6      1145     MECN     C1       CG331   -0.170000       12.0110           0
     15976 WT6      1145     MECN     H11      HGA3     0.090000        1.0080           0
     15977 WT6      1145     MECN     H12      HGA3     0.090000        1.0080           0
     15978 WT6      1145     MECN     H13      HGA3     0.090000        1.0080           0
     15979 WT6      1145     MECN     C2       CG1N1    0.360000       12.0110           0
     15980 WT6      1145     MECN     N3       NG1T1   -0.460000       14.0070           0
     15981 WT6      1147     MECN     C1       CG331   -0.170000       12.0110           0
     15982 WT6      1147     MECN     H11      HGA3     0.090000        1.0080           0
     15983 WT6      1147     MECN     H12      HGA3     0.090000        1.0080           0
     15984 WT6      1147     MECN     H13      HGA3     0.090000        1.0080           0
     15985 WT6      1147     MECN     C2       CG1N1    0.360000       12.0110           0
     15986 WT6      1147     MECN     N3       NG1T1   -0.460000       14.0070           0
     15987 WT6      1150     MECN     C1       CG331   -0.170000       12.0110           0
     15988 WT6      1150     MECN     H11      HGA3     0.090000        1.0080           0
     15989 WT6      1150     MECN     H12      HGA3     0.090000        1.0080           0
     15990 WT6      1150     MECN     H13      HGA3     0.090000        1.0080           0
     15991 WT6      1150     MECN     C2       CG1N1    0.360000       12.0110           0
     15992 WT6      1150     MECN     N3       NG1T1   -0.460000       14.0070           0
     15993 WT6      1152     MECN     C1       CG331   -0.170000       12.0110           0
     15994 WT6      1152     MECN     H11      HGA3     0.090000        1.0080           0
     15995 WT6      1152     MECN     H12      HGA3     0.090000        1.0080           0
     15996 WT6      1152     MECN     H13      HGA3     0.090000        1.0080           0
     15997 WT6      1152     MECN     C2       CG1N1    0.360000       12.0110           0
     15998 WT6      1152     MECN     N3       NG1T1   -0.460000       14.0070           0
     15999 WT6      1153     MECN     C1       CG331   -0.170000       12.0110           0
     16000 WT6      1153     MECN     H11      HGA3     0.090000        1.0080           0
     16001 WT6      1153     MECN     H12      HGA3     0.090000        1.0080           0
     16002 WT6      1153     MECN     H13      HGA3     0.090000        1.0080           0
     16003 WT6      1153     MECN     C2       CG1N1    0.360000       12.0110           0
     16004 WT6      1153     MECN     N3       NG1T1   -0.460000       14.0070           0
     16005 WT6      1154     MECN     C1       CG331   -0.170000       12.0110           0
     16006 WT6      1154     MECN     H11      HGA3     0.090000        1.0080           0
     16007 WT6      1154     MECN     H12      HGA3     0.090000        1.0080           0
     16008 WT6      1154     MECN     H13      HGA3     0.090000        1.0080           0
     16009 WT6      1154     MECN     C2       CG1N1    0.360000       12.0110           0
     16010 WT6      1154     MECN     N3       NG1T1   -0.460000       14.0070           0
     16011 WT6      1156     MECN     C1       CG331   -0.170000       12.0110           0
     16012 WT6      1156     MECN     H11      HGA3     0.090000        1.0080           0
     16013 WT6      1156     MECN     H12      HGA3     0.090000        1.0080           0
     16014 WT6      1156     MECN     H13      HGA3     0.090000        1.0080           0
     16015 WT6      1156     MECN     C2       CG1N1    0.360000       12.0110           0
     16016 WT6      1156     MECN     N3       NG1T1   -0.460000       14.0070           0
     16017 WT6      1159     MECN     C1       CG331   -0.170000       12.0110           0
     16018 WT6      1159     MECN     H11      HGA3     0.090000        1.0080           0
     16019 WT6      1159     MECN     H12      HGA3     0.090000        1.0080           0
     16020 WT6      1159     MECN     H13      HGA3     0.090000        1.0080           0
     16021 WT6      1159     MECN     C2       CG1N1    0.360000       12.0110           0
     16022 WT6      1159     MECN     N3       NG1T1   -0.460000       14.0070           0
     16023 WT6      1160     MECN     C1       CG331   -0.170000       12.0110           0
     16024 WT6      1160     MECN     H11      HGA3     0.090000        1.0080           0
     16025 WT6      1160     MECN     H12      HGA3     0.090000        1.0080           0
     16026 WT6      1160     MECN     H13      HGA3     0.090000        1.0080           0
     16027 WT6      1160     MECN     C2       CG1N1    0.360000       12.0110           0
     16028 WT6      1160     MECN     N3       NG1T1   -0.460000       14.0070           0
     16029 WT6      1169     MECN     C1       CG331   -0.170000       12.0110           0
     16030 WT6      1169     MECN     H11      HGA3     0.090000        1.0080           0
     16031 WT6      1169     MECN     H12      HGA3     0.090000        1.0080           0
     16032 WT6      1169     MECN     H13      HGA3     0.090000        1.0080           0
     16033 WT6      1169     MECN     C2       CG1N1    0.360000       12.0110           0
     16034 WT6      1169     MECN     N3       NG1T1   -0.460000       14.0070           0
     16035 WT6      1175     MECN     C1       CG331   -0.170000       12.0110           0
     16036 WT6      1175     MECN     H11      HGA3     0.090000        1.0080           0
     16037 WT6      1175     MECN     H12      HGA3     0.090000        1.0080           0
     16038 WT6      1175     MECN     H13      HGA3     0.090000        1.0080           0
     16039 WT6      1175     MECN     C2       CG1N1    0.360000       12.0110           0
     16040 WT6      1175     MECN     N3       NG1T1   -0.460000       14.0070           0
     16041 WT6      1176     MECN     C1       CG331   -0.170000       12.0110           0
     16042 WT6      1176     MECN     H11      HGA3     0.090000        1.0080           0
     16043 WT6      1176     MECN     H12      HGA3     0.090000        1.0080           0
     16044 WT6      1176     MECN     H13      HGA3     0.090000        1.0080           0
     16045 WT6      1176     MECN     C2       CG1N1    0.360000       12.0110           0
     16046 WT6      1176     MECN     N3       NG1T1   -0.460000       14.0070           0
     16047 WT6      1177     MECN     C1       CG331   -0.170000       12.0110           0
     16048 WT6      1177     MECN     H11      HGA3     0.090000        1.0080           0
     16049 WT6      1177     MECN     H12      HGA3     0.090000        1.0080           0
     16050 WT6      1177     MECN     H13      HGA3     0.090000        1.0080           0
     16051 WT6      1177     MECN     C2       CG1N1    0.360000       12.0110           0
     16052 WT6      1177     MECN     N3       NG1T1   -0.460000       14.0070           0
     16053 WT6      1182     MECN     C1       CG331   -0.170000       12.0110           0
     16054 WT6      1182     MECN     H11      HGA3     0.090000        1.0080           0
     16055 WT6      1182     MECN     H12      HGA3     0.090000        1.0080           0
     16056 WT6      1182     MECN     H13      HGA3     0.090000        1.0080           0
     16057 WT6      1182     MECN     C2       CG1N1    0.360000       12.0110           0
     16058 WT6      1182     MECN     N3       NG1T1   -0.460000       14.0070           0
     16059 WT6      1183     MECN     C1       CG331   -0.170000       12.0110           0
     16060 WT6      1183     MECN     H11      HGA3     0.090000        1.0080           0
     16061 WT6      1183     MECN     H12      HGA3     0.090000        1.0080           0
     16062 WT6      1183     MECN     H13      HGA3     0.090000        1.0080           0
     16063 WT6      1183     MECN     C2       CG1N1    0.360000       12.0110           0
     16064 WT6      1183     MECN     N3       NG1T1   -0.460000       14.0070           0
     16065 WT6      1186     MECN     C1       CG331   -0.170000       12.0110           0
     16066 WT6      1186     MECN     H11      HGA3     0.090000        1.0080           0
     16067 WT6      1186     MECN     H12      HGA3     0.090000        1.0080           0
     16068 WT6      1186     MECN     H13      HGA3     0.090000        1.0080           0
     16069 WT6      1186     MECN     C2       CG1N1    0.360000       12.0110           0
     16070 WT6      1186     MECN     N3       NG1T1   -0.460000       14.0070           0
     16071 WT6      1187     MECN     C1       CG331   -0.170000       12.0110           0
     16072 WT6      1187     MECN     H11      HGA3     0.090000        1.0080           0
     16073 WT6      1187     MECN     H12      HGA3     0.090000        1.0080           0
     16074 WT6      1187     MECN     H13      HGA3     0.090000        1.0080           0
     16075 WT6      1187     MECN     C2       CG1N1    0.360000       12.0110           0
     16076 WT6      1187     MECN     N3       NG1T1   -0.460000       14.0070           0
     16077 WT6      1189     MECN     C1       CG331   -0.170000       12.0110           0
     16078 WT6      1189     MECN     H11      HGA3     0.090000        1.0080           0
     16079 WT6      1189     MECN     H12      HGA3     0.090000        1.0080           0
     16080 WT6      1189     MECN     H13      HGA3     0.090000        1.0080           0
     16081 WT6      1189     MECN     C2       CG1N1    0.360000       12.0110           0
     16082 WT6      1189     MECN     N3       NG1T1   -0.460000       14.0070           0
     16083 WT6      1192     MECN     C1       CG331   -0.170000       12.0110           0
     16084 WT6      1192     MECN     H11      HGA3     0.090000        1.0080           0
     16085 WT6      1192     MECN     H12      HGA3     0.090000        1.0080           0
     16086 WT6      1192     MECN     H13      HGA3     0.090000        1.0080           0
     16087 WT6      1192     MECN     C2       CG1N1    0.360000       12.0110           0
     16088 WT6      1192     MECN     N3       NG1T1   -0.460000       14.0070           0
     16089 WT6      1198     MECN     C1       CG331   -0.170000       12.0110           0
     16090 WT6      1198     MECN     H11      HGA3     0.090000        1.0080           0
     16091 WT6      1198     MECN     H12      HGA3     0.090000        1.0080           0
     16092 WT6      1198     MECN     H13      HGA3     0.090000        1.0080           0
     16093 WT6      1198     MECN     C2       CG1N1    0.360000       12.0110           0
     16094 WT6      1198     MECN     N3       NG1T1   -0.460000       14.0070           0
     16095 WT6      1201     MECN     C1       CG331   -0.170000       12.0110           0
     16096 WT6      1201     MECN     H11      HGA3     0.090000        1.0080           0
     16097 WT6      1201     MECN     H12      HGA3     0.090000        1.0080           0
     16098 WT6      1201     MECN     H13      HGA3     0.090000        1.0080           0
     16099 WT6      1201     MECN     C2       CG1N1    0.360000       12.0110           0
     16100 WT6      1201     MECN     N3       NG1T1   -0.460000       14.0070           0
     16101 WT6      1207     MECN     C1       CG331   -0.170000       12.0110           0
     16102 WT6      1207     MECN     H11      HGA3     0.090000        1.0080           0
     16103 WT6      1207     MECN     H12      HGA3     0.090000        1.0080           0
     16104 WT6      1207     MECN     H13      HGA3     0.090000        1.0080           0
     16105 WT6      1207     MECN     C2       CG1N1    0.360000       12.0110           0
     16106 WT6      1207     MECN     N3       NG1T1   -0.460000       14.0070           0
     16107 WT6      1208     MECN     C1       CG331   -0.170000       12.0110           0
     16108 WT6      1208     MECN     H11      HGA3     0.090000        1.0080           0
     16109 WT6      1208     MECN     H12      HGA3     0.090000        1.0080           0
     16110 WT6      1208     MECN     H13      HGA3     0.090000        1.0080           0
     16111 WT6      1208     MECN     C2       CG1N1    0.360000       12.0110           0
     16112 WT6      1208     MECN     N3       NG1T1   -0.460000       14.0070           0
     16113 WT6      1209     MECN     C1       CG331   -0.170000       12.0110           0
     16114 WT6      1209     MECN     H11      HGA3     0.090000        1.0080           0
     16115 WT6      1209     MECN     H12      HGA3     0.090000        1.0080           0
     16116 WT6      1209     MECN     H13      HGA3     0.090000        1.0080           0
     16117 WT6      1209     MECN     C2       CG1N1    0.360000       12.0110           0
     16118 WT6      1209     MECN     N3       NG1T1   -0.460000       14.0070           0
     16119 WT6      1212     MECN     C1       CG331   -0.170000       12.0110           0
     16120 WT6      1212     MECN     H11      HGA3     0.090000        1.0080           0
     16121 WT6      1212     MECN     H12      HGA3     0.090000        1.0080           0
     16122 WT6      1212     MECN     H13      HGA3     0.090000        1.0080           0
     16123 WT6      1212     MECN     C2       CG1N1    0.360000       12.0110           0
     16124 WT6      1212     MECN     N3       NG1T1   -0.460000       14.0070           0
     16125 WT6      1214     MECN     C1       CG331   -0.170000       12.0110           0
     16126 WT6      1214     MECN     H11      HGA3     0.090000        1.0080           0
     16127 WT6      1214     MECN     H12      HGA3     0.090000        1.0080           0
     16128 WT6      1214     MECN     H13      HGA3     0.090000        1.0080           0
     16129 WT6      1214     MECN     C2       CG1N1    0.360000       12.0110           0
     16130 WT6      1214     MECN     N3       NG1T1   -0.460000       14.0070           0
     16131 WT6      1215     MECN     C1       CG331   -0.170000       12.0110           0
     16132 WT6      1215     MECN     H11      HGA3     0.090000        1.0080           0
     16133 WT6      1215     MECN     H12      HGA3     0.090000        1.0080           0
     16134 WT6      1215     MECN     H13      HGA3     0.090000        1.0080           0
     16135 WT6      1215     MECN     C2       CG1N1    0.360000       12.0110           0
     16136 WT6      1215     MECN     N3       NG1T1   -0.460000       14.0070           0
     16137 WT6      1216     MECN     C1       CG331   -0.170000       12.0110           0
     16138 WT6      1216     MECN     H11      HGA3     0.090000        1.0080           0
     16139 WT6      1216     MECN     H12      HGA3     0.090000        1.0080           0
     16140 WT6      1216     MECN     H13      HGA3     0.090000        1.0080           0
     16141 WT6      1216     MECN     C2       CG1N1    0.360000       12.0110           0
     16142 WT6      1216     MECN     N3       NG1T1   -0.460000       14.0070           0
     16143 WT6      1221     MECN     C1       CG331   -0.170000       12.0110           0
     16144 WT6      1221     MECN     H11      HGA3     0.090000        1.0080           0
     16145 WT6      1221     MECN     H12      HGA3     0.090000        1.0080           0
     16146 WT6      1221     MECN     H13      HGA3     0.090000        1.0080           0
     16147 WT6      1221     MECN     C2       CG1N1    0.360000       12.0110           0
     16148 WT6      1221     MECN     N3       NG1T1   -0.460000       14.0070           0
     16149 WT6      1228     MECN     C1       CG331   -0.170000       12.0110           0
     16150 WT6      1228     MECN     H11      HGA3     0.090000        1.0080           0
     16151 WT6      1228     MECN     H12      HGA3     0.090000        1.0080           0
     16152 WT6      1228     MECN     H13      HGA3     0.090000        1.0080           0
     16153 WT6      1228     MECN     C2       CG1N1    0.360000       12.0110           0
     16154 WT6      1228     MECN     N3       NG1T1   -0.460000       14.0070           0
     16155 WT6      1233     MECN     C1       CG331   -0.170000       12.0110           0
     16156 WT6      1233     MECN     H11      HGA3     0.090000        1.0080           0
     16157 WT6      1233     MECN     H12      HGA3     0.090000        1.0080           0
     16158 WT6      1233     MECN     H13      HGA3     0.090000        1.0080           0
     16159 WT6      1233     MECN     C2       CG1N1    0.360000       12.0110           0
     16160 WT6      1233     MECN     N3       NG1T1   -0.460000       14.0070           0
     16161 WT6      1234     MECN     C1       CG331   -0.170000       12.0110           0
     16162 WT6      1234     MECN     H11      HGA3     0.090000        1.0080           0
     16163 WT6      1234     MECN     H12      HGA3     0.090000        1.0080           0
     16164 WT6      1234     MECN     H13      HGA3     0.090000        1.0080           0
     16165 WT6      1234     MECN     C2       CG1N1    0.360000       12.0110           0
     16166 WT6      1234     MECN     N3       NG1T1   -0.460000       14.0070           0
     16167 WT6      1236     MECN     C1       CG331   -0.170000       12.0110           0
     16168 WT6      1236     MECN     H11      HGA3     0.090000        1.0080           0
     16169 WT6      1236     MECN     H12      HGA3     0.090000        1.0080           0
     16170 WT6      1236     MECN     H13      HGA3     0.090000        1.0080           0
     16171 WT6      1236     MECN     C2       CG1N1    0.360000       12.0110           0
     16172 WT6      1236     MECN     N3       NG1T1   -0.460000       14.0070           0
     16173 WT6      1241     MECN     C1       CG331   -0.170000       12.0110           0
     16174 WT6      1241     MECN     H11      HGA3     0.090000        1.0080           0
     16175 WT6      1241     MECN     H12      HGA3     0.090000        1.0080           0
     16176 WT6      1241     MECN     H13      HGA3     0.090000        1.0080           0
     16177 WT6      1241     MECN     C2       CG1N1    0.360000       12.0110           0
     16178 WT6      1241     MECN     N3       NG1T1   -0.460000       14.0070           0
     16179 WT6      1242     MECN     C1       CG331   -0.170000       12.0110           0
     16180 WT6      1242     MECN     H11      HGA3     0.090000        1.0080           0
     16181 WT6      1242     MECN     H12      HGA3     0.090000        1.0080           0
     16182 WT6      1242     MECN     H13      HGA3     0.090000        1.0080           0
     16183 WT6      1242     MECN     C2       CG1N1    0.360000       12.0110           0
     16184 WT6      1242     MECN     N3       NG1T1   -0.460000       14.0070           0
     16185 WT6      1243     MECN     C1       CG331   -0.170000       12.0110           0
     16186 WT6      1243     MECN     H11      HGA3     0.090000        1.0080           0
     16187 WT6      1243     MECN     H12      HGA3     0.090000        1.0080           0
     16188 WT6      1243     MECN     H13      HGA3     0.090000        1.0080           0
     16189 WT6      1243     MECN     C2       CG1N1    0.360000       12.0110           0
     16190 WT6      1243     MECN     N3       NG1T1   -0.460000       14.0070           0
     16191 WT6      1245     MECN     C1       CG331   -0.170000       12.0110           0
     16192 WT6      1245     MECN     H11      HGA3     0.090000        1.0080           0
     16193 WT6      1245     MECN     H12      HGA3     0.090000        1.0080           0
     16194 WT6      1245     MECN     H13      HGA3     0.090000        1.0080           0
     16195 WT6      1245     MECN     C2       CG1N1    0.360000       12.0110           0
     16196 WT6      1245     MECN     N3       NG1T1   -0.460000       14.0070           0
     16197 WT6      1246     MECN     C1       CG331   -0.170000       12.0110           0
     16198 WT6      1246     MECN     H11      HGA3     0.090000        1.0080           0
     16199 WT6      1246     MECN     H12      HGA3     0.090000        1.0080           0
     16200 WT6      1246     MECN     H13      HGA3     0.090000        1.0080           0
     16201 WT6      1246     MECN     C2       CG1N1    0.360000       12.0110           0
     16202 WT6      1246     MECN     N3       NG1T1   -0.460000       14.0070           0
     16203 WT6      1248     MECN     C1       CG331   -0.170000       12.0110           0
     16204 WT6      1248     MECN     H11      HGA3     0.090000        1.0080           0
     16205 WT6      1248     MECN     H12      HGA3     0.090000        1.0080           0
     16206 WT6      1248     MECN     H13      HGA3     0.090000        1.0080           0
     16207 WT6      1248     MECN     C2       CG1N1    0.360000       12.0110           0
     16208 WT6      1248     MECN     N3       NG1T1   -0.460000       14.0070           0
     16209 WT6      1251     MECN     C1       CG331   -0.170000       12.0110           0
     16210 WT6      1251     MECN     H11      HGA3     0.090000        1.0080           0
     16211 WT6      1251     MECN     H12      HGA3     0.090000        1.0080           0
     16212 WT6      1251     MECN     H13      HGA3     0.090000        1.0080           0
     16213 WT6      1251     MECN     C2       CG1N1    0.360000       12.0110           0
     16214 WT6      1251     MECN     N3       NG1T1   -0.460000       14.0070           0
     16215 WT6      1258     MECN     C1       CG331   -0.170000       12.0110           0
     16216 WT6      1258     MECN     H11      HGA3     0.090000        1.0080           0
     16217 WT6      1258     MECN     H12      HGA3     0.090000        1.0080           0
     16218 WT6      1258     MECN     H13      HGA3     0.090000        1.0080           0
     16219 WT6      1258     MECN     C2       CG1N1    0.360000       12.0110           0
     16220 WT6      1258     MECN     N3       NG1T1   -0.460000       14.0070           0
     16221 WT6      1260     MECN     C1       CG331   -0.170000       12.0110           0
     16222 WT6      1260     MECN     H11      HGA3     0.090000        1.0080           0
     16223 WT6      1260     MECN     H12      HGA3     0.090000        1.0080           0
     16224 WT6      1260     MECN     H13      HGA3     0.090000        1.0080           0
     16225 WT6      1260     MECN     C2       CG1N1    0.360000       12.0110           0
     16226 WT6      1260     MECN     N3       NG1T1   -0.460000       14.0070           0
     16227 WT6      1263     MECN     C1       CG331   -0.170000       12.0110           0
     16228 WT6      1263     MECN     H11      HGA3     0.090000        1.0080           0
     16229 WT6      1263     MECN     H12      HGA3     0.090000        1.0080           0
     16230 WT6      1263     MECN     H13      HGA3     0.090000        1.0080           0
     16231 WT6      1263     MECN     C2       CG1N1    0.360000       12.0110           0
     16232 WT6      1263     MECN     N3       NG1T1   -0.460000       14.0070           0
     16233 WT6      1266     MECN     C1       CG331   -0.170000       12.0110           0
     16234 WT6      1266     MECN     H11      HGA3     0.090000        1.0080           0
     16235 WT6      1266     MECN     H12      HGA3     0.090000        1.0080           0
     16236 WT6      1266     MECN     H13      HGA3     0.090000        1.0080           0
     16237 WT6      1266     MECN     C2       CG1N1    0.360000       12.0110           0
     16238 WT6      1266     MECN     N3       NG1T1   -0.460000       14.0070           0
     16239 WT6      1275     MECN     C1       CG331   -0.170000       12.0110           0
     16240 WT6      1275     MECN     H11      HGA3     0.090000        1.0080           0
     16241 WT6      1275     MECN     H12      HGA3     0.090000        1.0080           0
     16242 WT6      1275     MECN     H13      HGA3     0.090000        1.0080           0
     16243 WT6      1275     MECN     C2       CG1N1    0.360000       12.0110           0
     16244 WT6      1275     MECN     N3       NG1T1   -0.460000       14.0070           0
     16245 WT6      1278     MECN     C1       CG331   -0.170000       12.0110           0
     16246 WT6      1278     MECN     H11      HGA3     0.090000        1.0080           0
     16247 WT6      1278     MECN     H12      HGA3     0.090000        1.0080           0
     16248 WT6      1278     MECN     H13      HGA3     0.090000        1.0080           0
     16249 WT6      1278     MECN     C2       CG1N1    0.360000       12.0110           0
     16250 WT6      1278     MECN     N3       NG1T1   -0.460000       14.0070           0
     16251 WT6      1279     MECN     C1       CG331   -0.170000       12.0110           0
     16252 WT6      1279     MECN     H11      HGA3     0.090000        1.0080           0
     16253 WT6      1279     MECN     H12      HGA3     0.090000        1.0080           0
     16254 WT6      1279     MECN     H13      HGA3     0.090000        1.0080           0
     16255 WT6      1279     MECN     C2       CG1N1    0.360000       12.0110           0
     16256 WT6      1279     MECN     N3       NG1T1   -0.460000       14.0070           0
     16257 WT6      1282     MECN     C1       CG331   -0.170000       12.0110           0
     16258 WT6      1282     MECN     H11      HGA3     0.090000        1.0080           0
     16259 WT6      1282     MECN     H12      HGA3     0.090000        1.0080           0
     16260 WT6      1282     MECN     H13      HGA3     0.090000        1.0080           0
     16261 WT6      1282     MECN     C2       CG1N1    0.360000       12.0110           0
     16262 WT6      1282     MECN     N3       NG1T1   -0.460000       14.0070           0
     16263 WT6      1285     MECN     C1       CG331   -0.170000       12.0110           0
     16264 WT6      1285     MECN     H11      HGA3     0.090000        1.0080           0
     16265 WT6      1285     MECN     H12      HGA3     0.090000        1.0080           0
     16266 WT6      1285     MECN     H13      HGA3     0.090000        1.0080           0
     16267 WT6      1285     MECN     C2       CG1N1    0.360000       12.0110           0
     16268 WT6      1285     MECN     N3       NG1T1   -0.460000       14.0070           0
     16269 WT6      1296     MECN     C1       CG331   -0.170000       12.0110           0
     16270 WT6      1296     MECN     H11      HGA3     0.090000        1.0080           0
     16271 WT6      1296     MECN     H12      HGA3     0.090000        1.0080           0
     16272 WT6      1296     MECN     H13      HGA3     0.090000        1.0080           0
     16273 WT6      1296     MECN     C2       CG1N1    0.360000       12.0110           0
     16274 WT6      1296     MECN     N3       NG1T1   -0.460000       14.0070           0
     16275 WT6      1312     MECN     C1       CG331   -0.170000       12.0110           0
     16276 WT6      1312     MECN     H11      HGA3     0.090000        1.0080           0
     16277 WT6      1312     MECN     H12      HGA3     0.090000        1.0080           0
     16278 WT6      1312     MECN     H13      HGA3     0.090000        1.0080           0
     16279 WT6      1312     MECN     C2       CG1N1    0.360000       12.0110           0
     16280 WT6      1312     MECN     N3       NG1T1   -0.460000       14.0070           0
     16281 WT6      1314     MECN     C1       CG331   -0.170000       12.0110           0
     16282 WT6      1314     MECN     H11      HGA3     0.090000        1.0080           0
     16283 WT6      1314     MECN     H12      HGA3     0.090000        1.0080           0
     16284 WT6      1314     MECN     H13      HGA3     0.090000        1.0080           0
     16285 WT6      1314     MECN     C2       CG1N1    0.360000       12.0110           0
     16286 WT6      1314     MECN     N3       NG1T1   -0.460000       14.0070           0
     16287 WT6      1320     MECN     C1       CG331   -0.170000       12.0110           0
     16288 WT6      1320     MECN     H11      HGA3     0.090000        1.0080           0
     16289 WT6      1320     MECN     H12      HGA3     0.090000        1.0080           0
     16290 WT6      1320     MECN     H13      HGA3     0.090000        1.0080           0
     16291 WT6      1320     MECN     C2       CG1N1    0.360000       12.0110           0
     16292 WT6      1320     MECN     N3       NG1T1   -0.460000       14.0070           0
     16293 WT6      1321     MECN     C1       CG331   -0.170000       12.0110           0
     16294 WT6      1321     MECN     H11      HGA3     0.090000        1.0080           0
     16295 WT6      1321     MECN     H12      HGA3     0.090000        1.0080           0
     16296 WT6      1321     MECN     H13      HGA3     0.090000        1.0080           0
     16297 WT6      1321     MECN     C2       CG1N1    0.360000       12.0110           0
     16298 WT6      1321     MECN     N3       NG1T1   -0.460000       14.0070           0
     16299 WT6      1322     MECN     C1       CG331   -0.170000       12.0110           0
     16300 WT6      1322     MECN     H11      HGA3     0.090000        1.0080           0
     16301 WT6      1322     MECN     H12      HGA3     0.090000        1.0080           0
     16302 WT6      1322     MECN     H13      HGA3     0.090000        1.0080           0
     16303 WT6      1322     MECN     C2       CG1N1    0.360000       12.0110           0
     16304 WT6      1322     MECN     N3       NG1T1   -0.460000       14.0070           0
     16305 WT6      1323     MECN     C1       CG331   -0.170000       12.0110           0
     16306 WT6      1323     MECN     H11      HGA3     0.090000        1.0080           0
     16307 WT6      1323     MECN     H12      HGA3     0.090000        1.0080           0
     16308 WT6      1323     MECN     H13      HGA3     0.090000        1.0080           0
     16309 WT6      1323     MECN     C2       CG1N1    0.360000       12.0110           0
     16310 WT6      1323     MECN     N3       NG1T1   -0.460000       14.0070           0
     16311 WT6      1329     MECN     C1       CG331   -0.170000       12.0110           0
     16312 WT6      1329     MECN     H11      HGA3     0.090000        1.0080           0
     16313 WT6      1329     MECN     H12      HGA3     0.090000        1.0080           0
     16314 WT6      1329     MECN     H13      HGA3     0.090000        1.0080           0
     16315 WT6      1329     MECN     C2       CG1N1    0.360000       12.0110           0
     16316 WT6      1329     MECN     N3       NG1T1   -0.460000       14.0070           0
     16317 WT6      1330     MECN     C1       CG331   -0.170000       12.0110           0
     16318 WT6      1330     MECN     H11      HGA3     0.090000        1.0080           0
     16319 WT6      1330     MECN     H12      HGA3     0.090000        1.0080           0
     16320 WT6      1330     MECN     H13      HGA3     0.090000        1.0080           0
     16321 WT6      1330     MECN     C2       CG1N1    0.360000       12.0110           0
     16322 WT6      1330     MECN     N3       NG1T1   -0.460000       14.0070           0
     16323 WT7      1        MECN     C1       CG331   -0.170000       12.0110           0
     16324 WT7      1        MECN     H11      HGA3     0.090000        1.0080           0
     16325 WT7      1        MECN     H12      HGA3     0.090000        1.0080           0
     16326 WT7      1        MECN     H13      HGA3     0.090000        1.0080           0
     16327 WT7      1        MECN     C2       CG1N1    0.360000       12.0110           0
     16328 WT7      1        MECN     N3       NG1T1   -0.460000       14.0070           0
     16329 WT7      4        MECN     C1       CG331   -0.170000       12.0110           0
     16330 WT7      4        MECN     H11      HGA3     0.090000        1.0080           0
     16331 WT7      4        MECN     H12      HGA3     0.090000        1.0080           0
     16332 WT7      4        MECN     H13      HGA3     0.090000        1.0080           0
     16333 WT7      4        MECN     C2       CG1N1    0.360000       12.0110           0
     16334 WT7      4        MECN     N3       NG1T1   -0.460000       14.0070           0
     16335 WT7      9        MECN     C1       CG331   -0.170000       12.0110           0
     16336 WT7      9        MECN     H11      HGA3     0.090000        1.0080           0
     16337 WT7      9        MECN     H12      HGA3     0.090000        1.0080           0
     16338 WT7      9        MECN     H13      HGA3     0.090000        1.0080           0
     16339 WT7      9        MECN     C2       CG1N1    0.360000       12.0110           0
     16340 WT7      9        MECN     N3       NG1T1   -0.460000       14.0070           0
     16341 WT7      17       MECN     C1       CG331   -0.170000       12.0110           0
     16342 WT7      17       MECN     H11      HGA3     0.090000        1.0080           0
     16343 WT7      17       MECN     H12      HGA3     0.090000        1.0080           0
     16344 WT7      17       MECN     H13      HGA3     0.090000        1.0080           0
     16345 WT7      17       MECN     C2       CG1N1    0.360000       12.0110           0
     16346 WT7      17       MECN     N3       NG1T1   -0.460000       14.0070           0
     16347 WT7      31       MECN     C1       CG331   -0.170000       12.0110           0
     16348 WT7      31       MECN     H11      HGA3     0.090000        1.0080           0
     16349 WT7      31       MECN     H12      HGA3     0.090000        1.0080           0
     16350 WT7      31       MECN     H13      HGA3     0.090000        1.0080           0
     16351 WT7      31       MECN     C2       CG1N1    0.360000       12.0110           0
     16352 WT7      31       MECN     N3       NG1T1   -0.460000       14.0070           0
     16353 WT7      33       MECN     C1       CG331   -0.170000       12.0110           0
     16354 WT7      33       MECN     H11      HGA3     0.090000        1.0080           0
     16355 WT7      33       MECN     H12      HGA3     0.090000        1.0080           0
     16356 WT7      33       MECN     H13      HGA3     0.090000        1.0080           0
     16357 WT7      33       MECN     C2       CG1N1    0.360000       12.0110           0
     16358 WT7      33       MECN     N3       NG1T1   -0.460000       14.0070           0
     16359 WT7      34       MECN     C1       CG331   -0.170000       12.0110           0
     16360 WT7      34       MECN     H11      HGA3     0.090000        1.0080           0
     16361 WT7      34       MECN     H12      HGA3     0.090000        1.0080           0
     16362 WT7      34       MECN     H13      HGA3     0.090000        1.0080           0
     16363 WT7      34       MECN     C2       CG1N1    0.360000       12.0110           0
     16364 WT7      34       MECN     N3       NG1T1   -0.460000       14.0070           0
     16365 WT7      36       MECN     C1       CG331   -0.170000       12.0110           0
     16366 WT7      36       MECN     H11      HGA3     0.090000        1.0080           0
     16367 WT7      36       MECN     H12      HGA3     0.090000        1.0080           0
     16368 WT7      36       MECN     H13      HGA3     0.090000        1.0080           0
     16369 WT7      36       MECN     C2       CG1N1    0.360000       12.0110           0
     16370 WT7      36       MECN     N3       NG1T1   -0.460000       14.0070           0
     16371 WT7      37       MECN     C1       CG331   -0.170000       12.0110           0
     16372 WT7      37       MECN     H11      HGA3     0.090000        1.0080           0
     16373 WT7      37       MECN     H12      HGA3     0.090000        1.0080           0
     16374 WT7      37       MECN     H13      HGA3     0.090000        1.0080           0
     16375 WT7      37       MECN     C2       CG1N1    0.360000       12.0110           0
     16376 WT7      37       MECN     N3       NG1T1   -0.460000       14.0070           0
     16377 WT7      42       MECN     C1       CG331   -0.170000       12.0110           0
     16378 WT7      42       MECN     H11      HGA3     0.090000        1.0080           0
     16379 WT7      42       MECN     H12      HGA3     0.090000        1.0080           0
     16380 WT7      42       MECN     H13      HGA3     0.090000        1.0080           0
     16381 WT7      42       MECN     C2       CG1N1    0.360000       12.0110           0
     16382 WT7      42       MECN     N3       NG1T1   -0.460000       14.0070           0
     16383 WT7      46       MECN     C1       CG331   -0.170000       12.0110           0
     16384 WT7      46       MECN     H11      HGA3     0.090000        1.0080           0
     16385 WT7      46       MECN     H12      HGA3     0.090000        1.0080           0
     16386 WT7      46       MECN     H13      HGA3     0.090000        1.0080           0
     16387 WT7      46       MECN     C2       CG1N1    0.360000       12.0110           0
     16388 WT7      46       MECN     N3       NG1T1   -0.460000       14.0070           0
     16389 WT7      71       MECN     C1       CG331   -0.170000       12.0110           0
     16390 WT7      71       MECN     H11      HGA3     0.090000        1.0080           0
     16391 WT7      71       MECN     H12      HGA3     0.090000        1.0080           0
     16392 WT7      71       MECN     H13      HGA3     0.090000        1.0080           0
     16393 WT7      71       MECN     C2       CG1N1    0.360000       12.0110           0
     16394 WT7      71       MECN     N3       NG1T1   -0.460000       14.0070           0
     16395 WT7      73       MECN     C1       CG331   -0.170000       12.0110           0
     16396 WT7      73       MECN     H11      HGA3     0.090000        1.0080           0
     16397 WT7      73       MECN     H12      HGA3     0.090000        1.0080           0
     16398 WT7      73       MECN     H13      HGA3     0.090000        1.0080           0
     16399 WT7      73       MECN     C2       CG1N1    0.360000       12.0110           0
     16400 WT7      73       MECN     N3       NG1T1   -0.460000       14.0070           0
     16401 WT7      84       MECN     C1       CG331   -0.170000       12.0110           0
     16402 WT7      84       MECN     H11      HGA3     0.090000        1.0080           0
     16403 WT7      84       MECN     H12      HGA3     0.090000        1.0080           0
     16404 WT7      84       MECN     H13      HGA3     0.090000        1.0080           0
     16405 WT7      84       MECN     C2       CG1N1    0.360000       12.0110           0
     16406 WT7      84       MECN     N3       NG1T1   -0.460000       14.0070           0
     16407 WT7      86       MECN     C1       CG331   -0.170000       12.0110           0
     16408 WT7      86       MECN     H11      HGA3     0.090000        1.0080           0
     16409 WT7      86       MECN     H12      HGA3     0.090000        1.0080           0
     16410 WT7      86       MECN     H13      HGA3     0.090000        1.0080           0
     16411 WT7      86       MECN     C2       CG1N1    0.360000       12.0110           0
     16412 WT7      86       MECN     N3       NG1T1   -0.460000       14.0070           0
     16413 WT7      91       MECN     C1       CG331   -0.170000       12.0110           0
     16414 WT7      91       MECN     H11      HGA3     0.090000        1.0080           0
     16415 WT7      91       MECN     H12      HGA3     0.090000        1.0080           0
     16416 WT7      91       MECN     H13      HGA3     0.090000        1.0080           0
     16417 WT7      91       MECN     C2       CG1N1    0.360000       12.0110           0
     16418 WT7      91       MECN     N3       NG1T1   -0.460000       14.0070           0
     16419 WT7      101      MECN     C1       CG331   -0.170000       12.0110           0
     16420 WT7      101      MECN     H11      HGA3     0.090000        1.0080           0
     16421 WT7      101      MECN     H12      HGA3     0.090000        1.0080           0
     16422 WT7      101      MECN     H13      HGA3     0.090000        1.0080           0
     16423 WT7      101      MECN     C2       CG1N1    0.360000       12.0110           0
     16424 WT7      101      MECN     N3       NG1T1   -0.460000       14.0070           0
     16425 WT7      102      MECN     C1       CG331   -0.170000       12.0110           0
     16426 WT7      102      MECN     H11      HGA3     0.090000        1.0080           0
     16427 WT7      102      MECN     H12      HGA3     0.090000        1.0080           0
     16428 WT7      102      MECN     H13      HGA3     0.090000        1.0080           0
     16429 WT7      102      MECN     C2       CG1N1    0.360000       12.0110           0
     16430 WT7      102      MECN     N3       NG1T1   -0.460000       14.0070           0
     16431 WT7      120      MECN     C1       CG331   -0.170000       12.0110           0
     16432 WT7      120      MECN     H11      HGA3     0.090000        1.0080           0
     16433 WT7      120      MECN     H12      HGA3     0.090000        1.0080           0
     16434 WT7      120      MECN     H13      HGA3     0.090000        1.0080           0
     16435 WT7      120      MECN     C2       CG1N1    0.360000       12.0110           0
     16436 WT7      120      MECN     N3       NG1T1   -0.460000       14.0070           0
     16437 WT7      138      MECN     C1       CG331   -0.170000       12.0110           0
     16438 WT7      138      MECN     H11      HGA3     0.090000        1.0080           0
     16439 WT7      138      MECN     H12      HGA3     0.090000        1.0080           0
     16440 WT7      138      MECN     H13      HGA3     0.090000        1.0080           0
     16441 WT7      138      MECN     C2       CG1N1    0.360000       12.0110           0
     16442 WT7      138      MECN     N3       NG1T1   -0.460000       14.0070           0
     16443 WT7      149      MECN     C1       CG331   -0.170000       12.0110           0
     16444 WT7      149      MECN     H11      HGA3     0.090000        1.0080           0
     16445 WT7      149      MECN     H12      HGA3     0.090000        1.0080           0
     16446 WT7      149      MECN     H13      HGA3     0.090000        1.0080           0
     16447 WT7      149      MECN     C2       CG1N1    0.360000       12.0110           0
     16448 WT7      149      MECN     N3       NG1T1   -0.460000       14.0070           0
     16449 WT7      158      MECN     C1       CG331   -0.170000       12.0110           0
     16450 WT7      158      MECN     H11      HGA3     0.090000        1.0080           0
     16451 WT7      158      MECN     H12      HGA3     0.090000        1.0080           0
     16452 WT7      158      MECN     H13      HGA3     0.090000        1.0080           0
     16453 WT7      158      MECN     C2       CG1N1    0.360000       12.0110           0
     16454 WT7      158      MECN     N3       NG1T1   -0.460000       14.0070           0
     16455 WT7      161      MECN     C1       CG331   -0.170000       12.0110           0
     16456 WT7      161      MECN     H11      HGA3     0.090000        1.0080           0
     16457 WT7      161      MECN     H12      HGA3     0.090000        1.0080           0
     16458 WT7      161      MECN     H13      HGA3     0.090000        1.0080           0
     16459 WT7      161      MECN     C2       CG1N1    0.360000       12.0110           0
     16460 WT7      161      MECN     N3       NG1T1   -0.460000       14.0070           0
     16461 WT7      176      MECN     C1       CG331   -0.170000       12.0110           0
     16462 WT7      176      MECN     H11      HGA3     0.090000        1.0080           0
     16463 WT7      176      MECN     H12      HGA3     0.090000        1.0080           0
     16464 WT7      176      MECN     H13      HGA3     0.090000        1.0080           0
     16465 WT7      176      MECN     C2       CG1N1    0.360000       12.0110           0
     16466 WT7      176      MECN     N3       NG1T1   -0.460000       14.0070           0
     16467 WT7      183      MECN     C1       CG331   -0.170000       12.0110           0
     16468 WT7      183      MECN     H11      HGA3     0.090000        1.0080           0
     16469 WT7      183      MECN     H12      HGA3     0.090000        1.0080           0
     16470 WT7      183      MECN     H13      HGA3     0.090000        1.0080           0
     16471 WT7      183      MECN     C2       CG1N1    0.360000       12.0110           0
     16472 WT7      183      MECN     N3       NG1T1   -0.460000       14.0070           0
     16473 WT7      193      MECN     C1       CG331   -0.170000       12.0110           0
     16474 WT7      193      MECN     H11      HGA3     0.090000        1.0080           0
     16475 WT7      193      MECN     H12      HGA3     0.090000        1.0080           0
     16476 WT7      193      MECN     H13      HGA3     0.090000        1.0080           0
     16477 WT7      193      MECN     C2       CG1N1    0.360000       12.0110           0
     16478 WT7      193      MECN     N3       NG1T1   -0.460000       14.0070           0
     16479 WT7      195      MECN     C1       CG331   -0.170000       12.0110           0
     16480 WT7      195      MECN     H11      HGA3     0.090000        1.0080           0
     16481 WT7      195      MECN     H12      HGA3     0.090000        1.0080           0
     16482 WT7      195      MECN     H13      HGA3     0.090000        1.0080           0
     16483 WT7      195      MECN     C2       CG1N1    0.360000       12.0110           0
     16484 WT7      195      MECN     N3       NG1T1   -0.460000       14.0070           0
     16485 WT7      200      MECN     C1       CG331   -0.170000       12.0110           0
     16486 WT7      200      MECN     H11      HGA3     0.090000        1.0080           0
     16487 WT7      200      MECN     H12      HGA3     0.090000        1.0080           0
     16488 WT7      200      MECN     H13      HGA3     0.090000        1.0080           0
     16489 WT7      200      MECN     C2       CG1N1    0.360000       12.0110           0
     16490 WT7      200      MECN     N3       NG1T1   -0.460000       14.0070           0
     16491 WT7      209      MECN     C1       CG331   -0.170000       12.0110           0
     16492 WT7      209      MECN     H11      HGA3     0.090000        1.0080           0
     16493 WT7      209      MECN     H12      HGA3     0.090000        1.0080           0
     16494 WT7      209      MECN     H13      HGA3     0.090000        1.0080           0
     16495 WT7      209      MECN     C2       CG1N1    0.360000       12.0110           0
     16496 WT7      209      MECN     N3       NG1T1   -0.460000       14.0070           0
     16497 WT7      210      MECN     C1       CG331   -0.170000       12.0110           0
     16498 WT7      210      MECN     H11      HGA3     0.090000        1.0080           0
     16499 WT7      210      MECN     H12      HGA3     0.090000        1.0080           0
     16500 WT7      210      MECN     H13      HGA3     0.090000        1.0080           0
     16501 WT7      210      MECN     C2       CG1N1    0.360000       12.0110           0
     16502 WT7      210      MECN     N3       NG1T1   -0.460000       14.0070           0
     16503 WT7      211      MECN     C1       CG331   -0.170000       12.0110           0
     16504 WT7      211      MECN     H11      HGA3     0.090000        1.0080           0
     16505 WT7      211      MECN     H12      HGA3     0.090000        1.0080           0
     16506 WT7      211      MECN     H13      HGA3     0.090000        1.0080           0
     16507 WT7      211      MECN     C2       CG1N1    0.360000       12.0110           0
     16508 WT7      211      MECN     N3       NG1T1   -0.460000       14.0070           0
     16509 WT7      213      MECN     C1       CG331   -0.170000       12.0110           0
     16510 WT7      213      MECN     H11      HGA3     0.090000        1.0080           0
     16511 WT7      213      MECN     H12      HGA3     0.090000        1.0080           0
     16512 WT7      213      MECN     H13      HGA3     0.090000        1.0080           0
     16513 WT7      213      MECN     C2       CG1N1    0.360000       12.0110           0
     16514 WT7      213      MECN     N3       NG1T1   -0.460000       14.0070           0
     16515 WT7      215      MECN     C1       CG331   -0.170000       12.0110           0
     16516 WT7      215      MECN     H11      HGA3     0.090000        1.0080           0
     16517 WT7      215      MECN     H12      HGA3     0.090000        1.0080           0
     16518 WT7      215      MECN     H13      HGA3     0.090000        1.0080           0
     16519 WT7      215      MECN     C2       CG1N1    0.360000       12.0110           0
     16520 WT7      215      MECN     N3       NG1T1   -0.460000       14.0070           0
     16521 WT7      225      MECN     C1       CG331   -0.170000       12.0110           0
     16522 WT7      225      MECN     H11      HGA3     0.090000        1.0080           0
     16523 WT7      225      MECN     H12      HGA3     0.090000        1.0080           0
     16524 WT7      225      MECN     H13      HGA3     0.090000        1.0080           0
     16525 WT7      225      MECN     C2       CG1N1    0.360000       12.0110           0
     16526 WT7      225      MECN     N3       NG1T1   -0.460000       14.0070           0
     16527 WT7      228      MECN     C1       CG331   -0.170000       12.0110           0
     16528 WT7      228      MECN     H11      HGA3     0.090000        1.0080           0
     16529 WT7      228      MECN     H12      HGA3     0.090000        1.0080           0
     16530 WT7      228      MECN     H13      HGA3     0.090000        1.0080           0
     16531 WT7      228      MECN     C2       CG1N1    0.360000       12.0110           0
     16532 WT7      228      MECN     N3       NG1T1   -0.460000       14.0070           0
     16533 WT7      245      MECN     C1       CG331   -0.170000       12.0110           0
     16534 WT7      245      MECN     H11      HGA3     0.090000        1.0080           0
     16535 WT7      245      MECN     H12      HGA3     0.090000        1.0080           0
     16536 WT7      245      MECN     H13      HGA3     0.090000        1.0080           0
     16537 WT7      245      MECN     C2       CG1N1    0.360000       12.0110           0
     16538 WT7      245      MECN     N3       NG1T1   -0.460000       14.0070           0
     16539 WT7      256      MECN     C1       CG331   -0.170000       12.0110           0
     16540 WT7      256      MECN     H11      HGA3     0.090000        1.0080           0
     16541 WT7      256      MECN     H12      HGA3     0.090000        1.0080           0
     16542 WT7      256      MECN     H13      HGA3     0.090000        1.0080           0
     16543 WT7      256      MECN     C2       CG1N1    0.360000       12.0110           0
     16544 WT7      256      MECN     N3       NG1T1   -0.460000       14.0070           0
     16545 WT7      257      MECN     C1       CG331   -0.170000       12.0110           0
     16546 WT7      257      MECN     H11      HGA3     0.090000        1.0080           0
     16547 WT7      257      MECN     H12      HGA3     0.090000        1.0080           0
     16548 WT7      257      MECN     H13      HGA3     0.090000        1.0080           0
     16549 WT7      257      MECN     C2       CG1N1    0.360000       12.0110           0
     16550 WT7      257      MECN     N3       NG1T1   -0.460000       14.0070           0
     16551 WT7      259      MECN     C1       CG331   -0.170000       12.0110           0
     16552 WT7      259      MECN     H11      HGA3     0.090000        1.0080           0
     16553 WT7      259      MECN     H12      HGA3     0.090000        1.0080           0
     16554 WT7      259      MECN     H13      HGA3     0.090000        1.0080           0
     16555 WT7      259      MECN     C2       CG1N1    0.360000       12.0110           0
     16556 WT7      259      MECN     N3       NG1T1   -0.460000       14.0070           0
     16557 WT7      260      MECN     C1       CG331   -0.170000       12.0110           0
     16558 WT7      260      MECN     H11      HGA3     0.090000        1.0080           0
     16559 WT7      260      MECN     H12      HGA3     0.090000        1.0080           0
     16560 WT7      260      MECN     H13      HGA3     0.090000        1.0080           0
     16561 WT7      260      MECN     C2       CG1N1    0.360000       12.0110           0
     16562 WT7      260      MECN     N3       NG1T1   -0.460000       14.0070           0
     16563 WT7      273      MECN     C1       CG331   -0.170000       12.0110           0
     16564 WT7      273      MECN     H11      HGA3     0.090000        1.0080           0
     16565 WT7      273      MECN     H12      HGA3     0.090000        1.0080           0
     16566 WT7      273      MECN     H13      HGA3     0.090000        1.0080           0
     16567 WT7      273      MECN     C2       CG1N1    0.360000       12.0110           0
     16568 WT7      273      MECN     N3       NG1T1   -0.460000       14.0070           0
     16569 WT7      282      MECN     C1       CG331   -0.170000       12.0110           0
     16570 WT7      282      MECN     H11      HGA3     0.090000        1.0080           0
     16571 WT7      282      MECN     H12      HGA3     0.090000        1.0080           0
     16572 WT7      282      MECN     H13      HGA3     0.090000        1.0080           0
     16573 WT7      282      MECN     C2       CG1N1    0.360000       12.0110           0
     16574 WT7      282      MECN     N3       NG1T1   -0.460000       14.0070           0
     16575 WT7      289      MECN     C1       CG331   -0.170000       12.0110           0
     16576 WT7      289      MECN     H11      HGA3     0.090000        1.0080           0
     16577 WT7      289      MECN     H12      HGA3     0.090000        1.0080           0
     16578 WT7      289      MECN     H13      HGA3     0.090000        1.0080           0
     16579 WT7      289      MECN     C2       CG1N1    0.360000       12.0110           0
     16580 WT7      289      MECN     N3       NG1T1   -0.460000       14.0070           0
     16581 WT7      299      MECN     C1       CG331   -0.170000       12.0110           0
     16582 WT7      299      MECN     H11      HGA3     0.090000        1.0080           0
     16583 WT7      299      MECN     H12      HGA3     0.090000        1.0080           0
     16584 WT7      299      MECN     H13      HGA3     0.090000        1.0080           0
     16585 WT7      299      MECN     C2       CG1N1    0.360000       12.0110           0
     16586 WT7      299      MECN     N3       NG1T1   -0.460000       14.0070           0
     16587 WT7      302      MECN     C1       CG331   -0.170000       12.0110           0
     16588 WT7      302      MECN     H11      HGA3     0.090000        1.0080           0
     16589 WT7      302      MECN     H12      HGA3     0.090000        1.0080           0
     16590 WT7      302      MECN     H13      HGA3     0.090000        1.0080           0
     16591 WT7      302      MECN     C2       CG1N1    0.360000       12.0110           0
     16592 WT7      302      MECN     N3       NG1T1   -0.460000       14.0070           0
     16593 WT7      303      MECN     C1       CG331   -0.170000       12.0110           0
     16594 WT7      303      MECN     H11      HGA3     0.090000        1.0080           0
     16595 WT7      303      MECN     H12      HGA3     0.090000        1.0080           0
     16596 WT7      303      MECN     H13      HGA3     0.090000        1.0080           0
     16597 WT7      303      MECN     C2       CG1N1    0.360000       12.0110           0
     16598 WT7      303      MECN     N3       NG1T1   -0.460000       14.0070           0
     16599 WT7      308      MECN     C1       CG331   -0.170000       12.0110           0
     16600 WT7      308      MECN     H11      HGA3     0.090000        1.0080           0
     16601 WT7      308      MECN     H12      HGA3     0.090000        1.0080           0
     16602 WT7      308      MECN     H13      HGA3     0.090000        1.0080           0
     16603 WT7      308      MECN     C2       CG1N1    0.360000       12.0110           0
     16604 WT7      308      MECN     N3       NG1T1   -0.460000       14.0070           0
     16605 WT7      312      MECN     C1       CG331   -0.170000       12.0110           0
     16606 WT7      312      MECN     H11      HGA3     0.090000        1.0080           0
     16607 WT7      312      MECN     H12      HGA3     0.090000        1.0080           0
     16608 WT7      312      MECN     H13      HGA3     0.090000        1.0080           0
     16609 WT7      312      MECN     C2       CG1N1    0.360000       12.0110           0
     16610 WT7      312      MECN     N3       NG1T1   -0.460000       14.0070           0
     16611 WT7      313      MECN     C1       CG331   -0.170000       12.0110           0
     16612 WT7      313      MECN     H11      HGA3     0.090000        1.0080           0
     16613 WT7      313      MECN     H12      HGA3     0.090000        1.0080           0
     16614 WT7      313      MECN     H13      HGA3     0.090000        1.0080           0
     16615 WT7      313      MECN     C2       CG1N1    0.360000       12.0110           0
     16616 WT7      313      MECN     N3       NG1T1   -0.460000       14.0070           0
     16617 WT7      323      MECN     C1       CG331   -0.170000       12.0110           0
     16618 WT7      323      MECN     H11      HGA3     0.090000        1.0080           0
     16619 WT7      323      MECN     H12      HGA3     0.090000        1.0080           0
     16620 WT7      323      MECN     H13      HGA3     0.090000        1.0080           0
     16621 WT7      323      MECN     C2       CG1N1    0.360000       12.0110           0
     16622 WT7      323      MECN     N3       NG1T1   -0.460000       14.0070           0
     16623 WT7      326      MECN     C1       CG331   -0.170000       12.0110           0
     16624 WT7      326      MECN     H11      HGA3     0.090000        1.0080           0
     16625 WT7      326      MECN     H12      HGA3     0.090000        1.0080           0
     16626 WT7      326      MECN     H13      HGA3     0.090000        1.0080           0
     16627 WT7      326      MECN     C2       CG1N1    0.360000       12.0110           0
     16628 WT7      326      MECN     N3       NG1T1   -0.460000       14.0070           0
     16629 WT7      348      MECN     C1       CG331   -0.170000       12.0110           0
     16630 WT7      348      MECN     H11      HGA3     0.090000        1.0080           0
     16631 WT7      348      MECN     H12      HGA3     0.090000        1.0080           0
     16632 WT7      348      MECN     H13      HGA3     0.090000        1.0080           0
     16633 WT7      348      MECN     C2       CG1N1    0.360000       12.0110           0
     16634 WT7      348      MECN     N3       NG1T1   -0.460000       14.0070           0
     16635 WT7      356      MECN     C1       CG331   -0.170000       12.0110           0
     16636 WT7      356      MECN     H11      HGA3     0.090000        1.0080           0
     16637 WT7      356      MECN     H12      HGA3     0.090000        1.0080           0
     16638 WT7      356      MECN     H13      HGA3     0.090000        1.0080           0
     16639 WT7      356      MECN     C2       CG1N1    0.360000       12.0110           0
     16640 WT7      356      MECN     N3       NG1T1   -0.460000       14.0070           0
     16641 WT7      366      MECN     C1       CG331   -0.170000       12.0110           0
     16642 WT7      366      MECN     H11      HGA3     0.090000        1.0080           0
     16643 WT7      366      MECN     H12      HGA3     0.090000        1.0080           0
     16644 WT7      366      MECN     H13      HGA3     0.090000        1.0080           0
     16645 WT7      366      MECN     C2       CG1N1    0.360000       12.0110           0
     16646 WT7      366      MECN     N3       NG1T1   -0.460000       14.0070           0
     16647 WT7      371      MECN     C1       CG331   -0.170000       12.0110           0
     16648 WT7      371      MECN     H11      HGA3     0.090000        1.0080           0
     16649 WT7      371      MECN     H12      HGA3     0.090000        1.0080           0
     16650 WT7      371      MECN     H13      HGA3     0.090000        1.0080           0
     16651 WT7      371      MECN     C2       CG1N1    0.360000       12.0110           0
     16652 WT7      371      MECN     N3       NG1T1   -0.460000       14.0070           0
     16653 WT7      381      MECN     C1       CG331   -0.170000       12.0110           0
     16654 WT7      381      MECN     H11      HGA3     0.090000        1.0080           0
     16655 WT7      381      MECN     H12      HGA3     0.090000        1.0080           0
     16656 WT7      381      MECN     H13      HGA3     0.090000        1.0080           0
     16657 WT7      381      MECN     C2       CG1N1    0.360000       12.0110           0
     16658 WT7      381      MECN     N3       NG1T1   -0.460000       14.0070           0
     16659 WT7      392      MECN     C1       CG331   -0.170000       12.0110           0
     16660 WT7      392      MECN     H11      HGA3     0.090000        1.0080           0
     16661 WT7      392      MECN     H12      HGA3     0.090000        1.0080           0
     16662 WT7      392      MECN     H13      HGA3     0.090000        1.0080           0
     16663 WT7      392      MECN     C2       CG1N1    0.360000       12.0110           0
     16664 WT7      392      MECN     N3       NG1T1   -0.460000       14.0070           0
     16665 WT7      402      MECN     C1       CG331   -0.170000       12.0110           0
     16666 WT7      402      MECN     H11      HGA3     0.090000        1.0080           0
     16667 WT7      402      MECN     H12      HGA3     0.090000        1.0080           0
     16668 WT7      402      MECN     H13      HGA3     0.090000        1.0080           0
     16669 WT7      402      MECN     C2       CG1N1    0.360000       12.0110           0
     16670 WT7      402      MECN     N3       NG1T1   -0.460000       14.0070           0
     16671 WT7      404      MECN     C1       CG331   -0.170000       12.0110           0
     16672 WT7      404      MECN     H11      HGA3     0.090000        1.0080           0
     16673 WT7      404      MECN     H12      HGA3     0.090000        1.0080           0
     16674 WT7      404      MECN     H13      HGA3     0.090000        1.0080           0
     16675 WT7      404      MECN     C2       CG1N1    0.360000       12.0110           0
     16676 WT7      404      MECN     N3       NG1T1   -0.460000       14.0070           0
     16677 WT7      407      MECN     C1       CG331   -0.170000       12.0110           0
     16678 WT7      407      MECN     H11      HGA3     0.090000        1.0080           0
     16679 WT7      407      MECN     H12      HGA3     0.090000        1.0080           0
     16680 WT7      407      MECN     H13      HGA3     0.090000        1.0080           0
     16681 WT7      407      MECN     C2       CG1N1    0.360000       12.0110           0
     16682 WT7      407      MECN     N3       NG1T1   -0.460000       14.0070           0
     16683 WT7      412      MECN     C1       CG331   -0.170000       12.0110           0
     16684 WT7      412      MECN     H11      HGA3     0.090000        1.0080           0
     16685 WT7      412      MECN     H12      HGA3     0.090000        1.0080           0
     16686 WT7      412      MECN     H13      HGA3     0.090000        1.0080           0
     16687 WT7      412      MECN     C2       CG1N1    0.360000       12.0110           0
     16688 WT7      412      MECN     N3       NG1T1   -0.460000       14.0070           0
     16689 WT7      415      MECN     C1       CG331   -0.170000       12.0110           0
     16690 WT7      415      MECN     H11      HGA3     0.090000        1.0080           0
     16691 WT7      415      MECN     H12      HGA3     0.090000        1.0080           0
     16692 WT7      415      MECN     H13      HGA3     0.090000        1.0080           0
     16693 WT7      415      MECN     C2       CG1N1    0.360000       12.0110           0
     16694 WT7      415      MECN     N3       NG1T1   -0.460000       14.0070           0
     16695 WT7      416      MECN     C1       CG331   -0.170000       12.0110           0
     16696 WT7      416      MECN     H11      HGA3     0.090000        1.0080           0
     16697 WT7      416      MECN     H12      HGA3     0.090000        1.0080           0
     16698 WT7      416      MECN     H13      HGA3     0.090000        1.0080           0
     16699 WT7      416      MECN     C2       CG1N1    0.360000       12.0110           0
     16700 WT7      416      MECN     N3       NG1T1   -0.460000       14.0070           0
     16701 WT7      430      MECN     C1       CG331   -0.170000       12.0110           0
     16702 WT7      430      MECN     H11      HGA3     0.090000        1.0080           0
     16703 WT7      430      MECN     H12      HGA3     0.090000        1.0080           0
     16704 WT7      430      MECN     H13      HGA3     0.090000        1.0080           0
     16705 WT7      430      MECN     C2       CG1N1    0.360000       12.0110           0
     16706 WT7      430      MECN     N3       NG1T1   -0.460000       14.0070           0
     16707 WT7      439      MECN     C1       CG331   -0.170000       12.0110           0
     16708 WT7      439      MECN     H11      HGA3     0.090000        1.0080           0
     16709 WT7      439      MECN     H12      HGA3     0.090000        1.0080           0
     16710 WT7      439      MECN     H13      HGA3     0.090000        1.0080           0
     16711 WT7      439      MECN     C2       CG1N1    0.360000       12.0110           0
     16712 WT7      439      MECN     N3       NG1T1   -0.460000       14.0070           0
     16713 WT7      442      MECN     C1       CG331   -0.170000       12.0110           0
     16714 WT7      442      MECN     H11      HGA3     0.090000        1.0080           0
     16715 WT7      442      MECN     H12      HGA3     0.090000        1.0080           0
     16716 WT7      442      MECN     H13      HGA3     0.090000        1.0080           0
     16717 WT7      442      MECN     C2       CG1N1    0.360000       12.0110           0
     16718 WT7      442      MECN     N3       NG1T1   -0.460000       14.0070           0
     16719 WT7      444      MECN     C1       CG331   -0.170000       12.0110           0
     16720 WT7      444      MECN     H11      HGA3     0.090000        1.0080           0
     16721 WT7      444      MECN     H12      HGA3     0.090000        1.0080           0
     16722 WT7      444      MECN     H13      HGA3     0.090000        1.0080           0
     16723 WT7      444      MECN     C2       CG1N1    0.360000       12.0110           0
     16724 WT7      444      MECN     N3       NG1T1   -0.460000       14.0070           0
     16725 WT7      451      MECN     C1       CG331   -0.170000       12.0110           0
     16726 WT7      451      MECN     H11      HGA3     0.090000        1.0080           0
     16727 WT7      451      MECN     H12      HGA3     0.090000        1.0080           0
     16728 WT7      451      MECN     H13      HGA3     0.090000        1.0080           0
     16729 WT7      451      MECN     C2       CG1N1    0.360000       12.0110           0
     16730 WT7      451      MECN     N3       NG1T1   -0.460000       14.0070           0
     16731 WT7      465      MECN     C1       CG331   -0.170000       12.0110           0
     16732 WT7      465      MECN     H11      HGA3     0.090000        1.0080           0
     16733 WT7      465      MECN     H12      HGA3     0.090000        1.0080           0
     16734 WT7      465      MECN     H13      HGA3     0.090000        1.0080           0
     16735 WT7      465      MECN     C2       CG1N1    0.360000       12.0110           0
     16736 WT7      465      MECN     N3       NG1T1   -0.460000       14.0070           0
     16737 WT7      469      MECN     C1       CG331   -0.170000       12.0110           0
     16738 WT7      469      MECN     H11      HGA3     0.090000        1.0080           0
     16739 WT7      469      MECN     H12      HGA3     0.090000        1.0080           0
     16740 WT7      469      MECN     H13      HGA3     0.090000        1.0080           0
     16741 WT7      469      MECN     C2       CG1N1    0.360000       12.0110           0
     16742 WT7      469      MECN     N3       NG1T1   -0.460000       14.0070           0
     16743 WT7      478      MECN     C1       CG331   -0.170000       12.0110           0
     16744 WT7      478      MECN     H11      HGA3     0.090000        1.0080           0
     16745 WT7      478      MECN     H12      HGA3     0.090000        1.0080           0
     16746 WT7      478      MECN     H13      HGA3     0.090000        1.0080           0
     16747 WT7      478      MECN     C2       CG1N1    0.360000       12.0110           0
     16748 WT7      478      MECN     N3       NG1T1   -0.460000       14.0070           0
     16749 WT7      484      MECN     C1       CG331   -0.170000       12.0110           0
     16750 WT7      484      MECN     H11      HGA3     0.090000        1.0080           0
     16751 WT7      484      MECN     H12      HGA3     0.090000        1.0080           0
     16752 WT7      484      MECN     H13      HGA3     0.090000        1.0080           0
     16753 WT7      484      MECN     C2       CG1N1    0.360000       12.0110           0
     16754 WT7      484      MECN     N3       NG1T1   -0.460000       14.0070           0
     16755 WT7      508      MECN     C1       CG331   -0.170000       12.0110           0
     16756 WT7      508      MECN     H11      HGA3     0.090000        1.0080           0
     16757 WT7      508      MECN     H12      HGA3     0.090000        1.0080           0
     16758 WT7      508      MECN     H13      HGA3     0.090000        1.0080           0
     16759 WT7      508      MECN     C2       CG1N1    0.360000       12.0110           0
     16760 WT7      508      MECN     N3       NG1T1   -0.460000       14.0070           0
     16761 WT7      512      MECN     C1       CG331   -0.170000       12.0110           0
     16762 WT7      512      MECN     H11      HGA3     0.090000        1.0080           0
     16763 WT7      512      MECN     H12      HGA3     0.090000        1.0080           0
     16764 WT7      512      MECN     H13      HGA3     0.090000        1.0080           0
     16765 WT7      512      MECN     C2       CG1N1    0.360000       12.0110           0
     16766 WT7      512      MECN     N3       NG1T1   -0.460000       14.0070           0
     16767 WT7      517      MECN     C1       CG331   -0.170000       12.0110           0
     16768 WT7      517      MECN     H11      HGA3     0.090000        1.0080           0
     16769 WT7      517      MECN     H12      HGA3     0.090000        1.0080           0
     16770 WT7      517      MECN     H13      HGA3     0.090000        1.0080           0
     16771 WT7      517      MECN     C2       CG1N1    0.360000       12.0110           0
     16772 WT7      517      MECN     N3       NG1T1   -0.460000       14.0070           0
     16773 WT7      518      MECN     C1       CG331   -0.170000       12.0110           0
     16774 WT7      518      MECN     H11      HGA3     0.090000        1.0080           0
     16775 WT7      518      MECN     H12      HGA3     0.090000        1.0080           0
     16776 WT7      518      MECN     H13      HGA3     0.090000        1.0080           0
     16777 WT7      518      MECN     C2       CG1N1    0.360000       12.0110           0
     16778 WT7      518      MECN     N3       NG1T1   -0.460000       14.0070           0
     16779 WT7      526      MECN     C1       CG331   -0.170000       12.0110           0
     16780 WT7      526      MECN     H11      HGA3     0.090000        1.0080           0
     16781 WT7      526      MECN     H12      HGA3     0.090000        1.0080           0
     16782 WT7      526      MECN     H13      HGA3     0.090000        1.0080           0
     16783 WT7      526      MECN     C2       CG1N1    0.360000       12.0110           0
     16784 WT7      526      MECN     N3       NG1T1   -0.460000       14.0070           0
     16785 WT7      527      MECN     C1       CG331   -0.170000       12.0110           0
     16786 WT7      527      MECN     H11      HGA3     0.090000        1.0080           0
     16787 WT7      527      MECN     H12      HGA3     0.090000        1.0080           0
     16788 WT7      527      MECN     H13      HGA3     0.090000        1.0080           0
     16789 WT7      527      MECN     C2       CG1N1    0.360000       12.0110           0
     16790 WT7      527      MECN     N3       NG1T1   -0.460000       14.0070           0
     16791 WT7      541      MECN     C1       CG331   -0.170000       12.0110           0
     16792 WT7      541      MECN     H11      HGA3     0.090000        1.0080           0
     16793 WT7      541      MECN     H12      HGA3     0.090000        1.0080           0
     16794 WT7      541      MECN     H13      HGA3     0.090000        1.0080           0
     16795 WT7      541      MECN     C2       CG1N1    0.360000       12.0110           0
     16796 WT7      541      MECN     N3       NG1T1   -0.460000       14.0070           0
     16797 WT7      542      MECN     C1       CG331   -0.170000       12.0110           0
     16798 WT7      542      MECN     H11      HGA3     0.090000        1.0080           0
     16799 WT7      542      MECN     H12      HGA3     0.090000        1.0080           0
     16800 WT7      542      MECN     H13      HGA3     0.090000        1.0080           0
     16801 WT7      542      MECN     C2       CG1N1    0.360000       12.0110           0
     16802 WT7      542      MECN     N3       NG1T1   -0.460000       14.0070           0
     16803 WT7      544      MECN     C1       CG331   -0.170000       12.0110           0
     16804 WT7      544      MECN     H11      HGA3     0.090000        1.0080           0
     16805 WT7      544      MECN     H12      HGA3     0.090000        1.0080           0
     16806 WT7      544      MECN     H13      HGA3     0.090000        1.0080           0
     16807 WT7      544      MECN     C2       CG1N1    0.360000       12.0110           0
     16808 WT7      544      MECN     N3       NG1T1   -0.460000       14.0070           0
     16809 WT7      546      MECN     C1       CG331   -0.170000       12.0110           0
     16810 WT7      546      MECN     H11      HGA3     0.090000        1.0080           0
     16811 WT7      546      MECN     H12      HGA3     0.090000        1.0080           0
     16812 WT7      546      MECN     H13      HGA3     0.090000        1.0080           0
     16813 WT7      546      MECN     C2       CG1N1    0.360000       12.0110           0
     16814 WT7      546      MECN     N3       NG1T1   -0.460000       14.0070           0
     16815 WT7      556      MECN     C1       CG331   -0.170000       12.0110           0
     16816 WT7      556      MECN     H11      HGA3     0.090000        1.0080           0
     16817 WT7      556      MECN     H12      HGA3     0.090000        1.0080           0
     16818 WT7      556      MECN     H13      HGA3     0.090000        1.0080           0
     16819 WT7      556      MECN     C2       CG1N1    0.360000       12.0110           0
     16820 WT7      556      MECN     N3       NG1T1   -0.460000       14.0070           0
     16821 WT7      558      MECN     C1       CG331   -0.170000       12.0110           0
     16822 WT7      558      MECN     H11      HGA3     0.090000        1.0080           0
     16823 WT7      558      MECN     H12      HGA3     0.090000        1.0080           0
     16824 WT7      558      MECN     H13      HGA3     0.090000        1.0080           0
     16825 WT7      558      MECN     C2       CG1N1    0.360000       12.0110           0
     16826 WT7      558      MECN     N3       NG1T1   -0.460000       14.0070           0
     16827 WT7      566      MECN     C1       CG331   -0.170000       12.0110           0
     16828 WT7      566      MECN     H11      HGA3     0.090000        1.0080           0
     16829 WT7      566      MECN     H12      HGA3     0.090000        1.0080           0
     16830 WT7      566      MECN     H13      HGA3     0.090000        1.0080           0
     16831 WT7      566      MECN     C2       CG1N1    0.360000       12.0110           0
     16832 WT7      566      MECN     N3       NG1T1   -0.460000       14.0070           0
     16833 WT7      569      MECN     C1       CG331   -0.170000       12.0110           0
     16834 WT7      569      MECN     H11      HGA3     0.090000        1.0080           0
     16835 WT7      569      MECN     H12      HGA3     0.090000        1.0080           0
     16836 WT7      569      MECN     H13      HGA3     0.090000        1.0080           0
     16837 WT7      569      MECN     C2       CG1N1    0.360000       12.0110           0
     16838 WT7      569      MECN     N3       NG1T1   -0.460000       14.0070           0
     16839 WT7      584      MECN     C1       CG331   -0.170000       12.0110           0
     16840 WT7      584      MECN     H11      HGA3     0.090000        1.0080           0
     16841 WT7      584      MECN     H12      HGA3     0.090000        1.0080           0
     16842 WT7      584      MECN     H13      HGA3     0.090000        1.0080           0
     16843 WT7      584      MECN     C2       CG1N1    0.360000       12.0110           0
     16844 WT7      584      MECN     N3       NG1T1   -0.460000       14.0070           0
     16845 WT7      585      MECN     C1       CG331   -0.170000       12.0110           0
     16846 WT7      585      MECN     H11      HGA3     0.090000        1.0080           0
     16847 WT7      585      MECN     H12      HGA3     0.090000        1.0080           0
     16848 WT7      585      MECN     H13      HGA3     0.090000        1.0080           0
     16849 WT7      585      MECN     C2       CG1N1    0.360000       12.0110           0
     16850 WT7      585      MECN     N3       NG1T1   -0.460000       14.0070           0
     16851 WT7      594      MECN     C1       CG331   -0.170000       12.0110           0
     16852 WT7      594      MECN     H11      HGA3     0.090000        1.0080           0
     16853 WT7      594      MECN     H12      HGA3     0.090000        1.0080           0
     16854 WT7      594      MECN     H13      HGA3     0.090000        1.0080           0
     16855 WT7      594      MECN     C2       CG1N1    0.360000       12.0110           0
     16856 WT7      594      MECN     N3       NG1T1   -0.460000       14.0070           0
     16857 WT7      599      MECN     C1       CG331   -0.170000       12.0110           0
     16858 WT7      599      MECN     H11      HGA3     0.090000        1.0080           0
     16859 WT7      599      MECN     H12      HGA3     0.090000        1.0080           0
     16860 WT7      599      MECN     H13      HGA3     0.090000        1.0080           0
     16861 WT7      599      MECN     C2       CG1N1    0.360000       12.0110           0
     16862 WT7      599      MECN     N3       NG1T1   -0.460000       14.0070           0
     16863 WT7      601      MECN     C1       CG331   -0.170000       12.0110           0
     16864 WT7      601      MECN     H11      HGA3     0.090000        1.0080           0
     16865 WT7      601      MECN     H12      HGA3     0.090000        1.0080           0
     16866 WT7      601      MECN     H13      HGA3     0.090000        1.0080           0
     16867 WT7      601      MECN     C2       CG1N1    0.360000       12.0110           0
     16868 WT7      601      MECN     N3       NG1T1   -0.460000       14.0070           0
     16869 WT7      605      MECN     C1       CG331   -0.170000       12.0110           0
     16870 WT7      605      MECN     H11      HGA3     0.090000        1.0080           0
     16871 WT7      605      MECN     H12      HGA3     0.090000        1.0080           0
     16872 WT7      605      MECN     H13      HGA3     0.090000        1.0080           0
     16873 WT7      605      MECN     C2       CG1N1    0.360000       12.0110           0
     16874 WT7      605      MECN     N3       NG1T1   -0.460000       14.0070           0
     16875 WT7      611      MECN     C1       CG331   -0.170000       12.0110           0
     16876 WT7      611      MECN     H11      HGA3     0.090000        1.0080           0
     16877 WT7      611      MECN     H12      HGA3     0.090000        1.0080           0
     16878 WT7      611      MECN     H13      HGA3     0.090000        1.0080           0
     16879 WT7      611      MECN     C2       CG1N1    0.360000       12.0110           0
     16880 WT7      611      MECN     N3       NG1T1   -0.460000       14.0070           0
     16881 WT7      617      MECN     C1       CG331   -0.170000       12.0110           0
     16882 WT7      617      MECN     H11      HGA3     0.090000        1.0080           0
     16883 WT7      617      MECN     H12      HGA3     0.090000        1.0080           0
     16884 WT7      617      MECN     H13      HGA3     0.090000        1.0080           0
     16885 WT7      617      MECN     C2       CG1N1    0.360000       12.0110           0
     16886 WT7      617      MECN     N3       NG1T1   -0.460000       14.0070           0
     16887 WT7      623      MECN     C1       CG331   -0.170000       12.0110           0
     16888 WT7      623      MECN     H11      HGA3     0.090000        1.0080           0
     16889 WT7      623      MECN     H12      HGA3     0.090000        1.0080           0
     16890 WT7      623      MECN     H13      HGA3     0.090000        1.0080           0
     16891 WT7      623      MECN     C2       CG1N1    0.360000       12.0110           0
     16892 WT7      623      MECN     N3       NG1T1   -0.460000       14.0070           0
     16893 WT7      625      MECN     C1       CG331   -0.170000       12.0110           0
     16894 WT7      625      MECN     H11      HGA3     0.090000        1.0080           0
     16895 WT7      625      MECN     H12      HGA3     0.090000        1.0080           0
     16896 WT7      625      MECN     H13      HGA3     0.090000        1.0080           0
     16897 WT7      625      MECN     C2       CG1N1    0.360000       12.0110           0
     16898 WT7      625      MECN     N3       NG1T1   -0.460000       14.0070           0
     16899 WT7      633      MECN     C1       CG331   -0.170000       12.0110           0
     16900 WT7      633      MECN     H11      HGA3     0.090000        1.0080           0
     16901 WT7      633      MECN     H12      HGA3     0.090000        1.0080           0
     16902 WT7      633      MECN     H13      HGA3     0.090000        1.0080           0
     16903 WT7      633      MECN     C2       CG1N1    0.360000       12.0110           0
     16904 WT7      633      MECN     N3       NG1T1   -0.460000       14.0070           0
     16905 WT7      641      MECN     C1       CG331   -0.170000       12.0110           0
     16906 WT7      641      MECN     H11      HGA3     0.090000        1.0080           0
     16907 WT7      641      MECN     H12      HGA3     0.090000        1.0080           0
     16908 WT7      641      MECN     H13      HGA3     0.090000        1.0080           0
     16909 WT7      641      MECN     C2       CG1N1    0.360000       12.0110           0
     16910 WT7      641      MECN     N3       NG1T1   -0.460000       14.0070           0
     16911 WT7      644      MECN     C1       CG331   -0.170000       12.0110           0
     16912 WT7      644      MECN     H11      HGA3     0.090000        1.0080           0
     16913 WT7      644      MECN     H12      HGA3     0.090000        1.0080           0
     16914 WT7      644      MECN     H13      HGA3     0.090000        1.0080           0
     16915 WT7      644      MECN     C2       CG1N1    0.360000       12.0110           0
     16916 WT7      644      MECN     N3       NG1T1   -0.460000       14.0070           0
     16917 WT7      646      MECN     C1       CG331   -0.170000       12.0110           0
     16918 WT7      646      MECN     H11      HGA3     0.090000        1.0080           0
     16919 WT7      646      MECN     H12      HGA3     0.090000        1.0080           0
     16920 WT7      646      MECN     H13      HGA3     0.090000        1.0080           0
     16921 WT7      646      MECN     C2       CG1N1    0.360000       12.0110           0
     16922 WT7      646      MECN     N3       NG1T1   -0.460000       14.0070           0
     16923 WT7      655      MECN     C1       CG331   -0.170000       12.0110           0
     16924 WT7      655      MECN     H11      HGA3     0.090000        1.0080           0
     16925 WT7      655      MECN     H12      HGA3     0.090000        1.0080           0
     16926 WT7      655      MECN     H13      HGA3     0.090000        1.0080           0
     16927 WT7      655      MECN     C2       CG1N1    0.360000       12.0110           0
     16928 WT7      655      MECN     N3       NG1T1   -0.460000       14.0070           0
     16929 WT7      656      MECN     C1       CG331   -0.170000       12.0110           0
     16930 WT7      656      MECN     H11      HGA3     0.090000        1.0080           0
     16931 WT7      656      MECN     H12      HGA3     0.090000        1.0080           0
     16932 WT7      656      MECN     H13      HGA3     0.090000        1.0080           0
     16933 WT7      656      MECN     C2       CG1N1    0.360000       12.0110           0
     16934 WT7      656      MECN     N3       NG1T1   -0.460000       14.0070           0
     16935 WT7      657      MECN     C1       CG331   -0.170000       12.0110           0
     16936 WT7      657      MECN     H11      HGA3     0.090000        1.0080           0
     16937 WT7      657      MECN     H12      HGA3     0.090000        1.0080           0
     16938 WT7      657      MECN     H13      HGA3     0.090000        1.0080           0
     16939 WT7      657      MECN     C2       CG1N1    0.360000       12.0110           0
     16940 WT7      657      MECN     N3       NG1T1   -0.460000       14.0070           0
     16941 WT7      664      MECN     C1       CG331   -0.170000       12.0110           0
     16942 WT7      664      MECN     H11      HGA3     0.090000        1.0080           0
     16943 WT7      664      MECN     H12      HGA3     0.090000        1.0080           0
     16944 WT7      664      MECN     H13      HGA3     0.090000        1.0080           0
     16945 WT7      664      MECN     C2       CG1N1    0.360000       12.0110           0
     16946 WT7      664      MECN     N3       NG1T1   -0.460000       14.0070           0
     16947 WT7      667      MECN     C1       CG331   -0.170000       12.0110           0
     16948 WT7      667      MECN     H11      HGA3     0.090000        1.0080           0
     16949 WT7      667      MECN     H12      HGA3     0.090000        1.0080           0
     16950 WT7      667      MECN     H13      HGA3     0.090000        1.0080           0
     16951 WT7      667      MECN     C2       CG1N1    0.360000       12.0110           0
     16952 WT7      667      MECN     N3       NG1T1   -0.460000       14.0070           0
     16953 WT7      672      MECN     C1       CG331   -0.170000       12.0110           0
     16954 WT7      672      MECN     H11      HGA3     0.090000        1.0080           0
     16955 WT7      672      MECN     H12      HGA3     0.090000        1.0080           0
     16956 WT7      672      MECN     H13      HGA3     0.090000        1.0080           0
     16957 WT7      672      MECN     C2       CG1N1    0.360000       12.0110           0
     16958 WT7      672      MECN     N3       NG1T1   -0.460000       14.0070           0
     16959 WT7      674      MECN     C1       CG331   -0.170000       12.0110           0
     16960 WT7      674      MECN     H11      HGA3     0.090000        1.0080           0
     16961 WT7      674      MECN     H12      HGA3     0.090000        1.0080           0
     16962 WT7      674      MECN     H13      HGA3     0.090000        1.0080           0
     16963 WT7      674      MECN     C2       CG1N1    0.360000       12.0110           0
     16964 WT7      674      MECN     N3       NG1T1   -0.460000       14.0070           0
     16965 WT7      678      MECN     C1       CG331   -0.170000       12.0110           0
     16966 WT7      678      MECN     H11      HGA3     0.090000        1.0080           0
     16967 WT7      678      MECN     H12      HGA3     0.090000        1.0080           0
     16968 WT7      678      MECN     H13      HGA3     0.090000        1.0080           0
     16969 WT7      678      MECN     C2       CG1N1    0.360000       12.0110           0
     16970 WT7      678      MECN     N3       NG1T1   -0.460000       14.0070           0
     16971 WT7      680      MECN     C1       CG331   -0.170000       12.0110           0
     16972 WT7      680      MECN     H11      HGA3     0.090000        1.0080           0
     16973 WT7      680      MECN     H12      HGA3     0.090000        1.0080           0
     16974 WT7      680      MECN     H13      HGA3     0.090000        1.0080           0
     16975 WT7      680      MECN     C2       CG1N1    0.360000       12.0110           0
     16976 WT7      680      MECN     N3       NG1T1   -0.460000       14.0070           0
     16977 WT7      681      MECN     C1       CG331   -0.170000       12.0110           0
     16978 WT7      681      MECN     H11      HGA3     0.090000        1.0080           0
     16979 WT7      681      MECN     H12      HGA3     0.090000        1.0080           0
     16980 WT7      681      MECN     H13      HGA3     0.090000        1.0080           0
     16981 WT7      681      MECN     C2       CG1N1    0.360000       12.0110           0
     16982 WT7      681      MECN     N3       NG1T1   -0.460000       14.0070           0
     16983 WT7      691      MECN     C1       CG331   -0.170000       12.0110           0
     16984 WT7      691      MECN     H11      HGA3     0.090000        1.0080           0
     16985 WT7      691      MECN     H12      HGA3     0.090000        1.0080           0
     16986 WT7      691      MECN     H13      HGA3     0.090000        1.0080           0
     16987 WT7      691      MECN     C2       CG1N1    0.360000       12.0110           0
     16988 WT7      691      MECN     N3       NG1T1   -0.460000       14.0070           0
     16989 WT7      696      MECN     C1       CG331   -0.170000       12.0110           0
     16990 WT7      696      MECN     H11      HGA3     0.090000        1.0080           0
     16991 WT7      696      MECN     H12      HGA3     0.090000        1.0080           0
     16992 WT7      696      MECN     H13      HGA3     0.090000        1.0080           0
     16993 WT7      696      MECN     C2       CG1N1    0.360000       12.0110           0
     16994 WT7      696      MECN     N3       NG1T1   -0.460000       14.0070           0
     16995 WT7      710      MECN     C1       CG331   -0.170000       12.0110           0
     16996 WT7      710      MECN     H11      HGA3     0.090000        1.0080           0
     16997 WT7      710      MECN     H12      HGA3     0.090000        1.0080           0
     16998 WT7      710      MECN     H13      HGA3     0.090000        1.0080           0
     16999 WT7      710      MECN     C2       CG1N1    0.360000       12.0110           0
     17000 WT7      710      MECN     N3       NG1T1   -0.460000       14.0070           0
     17001 WT7      711      MECN     C1       CG331   -0.170000       12.0110           0
     17002 WT7      711      MECN     H11      HGA3     0.090000        1.0080           0
     17003 WT7      711      MECN     H12      HGA3     0.090000        1.0080           0
     17004 WT7      711      MECN     H13      HGA3     0.090000        1.0080           0
     17005 WT7      711      MECN     C2       CG1N1    0.360000       12.0110           0
     17006 WT7      711      MECN     N3       NG1T1   -0.460000       14.0070           0
     17007 WT7      714      MECN     C1       CG331   -0.170000       12.0110           0
     17008 WT7      714      MECN     H11      HGA3     0.090000        1.0080           0
     17009 WT7      714      MECN     H12      HGA3     0.090000        1.0080           0
     17010 WT7      714      MECN     H13      HGA3     0.090000        1.0080           0
     17011 WT7      714      MECN     C2       CG1N1    0.360000       12.0110           0
     17012 WT7      714      MECN     N3       NG1T1   -0.460000       14.0070           0
     17013 WT7      724      MECN     C1       CG331   -0.170000       12.0110           0
     17014 WT7      724      MECN     H11      HGA3     0.090000        1.0080           0
     17015 WT7      724      MECN     H12      HGA3     0.090000        1.0080           0
     17016 WT7      724      MECN     H13      HGA3     0.090000        1.0080           0
     17017 WT7      724      MECN     C2       CG1N1    0.360000       12.0110           0
     17018 WT7      724      MECN     N3       NG1T1   -0.460000       14.0070           0
     17019 WT7      725      MECN     C1       CG331   -0.170000       12.0110           0
     17020 WT7      725      MECN     H11      HGA3     0.090000        1.0080           0
     17021 WT7      725      MECN     H12      HGA3     0.090000        1.0080           0
     17022 WT7      725      MECN     H13      HGA3     0.090000        1.0080           0
     17023 WT7      725      MECN     C2       CG1N1    0.360000       12.0110           0
     17024 WT7      725      MECN     N3       NG1T1   -0.460000       14.0070           0
     17025 WT7      727      MECN     C1       CG331   -0.170000       12.0110           0
     17026 WT7      727      MECN     H11      HGA3     0.090000        1.0080           0
     17027 WT7      727      MECN     H12      HGA3     0.090000        1.0080           0
     17028 WT7      727      MECN     H13      HGA3     0.090000        1.0080           0
     17029 WT7      727      MECN     C2       CG1N1    0.360000       12.0110           0
     17030 WT7      727      MECN     N3       NG1T1   -0.460000       14.0070           0
     17031 WT7      751      MECN     C1       CG331   -0.170000       12.0110           0
     17032 WT7      751      MECN     H11      HGA3     0.090000        1.0080           0
     17033 WT7      751      MECN     H12      HGA3     0.090000        1.0080           0
     17034 WT7      751      MECN     H13      HGA3     0.090000        1.0080           0
     17035 WT7      751      MECN     C2       CG1N1    0.360000       12.0110           0
     17036 WT7      751      MECN     N3       NG1T1   -0.460000       14.0070           0
     17037 WT7      771      MECN     C1       CG331   -0.170000       12.0110           0
     17038 WT7      771      MECN     H11      HGA3     0.090000        1.0080           0
     17039 WT7      771      MECN     H12      HGA3     0.090000        1.0080           0
     17040 WT7      771      MECN     H13      HGA3     0.090000        1.0080           0
     17041 WT7      771      MECN     C2       CG1N1    0.360000       12.0110           0
     17042 WT7      771      MECN     N3       NG1T1   -0.460000       14.0070           0
     17043 WT7      774      MECN     C1       CG331   -0.170000       12.0110           0
     17044 WT7      774      MECN     H11      HGA3     0.090000        1.0080           0
     17045 WT7      774      MECN     H12      HGA3     0.090000        1.0080           0
     17046 WT7      774      MECN     H13      HGA3     0.090000        1.0080           0
     17047 WT7      774      MECN     C2       CG1N1    0.360000       12.0110           0
     17048 WT7      774      MECN     N3       NG1T1   -0.460000       14.0070           0
     17049 WT7      788      MECN     C1       CG331   -0.170000       12.0110           0
     17050 WT7      788      MECN     H11      HGA3     0.090000        1.0080           0
     17051 WT7      788      MECN     H12      HGA3     0.090000        1.0080           0
     17052 WT7      788      MECN     H13      HGA3     0.090000        1.0080           0
     17053 WT7      788      MECN     C2       CG1N1    0.360000       12.0110           0
     17054 WT7      788      MECN     N3       NG1T1   -0.460000       14.0070           0
     17055 WT7      793      MECN     C1       CG331   -0.170000       12.0110           0
     17056 WT7      793      MECN     H11      HGA3     0.090000        1.0080           0
     17057 WT7      793      MECN     H12      HGA3     0.090000        1.0080           0
     17058 WT7      793      MECN     H13      HGA3     0.090000        1.0080           0
     17059 WT7      793      MECN     C2       CG1N1    0.360000       12.0110           0
     17060 WT7      793      MECN     N3       NG1T1   -0.460000       14.0070           0
     17061 WT7      794      MECN     C1       CG331   -0.170000       12.0110           0
     17062 WT7      794      MECN     H11      HGA3     0.090000        1.0080           0
     17063 WT7      794      MECN     H12      HGA3     0.090000        1.0080           0
     17064 WT7      794      MECN     H13      HGA3     0.090000        1.0080           0
     17065 WT7      794      MECN     C2       CG1N1    0.360000       12.0110           0
     17066 WT7      794      MECN     N3       NG1T1   -0.460000       14.0070           0
     17067 WT7      807      MECN     C1       CG331   -0.170000       12.0110           0
     17068 WT7      807      MECN     H11      HGA3     0.090000        1.0080           0
     17069 WT7      807      MECN     H12      HGA3     0.090000        1.0080           0
     17070 WT7      807      MECN     H13      HGA3     0.090000        1.0080           0
     17071 WT7      807      MECN     C2       CG1N1    0.360000       12.0110           0
     17072 WT7      807      MECN     N3       NG1T1   -0.460000       14.0070           0
     17073 WT7      808      MECN     C1       CG331   -0.170000       12.0110           0
     17074 WT7      808      MECN     H11      HGA3     0.090000        1.0080           0
     17075 WT7      808      MECN     H12      HGA3     0.090000        1.0080           0
     17076 WT7      808      MECN     H13      HGA3     0.090000        1.0080           0
     17077 WT7      808      MECN     C2       CG1N1    0.360000       12.0110           0
     17078 WT7      808      MECN     N3       NG1T1   -0.460000       14.0070           0
     17079 WT7      832      MECN     C1       CG331   -0.170000       12.0110           0
     17080 WT7      832      MECN     H11      HGA3     0.090000        1.0080           0
     17081 WT7      832      MECN     H12      HGA3     0.090000        1.0080           0
     17082 WT7      832      MECN     H13      HGA3     0.090000        1.0080           0
     17083 WT7      832      MECN     C2       CG1N1    0.360000       12.0110           0
     17084 WT7      832      MECN     N3       NG1T1   -0.460000       14.0070           0
     17085 WT7      839      MECN     C1       CG331   -0.170000       12.0110           0
     17086 WT7      839      MECN     H11      HGA3     0.090000        1.0080           0
     17087 WT7      839      MECN     H12      HGA3     0.090000        1.0080           0
     17088 WT7      839      MECN     H13      HGA3     0.090000        1.0080           0
     17089 WT7      839      MECN     C2       CG1N1    0.360000       12.0110           0
     17090 WT7      839      MECN     N3       NG1T1   -0.460000       14.0070           0
     17091 WT7      841      MECN     C1       CG331   -0.170000       12.0110           0
     17092 WT7      841      MECN     H11      HGA3     0.090000        1.0080           0
     17093 WT7      841      MECN     H12      HGA3     0.090000        1.0080           0
     17094 WT7      841      MECN     H13      HGA3     0.090000        1.0080           0
     17095 WT7      841      MECN     C2       CG1N1    0.360000       12.0110           0
     17096 WT7      841      MECN     N3       NG1T1   -0.460000       14.0070           0
     17097 WT7      846      MECN     C1       CG331   -0.170000       12.0110           0
     17098 WT7      846      MECN     H11      HGA3     0.090000        1.0080           0
     17099 WT7      846      MECN     H12      HGA3     0.090000        1.0080           0
     17100 WT7      846      MECN     H13      HGA3     0.090000        1.0080           0
     17101 WT7      846      MECN     C2       CG1N1    0.360000       12.0110           0
     17102 WT7      846      MECN     N3       NG1T1   -0.460000       14.0070           0
     17103 WT7      848      MECN     C1       CG331   -0.170000       12.0110           0
     17104 WT7      848      MECN     H11      HGA3     0.090000        1.0080           0
     17105 WT7      848      MECN     H12      HGA3     0.090000        1.0080           0
     17106 WT7      848      MECN     H13      HGA3     0.090000        1.0080           0
     17107 WT7      848      MECN     C2       CG1N1    0.360000       12.0110           0
     17108 WT7      848      MECN     N3       NG1T1   -0.460000       14.0070           0
     17109 WT7      862      MECN     C1       CG331   -0.170000       12.0110           0
     17110 WT7      862      MECN     H11      HGA3     0.090000        1.0080           0
     17111 WT7      862      MECN     H12      HGA3     0.090000        1.0080           0
     17112 WT7      862      MECN     H13      HGA3     0.090000        1.0080           0
     17113 WT7      862      MECN     C2       CG1N1    0.360000       12.0110           0
     17114 WT7      862      MECN     N3       NG1T1   -0.460000       14.0070           0
     17115 WT7      863      MECN     C1       CG331   -0.170000       12.0110           0
     17116 WT7      863      MECN     H11      HGA3     0.090000        1.0080           0
     17117 WT7      863      MECN     H12      HGA3     0.090000        1.0080           0
     17118 WT7      863      MECN     H13      HGA3     0.090000        1.0080           0
     17119 WT7      863      MECN     C2       CG1N1    0.360000       12.0110           0
     17120 WT7      863      MECN     N3       NG1T1   -0.460000       14.0070           0
     17121 WT7      875      MECN     C1       CG331   -0.170000       12.0110           0
     17122 WT7      875      MECN     H11      HGA3     0.090000        1.0080           0
     17123 WT7      875      MECN     H12      HGA3     0.090000        1.0080           0
     17124 WT7      875      MECN     H13      HGA3     0.090000        1.0080           0
     17125 WT7      875      MECN     C2       CG1N1    0.360000       12.0110           0
     17126 WT7      875      MECN     N3       NG1T1   -0.460000       14.0070           0
     17127 WT7      892      MECN     C1       CG331   -0.170000       12.0110           0
     17128 WT7      892      MECN     H11      HGA3     0.090000        1.0080           0
     17129 WT7      892      MECN     H12      HGA3     0.090000        1.0080           0
     17130 WT7      892      MECN     H13      HGA3     0.090000        1.0080           0
     17131 WT7      892      MECN     C2       CG1N1    0.360000       12.0110           0
     17132 WT7      892      MECN     N3       NG1T1   -0.460000       14.0070           0
     17133 WT7      895      MECN     C1       CG331   -0.170000       12.0110           0
     17134 WT7      895      MECN     H11      HGA3     0.090000        1.0080           0
     17135 WT7      895      MECN     H12      HGA3     0.090000        1.0080           0
     17136 WT7      895      MECN     H13      HGA3     0.090000        1.0080           0
     17137 WT7      895      MECN     C2       CG1N1    0.360000       12.0110           0
     17138 WT7      895      MECN     N3       NG1T1   -0.460000       14.0070           0
     17139 WT7      898      MECN     C1       CG331   -0.170000       12.0110           0
     17140 WT7      898      MECN     H11      HGA3     0.090000        1.0080           0
     17141 WT7      898      MECN     H12      HGA3     0.090000        1.0080           0
     17142 WT7      898      MECN     H13      HGA3     0.090000        1.0080           0
     17143 WT7      898      MECN     C2       CG1N1    0.360000       12.0110           0
     17144 WT7      898      MECN     N3       NG1T1   -0.460000       14.0070           0
     17145 WT7      902      MECN     C1       CG331   -0.170000       12.0110           0
     17146 WT7      902      MECN     H11      HGA3     0.090000        1.0080           0
     17147 WT7      902      MECN     H12      HGA3     0.090000        1.0080           0
     17148 WT7      902      MECN     H13      HGA3     0.090000        1.0080           0
     17149 WT7      902      MECN     C2       CG1N1    0.360000       12.0110           0
     17150 WT7      902      MECN     N3       NG1T1   -0.460000       14.0070           0
     17151 WT7      908      MECN     C1       CG331   -0.170000       12.0110           0
     17152 WT7      908      MECN     H11      HGA3     0.090000        1.0080           0
     17153 WT7      908      MECN     H12      HGA3     0.090000        1.0080           0
     17154 WT7      908      MECN     H13      HGA3     0.090000        1.0080           0
     17155 WT7      908      MECN     C2       CG1N1    0.360000       12.0110           0
     17156 WT7      908      MECN     N3       NG1T1   -0.460000       14.0070           0
     17157 WT7      909      MECN     C1       CG331   -0.170000       12.0110           0
     17158 WT7      909      MECN     H11      HGA3     0.090000        1.0080           0
     17159 WT7      909      MECN     H12      HGA3     0.090000        1.0080           0
     17160 WT7      909      MECN     H13      HGA3     0.090000        1.0080           0
     17161 WT7      909      MECN     C2       CG1N1    0.360000       12.0110           0
     17162 WT7      909      MECN     N3       NG1T1   -0.460000       14.0070           0
     17163 WT7      913      MECN     C1       CG331   -0.170000       12.0110           0
     17164 WT7      913      MECN     H11      HGA3     0.090000        1.0080           0
     17165 WT7      913      MECN     H12      HGA3     0.090000        1.0080           0
     17166 WT7      913      MECN     H13      HGA3     0.090000        1.0080           0
     17167 WT7      913      MECN     C2       CG1N1    0.360000       12.0110           0
     17168 WT7      913      MECN     N3       NG1T1   -0.460000       14.0070           0
     17169 WT7      914      MECN     C1       CG331   -0.170000       12.0110           0
     17170 WT7      914      MECN     H11      HGA3     0.090000        1.0080           0
     17171 WT7      914      MECN     H12      HGA3     0.090000        1.0080           0
     17172 WT7      914      MECN     H13      HGA3     0.090000        1.0080           0
     17173 WT7      914      MECN     C2       CG1N1    0.360000       12.0110           0
     17174 WT7      914      MECN     N3       NG1T1   -0.460000       14.0070           0
     17175 WT7      916      MECN     C1       CG331   -0.170000       12.0110           0
     17176 WT7      916      MECN     H11      HGA3     0.090000        1.0080           0
     17177 WT7      916      MECN     H12      HGA3     0.090000        1.0080           0
     17178 WT7      916      MECN     H13      HGA3     0.090000        1.0080           0
     17179 WT7      916      MECN     C2       CG1N1    0.360000       12.0110           0
     17180 WT7      916      MECN     N3       NG1T1   -0.460000       14.0070           0
     17181 WT7      918      MECN     C1       CG331   -0.170000       12.0110           0
     17182 WT7      918      MECN     H11      HGA3     0.090000        1.0080           0
     17183 WT7      918      MECN     H12      HGA3     0.090000        1.0080           0
     17184 WT7      918      MECN     H13      HGA3     0.090000        1.0080           0
     17185 WT7      918      MECN     C2       CG1N1    0.360000       12.0110           0
     17186 WT7      918      MECN     N3       NG1T1   -0.460000       14.0070           0
     17187 WT7      919      MECN     C1       CG331   -0.170000       12.0110           0
     17188 WT7      919      MECN     H11      HGA3     0.090000        1.0080           0
     17189 WT7      919      MECN     H12      HGA3     0.090000        1.0080           0
     17190 WT7      919      MECN     H13      HGA3     0.090000        1.0080           0
     17191 WT7      919      MECN     C2       CG1N1    0.360000       12.0110           0
     17192 WT7      919      MECN     N3       NG1T1   -0.460000       14.0070           0
     17193 WT7      922      MECN     C1       CG331   -0.170000       12.0110           0
     17194 WT7      922      MECN     H11      HGA3     0.090000        1.0080           0
     17195 WT7      922      MECN     H12      HGA3     0.090000        1.0080           0
     17196 WT7      922      MECN     H13      HGA3     0.090000        1.0080           0
     17197 WT7      922      MECN     C2       CG1N1    0.360000       12.0110           0
     17198 WT7      922      MECN     N3       NG1T1   -0.460000       14.0070           0
     17199 WT7      923      MECN     C1       CG331   -0.170000       12.0110           0
     17200 WT7      923      MECN     H11      HGA3     0.090000        1.0080           0
     17201 WT7      923      MECN     H12      HGA3     0.090000        1.0080           0
     17202 WT7      923      MECN     H13      HGA3     0.090000        1.0080           0
     17203 WT7      923      MECN     C2       CG1N1    0.360000       12.0110           0
     17204 WT7      923      MECN     N3       NG1T1   -0.460000       14.0070           0
     17205 WT7      935      MECN     C1       CG331   -0.170000       12.0110           0
     17206 WT7      935      MECN     H11      HGA3     0.090000        1.0080           0
     17207 WT7      935      MECN     H12      HGA3     0.090000        1.0080           0
     17208 WT7      935      MECN     H13      HGA3     0.090000        1.0080           0
     17209 WT7      935      MECN     C2       CG1N1    0.360000       12.0110           0
     17210 WT7      935      MECN     N3       NG1T1   -0.460000       14.0070           0
     17211 WT7      938      MECN     C1       CG331   -0.170000       12.0110           0
     17212 WT7      938      MECN     H11      HGA3     0.090000        1.0080           0
     17213 WT7      938      MECN     H12      HGA3     0.090000        1.0080           0
     17214 WT7      938      MECN     H13      HGA3     0.090000        1.0080           0
     17215 WT7      938      MECN     C2       CG1N1    0.360000       12.0110           0
     17216 WT7      938      MECN     N3       NG1T1   -0.460000       14.0070           0
     17217 WT7      941      MECN     C1       CG331   -0.170000       12.0110           0
     17218 WT7      941      MECN     H11      HGA3     0.090000        1.0080           0
     17219 WT7      941      MECN     H12      HGA3     0.090000        1.0080           0
     17220 WT7      941      MECN     H13      HGA3     0.090000        1.0080           0
     17221 WT7      941      MECN     C2       CG1N1    0.360000       12.0110           0
     17222 WT7      941      MECN     N3       NG1T1   -0.460000       14.0070           0
     17223 WT7      943      MECN     C1       CG331   -0.170000       12.0110           0
     17224 WT7      943      MECN     H11      HGA3     0.090000        1.0080           0
     17225 WT7      943      MECN     H12      HGA3     0.090000        1.0080           0
     17226 WT7      943      MECN     H13      HGA3     0.090000        1.0080           0
     17227 WT7      943      MECN     C2       CG1N1    0.360000       12.0110           0
     17228 WT7      943      MECN     N3       NG1T1   -0.460000       14.0070           0
     17229 WT7      945      MECN     C1       CG331   -0.170000       12.0110           0
     17230 WT7      945      MECN     H11      HGA3     0.090000        1.0080           0
     17231 WT7      945      MECN     H12      HGA3     0.090000        1.0080           0
     17232 WT7      945      MECN     H13      HGA3     0.090000        1.0080           0
     17233 WT7      945      MECN     C2       CG1N1    0.360000       12.0110           0
     17234 WT7      945      MECN     N3       NG1T1   -0.460000       14.0070           0
     17235 WT7      949      MECN     C1       CG331   -0.170000       12.0110           0
     17236 WT7      949      MECN     H11      HGA3     0.090000        1.0080           0
     17237 WT7      949      MECN     H12      HGA3     0.090000        1.0080           0
     17238 WT7      949      MECN     H13      HGA3     0.090000        1.0080           0
     17239 WT7      949      MECN     C2       CG1N1    0.360000       12.0110           0
     17240 WT7      949      MECN     N3       NG1T1   -0.460000       14.0070           0
     17241 WT7      957      MECN     C1       CG331   -0.170000       12.0110           0
     17242 WT7      957      MECN     H11      HGA3     0.090000        1.0080           0
     17243 WT7      957      MECN     H12      HGA3     0.090000        1.0080           0
     17244 WT7      957      MECN     H13      HGA3     0.090000        1.0080           0
     17245 WT7      957      MECN     C2       CG1N1    0.360000       12.0110           0
     17246 WT7      957      MECN     N3       NG1T1   -0.460000       14.0070           0
     17247 WT7      968      MECN     C1       CG331   -0.170000       12.0110           0
     17248 WT7      968      MECN     H11      HGA3     0.090000        1.0080           0
     17249 WT7      968      MECN     H12      HGA3     0.090000        1.0080           0
     17250 WT7      968      MECN     H13      HGA3     0.090000        1.0080           0
     17251 WT7      968      MECN     C2       CG1N1    0.360000       12.0110           0
     17252 WT7      968      MECN     N3       NG1T1   -0.460000       14.0070           0
     17253 WT7      982      MECN     C1       CG331   -0.170000       12.0110           0
     17254 WT7      982      MECN     H11      HGA3     0.090000        1.0080           0
     17255 WT7      982      MECN     H12      HGA3     0.090000        1.0080           0
     17256 WT7      982      MECN     H13      HGA3     0.090000        1.0080           0
     17257 WT7      982      MECN     C2       CG1N1    0.360000       12.0110           0
     17258 WT7      982      MECN     N3       NG1T1   -0.460000       14.0070           0
     17259 WT7      987      MECN     C1       CG331   -0.170000       12.0110           0
     17260 WT7      987      MECN     H11      HGA3     0.090000        1.0080           0
     17261 WT7      987      MECN     H12      HGA3     0.090000        1.0080           0
     17262 WT7      987      MECN     H13      HGA3     0.090000        1.0080           0
     17263 WT7      987      MECN     C2       CG1N1    0.360000       12.0110           0
     17264 WT7      987      MECN     N3       NG1T1   -0.460000       14.0070           0
     17265 WT7      988      MECN     C1       CG331   -0.170000       12.0110           0
     17266 WT7      988      MECN     H11      HGA3     0.090000        1.0080           0
     17267 WT7      988      MECN     H12      HGA3     0.090000        1.0080           0
     17268 WT7      988      MECN     H13      HGA3     0.090000        1.0080           0
     17269 WT7      988      MECN     C2       CG1N1    0.360000       12.0110           0
     17270 WT7      988      MECN     N3       NG1T1   -0.460000       14.0070           0
     17271 WT7      989      MECN     C1       CG331   -0.170000       12.0110           0
     17272 WT7      989      MECN     H11      HGA3     0.090000        1.0080           0
     17273 WT7      989      MECN     H12      HGA3     0.090000        1.0080           0
     17274 WT7      989      MECN     H13      HGA3     0.090000        1.0080           0
     17275 WT7      989      MECN     C2       CG1N1    0.360000       12.0110           0
     17276 WT7      989      MECN     N3       NG1T1   -0.460000       14.0070           0
     17277 WT7      990      MECN     C1       CG331   -0.170000       12.0110           0
     17278 WT7      990      MECN     H11      HGA3     0.090000        1.0080           0
     17279 WT7      990      MECN     H12      HGA3     0.090000        1.0080           0
     17280 WT7      990      MECN     H13      HGA3     0.090000        1.0080           0
     17281 WT7      990      MECN     C2       CG1N1    0.360000       12.0110           0
     17282 WT7      990      MECN     N3       NG1T1   -0.460000       14.0070           0
     17283 WT7      994      MECN     C1       CG331   -0.170000       12.0110           0
     17284 WT7      994      MECN     H11      HGA3     0.090000        1.0080           0
     17285 WT7      994      MECN     H12      HGA3     0.090000        1.0080           0
     17286 WT7      994      MECN     H13      HGA3     0.090000        1.0080           0
     17287 WT7      994      MECN     C2       CG1N1    0.360000       12.0110           0
     17288 WT7      994      MECN     N3       NG1T1   -0.460000       14.0070           0
     17289 WT7      999      MECN     C1       CG331   -0.170000       12.0110           0
     17290 WT7      999      MECN     H11      HGA3     0.090000        1.0080           0
     17291 WT7      999      MECN     H12      HGA3     0.090000        1.0080           0
     17292 WT7      999      MECN     H13      HGA3     0.090000        1.0080           0
     17293 WT7      999      MECN     C2       CG1N1    0.360000       12.0110           0
     17294 WT7      999      MECN     N3       NG1T1   -0.460000       14.0070           0
     17295 WT7      1004     MECN     C1       CG331   -0.170000       12.0110           0
     17296 WT7      1004     MECN     H11      HGA3     0.090000        1.0080           0
     17297 WT7      1004     MECN     H12      HGA3     0.090000        1.0080           0
     17298 WT7      1004     MECN     H13      HGA3     0.090000        1.0080           0
     17299 WT7      1004     MECN     C2       CG1N1    0.360000       12.0110           0
     17300 WT7      1004     MECN     N3       NG1T1   -0.460000       14.0070           0
     17301 WT7      1010     MECN     C1       CG331   -0.170000       12.0110           0
     17302 WT7      1010     MECN     H11      HGA3     0.090000        1.0080           0
     17303 WT7      1010     MECN     H12      HGA3     0.090000        1.0080           0
     17304 WT7      1010     MECN     H13      HGA3     0.090000        1.0080           0
     17305 WT7      1010     MECN     C2       CG1N1    0.360000       12.0110           0
     17306 WT7      1010     MECN     N3       NG1T1   -0.460000       14.0070           0
     17307 WT7      1015     MECN     C1       CG331   -0.170000       12.0110           0
     17308 WT7      1015     MECN     H11      HGA3     0.090000        1.0080           0
     17309 WT7      1015     MECN     H12      HGA3     0.090000        1.0080           0
     17310 WT7      1015     MECN     H13      HGA3     0.090000        1.0080           0
     17311 WT7      1015     MECN     C2       CG1N1    0.360000       12.0110           0
     17312 WT7      1015     MECN     N3       NG1T1   -0.460000       14.0070           0
     17313 WT7      1019     MECN     C1       CG331   -0.170000       12.0110           0
     17314 WT7      1019     MECN     H11      HGA3     0.090000        1.0080           0
     17315 WT7      1019     MECN     H12      HGA3     0.090000        1.0080           0
     17316 WT7      1019     MECN     H13      HGA3     0.090000        1.0080           0
     17317 WT7      1019     MECN     C2       CG1N1    0.360000       12.0110           0
     17318 WT7      1019     MECN     N3       NG1T1   -0.460000       14.0070           0
     17319 WT7      1020     MECN     C1       CG331   -0.170000       12.0110           0
     17320 WT7      1020     MECN     H11      HGA3     0.090000        1.0080           0
     17321 WT7      1020     MECN     H12      HGA3     0.090000        1.0080           0
     17322 WT7      1020     MECN     H13      HGA3     0.090000        1.0080           0
     17323 WT7      1020     MECN     C2       CG1N1    0.360000       12.0110           0
     17324 WT7      1020     MECN     N3       NG1T1   -0.460000       14.0070           0
     17325 WT7      1023     MECN     C1       CG331   -0.170000       12.0110           0
     17326 WT7      1023     MECN     H11      HGA3     0.090000        1.0080           0
     17327 WT7      1023     MECN     H12      HGA3     0.090000        1.0080           0
     17328 WT7      1023     MECN     H13      HGA3     0.090000        1.0080           0
     17329 WT7      1023     MECN     C2       CG1N1    0.360000       12.0110           0
     17330 WT7      1023     MECN     N3       NG1T1   -0.460000       14.0070           0
     17331 WT7      1030     MECN     C1       CG331   -0.170000       12.0110           0
     17332 WT7      1030     MECN     H11      HGA3     0.090000        1.0080           0
     17333 WT7      1030     MECN     H12      HGA3     0.090000        1.0080           0
     17334 WT7      1030     MECN     H13      HGA3     0.090000        1.0080           0
     17335 WT7      1030     MECN     C2       CG1N1    0.360000       12.0110           0
     17336 WT7      1030     MECN     N3       NG1T1   -0.460000       14.0070           0
     17337 WT7      1036     MECN     C1       CG331   -0.170000       12.0110           0
     17338 WT7      1036     MECN     H11      HGA3     0.090000        1.0080           0
     17339 WT7      1036     MECN     H12      HGA3     0.090000        1.0080           0
     17340 WT7      1036     MECN     H13      HGA3     0.090000        1.0080           0
     17341 WT7      1036     MECN     C2       CG1N1    0.360000       12.0110           0
     17342 WT7      1036     MECN     N3       NG1T1   -0.460000       14.0070           0
     17343 WT7      1048     MECN     C1       CG331   -0.170000       12.0110           0
     17344 WT7      1048     MECN     H11      HGA3     0.090000        1.0080           0
     17345 WT7      1048     MECN     H12      HGA3     0.090000        1.0080           0
     17346 WT7      1048     MECN     H13      HGA3     0.090000        1.0080           0
     17347 WT7      1048     MECN     C2       CG1N1    0.360000       12.0110           0
     17348 WT7      1048     MECN     N3       NG1T1   -0.460000       14.0070           0
     17349 WT7      1053     MECN     C1       CG331   -0.170000       12.0110           0
     17350 WT7      1053     MECN     H11      HGA3     0.090000        1.0080           0
     17351 WT7      1053     MECN     H12      HGA3     0.090000        1.0080           0
     17352 WT7      1053     MECN     H13      HGA3     0.090000        1.0080           0
     17353 WT7      1053     MECN     C2       CG1N1    0.360000       12.0110           0
     17354 WT7      1053     MECN     N3       NG1T1   -0.460000       14.0070           0
     17355 WT7      1062     MECN     C1       CG331   -0.170000       12.0110           0
     17356 WT7      1062     MECN     H11      HGA3     0.090000        1.0080           0
     17357 WT7      1062     MECN     H12      HGA3     0.090000        1.0080           0
     17358 WT7      1062     MECN     H13      HGA3     0.090000        1.0080           0
     17359 WT7      1062     MECN     C2       CG1N1    0.360000       12.0110           0
     17360 WT7      1062     MECN     N3       NG1T1   -0.460000       14.0070           0
     17361 WT7      1068     MECN     C1       CG331   -0.170000       12.0110           0
     17362 WT7      1068     MECN     H11      HGA3     0.090000        1.0080           0
     17363 WT7      1068     MECN     H12      HGA3     0.090000        1.0080           0
     17364 WT7      1068     MECN     H13      HGA3     0.090000        1.0080           0
     17365 WT7      1068     MECN     C2       CG1N1    0.360000       12.0110           0
     17366 WT7      1068     MECN     N3       NG1T1   -0.460000       14.0070           0
     17367 WT7      1080     MECN     C1       CG331   -0.170000       12.0110           0
     17368 WT7      1080     MECN     H11      HGA3     0.090000        1.0080           0
     17369 WT7      1080     MECN     H12      HGA3     0.090000        1.0080           0
     17370 WT7      1080     MECN     H13      HGA3     0.090000        1.0080           0
     17371 WT7      1080     MECN     C2       CG1N1    0.360000       12.0110           0
     17372 WT7      1080     MECN     N3       NG1T1   -0.460000       14.0070           0
     17373 WT7      1081     MECN     C1       CG331   -0.170000       12.0110           0
     17374 WT7      1081     MECN     H11      HGA3     0.090000        1.0080           0
     17375 WT7      1081     MECN     H12      HGA3     0.090000        1.0080           0
     17376 WT7      1081     MECN     H13      HGA3     0.090000        1.0080           0
     17377 WT7      1081     MECN     C2       CG1N1    0.360000       12.0110           0
     17378 WT7      1081     MECN     N3       NG1T1   -0.460000       14.0070           0
     17379 WT7      1085     MECN     C1       CG331   -0.170000       12.0110           0
     17380 WT7      1085     MECN     H11      HGA3     0.090000        1.0080           0
     17381 WT7      1085     MECN     H12      HGA3     0.090000        1.0080           0
     17382 WT7      1085     MECN     H13      HGA3     0.090000        1.0080           0
     17383 WT7      1085     MECN     C2       CG1N1    0.360000       12.0110           0
     17384 WT7      1085     MECN     N3       NG1T1   -0.460000       14.0070           0
     17385 WT7      1091     MECN     C1       CG331   -0.170000       12.0110           0
     17386 WT7      1091     MECN     H11      HGA3     0.090000        1.0080           0
     17387 WT7      1091     MECN     H12      HGA3     0.090000        1.0080           0
     17388 WT7      1091     MECN     H13      HGA3     0.090000        1.0080           0
     17389 WT7      1091     MECN     C2       CG1N1    0.360000       12.0110           0
     17390 WT7      1091     MECN     N3       NG1T1   -0.460000       14.0070           0
     17391 WT7      1094     MECN     C1       CG331   -0.170000       12.0110           0
     17392 WT7      1094     MECN     H11      HGA3     0.090000        1.0080           0
     17393 WT7      1094     MECN     H12      HGA3     0.090000        1.0080           0
     17394 WT7      1094     MECN     H13      HGA3     0.090000        1.0080           0
     17395 WT7      1094     MECN     C2       CG1N1    0.360000       12.0110           0
     17396 WT7      1094     MECN     N3       NG1T1   -0.460000       14.0070           0
     17397 WT7      1095     MECN     C1       CG331   -0.170000       12.0110           0
     17398 WT7      1095     MECN     H11      HGA3     0.090000        1.0080           0
     17399 WT7      1095     MECN     H12      HGA3     0.090000        1.0080           0
     17400 WT7      1095     MECN     H13      HGA3     0.090000        1.0080           0
     17401 WT7      1095     MECN     C2       CG1N1    0.360000       12.0110           0
     17402 WT7      1095     MECN     N3       NG1T1   -0.460000       14.0070           0
     17403 WT7      1107     MECN     C1       CG331   -0.170000       12.0110           0
     17404 WT7      1107     MECN     H11      HGA3     0.090000        1.0080           0
     17405 WT7      1107     MECN     H12      HGA3     0.090000        1.0080           0
     17406 WT7      1107     MECN     H13      HGA3     0.090000        1.0080           0
     17407 WT7      1107     MECN     C2       CG1N1    0.360000       12.0110           0
     17408 WT7      1107     MECN     N3       NG1T1   -0.460000       14.0070           0
     17409 WT7      1115     MECN     C1       CG331   -0.170000       12.0110           0
     17410 WT7      1115     MECN     H11      HGA3     0.090000        1.0080           0
     17411 WT7      1115     MECN     H12      HGA3     0.090000        1.0080           0
     17412 WT7      1115     MECN     H13      HGA3     0.090000        1.0080           0
     17413 WT7      1115     MECN     C2       CG1N1    0.360000       12.0110           0
     17414 WT7      1115     MECN     N3       NG1T1   -0.460000       14.0070           0
     17415 WT7      1117     MECN     C1       CG331   -0.170000       12.0110           0
     17416 WT7      1117     MECN     H11      HGA3     0.090000        1.0080           0
     17417 WT7      1117     MECN     H12      HGA3     0.090000        1.0080           0
     17418 WT7      1117     MECN     H13      HGA3     0.090000        1.0080           0
     17419 WT7      1117     MECN     C2       CG1N1    0.360000       12.0110           0
     17420 WT7      1117     MECN     N3       NG1T1   -0.460000       14.0070           0
     17421 WT7      1120     MECN     C1       CG331   -0.170000       12.0110           0
     17422 WT7      1120     MECN     H11      HGA3     0.090000        1.0080           0
     17423 WT7      1120     MECN     H12      HGA3     0.090000        1.0080           0
     17424 WT7      1120     MECN     H13      HGA3     0.090000        1.0080           0
     17425 WT7      1120     MECN     C2       CG1N1    0.360000       12.0110           0
     17426 WT7      1120     MECN     N3       NG1T1   -0.460000       14.0070           0
     17427 WT7      1125     MECN     C1       CG331   -0.170000       12.0110           0
     17428 WT7      1125     MECN     H11      HGA3     0.090000        1.0080           0
     17429 WT7      1125     MECN     H12      HGA3     0.090000        1.0080           0
     17430 WT7      1125     MECN     H13      HGA3     0.090000        1.0080           0
     17431 WT7      1125     MECN     C2       CG1N1    0.360000       12.0110           0
     17432 WT7      1125     MECN     N3       NG1T1   -0.460000       14.0070           0
     17433 WT7      1136     MECN     C1       CG331   -0.170000       12.0110           0
     17434 WT7      1136     MECN     H11      HGA3     0.090000        1.0080           0
     17435 WT7      1136     MECN     H12      HGA3     0.090000        1.0080           0
     17436 WT7      1136     MECN     H13      HGA3     0.090000        1.0080           0
     17437 WT7      1136     MECN     C2       CG1N1    0.360000       12.0110           0
     17438 WT7      1136     MECN     N3       NG1T1   -0.460000       14.0070           0
     17439 WT7      1147     MECN     C1       CG331   -0.170000       12.0110           0
     17440 WT7      1147     MECN     H11      HGA3     0.090000        1.0080           0
     17441 WT7      1147     MECN     H12      HGA3     0.090000        1.0080           0
     17442 WT7      1147     MECN     H13      HGA3     0.090000        1.0080           0
     17443 WT7      1147     MECN     C2       CG1N1    0.360000       12.0110           0
     17444 WT7      1147     MECN     N3       NG1T1   -0.460000       14.0070           0
     17445 WT7      1156     MECN     C1       CG331   -0.170000       12.0110           0
     17446 WT7      1156     MECN     H11      HGA3     0.090000        1.0080           0
     17447 WT7      1156     MECN     H12      HGA3     0.090000        1.0080           0
     17448 WT7      1156     MECN     H13      HGA3     0.090000        1.0080           0
     17449 WT7      1156     MECN     C2       CG1N1    0.360000       12.0110           0
     17450 WT7      1156     MECN     N3       NG1T1   -0.460000       14.0070           0
     17451 WT7      1178     MECN     C1       CG331   -0.170000       12.0110           0
     17452 WT7      1178     MECN     H11      HGA3     0.090000        1.0080           0
     17453 WT7      1178     MECN     H12      HGA3     0.090000        1.0080           0
     17454 WT7      1178     MECN     H13      HGA3     0.090000        1.0080           0
     17455 WT7      1178     MECN     C2       CG1N1    0.360000       12.0110           0
     17456 WT7      1178     MECN     N3       NG1T1   -0.460000       14.0070           0
     17457 WT7      1184     MECN     C1       CG331   -0.170000       12.0110           0
     17458 WT7      1184     MECN     H11      HGA3     0.090000        1.0080           0
     17459 WT7      1184     MECN     H12      HGA3     0.090000        1.0080           0
     17460 WT7      1184     MECN     H13      HGA3     0.090000        1.0080           0
     17461 WT7      1184     MECN     C2       CG1N1    0.360000       12.0110           0
     17462 WT7      1184     MECN     N3       NG1T1   -0.460000       14.0070           0
     17463 WT7      1196     MECN     C1       CG331   -0.170000       12.0110           0
     17464 WT7      1196     MECN     H11      HGA3     0.090000        1.0080           0
     17465 WT7      1196     MECN     H12      HGA3     0.090000        1.0080           0
     17466 WT7      1196     MECN     H13      HGA3     0.090000        1.0080           0
     17467 WT7      1196     MECN     C2       CG1N1    0.360000       12.0110           0
     17468 WT7      1196     MECN     N3       NG1T1   -0.460000       14.0070           0
     17469 WT7      1207     MECN     C1       CG331   -0.170000       12.0110           0
     17470 WT7      1207     MECN     H11      HGA3     0.090000        1.0080           0
     17471 WT7      1207     MECN     H12      HGA3     0.090000        1.0080           0
     17472 WT7      1207     MECN     H13      HGA3     0.090000        1.0080           0
     17473 WT7      1207     MECN     C2       CG1N1    0.360000       12.0110           0
     17474 WT7      1207     MECN     N3       NG1T1   -0.460000       14.0070           0
     17475 WT7      1215     MECN     C1       CG331   -0.170000       12.0110           0
     17476 WT7      1215     MECN     H11      HGA3     0.090000        1.0080           0
     17477 WT7      1215     MECN     H12      HGA3     0.090000        1.0080           0
     17478 WT7      1215     MECN     H13      HGA3     0.090000        1.0080           0
     17479 WT7      1215     MECN     C2       CG1N1    0.360000       12.0110           0
     17480 WT7      1215     MECN     N3       NG1T1   -0.460000       14.0070           0
     17481 WT7      1218     MECN     C1       CG331   -0.170000       12.0110           0
     17482 WT7      1218     MECN     H11      HGA3     0.090000        1.0080           0
     17483 WT7      1218     MECN     H12      HGA3     0.090000        1.0080           0
     17484 WT7      1218     MECN     H13      HGA3     0.090000        1.0080           0
     17485 WT7      1218     MECN     C2       CG1N1    0.360000       12.0110           0
     17486 WT7      1218     MECN     N3       NG1T1   -0.460000       14.0070           0
     17487 WT7      1229     MECN     C1       CG331   -0.170000       12.0110           0
     17488 WT7      1229     MECN     H11      HGA3     0.090000        1.0080           0
     17489 WT7      1229     MECN     H12      HGA3     0.090000        1.0080           0
     17490 WT7      1229     MECN     H13      HGA3     0.090000        1.0080           0
     17491 WT7      1229     MECN     C2       CG1N1    0.360000       12.0110           0
     17492 WT7      1229     MECN     N3       NG1T1   -0.460000       14.0070           0
     17493 WT7      1234     MECN     C1       CG331   -0.170000       12.0110           0
     17494 WT7      1234     MECN     H11      HGA3     0.090000        1.0080           0
     17495 WT7      1234     MECN     H12      HGA3     0.090000        1.0080           0
     17496 WT7      1234     MECN     H13      HGA3     0.090000        1.0080           0
     17497 WT7      1234     MECN     C2       CG1N1    0.360000       12.0110           0
     17498 WT7      1234     MECN     N3       NG1T1   -0.460000       14.0070           0
     17499 WT7      1248     MECN     C1       CG331   -0.170000       12.0110           0
     17500 WT7      1248     MECN     H11      HGA3     0.090000        1.0080           0
     17501 WT7      1248     MECN     H12      HGA3     0.090000        1.0080           0
     17502 WT7      1248     MECN     H13      HGA3     0.090000        1.0080           0
     17503 WT7      1248     MECN     C2       CG1N1    0.360000       12.0110           0
     17504 WT7      1248     MECN     N3       NG1T1   -0.460000       14.0070           0
     17505 WT7      1253     MECN     C1       CG331   -0.170000       12.0110           0
     17506 WT7      1253     MECN     H11      HGA3     0.090000        1.0080           0
     17507 WT7      1253     MECN     H12      HGA3     0.090000        1.0080           0
     17508 WT7      1253     MECN     H13      HGA3     0.090000        1.0080           0
     17509 WT7      1253     MECN     C2       CG1N1    0.360000       12.0110           0
     17510 WT7      1253     MECN     N3       NG1T1   -0.460000       14.0070           0
     17511 WT7      1263     MECN     C1       CG331   -0.170000       12.0110           0
     17512 WT7      1263     MECN     H11      HGA3     0.090000        1.0080           0
     17513 WT7      1263     MECN     H12      HGA3     0.090000        1.0080           0
     17514 WT7      1263     MECN     H13      HGA3     0.090000        1.0080           0
     17515 WT7      1263     MECN     C2       CG1N1    0.360000       12.0110           0
     17516 WT7      1263     MECN     N3       NG1T1   -0.460000       14.0070           0
     17517 WT7      1270     MECN     C1       CG331   -0.170000       12.0110           0
     17518 WT7      1270     MECN     H11      HGA3     0.090000        1.0080           0
     17519 WT7      1270     MECN     H12      HGA3     0.090000        1.0080           0
     17520 WT7      1270     MECN     H13      HGA3     0.090000        1.0080           0
     17521 WT7      1270     MECN     C2       CG1N1    0.360000       12.0110           0
     17522 WT7      1270     MECN     N3       NG1T1   -0.460000       14.0070           0
     17523 WT7      1273     MECN     C1       CG331   -0.170000       12.0110           0
     17524 WT7      1273     MECN     H11      HGA3     0.090000        1.0080           0
     17525 WT7      1273     MECN     H12      HGA3     0.090000        1.0080           0
     17526 WT7      1273     MECN     H13      HGA3     0.090000        1.0080           0
     17527 WT7      1273     MECN     C2       CG1N1    0.360000       12.0110           0
     17528 WT7      1273     MECN     N3       NG1T1   -0.460000       14.0070           0
     17529 WT7      1284     MECN     C1       CG331   -0.170000       12.0110           0
     17530 WT7      1284     MECN     H11      HGA3     0.090000        1.0080           0
     17531 WT7      1284     MECN     H12      HGA3     0.090000        1.0080           0
     17532 WT7      1284     MECN     H13      HGA3     0.090000        1.0080           0
     17533 WT7      1284     MECN     C2       CG1N1    0.360000       12.0110           0
     17534 WT7      1284     MECN     N3       NG1T1   -0.460000       14.0070           0
     17535 WT7      1287     MECN     C1       CG331   -0.170000       12.0110           0
     17536 WT7      1287     MECN     H11      HGA3     0.090000        1.0080           0
     17537 WT7      1287     MECN     H12      HGA3     0.090000        1.0080           0
     17538 WT7      1287     MECN     H13      HGA3     0.090000        1.0080           0
     17539 WT7      1287     MECN     C2       CG1N1    0.360000       12.0110           0
     17540 WT7      1287     MECN     N3       NG1T1   -0.460000       14.0070           0
     17541 WT7      1294     MECN     C1       CG331   -0.170000       12.0110           0
     17542 WT7      1294     MECN     H11      HGA3     0.090000        1.0080           0
     17543 WT7      1294     MECN     H12      HGA3     0.090000        1.0080           0
     17544 WT7      1294     MECN     H13      HGA3     0.090000        1.0080           0
     17545 WT7      1294     MECN     C2       CG1N1    0.360000       12.0110           0
     17546 WT7      1294     MECN     N3       NG1T1   -0.460000       14.0070           0
     17547 WT7      1303     MECN     C1       CG331   -0.170000       12.0110           0
     17548 WT7      1303     MECN     H11      HGA3     0.090000        1.0080           0
     17549 WT7      1303     MECN     H12      HGA3     0.090000        1.0080           0
     17550 WT7      1303     MECN     H13      HGA3     0.090000        1.0080           0
     17551 WT7      1303     MECN     C2       CG1N1    0.360000       12.0110           0
     17552 WT7      1303     MECN     N3       NG1T1   -0.460000       14.0070           0
     17553 WT7      1306     MECN     C1       CG331   -0.170000       12.0110           0
     17554 WT7      1306     MECN     H11      HGA3     0.090000        1.0080           0
     17555 WT7      1306     MECN     H12      HGA3     0.090000        1.0080           0
     17556 WT7      1306     MECN     H13      HGA3     0.090000        1.0080           0
     17557 WT7      1306     MECN     C2       CG1N1    0.360000       12.0110           0
     17558 WT7      1306     MECN     N3       NG1T1   -0.460000       14.0070           0
     17559 WT7      1307     MECN     C1       CG331   -0.170000       12.0110           0
     17560 WT7      1307     MECN     H11      HGA3     0.090000        1.0080           0
     17561 WT7      1307     MECN     H12      HGA3     0.090000        1.0080           0
     17562 WT7      1307     MECN     H13      HGA3     0.090000        1.0080           0
     17563 WT7      1307     MECN     C2       CG1N1    0.360000       12.0110           0
     17564 WT7      1307     MECN     N3       NG1T1   -0.460000       14.0070           0
     17565 WT7      1310     MECN     C1       CG331   -0.170000       12.0110           0
     17566 WT7      1310     MECN     H11      HGA3     0.090000        1.0080           0
     17567 WT7      1310     MECN     H12      HGA3     0.090000        1.0080           0
     17568 WT7      1310     MECN     H13      HGA3     0.090000        1.0080           0
     17569 WT7      1310     MECN     C2       CG1N1    0.360000       12.0110           0
     17570 WT7      1310     MECN     N3       NG1T1   -0.460000       14.0070           0
     17571 WT7      1315     MECN     C1       CG331   -0.170000       12.0110           0
     17572 WT7      1315     MECN     H11      HGA3     0.090000        1.0080           0
     17573 WT7      1315     MECN     H12      HGA3     0.090000        1.0080           0
     17574 WT7      1315     MECN     H13      HGA3     0.090000        1.0080           0
     17575 WT7      1315     MECN     C2       CG1N1    0.360000       12.0110           0
     17576 WT7      1315     MECN     N3       NG1T1   -0.460000       14.0070           0
     17577 WT7      1317     MECN     C1       CG331   -0.170000       12.0110           0
     17578 WT7      1317     MECN     H11      HGA3     0.090000        1.0080           0
     17579 WT7      1317     MECN     H12      HGA3     0.090000        1.0080           0
     17580 WT7      1317     MECN     H13      HGA3     0.090000        1.0080           0
     17581 WT7      1317     MECN     C2       CG1N1    0.360000       12.0110           0
     17582 WT7      1317     MECN     N3       NG1T1   -0.460000       14.0070           0
     17583 WT7      1326     MECN     C1       CG331   -0.170000       12.0110           0
     17584 WT7      1326     MECN     H11      HGA3     0.090000        1.0080           0
     17585 WT7      1326     MECN     H12      HGA3     0.090000        1.0080           0
     17586 WT7      1326     MECN     H13      HGA3     0.090000        1.0080           0
     17587 WT7      1326     MECN     C2       CG1N1    0.360000       12.0110           0
     17588 WT7      1326     MECN     N3       NG1T1   -0.460000       14.0070           0
     17589 WT7      1329     MECN     C1       CG331   -0.170000       12.0110           0
     17590 WT7      1329     MECN     H11      HGA3     0.090000        1.0080           0
     17591 WT7      1329     MECN     H12      HGA3     0.090000        1.0080           0
     17592 WT7      1329     MECN     H13      HGA3     0.090000        1.0080           0
     17593 WT7      1329     MECN     C2       CG1N1    0.360000       12.0110           0
     17594 WT7      1329     MECN     N3       NG1T1   -0.460000       14.0070           0
     17595 WT8      1        MECN     C1       CG331   -0.170000       12.0110           0
     17596 WT8      1        MECN     H11      HGA3     0.090000        1.0080           0
     17597 WT8      1        MECN     H12      HGA3     0.090000        1.0080           0
     17598 WT8      1        MECN     H13      HGA3     0.090000        1.0080           0
     17599 WT8      1        MECN     C2       CG1N1    0.360000       12.0110           0
     17600 WT8      1        MECN     N3       NG1T1   -0.460000       14.0070           0
     17601 WT8      2        MECN     C1       CG331   -0.170000       12.0110           0
     17602 WT8      2        MECN     H11      HGA3     0.090000        1.0080           0
     17603 WT8      2        MECN     H12      HGA3     0.090000        1.0080           0
     17604 WT8      2        MECN     H13      HGA3     0.090000        1.0080           0
     17605 WT8      2        MECN     C2       CG1N1    0.360000       12.0110           0
     17606 WT8      2        MECN     N3       NG1T1   -0.460000       14.0070           0
     17607 WT8      4        MECN     C1       CG331   -0.170000       12.0110           0
     17608 WT8      4        MECN     H11      HGA3     0.090000        1.0080           0
     17609 WT8      4        MECN     H12      HGA3     0.090000        1.0080           0
     17610 WT8      4        MECN     H13      HGA3     0.090000        1.0080           0
     17611 WT8      4        MECN     C2       CG1N1    0.360000       12.0110           0
     17612 WT8      4        MECN     N3       NG1T1   -0.460000       14.0070           0
     17613 WT8      5        MECN     C1       CG331   -0.170000       12.0110           0
     17614 WT8      5        MECN     H11      HGA3     0.090000        1.0080           0
     17615 WT8      5        MECN     H12      HGA3     0.090000        1.0080           0
     17616 WT8      5        MECN     H13      HGA3     0.090000        1.0080           0
     17617 WT8      5        MECN     C2       CG1N1    0.360000       12.0110           0
     17618 WT8      5        MECN     N3       NG1T1   -0.460000       14.0070           0
     17619 WT8      9        MECN     C1       CG331   -0.170000       12.0110           0
     17620 WT8      9        MECN     H11      HGA3     0.090000        1.0080           0
     17621 WT8      9        MECN     H12      HGA3     0.090000        1.0080           0
     17622 WT8      9        MECN     H13      HGA3     0.090000        1.0080           0
     17623 WT8      9        MECN     C2       CG1N1    0.360000       12.0110           0
     17624 WT8      9        MECN     N3       NG1T1   -0.460000       14.0070           0
     17625 WT8      13       MECN     C1       CG331   -0.170000       12.0110           0
     17626 WT8      13       MECN     H11      HGA3     0.090000        1.0080           0
     17627 WT8      13       MECN     H12      HGA3     0.090000        1.0080           0
     17628 WT8      13       MECN     H13      HGA3     0.090000        1.0080           0
     17629 WT8      13       MECN     C2       CG1N1    0.360000       12.0110           0
     17630 WT8      13       MECN     N3       NG1T1   -0.460000       14.0070           0
     17631 WT8      14       MECN     C1       CG331   -0.170000       12.0110           0
     17632 WT8      14       MECN     H11      HGA3     0.090000        1.0080           0
     17633 WT8      14       MECN     H12      HGA3     0.090000        1.0080           0
     17634 WT8      14       MECN     H13      HGA3     0.090000        1.0080           0
     17635 WT8      14       MECN     C2       CG1N1    0.360000       12.0110           0
     17636 WT8      14       MECN     N3       NG1T1   -0.460000       14.0070           0
     17637 WT8      19       MECN     C1       CG331   -0.170000       12.0110           0
     17638 WT8      19       MECN     H11      HGA3     0.090000        1.0080           0
     17639 WT8      19       MECN     H12      HGA3     0.090000        1.0080           0
     17640 WT8      19       MECN     H13      HGA3     0.090000        1.0080           0
     17641 WT8      19       MECN     C2       CG1N1    0.360000       12.0110           0
     17642 WT8      19       MECN     N3       NG1T1   -0.460000       14.0070           0
     17643 WT8      24       MECN     C1       CG331   -0.170000       12.0110           0
     17644 WT8      24       MECN     H11      HGA3     0.090000        1.0080           0
     17645 WT8      24       MECN     H12      HGA3     0.090000        1.0080           0
     17646 WT8      24       MECN     H13      HGA3     0.090000        1.0080           0
     17647 WT8      24       MECN     C2       CG1N1    0.360000       12.0110           0
     17648 WT8      24       MECN     N3       NG1T1   -0.460000       14.0070           0
     17649 WT8      26       MECN     C1       CG331   -0.170000       12.0110           0
     17650 WT8      26       MECN     H11      HGA3     0.090000        1.0080           0
     17651 WT8      26       MECN     H12      HGA3     0.090000        1.0080           0
     17652 WT8      26       MECN     H13      HGA3     0.090000        1.0080           0
     17653 WT8      26       MECN     C2       CG1N1    0.360000       12.0110           0
     17654 WT8      26       MECN     N3       NG1T1   -0.460000       14.0070           0
     17655 WT8      27       MECN     C1       CG331   -0.170000       12.0110           0
     17656 WT8      27       MECN     H11      HGA3     0.090000        1.0080           0
     17657 WT8      27       MECN     H12      HGA3     0.090000        1.0080           0
     17658 WT8      27       MECN     H13      HGA3     0.090000        1.0080           0
     17659 WT8      27       MECN     C2       CG1N1    0.360000       12.0110           0
     17660 WT8      27       MECN     N3       NG1T1   -0.460000       14.0070           0
     17661 WT8      28       MECN     C1       CG331   -0.170000       12.0110           0
     17662 WT8      28       MECN     H11      HGA3     0.090000        1.0080           0
     17663 WT8      28       MECN     H12      HGA3     0.090000        1.0080           0
     17664 WT8      28       MECN     H13      HGA3     0.090000        1.0080           0
     17665 WT8      28       MECN     C2       CG1N1    0.360000       12.0110           0
     17666 WT8      28       MECN     N3       NG1T1   -0.460000       14.0070           0
     17667 WT8      31       MECN     C1       CG331   -0.170000       12.0110           0
     17668 WT8      31       MECN     H11      HGA3     0.090000        1.0080           0
     17669 WT8      31       MECN     H12      HGA3     0.090000        1.0080           0
     17670 WT8      31       MECN     H13      HGA3     0.090000        1.0080           0
     17671 WT8      31       MECN     C2       CG1N1    0.360000       12.0110           0
     17672 WT8      31       MECN     N3       NG1T1   -0.460000       14.0070           0
     17673 WT8      33       MECN     C1       CG331   -0.170000       12.0110           0
     17674 WT8      33       MECN     H11      HGA3     0.090000        1.0080           0
     17675 WT8      33       MECN     H12      HGA3     0.090000        1.0080           0
     17676 WT8      33       MECN     H13      HGA3     0.090000        1.0080           0
     17677 WT8      33       MECN     C2       CG1N1    0.360000       12.0110           0
     17678 WT8      33       MECN     N3       NG1T1   -0.460000       14.0070           0
     17679 WT8      34       MECN     C1       CG331   -0.170000       12.0110           0
     17680 WT8      34       MECN     H11      HGA3     0.090000        1.0080           0
     17681 WT8      34       MECN     H12      HGA3     0.090000        1.0080           0
     17682 WT8      34       MECN     H13      HGA3     0.090000        1.0080           0
     17683 WT8      34       MECN     C2       CG1N1    0.360000       12.0110           0
     17684 WT8      34       MECN     N3       NG1T1   -0.460000       14.0070           0
     17685 WT8      36       MECN     C1       CG331   -0.170000       12.0110           0
     17686 WT8      36       MECN     H11      HGA3     0.090000        1.0080           0
     17687 WT8      36       MECN     H12      HGA3     0.090000        1.0080           0
     17688 WT8      36       MECN     H13      HGA3     0.090000        1.0080           0
     17689 WT8      36       MECN     C2       CG1N1    0.360000       12.0110           0
     17690 WT8      36       MECN     N3       NG1T1   -0.460000       14.0070           0
     17691 WT8      42       MECN     C1       CG331   -0.170000       12.0110           0
     17692 WT8      42       MECN     H11      HGA3     0.090000        1.0080           0
     17693 WT8      42       MECN     H12      HGA3     0.090000        1.0080           0
     17694 WT8      42       MECN     H13      HGA3     0.090000        1.0080           0
     17695 WT8      42       MECN     C2       CG1N1    0.360000       12.0110           0
     17696 WT8      42       MECN     N3       NG1T1   -0.460000       14.0070           0
     17697 WT8      46       MECN     C1       CG331   -0.170000       12.0110           0
     17698 WT8      46       MECN     H11      HGA3     0.090000        1.0080           0
     17699 WT8      46       MECN     H12      HGA3     0.090000        1.0080           0
     17700 WT8      46       MECN     H13      HGA3     0.090000        1.0080           0
     17701 WT8      46       MECN     C2       CG1N1    0.360000       12.0110           0
     17702 WT8      46       MECN     N3       NG1T1   -0.460000       14.0070           0
     17703 WT8      51       MECN     C1       CG331   -0.170000       12.0110           0
     17704 WT8      51       MECN     H11      HGA3     0.090000        1.0080           0
     17705 WT8      51       MECN     H12      HGA3     0.090000        1.0080           0
     17706 WT8      51       MECN     H13      HGA3     0.090000        1.0080           0
     17707 WT8      51       MECN     C2       CG1N1    0.360000       12.0110           0
     17708 WT8      51       MECN     N3       NG1T1   -0.460000       14.0070           0
     17709 WT8      53       MECN     C1       CG331   -0.170000       12.0110           0
     17710 WT8      53       MECN     H11      HGA3     0.090000        1.0080           0
     17711 WT8      53       MECN     H12      HGA3     0.090000        1.0080           0
     17712 WT8      53       MECN     H13      HGA3     0.090000        1.0080           0
     17713 WT8      53       MECN     C2       CG1N1    0.360000       12.0110           0
     17714 WT8      53       MECN     N3       NG1T1   -0.460000       14.0070           0
     17715 WT8      65       MECN     C1       CG331   -0.170000       12.0110           0
     17716 WT8      65       MECN     H11      HGA3     0.090000        1.0080           0
     17717 WT8      65       MECN     H12      HGA3     0.090000        1.0080           0
     17718 WT8      65       MECN     H13      HGA3     0.090000        1.0080           0
     17719 WT8      65       MECN     C2       CG1N1    0.360000       12.0110           0
     17720 WT8      65       MECN     N3       NG1T1   -0.460000       14.0070           0
     17721 WT8      68       MECN     C1       CG331   -0.170000       12.0110           0
     17722 WT8      68       MECN     H11      HGA3     0.090000        1.0080           0
     17723 WT8      68       MECN     H12      HGA3     0.090000        1.0080           0
     17724 WT8      68       MECN     H13      HGA3     0.090000        1.0080           0
     17725 WT8      68       MECN     C2       CG1N1    0.360000       12.0110           0
     17726 WT8      68       MECN     N3       NG1T1   -0.460000       14.0070           0
     17727 WT8      69       MECN     C1       CG331   -0.170000       12.0110           0
     17728 WT8      69       MECN     H11      HGA3     0.090000        1.0080           0
     17729 WT8      69       MECN     H12      HGA3     0.090000        1.0080           0
     17730 WT8      69       MECN     H13      HGA3     0.090000        1.0080           0
     17731 WT8      69       MECN     C2       CG1N1    0.360000       12.0110           0
     17732 WT8      69       MECN     N3       NG1T1   -0.460000       14.0070           0
     17733 WT8      70       MECN     C1       CG331   -0.170000       12.0110           0
     17734 WT8      70       MECN     H11      HGA3     0.090000        1.0080           0
     17735 WT8      70       MECN     H12      HGA3     0.090000        1.0080           0
     17736 WT8      70       MECN     H13      HGA3     0.090000        1.0080           0
     17737 WT8      70       MECN     C2       CG1N1    0.360000       12.0110           0
     17738 WT8      70       MECN     N3       NG1T1   -0.460000       14.0070           0
     17739 WT8      71       MECN     C1       CG331   -0.170000       12.0110           0
     17740 WT8      71       MECN     H11      HGA3     0.090000        1.0080           0
     17741 WT8      71       MECN     H12      HGA3     0.090000        1.0080           0
     17742 WT8      71       MECN     H13      HGA3     0.090000        1.0080           0
     17743 WT8      71       MECN     C2       CG1N1    0.360000       12.0110           0
     17744 WT8      71       MECN     N3       NG1T1   -0.460000       14.0070           0
     17745 WT8      73       MECN     C1       CG331   -0.170000       12.0110           0
     17746 WT8      73       MECN     H11      HGA3     0.090000        1.0080           0
     17747 WT8      73       MECN     H12      HGA3     0.090000        1.0080           0
     17748 WT8      73       MECN     H13      HGA3     0.090000        1.0080           0
     17749 WT8      73       MECN     C2       CG1N1    0.360000       12.0110           0
     17750 WT8      73       MECN     N3       NG1T1   -0.460000       14.0070           0
     17751 WT8      77       MECN     C1       CG331   -0.170000       12.0110           0
     17752 WT8      77       MECN     H11      HGA3     0.090000        1.0080           0
     17753 WT8      77       MECN     H12      HGA3     0.090000        1.0080           0
     17754 WT8      77       MECN     H13      HGA3     0.090000        1.0080           0
     17755 WT8      77       MECN     C2       CG1N1    0.360000       12.0110           0
     17756 WT8      77       MECN     N3       NG1T1   -0.460000       14.0070           0
     17757 WT8      81       MECN     C1       CG331   -0.170000       12.0110           0
     17758 WT8      81       MECN     H11      HGA3     0.090000        1.0080           0
     17759 WT8      81       MECN     H12      HGA3     0.090000        1.0080           0
     17760 WT8      81       MECN     H13      HGA3     0.090000        1.0080           0
     17761 WT8      81       MECN     C2       CG1N1    0.360000       12.0110           0
     17762 WT8      81       MECN     N3       NG1T1   -0.460000       14.0070           0
     17763 WT8      84       MECN     C1       CG331   -0.170000       12.0110           0
     17764 WT8      84       MECN     H11      HGA3     0.090000        1.0080           0
     17765 WT8      84       MECN     H12      HGA3     0.090000        1.0080           0
     17766 WT8      84       MECN     H13      HGA3     0.090000        1.0080           0
     17767 WT8      84       MECN     C2       CG1N1    0.360000       12.0110           0
     17768 WT8      84       MECN     N3       NG1T1   -0.460000       14.0070           0
     17769 WT8      86       MECN     C1       CG331   -0.170000       12.0110           0
     17770 WT8      86       MECN     H11      HGA3     0.090000        1.0080           0
     17771 WT8      86       MECN     H12      HGA3     0.090000        1.0080           0
     17772 WT8      86       MECN     H13      HGA3     0.090000        1.0080           0
     17773 WT8      86       MECN     C2       CG1N1    0.360000       12.0110           0
     17774 WT8      86       MECN     N3       NG1T1   -0.460000       14.0070           0
     17775 WT8      87       MECN     C1       CG331   -0.170000       12.0110           0
     17776 WT8      87       MECN     H11      HGA3     0.090000        1.0080           0
     17777 WT8      87       MECN     H12      HGA3     0.090000        1.0080           0
     17778 WT8      87       MECN     H13      HGA3     0.090000        1.0080           0
     17779 WT8      87       MECN     C2       CG1N1    0.360000       12.0110           0
     17780 WT8      87       MECN     N3       NG1T1   -0.460000       14.0070           0
     17781 WT8      91       MECN     C1       CG331   -0.170000       12.0110           0
     17782 WT8      91       MECN     H11      HGA3     0.090000        1.0080           0
     17783 WT8      91       MECN     H12      HGA3     0.090000        1.0080           0
     17784 WT8      91       MECN     H13      HGA3     0.090000        1.0080           0
     17785 WT8      91       MECN     C2       CG1N1    0.360000       12.0110           0
     17786 WT8      91       MECN     N3       NG1T1   -0.460000       14.0070           0
     17787 WT8      94       MECN     C1       CG331   -0.170000       12.0110           0
     17788 WT8      94       MECN     H11      HGA3     0.090000        1.0080           0
     17789 WT8      94       MECN     H12      HGA3     0.090000        1.0080           0
     17790 WT8      94       MECN     H13      HGA3     0.090000        1.0080           0
     17791 WT8      94       MECN     C2       CG1N1    0.360000       12.0110           0
     17792 WT8      94       MECN     N3       NG1T1   -0.460000       14.0070           0
     17793 WT8      98       MECN     C1       CG331   -0.170000       12.0110           0
     17794 WT8      98       MECN     H11      HGA3     0.090000        1.0080           0
     17795 WT8      98       MECN     H12      HGA3     0.090000        1.0080           0
     17796 WT8      98       MECN     H13      HGA3     0.090000        1.0080           0
     17797 WT8      98       MECN     C2       CG1N1    0.360000       12.0110           0
     17798 WT8      98       MECN     N3       NG1T1   -0.460000       14.0070           0
     17799 WT8      99       MECN     C1       CG331   -0.170000       12.0110           0
     17800 WT8      99       MECN     H11      HGA3     0.090000        1.0080           0
     17801 WT8      99       MECN     H12      HGA3     0.090000        1.0080           0
     17802 WT8      99       MECN     H13      HGA3     0.090000        1.0080           0
     17803 WT8      99       MECN     C2       CG1N1    0.360000       12.0110           0
     17804 WT8      99       MECN     N3       NG1T1   -0.460000       14.0070           0
     17805 WT8      101      MECN     C1       CG331   -0.170000       12.0110           0
     17806 WT8      101      MECN     H11      HGA3     0.090000        1.0080           0
     17807 WT8      101      MECN     H12      HGA3     0.090000        1.0080           0
     17808 WT8      101      MECN     H13      HGA3     0.090000        1.0080           0
     17809 WT8      101      MECN     C2       CG1N1    0.360000       12.0110           0
     17810 WT8      101      MECN     N3       NG1T1   -0.460000       14.0070           0
     17811 WT8      103      MECN     C1       CG331   -0.170000       12.0110           0
     17812 WT8      103      MECN     H11      HGA3     0.090000        1.0080           0
     17813 WT8      103      MECN     H12      HGA3     0.090000        1.0080           0
     17814 WT8      103      MECN     H13      HGA3     0.090000        1.0080           0
     17815 WT8      103      MECN     C2       CG1N1    0.360000       12.0110           0
     17816 WT8      103      MECN     N3       NG1T1   -0.460000       14.0070           0
     17817 WT8      114      MECN     C1       CG331   -0.170000       12.0110           0
     17818 WT8      114      MECN     H11      HGA3     0.090000        1.0080           0
     17819 WT8      114      MECN     H12      HGA3     0.090000        1.0080           0
     17820 WT8      114      MECN     H13      HGA3     0.090000        1.0080           0
     17821 WT8      114      MECN     C2       CG1N1    0.360000       12.0110           0
     17822 WT8      114      MECN     N3       NG1T1   -0.460000       14.0070           0
     17823 WT8      116      MECN     C1       CG331   -0.170000       12.0110           0
     17824 WT8      116      MECN     H11      HGA3     0.090000        1.0080           0
     17825 WT8      116      MECN     H12      HGA3     0.090000        1.0080           0
     17826 WT8      116      MECN     H13      HGA3     0.090000        1.0080           0
     17827 WT8      116      MECN     C2       CG1N1    0.360000       12.0110           0
     17828 WT8      116      MECN     N3       NG1T1   -0.460000       14.0070           0
     17829 WT8      120      MECN     C1       CG331   -0.170000       12.0110           0
     17830 WT8      120      MECN     H11      HGA3     0.090000        1.0080           0
     17831 WT8      120      MECN     H12      HGA3     0.090000        1.0080           0
     17832 WT8      120      MECN     H13      HGA3     0.090000        1.0080           0
     17833 WT8      120      MECN     C2       CG1N1    0.360000       12.0110           0
     17834 WT8      120      MECN     N3       NG1T1   -0.460000       14.0070           0
     17835 WT8      128      MECN     C1       CG331   -0.170000       12.0110           0
     17836 WT8      128      MECN     H11      HGA3     0.090000        1.0080           0
     17837 WT8      128      MECN     H12      HGA3     0.090000        1.0080           0
     17838 WT8      128      MECN     H13      HGA3     0.090000        1.0080           0
     17839 WT8      128      MECN     C2       CG1N1    0.360000       12.0110           0
     17840 WT8      128      MECN     N3       NG1T1   -0.460000       14.0070           0
     17841 WT8      132      MECN     C1       CG331   -0.170000       12.0110           0
     17842 WT8      132      MECN     H11      HGA3     0.090000        1.0080           0
     17843 WT8      132      MECN     H12      HGA3     0.090000        1.0080           0
     17844 WT8      132      MECN     H13      HGA3     0.090000        1.0080           0
     17845 WT8      132      MECN     C2       CG1N1    0.360000       12.0110           0
     17846 WT8      132      MECN     N3       NG1T1   -0.460000       14.0070           0
     17847 WT8      138      MECN     C1       CG331   -0.170000       12.0110           0
     17848 WT8      138      MECN     H11      HGA3     0.090000        1.0080           0
     17849 WT8      138      MECN     H12      HGA3     0.090000        1.0080           0
     17850 WT8      138      MECN     H13      HGA3     0.090000        1.0080           0
     17851 WT8      138      MECN     C2       CG1N1    0.360000       12.0110           0
     17852 WT8      138      MECN     N3       NG1T1   -0.460000       14.0070           0
     17853 WT8      139      MECN     C1       CG331   -0.170000       12.0110           0
     17854 WT8      139      MECN     H11      HGA3     0.090000        1.0080           0
     17855 WT8      139      MECN     H12      HGA3     0.090000        1.0080           0
     17856 WT8      139      MECN     H13      HGA3     0.090000        1.0080           0
     17857 WT8      139      MECN     C2       CG1N1    0.360000       12.0110           0
     17858 WT8      139      MECN     N3       NG1T1   -0.460000       14.0070           0
     17859 WT8      140      MECN     C1       CG331   -0.170000       12.0110           0
     17860 WT8      140      MECN     H11      HGA3     0.090000        1.0080           0
     17861 WT8      140      MECN     H12      HGA3     0.090000        1.0080           0
     17862 WT8      140      MECN     H13      HGA3     0.090000        1.0080           0
     17863 WT8      140      MECN     C2       CG1N1    0.360000       12.0110           0
     17864 WT8      140      MECN     N3       NG1T1   -0.460000       14.0070           0
     17865 WT8      149      MECN     C1       CG331   -0.170000       12.0110           0
     17866 WT8      149      MECN     H11      HGA3     0.090000        1.0080           0
     17867 WT8      149      MECN     H12      HGA3     0.090000        1.0080           0
     17868 WT8      149      MECN     H13      HGA3     0.090000        1.0080           0
     17869 WT8      149      MECN     C2       CG1N1    0.360000       12.0110           0
     17870 WT8      149      MECN     N3       NG1T1   -0.460000       14.0070           0
     17871 WT8      155      MECN     C1       CG331   -0.170000       12.0110           0
     17872 WT8      155      MECN     H11      HGA3     0.090000        1.0080           0
     17873 WT8      155      MECN     H12      HGA3     0.090000        1.0080           0
     17874 WT8      155      MECN     H13      HGA3     0.090000        1.0080           0
     17875 WT8      155      MECN     C2       CG1N1    0.360000       12.0110           0
     17876 WT8      155      MECN     N3       NG1T1   -0.460000       14.0070           0
     17877 WT8      156      MECN     C1       CG331   -0.170000       12.0110           0
     17878 WT8      156      MECN     H11      HGA3     0.090000        1.0080           0
     17879 WT8      156      MECN     H12      HGA3     0.090000        1.0080           0
     17880 WT8      156      MECN     H13      HGA3     0.090000        1.0080           0
     17881 WT8      156      MECN     C2       CG1N1    0.360000       12.0110           0
     17882 WT8      156      MECN     N3       NG1T1   -0.460000       14.0070           0
     17883 WT8      157      MECN     C1       CG331   -0.170000       12.0110           0
     17884 WT8      157      MECN     H11      HGA3     0.090000        1.0080           0
     17885 WT8      157      MECN     H12      HGA3     0.090000        1.0080           0
     17886 WT8      157      MECN     H13      HGA3     0.090000        1.0080           0
     17887 WT8      157      MECN     C2       CG1N1    0.360000       12.0110           0
     17888 WT8      157      MECN     N3       NG1T1   -0.460000       14.0070           0
     17889 WT8      158      MECN     C1       CG331   -0.170000       12.0110           0
     17890 WT8      158      MECN     H11      HGA3     0.090000        1.0080           0
     17891 WT8      158      MECN     H12      HGA3     0.090000        1.0080           0
     17892 WT8      158      MECN     H13      HGA3     0.090000        1.0080           0
     17893 WT8      158      MECN     C2       CG1N1    0.360000       12.0110           0
     17894 WT8      158      MECN     N3       NG1T1   -0.460000       14.0070           0
     17895 WT8      160      MECN     C1       CG331   -0.170000       12.0110           0
     17896 WT8      160      MECN     H11      HGA3     0.090000        1.0080           0
     17897 WT8      160      MECN     H12      HGA3     0.090000        1.0080           0
     17898 WT8      160      MECN     H13      HGA3     0.090000        1.0080           0
     17899 WT8      160      MECN     C2       CG1N1    0.360000       12.0110           0
     17900 WT8      160      MECN     N3       NG1T1   -0.460000       14.0070           0
     17901 WT8      167      MECN     C1       CG331   -0.170000       12.0110           0
     17902 WT8      167      MECN     H11      HGA3     0.090000        1.0080           0
     17903 WT8      167      MECN     H12      HGA3     0.090000        1.0080           0
     17904 WT8      167      MECN     H13      HGA3     0.090000        1.0080           0
     17905 WT8      167      MECN     C2       CG1N1    0.360000       12.0110           0
     17906 WT8      167      MECN     N3       NG1T1   -0.460000       14.0070           0
     17907 WT8      169      MECN     C1       CG331   -0.170000       12.0110           0
     17908 WT8      169      MECN     H11      HGA3     0.090000        1.0080           0
     17909 WT8      169      MECN     H12      HGA3     0.090000        1.0080           0
     17910 WT8      169      MECN     H13      HGA3     0.090000        1.0080           0
     17911 WT8      169      MECN     C2       CG1N1    0.360000       12.0110           0
     17912 WT8      169      MECN     N3       NG1T1   -0.460000       14.0070           0
     17913 WT8      170      MECN     C1       CG331   -0.170000       12.0110           0
     17914 WT8      170      MECN     H11      HGA3     0.090000        1.0080           0
     17915 WT8      170      MECN     H12      HGA3     0.090000        1.0080           0
     17916 WT8      170      MECN     H13      HGA3     0.090000        1.0080           0
     17917 WT8      170      MECN     C2       CG1N1    0.360000       12.0110           0
     17918 WT8      170      MECN     N3       NG1T1   -0.460000       14.0070           0
     17919 WT8      172      MECN     C1       CG331   -0.170000       12.0110           0
     17920 WT8      172      MECN     H11      HGA3     0.090000        1.0080           0
     17921 WT8      172      MECN     H12      HGA3     0.090000        1.0080           0
     17922 WT8      172      MECN     H13      HGA3     0.090000        1.0080           0
     17923 WT8      172      MECN     C2       CG1N1    0.360000       12.0110           0
     17924 WT8      172      MECN     N3       NG1T1   -0.460000       14.0070           0
     17925 WT8      176      MECN     C1       CG331   -0.170000       12.0110           0
     17926 WT8      176      MECN     H11      HGA3     0.090000        1.0080           0
     17927 WT8      176      MECN     H12      HGA3     0.090000        1.0080           0
     17928 WT8      176      MECN     H13      HGA3     0.090000        1.0080           0
     17929 WT8      176      MECN     C2       CG1N1    0.360000       12.0110           0
     17930 WT8      176      MECN     N3       NG1T1   -0.460000       14.0070           0
     17931 WT8      180      MECN     C1       CG331   -0.170000       12.0110           0
     17932 WT8      180      MECN     H11      HGA3     0.090000        1.0080           0
     17933 WT8      180      MECN     H12      HGA3     0.090000        1.0080           0
     17934 WT8      180      MECN     H13      HGA3     0.090000        1.0080           0
     17935 WT8      180      MECN     C2       CG1N1    0.360000       12.0110           0
     17936 WT8      180      MECN     N3       NG1T1   -0.460000       14.0070           0
     17937 WT8      183      MECN     C1       CG331   -0.170000       12.0110           0
     17938 WT8      183      MECN     H11      HGA3     0.090000        1.0080           0
     17939 WT8      183      MECN     H12      HGA3     0.090000        1.0080           0
     17940 WT8      183      MECN     H13      HGA3     0.090000        1.0080           0
     17941 WT8      183      MECN     C2       CG1N1    0.360000       12.0110           0
     17942 WT8      183      MECN     N3       NG1T1   -0.460000       14.0070           0
     17943 WT8      187      MECN     C1       CG331   -0.170000       12.0110           0
     17944 WT8      187      MECN     H11      HGA3     0.090000        1.0080           0
     17945 WT8      187      MECN     H12      HGA3     0.090000        1.0080           0
     17946 WT8      187      MECN     H13      HGA3     0.090000        1.0080           0
     17947 WT8      187      MECN     C2       CG1N1    0.360000       12.0110           0
     17948 WT8      187      MECN     N3       NG1T1   -0.460000       14.0070           0
     17949 WT8      188      MECN     C1       CG331   -0.170000       12.0110           0
     17950 WT8      188      MECN     H11      HGA3     0.090000        1.0080           0
     17951 WT8      188      MECN     H12      HGA3     0.090000        1.0080           0
     17952 WT8      188      MECN     H13      HGA3     0.090000        1.0080           0
     17953 WT8      188      MECN     C2       CG1N1    0.360000       12.0110           0
     17954 WT8      188      MECN     N3       NG1T1   -0.460000       14.0070           0
     17955 WT8      206      MECN     C1       CG331   -0.170000       12.0110           0
     17956 WT8      206      MECN     H11      HGA3     0.090000        1.0080           0
     17957 WT8      206      MECN     H12      HGA3     0.090000        1.0080           0
     17958 WT8      206      MECN     H13      HGA3     0.090000        1.0080           0
     17959 WT8      206      MECN     C2       CG1N1    0.360000       12.0110           0
     17960 WT8      206      MECN     N3       NG1T1   -0.460000       14.0070           0
     17961 WT8      209      MECN     C1       CG331   -0.170000       12.0110           0
     17962 WT8      209      MECN     H11      HGA3     0.090000        1.0080           0
     17963 WT8      209      MECN     H12      HGA3     0.090000        1.0080           0
     17964 WT8      209      MECN     H13      HGA3     0.090000        1.0080           0
     17965 WT8      209      MECN     C2       CG1N1    0.360000       12.0110           0
     17966 WT8      209      MECN     N3       NG1T1   -0.460000       14.0070           0
     17967 WT8      210      MECN     C1       CG331   -0.170000       12.0110           0
     17968 WT8      210      MECN     H11      HGA3     0.090000        1.0080           0
     17969 WT8      210      MECN     H12      HGA3     0.090000        1.0080           0
     17970 WT8      210      MECN     H13      HGA3     0.090000        1.0080           0
     17971 WT8      210      MECN     C2       CG1N1    0.360000       12.0110           0
     17972 WT8      210      MECN     N3       NG1T1   -0.460000       14.0070           0
     17973 WT8      215      MECN     C1       CG331   -0.170000       12.0110           0
     17974 WT8      215      MECN     H11      HGA3     0.090000        1.0080           0
     17975 WT8      215      MECN     H12      HGA3     0.090000        1.0080           0
     17976 WT8      215      MECN     H13      HGA3     0.090000        1.0080           0
     17977 WT8      215      MECN     C2       CG1N1    0.360000       12.0110           0
     17978 WT8      215      MECN     N3       NG1T1   -0.460000       14.0070           0
     17979 WT8      222      MECN     C1       CG331   -0.170000       12.0110           0
     17980 WT8      222      MECN     H11      HGA3     0.090000        1.0080           0
     17981 WT8      222      MECN     H12      HGA3     0.090000        1.0080           0
     17982 WT8      222      MECN     H13      HGA3     0.090000        1.0080           0
     17983 WT8      222      MECN     C2       CG1N1    0.360000       12.0110           0
     17984 WT8      222      MECN     N3       NG1T1   -0.460000       14.0070           0
     17985 WT8      226      MECN     C1       CG331   -0.170000       12.0110           0
     17986 WT8      226      MECN     H11      HGA3     0.090000        1.0080           0
     17987 WT8      226      MECN     H12      HGA3     0.090000        1.0080           0
     17988 WT8      226      MECN     H13      HGA3     0.090000        1.0080           0
     17989 WT8      226      MECN     C2       CG1N1    0.360000       12.0110           0
     17990 WT8      226      MECN     N3       NG1T1   -0.460000       14.0070           0
     17991 WT8      227      MECN     C1       CG331   -0.170000       12.0110           0
     17992 WT8      227      MECN     H11      HGA3     0.090000        1.0080           0
     17993 WT8      227      MECN     H12      HGA3     0.090000        1.0080           0
     17994 WT8      227      MECN     H13      HGA3     0.090000        1.0080           0
     17995 WT8      227      MECN     C2       CG1N1    0.360000       12.0110           0
     17996 WT8      227      MECN     N3       NG1T1   -0.460000       14.0070           0
     17997 WT8      234      MECN     C1       CG331   -0.170000       12.0110           0
     17998 WT8      234      MECN     H11      HGA3     0.090000        1.0080           0
     17999 WT8      234      MECN     H12      HGA3     0.090000        1.0080           0
     18000 WT8      234      MECN     H13      HGA3     0.090000        1.0080           0
     18001 WT8      234      MECN     C2       CG1N1    0.360000       12.0110           0
     18002 WT8      234      MECN     N3       NG1T1   -0.460000       14.0070           0
     18003 WT8      237      MECN     C1       CG331   -0.170000       12.0110           0
     18004 WT8      237      MECN     H11      HGA3     0.090000        1.0080           0
     18005 WT8      237      MECN     H12      HGA3     0.090000        1.0080           0
     18006 WT8      237      MECN     H13      HGA3     0.090000        1.0080           0
     18007 WT8      237      MECN     C2       CG1N1    0.360000       12.0110           0
     18008 WT8      237      MECN     N3       NG1T1   -0.460000       14.0070           0
     18009 WT8      239      MECN     C1       CG331   -0.170000       12.0110           0
     18010 WT8      239      MECN     H11      HGA3     0.090000        1.0080           0
     18011 WT8      239      MECN     H12      HGA3     0.090000        1.0080           0
     18012 WT8      239      MECN     H13      HGA3     0.090000        1.0080           0
     18013 WT8      239      MECN     C2       CG1N1    0.360000       12.0110           0
     18014 WT8      239      MECN     N3       NG1T1   -0.460000       14.0070           0
     18015 WT8      240      MECN     C1       CG331   -0.170000       12.0110           0
     18016 WT8      240      MECN     H11      HGA3     0.090000        1.0080           0
     18017 WT8      240      MECN     H12      HGA3     0.090000        1.0080           0
     18018 WT8      240      MECN     H13      HGA3     0.090000        1.0080           0
     18019 WT8      240      MECN     C2       CG1N1    0.360000       12.0110           0
     18020 WT8      240      MECN     N3       NG1T1   -0.460000       14.0070           0
     18021 WT8      245      MECN     C1       CG331   -0.170000       12.0110           0
     18022 WT8      245      MECN     H11      HGA3     0.090000        1.0080           0
     18023 WT8      245      MECN     H12      HGA3     0.090000        1.0080           0
     18024 WT8      245      MECN     H13      HGA3     0.090000        1.0080           0
     18025 WT8      245      MECN     C2       CG1N1    0.360000       12.0110           0
     18026 WT8      245      MECN     N3       NG1T1   -0.460000       14.0070           0
     18027 WT8      249      MECN     C1       CG331   -0.170000       12.0110           0
     18028 WT8      249      MECN     H11      HGA3     0.090000        1.0080           0
     18029 WT8      249      MECN     H12      HGA3     0.090000        1.0080           0
     18030 WT8      249      MECN     H13      HGA3     0.090000        1.0080           0
     18031 WT8      249      MECN     C2       CG1N1    0.360000       12.0110           0
     18032 WT8      249      MECN     N3       NG1T1   -0.460000       14.0070           0
     18033 WT8      250      MECN     C1       CG331   -0.170000       12.0110           0
     18034 WT8      250      MECN     H11      HGA3     0.090000        1.0080           0
     18035 WT8      250      MECN     H12      HGA3     0.090000        1.0080           0
     18036 WT8      250      MECN     H13      HGA3     0.090000        1.0080           0
     18037 WT8      250      MECN     C2       CG1N1    0.360000       12.0110           0
     18038 WT8      250      MECN     N3       NG1T1   -0.460000       14.0070           0
     18039 WT8      254      MECN     C1       CG331   -0.170000       12.0110           0
     18040 WT8      254      MECN     H11      HGA3     0.090000        1.0080           0
     18041 WT8      254      MECN     H12      HGA3     0.090000        1.0080           0
     18042 WT8      254      MECN     H13      HGA3     0.090000        1.0080           0
     18043 WT8      254      MECN     C2       CG1N1    0.360000       12.0110           0
     18044 WT8      254      MECN     N3       NG1T1   -0.460000       14.0070           0
     18045 WT8      256      MECN     C1       CG331   -0.170000       12.0110           0
     18046 WT8      256      MECN     H11      HGA3     0.090000        1.0080           0
     18047 WT8      256      MECN     H12      HGA3     0.090000        1.0080           0
     18048 WT8      256      MECN     H13      HGA3     0.090000        1.0080           0
     18049 WT8      256      MECN     C2       CG1N1    0.360000       12.0110           0
     18050 WT8      256      MECN     N3       NG1T1   -0.460000       14.0070           0
     18051 WT8      259      MECN     C1       CG331   -0.170000       12.0110           0
     18052 WT8      259      MECN     H11      HGA3     0.090000        1.0080           0
     18053 WT8      259      MECN     H12      HGA3     0.090000        1.0080           0
     18054 WT8      259      MECN     H13      HGA3     0.090000        1.0080           0
     18055 WT8      259      MECN     C2       CG1N1    0.360000       12.0110           0
     18056 WT8      259      MECN     N3       NG1T1   -0.460000       14.0070           0
     18057 WT8      260      MECN     C1       CG331   -0.170000       12.0110           0
     18058 WT8      260      MECN     H11      HGA3     0.090000        1.0080           0
     18059 WT8      260      MECN     H12      HGA3     0.090000        1.0080           0
     18060 WT8      260      MECN     H13      HGA3     0.090000        1.0080           0
     18061 WT8      260      MECN     C2       CG1N1    0.360000       12.0110           0
     18062 WT8      260      MECN     N3       NG1T1   -0.460000       14.0070           0
     18063 WT8      261      MECN     C1       CG331   -0.170000       12.0110           0
     18064 WT8      261      MECN     H11      HGA3     0.090000        1.0080           0
     18065 WT8      261      MECN     H12      HGA3     0.090000        1.0080           0
     18066 WT8      261      MECN     H13      HGA3     0.090000        1.0080           0
     18067 WT8      261      MECN     C2       CG1N1    0.360000       12.0110           0
     18068 WT8      261      MECN     N3       NG1T1   -0.460000       14.0070           0
     18069 WT8      268      MECN     C1       CG331   -0.170000       12.0110           0
     18070 WT8      268      MECN     H11      HGA3     0.090000        1.0080           0
     18071 WT8      268      MECN     H12      HGA3     0.090000        1.0080           0
     18072 WT8      268      MECN     H13      HGA3     0.090000        1.0080           0
     18073 WT8      268      MECN     C2       CG1N1    0.360000       12.0110           0
     18074 WT8      268      MECN     N3       NG1T1   -0.460000       14.0070           0
     18075 WT8      269      MECN     C1       CG331   -0.170000       12.0110           0
     18076 WT8      269      MECN     H11      HGA3     0.090000        1.0080           0
     18077 WT8      269      MECN     H12      HGA3     0.090000        1.0080           0
     18078 WT8      269      MECN     H13      HGA3     0.090000        1.0080           0
     18079 WT8      269      MECN     C2       CG1N1    0.360000       12.0110           0
     18080 WT8      269      MECN     N3       NG1T1   -0.460000       14.0070           0
     18081 WT8      273      MECN     C1       CG331   -0.170000       12.0110           0
     18082 WT8      273      MECN     H11      HGA3     0.090000        1.0080           0
     18083 WT8      273      MECN     H12      HGA3     0.090000        1.0080           0
     18084 WT8      273      MECN     H13      HGA3     0.090000        1.0080           0
     18085 WT8      273      MECN     C2       CG1N1    0.360000       12.0110           0
     18086 WT8      273      MECN     N3       NG1T1   -0.460000       14.0070           0
     18087 WT8      277      MECN     C1       CG331   -0.170000       12.0110           0
     18088 WT8      277      MECN     H11      HGA3     0.090000        1.0080           0
     18089 WT8      277      MECN     H12      HGA3     0.090000        1.0080           0
     18090 WT8      277      MECN     H13      HGA3     0.090000        1.0080           0
     18091 WT8      277      MECN     C2       CG1N1    0.360000       12.0110           0
     18092 WT8      277      MECN     N3       NG1T1   -0.460000       14.0070           0
     18093 WT8      284      MECN     C1       CG331   -0.170000       12.0110           0
     18094 WT8      284      MECN     H11      HGA3     0.090000        1.0080           0
     18095 WT8      284      MECN     H12      HGA3     0.090000        1.0080           0
     18096 WT8      284      MECN     H13      HGA3     0.090000        1.0080           0
     18097 WT8      284      MECN     C2       CG1N1    0.360000       12.0110           0
     18098 WT8      284      MECN     N3       NG1T1   -0.460000       14.0070           0
     18099 WT8      289      MECN     C1       CG331   -0.170000       12.0110           0
     18100 WT8      289      MECN     H11      HGA3     0.090000        1.0080           0
     18101 WT8      289      MECN     H12      HGA3     0.090000        1.0080           0
     18102 WT8      289      MECN     H13      HGA3     0.090000        1.0080           0
     18103 WT8      289      MECN     C2       CG1N1    0.360000       12.0110           0
     18104 WT8      289      MECN     N3       NG1T1   -0.460000       14.0070           0
     18105 WT8      291      MECN     C1       CG331   -0.170000       12.0110           0
     18106 WT8      291      MECN     H11      HGA3     0.090000        1.0080           0
     18107 WT8      291      MECN     H12      HGA3     0.090000        1.0080           0
     18108 WT8      291      MECN     H13      HGA3     0.090000        1.0080           0
     18109 WT8      291      MECN     C2       CG1N1    0.360000       12.0110           0
     18110 WT8      291      MECN     N3       NG1T1   -0.460000       14.0070           0
     18111 WT8      293      MECN     C1       CG331   -0.170000       12.0110           0
     18112 WT8      293      MECN     H11      HGA3     0.090000        1.0080           0
     18113 WT8      293      MECN     H12      HGA3     0.090000        1.0080           0
     18114 WT8      293      MECN     H13      HGA3     0.090000        1.0080           0
     18115 WT8      293      MECN     C2       CG1N1    0.360000       12.0110           0
     18116 WT8      293      MECN     N3       NG1T1   -0.460000       14.0070           0
     18117 WT8      299      MECN     C1       CG331   -0.170000       12.0110           0
     18118 WT8      299      MECN     H11      HGA3     0.090000        1.0080           0
     18119 WT8      299      MECN     H12      HGA3     0.090000        1.0080           0
     18120 WT8      299      MECN     H13      HGA3     0.090000        1.0080           0
     18121 WT8      299      MECN     C2       CG1N1    0.360000       12.0110           0
     18122 WT8      299      MECN     N3       NG1T1   -0.460000       14.0070           0
     18123 WT8      303      MECN     C1       CG331   -0.170000       12.0110           0
     18124 WT8      303      MECN     H11      HGA3     0.090000        1.0080           0
     18125 WT8      303      MECN     H12      HGA3     0.090000        1.0080           0
     18126 WT8      303      MECN     H13      HGA3     0.090000        1.0080           0
     18127 WT8      303      MECN     C2       CG1N1    0.360000       12.0110           0
     18128 WT8      303      MECN     N3       NG1T1   -0.460000       14.0070           0
     18129 WT8      312      MECN     C1       CG331   -0.170000       12.0110           0
     18130 WT8      312      MECN     H11      HGA3     0.090000        1.0080           0
     18131 WT8      312      MECN     H12      HGA3     0.090000        1.0080           0
     18132 WT8      312      MECN     H13      HGA3     0.090000        1.0080           0
     18133 WT8      312      MECN     C2       CG1N1    0.360000       12.0110           0
     18134 WT8      312      MECN     N3       NG1T1   -0.460000       14.0070           0
     18135 WT8      313      MECN     C1       CG331   -0.170000       12.0110           0
     18136 WT8      313      MECN     H11      HGA3     0.090000        1.0080           0
     18137 WT8      313      MECN     H12      HGA3     0.090000        1.0080           0
     18138 WT8      313      MECN     H13      HGA3     0.090000        1.0080           0
     18139 WT8      313      MECN     C2       CG1N1    0.360000       12.0110           0
     18140 WT8      313      MECN     N3       NG1T1   -0.460000       14.0070           0
     18141 WT8      320      MECN     C1       CG331   -0.170000       12.0110           0
     18142 WT8      320      MECN     H11      HGA3     0.090000        1.0080           0
     18143 WT8      320      MECN     H12      HGA3     0.090000        1.0080           0
     18144 WT8      320      MECN     H13      HGA3     0.090000        1.0080           0
     18145 WT8      320      MECN     C2       CG1N1    0.360000       12.0110           0
     18146 WT8      320      MECN     N3       NG1T1   -0.460000       14.0070           0
     18147 WT8      321      MECN     C1       CG331   -0.170000       12.0110           0
     18148 WT8      321      MECN     H11      HGA3     0.090000        1.0080           0
     18149 WT8      321      MECN     H12      HGA3     0.090000        1.0080           0
     18150 WT8      321      MECN     H13      HGA3     0.090000        1.0080           0
     18151 WT8      321      MECN     C2       CG1N1    0.360000       12.0110           0
     18152 WT8      321      MECN     N3       NG1T1   -0.460000       14.0070           0
     18153 WT8      324      MECN     C1       CG331   -0.170000       12.0110           0
     18154 WT8      324      MECN     H11      HGA3     0.090000        1.0080           0
     18155 WT8      324      MECN     H12      HGA3     0.090000        1.0080           0
     18156 WT8      324      MECN     H13      HGA3     0.090000        1.0080           0
     18157 WT8      324      MECN     C2       CG1N1    0.360000       12.0110           0
     18158 WT8      324      MECN     N3       NG1T1   -0.460000       14.0070           0
     18159 WT8      329      MECN     C1       CG331   -0.170000       12.0110           0
     18160 WT8      329      MECN     H11      HGA3     0.090000        1.0080           0
     18161 WT8      329      MECN     H12      HGA3     0.090000        1.0080           0
     18162 WT8      329      MECN     H13      HGA3     0.090000        1.0080           0
     18163 WT8      329      MECN     C2       CG1N1    0.360000       12.0110           0
     18164 WT8      329      MECN     N3       NG1T1   -0.460000       14.0070           0
     18165 WT8      331      MECN     C1       CG331   -0.170000       12.0110           0
     18166 WT8      331      MECN     H11      HGA3     0.090000        1.0080           0
     18167 WT8      331      MECN     H12      HGA3     0.090000        1.0080           0
     18168 WT8      331      MECN     H13      HGA3     0.090000        1.0080           0
     18169 WT8      331      MECN     C2       CG1N1    0.360000       12.0110           0
     18170 WT8      331      MECN     N3       NG1T1   -0.460000       14.0070           0
     18171 WT8      350      MECN     C1       CG331   -0.170000       12.0110           0
     18172 WT8      350      MECN     H11      HGA3     0.090000        1.0080           0
     18173 WT8      350      MECN     H12      HGA3     0.090000        1.0080           0
     18174 WT8      350      MECN     H13      HGA3     0.090000        1.0080           0
     18175 WT8      350      MECN     C2       CG1N1    0.360000       12.0110           0
     18176 WT8      350      MECN     N3       NG1T1   -0.460000       14.0070           0
     18177 WT8      352      MECN     C1       CG331   -0.170000       12.0110           0
     18178 WT8      352      MECN     H11      HGA3     0.090000        1.0080           0
     18179 WT8      352      MECN     H12      HGA3     0.090000        1.0080           0
     18180 WT8      352      MECN     H13      HGA3     0.090000        1.0080           0
     18181 WT8      352      MECN     C2       CG1N1    0.360000       12.0110           0
     18182 WT8      352      MECN     N3       NG1T1   -0.460000       14.0070           0
     18183 WT8      354      MECN     C1       CG331   -0.170000       12.0110           0
     18184 WT8      354      MECN     H11      HGA3     0.090000        1.0080           0
     18185 WT8      354      MECN     H12      HGA3     0.090000        1.0080           0
     18186 WT8      354      MECN     H13      HGA3     0.090000        1.0080           0
     18187 WT8      354      MECN     C2       CG1N1    0.360000       12.0110           0
     18188 WT8      354      MECN     N3       NG1T1   -0.460000       14.0070           0
     18189 WT8      355      MECN     C1       CG331   -0.170000       12.0110           0
     18190 WT8      355      MECN     H11      HGA3     0.090000        1.0080           0
     18191 WT8      355      MECN     H12      HGA3     0.090000        1.0080           0
     18192 WT8      355      MECN     H13      HGA3     0.090000        1.0080           0
     18193 WT8      355      MECN     C2       CG1N1    0.360000       12.0110           0
     18194 WT8      355      MECN     N3       NG1T1   -0.460000       14.0070           0
     18195 WT8      357      MECN     C1       CG331   -0.170000       12.0110           0
     18196 WT8      357      MECN     H11      HGA3     0.090000        1.0080           0
     18197 WT8      357      MECN     H12      HGA3     0.090000        1.0080           0
     18198 WT8      357      MECN     H13      HGA3     0.090000        1.0080           0
     18199 WT8      357      MECN     C2       CG1N1    0.360000       12.0110           0
     18200 WT8      357      MECN     N3       NG1T1   -0.460000       14.0070           0
     18201 WT8      363      MECN     C1       CG331   -0.170000       12.0110           0
     18202 WT8      363      MECN     H11      HGA3     0.090000        1.0080           0
     18203 WT8      363      MECN     H12      HGA3     0.090000        1.0080           0
     18204 WT8      363      MECN     H13      HGA3     0.090000        1.0080           0
     18205 WT8      363      MECN     C2       CG1N1    0.360000       12.0110           0
     18206 WT8      363      MECN     N3       NG1T1   -0.460000       14.0070           0
     18207 WT8      365      MECN     C1       CG331   -0.170000       12.0110           0
     18208 WT8      365      MECN     H11      HGA3     0.090000        1.0080           0
     18209 WT8      365      MECN     H12      HGA3     0.090000        1.0080           0
     18210 WT8      365      MECN     H13      HGA3     0.090000        1.0080           0
     18211 WT8      365      MECN     C2       CG1N1    0.360000       12.0110           0
     18212 WT8      365      MECN     N3       NG1T1   -0.460000       14.0070           0
     18213 WT8      366      MECN     C1       CG331   -0.170000       12.0110           0
     18214 WT8      366      MECN     H11      HGA3     0.090000        1.0080           0
     18215 WT8      366      MECN     H12      HGA3     0.090000        1.0080           0
     18216 WT8      366      MECN     H13      HGA3     0.090000        1.0080           0
     18217 WT8      366      MECN     C2       CG1N1    0.360000       12.0110           0
     18218 WT8      366      MECN     N3       NG1T1   -0.460000       14.0070           0
     18219 WT8      368      MECN     C1       CG331   -0.170000       12.0110           0
     18220 WT8      368      MECN     H11      HGA3     0.090000        1.0080           0
     18221 WT8      368      MECN     H12      HGA3     0.090000        1.0080           0
     18222 WT8      368      MECN     H13      HGA3     0.090000        1.0080           0
     18223 WT8      368      MECN     C2       CG1N1    0.360000       12.0110           0
     18224 WT8      368      MECN     N3       NG1T1   -0.460000       14.0070           0
     18225 WT8      370      MECN     C1       CG331   -0.170000       12.0110           0
     18226 WT8      370      MECN     H11      HGA3     0.090000        1.0080           0
     18227 WT8      370      MECN     H12      HGA3     0.090000        1.0080           0
     18228 WT8      370      MECN     H13      HGA3     0.090000        1.0080           0
     18229 WT8      370      MECN     C2       CG1N1    0.360000       12.0110           0
     18230 WT8      370      MECN     N3       NG1T1   -0.460000       14.0070           0
     18231 WT8      372      MECN     C1       CG331   -0.170000       12.0110           0
     18232 WT8      372      MECN     H11      HGA3     0.090000        1.0080           0
     18233 WT8      372      MECN     H12      HGA3     0.090000        1.0080           0
     18234 WT8      372      MECN     H13      HGA3     0.090000        1.0080           0
     18235 WT8      372      MECN     C2       CG1N1    0.360000       12.0110           0
     18236 WT8      372      MECN     N3       NG1T1   -0.460000       14.0070           0
     18237 WT8      379      MECN     C1       CG331   -0.170000       12.0110           0
     18238 WT8      379      MECN     H11      HGA3     0.090000        1.0080           0
     18239 WT8      379      MECN     H12      HGA3     0.090000        1.0080           0
     18240 WT8      379      MECN     H13      HGA3     0.090000        1.0080           0
     18241 WT8      379      MECN     C2       CG1N1    0.360000       12.0110           0
     18242 WT8      379      MECN     N3       NG1T1   -0.460000       14.0070           0
     18243 WT8      381      MECN     C1       CG331   -0.170000       12.0110           0
     18244 WT8      381      MECN     H11      HGA3     0.090000        1.0080           0
     18245 WT8      381      MECN     H12      HGA3     0.090000        1.0080           0
     18246 WT8      381      MECN     H13      HGA3     0.090000        1.0080           0
     18247 WT8      381      MECN     C2       CG1N1    0.360000       12.0110           0
     18248 WT8      381      MECN     N3       NG1T1   -0.460000       14.0070           0
     18249 WT8      382      MECN     C1       CG331   -0.170000       12.0110           0
     18250 WT8      382      MECN     H11      HGA3     0.090000        1.0080           0
     18251 WT8      382      MECN     H12      HGA3     0.090000        1.0080           0
     18252 WT8      382      MECN     H13      HGA3     0.090000        1.0080           0
     18253 WT8      382      MECN     C2       CG1N1    0.360000       12.0110           0
     18254 WT8      382      MECN     N3       NG1T1   -0.460000       14.0070           0
     18255 WT8      390      MECN     C1       CG331   -0.170000       12.0110           0
     18256 WT8      390      MECN     H11      HGA3     0.090000        1.0080           0
     18257 WT8      390      MECN     H12      HGA3     0.090000        1.0080           0
     18258 WT8      390      MECN     H13      HGA3     0.090000        1.0080           0
     18259 WT8      390      MECN     C2       CG1N1    0.360000       12.0110           0
     18260 WT8      390      MECN     N3       NG1T1   -0.460000       14.0070           0
     18261 WT8      392      MECN     C1       CG331   -0.170000       12.0110           0
     18262 WT8      392      MECN     H11      HGA3     0.090000        1.0080           0
     18263 WT8      392      MECN     H12      HGA3     0.090000        1.0080           0
     18264 WT8      392      MECN     H13      HGA3     0.090000        1.0080           0
     18265 WT8      392      MECN     C2       CG1N1    0.360000       12.0110           0
     18266 WT8      392      MECN     N3       NG1T1   -0.460000       14.0070           0
     18267 WT8      397      MECN     C1       CG331   -0.170000       12.0110           0
     18268 WT8      397      MECN     H11      HGA3     0.090000        1.0080           0
     18269 WT8      397      MECN     H12      HGA3     0.090000        1.0080           0
     18270 WT8      397      MECN     H13      HGA3     0.090000        1.0080           0
     18271 WT8      397      MECN     C2       CG1N1    0.360000       12.0110           0
     18272 WT8      397      MECN     N3       NG1T1   -0.460000       14.0070           0
     18273 WT8      398      MECN     C1       CG331   -0.170000       12.0110           0
     18274 WT8      398      MECN     H11      HGA3     0.090000        1.0080           0
     18275 WT8      398      MECN     H12      HGA3     0.090000        1.0080           0
     18276 WT8      398      MECN     H13      HGA3     0.090000        1.0080           0
     18277 WT8      398      MECN     C2       CG1N1    0.360000       12.0110           0
     18278 WT8      398      MECN     N3       NG1T1   -0.460000       14.0070           0
     18279 WT8      399      MECN     C1       CG331   -0.170000       12.0110           0
     18280 WT8      399      MECN     H11      HGA3     0.090000        1.0080           0
     18281 WT8      399      MECN     H12      HGA3     0.090000        1.0080           0
     18282 WT8      399      MECN     H13      HGA3     0.090000        1.0080           0
     18283 WT8      399      MECN     C2       CG1N1    0.360000       12.0110           0
     18284 WT8      399      MECN     N3       NG1T1   -0.460000       14.0070           0
     18285 WT8      407      MECN     C1       CG331   -0.170000       12.0110           0
     18286 WT8      407      MECN     H11      HGA3     0.090000        1.0080           0
     18287 WT8      407      MECN     H12      HGA3     0.090000        1.0080           0
     18288 WT8      407      MECN     H13      HGA3     0.090000        1.0080           0
     18289 WT8      407      MECN     C2       CG1N1    0.360000       12.0110           0
     18290 WT8      407      MECN     N3       NG1T1   -0.460000       14.0070           0
     18291 WT8      411      MECN     C1       CG331   -0.170000       12.0110           0
     18292 WT8      411      MECN     H11      HGA3     0.090000        1.0080           0
     18293 WT8      411      MECN     H12      HGA3     0.090000        1.0080           0
     18294 WT8      411      MECN     H13      HGA3     0.090000        1.0080           0
     18295 WT8      411      MECN     C2       CG1N1    0.360000       12.0110           0
     18296 WT8      411      MECN     N3       NG1T1   -0.460000       14.0070           0
     18297 WT8      412      MECN     C1       CG331   -0.170000       12.0110           0
     18298 WT8      412      MECN     H11      HGA3     0.090000        1.0080           0
     18299 WT8      412      MECN     H12      HGA3     0.090000        1.0080           0
     18300 WT8      412      MECN     H13      HGA3     0.090000        1.0080           0
     18301 WT8      412      MECN     C2       CG1N1    0.360000       12.0110           0
     18302 WT8      412      MECN     N3       NG1T1   -0.460000       14.0070           0
     18303 WT8      419      MECN     C1       CG331   -0.170000       12.0110           0
     18304 WT8      419      MECN     H11      HGA3     0.090000        1.0080           0
     18305 WT8      419      MECN     H12      HGA3     0.090000        1.0080           0
     18306 WT8      419      MECN     H13      HGA3     0.090000        1.0080           0
     18307 WT8      419      MECN     C2       CG1N1    0.360000       12.0110           0
     18308 WT8      419      MECN     N3       NG1T1   -0.460000       14.0070           0
     18309 WT8      424      MECN     C1       CG331   -0.170000       12.0110           0
     18310 WT8      424      MECN     H11      HGA3     0.090000        1.0080           0
     18311 WT8      424      MECN     H12      HGA3     0.090000        1.0080           0
     18312 WT8      424      MECN     H13      HGA3     0.090000        1.0080           0
     18313 WT8      424      MECN     C2       CG1N1    0.360000       12.0110           0
     18314 WT8      424      MECN     N3       NG1T1   -0.460000       14.0070           0
     18315 WT8      425      MECN     C1       CG331   -0.170000       12.0110           0
     18316 WT8      425      MECN     H11      HGA3     0.090000        1.0080           0
     18317 WT8      425      MECN     H12      HGA3     0.090000        1.0080           0
     18318 WT8      425      MECN     H13      HGA3     0.090000        1.0080           0
     18319 WT8      425      MECN     C2       CG1N1    0.360000       12.0110           0
     18320 WT8      425      MECN     N3       NG1T1   -0.460000       14.0070           0
     18321 WT8      426      MECN     C1       CG331   -0.170000       12.0110           0
     18322 WT8      426      MECN     H11      HGA3     0.090000        1.0080           0
     18323 WT8      426      MECN     H12      HGA3     0.090000        1.0080           0
     18324 WT8      426      MECN     H13      HGA3     0.090000        1.0080           0
     18325 WT8      426      MECN     C2       CG1N1    0.360000       12.0110           0
     18326 WT8      426      MECN     N3       NG1T1   -0.460000       14.0070           0
     18327 WT8      428      MECN     C1       CG331   -0.170000       12.0110           0
     18328 WT8      428      MECN     H11      HGA3     0.090000        1.0080           0
     18329 WT8      428      MECN     H12      HGA3     0.090000        1.0080           0
     18330 WT8      428      MECN     H13      HGA3     0.090000        1.0080           0
     18331 WT8      428      MECN     C2       CG1N1    0.360000       12.0110           0
     18332 WT8      428      MECN     N3       NG1T1   -0.460000       14.0070           0
     18333 WT8      442      MECN     C1       CG331   -0.170000       12.0110           0
     18334 WT8      442      MECN     H11      HGA3     0.090000        1.0080           0
     18335 WT8      442      MECN     H12      HGA3     0.090000        1.0080           0
     18336 WT8      442      MECN     H13      HGA3     0.090000        1.0080           0
     18337 WT8      442      MECN     C2       CG1N1    0.360000       12.0110           0
     18338 WT8      442      MECN     N3       NG1T1   -0.460000       14.0070           0
     18339 WT8      444      MECN     C1       CG331   -0.170000       12.0110           0
     18340 WT8      444      MECN     H11      HGA3     0.090000        1.0080           0
     18341 WT8      444      MECN     H12      HGA3     0.090000        1.0080           0
     18342 WT8      444      MECN     H13      HGA3     0.090000        1.0080           0
     18343 WT8      444      MECN     C2       CG1N1    0.360000       12.0110           0
     18344 WT8      444      MECN     N3       NG1T1   -0.460000       14.0070           0
     18345 WT8      447      MECN     C1       CG331   -0.170000       12.0110           0
     18346 WT8      447      MECN     H11      HGA3     0.090000        1.0080           0
     18347 WT8      447      MECN     H12      HGA3     0.090000        1.0080           0
     18348 WT8      447      MECN     H13      HGA3     0.090000        1.0080           0
     18349 WT8      447      MECN     C2       CG1N1    0.360000       12.0110           0
     18350 WT8      447      MECN     N3       NG1T1   -0.460000       14.0070           0
     18351 WT8      459      MECN     C1       CG331   -0.170000       12.0110           0
     18352 WT8      459      MECN     H11      HGA3     0.090000        1.0080           0
     18353 WT8      459      MECN     H12      HGA3     0.090000        1.0080           0
     18354 WT8      459      MECN     H13      HGA3     0.090000        1.0080           0
     18355 WT8      459      MECN     C2       CG1N1    0.360000       12.0110           0
     18356 WT8      459      MECN     N3       NG1T1   -0.460000       14.0070           0
     18357 WT8      460      MECN     C1       CG331   -0.170000       12.0110           0
     18358 WT8      460      MECN     H11      HGA3     0.090000        1.0080           0
     18359 WT8      460      MECN     H12      HGA3     0.090000        1.0080           0
     18360 WT8      460      MECN     H13      HGA3     0.090000        1.0080           0
     18361 WT8      460      MECN     C2       CG1N1    0.360000       12.0110           0
     18362 WT8      460      MECN     N3       NG1T1   -0.460000       14.0070           0
     18363 WT8      463      MECN     C1       CG331   -0.170000       12.0110           0
     18364 WT8      463      MECN     H11      HGA3     0.090000        1.0080           0
     18365 WT8      463      MECN     H12      HGA3     0.090000        1.0080           0
     18366 WT8      463      MECN     H13      HGA3     0.090000        1.0080           0
     18367 WT8      463      MECN     C2       CG1N1    0.360000       12.0110           0
     18368 WT8      463      MECN     N3       NG1T1   -0.460000       14.0070           0
     18369 WT8      465      MECN     C1       CG331   -0.170000       12.0110           0
     18370 WT8      465      MECN     H11      HGA3     0.090000        1.0080           0
     18371 WT8      465      MECN     H12      HGA3     0.090000        1.0080           0
     18372 WT8      465      MECN     H13      HGA3     0.090000        1.0080           0
     18373 WT8      465      MECN     C2       CG1N1    0.360000       12.0110           0
     18374 WT8      465      MECN     N3       NG1T1   -0.460000       14.0070           0
     18375 WT8      469      MECN     C1       CG331   -0.170000       12.0110           0
     18376 WT8      469      MECN     H11      HGA3     0.090000        1.0080           0
     18377 WT8      469      MECN     H12      HGA3     0.090000        1.0080           0
     18378 WT8      469      MECN     H13      HGA3     0.090000        1.0080           0
     18379 WT8      469      MECN     C2       CG1N1    0.360000       12.0110           0
     18380 WT8      469      MECN     N3       NG1T1   -0.460000       14.0070           0
     18381 WT8      473      MECN     C1       CG331   -0.170000       12.0110           0
     18382 WT8      473      MECN     H11      HGA3     0.090000        1.0080           0
     18383 WT8      473      MECN     H12      HGA3     0.090000        1.0080           0
     18384 WT8      473      MECN     H13      HGA3     0.090000        1.0080           0
     18385 WT8      473      MECN     C2       CG1N1    0.360000       12.0110           0
     18386 WT8      473      MECN     N3       NG1T1   -0.460000       14.0070           0
     18387 WT8      478      MECN     C1       CG331   -0.170000       12.0110           0
     18388 WT8      478      MECN     H11      HGA3     0.090000        1.0080           0
     18389 WT8      478      MECN     H12      HGA3     0.090000        1.0080           0
     18390 WT8      478      MECN     H13      HGA3     0.090000        1.0080           0
     18391 WT8      478      MECN     C2       CG1N1    0.360000       12.0110           0
     18392 WT8      478      MECN     N3       NG1T1   -0.460000       14.0070           0
     18393 WT8      487      MECN     C1       CG331   -0.170000       12.0110           0
     18394 WT8      487      MECN     H11      HGA3     0.090000        1.0080           0
     18395 WT8      487      MECN     H12      HGA3     0.090000        1.0080           0
     18396 WT8      487      MECN     H13      HGA3     0.090000        1.0080           0
     18397 WT8      487      MECN     C2       CG1N1    0.360000       12.0110           0
     18398 WT8      487      MECN     N3       NG1T1   -0.460000       14.0070           0
     18399 WT8      500      MECN     C1       CG331   -0.170000       12.0110           0
     18400 WT8      500      MECN     H11      HGA3     0.090000        1.0080           0
     18401 WT8      500      MECN     H12      HGA3     0.090000        1.0080           0
     18402 WT8      500      MECN     H13      HGA3     0.090000        1.0080           0
     18403 WT8      500      MECN     C2       CG1N1    0.360000       12.0110           0
     18404 WT8      500      MECN     N3       NG1T1   -0.460000       14.0070           0
     18405 WT8      512      MECN     C1       CG331   -0.170000       12.0110           0
     18406 WT8      512      MECN     H11      HGA3     0.090000        1.0080           0
     18407 WT8      512      MECN     H12      HGA3     0.090000        1.0080           0
     18408 WT8      512      MECN     H13      HGA3     0.090000        1.0080           0
     18409 WT8      512      MECN     C2       CG1N1    0.360000       12.0110           0
     18410 WT8      512      MECN     N3       NG1T1   -0.460000       14.0070           0
     18411 WT8      513      MECN     C1       CG331   -0.170000       12.0110           0
     18412 WT8      513      MECN     H11      HGA3     0.090000        1.0080           0
     18413 WT8      513      MECN     H12      HGA3     0.090000        1.0080           0
     18414 WT8      513      MECN     H13      HGA3     0.090000        1.0080           0
     18415 WT8      513      MECN     C2       CG1N1    0.360000       12.0110           0
     18416 WT8      513      MECN     N3       NG1T1   -0.460000       14.0070           0
     18417 WT8      521      MECN     C1       CG331   -0.170000       12.0110           0
     18418 WT8      521      MECN     H11      HGA3     0.090000        1.0080           0
     18419 WT8      521      MECN     H12      HGA3     0.090000        1.0080           0
     18420 WT8      521      MECN     H13      HGA3     0.090000        1.0080           0
     18421 WT8      521      MECN     C2       CG1N1    0.360000       12.0110           0
     18422 WT8      521      MECN     N3       NG1T1   -0.460000       14.0070           0
     18423 WT8      524      MECN     C1       CG331   -0.170000       12.0110           0
     18424 WT8      524      MECN     H11      HGA3     0.090000        1.0080           0
     18425 WT8      524      MECN     H12      HGA3     0.090000        1.0080           0
     18426 WT8      524      MECN     H13      HGA3     0.090000        1.0080           0
     18427 WT8      524      MECN     C2       CG1N1    0.360000       12.0110           0
     18428 WT8      524      MECN     N3       NG1T1   -0.460000       14.0070           0
     18429 WT8      527      MECN     C1       CG331   -0.170000       12.0110           0
     18430 WT8      527      MECN     H11      HGA3     0.090000        1.0080           0
     18431 WT8      527      MECN     H12      HGA3     0.090000        1.0080           0
     18432 WT8      527      MECN     H13      HGA3     0.090000        1.0080           0
     18433 WT8      527      MECN     C2       CG1N1    0.360000       12.0110           0
     18434 WT8      527      MECN     N3       NG1T1   -0.460000       14.0070           0
     18435 WT8      544      MECN     C1       CG331   -0.170000       12.0110           0
     18436 WT8      544      MECN     H11      HGA3     0.090000        1.0080           0
     18437 WT8      544      MECN     H12      HGA3     0.090000        1.0080           0
     18438 WT8      544      MECN     H13      HGA3     0.090000        1.0080           0
     18439 WT8      544      MECN     C2       CG1N1    0.360000       12.0110           0
     18440 WT8      544      MECN     N3       NG1T1   -0.460000       14.0070           0
     18441 WT8      549      MECN     C1       CG331   -0.170000       12.0110           0
     18442 WT8      549      MECN     H11      HGA3     0.090000        1.0080           0
     18443 WT8      549      MECN     H12      HGA3     0.090000        1.0080           0
     18444 WT8      549      MECN     H13      HGA3     0.090000        1.0080           0
     18445 WT8      549      MECN     C2       CG1N1    0.360000       12.0110           0
     18446 WT8      549      MECN     N3       NG1T1   -0.460000       14.0070           0
     18447 WT8      556      MECN     C1       CG331   -0.170000       12.0110           0
     18448 WT8      556      MECN     H11      HGA3     0.090000        1.0080           0
     18449 WT8      556      MECN     H12      HGA3     0.090000        1.0080           0
     18450 WT8      556      MECN     H13      HGA3     0.090000        1.0080           0
     18451 WT8      556      MECN     C2       CG1N1    0.360000       12.0110           0
     18452 WT8      556      MECN     N3       NG1T1   -0.460000       14.0070           0
     18453 WT8      558      MECN     C1       CG331   -0.170000       12.0110           0
     18454 WT8      558      MECN     H11      HGA3     0.090000        1.0080           0
     18455 WT8      558      MECN     H12      HGA3     0.090000        1.0080           0
     18456 WT8      558      MECN     H13      HGA3     0.090000        1.0080           0
     18457 WT8      558      MECN     C2       CG1N1    0.360000       12.0110           0
     18458 WT8      558      MECN     N3       NG1T1   -0.460000       14.0070           0
     18459 WT8      563      MECN     C1       CG331   -0.170000       12.0110           0
     18460 WT8      563      MECN     H11      HGA3     0.090000        1.0080           0
     18461 WT8      563      MECN     H12      HGA3     0.090000        1.0080           0
     18462 WT8      563      MECN     H13      HGA3     0.090000        1.0080           0
     18463 WT8      563      MECN     C2       CG1N1    0.360000       12.0110           0
     18464 WT8      563      MECN     N3       NG1T1   -0.460000       14.0070           0
     18465 WT8      565      MECN     C1       CG331   -0.170000       12.0110           0
     18466 WT8      565      MECN     H11      HGA3     0.090000        1.0080           0
     18467 WT8      565      MECN     H12      HGA3     0.090000        1.0080           0
     18468 WT8      565      MECN     H13      HGA3     0.090000        1.0080           0
     18469 WT8      565      MECN     C2       CG1N1    0.360000       12.0110           0
     18470 WT8      565      MECN     N3       NG1T1   -0.460000       14.0070           0
     18471 WT8      566      MECN     C1       CG331   -0.170000       12.0110           0
     18472 WT8      566      MECN     H11      HGA3     0.090000        1.0080           0
     18473 WT8      566      MECN     H12      HGA3     0.090000        1.0080           0
     18474 WT8      566      MECN     H13      HGA3     0.090000        1.0080           0
     18475 WT8      566      MECN     C2       CG1N1    0.360000       12.0110           0
     18476 WT8      566      MECN     N3       NG1T1   -0.460000       14.0070           0
     18477 WT8      567      MECN     C1       CG331   -0.170000       12.0110           0
     18478 WT8      567      MECN     H11      HGA3     0.090000        1.0080           0
     18479 WT8      567      MECN     H12      HGA3     0.090000        1.0080           0
     18480 WT8      567      MECN     H13      HGA3     0.090000        1.0080           0
     18481 WT8      567      MECN     C2       CG1N1    0.360000       12.0110           0
     18482 WT8      567      MECN     N3       NG1T1   -0.460000       14.0070           0
     18483 WT8      568      MECN     C1       CG331   -0.170000       12.0110           0
     18484 WT8      568      MECN     H11      HGA3     0.090000        1.0080           0
     18485 WT8      568      MECN     H12      HGA3     0.090000        1.0080           0
     18486 WT8      568      MECN     H13      HGA3     0.090000        1.0080           0
     18487 WT8      568      MECN     C2       CG1N1    0.360000       12.0110           0
     18488 WT8      568      MECN     N3       NG1T1   -0.460000       14.0070           0
     18489 WT8      570      MECN     C1       CG331   -0.170000       12.0110           0
     18490 WT8      570      MECN     H11      HGA3     0.090000        1.0080           0
     18491 WT8      570      MECN     H12      HGA3     0.090000        1.0080           0
     18492 WT8      570      MECN     H13      HGA3     0.090000        1.0080           0
     18493 WT8      570      MECN     C2       CG1N1    0.360000       12.0110           0
     18494 WT8      570      MECN     N3       NG1T1   -0.460000       14.0070           0
     18495 WT8      574      MECN     C1       CG331   -0.170000       12.0110           0
     18496 WT8      574      MECN     H11      HGA3     0.090000        1.0080           0
     18497 WT8      574      MECN     H12      HGA3     0.090000        1.0080           0
     18498 WT8      574      MECN     H13      HGA3     0.090000        1.0080           0
     18499 WT8      574      MECN     C2       CG1N1    0.360000       12.0110           0
     18500 WT8      574      MECN     N3       NG1T1   -0.460000       14.0070           0
     18501 WT8      576      MECN     C1       CG331   -0.170000       12.0110           0
     18502 WT8      576      MECN     H11      HGA3     0.090000        1.0080           0
     18503 WT8      576      MECN     H12      HGA3     0.090000        1.0080           0
     18504 WT8      576      MECN     H13      HGA3     0.090000        1.0080           0
     18505 WT8      576      MECN     C2       CG1N1    0.360000       12.0110           0
     18506 WT8      576      MECN     N3       NG1T1   -0.460000       14.0070           0
     18507 WT8      581      MECN     C1       CG331   -0.170000       12.0110           0
     18508 WT8      581      MECN     H11      HGA3     0.090000        1.0080           0
     18509 WT8      581      MECN     H12      HGA3     0.090000        1.0080           0
     18510 WT8      581      MECN     H13      HGA3     0.090000        1.0080           0
     18511 WT8      581      MECN     C2       CG1N1    0.360000       12.0110           0
     18512 WT8      581      MECN     N3       NG1T1   -0.460000       14.0070           0
     18513 WT8      584      MECN     C1       CG331   -0.170000       12.0110           0
     18514 WT8      584      MECN     H11      HGA3     0.090000        1.0080           0
     18515 WT8      584      MECN     H12      HGA3     0.090000        1.0080           0
     18516 WT8      584      MECN     H13      HGA3     0.090000        1.0080           0
     18517 WT8      584      MECN     C2       CG1N1    0.360000       12.0110           0
     18518 WT8      584      MECN     N3       NG1T1   -0.460000       14.0070           0
     18519 WT8      591      MECN     C1       CG331   -0.170000       12.0110           0
     18520 WT8      591      MECN     H11      HGA3     0.090000        1.0080           0
     18521 WT8      591      MECN     H12      HGA3     0.090000        1.0080           0
     18522 WT8      591      MECN     H13      HGA3     0.090000        1.0080           0
     18523 WT8      591      MECN     C2       CG1N1    0.360000       12.0110           0
     18524 WT8      591      MECN     N3       NG1T1   -0.460000       14.0070           0
     18525 WT8      594      MECN     C1       CG331   -0.170000       12.0110           0
     18526 WT8      594      MECN     H11      HGA3     0.090000        1.0080           0
     18527 WT8      594      MECN     H12      HGA3     0.090000        1.0080           0
     18528 WT8      594      MECN     H13      HGA3     0.090000        1.0080           0
     18529 WT8      594      MECN     C2       CG1N1    0.360000       12.0110           0
     18530 WT8      594      MECN     N3       NG1T1   -0.460000       14.0070           0
     18531 WT8      596      MECN     C1       CG331   -0.170000       12.0110           0
     18532 WT8      596      MECN     H11      HGA3     0.090000        1.0080           0
     18533 WT8      596      MECN     H12      HGA3     0.090000        1.0080           0
     18534 WT8      596      MECN     H13      HGA3     0.090000        1.0080           0
     18535 WT8      596      MECN     C2       CG1N1    0.360000       12.0110           0
     18536 WT8      596      MECN     N3       NG1T1   -0.460000       14.0070           0
     18537 WT8      599      MECN     C1       CG331   -0.170000       12.0110           0
     18538 WT8      599      MECN     H11      HGA3     0.090000        1.0080           0
     18539 WT8      599      MECN     H12      HGA3     0.090000        1.0080           0
     18540 WT8      599      MECN     H13      HGA3     0.090000        1.0080           0
     18541 WT8      599      MECN     C2       CG1N1    0.360000       12.0110           0
     18542 WT8      599      MECN     N3       NG1T1   -0.460000       14.0070           0
     18543 WT8      601      MECN     C1       CG331   -0.170000       12.0110           0
     18544 WT8      601      MECN     H11      HGA3     0.090000        1.0080           0
     18545 WT8      601      MECN     H12      HGA3     0.090000        1.0080           0
     18546 WT8      601      MECN     H13      HGA3     0.090000        1.0080           0
     18547 WT8      601      MECN     C2       CG1N1    0.360000       12.0110           0
     18548 WT8      601      MECN     N3       NG1T1   -0.460000       14.0070           0
     18549 WT8      603      MECN     C1       CG331   -0.170000       12.0110           0
     18550 WT8      603      MECN     H11      HGA3     0.090000        1.0080           0
     18551 WT8      603      MECN     H12      HGA3     0.090000        1.0080           0
     18552 WT8      603      MECN     H13      HGA3     0.090000        1.0080           0
     18553 WT8      603      MECN     C2       CG1N1    0.360000       12.0110           0
     18554 WT8      603      MECN     N3       NG1T1   -0.460000       14.0070           0
     18555 WT8      606      MECN     C1       CG331   -0.170000       12.0110           0
     18556 WT8      606      MECN     H11      HGA3     0.090000        1.0080           0
     18557 WT8      606      MECN     H12      HGA3     0.090000        1.0080           0
     18558 WT8      606      MECN     H13      HGA3     0.090000        1.0080           0
     18559 WT8      606      MECN     C2       CG1N1    0.360000       12.0110           0
     18560 WT8      606      MECN     N3       NG1T1   -0.460000       14.0070           0
     18561 WT8      609      MECN     C1       CG331   -0.170000       12.0110           0
     18562 WT8      609      MECN     H11      HGA3     0.090000        1.0080           0
     18563 WT8      609      MECN     H12      HGA3     0.090000        1.0080           0
     18564 WT8      609      MECN     H13      HGA3     0.090000        1.0080           0
     18565 WT8      609      MECN     C2       CG1N1    0.360000       12.0110           0
     18566 WT8      609      MECN     N3       NG1T1   -0.460000       14.0070           0
     18567 WT8      610      MECN     C1       CG331   -0.170000       12.0110           0
     18568 WT8      610      MECN     H11      HGA3     0.090000        1.0080           0
     18569 WT8      610      MECN     H12      HGA3     0.090000        1.0080           0
     18570 WT8      610      MECN     H13      HGA3     0.090000        1.0080           0
     18571 WT8      610      MECN     C2       CG1N1    0.360000       12.0110           0
     18572 WT8      610      MECN     N3       NG1T1   -0.460000       14.0070           0
     18573 WT8      611      MECN     C1       CG331   -0.170000       12.0110           0
     18574 WT8      611      MECN     H11      HGA3     0.090000        1.0080           0
     18575 WT8      611      MECN     H12      HGA3     0.090000        1.0080           0
     18576 WT8      611      MECN     H13      HGA3     0.090000        1.0080           0
     18577 WT8      611      MECN     C2       CG1N1    0.360000       12.0110           0
     18578 WT8      611      MECN     N3       NG1T1   -0.460000       14.0070           0
     18579 WT8      614      MECN     C1       CG331   -0.170000       12.0110           0
     18580 WT8      614      MECN     H11      HGA3     0.090000        1.0080           0
     18581 WT8      614      MECN     H12      HGA3     0.090000        1.0080           0
     18582 WT8      614      MECN     H13      HGA3     0.090000        1.0080           0
     18583 WT8      614      MECN     C2       CG1N1    0.360000       12.0110           0
     18584 WT8      614      MECN     N3       NG1T1   -0.460000       14.0070           0
     18585 WT8      616      MECN     C1       CG331   -0.170000       12.0110           0
     18586 WT8      616      MECN     H11      HGA3     0.090000        1.0080           0
     18587 WT8      616      MECN     H12      HGA3     0.090000        1.0080           0
     18588 WT8      616      MECN     H13      HGA3     0.090000        1.0080           0
     18589 WT8      616      MECN     C2       CG1N1    0.360000       12.0110           0
     18590 WT8      616      MECN     N3       NG1T1   -0.460000       14.0070           0
     18591 WT8      617      MECN     C1       CG331   -0.170000       12.0110           0
     18592 WT8      617      MECN     H11      HGA3     0.090000        1.0080           0
     18593 WT8      617      MECN     H12      HGA3     0.090000        1.0080           0
     18594 WT8      617      MECN     H13      HGA3     0.090000        1.0080           0
     18595 WT8      617      MECN     C2       CG1N1    0.360000       12.0110           0
     18596 WT8      617      MECN     N3       NG1T1   -0.460000       14.0070           0
     18597 WT8      625      MECN     C1       CG331   -0.170000       12.0110           0
     18598 WT8      625      MECN     H11      HGA3     0.090000        1.0080           0
     18599 WT8      625      MECN     H12      HGA3     0.090000        1.0080           0
     18600 WT8      625      MECN     H13      HGA3     0.090000        1.0080           0
     18601 WT8      625      MECN     C2       CG1N1    0.360000       12.0110           0
     18602 WT8      625      MECN     N3       NG1T1   -0.460000       14.0070           0
     18603 WT8      628      MECN     C1       CG331   -0.170000       12.0110           0
     18604 WT8      628      MECN     H11      HGA3     0.090000        1.0080           0
     18605 WT8      628      MECN     H12      HGA3     0.090000        1.0080           0
     18606 WT8      628      MECN     H13      HGA3     0.090000        1.0080           0
     18607 WT8      628      MECN     C2       CG1N1    0.360000       12.0110           0
     18608 WT8      628      MECN     N3       NG1T1   -0.460000       14.0070           0
     18609 WT8      630      MECN     C1       CG331   -0.170000       12.0110           0
     18610 WT8      630      MECN     H11      HGA3     0.090000        1.0080           0
     18611 WT8      630      MECN     H12      HGA3     0.090000        1.0080           0
     18612 WT8      630      MECN     H13      HGA3     0.090000        1.0080           0
     18613 WT8      630      MECN     C2       CG1N1    0.360000       12.0110           0
     18614 WT8      630      MECN     N3       NG1T1   -0.460000       14.0070           0
     18615 WT8      633      MECN     C1       CG331   -0.170000       12.0110           0
     18616 WT8      633      MECN     H11      HGA3     0.090000        1.0080           0
     18617 WT8      633      MECN     H12      HGA3     0.090000        1.0080           0
     18618 WT8      633      MECN     H13      HGA3     0.090000        1.0080           0
     18619 WT8      633      MECN     C2       CG1N1    0.360000       12.0110           0
     18620 WT8      633      MECN     N3       NG1T1   -0.460000       14.0070           0
     18621 WT8      638      MECN     C1       CG331   -0.170000       12.0110           0
     18622 WT8      638      MECN     H11      HGA3     0.090000        1.0080           0
     18623 WT8      638      MECN     H12      HGA3     0.090000        1.0080           0
     18624 WT8      638      MECN     H13      HGA3     0.090000        1.0080           0
     18625 WT8      638      MECN     C2       CG1N1    0.360000       12.0110           0
     18626 WT8      638      MECN     N3       NG1T1   -0.460000       14.0070           0
     18627 WT8      641      MECN     C1       CG331   -0.170000       12.0110           0
     18628 WT8      641      MECN     H11      HGA3     0.090000        1.0080           0
     18629 WT8      641      MECN     H12      HGA3     0.090000        1.0080           0
     18630 WT8      641      MECN     H13      HGA3     0.090000        1.0080           0
     18631 WT8      641      MECN     C2       CG1N1    0.360000       12.0110           0
     18632 WT8      641      MECN     N3       NG1T1   -0.460000       14.0070           0
     18633 WT8      644      MECN     C1       CG331   -0.170000       12.0110           0
     18634 WT8      644      MECN     H11      HGA3     0.090000        1.0080           0
     18635 WT8      644      MECN     H12      HGA3     0.090000        1.0080           0
     18636 WT8      644      MECN     H13      HGA3     0.090000        1.0080           0
     18637 WT8      644      MECN     C2       CG1N1    0.360000       12.0110           0
     18638 WT8      644      MECN     N3       NG1T1   -0.460000       14.0070           0
     18639 WT8      646      MECN     C1       CG331   -0.170000       12.0110           0
     18640 WT8      646      MECN     H11      HGA3     0.090000        1.0080           0
     18641 WT8      646      MECN     H12      HGA3     0.090000        1.0080           0
     18642 WT8      646      MECN     H13      HGA3     0.090000        1.0080           0
     18643 WT8      646      MECN     C2       CG1N1    0.360000       12.0110           0
     18644 WT8      646      MECN     N3       NG1T1   -0.460000       14.0070           0
     18645 WT8      655      MECN     C1       CG331   -0.170000       12.0110           0
     18646 WT8      655      MECN     H11      HGA3     0.090000        1.0080           0
     18647 WT8      655      MECN     H12      HGA3     0.090000        1.0080           0
     18648 WT8      655      MECN     H13      HGA3     0.090000        1.0080           0
     18649 WT8      655      MECN     C2       CG1N1    0.360000       12.0110           0
     18650 WT8      655      MECN     N3       NG1T1   -0.460000       14.0070           0
     18651 WT8      656      MECN     C1       CG331   -0.170000       12.0110           0
     18652 WT8      656      MECN     H11      HGA3     0.090000        1.0080           0
     18653 WT8      656      MECN     H12      HGA3     0.090000        1.0080           0
     18654 WT8      656      MECN     H13      HGA3     0.090000        1.0080           0
     18655 WT8      656      MECN     C2       CG1N1    0.360000       12.0110           0
     18656 WT8      656      MECN     N3       NG1T1   -0.460000       14.0070           0
     18657 WT8      657      MECN     C1       CG331   -0.170000       12.0110           0
     18658 WT8      657      MECN     H11      HGA3     0.090000        1.0080           0
     18659 WT8      657      MECN     H12      HGA3     0.090000        1.0080           0
     18660 WT8      657      MECN     H13      HGA3     0.090000        1.0080           0
     18661 WT8      657      MECN     C2       CG1N1    0.360000       12.0110           0
     18662 WT8      657      MECN     N3       NG1T1   -0.460000       14.0070           0
     18663 WT8      664      MECN     C1       CG331   -0.170000       12.0110           0
     18664 WT8      664      MECN     H11      HGA3     0.090000        1.0080           0
     18665 WT8      664      MECN     H12      HGA3     0.090000        1.0080           0
     18666 WT8      664      MECN     H13      HGA3     0.090000        1.0080           0
     18667 WT8      664      MECN     C2       CG1N1    0.360000       12.0110           0
     18668 WT8      664      MECN     N3       NG1T1   -0.460000       14.0070           0
     18669 WT8      667      MECN     C1       CG331   -0.170000       12.0110           0
     18670 WT8      667      MECN     H11      HGA3     0.090000        1.0080           0
     18671 WT8      667      MECN     H12      HGA3     0.090000        1.0080           0
     18672 WT8      667      MECN     H13      HGA3     0.090000        1.0080           0
     18673 WT8      667      MECN     C2       CG1N1    0.360000       12.0110           0
     18674 WT8      667      MECN     N3       NG1T1   -0.460000       14.0070           0
     18675 WT8      668      MECN     C1       CG331   -0.170000       12.0110           0
     18676 WT8      668      MECN     H11      HGA3     0.090000        1.0080           0
     18677 WT8      668      MECN     H12      HGA3     0.090000        1.0080           0
     18678 WT8      668      MECN     H13      HGA3     0.090000        1.0080           0
     18679 WT8      668      MECN     C2       CG1N1    0.360000       12.0110           0
     18680 WT8      668      MECN     N3       NG1T1   -0.460000       14.0070           0
     18681 WT8      672      MECN     C1       CG331   -0.170000       12.0110           0
     18682 WT8      672      MECN     H11      HGA3     0.090000        1.0080           0
     18683 WT8      672      MECN     H12      HGA3     0.090000        1.0080           0
     18684 WT8      672      MECN     H13      HGA3     0.090000        1.0080           0
     18685 WT8      672      MECN     C2       CG1N1    0.360000       12.0110           0
     18686 WT8      672      MECN     N3       NG1T1   -0.460000       14.0070           0
     18687 WT8      677      MECN     C1       CG331   -0.170000       12.0110           0
     18688 WT8      677      MECN     H11      HGA3     0.090000        1.0080           0
     18689 WT8      677      MECN     H12      HGA3     0.090000        1.0080           0
     18690 WT8      677      MECN     H13      HGA3     0.090000        1.0080           0
     18691 WT8      677      MECN     C2       CG1N1    0.360000       12.0110           0
     18692 WT8      677      MECN     N3       NG1T1   -0.460000       14.0070           0
     18693 WT8      678      MECN     C1       CG331   -0.170000       12.0110           0
     18694 WT8      678      MECN     H11      HGA3     0.090000        1.0080           0
     18695 WT8      678      MECN     H12      HGA3     0.090000        1.0080           0
     18696 WT8      678      MECN     H13      HGA3     0.090000        1.0080           0
     18697 WT8      678      MECN     C2       CG1N1    0.360000       12.0110           0
     18698 WT8      678      MECN     N3       NG1T1   -0.460000       14.0070           0
     18699 WT8      681      MECN     C1       CG331   -0.170000       12.0110           0
     18700 WT8      681      MECN     H11      HGA3     0.090000        1.0080           0
     18701 WT8      681      MECN     H12      HGA3     0.090000        1.0080           0
     18702 WT8      681      MECN     H13      HGA3     0.090000        1.0080           0
     18703 WT8      681      MECN     C2       CG1N1    0.360000       12.0110           0
     18704 WT8      681      MECN     N3       NG1T1   -0.460000       14.0070           0
     18705 WT8      687      MECN     C1       CG331   -0.170000       12.0110           0
     18706 WT8      687      MECN     H11      HGA3     0.090000        1.0080           0
     18707 WT8      687      MECN     H12      HGA3     0.090000        1.0080           0
     18708 WT8      687      MECN     H13      HGA3     0.090000        1.0080           0
     18709 WT8      687      MECN     C2       CG1N1    0.360000       12.0110           0
     18710 WT8      687      MECN     N3       NG1T1   -0.460000       14.0070           0
     18711 WT8      689      MECN     C1       CG331   -0.170000       12.0110           0
     18712 WT8      689      MECN     H11      HGA3     0.090000        1.0080           0
     18713 WT8      689      MECN     H12      HGA3     0.090000        1.0080           0
     18714 WT8      689      MECN     H13      HGA3     0.090000        1.0080           0
     18715 WT8      689      MECN     C2       CG1N1    0.360000       12.0110           0
     18716 WT8      689      MECN     N3       NG1T1   -0.460000       14.0070           0
     18717 WT8      691      MECN     C1       CG331   -0.170000       12.0110           0
     18718 WT8      691      MECN     H11      HGA3     0.090000        1.0080           0
     18719 WT8      691      MECN     H12      HGA3     0.090000        1.0080           0
     18720 WT8      691      MECN     H13      HGA3     0.090000        1.0080           0
     18721 WT8      691      MECN     C2       CG1N1    0.360000       12.0110           0
     18722 WT8      691      MECN     N3       NG1T1   -0.460000       14.0070           0
     18723 WT8      695      MECN     C1       CG331   -0.170000       12.0110           0
     18724 WT8      695      MECN     H11      HGA3     0.090000        1.0080           0
     18725 WT8      695      MECN     H12      HGA3     0.090000        1.0080           0
     18726 WT8      695      MECN     H13      HGA3     0.090000        1.0080           0
     18727 WT8      695      MECN     C2       CG1N1    0.360000       12.0110           0
     18728 WT8      695      MECN     N3       NG1T1   -0.460000       14.0070           0
     18729 WT8      696      MECN     C1       CG331   -0.170000       12.0110           0
     18730 WT8      696      MECN     H11      HGA3     0.090000        1.0080           0
     18731 WT8      696      MECN     H12      HGA3     0.090000        1.0080           0
     18732 WT8      696      MECN     H13      HGA3     0.090000        1.0080           0
     18733 WT8      696      MECN     C2       CG1N1    0.360000       12.0110           0
     18734 WT8      696      MECN     N3       NG1T1   -0.460000       14.0070           0
     18735 WT8      703      MECN     C1       CG331   -0.170000       12.0110           0
     18736 WT8      703      MECN     H11      HGA3     0.090000        1.0080           0
     18737 WT8      703      MECN     H12      HGA3     0.090000        1.0080           0
     18738 WT8      703      MECN     H13      HGA3     0.090000        1.0080           0
     18739 WT8      703      MECN     C2       CG1N1    0.360000       12.0110           0
     18740 WT8      703      MECN     N3       NG1T1   -0.460000       14.0070           0
     18741 WT8      705      MECN     C1       CG331   -0.170000       12.0110           0
     18742 WT8      705      MECN     H11      HGA3     0.090000        1.0080           0
     18743 WT8      705      MECN     H12      HGA3     0.090000        1.0080           0
     18744 WT8      705      MECN     H13      HGA3     0.090000        1.0080           0
     18745 WT8      705      MECN     C2       CG1N1    0.360000       12.0110           0
     18746 WT8      705      MECN     N3       NG1T1   -0.460000       14.0070           0
     18747 WT8      707      MECN     C1       CG331   -0.170000       12.0110           0
     18748 WT8      707      MECN     H11      HGA3     0.090000        1.0080           0
     18749 WT8      707      MECN     H12      HGA3     0.090000        1.0080           0
     18750 WT8      707      MECN     H13      HGA3     0.090000        1.0080           0
     18751 WT8      707      MECN     C2       CG1N1    0.360000       12.0110           0
     18752 WT8      707      MECN     N3       NG1T1   -0.460000       14.0070           0
     18753 WT8      711      MECN     C1       CG331   -0.170000       12.0110           0
     18754 WT8      711      MECN     H11      HGA3     0.090000        1.0080           0
     18755 WT8      711      MECN     H12      HGA3     0.090000        1.0080           0
     18756 WT8      711      MECN     H13      HGA3     0.090000        1.0080           0
     18757 WT8      711      MECN     C2       CG1N1    0.360000       12.0110           0
     18758 WT8      711      MECN     N3       NG1T1   -0.460000       14.0070           0
     18759 WT8      718      MECN     C1       CG331   -0.170000       12.0110           0
     18760 WT8      718      MECN     H11      HGA3     0.090000        1.0080           0
     18761 WT8      718      MECN     H12      HGA3     0.090000        1.0080           0
     18762 WT8      718      MECN     H13      HGA3     0.090000        1.0080           0
     18763 WT8      718      MECN     C2       CG1N1    0.360000       12.0110           0
     18764 WT8      718      MECN     N3       NG1T1   -0.460000       14.0070           0
     18765 WT8      719      MECN     C1       CG331   -0.170000       12.0110           0
     18766 WT8      719      MECN     H11      HGA3     0.090000        1.0080           0
     18767 WT8      719      MECN     H12      HGA3     0.090000        1.0080           0
     18768 WT8      719      MECN     H13      HGA3     0.090000        1.0080           0
     18769 WT8      719      MECN     C2       CG1N1    0.360000       12.0110           0
     18770 WT8      719      MECN     N3       NG1T1   -0.460000       14.0070           0
     18771 WT8      724      MECN     C1       CG331   -0.170000       12.0110           0
     18772 WT8      724      MECN     H11      HGA3     0.090000        1.0080           0
     18773 WT8      724      MECN     H12      HGA3     0.090000        1.0080           0
     18774 WT8      724      MECN     H13      HGA3     0.090000        1.0080           0
     18775 WT8      724      MECN     C2       CG1N1    0.360000       12.0110           0
     18776 WT8      724      MECN     N3       NG1T1   -0.460000       14.0070           0
     18777 WT8      725      MECN     C1       CG331   -0.170000       12.0110           0
     18778 WT8      725      MECN     H11      HGA3     0.090000        1.0080           0
     18779 WT8      725      MECN     H12      HGA3     0.090000        1.0080           0
     18780 WT8      725      MECN     H13      HGA3     0.090000        1.0080           0
     18781 WT8      725      MECN     C2       CG1N1    0.360000       12.0110           0
     18782 WT8      725      MECN     N3       NG1T1   -0.460000       14.0070           0
     18783 WT8      727      MECN     C1       CG331   -0.170000       12.0110           0
     18784 WT8      727      MECN     H11      HGA3     0.090000        1.0080           0
     18785 WT8      727      MECN     H12      HGA3     0.090000        1.0080           0
     18786 WT8      727      MECN     H13      HGA3     0.090000        1.0080           0
     18787 WT8      727      MECN     C2       CG1N1    0.360000       12.0110           0
     18788 WT8      727      MECN     N3       NG1T1   -0.460000       14.0070           0
     18789 WT8      736      MECN     C1       CG331   -0.170000       12.0110           0
     18790 WT8      736      MECN     H11      HGA3     0.090000        1.0080           0
     18791 WT8      736      MECN     H12      HGA3     0.090000        1.0080           0
     18792 WT8      736      MECN     H13      HGA3     0.090000        1.0080           0
     18793 WT8      736      MECN     C2       CG1N1    0.360000       12.0110           0
     18794 WT8      736      MECN     N3       NG1T1   -0.460000       14.0070           0
     18795 WT8      738      MECN     C1       CG331   -0.170000       12.0110           0
     18796 WT8      738      MECN     H11      HGA3     0.090000        1.0080           0
     18797 WT8      738      MECN     H12      HGA3     0.090000        1.0080           0
     18798 WT8      738      MECN     H13      HGA3     0.090000        1.0080           0
     18799 WT8      738      MECN     C2       CG1N1    0.360000       12.0110           0
     18800 WT8      738      MECN     N3       NG1T1   -0.460000       14.0070           0
     18801 WT8      742      MECN     C1       CG331   -0.170000       12.0110           0
     18802 WT8      742      MECN     H11      HGA3     0.090000        1.0080           0
     18803 WT8      742      MECN     H12      HGA3     0.090000        1.0080           0
     18804 WT8      742      MECN     H13      HGA3     0.090000        1.0080           0
     18805 WT8      742      MECN     C2       CG1N1    0.360000       12.0110           0
     18806 WT8      742      MECN     N3       NG1T1   -0.460000       14.0070           0
     18807 WT8      745      MECN     C1       CG331   -0.170000       12.0110           0
     18808 WT8      745      MECN     H11      HGA3     0.090000        1.0080           0
     18809 WT8      745      MECN     H12      HGA3     0.090000        1.0080           0
     18810 WT8      745      MECN     H13      HGA3     0.090000        1.0080           0
     18811 WT8      745      MECN     C2       CG1N1    0.360000       12.0110           0
     18812 WT8      745      MECN     N3       NG1T1   -0.460000       14.0070           0
     18813 WT8      751      MECN     C1       CG331   -0.170000       12.0110           0
     18814 WT8      751      MECN     H11      HGA3     0.090000        1.0080           0
     18815 WT8      751      MECN     H12      HGA3     0.090000        1.0080           0
     18816 WT8      751      MECN     H13      HGA3     0.090000        1.0080           0
     18817 WT8      751      MECN     C2       CG1N1    0.360000       12.0110           0
     18818 WT8      751      MECN     N3       NG1T1   -0.460000       14.0070           0
     18819 WT8      758      MECN     C1       CG331   -0.170000       12.0110           0
     18820 WT8      758      MECN     H11      HGA3     0.090000        1.0080           0
     18821 WT8      758      MECN     H12      HGA3     0.090000        1.0080           0
     18822 WT8      758      MECN     H13      HGA3     0.090000        1.0080           0
     18823 WT8      758      MECN     C2       CG1N1    0.360000       12.0110           0
     18824 WT8      758      MECN     N3       NG1T1   -0.460000       14.0070           0
     18825 WT8      759      MECN     C1       CG331   -0.170000       12.0110           0
     18826 WT8      759      MECN     H11      HGA3     0.090000        1.0080           0
     18827 WT8      759      MECN     H12      HGA3     0.090000        1.0080           0
     18828 WT8      759      MECN     H13      HGA3     0.090000        1.0080           0
     18829 WT8      759      MECN     C2       CG1N1    0.360000       12.0110           0
     18830 WT8      759      MECN     N3       NG1T1   -0.460000       14.0070           0
     18831 WT8      771      MECN     C1       CG331   -0.170000       12.0110           0
     18832 WT8      771      MECN     H11      HGA3     0.090000        1.0080           0
     18833 WT8      771      MECN     H12      HGA3     0.090000        1.0080           0
     18834 WT8      771      MECN     H13      HGA3     0.090000        1.0080           0
     18835 WT8      771      MECN     C2       CG1N1    0.360000       12.0110           0
     18836 WT8      771      MECN     N3       NG1T1   -0.460000       14.0070           0
     18837 WT8      774      MECN     C1       CG331   -0.170000       12.0110           0
     18838 WT8      774      MECN     H11      HGA3     0.090000        1.0080           0
     18839 WT8      774      MECN     H12      HGA3     0.090000        1.0080           0
     18840 WT8      774      MECN     H13      HGA3     0.090000        1.0080           0
     18841 WT8      774      MECN     C2       CG1N1    0.360000       12.0110           0
     18842 WT8      774      MECN     N3       NG1T1   -0.460000       14.0070           0
     18843 WT8      785      MECN     C1       CG331   -0.170000       12.0110           0
     18844 WT8      785      MECN     H11      HGA3     0.090000        1.0080           0
     18845 WT8      785      MECN     H12      HGA3     0.090000        1.0080           0
     18846 WT8      785      MECN     H13      HGA3     0.090000        1.0080           0
     18847 WT8      785      MECN     C2       CG1N1    0.360000       12.0110           0
     18848 WT8      785      MECN     N3       NG1T1   -0.460000       14.0070           0
     18849 WT8      787      MECN     C1       CG331   -0.170000       12.0110           0
     18850 WT8      787      MECN     H11      HGA3     0.090000        1.0080           0
     18851 WT8      787      MECN     H12      HGA3     0.090000        1.0080           0
     18852 WT8      787      MECN     H13      HGA3     0.090000        1.0080           0
     18853 WT8      787      MECN     C2       CG1N1    0.360000       12.0110           0
     18854 WT8      787      MECN     N3       NG1T1   -0.460000       14.0070           0
     18855 WT8      790      MECN     C1       CG331   -0.170000       12.0110           0
     18856 WT8      790      MECN     H11      HGA3     0.090000        1.0080           0
     18857 WT8      790      MECN     H12      HGA3     0.090000        1.0080           0
     18858 WT8      790      MECN     H13      HGA3     0.090000        1.0080           0
     18859 WT8      790      MECN     C2       CG1N1    0.360000       12.0110           0
     18860 WT8      790      MECN     N3       NG1T1   -0.460000       14.0070           0
     18861 WT8      792      MECN     C1       CG331   -0.170000       12.0110           0
     18862 WT8      792      MECN     H11      HGA3     0.090000        1.0080           0
     18863 WT8      792      MECN     H12      HGA3     0.090000        1.0080           0
     18864 WT8      792      MECN     H13      HGA3     0.090000        1.0080           0
     18865 WT8      792      MECN     C2       CG1N1    0.360000       12.0110           0
     18866 WT8      792      MECN     N3       NG1T1   -0.460000       14.0070           0
     18867 WT8      793      MECN     C1       CG331   -0.170000       12.0110           0
     18868 WT8      793      MECN     H11      HGA3     0.090000        1.0080           0
     18869 WT8      793      MECN     H12      HGA3     0.090000        1.0080           0
     18870 WT8      793      MECN     H13      HGA3     0.090000        1.0080           0
     18871 WT8      793      MECN     C2       CG1N1    0.360000       12.0110           0
     18872 WT8      793      MECN     N3       NG1T1   -0.460000       14.0070           0
     18873 WT8      804      MECN     C1       CG331   -0.170000       12.0110           0
     18874 WT8      804      MECN     H11      HGA3     0.090000        1.0080           0
     18875 WT8      804      MECN     H12      HGA3     0.090000        1.0080           0
     18876 WT8      804      MECN     H13      HGA3     0.090000        1.0080           0
     18877 WT8      804      MECN     C2       CG1N1    0.360000       12.0110           0
     18878 WT8      804      MECN     N3       NG1T1   -0.460000       14.0070           0
     18879 WT8      807      MECN     C1       CG331   -0.170000       12.0110           0
     18880 WT8      807      MECN     H11      HGA3     0.090000        1.0080           0
     18881 WT8      807      MECN     H12      HGA3     0.090000        1.0080           0
     18882 WT8      807      MECN     H13      HGA3     0.090000        1.0080           0
     18883 WT8      807      MECN     C2       CG1N1    0.360000       12.0110           0
     18884 WT8      807      MECN     N3       NG1T1   -0.460000       14.0070           0
     18885 WT8      808      MECN     C1       CG331   -0.170000       12.0110           0
     18886 WT8      808      MECN     H11      HGA3     0.090000        1.0080           0
     18887 WT8      808      MECN     H12      HGA3     0.090000        1.0080           0
     18888 WT8      808      MECN     H13      HGA3     0.090000        1.0080           0
     18889 WT8      808      MECN     C2       CG1N1    0.360000       12.0110           0
     18890 WT8      808      MECN     N3       NG1T1   -0.460000       14.0070           0
     18891 WT8      811      MECN     C1       CG331   -0.170000       12.0110           0
     18892 WT8      811      MECN     H11      HGA3     0.090000        1.0080           0
     18893 WT8      811      MECN     H12      HGA3     0.090000        1.0080           0
     18894 WT8      811      MECN     H13      HGA3     0.090000        1.0080           0
     18895 WT8      811      MECN     C2       CG1N1    0.360000       12.0110           0
     18896 WT8      811      MECN     N3       NG1T1   -0.460000       14.0070           0
     18897 WT8      813      MECN     C1       CG331   -0.170000       12.0110           0
     18898 WT8      813      MECN     H11      HGA3     0.090000        1.0080           0
     18899 WT8      813      MECN     H12      HGA3     0.090000        1.0080           0
     18900 WT8      813      MECN     H13      HGA3     0.090000        1.0080           0
     18901 WT8      813      MECN     C2       CG1N1    0.360000       12.0110           0
     18902 WT8      813      MECN     N3       NG1T1   -0.460000       14.0070           0
     18903 WT8      820      MECN     C1       CG331   -0.170000       12.0110           0
     18904 WT8      820      MECN     H11      HGA3     0.090000        1.0080           0
     18905 WT8      820      MECN     H12      HGA3     0.090000        1.0080           0
     18906 WT8      820      MECN     H13      HGA3     0.090000        1.0080           0
     18907 WT8      820      MECN     C2       CG1N1    0.360000       12.0110           0
     18908 WT8      820      MECN     N3       NG1T1   -0.460000       14.0070           0
     18909 WT8      825      MECN     C1       CG331   -0.170000       12.0110           0
     18910 WT8      825      MECN     H11      HGA3     0.090000        1.0080           0
     18911 WT8      825      MECN     H12      HGA3     0.090000        1.0080           0
     18912 WT8      825      MECN     H13      HGA3     0.090000        1.0080           0
     18913 WT8      825      MECN     C2       CG1N1    0.360000       12.0110           0
     18914 WT8      825      MECN     N3       NG1T1   -0.460000       14.0070           0
     18915 WT8      830      MECN     C1       CG331   -0.170000       12.0110           0
     18916 WT8      830      MECN     H11      HGA3     0.090000        1.0080           0
     18917 WT8      830      MECN     H12      HGA3     0.090000        1.0080           0
     18918 WT8      830      MECN     H13      HGA3     0.090000        1.0080           0
     18919 WT8      830      MECN     C2       CG1N1    0.360000       12.0110           0
     18920 WT8      830      MECN     N3       NG1T1   -0.460000       14.0070           0
     18921 WT8      832      MECN     C1       CG331   -0.170000       12.0110           0
     18922 WT8      832      MECN     H11      HGA3     0.090000        1.0080           0
     18923 WT8      832      MECN     H12      HGA3     0.090000        1.0080           0
     18924 WT8      832      MECN     H13      HGA3     0.090000        1.0080           0
     18925 WT8      832      MECN     C2       CG1N1    0.360000       12.0110           0
     18926 WT8      832      MECN     N3       NG1T1   -0.460000       14.0070           0
     18927 WT8      836      MECN     C1       CG331   -0.170000       12.0110           0
     18928 WT8      836      MECN     H11      HGA3     0.090000        1.0080           0
     18929 WT8      836      MECN     H12      HGA3     0.090000        1.0080           0
     18930 WT8      836      MECN     H13      HGA3     0.090000        1.0080           0
     18931 WT8      836      MECN     C2       CG1N1    0.360000       12.0110           0
     18932 WT8      836      MECN     N3       NG1T1   -0.460000       14.0070           0
     18933 WT8      837      MECN     C1       CG331   -0.170000       12.0110           0
     18934 WT8      837      MECN     H11      HGA3     0.090000        1.0080           0
     18935 WT8      837      MECN     H12      HGA3     0.090000        1.0080           0
     18936 WT8      837      MECN     H13      HGA3     0.090000        1.0080           0
     18937 WT8      837      MECN     C2       CG1N1    0.360000       12.0110           0
     18938 WT8      837      MECN     N3       NG1T1   -0.460000       14.0070           0
     18939 WT8      839      MECN     C1       CG331   -0.170000       12.0110           0
     18940 WT8      839      MECN     H11      HGA3     0.090000        1.0080           0
     18941 WT8      839      MECN     H12      HGA3     0.090000        1.0080           0
     18942 WT8      839      MECN     H13      HGA3     0.090000        1.0080           0
     18943 WT8      839      MECN     C2       CG1N1    0.360000       12.0110           0
     18944 WT8      839      MECN     N3       NG1T1   -0.460000       14.0070           0
     18945 WT8      841      MECN     C1       CG331   -0.170000       12.0110           0
     18946 WT8      841      MECN     H11      HGA3     0.090000        1.0080           0
     18947 WT8      841      MECN     H12      HGA3     0.090000        1.0080           0
     18948 WT8      841      MECN     H13      HGA3     0.090000        1.0080           0
     18949 WT8      841      MECN     C2       CG1N1    0.360000       12.0110           0
     18950 WT8      841      MECN     N3       NG1T1   -0.460000       14.0070           0
     18951 WT8      845      MECN     C1       CG331   -0.170000       12.0110           0
     18952 WT8      845      MECN     H11      HGA3     0.090000        1.0080           0
     18953 WT8      845      MECN     H12      HGA3     0.090000        1.0080           0
     18954 WT8      845      MECN     H13      HGA3     0.090000        1.0080           0
     18955 WT8      845      MECN     C2       CG1N1    0.360000       12.0110           0
     18956 WT8      845      MECN     N3       NG1T1   -0.460000       14.0070           0
     18957 WT8      846      MECN     C1       CG331   -0.170000       12.0110           0
     18958 WT8      846      MECN     H11      HGA3     0.090000        1.0080           0
     18959 WT8      846      MECN     H12      HGA3     0.090000        1.0080           0
     18960 WT8      846      MECN     H13      HGA3     0.090000        1.0080           0
     18961 WT8      846      MECN     C2       CG1N1    0.360000       12.0110           0
     18962 WT8      846      MECN     N3       NG1T1   -0.460000       14.0070           0
     18963 WT8      851      MECN     C1       CG331   -0.170000       12.0110           0
     18964 WT8      851      MECN     H11      HGA3     0.090000        1.0080           0
     18965 WT8      851      MECN     H12      HGA3     0.090000        1.0080           0
     18966 WT8      851      MECN     H13      HGA3     0.090000        1.0080           0
     18967 WT8      851      MECN     C2       CG1N1    0.360000       12.0110           0
     18968 WT8      851      MECN     N3       NG1T1   -0.460000       14.0070           0
     18969 WT8      853      MECN     C1       CG331   -0.170000       12.0110           0
     18970 WT8      853      MECN     H11      HGA3     0.090000        1.0080           0
     18971 WT8      853      MECN     H12      HGA3     0.090000        1.0080           0
     18972 WT8      853      MECN     H13      HGA3     0.090000        1.0080           0
     18973 WT8      853      MECN     C2       CG1N1    0.360000       12.0110           0
     18974 WT8      853      MECN     N3       NG1T1   -0.460000       14.0070           0
     18975 WT8      854      MECN     C1       CG331   -0.170000       12.0110           0
     18976 WT8      854      MECN     H11      HGA3     0.090000        1.0080           0
     18977 WT8      854      MECN     H12      HGA3     0.090000        1.0080           0
     18978 WT8      854      MECN     H13      HGA3     0.090000        1.0080           0
     18979 WT8      854      MECN     C2       CG1N1    0.360000       12.0110           0
     18980 WT8      854      MECN     N3       NG1T1   -0.460000       14.0070           0
     18981 WT8      855      MECN     C1       CG331   -0.170000       12.0110           0
     18982 WT8      855      MECN     H11      HGA3     0.090000        1.0080           0
     18983 WT8      855      MECN     H12      HGA3     0.090000        1.0080           0
     18984 WT8      855      MECN     H13      HGA3     0.090000        1.0080           0
     18985 WT8      855      MECN     C2       CG1N1    0.360000       12.0110           0
     18986 WT8      855      MECN     N3       NG1T1   -0.460000       14.0070           0
     18987 WT8      863      MECN     C1       CG331   -0.170000       12.0110           0
     18988 WT8      863      MECN     H11      HGA3     0.090000        1.0080           0
     18989 WT8      863      MECN     H12      HGA3     0.090000        1.0080           0
     18990 WT8      863      MECN     H13      HGA3     0.090000        1.0080           0
     18991 WT8      863      MECN     C2       CG1N1    0.360000       12.0110           0
     18992 WT8      863      MECN     N3       NG1T1   -0.460000       14.0070           0
     18993 WT8      870      MECN     C1       CG331   -0.170000       12.0110           0
     18994 WT8      870      MECN     H11      HGA3     0.090000        1.0080           0
     18995 WT8      870      MECN     H12      HGA3     0.090000        1.0080           0
     18996 WT8      870      MECN     H13      HGA3     0.090000        1.0080           0
     18997 WT8      870      MECN     C2       CG1N1    0.360000       12.0110           0
     18998 WT8      870      MECN     N3       NG1T1   -0.460000       14.0070           0
     18999 WT8      875      MECN     C1       CG331   -0.170000       12.0110           0
     19000 WT8      875      MECN     H11      HGA3     0.090000        1.0080           0
     19001 WT8      875      MECN     H12      HGA3     0.090000        1.0080           0
     19002 WT8      875      MECN     H13      HGA3     0.090000        1.0080           0
     19003 WT8      875      MECN     C2       CG1N1    0.360000       12.0110           0
     19004 WT8      875      MECN     N3       NG1T1   -0.460000       14.0070           0
     19005 WT8      877      MECN     C1       CG331   -0.170000       12.0110           0
     19006 WT8      877      MECN     H11      HGA3     0.090000        1.0080           0
     19007 WT8      877      MECN     H12      HGA3     0.090000        1.0080           0
     19008 WT8      877      MECN     H13      HGA3     0.090000        1.0080           0
     19009 WT8      877      MECN     C2       CG1N1    0.360000       12.0110           0
     19010 WT8      877      MECN     N3       NG1T1   -0.460000       14.0070           0
     19011 WT8      880      MECN     C1       CG331   -0.170000       12.0110           0
     19012 WT8      880      MECN     H11      HGA3     0.090000        1.0080           0
     19013 WT8      880      MECN     H12      HGA3     0.090000        1.0080           0
     19014 WT8      880      MECN     H13      HGA3     0.090000        1.0080           0
     19015 WT8      880      MECN     C2       CG1N1    0.360000       12.0110           0
     19016 WT8      880      MECN     N3       NG1T1   -0.460000       14.0070           0
     19017 WT8      881      MECN     C1       CG331   -0.170000       12.0110           0
     19018 WT8      881      MECN     H11      HGA3     0.090000        1.0080           0
     19019 WT8      881      MECN     H12      HGA3     0.090000        1.0080           0
     19020 WT8      881      MECN     H13      HGA3     0.090000        1.0080           0
     19021 WT8      881      MECN     C2       CG1N1    0.360000       12.0110           0
     19022 WT8      881      MECN     N3       NG1T1   -0.460000       14.0070           0
     19023 WT8      884      MECN     C1       CG331   -0.170000       12.0110           0
     19024 WT8      884      MECN     H11      HGA3     0.090000        1.0080           0
     19025 WT8      884      MECN     H12      HGA3     0.090000        1.0080           0
     19026 WT8      884      MECN     H13      HGA3     0.090000        1.0080           0
     19027 WT8      884      MECN     C2       CG1N1    0.360000       12.0110           0
     19028 WT8      884      MECN     N3       NG1T1   -0.460000       14.0070           0
     19029 WT8      892      MECN     C1       CG331   -0.170000       12.0110           0
     19030 WT8      892      MECN     H11      HGA3     0.090000        1.0080           0
     19031 WT8      892      MECN     H12      HGA3     0.090000        1.0080           0
     19032 WT8      892      MECN     H13      HGA3     0.090000        1.0080           0
     19033 WT8      892      MECN     C2       CG1N1    0.360000       12.0110           0
     19034 WT8      892      MECN     N3       NG1T1   -0.460000       14.0070           0
     19035 WT8      895      MECN     C1       CG331   -0.170000       12.0110           0
     19036 WT8      895      MECN     H11      HGA3     0.090000        1.0080           0
     19037 WT8      895      MECN     H12      HGA3     0.090000        1.0080           0
     19038 WT8      895      MECN     H13      HGA3     0.090000        1.0080           0
     19039 WT8      895      MECN     C2       CG1N1    0.360000       12.0110           0
     19040 WT8      895      MECN     N3       NG1T1   -0.460000       14.0070           0
     19041 WT8      898      MECN     C1       CG331   -0.170000       12.0110           0
     19042 WT8      898      MECN     H11      HGA3     0.090000        1.0080           0
     19043 WT8      898      MECN     H12      HGA3     0.090000        1.0080           0
     19044 WT8      898      MECN     H13      HGA3     0.090000        1.0080           0
     19045 WT8      898      MECN     C2       CG1N1    0.360000       12.0110           0
     19046 WT8      898      MECN     N3       NG1T1   -0.460000       14.0070           0
     19047 WT8      901      MECN     C1       CG331   -0.170000       12.0110           0
     19048 WT8      901      MECN     H11      HGA3     0.090000        1.0080           0
     19049 WT8      901      MECN     H12      HGA3     0.090000        1.0080           0
     19050 WT8      901      MECN     H13      HGA3     0.090000        1.0080           0
     19051 WT8      901      MECN     C2       CG1N1    0.360000       12.0110           0
     19052 WT8      901      MECN     N3       NG1T1   -0.460000       14.0070           0
     19053 WT8      903      MECN     C1       CG331   -0.170000       12.0110           0
     19054 WT8      903      MECN     H11      HGA3     0.090000        1.0080           0
     19055 WT8      903      MECN     H12      HGA3     0.090000        1.0080           0
     19056 WT8      903      MECN     H13      HGA3     0.090000        1.0080           0
     19057 WT8      903      MECN     C2       CG1N1    0.360000       12.0110           0
     19058 WT8      903      MECN     N3       NG1T1   -0.460000       14.0070           0
     19059 WT8      908      MECN     C1       CG331   -0.170000       12.0110           0
     19060 WT8      908      MECN     H11      HGA3     0.090000        1.0080           0
     19061 WT8      908      MECN     H12      HGA3     0.090000        1.0080           0
     19062 WT8      908      MECN     H13      HGA3     0.090000        1.0080           0
     19063 WT8      908      MECN     C2       CG1N1    0.360000       12.0110           0
     19064 WT8      908      MECN     N3       NG1T1   -0.460000       14.0070           0
     19065 WT8      912      MECN     C1       CG331   -0.170000       12.0110           0
     19066 WT8      912      MECN     H11      HGA3     0.090000        1.0080           0
     19067 WT8      912      MECN     H12      HGA3     0.090000        1.0080           0
     19068 WT8      912      MECN     H13      HGA3     0.090000        1.0080           0
     19069 WT8      912      MECN     C2       CG1N1    0.360000       12.0110           0
     19070 WT8      912      MECN     N3       NG1T1   -0.460000       14.0070           0
     19071 WT8      914      MECN     C1       CG331   -0.170000       12.0110           0
     19072 WT8      914      MECN     H11      HGA3     0.090000        1.0080           0
     19073 WT8      914      MECN     H12      HGA3     0.090000        1.0080           0
     19074 WT8      914      MECN     H13      HGA3     0.090000        1.0080           0
     19075 WT8      914      MECN     C2       CG1N1    0.360000       12.0110           0
     19076 WT8      914      MECN     N3       NG1T1   -0.460000       14.0070           0
     19077 WT8      916      MECN     C1       CG331   -0.170000       12.0110           0
     19078 WT8      916      MECN     H11      HGA3     0.090000        1.0080           0
     19079 WT8      916      MECN     H12      HGA3     0.090000        1.0080           0
     19080 WT8      916      MECN     H13      HGA3     0.090000        1.0080           0
     19081 WT8      916      MECN     C2       CG1N1    0.360000       12.0110           0
     19082 WT8      916      MECN     N3       NG1T1   -0.460000       14.0070           0
     19083 WT8      918      MECN     C1       CG331   -0.170000       12.0110           0
     19084 WT8      918      MECN     H11      HGA3     0.090000        1.0080           0
     19085 WT8      918      MECN     H12      HGA3     0.090000        1.0080           0
     19086 WT8      918      MECN     H13      HGA3     0.090000        1.0080           0
     19087 WT8      918      MECN     C2       CG1N1    0.360000       12.0110           0
     19088 WT8      918      MECN     N3       NG1T1   -0.460000       14.0070           0
     19089 WT8      919      MECN     C1       CG331   -0.170000       12.0110           0
     19090 WT8      919      MECN     H11      HGA3     0.090000        1.0080           0
     19091 WT8      919      MECN     H12      HGA3     0.090000        1.0080           0
     19092 WT8      919      MECN     H13      HGA3     0.090000        1.0080           0
     19093 WT8      919      MECN     C2       CG1N1    0.360000       12.0110           0
     19094 WT8      919      MECN     N3       NG1T1   -0.460000       14.0070           0
     19095 WT8      922      MECN     C1       CG331   -0.170000       12.0110           0
     19096 WT8      922      MECN     H11      HGA3     0.090000        1.0080           0
     19097 WT8      922      MECN     H12      HGA3     0.090000        1.0080           0
     19098 WT8      922      MECN     H13      HGA3     0.090000        1.0080           0
     19099 WT8      922      MECN     C2       CG1N1    0.360000       12.0110           0
     19100 WT8      922      MECN     N3       NG1T1   -0.460000       14.0070           0
     19101 WT8      927      MECN     C1       CG331   -0.170000       12.0110           0
     19102 WT8      927      MECN     H11      HGA3     0.090000        1.0080           0
     19103 WT8      927      MECN     H12      HGA3     0.090000        1.0080           0
     19104 WT8      927      MECN     H13      HGA3     0.090000        1.0080           0
     19105 WT8      927      MECN     C2       CG1N1    0.360000       12.0110           0
     19106 WT8      927      MECN     N3       NG1T1   -0.460000       14.0070           0
     19107 WT8      929      MECN     C1       CG331   -0.170000       12.0110           0
     19108 WT8      929      MECN     H11      HGA3     0.090000        1.0080           0
     19109 WT8      929      MECN     H12      HGA3     0.090000        1.0080           0
     19110 WT8      929      MECN     H13      HGA3     0.090000        1.0080           0
     19111 WT8      929      MECN     C2       CG1N1    0.360000       12.0110           0
     19112 WT8      929      MECN     N3       NG1T1   -0.460000       14.0070           0
     19113 WT8      930      MECN     C1       CG331   -0.170000       12.0110           0
     19114 WT8      930      MECN     H11      HGA3     0.090000        1.0080           0
     19115 WT8      930      MECN     H12      HGA3     0.090000        1.0080           0
     19116 WT8      930      MECN     H13      HGA3     0.090000        1.0080           0
     19117 WT8      930      MECN     C2       CG1N1    0.360000       12.0110           0
     19118 WT8      930      MECN     N3       NG1T1   -0.460000       14.0070           0
     19119 WT8      932      MECN     C1       CG331   -0.170000       12.0110           0
     19120 WT8      932      MECN     H11      HGA3     0.090000        1.0080           0
     19121 WT8      932      MECN     H12      HGA3     0.090000        1.0080           0
     19122 WT8      932      MECN     H13      HGA3     0.090000        1.0080           0
     19123 WT8      932      MECN     C2       CG1N1    0.360000       12.0110           0
     19124 WT8      932      MECN     N3       NG1T1   -0.460000       14.0070           0
     19125 WT8      935      MECN     C1       CG331   -0.170000       12.0110           0
     19126 WT8      935      MECN     H11      HGA3     0.090000        1.0080           0
     19127 WT8      935      MECN     H12      HGA3     0.090000        1.0080           0
     19128 WT8      935      MECN     H13      HGA3     0.090000        1.0080           0
     19129 WT8      935      MECN     C2       CG1N1    0.360000       12.0110           0
     19130 WT8      935      MECN     N3       NG1T1   -0.460000       14.0070           0
     19131 WT8      937      MECN     C1       CG331   -0.170000       12.0110           0
     19132 WT8      937      MECN     H11      HGA3     0.090000        1.0080           0
     19133 WT8      937      MECN     H12      HGA3     0.090000        1.0080           0
     19134 WT8      937      MECN     H13      HGA3     0.090000        1.0080           0
     19135 WT8      937      MECN     C2       CG1N1    0.360000       12.0110           0
     19136 WT8      937      MECN     N3       NG1T1   -0.460000       14.0070           0
     19137 WT8      938      MECN     C1       CG331   -0.170000       12.0110           0
     19138 WT8      938      MECN     H11      HGA3     0.090000        1.0080           0
     19139 WT8      938      MECN     H12      HGA3     0.090000        1.0080           0
     19140 WT8      938      MECN     H13      HGA3     0.090000        1.0080           0
     19141 WT8      938      MECN     C2       CG1N1    0.360000       12.0110           0
     19142 WT8      938      MECN     N3       NG1T1   -0.460000       14.0070           0
     19143 WT8      942      MECN     C1       CG331   -0.170000       12.0110           0
     19144 WT8      942      MECN     H11      HGA3     0.090000        1.0080           0
     19145 WT8      942      MECN     H12      HGA3     0.090000        1.0080           0
     19146 WT8      942      MECN     H13      HGA3     0.090000        1.0080           0
     19147 WT8      942      MECN     C2       CG1N1    0.360000       12.0110           0
     19148 WT8      942      MECN     N3       NG1T1   -0.460000       14.0070           0
     19149 WT8      947      MECN     C1       CG331   -0.170000       12.0110           0
     19150 WT8      947      MECN     H11      HGA3     0.090000        1.0080           0
     19151 WT8      947      MECN     H12      HGA3     0.090000        1.0080           0
     19152 WT8      947      MECN     H13      HGA3     0.090000        1.0080           0
     19153 WT8      947      MECN     C2       CG1N1    0.360000       12.0110           0
     19154 WT8      947      MECN     N3       NG1T1   -0.460000       14.0070           0
     19155 WT8      948      MECN     C1       CG331   -0.170000       12.0110           0
     19156 WT8      948      MECN     H11      HGA3     0.090000        1.0080           0
     19157 WT8      948      MECN     H12      HGA3     0.090000        1.0080           0
     19158 WT8      948      MECN     H13      HGA3     0.090000        1.0080           0
     19159 WT8      948      MECN     C2       CG1N1    0.360000       12.0110           0
     19160 WT8      948      MECN     N3       NG1T1   -0.460000       14.0070           0
     19161 WT8      949      MECN     C1       CG331   -0.170000       12.0110           0
     19162 WT8      949      MECN     H11      HGA3     0.090000        1.0080           0
     19163 WT8      949      MECN     H12      HGA3     0.090000        1.0080           0
     19164 WT8      949      MECN     H13      HGA3     0.090000        1.0080           0
     19165 WT8      949      MECN     C2       CG1N1    0.360000       12.0110           0
     19166 WT8      949      MECN     N3       NG1T1   -0.460000       14.0070           0
     19167 WT8      950      MECN     C1       CG331   -0.170000       12.0110           0
     19168 WT8      950      MECN     H11      HGA3     0.090000        1.0080           0
     19169 WT8      950      MECN     H12      HGA3     0.090000        1.0080           0
     19170 WT8      950      MECN     H13      HGA3     0.090000        1.0080           0
     19171 WT8      950      MECN     C2       CG1N1    0.360000       12.0110           0
     19172 WT8      950      MECN     N3       NG1T1   -0.460000       14.0070           0
     19173 WT8      953      MECN     C1       CG331   -0.170000       12.0110           0
     19174 WT8      953      MECN     H11      HGA3     0.090000        1.0080           0
     19175 WT8      953      MECN     H12      HGA3     0.090000        1.0080           0
     19176 WT8      953      MECN     H13      HGA3     0.090000        1.0080           0
     19177 WT8      953      MECN     C2       CG1N1    0.360000       12.0110           0
     19178 WT8      953      MECN     N3       NG1T1   -0.460000       14.0070           0
     19179 WT8      957      MECN     C1       CG331   -0.170000       12.0110           0
     19180 WT8      957      MECN     H11      HGA3     0.090000        1.0080           0
     19181 WT8      957      MECN     H12      HGA3     0.090000        1.0080           0
     19182 WT8      957      MECN     H13      HGA3     0.090000        1.0080           0
     19183 WT8      957      MECN     C2       CG1N1    0.360000       12.0110           0
     19184 WT8      957      MECN     N3       NG1T1   -0.460000       14.0070           0
     19185 WT8      958      MECN     C1       CG331   -0.170000       12.0110           0
     19186 WT8      958      MECN     H11      HGA3     0.090000        1.0080           0
     19187 WT8      958      MECN     H12      HGA3     0.090000        1.0080           0
     19188 WT8      958      MECN     H13      HGA3     0.090000        1.0080           0
     19189 WT8      958      MECN     C2       CG1N1    0.360000       12.0110           0
     19190 WT8      958      MECN     N3       NG1T1   -0.460000       14.0070           0
     19191 WT8      960      MECN     C1       CG331   -0.170000       12.0110           0
     19192 WT8      960      MECN     H11      HGA3     0.090000        1.0080           0
     19193 WT8      960      MECN     H12      HGA3     0.090000        1.0080           0
     19194 WT8      960      MECN     H13      HGA3     0.090000        1.0080           0
     19195 WT8      960      MECN     C2       CG1N1    0.360000       12.0110           0
     19196 WT8      960      MECN     N3       NG1T1   -0.460000       14.0070           0
     19197 WT8      964      MECN     C1       CG331   -0.170000       12.0110           0
     19198 WT8      964      MECN     H11      HGA3     0.090000        1.0080           0
     19199 WT8      964      MECN     H12      HGA3     0.090000        1.0080           0
     19200 WT8      964      MECN     H13      HGA3     0.090000        1.0080           0
     19201 WT8      964      MECN     C2       CG1N1    0.360000       12.0110           0
     19202 WT8      964      MECN     N3       NG1T1   -0.460000       14.0070           0
     19203 WT8      968      MECN     C1       CG331   -0.170000       12.0110           0
     19204 WT8      968      MECN     H11      HGA3     0.090000        1.0080           0
     19205 WT8      968      MECN     H12      HGA3     0.090000        1.0080           0
     19206 WT8      968      MECN     H13      HGA3     0.090000        1.0080           0
     19207 WT8      968      MECN     C2       CG1N1    0.360000       12.0110           0
     19208 WT8      968      MECN     N3       NG1T1   -0.460000       14.0070           0
     19209 WT8      969      MECN     C1       CG331   -0.170000       12.0110           0
     19210 WT8      969      MECN     H11      HGA3     0.090000        1.0080           0
     19211 WT8      969      MECN     H12      HGA3     0.090000        1.0080           0
     19212 WT8      969      MECN     H13      HGA3     0.090000        1.0080           0
     19213 WT8      969      MECN     C2       CG1N1    0.360000       12.0110           0
     19214 WT8      969      MECN     N3       NG1T1   -0.460000       14.0070           0
     19215 WT8      970      MECN     C1       CG331   -0.170000       12.0110           0
     19216 WT8      970      MECN     H11      HGA3     0.090000        1.0080           0
     19217 WT8      970      MECN     H12      HGA3     0.090000        1.0080           0
     19218 WT8      970      MECN     H13      HGA3     0.090000        1.0080           0
     19219 WT8      970      MECN     C2       CG1N1    0.360000       12.0110           0
     19220 WT8      970      MECN     N3       NG1T1   -0.460000       14.0070           0
     19221 WT8      971      MECN     C1       CG331   -0.170000       12.0110           0
     19222 WT8      971      MECN     H11      HGA3     0.090000        1.0080           0
     19223 WT8      971      MECN     H12      HGA3     0.090000        1.0080           0
     19224 WT8      971      MECN     H13      HGA3     0.090000        1.0080           0
     19225 WT8      971      MECN     C2       CG1N1    0.360000       12.0110           0
     19226 WT8      971      MECN     N3       NG1T1   -0.460000       14.0070           0
     19227 WT8      974      MECN     C1       CG331   -0.170000       12.0110           0
     19228 WT8      974      MECN     H11      HGA3     0.090000        1.0080           0
     19229 WT8      974      MECN     H12      HGA3     0.090000        1.0080           0
     19230 WT8      974      MECN     H13      HGA3     0.090000        1.0080           0
     19231 WT8      974      MECN     C2       CG1N1    0.360000       12.0110           0
     19232 WT8      974      MECN     N3       NG1T1   -0.460000       14.0070           0
     19233 WT8      975      MECN     C1       CG331   -0.170000       12.0110           0
     19234 WT8      975      MECN     H11      HGA3     0.090000        1.0080           0
     19235 WT8      975      MECN     H12      HGA3     0.090000        1.0080           0
     19236 WT8      975      MECN     H13      HGA3     0.090000        1.0080           0
     19237 WT8      975      MECN     C2       CG1N1    0.360000       12.0110           0
     19238 WT8      975      MECN     N3       NG1T1   -0.460000       14.0070           0
     19239 WT8      982      MECN     C1       CG331   -0.170000       12.0110           0
     19240 WT8      982      MECN     H11      HGA3     0.090000        1.0080           0
     19241 WT8      982      MECN     H12      HGA3     0.090000        1.0080           0
     19242 WT8      982      MECN     H13      HGA3     0.090000        1.0080           0
     19243 WT8      982      MECN     C2       CG1N1    0.360000       12.0110           0
     19244 WT8      982      MECN     N3       NG1T1   -0.460000       14.0070           0
     19245 WT8      987      MECN     C1       CG331   -0.170000       12.0110           0
     19246 WT8      987      MECN     H11      HGA3     0.090000        1.0080           0
     19247 WT8      987      MECN     H12      HGA3     0.090000        1.0080           0
     19248 WT8      987      MECN     H13      HGA3     0.090000        1.0080           0
     19249 WT8      987      MECN     C2       CG1N1    0.360000       12.0110           0
     19250 WT8      987      MECN     N3       NG1T1   -0.460000       14.0070           0
     19251 WT8      989      MECN     C1       CG331   -0.170000       12.0110           0
     19252 WT8      989      MECN     H11      HGA3     0.090000        1.0080           0
     19253 WT8      989      MECN     H12      HGA3     0.090000        1.0080           0
     19254 WT8      989      MECN     H13      HGA3     0.090000        1.0080           0
     19255 WT8      989      MECN     C2       CG1N1    0.360000       12.0110           0
     19256 WT8      989      MECN     N3       NG1T1   -0.460000       14.0070           0
     19257 WT8      990      MECN     C1       CG331   -0.170000       12.0110           0
     19258 WT8      990      MECN     H11      HGA3     0.090000        1.0080           0
     19259 WT8      990      MECN     H12      HGA3     0.090000        1.0080           0
     19260 WT8      990      MECN     H13      HGA3     0.090000        1.0080           0
     19261 WT8      990      MECN     C2       CG1N1    0.360000       12.0110           0
     19262 WT8      990      MECN     N3       NG1T1   -0.460000       14.0070           0
     19263 WT8      995      MECN     C1       CG331   -0.170000       12.0110           0
     19264 WT8      995      MECN     H11      HGA3     0.090000        1.0080           0
     19265 WT8      995      MECN     H12      HGA3     0.090000        1.0080           0
     19266 WT8      995      MECN     H13      HGA3     0.090000        1.0080           0
     19267 WT8      995      MECN     C2       CG1N1    0.360000       12.0110           0
     19268 WT8      995      MECN     N3       NG1T1   -0.460000       14.0070           0
     19269 WT8      997      MECN     C1       CG331   -0.170000       12.0110           0
     19270 WT8      997      MECN     H11      HGA3     0.090000        1.0080           0
     19271 WT8      997      MECN     H12      HGA3     0.090000        1.0080           0
     19272 WT8      997      MECN     H13      HGA3     0.090000        1.0080           0
     19273 WT8      997      MECN     C2       CG1N1    0.360000       12.0110           0
     19274 WT8      997      MECN     N3       NG1T1   -0.460000       14.0070           0
     19275 WT8      999      MECN     C1       CG331   -0.170000       12.0110           0
     19276 WT8      999      MECN     H11      HGA3     0.090000        1.0080           0
     19277 WT8      999      MECN     H12      HGA3     0.090000        1.0080           0
     19278 WT8      999      MECN     H13      HGA3     0.090000        1.0080           0
     19279 WT8      999      MECN     C2       CG1N1    0.360000       12.0110           0
     19280 WT8      999      MECN     N3       NG1T1   -0.460000       14.0070           0
     19281 WT8      1002     MECN     C1       CG331   -0.170000       12.0110           0
     19282 WT8      1002     MECN     H11      HGA3     0.090000        1.0080           0
     19283 WT8      1002     MECN     H12      HGA3     0.090000        1.0080           0
     19284 WT8      1002     MECN     H13      HGA3     0.090000        1.0080           0
     19285 WT8      1002     MECN     C2       CG1N1    0.360000       12.0110           0
     19286 WT8      1002     MECN     N3       NG1T1   -0.460000       14.0070           0
     19287 WT8      1004     MECN     C1       CG331   -0.170000       12.0110           0
     19288 WT8      1004     MECN     H11      HGA3     0.090000        1.0080           0
     19289 WT8      1004     MECN     H12      HGA3     0.090000        1.0080           0
     19290 WT8      1004     MECN     H13      HGA3     0.090000        1.0080           0
     19291 WT8      1004     MECN     C2       CG1N1    0.360000       12.0110           0
     19292 WT8      1004     MECN     N3       NG1T1   -0.460000       14.0070           0
     19293 WT8      1010     MECN     C1       CG331   -0.170000       12.0110           0
     19294 WT8      1010     MECN     H11      HGA3     0.090000        1.0080           0
     19295 WT8      1010     MECN     H12      HGA3     0.090000        1.0080           0
     19296 WT8      1010     MECN     H13      HGA3     0.090000        1.0080           0
     19297 WT8      1010     MECN     C2       CG1N1    0.360000       12.0110           0
     19298 WT8      1010     MECN     N3       NG1T1   -0.460000       14.0070           0
     19299 WT8      1015     MECN     C1       CG331   -0.170000       12.0110           0
     19300 WT8      1015     MECN     H11      HGA3     0.090000        1.0080           0
     19301 WT8      1015     MECN     H12      HGA3     0.090000        1.0080           0
     19302 WT8      1015     MECN     H13      HGA3     0.090000        1.0080           0
     19303 WT8      1015     MECN     C2       CG1N1    0.360000       12.0110           0
     19304 WT8      1015     MECN     N3       NG1T1   -0.460000       14.0070           0
     19305 WT8      1019     MECN     C1       CG331   -0.170000       12.0110           0
     19306 WT8      1019     MECN     H11      HGA3     0.090000        1.0080           0
     19307 WT8      1019     MECN     H12      HGA3     0.090000        1.0080           0
     19308 WT8      1019     MECN     H13      HGA3     0.090000        1.0080           0
     19309 WT8      1019     MECN     C2       CG1N1    0.360000       12.0110           0
     19310 WT8      1019     MECN     N3       NG1T1   -0.460000       14.0070           0
     19311 WT8      1020     MECN     C1       CG331   -0.170000       12.0110           0
     19312 WT8      1020     MECN     H11      HGA3     0.090000        1.0080           0
     19313 WT8      1020     MECN     H12      HGA3     0.090000        1.0080           0
     19314 WT8      1020     MECN     H13      HGA3     0.090000        1.0080           0
     19315 WT8      1020     MECN     C2       CG1N1    0.360000       12.0110           0
     19316 WT8      1020     MECN     N3       NG1T1   -0.460000       14.0070           0
     19317 WT8      1022     MECN     C1       CG331   -0.170000       12.0110           0
     19318 WT8      1022     MECN     H11      HGA3     0.090000        1.0080           0
     19319 WT8      1022     MECN     H12      HGA3     0.090000        1.0080           0
     19320 WT8      1022     MECN     H13      HGA3     0.090000        1.0080           0
     19321 WT8      1022     MECN     C2       CG1N1    0.360000       12.0110           0
     19322 WT8      1022     MECN     N3       NG1T1   -0.460000       14.0070           0
     19323 WT8      1023     MECN     C1       CG331   -0.170000       12.0110           0
     19324 WT8      1023     MECN     H11      HGA3     0.090000        1.0080           0
     19325 WT8      1023     MECN     H12      HGA3     0.090000        1.0080           0
     19326 WT8      1023     MECN     H13      HGA3     0.090000        1.0080           0
     19327 WT8      1023     MECN     C2       CG1N1    0.360000       12.0110           0
     19328 WT8      1023     MECN     N3       NG1T1   -0.460000       14.0070           0
     19329 WT8      1024     MECN     C1       CG331   -0.170000       12.0110           0
     19330 WT8      1024     MECN     H11      HGA3     0.090000        1.0080           0
     19331 WT8      1024     MECN     H12      HGA3     0.090000        1.0080           0
     19332 WT8      1024     MECN     H13      HGA3     0.090000        1.0080           0
     19333 WT8      1024     MECN     C2       CG1N1    0.360000       12.0110           0
     19334 WT8      1024     MECN     N3       NG1T1   -0.460000       14.0070           0
     19335 WT8      1026     MECN     C1       CG331   -0.170000       12.0110           0
     19336 WT8      1026     MECN     H11      HGA3     0.090000        1.0080           0
     19337 WT8      1026     MECN     H12      HGA3     0.090000        1.0080           0
     19338 WT8      1026     MECN     H13      HGA3     0.090000        1.0080           0
     19339 WT8      1026     MECN     C2       CG1N1    0.360000       12.0110           0
     19340 WT8      1026     MECN     N3       NG1T1   -0.460000       14.0070           0
     19341 WT8      1030     MECN     C1       CG331   -0.170000       12.0110           0
     19342 WT8      1030     MECN     H11      HGA3     0.090000        1.0080           0
     19343 WT8      1030     MECN     H12      HGA3     0.090000        1.0080           0
     19344 WT8      1030     MECN     H13      HGA3     0.090000        1.0080           0
     19345 WT8      1030     MECN     C2       CG1N1    0.360000       12.0110           0
     19346 WT8      1030     MECN     N3       NG1T1   -0.460000       14.0070           0
     19347 WT8      1036     MECN     C1       CG331   -0.170000       12.0110           0
     19348 WT8      1036     MECN     H11      HGA3     0.090000        1.0080           0
     19349 WT8      1036     MECN     H12      HGA3     0.090000        1.0080           0
     19350 WT8      1036     MECN     H13      HGA3     0.090000        1.0080           0
     19351 WT8      1036     MECN     C2       CG1N1    0.360000       12.0110           0
     19352 WT8      1036     MECN     N3       NG1T1   -0.460000       14.0070           0
     19353 WT8      1037     MECN     C1       CG331   -0.170000       12.0110           0
     19354 WT8      1037     MECN     H11      HGA3     0.090000        1.0080           0
     19355 WT8      1037     MECN     H12      HGA3     0.090000        1.0080           0
     19356 WT8      1037     MECN     H13      HGA3     0.090000        1.0080           0
     19357 WT8      1037     MECN     C2       CG1N1    0.360000       12.0110           0
     19358 WT8      1037     MECN     N3       NG1T1   -0.460000       14.0070           0
     19359 WT8      1038     MECN     C1       CG331   -0.170000       12.0110           0
     19360 WT8      1038     MECN     H11      HGA3     0.090000        1.0080           0
     19361 WT8      1038     MECN     H12      HGA3     0.090000        1.0080           0
     19362 WT8      1038     MECN     H13      HGA3     0.090000        1.0080           0
     19363 WT8      1038     MECN     C2       CG1N1    0.360000       12.0110           0
     19364 WT8      1038     MECN     N3       NG1T1   -0.460000       14.0070           0
     19365 WT8      1045     MECN     C1       CG331   -0.170000       12.0110           0
     19366 WT8      1045     MECN     H11      HGA3     0.090000        1.0080           0
     19367 WT8      1045     MECN     H12      HGA3     0.090000        1.0080           0
     19368 WT8      1045     MECN     H13      HGA3     0.090000        1.0080           0
     19369 WT8      1045     MECN     C2       CG1N1    0.360000       12.0110           0
     19370 WT8      1045     MECN     N3       NG1T1   -0.460000       14.0070           0
     19371 WT8      1046     MECN     C1       CG331   -0.170000       12.0110           0
     19372 WT8      1046     MECN     H11      HGA3     0.090000        1.0080           0
     19373 WT8      1046     MECN     H12      HGA3     0.090000        1.0080           0
     19374 WT8      1046     MECN     H13      HGA3     0.090000        1.0080           0
     19375 WT8      1046     MECN     C2       CG1N1    0.360000       12.0110           0
     19376 WT8      1046     MECN     N3       NG1T1   -0.460000       14.0070           0
     19377 WT8      1047     MECN     C1       CG331   -0.170000       12.0110           0
     19378 WT8      1047     MECN     H11      HGA3     0.090000        1.0080           0
     19379 WT8      1047     MECN     H12      HGA3     0.090000        1.0080           0
     19380 WT8      1047     MECN     H13      HGA3     0.090000        1.0080           0
     19381 WT8      1047     MECN     C2       CG1N1    0.360000       12.0110           0
     19382 WT8      1047     MECN     N3       NG1T1   -0.460000       14.0070           0
     19383 WT8      1048     MECN     C1       CG331   -0.170000       12.0110           0
     19384 WT8      1048     MECN     H11      HGA3     0.090000        1.0080           0
     19385 WT8      1048     MECN     H12      HGA3     0.090000        1.0080           0
     19386 WT8      1048     MECN     H13      HGA3     0.090000        1.0080           0
     19387 WT8      1048     MECN     C2       CG1N1    0.360000       12.0110           0
     19388 WT8      1048     MECN     N3       NG1T1   -0.460000       14.0070           0
     19389 WT8      1053     MECN     C1       CG331   -0.170000       12.0110           0
     19390 WT8      1053     MECN     H11      HGA3     0.090000        1.0080           0
     19391 WT8      1053     MECN     H12      HGA3     0.090000        1.0080           0
     19392 WT8      1053     MECN     H13      HGA3     0.090000        1.0080           0
     19393 WT8      1053     MECN     C2       CG1N1    0.360000       12.0110           0
     19394 WT8      1053     MECN     N3       NG1T1   -0.460000       14.0070           0
     19395 WT8      1056     MECN     C1       CG331   -0.170000       12.0110           0
     19396 WT8      1056     MECN     H11      HGA3     0.090000        1.0080           0
     19397 WT8      1056     MECN     H12      HGA3     0.090000        1.0080           0
     19398 WT8      1056     MECN     H13      HGA3     0.090000        1.0080           0
     19399 WT8      1056     MECN     C2       CG1N1    0.360000       12.0110           0
     19400 WT8      1056     MECN     N3       NG1T1   -0.460000       14.0070           0
     19401 WT8      1062     MECN     C1       CG331   -0.170000       12.0110           0
     19402 WT8      1062     MECN     H11      HGA3     0.090000        1.0080           0
     19403 WT8      1062     MECN     H12      HGA3     0.090000        1.0080           0
     19404 WT8      1062     MECN     H13      HGA3     0.090000        1.0080           0
     19405 WT8      1062     MECN     C2       CG1N1    0.360000       12.0110           0
     19406 WT8      1062     MECN     N3       NG1T1   -0.460000       14.0070           0
     19407 WT8      1064     MECN     C1       CG331   -0.170000       12.0110           0
     19408 WT8      1064     MECN     H11      HGA3     0.090000        1.0080           0
     19409 WT8      1064     MECN     H12      HGA3     0.090000        1.0080           0
     19410 WT8      1064     MECN     H13      HGA3     0.090000        1.0080           0
     19411 WT8      1064     MECN     C2       CG1N1    0.360000       12.0110           0
     19412 WT8      1064     MECN     N3       NG1T1   -0.460000       14.0070           0
     19413 WT8      1065     MECN     C1       CG331   -0.170000       12.0110           0
     19414 WT8      1065     MECN     H11      HGA3     0.090000        1.0080           0
     19415 WT8      1065     MECN     H12      HGA3     0.090000        1.0080           0
     19416 WT8      1065     MECN     H13      HGA3     0.090000        1.0080           0
     19417 WT8      1065     MECN     C2       CG1N1    0.360000       12.0110           0
     19418 WT8      1065     MECN     N3       NG1T1   -0.460000       14.0070           0
     19419 WT8      1066     MECN     C1       CG331   -0.170000       12.0110           0
     19420 WT8      1066     MECN     H11      HGA3     0.090000        1.0080           0
     19421 WT8      1066     MECN     H12      HGA3     0.090000        1.0080           0
     19422 WT8      1066     MECN     H13      HGA3     0.090000        1.0080           0
     19423 WT8      1066     MECN     C2       CG1N1    0.360000       12.0110           0
     19424 WT8      1066     MECN     N3       NG1T1   -0.460000       14.0070           0
     19425 WT8      1068     MECN     C1       CG331   -0.170000       12.0110           0
     19426 WT8      1068     MECN     H11      HGA3     0.090000        1.0080           0
     19427 WT8      1068     MECN     H12      HGA3     0.090000        1.0080           0
     19428 WT8      1068     MECN     H13      HGA3     0.090000        1.0080           0
     19429 WT8      1068     MECN     C2       CG1N1    0.360000       12.0110           0
     19430 WT8      1068     MECN     N3       NG1T1   -0.460000       14.0070           0
     19431 WT8      1069     MECN     C1       CG331   -0.170000       12.0110           0
     19432 WT8      1069     MECN     H11      HGA3     0.090000        1.0080           0
     19433 WT8      1069     MECN     H12      HGA3     0.090000        1.0080           0
     19434 WT8      1069     MECN     H13      HGA3     0.090000        1.0080           0
     19435 WT8      1069     MECN     C2       CG1N1    0.360000       12.0110           0
     19436 WT8      1069     MECN     N3       NG1T1   -0.460000       14.0070           0
     19437 WT8      1073     MECN     C1       CG331   -0.170000       12.0110           0
     19438 WT8      1073     MECN     H11      HGA3     0.090000        1.0080           0
     19439 WT8      1073     MECN     H12      HGA3     0.090000        1.0080           0
     19440 WT8      1073     MECN     H13      HGA3     0.090000        1.0080           0
     19441 WT8      1073     MECN     C2       CG1N1    0.360000       12.0110           0
     19442 WT8      1073     MECN     N3       NG1T1   -0.460000       14.0070           0
     19443 WT8      1078     MECN     C1       CG331   -0.170000       12.0110           0
     19444 WT8      1078     MECN     H11      HGA3     0.090000        1.0080           0
     19445 WT8      1078     MECN     H12      HGA3     0.090000        1.0080           0
     19446 WT8      1078     MECN     H13      HGA3     0.090000        1.0080           0
     19447 WT8      1078     MECN     C2       CG1N1    0.360000       12.0110           0
     19448 WT8      1078     MECN     N3       NG1T1   -0.460000       14.0070           0
     19449 WT8      1080     MECN     C1       CG331   -0.170000       12.0110           0
     19450 WT8      1080     MECN     H11      HGA3     0.090000        1.0080           0
     19451 WT8      1080     MECN     H12      HGA3     0.090000        1.0080           0
     19452 WT8      1080     MECN     H13      HGA3     0.090000        1.0080           0
     19453 WT8      1080     MECN     C2       CG1N1    0.360000       12.0110           0
     19454 WT8      1080     MECN     N3       NG1T1   -0.460000       14.0070           0
     19455 WT8      1081     MECN     C1       CG331   -0.170000       12.0110           0
     19456 WT8      1081     MECN     H11      HGA3     0.090000        1.0080           0
     19457 WT8      1081     MECN     H12      HGA3     0.090000        1.0080           0
     19458 WT8      1081     MECN     H13      HGA3     0.090000        1.0080           0
     19459 WT8      1081     MECN     C2       CG1N1    0.360000       12.0110           0
     19460 WT8      1081     MECN     N3       NG1T1   -0.460000       14.0070           0
     19461 WT8      1091     MECN     C1       CG331   -0.170000       12.0110           0
     19462 WT8      1091     MECN     H11      HGA3     0.090000        1.0080           0
     19463 WT8      1091     MECN     H12      HGA3     0.090000        1.0080           0
     19464 WT8      1091     MECN     H13      HGA3     0.090000        1.0080           0
     19465 WT8      1091     MECN     C2       CG1N1    0.360000       12.0110           0
     19466 WT8      1091     MECN     N3       NG1T1   -0.460000       14.0070           0
     19467 WT8      1092     MECN     C1       CG331   -0.170000       12.0110           0
     19468 WT8      1092     MECN     H11      HGA3     0.090000        1.0080           0
     19469 WT8      1092     MECN     H12      HGA3     0.090000        1.0080           0
     19470 WT8      1092     MECN     H13      HGA3     0.090000        1.0080           0
     19471 WT8      1092     MECN     C2       CG1N1    0.360000       12.0110           0
     19472 WT8      1092     MECN     N3       NG1T1   -0.460000       14.0070           0
     19473 WT8      1094     MECN     C1       CG331   -0.170000       12.0110           0
     19474 WT8      1094     MECN     H11      HGA3     0.090000        1.0080           0
     19475 WT8      1094     MECN     H12      HGA3     0.090000        1.0080           0
     19476 WT8      1094     MECN     H13      HGA3     0.090000        1.0080           0
     19477 WT8      1094     MECN     C2       CG1N1    0.360000       12.0110           0
     19478 WT8      1094     MECN     N3       NG1T1   -0.460000       14.0070           0
     19479 WT8      1095     MECN     C1       CG331   -0.170000       12.0110           0
     19480 WT8      1095     MECN     H11      HGA3     0.090000        1.0080           0
     19481 WT8      1095     MECN     H12      HGA3     0.090000        1.0080           0
     19482 WT8      1095     MECN     H13      HGA3     0.090000        1.0080           0
     19483 WT8      1095     MECN     C2       CG1N1    0.360000       12.0110           0
     19484 WT8      1095     MECN     N3       NG1T1   -0.460000       14.0070           0
     19485 WT8      1100     MECN     C1       CG331   -0.170000       12.0110           0
     19486 WT8      1100     MECN     H11      HGA3     0.090000        1.0080           0
     19487 WT8      1100     MECN     H12      HGA3     0.090000        1.0080           0
     19488 WT8      1100     MECN     H13      HGA3     0.090000        1.0080           0
     19489 WT8      1100     MECN     C2       CG1N1    0.360000       12.0110           0
     19490 WT8      1100     MECN     N3       NG1T1   -0.460000       14.0070           0
     19491 WT8      1103     MECN     C1       CG331   -0.170000       12.0110           0
     19492 WT8      1103     MECN     H11      HGA3     0.090000        1.0080           0
     19493 WT8      1103     MECN     H12      HGA3     0.090000        1.0080           0
     19494 WT8      1103     MECN     H13      HGA3     0.090000        1.0080           0
     19495 WT8      1103     MECN     C2       CG1N1    0.360000       12.0110           0
     19496 WT8      1103     MECN     N3       NG1T1   -0.460000       14.0070           0
     19497 WT8      1111     MECN     C1       CG331   -0.170000       12.0110           0
     19498 WT8      1111     MECN     H11      HGA3     0.090000        1.0080           0
     19499 WT8      1111     MECN     H12      HGA3     0.090000        1.0080           0
     19500 WT8      1111     MECN     H13      HGA3     0.090000        1.0080           0
     19501 WT8      1111     MECN     C2       CG1N1    0.360000       12.0110           0
     19502 WT8      1111     MECN     N3       NG1T1   -0.460000       14.0070           0
     19503 WT8      1114     MECN     C1       CG331   -0.170000       12.0110           0
     19504 WT8      1114     MECN     H11      HGA3     0.090000        1.0080           0
     19505 WT8      1114     MECN     H12      HGA3     0.090000        1.0080           0
     19506 WT8      1114     MECN     H13      HGA3     0.090000        1.0080           0
     19507 WT8      1114     MECN     C2       CG1N1    0.360000       12.0110           0
     19508 WT8      1114     MECN     N3       NG1T1   -0.460000       14.0070           0
     19509 WT8      1115     MECN     C1       CG331   -0.170000       12.0110           0
     19510 WT8      1115     MECN     H11      HGA3     0.090000        1.0080           0
     19511 WT8      1115     MECN     H12      HGA3     0.090000        1.0080           0
     19512 WT8      1115     MECN     H13      HGA3     0.090000        1.0080           0
     19513 WT8      1115     MECN     C2       CG1N1    0.360000       12.0110           0
     19514 WT8      1115     MECN     N3       NG1T1   -0.460000       14.0070           0
     19515 WT8      1116     MECN     C1       CG331   -0.170000       12.0110           0
     19516 WT8      1116     MECN     H11      HGA3     0.090000        1.0080           0
     19517 WT8      1116     MECN     H12      HGA3     0.090000        1.0080           0
     19518 WT8      1116     MECN     H13      HGA3     0.090000        1.0080           0
     19519 WT8      1116     MECN     C2       CG1N1    0.360000       12.0110           0
     19520 WT8      1116     MECN     N3       NG1T1   -0.460000       14.0070           0
     19521 WT8      1119     MECN     C1       CG331   -0.170000       12.0110           0
     19522 WT8      1119     MECN     H11      HGA3     0.090000        1.0080           0
     19523 WT8      1119     MECN     H12      HGA3     0.090000        1.0080           0
     19524 WT8      1119     MECN     H13      HGA3     0.090000        1.0080           0
     19525 WT8      1119     MECN     C2       CG1N1    0.360000       12.0110           0
     19526 WT8      1119     MECN     N3       NG1T1   -0.460000       14.0070           0
     19527 WT8      1120     MECN     C1       CG331   -0.170000       12.0110           0
     19528 WT8      1120     MECN     H11      HGA3     0.090000        1.0080           0
     19529 WT8      1120     MECN     H12      HGA3     0.090000        1.0080           0
     19530 WT8      1120     MECN     H13      HGA3     0.090000        1.0080           0
     19531 WT8      1120     MECN     C2       CG1N1    0.360000       12.0110           0
     19532 WT8      1120     MECN     N3       NG1T1   -0.460000       14.0070           0
     19533 WT8      1125     MECN     C1       CG331   -0.170000       12.0110           0
     19534 WT8      1125     MECN     H11      HGA3     0.090000        1.0080           0
     19535 WT8      1125     MECN     H12      HGA3     0.090000        1.0080           0
     19536 WT8      1125     MECN     H13      HGA3     0.090000        1.0080           0
     19537 WT8      1125     MECN     C2       CG1N1    0.360000       12.0110           0
     19538 WT8      1125     MECN     N3       NG1T1   -0.460000       14.0070           0
     19539 WT8      1128     MECN     C1       CG331   -0.170000       12.0110           0
     19540 WT8      1128     MECN     H11      HGA3     0.090000        1.0080           0
     19541 WT8      1128     MECN     H12      HGA3     0.090000        1.0080           0
     19542 WT8      1128     MECN     H13      HGA3     0.090000        1.0080           0
     19543 WT8      1128     MECN     C2       CG1N1    0.360000       12.0110           0
     19544 WT8      1128     MECN     N3       NG1T1   -0.460000       14.0070           0
     19545 WT8      1135     MECN     C1       CG331   -0.170000       12.0110           0
     19546 WT8      1135     MECN     H11      HGA3     0.090000        1.0080           0
     19547 WT8      1135     MECN     H12      HGA3     0.090000        1.0080           0
     19548 WT8      1135     MECN     H13      HGA3     0.090000        1.0080           0
     19549 WT8      1135     MECN     C2       CG1N1    0.360000       12.0110           0
     19550 WT8      1135     MECN     N3       NG1T1   -0.460000       14.0070           0
     19551 WT8      1137     MECN     C1       CG331   -0.170000       12.0110           0
     19552 WT8      1137     MECN     H11      HGA3     0.090000        1.0080           0
     19553 WT8      1137     MECN     H12      HGA3     0.090000        1.0080           0
     19554 WT8      1137     MECN     H13      HGA3     0.090000        1.0080           0
     19555 WT8      1137     MECN     C2       CG1N1    0.360000       12.0110           0
     19556 WT8      1137     MECN     N3       NG1T1   -0.460000       14.0070           0
     19557 WT8      1141     MECN     C1       CG331   -0.170000       12.0110           0
     19558 WT8      1141     MECN     H11      HGA3     0.090000        1.0080           0
     19559 WT8      1141     MECN     H12      HGA3     0.090000        1.0080           0
     19560 WT8      1141     MECN     H13      HGA3     0.090000        1.0080           0
     19561 WT8      1141     MECN     C2       CG1N1    0.360000       12.0110           0
     19562 WT8      1141     MECN     N3       NG1T1   -0.460000       14.0070           0
     19563 WT8      1144     MECN     C1       CG331   -0.170000       12.0110           0
     19564 WT8      1144     MECN     H11      HGA3     0.090000        1.0080           0
     19565 WT8      1144     MECN     H12      HGA3     0.090000        1.0080           0
     19566 WT8      1144     MECN     H13      HGA3     0.090000        1.0080           0
     19567 WT8      1144     MECN     C2       CG1N1    0.360000       12.0110           0
     19568 WT8      1144     MECN     N3       NG1T1   -0.460000       14.0070           0
     19569 WT8      1145     MECN     C1       CG331   -0.170000       12.0110           0
     19570 WT8      1145     MECN     H11      HGA3     0.090000        1.0080           0
     19571 WT8      1145     MECN     H12      HGA3     0.090000        1.0080           0
     19572 WT8      1145     MECN     H13      HGA3     0.090000        1.0080           0
     19573 WT8      1145     MECN     C2       CG1N1    0.360000       12.0110           0
     19574 WT8      1145     MECN     N3       NG1T1   -0.460000       14.0070           0
     19575 WT8      1147     MECN     C1       CG331   -0.170000       12.0110           0
     19576 WT8      1147     MECN     H11      HGA3     0.090000        1.0080           0
     19577 WT8      1147     MECN     H12      HGA3     0.090000        1.0080           0
     19578 WT8      1147     MECN     H13      HGA3     0.090000        1.0080           0
     19579 WT8      1147     MECN     C2       CG1N1    0.360000       12.0110           0
     19580 WT8      1147     MECN     N3       NG1T1   -0.460000       14.0070           0
     19581 WT8      1150     MECN     C1       CG331   -0.170000       12.0110           0
     19582 WT8      1150     MECN     H11      HGA3     0.090000        1.0080           0
     19583 WT8      1150     MECN     H12      HGA3     0.090000        1.0080           0
     19584 WT8      1150     MECN     H13      HGA3     0.090000        1.0080           0
     19585 WT8      1150     MECN     C2       CG1N1    0.360000       12.0110           0
     19586 WT8      1150     MECN     N3       NG1T1   -0.460000       14.0070           0
     19587 WT8      1152     MECN     C1       CG331   -0.170000       12.0110           0
     19588 WT8      1152     MECN     H11      HGA3     0.090000        1.0080           0
     19589 WT8      1152     MECN     H12      HGA3     0.090000        1.0080           0
     19590 WT8      1152     MECN     H13      HGA3     0.090000        1.0080           0
     19591 WT8      1152     MECN     C2       CG1N1    0.360000       12.0110           0
     19592 WT8      1152     MECN     N3       NG1T1   -0.460000       14.0070           0
     19593 WT8      1154     MECN     C1       CG331   -0.170000       12.0110           0
     19594 WT8      1154     MECN     H11      HGA3     0.090000        1.0080           0
     19595 WT8      1154     MECN     H12      HGA3     0.090000        1.0080           0
     19596 WT8      1154     MECN     H13      HGA3     0.090000        1.0080           0
     19597 WT8      1154     MECN     C2       CG1N1    0.360000       12.0110           0
     19598 WT8      1154     MECN     N3       NG1T1   -0.460000       14.0070           0
     19599 WT8      1156     MECN     C1       CG331   -0.170000       12.0110           0
     19600 WT8      1156     MECN     H11      HGA3     0.090000        1.0080           0
     19601 WT8      1156     MECN     H12      HGA3     0.090000        1.0080           0
     19602 WT8      1156     MECN     H13      HGA3     0.090000        1.0080           0
     19603 WT8      1156     MECN     C2       CG1N1    0.360000       12.0110           0
     19604 WT8      1156     MECN     N3       NG1T1   -0.460000       14.0070           0
     19605 WT8      1159     MECN     C1       CG331   -0.170000       12.0110           0
     19606 WT8      1159     MECN     H11      HGA3     0.090000        1.0080           0
     19607 WT8      1159     MECN     H12      HGA3     0.090000        1.0080           0
     19608 WT8      1159     MECN     H13      HGA3     0.090000        1.0080           0
     19609 WT8      1159     MECN     C2       CG1N1    0.360000       12.0110           0
     19610 WT8      1159     MECN     N3       NG1T1   -0.460000       14.0070           0
     19611 WT8      1160     MECN     C1       CG331   -0.170000       12.0110           0
     19612 WT8      1160     MECN     H11      HGA3     0.090000        1.0080           0
     19613 WT8      1160     MECN     H12      HGA3     0.090000        1.0080           0
     19614 WT8      1160     MECN     H13      HGA3     0.090000        1.0080           0
     19615 WT8      1160     MECN     C2       CG1N1    0.360000       12.0110           0
     19616 WT8      1160     MECN     N3       NG1T1   -0.460000       14.0070           0
     19617 WT8      1175     MECN     C1       CG331   -0.170000       12.0110           0
     19618 WT8      1175     MECN     H11      HGA3     0.090000        1.0080           0
     19619 WT8      1175     MECN     H12      HGA3     0.090000        1.0080           0
     19620 WT8      1175     MECN     H13      HGA3     0.090000        1.0080           0
     19621 WT8      1175     MECN     C2       CG1N1    0.360000       12.0110           0
     19622 WT8      1175     MECN     N3       NG1T1   -0.460000       14.0070           0
     19623 WT8      1176     MECN     C1       CG331   -0.170000       12.0110           0
     19624 WT8      1176     MECN     H11      HGA3     0.090000        1.0080           0
     19625 WT8      1176     MECN     H12      HGA3     0.090000        1.0080           0
     19626 WT8      1176     MECN     H13      HGA3     0.090000        1.0080           0
     19627 WT8      1176     MECN     C2       CG1N1    0.360000       12.0110           0
     19628 WT8      1176     MECN     N3       NG1T1   -0.460000       14.0070           0
     19629 WT8      1177     MECN     C1       CG331   -0.170000       12.0110           0
     19630 WT8      1177     MECN     H11      HGA3     0.090000        1.0080           0
     19631 WT8      1177     MECN     H12      HGA3     0.090000        1.0080           0
     19632 WT8      1177     MECN     H13      HGA3     0.090000        1.0080           0
     19633 WT8      1177     MECN     C2       CG1N1    0.360000       12.0110           0
     19634 WT8      1177     MECN     N3       NG1T1   -0.460000       14.0070           0
     19635 WT8      1178     MECN     C1       CG331   -0.170000       12.0110           0
     19636 WT8      1178     MECN     H11      HGA3     0.090000        1.0080           0
     19637 WT8      1178     MECN     H12      HGA3     0.090000        1.0080           0
     19638 WT8      1178     MECN     H13      HGA3     0.090000        1.0080           0
     19639 WT8      1178     MECN     C2       CG1N1    0.360000       12.0110           0
     19640 WT8      1178     MECN     N3       NG1T1   -0.460000       14.0070           0
     19641 WT8      1182     MECN     C1       CG331   -0.170000       12.0110           0
     19642 WT8      1182     MECN     H11      HGA3     0.090000        1.0080           0
     19643 WT8      1182     MECN     H12      HGA3     0.090000        1.0080           0
     19644 WT8      1182     MECN     H13      HGA3     0.090000        1.0080           0
     19645 WT8      1182     MECN     C2       CG1N1    0.360000       12.0110           0
     19646 WT8      1182     MECN     N3       NG1T1   -0.460000       14.0070           0
     19647 WT8      1183     MECN     C1       CG331   -0.170000       12.0110           0
     19648 WT8      1183     MECN     H11      HGA3     0.090000        1.0080           0
     19649 WT8      1183     MECN     H12      HGA3     0.090000        1.0080           0
     19650 WT8      1183     MECN     H13      HGA3     0.090000        1.0080           0
     19651 WT8      1183     MECN     C2       CG1N1    0.360000       12.0110           0
     19652 WT8      1183     MECN     N3       NG1T1   -0.460000       14.0070           0
     19653 WT8      1184     MECN     C1       CG331   -0.170000       12.0110           0
     19654 WT8      1184     MECN     H11      HGA3     0.090000        1.0080           0
     19655 WT8      1184     MECN     H12      HGA3     0.090000        1.0080           0
     19656 WT8      1184     MECN     H13      HGA3     0.090000        1.0080           0
     19657 WT8      1184     MECN     C2       CG1N1    0.360000       12.0110           0
     19658 WT8      1184     MECN     N3       NG1T1   -0.460000       14.0070           0
     19659 WT8      1186     MECN     C1       CG331   -0.170000       12.0110           0
     19660 WT8      1186     MECN     H11      HGA3     0.090000        1.0080           0
     19661 WT8      1186     MECN     H12      HGA3     0.090000        1.0080           0
     19662 WT8      1186     MECN     H13      HGA3     0.090000        1.0080           0
     19663 WT8      1186     MECN     C2       CG1N1    0.360000       12.0110           0
     19664 WT8      1186     MECN     N3       NG1T1   -0.460000       14.0070           0
     19665 WT8      1194     MECN     C1       CG331   -0.170000       12.0110           0
     19666 WT8      1194     MECN     H11      HGA3     0.090000        1.0080           0
     19667 WT8      1194     MECN     H12      HGA3     0.090000        1.0080           0
     19668 WT8      1194     MECN     H13      HGA3     0.090000        1.0080           0
     19669 WT8      1194     MECN     C2       CG1N1    0.360000       12.0110           0
     19670 WT8      1194     MECN     N3       NG1T1   -0.460000       14.0070           0
     19671 WT8      1196     MECN     C1       CG331   -0.170000       12.0110           0
     19672 WT8      1196     MECN     H11      HGA3     0.090000        1.0080           0
     19673 WT8      1196     MECN     H12      HGA3     0.090000        1.0080           0
     19674 WT8      1196     MECN     H13      HGA3     0.090000        1.0080           0
     19675 WT8      1196     MECN     C2       CG1N1    0.360000       12.0110           0
     19676 WT8      1196     MECN     N3       NG1T1   -0.460000       14.0070           0
     19677 WT8      1201     MECN     C1       CG331   -0.170000       12.0110           0
     19678 WT8      1201     MECN     H11      HGA3     0.090000        1.0080           0
     19679 WT8      1201     MECN     H12      HGA3     0.090000        1.0080           0
     19680 WT8      1201     MECN     H13      HGA3     0.090000        1.0080           0
     19681 WT8      1201     MECN     C2       CG1N1    0.360000       12.0110           0
     19682 WT8      1201     MECN     N3       NG1T1   -0.460000       14.0070           0
     19683 WT8      1207     MECN     C1       CG331   -0.170000       12.0110           0
     19684 WT8      1207     MECN     H11      HGA3     0.090000        1.0080           0
     19685 WT8      1207     MECN     H12      HGA3     0.090000        1.0080           0
     19686 WT8      1207     MECN     H13      HGA3     0.090000        1.0080           0
     19687 WT8      1207     MECN     C2       CG1N1    0.360000       12.0110           0
     19688 WT8      1207     MECN     N3       NG1T1   -0.460000       14.0070           0
     19689 WT8      1208     MECN     C1       CG331   -0.170000       12.0110           0
     19690 WT8      1208     MECN     H11      HGA3     0.090000        1.0080           0
     19691 WT8      1208     MECN     H12      HGA3     0.090000        1.0080           0
     19692 WT8      1208     MECN     H13      HGA3     0.090000        1.0080           0
     19693 WT8      1208     MECN     C2       CG1N1    0.360000       12.0110           0
     19694 WT8      1208     MECN     N3       NG1T1   -0.460000       14.0070           0
     19695 WT8      1209     MECN     C1       CG331   -0.170000       12.0110           0
     19696 WT8      1209     MECN     H11      HGA3     0.090000        1.0080           0
     19697 WT8      1209     MECN     H12      HGA3     0.090000        1.0080           0
     19698 WT8      1209     MECN     H13      HGA3     0.090000        1.0080           0
     19699 WT8      1209     MECN     C2       CG1N1    0.360000       12.0110           0
     19700 WT8      1209     MECN     N3       NG1T1   -0.460000       14.0070           0
     19701 WT8      1215     MECN     C1       CG331   -0.170000       12.0110           0
     19702 WT8      1215     MECN     H11      HGA3     0.090000        1.0080           0
     19703 WT8      1215     MECN     H12      HGA3     0.090000        1.0080           0
     19704 WT8      1215     MECN     H13      HGA3     0.090000        1.0080           0
     19705 WT8      1215     MECN     C2       CG1N1    0.360000       12.0110           0
     19706 WT8      1215     MECN     N3       NG1T1   -0.460000       14.0070           0
     19707 WT8      1216     MECN     C1       CG331   -0.170000       12.0110           0
     19708 WT8      1216     MECN     H11      HGA3     0.090000        1.0080           0
     19709 WT8      1216     MECN     H12      HGA3     0.090000        1.0080           0
     19710 WT8      1216     MECN     H13      HGA3     0.090000        1.0080           0
     19711 WT8      1216     MECN     C2       CG1N1    0.360000       12.0110           0
     19712 WT8      1216     MECN     N3       NG1T1   -0.460000       14.0070           0
     19713 WT8      1218     MECN     C1       CG331   -0.170000       12.0110           0
     19714 WT8      1218     MECN     H11      HGA3     0.090000        1.0080           0
     19715 WT8      1218     MECN     H12      HGA3     0.090000        1.0080           0
     19716 WT8      1218     MECN     H13      HGA3     0.090000        1.0080           0
     19717 WT8      1218     MECN     C2       CG1N1    0.360000       12.0110           0
     19718 WT8      1218     MECN     N3       NG1T1   -0.460000       14.0070           0
     19719 WT8      1221     MECN     C1       CG331   -0.170000       12.0110           0
     19720 WT8      1221     MECN     H11      HGA3     0.090000        1.0080           0
     19721 WT8      1221     MECN     H12      HGA3     0.090000        1.0080           0
     19722 WT8      1221     MECN     H13      HGA3     0.090000        1.0080           0
     19723 WT8      1221     MECN     C2       CG1N1    0.360000       12.0110           0
     19724 WT8      1221     MECN     N3       NG1T1   -0.460000       14.0070           0
     19725 WT8      1229     MECN     C1       CG331   -0.170000       12.0110           0
     19726 WT8      1229     MECN     H11      HGA3     0.090000        1.0080           0
     19727 WT8      1229     MECN     H12      HGA3     0.090000        1.0080           0
     19728 WT8      1229     MECN     H13      HGA3     0.090000        1.0080           0
     19729 WT8      1229     MECN     C2       CG1N1    0.360000       12.0110           0
     19730 WT8      1229     MECN     N3       NG1T1   -0.460000       14.0070           0
     19731 WT8      1233     MECN     C1       CG331   -0.170000       12.0110           0
     19732 WT8      1233     MECN     H11      HGA3     0.090000        1.0080           0
     19733 WT8      1233     MECN     H12      HGA3     0.090000        1.0080           0
     19734 WT8      1233     MECN     H13      HGA3     0.090000        1.0080           0
     19735 WT8      1233     MECN     C2       CG1N1    0.360000       12.0110           0
     19736 WT8      1233     MECN     N3       NG1T1   -0.460000       14.0070           0
     19737 WT8      1241     MECN     C1       CG331   -0.170000       12.0110           0
     19738 WT8      1241     MECN     H11      HGA3     0.090000        1.0080           0
     19739 WT8      1241     MECN     H12      HGA3     0.090000        1.0080           0
     19740 WT8      1241     MECN     H13      HGA3     0.090000        1.0080           0
     19741 WT8      1241     MECN     C2       CG1N1    0.360000       12.0110           0
     19742 WT8      1241     MECN     N3       NG1T1   -0.460000       14.0070           0
     19743 WT8      1243     MECN     C1       CG331   -0.170000       12.0110           0
     19744 WT8      1243     MECN     H11      HGA3     0.090000        1.0080           0
     19745 WT8      1243     MECN     H12      HGA3     0.090000        1.0080           0
     19746 WT8      1243     MECN     H13      HGA3     0.090000        1.0080           0
     19747 WT8      1243     MECN     C2       CG1N1    0.360000       12.0110           0
     19748 WT8      1243     MECN     N3       NG1T1   -0.460000       14.0070           0
     19749 WT8      1245     MECN     C1       CG331   -0.170000       12.0110           0
     19750 WT8      1245     MECN     H11      HGA3     0.090000        1.0080           0
     19751 WT8      1245     MECN     H12      HGA3     0.090000        1.0080           0
     19752 WT8      1245     MECN     H13      HGA3     0.090000        1.0080           0
     19753 WT8      1245     MECN     C2       CG1N1    0.360000       12.0110           0
     19754 WT8      1245     MECN     N3       NG1T1   -0.460000       14.0070           0
     19755 WT8      1248     MECN     C1       CG331   -0.170000       12.0110           0
     19756 WT8      1248     MECN     H11      HGA3     0.090000        1.0080           0
     19757 WT8      1248     MECN     H12      HGA3     0.090000        1.0080           0
     19758 WT8      1248     MECN     H13      HGA3     0.090000        1.0080           0
     19759 WT8      1248     MECN     C2       CG1N1    0.360000       12.0110           0
     19760 WT8      1248     MECN     N3       NG1T1   -0.460000       14.0070           0
     19761 WT8      1251     MECN     C1       CG331   -0.170000       12.0110           0
     19762 WT8      1251     MECN     H11      HGA3     0.090000        1.0080           0
     19763 WT8      1251     MECN     H12      HGA3     0.090000        1.0080           0
     19764 WT8      1251     MECN     H13      HGA3     0.090000        1.0080           0
     19765 WT8      1251     MECN     C2       CG1N1    0.360000       12.0110           0
     19766 WT8      1251     MECN     N3       NG1T1   -0.460000       14.0070           0
     19767 WT8      1253     MECN     C1       CG331   -0.170000       12.0110           0
     19768 WT8      1253     MECN     H11      HGA3     0.090000        1.0080           0
     19769 WT8      1253     MECN     H12      HGA3     0.090000        1.0080           0
     19770 WT8      1253     MECN     H13      HGA3     0.090000        1.0080           0
     19771 WT8      1253     MECN     C2       CG1N1    0.360000       12.0110           0
     19772 WT8      1253     MECN     N3       NG1T1   -0.460000       14.0070           0
     19773 WT8      1258     MECN     C1       CG331   -0.170000       12.0110           0
     19774 WT8      1258     MECN     H11      HGA3     0.090000        1.0080           0
     19775 WT8      1258     MECN     H12      HGA3     0.090000        1.0080           0
     19776 WT8      1258     MECN     H13      HGA3     0.090000        1.0080           0
     19777 WT8      1258     MECN     C2       CG1N1    0.360000       12.0110           0
     19778 WT8      1258     MECN     N3       NG1T1   -0.460000       14.0070           0
     19779 WT8      1260     MECN     C1       CG331   -0.170000       12.0110           0
     19780 WT8      1260     MECN     H11      HGA3     0.090000        1.0080           0
     19781 WT8      1260     MECN     H12      HGA3     0.090000        1.0080           0
     19782 WT8      1260     MECN     H13      HGA3     0.090000        1.0080           0
     19783 WT8      1260     MECN     C2       CG1N1    0.360000       12.0110           0
     19784 WT8      1260     MECN     N3       NG1T1   -0.460000       14.0070           0
     19785 WT8      1263     MECN     C1       CG331   -0.170000       12.0110           0
     19786 WT8      1263     MECN     H11      HGA3     0.090000        1.0080           0
     19787 WT8      1263     MECN     H12      HGA3     0.090000        1.0080           0
     19788 WT8      1263     MECN     H13      HGA3     0.090000        1.0080           0
     19789 WT8      1263     MECN     C2       CG1N1    0.360000       12.0110           0
     19790 WT8      1263     MECN     N3       NG1T1   -0.460000       14.0070           0
     19791 WT8      1270     MECN     C1       CG331   -0.170000       12.0110           0
     19792 WT8      1270     MECN     H11      HGA3     0.090000        1.0080           0
     19793 WT8      1270     MECN     H12      HGA3     0.090000        1.0080           0
     19794 WT8      1270     MECN     H13      HGA3     0.090000        1.0080           0
     19795 WT8      1270     MECN     C2       CG1N1    0.360000       12.0110           0
     19796 WT8      1270     MECN     N3       NG1T1   -0.460000       14.0070           0
     19797 WT8      1273     MECN     C1       CG331   -0.170000       12.0110           0
     19798 WT8      1273     MECN     H11      HGA3     0.090000        1.0080           0
     19799 WT8      1273     MECN     H12      HGA3     0.090000        1.0080           0
     19800 WT8      1273     MECN     H13      HGA3     0.090000        1.0080           0
     19801 WT8      1273     MECN     C2       CG1N1    0.360000       12.0110           0
     19802 WT8      1273     MECN     N3       NG1T1   -0.460000       14.0070           0
     19803 WT8      1282     MECN     C1       CG331   -0.170000       12.0110           0
     19804 WT8      1282     MECN     H11      HGA3     0.090000        1.0080           0
     19805 WT8      1282     MECN     H12      HGA3     0.090000        1.0080           0
     19806 WT8      1282     MECN     H13      HGA3     0.090000        1.0080           0
     19807 WT8      1282     MECN     C2       CG1N1    0.360000       12.0110           0
     19808 WT8      1282     MECN     N3       NG1T1   -0.460000       14.0070           0
     19809 WT8      1284     MECN     C1       CG331   -0.170000       12.0110           0
     19810 WT8      1284     MECN     H11      HGA3     0.090000        1.0080           0
     19811 WT8      1284     MECN     H12      HGA3     0.090000        1.0080           0
     19812 WT8      1284     MECN     H13      HGA3     0.090000        1.0080           0
     19813 WT8      1284     MECN     C2       CG1N1    0.360000       12.0110           0
     19814 WT8      1284     MECN     N3       NG1T1   -0.460000       14.0070           0
     19815 WT8      1285     MECN     C1       CG331   -0.170000       12.0110           0
     19816 WT8      1285     MECN     H11      HGA3     0.090000        1.0080           0
     19817 WT8      1285     MECN     H12      HGA3     0.090000        1.0080           0
     19818 WT8      1285     MECN     H13      HGA3     0.090000        1.0080           0
     19819 WT8      1285     MECN     C2       CG1N1    0.360000       12.0110           0
     19820 WT8      1285     MECN     N3       NG1T1   -0.460000       14.0070           0
     19821 WT8      1287     MECN     C1       CG331   -0.170000       12.0110           0
     19822 WT8      1287     MECN     H11      HGA3     0.090000        1.0080           0
     19823 WT8      1287     MECN     H12      HGA3     0.090000        1.0080           0
     19824 WT8      1287     MECN     H13      HGA3     0.090000        1.0080           0
     19825 WT8      1287     MECN     C2       CG1N1    0.360000       12.0110           0
     19826 WT8      1287     MECN     N3       NG1T1   -0.460000       14.0070           0
     19827 WT8      1294     MECN     C1       CG331   -0.170000       12.0110           0
     19828 WT8      1294     MECN     H11      HGA3     0.090000        1.0080           0
     19829 WT8      1294     MECN     H12      HGA3     0.090000        1.0080           0
     19830 WT8      1294     MECN     H13      HGA3     0.090000        1.0080           0
     19831 WT8      1294     MECN     C2       CG1N1    0.360000       12.0110           0
     19832 WT8      1294     MECN     N3       NG1T1   -0.460000       14.0070           0
     19833 WT8      1303     MECN     C1       CG331   -0.170000       12.0110           0
     19834 WT8      1303     MECN     H11      HGA3     0.090000        1.0080           0
     19835 WT8      1303     MECN     H12      HGA3     0.090000        1.0080           0
     19836 WT8      1303     MECN     H13      HGA3     0.090000        1.0080           0
     19837 WT8      1303     MECN     C2       CG1N1    0.360000       12.0110           0
     19838 WT8      1303     MECN     N3       NG1T1   -0.460000       14.0070           0
     19839 WT8      1306     MECN     C1       CG331   -0.170000       12.0110           0
     19840 WT8      1306     MECN     H11      HGA3     0.090000        1.0080           0
     19841 WT8      1306     MECN     H12      HGA3     0.090000        1.0080           0
     19842 WT8      1306     MECN     H13      HGA3     0.090000        1.0080           0
     19843 WT8      1306     MECN     C2       CG1N1    0.360000       12.0110           0
     19844 WT8      1306     MECN     N3       NG1T1   -0.460000       14.0070           0
     19845 WT8      1307     MECN     C1       CG331   -0.170000       12.0110           0
     19846 WT8      1307     MECN     H11      HGA3     0.090000        1.0080           0
     19847 WT8      1307     MECN     H12      HGA3     0.090000        1.0080           0
     19848 WT8      1307     MECN     H13      HGA3     0.090000        1.0080           0
     19849 WT8      1307     MECN     C2       CG1N1    0.360000       12.0110           0
     19850 WT8      1307     MECN     N3       NG1T1   -0.460000       14.0070           0
     19851 WT8      1310     MECN     C1       CG331   -0.170000       12.0110           0
     19852 WT8      1310     MECN     H11      HGA3     0.090000        1.0080           0
     19853 WT8      1310     MECN     H12      HGA3     0.090000        1.0080           0
     19854 WT8      1310     MECN     H13      HGA3     0.090000        1.0080           0
     19855 WT8      1310     MECN     C2       CG1N1    0.360000       12.0110           0
     19856 WT8      1310     MECN     N3       NG1T1   -0.460000       14.0070           0
     19857 WT8      1312     MECN     C1       CG331   -0.170000       12.0110           0
     19858 WT8      1312     MECN     H11      HGA3     0.090000        1.0080           0
     19859 WT8      1312     MECN     H12      HGA3     0.090000        1.0080           0
     19860 WT8      1312     MECN     H13      HGA3     0.090000        1.0080           0
     19861 WT8      1312     MECN     C2       CG1N1    0.360000       12.0110           0
     19862 WT8      1312     MECN     N3       NG1T1   -0.460000       14.0070           0
     19863 WT8      1314     MECN     C1       CG331   -0.170000       12.0110           0
     19864 WT8      1314     MECN     H11      HGA3     0.090000        1.0080           0
     19865 WT8      1314     MECN     H12      HGA3     0.090000        1.0080           0
     19866 WT8      1314     MECN     H13      HGA3     0.090000        1.0080           0
     19867 WT8      1314     MECN     C2       CG1N1    0.360000       12.0110           0
     19868 WT8      1314     MECN     N3       NG1T1   -0.460000       14.0070           0
     19869 WT8      1315     MECN     C1       CG331   -0.170000       12.0110           0
     19870 WT8      1315     MECN     H11      HGA3     0.090000        1.0080           0
     19871 WT8      1315     MECN     H12      HGA3     0.090000        1.0080           0
     19872 WT8      1315     MECN     H13      HGA3     0.090000        1.0080           0
     19873 WT8      1315     MECN     C2       CG1N1    0.360000       12.0110           0
     19874 WT8      1315     MECN     N3       NG1T1   -0.460000       14.0070           0
     19875 WT8      1317     MECN     C1       CG331   -0.170000       12.0110           0
     19876 WT8      1317     MECN     H11      HGA3     0.090000        1.0080           0
     19877 WT8      1317     MECN     H12      HGA3     0.090000        1.0080           0
     19878 WT8      1317     MECN     H13      HGA3     0.090000        1.0080           0
     19879 WT8      1317     MECN     C2       CG1N1    0.360000       12.0110           0
     19880 WT8      1317     MECN     N3       NG1T1   -0.460000       14.0070           0
     19881 WT8      1320     MECN     C1       CG331   -0.170000       12.0110           0
     19882 WT8      1320     MECN     H11      HGA3     0.090000        1.0080           0
     19883 WT8      1320     MECN     H12      HGA3     0.090000        1.0080           0
     19884 WT8      1320     MECN     H13      HGA3     0.090000        1.0080           0
     19885 WT8      1320     MECN     C2       CG1N1    0.360000       12.0110           0
     19886 WT8      1320     MECN     N3       NG1T1   -0.460000       14.0070           0
     19887 WT8      1326     MECN     C1       CG331   -0.170000       12.0110           0
     19888 WT8      1326     MECN     H11      HGA3     0.090000        1.0080           0
     19889 WT8      1326     MECN     H12      HGA3     0.090000        1.0080           0
     19890 WT8      1326     MECN     H13      HGA3     0.090000        1.0080           0
     19891 WT8      1326     MECN     C2       CG1N1    0.360000       12.0110           0
     19892 WT8      1326     MECN     N3       NG1T1   -0.460000       14.0070           0
     19893 WT8      1329     MECN     C1       CG331   -0.170000       12.0110           0
     19894 WT8      1329     MECN     H11      HGA3     0.090000        1.0080           0
     19895 WT8      1329     MECN     H12      HGA3     0.090000        1.0080           0
     19896 WT8      1329     MECN     H13      HGA3     0.090000        1.0080           0
     19897 WT8      1329     MECN     C2       CG1N1    0.360000       12.0110           0
     19898 WT8      1329     MECN     N3       NG1T1   -0.460000       14.0070           0
     19899 WT9      2        MECN     C1       CG331   -0.170000       12.0110           0
     19900 WT9      2        MECN     H11      HGA3     0.090000        1.0080           0
     19901 WT9      2        MECN     H12      HGA3     0.090000        1.0080           0
     19902 WT9      2        MECN     H13      HGA3     0.090000        1.0080           0
     19903 WT9      2        MECN     C2       CG1N1    0.360000       12.0110           0
     19904 WT9      2        MECN     N3       NG1T1   -0.460000       14.0070           0
     19905 WT9      5        MECN     C1       CG331   -0.170000       12.0110           0
     19906 WT9      5        MECN     H11      HGA3     0.090000        1.0080           0
     19907 WT9      5        MECN     H12      HGA3     0.090000        1.0080           0
     19908 WT9      5        MECN     H13      HGA3     0.090000        1.0080           0
     19909 WT9      5        MECN     C2       CG1N1    0.360000       12.0110           0
     19910 WT9      5        MECN     N3       NG1T1   -0.460000       14.0070           0
     19911 WT9      13       MECN     C1       CG331   -0.170000       12.0110           0
     19912 WT9      13       MECN     H11      HGA3     0.090000        1.0080           0
     19913 WT9      13       MECN     H12      HGA3     0.090000        1.0080           0
     19914 WT9      13       MECN     H13      HGA3     0.090000        1.0080           0
     19915 WT9      13       MECN     C2       CG1N1    0.360000       12.0110           0
     19916 WT9      13       MECN     N3       NG1T1   -0.460000       14.0070           0
     19917 WT9      14       MECN     C1       CG331   -0.170000       12.0110           0
     19918 WT9      14       MECN     H11      HGA3     0.090000        1.0080           0
     19919 WT9      14       MECN     H12      HGA3     0.090000        1.0080           0
     19920 WT9      14       MECN     H13      HGA3     0.090000        1.0080           0
     19921 WT9      14       MECN     C2       CG1N1    0.360000       12.0110           0
     19922 WT9      14       MECN     N3       NG1T1   -0.460000       14.0070           0
     19923 WT9      17       MECN     C1       CG331   -0.170000       12.0110           0
     19924 WT9      17       MECN     H11      HGA3     0.090000        1.0080           0
     19925 WT9      17       MECN     H12      HGA3     0.090000        1.0080           0
     19926 WT9      17       MECN     H13      HGA3     0.090000        1.0080           0
     19927 WT9      17       MECN     C2       CG1N1    0.360000       12.0110           0
     19928 WT9      17       MECN     N3       NG1T1   -0.460000       14.0070           0
     19929 WT9      19       MECN     C1       CG331   -0.170000       12.0110           0
     19930 WT9      19       MECN     H11      HGA3     0.090000        1.0080           0
     19931 WT9      19       MECN     H12      HGA3     0.090000        1.0080           0
     19932 WT9      19       MECN     H13      HGA3     0.090000        1.0080           0
     19933 WT9      19       MECN     C2       CG1N1    0.360000       12.0110           0
     19934 WT9      19       MECN     N3       NG1T1   -0.460000       14.0070           0
     19935 WT9      24       MECN     C1       CG331   -0.170000       12.0110           0
     19936 WT9      24       MECN     H11      HGA3     0.090000        1.0080           0
     19937 WT9      24       MECN     H12      HGA3     0.090000        1.0080           0
     19938 WT9      24       MECN     H13      HGA3     0.090000        1.0080           0
     19939 WT9      24       MECN     C2       CG1N1    0.360000       12.0110           0
     19940 WT9      24       MECN     N3       NG1T1   -0.460000       14.0070           0
     19941 WT9      26       MECN     C1       CG331   -0.170000       12.0110           0
     19942 WT9      26       MECN     H11      HGA3     0.090000        1.0080           0
     19943 WT9      26       MECN     H12      HGA3     0.090000        1.0080           0
     19944 WT9      26       MECN     H13      HGA3     0.090000        1.0080           0
     19945 WT9      26       MECN     C2       CG1N1    0.360000       12.0110           0
     19946 WT9      26       MECN     N3       NG1T1   -0.460000       14.0070           0
     19947 WT9      27       MECN     C1       CG331   -0.170000       12.0110           0
     19948 WT9      27       MECN     H11      HGA3     0.090000        1.0080           0
     19949 WT9      27       MECN     H12      HGA3     0.090000        1.0080           0
     19950 WT9      27       MECN     H13      HGA3     0.090000        1.0080           0
     19951 WT9      27       MECN     C2       CG1N1    0.360000       12.0110           0
     19952 WT9      27       MECN     N3       NG1T1   -0.460000       14.0070           0
     19953 WT9      28       MECN     C1       CG331   -0.170000       12.0110           0
     19954 WT9      28       MECN     H11      HGA3     0.090000        1.0080           0
     19955 WT9      28       MECN     H12      HGA3     0.090000        1.0080           0
     19956 WT9      28       MECN     H13      HGA3     0.090000        1.0080           0
     19957 WT9      28       MECN     C2       CG1N1    0.360000       12.0110           0
     19958 WT9      28       MECN     N3       NG1T1   -0.460000       14.0070           0
     19959 WT9      51       MECN     C1       CG331   -0.170000       12.0110           0
     19960 WT9      51       MECN     H11      HGA3     0.090000        1.0080           0
     19961 WT9      51       MECN     H12      HGA3     0.090000        1.0080           0
     19962 WT9      51       MECN     H13      HGA3     0.090000        1.0080           0
     19963 WT9      51       MECN     C2       CG1N1    0.360000       12.0110           0
     19964 WT9      51       MECN     N3       NG1T1   -0.460000       14.0070           0
     19965 WT9      53       MECN     C1       CG331   -0.170000       12.0110           0
     19966 WT9      53       MECN     H11      HGA3     0.090000        1.0080           0
     19967 WT9      53       MECN     H12      HGA3     0.090000        1.0080           0
     19968 WT9      53       MECN     H13      HGA3     0.090000        1.0080           0
     19969 WT9      53       MECN     C2       CG1N1    0.360000       12.0110           0
     19970 WT9      53       MECN     N3       NG1T1   -0.460000       14.0070           0
     19971 WT9      65       MECN     C1       CG331   -0.170000       12.0110           0
     19972 WT9      65       MECN     H11      HGA3     0.090000        1.0080           0
     19973 WT9      65       MECN     H12      HGA3     0.090000        1.0080           0
     19974 WT9      65       MECN     H13      HGA3     0.090000        1.0080           0
     19975 WT9      65       MECN     C2       CG1N1    0.360000       12.0110           0
     19976 WT9      65       MECN     N3       NG1T1   -0.460000       14.0070           0
     19977 WT9      68       MECN     C1       CG331   -0.170000       12.0110           0
     19978 WT9      68       MECN     H11      HGA3     0.090000        1.0080           0
     19979 WT9      68       MECN     H12      HGA3     0.090000        1.0080           0
     19980 WT9      68       MECN     H13      HGA3     0.090000        1.0080           0
     19981 WT9      68       MECN     C2       CG1N1    0.360000       12.0110           0
     19982 WT9      68       MECN     N3       NG1T1   -0.460000       14.0070           0
     19983 WT9      69       MECN     C1       CG331   -0.170000       12.0110           0
     19984 WT9      69       MECN     H11      HGA3     0.090000        1.0080           0
     19985 WT9      69       MECN     H12      HGA3     0.090000        1.0080           0
     19986 WT9      69       MECN     H13      HGA3     0.090000        1.0080           0
     19987 WT9      69       MECN     C2       CG1N1    0.360000       12.0110           0
     19988 WT9      69       MECN     N3       NG1T1   -0.460000       14.0070           0
     19989 WT9      70       MECN     C1       CG331   -0.170000       12.0110           0
     19990 WT9      70       MECN     H11      HGA3     0.090000        1.0080           0
     19991 WT9      70       MECN     H12      HGA3     0.090000        1.0080           0
     19992 WT9      70       MECN     H13      HGA3     0.090000        1.0080           0
     19993 WT9      70       MECN     C2       CG1N1    0.360000       12.0110           0
     19994 WT9      70       MECN     N3       NG1T1   -0.460000       14.0070           0
     19995 WT9      73       MECN     C1       CG331   -0.170000       12.0110           0
     19996 WT9      73       MECN     H11      HGA3     0.090000        1.0080           0
     19997 WT9      73       MECN     H12      HGA3     0.090000        1.0080           0
     19998 WT9      73       MECN     H13      HGA3     0.090000        1.0080           0
     19999 WT9      73       MECN     C2       CG1N1    0.360000       12.0110           0
     20000 WT9      73       MECN     N3       NG1T1   -0.460000       14.0070           0
     20001 WT9      77       MECN     C1       CG331   -0.170000       12.0110           0
     20002 WT9      77       MECN     H11      HGA3     0.090000        1.0080           0
     20003 WT9      77       MECN     H12      HGA3     0.090000        1.0080           0
     20004 WT9      77       MECN     H13      HGA3     0.090000        1.0080           0
     20005 WT9      77       MECN     C2       CG1N1    0.360000       12.0110           0
     20006 WT9      77       MECN     N3       NG1T1   -0.460000       14.0070           0
     20007 WT9      87       MECN     C1       CG331   -0.170000       12.0110           0
     20008 WT9      87       MECN     H11      HGA3     0.090000        1.0080           0
     20009 WT9      87       MECN     H12      HGA3     0.090000        1.0080           0
     20010 WT9      87       MECN     H13      HGA3     0.090000        1.0080           0
     20011 WT9      87       MECN     C2       CG1N1    0.360000       12.0110           0
     20012 WT9      87       MECN     N3       NG1T1   -0.460000       14.0070           0
     20013 WT9      98       MECN     C1       CG331   -0.170000       12.0110           0
     20014 WT9      98       MECN     H11      HGA3     0.090000        1.0080           0
     20015 WT9      98       MECN     H12      HGA3     0.090000        1.0080           0
     20016 WT9      98       MECN     H13      HGA3     0.090000        1.0080           0
     20017 WT9      98       MECN     C2       CG1N1    0.360000       12.0110           0
     20018 WT9      98       MECN     N3       NG1T1   -0.460000       14.0070           0
     20019 WT9      99       MECN     C1       CG331   -0.170000       12.0110           0
     20020 WT9      99       MECN     H11      HGA3     0.090000        1.0080           0
     20021 WT9      99       MECN     H12      HGA3     0.090000        1.0080           0
     20022 WT9      99       MECN     H13      HGA3     0.090000        1.0080           0
     20023 WT9      99       MECN     C2       CG1N1    0.360000       12.0110           0
     20024 WT9      99       MECN     N3       NG1T1   -0.460000       14.0070           0
     20025 WT9      102      MECN     C1       CG331   -0.170000       12.0110           0
     20026 WT9      102      MECN     H11      HGA3     0.090000        1.0080           0
     20027 WT9      102      MECN     H12      HGA3     0.090000        1.0080           0
     20028 WT9      102      MECN     H13      HGA3     0.090000        1.0080           0
     20029 WT9      102      MECN     C2       CG1N1    0.360000       12.0110           0
     20030 WT9      102      MECN     N3       NG1T1   -0.460000       14.0070           0
     20031 WT9      103      MECN     C1       CG331   -0.170000       12.0110           0
     20032 WT9      103      MECN     H11      HGA3     0.090000        1.0080           0
     20033 WT9      103      MECN     H12      HGA3     0.090000        1.0080           0
     20034 WT9      103      MECN     H13      HGA3     0.090000        1.0080           0
     20035 WT9      103      MECN     C2       CG1N1    0.360000       12.0110           0
     20036 WT9      103      MECN     N3       NG1T1   -0.460000       14.0070           0
     20037 WT9      114      MECN     C1       CG331   -0.170000       12.0110           0
     20038 WT9      114      MECN     H11      HGA3     0.090000        1.0080           0
     20039 WT9      114      MECN     H12      HGA3     0.090000        1.0080           0
     20040 WT9      114      MECN     H13      HGA3     0.090000        1.0080           0
     20041 WT9      114      MECN     C2       CG1N1    0.360000       12.0110           0
     20042 WT9      114      MECN     N3       NG1T1   -0.460000       14.0070           0
     20043 WT9      116      MECN     C1       CG331   -0.170000       12.0110           0
     20044 WT9      116      MECN     H11      HGA3     0.090000        1.0080           0
     20045 WT9      116      MECN     H12      HGA3     0.090000        1.0080           0
     20046 WT9      116      MECN     H13      HGA3     0.090000        1.0080           0
     20047 WT9      116      MECN     C2       CG1N1    0.360000       12.0110           0
     20048 WT9      116      MECN     N3       NG1T1   -0.460000       14.0070           0
     20049 WT9      128      MECN     C1       CG331   -0.170000       12.0110           0
     20050 WT9      128      MECN     H11      HGA3     0.090000        1.0080           0
     20051 WT9      128      MECN     H12      HGA3     0.090000        1.0080           0
     20052 WT9      128      MECN     H13      HGA3     0.090000        1.0080           0
     20053 WT9      128      MECN     C2       CG1N1    0.360000       12.0110           0
     20054 WT9      128      MECN     N3       NG1T1   -0.460000       14.0070           0
     20055 WT9      132      MECN     C1       CG331   -0.170000       12.0110           0
     20056 WT9      132      MECN     H11      HGA3     0.090000        1.0080           0
     20057 WT9      132      MECN     H12      HGA3     0.090000        1.0080           0
     20058 WT9      132      MECN     H13      HGA3     0.090000        1.0080           0
     20059 WT9      132      MECN     C2       CG1N1    0.360000       12.0110           0
     20060 WT9      132      MECN     N3       NG1T1   -0.460000       14.0070           0
     20061 WT9      139      MECN     C1       CG331   -0.170000       12.0110           0
     20062 WT9      139      MECN     H11      HGA3     0.090000        1.0080           0
     20063 WT9      139      MECN     H12      HGA3     0.090000        1.0080           0
     20064 WT9      139      MECN     H13      HGA3     0.090000        1.0080           0
     20065 WT9      139      MECN     C2       CG1N1    0.360000       12.0110           0
     20066 WT9      139      MECN     N3       NG1T1   -0.460000       14.0070           0
     20067 WT9      140      MECN     C1       CG331   -0.170000       12.0110           0
     20068 WT9      140      MECN     H11      HGA3     0.090000        1.0080           0
     20069 WT9      140      MECN     H12      HGA3     0.090000        1.0080           0
     20070 WT9      140      MECN     H13      HGA3     0.090000        1.0080           0
     20071 WT9      140      MECN     C2       CG1N1    0.360000       12.0110           0
     20072 WT9      140      MECN     N3       NG1T1   -0.460000       14.0070           0
     20073 WT9      155      MECN     C1       CG331   -0.170000       12.0110           0
     20074 WT9      155      MECN     H11      HGA3     0.090000        1.0080           0
     20075 WT9      155      MECN     H12      HGA3     0.090000        1.0080           0
     20076 WT9      155      MECN     H13      HGA3     0.090000        1.0080           0
     20077 WT9      155      MECN     C2       CG1N1    0.360000       12.0110           0
     20078 WT9      155      MECN     N3       NG1T1   -0.460000       14.0070           0
     20079 WT9      156      MECN     C1       CG331   -0.170000       12.0110           0
     20080 WT9      156      MECN     H11      HGA3     0.090000        1.0080           0
     20081 WT9      156      MECN     H12      HGA3     0.090000        1.0080           0
     20082 WT9      156      MECN     H13      HGA3     0.090000        1.0080           0
     20083 WT9      156      MECN     C2       CG1N1    0.360000       12.0110           0
     20084 WT9      156      MECN     N3       NG1T1   -0.460000       14.0070           0
     20085 WT9      157      MECN     C1       CG331   -0.170000       12.0110           0
     20086 WT9      157      MECN     H11      HGA3     0.090000        1.0080           0
     20087 WT9      157      MECN     H12      HGA3     0.090000        1.0080           0
     20088 WT9      157      MECN     H13      HGA3     0.090000        1.0080           0
     20089 WT9      157      MECN     C2       CG1N1    0.360000       12.0110           0
     20090 WT9      157      MECN     N3       NG1T1   -0.460000       14.0070           0
     20091 WT9      158      MECN     C1       CG331   -0.170000       12.0110           0
     20092 WT9      158      MECN     H11      HGA3     0.090000        1.0080           0
     20093 WT9      158      MECN     H12      HGA3     0.090000        1.0080           0
     20094 WT9      158      MECN     H13      HGA3     0.090000        1.0080           0
     20095 WT9      158      MECN     C2       CG1N1    0.360000       12.0110           0
     20096 WT9      158      MECN     N3       NG1T1   -0.460000       14.0070           0
     20097 WT9      160      MECN     C1       CG331   -0.170000       12.0110           0
     20098 WT9      160      MECN     H11      HGA3     0.090000        1.0080           0
     20099 WT9      160      MECN     H12      HGA3     0.090000        1.0080           0
     20100 WT9      160      MECN     H13      HGA3     0.090000        1.0080           0
     20101 WT9      160      MECN     C2       CG1N1    0.360000       12.0110           0
     20102 WT9      160      MECN     N3       NG1T1   -0.460000       14.0070           0
     20103 WT9      161      MECN     C1       CG331   -0.170000       12.0110           0
     20104 WT9      161      MECN     H11      HGA3     0.090000        1.0080           0
     20105 WT9      161      MECN     H12      HGA3     0.090000        1.0080           0
     20106 WT9      161      MECN     H13      HGA3     0.090000        1.0080           0
     20107 WT9      161      MECN     C2       CG1N1    0.360000       12.0110           0
     20108 WT9      161      MECN     N3       NG1T1   -0.460000       14.0070           0
     20109 WT9      167      MECN     C1       CG331   -0.170000       12.0110           0
     20110 WT9      167      MECN     H11      HGA3     0.090000        1.0080           0
     20111 WT9      167      MECN     H12      HGA3     0.090000        1.0080           0
     20112 WT9      167      MECN     H13      HGA3     0.090000        1.0080           0
     20113 WT9      167      MECN     C2       CG1N1    0.360000       12.0110           0
     20114 WT9      167      MECN     N3       NG1T1   -0.460000       14.0070           0
     20115 WT9      169      MECN     C1       CG331   -0.170000       12.0110           0
     20116 WT9      169      MECN     H11      HGA3     0.090000        1.0080           0
     20117 WT9      169      MECN     H12      HGA3     0.090000        1.0080           0
     20118 WT9      169      MECN     H13      HGA3     0.090000        1.0080           0
     20119 WT9      169      MECN     C2       CG1N1    0.360000       12.0110           0
     20120 WT9      169      MECN     N3       NG1T1   -0.460000       14.0070           0
     20121 WT9      170      MECN     C1       CG331   -0.170000       12.0110           0
     20122 WT9      170      MECN     H11      HGA3     0.090000        1.0080           0
     20123 WT9      170      MECN     H12      HGA3     0.090000        1.0080           0
     20124 WT9      170      MECN     H13      HGA3     0.090000        1.0080           0
     20125 WT9      170      MECN     C2       CG1N1    0.360000       12.0110           0
     20126 WT9      170      MECN     N3       NG1T1   -0.460000       14.0070           0
     20127 WT9      172      MECN     C1       CG331   -0.170000       12.0110           0
     20128 WT9      172      MECN     H11      HGA3     0.090000        1.0080           0
     20129 WT9      172      MECN     H12      HGA3     0.090000        1.0080           0
     20130 WT9      172      MECN     H13      HGA3     0.090000        1.0080           0
     20131 WT9      172      MECN     C2       CG1N1    0.360000       12.0110           0
     20132 WT9      172      MECN     N3       NG1T1   -0.460000       14.0070           0
     20133 WT9      176      MECN     C1       CG331   -0.170000       12.0110           0
     20134 WT9      176      MECN     H11      HGA3     0.090000        1.0080           0
     20135 WT9      176      MECN     H12      HGA3     0.090000        1.0080           0
     20136 WT9      176      MECN     H13      HGA3     0.090000        1.0080           0
     20137 WT9      176      MECN     C2       CG1N1    0.360000       12.0110           0
     20138 WT9      176      MECN     N3       NG1T1   -0.460000       14.0070           0
     20139 WT9      177      MECN     C1       CG331   -0.170000       12.0110           0
     20140 WT9      177      MECN     H11      HGA3     0.090000        1.0080           0
     20141 WT9      177      MECN     H12      HGA3     0.090000        1.0080           0
     20142 WT9      177      MECN     H13      HGA3     0.090000        1.0080           0
     20143 WT9      177      MECN     C2       CG1N1    0.360000       12.0110           0
     20144 WT9      177      MECN     N3       NG1T1   -0.460000       14.0070           0
     20145 WT9      180      MECN     C1       CG331   -0.170000       12.0110           0
     20146 WT9      180      MECN     H11      HGA3     0.090000        1.0080           0
     20147 WT9      180      MECN     H12      HGA3     0.090000        1.0080           0
     20148 WT9      180      MECN     H13      HGA3     0.090000        1.0080           0
     20149 WT9      180      MECN     C2       CG1N1    0.360000       12.0110           0
     20150 WT9      180      MECN     N3       NG1T1   -0.460000       14.0070           0
     20151 WT9      183      MECN     C1       CG331   -0.170000       12.0110           0
     20152 WT9      183      MECN     H11      HGA3     0.090000        1.0080           0
     20153 WT9      183      MECN     H12      HGA3     0.090000        1.0080           0
     20154 WT9      183      MECN     H13      HGA3     0.090000        1.0080           0
     20155 WT9      183      MECN     C2       CG1N1    0.360000       12.0110           0
     20156 WT9      183      MECN     N3       NG1T1   -0.460000       14.0070           0
     20157 WT9      187      MECN     C1       CG331   -0.170000       12.0110           0
     20158 WT9      187      MECN     H11      HGA3     0.090000        1.0080           0
     20159 WT9      187      MECN     H12      HGA3     0.090000        1.0080           0
     20160 WT9      187      MECN     H13      HGA3     0.090000        1.0080           0
     20161 WT9      187      MECN     C2       CG1N1    0.360000       12.0110           0
     20162 WT9      187      MECN     N3       NG1T1   -0.460000       14.0070           0
     20163 WT9      188      MECN     C1       CG331   -0.170000       12.0110           0
     20164 WT9      188      MECN     H11      HGA3     0.090000        1.0080           0
     20165 WT9      188      MECN     H12      HGA3     0.090000        1.0080           0
     20166 WT9      188      MECN     H13      HGA3     0.090000        1.0080           0
     20167 WT9      188      MECN     C2       CG1N1    0.360000       12.0110           0
     20168 WT9      188      MECN     N3       NG1T1   -0.460000       14.0070           0
     20169 WT9      193      MECN     C1       CG331   -0.170000       12.0110           0
     20170 WT9      193      MECN     H11      HGA3     0.090000        1.0080           0
     20171 WT9      193      MECN     H12      HGA3     0.090000        1.0080           0
     20172 WT9      193      MECN     H13      HGA3     0.090000        1.0080           0
     20173 WT9      193      MECN     C2       CG1N1    0.360000       12.0110           0
     20174 WT9      193      MECN     N3       NG1T1   -0.460000       14.0070           0
     20175 WT9      195      MECN     C1       CG331   -0.170000       12.0110           0
     20176 WT9      195      MECN     H11      HGA3     0.090000        1.0080           0
     20177 WT9      195      MECN     H12      HGA3     0.090000        1.0080           0
     20178 WT9      195      MECN     H13      HGA3     0.090000        1.0080           0
     20179 WT9      195      MECN     C2       CG1N1    0.360000       12.0110           0
     20180 WT9      195      MECN     N3       NG1T1   -0.460000       14.0070           0
     20181 WT9      206      MECN     C1       CG331   -0.170000       12.0110           0
     20182 WT9      206      MECN     H11      HGA3     0.090000        1.0080           0
     20183 WT9      206      MECN     H12      HGA3     0.090000        1.0080           0
     20184 WT9      206      MECN     H13      HGA3     0.090000        1.0080           0
     20185 WT9      206      MECN     C2       CG1N1    0.360000       12.0110           0
     20186 WT9      206      MECN     N3       NG1T1   -0.460000       14.0070           0
     20187 WT9      210      MECN     C1       CG331   -0.170000       12.0110           0
     20188 WT9      210      MECN     H11      HGA3     0.090000        1.0080           0
     20189 WT9      210      MECN     H12      HGA3     0.090000        1.0080           0
     20190 WT9      210      MECN     H13      HGA3     0.090000        1.0080           0
     20191 WT9      210      MECN     C2       CG1N1    0.360000       12.0110           0
     20192 WT9      210      MECN     N3       NG1T1   -0.460000       14.0070           0
     20193 WT9      211      MECN     C1       CG331   -0.170000       12.0110           0
     20194 WT9      211      MECN     H11      HGA3     0.090000        1.0080           0
     20195 WT9      211      MECN     H12      HGA3     0.090000        1.0080           0
     20196 WT9      211      MECN     H13      HGA3     0.090000        1.0080           0
     20197 WT9      211      MECN     C2       CG1N1    0.360000       12.0110           0
     20198 WT9      211      MECN     N3       NG1T1   -0.460000       14.0070           0
     20199 WT9      213      MECN     C1       CG331   -0.170000       12.0110           0
     20200 WT9      213      MECN     H11      HGA3     0.090000        1.0080           0
     20201 WT9      213      MECN     H12      HGA3     0.090000        1.0080           0
     20202 WT9      213      MECN     H13      HGA3     0.090000        1.0080           0
     20203 WT9      213      MECN     C2       CG1N1    0.360000       12.0110           0
     20204 WT9      213      MECN     N3       NG1T1   -0.460000       14.0070           0
     20205 WT9      214      MECN     C1       CG331   -0.170000       12.0110           0
     20206 WT9      214      MECN     H11      HGA3     0.090000        1.0080           0
     20207 WT9      214      MECN     H12      HGA3     0.090000        1.0080           0
     20208 WT9      214      MECN     H13      HGA3     0.090000        1.0080           0
     20209 WT9      214      MECN     C2       CG1N1    0.360000       12.0110           0
     20210 WT9      214      MECN     N3       NG1T1   -0.460000       14.0070           0
     20211 WT9      222      MECN     C1       CG331   -0.170000       12.0110           0
     20212 WT9      222      MECN     H11      HGA3     0.090000        1.0080           0
     20213 WT9      222      MECN     H12      HGA3     0.090000        1.0080           0
     20214 WT9      222      MECN     H13      HGA3     0.090000        1.0080           0
     20215 WT9      222      MECN     C2       CG1N1    0.360000       12.0110           0
     20216 WT9      222      MECN     N3       NG1T1   -0.460000       14.0070           0
     20217 WT9      225      MECN     C1       CG331   -0.170000       12.0110           0
     20218 WT9      225      MECN     H11      HGA3     0.090000        1.0080           0
     20219 WT9      225      MECN     H12      HGA3     0.090000        1.0080           0
     20220 WT9      225      MECN     H13      HGA3     0.090000        1.0080           0
     20221 WT9      225      MECN     C2       CG1N1    0.360000       12.0110           0
     20222 WT9      225      MECN     N3       NG1T1   -0.460000       14.0070           0
     20223 WT9      226      MECN     C1       CG331   -0.170000       12.0110           0
     20224 WT9      226      MECN     H11      HGA3     0.090000        1.0080           0
     20225 WT9      226      MECN     H12      HGA3     0.090000        1.0080           0
     20226 WT9      226      MECN     H13      HGA3     0.090000        1.0080           0
     20227 WT9      226      MECN     C2       CG1N1    0.360000       12.0110           0
     20228 WT9      226      MECN     N3       NG1T1   -0.460000       14.0070           0
     20229 WT9      227      MECN     C1       CG331   -0.170000       12.0110           0
     20230 WT9      227      MECN     H11      HGA3     0.090000        1.0080           0
     20231 WT9      227      MECN     H12      HGA3     0.090000        1.0080           0
     20232 WT9      227      MECN     H13      HGA3     0.090000        1.0080           0
     20233 WT9      227      MECN     C2       CG1N1    0.360000       12.0110           0
     20234 WT9      227      MECN     N3       NG1T1   -0.460000       14.0070           0
     20235 WT9      228      MECN     C1       CG331   -0.170000       12.0110           0
     20236 WT9      228      MECN     H11      HGA3     0.090000        1.0080           0
     20237 WT9      228      MECN     H12      HGA3     0.090000        1.0080           0
     20238 WT9      228      MECN     H13      HGA3     0.090000        1.0080           0
     20239 WT9      228      MECN     C2       CG1N1    0.360000       12.0110           0
     20240 WT9      228      MECN     N3       NG1T1   -0.460000       14.0070           0
     20241 WT9      234      MECN     C1       CG331   -0.170000       12.0110           0
     20242 WT9      234      MECN     H11      HGA3     0.090000        1.0080           0
     20243 WT9      234      MECN     H12      HGA3     0.090000        1.0080           0
     20244 WT9      234      MECN     H13      HGA3     0.090000        1.0080           0
     20245 WT9      234      MECN     C2       CG1N1    0.360000       12.0110           0
     20246 WT9      234      MECN     N3       NG1T1   -0.460000       14.0070           0
     20247 WT9      237      MECN     C1       CG331   -0.170000       12.0110           0
     20248 WT9      237      MECN     H11      HGA3     0.090000        1.0080           0
     20249 WT9      237      MECN     H12      HGA3     0.090000        1.0080           0
     20250 WT9      237      MECN     H13      HGA3     0.090000        1.0080           0
     20251 WT9      237      MECN     C2       CG1N1    0.360000       12.0110           0
     20252 WT9      237      MECN     N3       NG1T1   -0.460000       14.0070           0
     20253 WT9      239      MECN     C1       CG331   -0.170000       12.0110           0
     20254 WT9      239      MECN     H11      HGA3     0.090000        1.0080           0
     20255 WT9      239      MECN     H12      HGA3     0.090000        1.0080           0
     20256 WT9      239      MECN     H13      HGA3     0.090000        1.0080           0
     20257 WT9      239      MECN     C2       CG1N1    0.360000       12.0110           0
     20258 WT9      239      MECN     N3       NG1T1   -0.460000       14.0070           0
     20259 WT9      240      MECN     C1       CG331   -0.170000       12.0110           0
     20260 WT9      240      MECN     H11      HGA3     0.090000        1.0080           0
     20261 WT9      240      MECN     H12      HGA3     0.090000        1.0080           0
     20262 WT9      240      MECN     H13      HGA3     0.090000        1.0080           0
     20263 WT9      240      MECN     C2       CG1N1    0.360000       12.0110           0
     20264 WT9      240      MECN     N3       NG1T1   -0.460000       14.0070           0
     20265 WT9      242      MECN     C1       CG331   -0.170000       12.0110           0
     20266 WT9      242      MECN     H11      HGA3     0.090000        1.0080           0
     20267 WT9      242      MECN     H12      HGA3     0.090000        1.0080           0
     20268 WT9      242      MECN     H13      HGA3     0.090000        1.0080           0
     20269 WT9      242      MECN     C2       CG1N1    0.360000       12.0110           0
     20270 WT9      242      MECN     N3       NG1T1   -0.460000       14.0070           0
     20271 WT9      249      MECN     C1       CG331   -0.170000       12.0110           0
     20272 WT9      249      MECN     H11      HGA3     0.090000        1.0080           0
     20273 WT9      249      MECN     H12      HGA3     0.090000        1.0080           0
     20274 WT9      249      MECN     H13      HGA3     0.090000        1.0080           0
     20275 WT9      249      MECN     C2       CG1N1    0.360000       12.0110           0
     20276 WT9      249      MECN     N3       NG1T1   -0.460000       14.0070           0
     20277 WT9      250      MECN     C1       CG331   -0.170000       12.0110           0
     20278 WT9      250      MECN     H11      HGA3     0.090000        1.0080           0
     20279 WT9      250      MECN     H12      HGA3     0.090000        1.0080           0
     20280 WT9      250      MECN     H13      HGA3     0.090000        1.0080           0
     20281 WT9      250      MECN     C2       CG1N1    0.360000       12.0110           0
     20282 WT9      250      MECN     N3       NG1T1   -0.460000       14.0070           0
     20283 WT9      254      MECN     C1       CG331   -0.170000       12.0110           0
     20284 WT9      254      MECN     H11      HGA3     0.090000        1.0080           0
     20285 WT9      254      MECN     H12      HGA3     0.090000        1.0080           0
     20286 WT9      254      MECN     H13      HGA3     0.090000        1.0080           0
     20287 WT9      254      MECN     C2       CG1N1    0.360000       12.0110           0
     20288 WT9      254      MECN     N3       NG1T1   -0.460000       14.0070           0
     20289 WT9      259      MECN     C1       CG331   -0.170000       12.0110           0
     20290 WT9      259      MECN     H11      HGA3     0.090000        1.0080           0
     20291 WT9      259      MECN     H12      HGA3     0.090000        1.0080           0
     20292 WT9      259      MECN     H13      HGA3     0.090000        1.0080           0
     20293 WT9      259      MECN     C2       CG1N1    0.360000       12.0110           0
     20294 WT9      259      MECN     N3       NG1T1   -0.460000       14.0070           0
     20295 WT9      261      MECN     C1       CG331   -0.170000       12.0110           0
     20296 WT9      261      MECN     H11      HGA3     0.090000        1.0080           0
     20297 WT9      261      MECN     H12      HGA3     0.090000        1.0080           0
     20298 WT9      261      MECN     H13      HGA3     0.090000        1.0080           0
     20299 WT9      261      MECN     C2       CG1N1    0.360000       12.0110           0
     20300 WT9      261      MECN     N3       NG1T1   -0.460000       14.0070           0
     20301 WT9      268      MECN     C1       CG331   -0.170000       12.0110           0
     20302 WT9      268      MECN     H11      HGA3     0.090000        1.0080           0
     20303 WT9      268      MECN     H12      HGA3     0.090000        1.0080           0
     20304 WT9      268      MECN     H13      HGA3     0.090000        1.0080           0
     20305 WT9      268      MECN     C2       CG1N1    0.360000       12.0110           0
     20306 WT9      268      MECN     N3       NG1T1   -0.460000       14.0070           0
     20307 WT9      269      MECN     C1       CG331   -0.170000       12.0110           0
     20308 WT9      269      MECN     H11      HGA3     0.090000        1.0080           0
     20309 WT9      269      MECN     H12      HGA3     0.090000        1.0080           0
     20310 WT9      269      MECN     H13      HGA3     0.090000        1.0080           0
     20311 WT9      269      MECN     C2       CG1N1    0.360000       12.0110           0
     20312 WT9      269      MECN     N3       NG1T1   -0.460000       14.0070           0
     20313 WT9      277      MECN     C1       CG331   -0.170000       12.0110           0
     20314 WT9      277      MECN     H11      HGA3     0.090000        1.0080           0
     20315 WT9      277      MECN     H12      HGA3     0.090000        1.0080           0
     20316 WT9      277      MECN     H13      HGA3     0.090000        1.0080           0
     20317 WT9      277      MECN     C2       CG1N1    0.360000       12.0110           0
     20318 WT9      277      MECN     N3       NG1T1   -0.460000       14.0070           0
     20319 WT9      282      MECN     C1       CG331   -0.170000       12.0110           0
     20320 WT9      282      MECN     H11      HGA3     0.090000        1.0080           0
     20321 WT9      282      MECN     H12      HGA3     0.090000        1.0080           0
     20322 WT9      282      MECN     H13      HGA3     0.090000        1.0080           0
     20323 WT9      282      MECN     C2       CG1N1    0.360000       12.0110           0
     20324 WT9      282      MECN     N3       NG1T1   -0.460000       14.0070           0
     20325 WT9      284      MECN     C1       CG331   -0.170000       12.0110           0
     20326 WT9      284      MECN     H11      HGA3     0.090000        1.0080           0
     20327 WT9      284      MECN     H12      HGA3     0.090000        1.0080           0
     20328 WT9      284      MECN     H13      HGA3     0.090000        1.0080           0
     20329 WT9      284      MECN     C2       CG1N1    0.360000       12.0110           0
     20330 WT9      284      MECN     N3       NG1T1   -0.460000       14.0070           0
     20331 WT9      291      MECN     C1       CG331   -0.170000       12.0110           0
     20332 WT9      291      MECN     H11      HGA3     0.090000        1.0080           0
     20333 WT9      291      MECN     H12      HGA3     0.090000        1.0080           0
     20334 WT9      291      MECN     H13      HGA3     0.090000        1.0080           0
     20335 WT9      291      MECN     C2       CG1N1    0.360000       12.0110           0
     20336 WT9      291      MECN     N3       NG1T1   -0.460000       14.0070           0
     20337 WT9      293      MECN     C1       CG331   -0.170000       12.0110           0
     20338 WT9      293      MECN     H11      HGA3     0.090000        1.0080           0
     20339 WT9      293      MECN     H12      HGA3     0.090000        1.0080           0
     20340 WT9      293      MECN     H13      HGA3     0.090000        1.0080           0
     20341 WT9      293      MECN     C2       CG1N1    0.360000       12.0110           0
     20342 WT9      293      MECN     N3       NG1T1   -0.460000       14.0070           0
     20343 WT9      302      MECN     C1       CG331   -0.170000       12.0110           0
     20344 WT9      302      MECN     H11      HGA3     0.090000        1.0080           0
     20345 WT9      302      MECN     H12      HGA3     0.090000        1.0080           0
     20346 WT9      302      MECN     H13      HGA3     0.090000        1.0080           0
     20347 WT9      302      MECN     C2       CG1N1    0.360000       12.0110           0
     20348 WT9      302      MECN     N3       NG1T1   -0.460000       14.0070           0
     20349 WT9      303      MECN     C1       CG331   -0.170000       12.0110           0
     20350 WT9      303      MECN     H11      HGA3     0.090000        1.0080           0
     20351 WT9      303      MECN     H12      HGA3     0.090000        1.0080           0
     20352 WT9      303      MECN     H13      HGA3     0.090000        1.0080           0
     20353 WT9      303      MECN     C2       CG1N1    0.360000       12.0110           0
     20354 WT9      303      MECN     N3       NG1T1   -0.460000       14.0070           0
     20355 WT9      308      MECN     C1       CG331   -0.170000       12.0110           0
     20356 WT9      308      MECN     H11      HGA3     0.090000        1.0080           0
     20357 WT9      308      MECN     H12      HGA3     0.090000        1.0080           0
     20358 WT9      308      MECN     H13      HGA3     0.090000        1.0080           0
     20359 WT9      308      MECN     C2       CG1N1    0.360000       12.0110           0
     20360 WT9      308      MECN     N3       NG1T1   -0.460000       14.0070           0
     20361 WT9      320      MECN     C1       CG331   -0.170000       12.0110           0
     20362 WT9      320      MECN     H11      HGA3     0.090000        1.0080           0
     20363 WT9      320      MECN     H12      HGA3     0.090000        1.0080           0
     20364 WT9      320      MECN     H13      HGA3     0.090000        1.0080           0
     20365 WT9      320      MECN     C2       CG1N1    0.360000       12.0110           0
     20366 WT9      320      MECN     N3       NG1T1   -0.460000       14.0070           0
     20367 WT9      321      MECN     C1       CG331   -0.170000       12.0110           0
     20368 WT9      321      MECN     H11      HGA3     0.090000        1.0080           0
     20369 WT9      321      MECN     H12      HGA3     0.090000        1.0080           0
     20370 WT9      321      MECN     H13      HGA3     0.090000        1.0080           0
     20371 WT9      321      MECN     C2       CG1N1    0.360000       12.0110           0
     20372 WT9      321      MECN     N3       NG1T1   -0.460000       14.0070           0
     20373 WT9      323      MECN     C1       CG331   -0.170000       12.0110           0
     20374 WT9      323      MECN     H11      HGA3     0.090000        1.0080           0
     20375 WT9      323      MECN     H12      HGA3     0.090000        1.0080           0
     20376 WT9      323      MECN     H13      HGA3     0.090000        1.0080           0
     20377 WT9      323      MECN     C2       CG1N1    0.360000       12.0110           0
     20378 WT9      323      MECN     N3       NG1T1   -0.460000       14.0070           0
     20379 WT9      324      MECN     C1       CG331   -0.170000       12.0110           0
     20380 WT9      324      MECN     H11      HGA3     0.090000        1.0080           0
     20381 WT9      324      MECN     H12      HGA3     0.090000        1.0080           0
     20382 WT9      324      MECN     H13      HGA3     0.090000        1.0080           0
     20383 WT9      324      MECN     C2       CG1N1    0.360000       12.0110           0
     20384 WT9      324      MECN     N3       NG1T1   -0.460000       14.0070           0
     20385 WT9      326      MECN     C1       CG331   -0.170000       12.0110           0
     20386 WT9      326      MECN     H11      HGA3     0.090000        1.0080           0
     20387 WT9      326      MECN     H12      HGA3     0.090000        1.0080           0
     20388 WT9      326      MECN     H13      HGA3     0.090000        1.0080           0
     20389 WT9      326      MECN     C2       CG1N1    0.360000       12.0110           0
     20390 WT9      326      MECN     N3       NG1T1   -0.460000       14.0070           0
     20391 WT9      329      MECN     C1       CG331   -0.170000       12.0110           0
     20392 WT9      329      MECN     H11      HGA3     0.090000        1.0080           0
     20393 WT9      329      MECN     H12      HGA3     0.090000        1.0080           0
     20394 WT9      329      MECN     H13      HGA3     0.090000        1.0080           0
     20395 WT9      329      MECN     C2       CG1N1    0.360000       12.0110           0
     20396 WT9      329      MECN     N3       NG1T1   -0.460000       14.0070           0
     20397 WT9      331      MECN     C1       CG331   -0.170000       12.0110           0
     20398 WT9      331      MECN     H11      HGA3     0.090000        1.0080           0
     20399 WT9      331      MECN     H12      HGA3     0.090000        1.0080           0
     20400 WT9      331      MECN     H13      HGA3     0.090000        1.0080           0
     20401 WT9      331      MECN     C2       CG1N1    0.360000       12.0110           0
     20402 WT9      331      MECN     N3       NG1T1   -0.460000       14.0070           0
     20403 WT9      348      MECN     C1       CG331   -0.170000       12.0110           0
     20404 WT9      348      MECN     H11      HGA3     0.090000        1.0080           0
     20405 WT9      348      MECN     H12      HGA3     0.090000        1.0080           0
     20406 WT9      348      MECN     H13      HGA3     0.090000        1.0080           0
     20407 WT9      348      MECN     C2       CG1N1    0.360000       12.0110           0
     20408 WT9      348      MECN     N3       NG1T1   -0.460000       14.0070           0
     20409 WT9      350      MECN     C1       CG331   -0.170000       12.0110           0
     20410 WT9      350      MECN     H11      HGA3     0.090000        1.0080           0
     20411 WT9      350      MECN     H12      HGA3     0.090000        1.0080           0
     20412 WT9      350      MECN     H13      HGA3     0.090000        1.0080           0
     20413 WT9      350      MECN     C2       CG1N1    0.360000       12.0110           0
     20414 WT9      350      MECN     N3       NG1T1   -0.460000       14.0070           0
     20415 WT9      354      MECN     C1       CG331   -0.170000       12.0110           0
     20416 WT9      354      MECN     H11      HGA3     0.090000        1.0080           0
     20417 WT9      354      MECN     H12      HGA3     0.090000        1.0080           0
     20418 WT9      354      MECN     H13      HGA3     0.090000        1.0080           0
     20419 WT9      354      MECN     C2       CG1N1    0.360000       12.0110           0
     20420 WT9      354      MECN     N3       NG1T1   -0.460000       14.0070           0
     20421 WT9      355      MECN     C1       CG331   -0.170000       12.0110           0
     20422 WT9      355      MECN     H11      HGA3     0.090000        1.0080           0
     20423 WT9      355      MECN     H12      HGA3     0.090000        1.0080           0
     20424 WT9      355      MECN     H13      HGA3     0.090000        1.0080           0
     20425 WT9      355      MECN     C2       CG1N1    0.360000       12.0110           0
     20426 WT9      355      MECN     N3       NG1T1   -0.460000       14.0070           0
     20427 WT9      356      MECN     C1       CG331   -0.170000       12.0110           0
     20428 WT9      356      MECN     H11      HGA3     0.090000        1.0080           0
     20429 WT9      356      MECN     H12      HGA3     0.090000        1.0080           0
     20430 WT9      356      MECN     H13      HGA3     0.090000        1.0080           0
     20431 WT9      356      MECN     C2       CG1N1    0.360000       12.0110           0
     20432 WT9      356      MECN     N3       NG1T1   -0.460000       14.0070           0
     20433 WT9      357      MECN     C1       CG331   -0.170000       12.0110           0
     20434 WT9      357      MECN     H11      HGA3     0.090000        1.0080           0
     20435 WT9      357      MECN     H12      HGA3     0.090000        1.0080           0
     20436 WT9      357      MECN     H13      HGA3     0.090000        1.0080           0
     20437 WT9      357      MECN     C2       CG1N1    0.360000       12.0110           0
     20438 WT9      357      MECN     N3       NG1T1   -0.460000       14.0070           0
     20439 WT9      363      MECN     C1       CG331   -0.170000       12.0110           0
     20440 WT9      363      MECN     H11      HGA3     0.090000        1.0080           0
     20441 WT9      363      MECN     H12      HGA3     0.090000        1.0080           0
     20442 WT9      363      MECN     H13      HGA3     0.090000        1.0080           0
     20443 WT9      363      MECN     C2       CG1N1    0.360000       12.0110           0
     20444 WT9      363      MECN     N3       NG1T1   -0.460000       14.0070           0
     20445 WT9      365      MECN     C1       CG331   -0.170000       12.0110           0
     20446 WT9      365      MECN     H11      HGA3     0.090000        1.0080           0
     20447 WT9      365      MECN     H12      HGA3     0.090000        1.0080           0
     20448 WT9      365      MECN     H13      HGA3     0.090000        1.0080           0
     20449 WT9      365      MECN     C2       CG1N1    0.360000       12.0110           0
     20450 WT9      365      MECN     N3       NG1T1   -0.460000       14.0070           0
     20451 WT9      368      MECN     C1       CG331   -0.170000       12.0110           0
     20452 WT9      368      MECN     H11      HGA3     0.090000        1.0080           0
     20453 WT9      368      MECN     H12      HGA3     0.090000        1.0080           0
     20454 WT9      368      MECN     H13      HGA3     0.090000        1.0080           0
     20455 WT9      368      MECN     C2       CG1N1    0.360000       12.0110           0
     20456 WT9      368      MECN     N3       NG1T1   -0.460000       14.0070           0
     20457 WT9      370      MECN     C1       CG331   -0.170000       12.0110           0
     20458 WT9      370      MECN     H11      HGA3     0.090000        1.0080           0
     20459 WT9      370      MECN     H12      HGA3     0.090000        1.0080           0
     20460 WT9      370      MECN     H13      HGA3     0.090000        1.0080           0
     20461 WT9      370      MECN     C2       CG1N1    0.360000       12.0110           0
     20462 WT9      370      MECN     N3       NG1T1   -0.460000       14.0070           0
     20463 WT9      371      MECN     C1       CG331   -0.170000       12.0110           0
     20464 WT9      371      MECN     H11      HGA3     0.090000        1.0080           0
     20465 WT9      371      MECN     H12      HGA3     0.090000        1.0080           0
     20466 WT9      371      MECN     H13      HGA3     0.090000        1.0080           0
     20467 WT9      371      MECN     C2       CG1N1    0.360000       12.0110           0
     20468 WT9      371      MECN     N3       NG1T1   -0.460000       14.0070           0
     20469 WT9      372      MECN     C1       CG331   -0.170000       12.0110           0
     20470 WT9      372      MECN     H11      HGA3     0.090000        1.0080           0
     20471 WT9      372      MECN     H12      HGA3     0.090000        1.0080           0
     20472 WT9      372      MECN     H13      HGA3     0.090000        1.0080           0
     20473 WT9      372      MECN     C2       CG1N1    0.360000       12.0110           0
     20474 WT9      372      MECN     N3       NG1T1   -0.460000       14.0070           0
     20475 WT9      379      MECN     C1       CG331   -0.170000       12.0110           0
     20476 WT9      379      MECN     H11      HGA3     0.090000        1.0080           0
     20477 WT9      379      MECN     H12      HGA3     0.090000        1.0080           0
     20478 WT9      379      MECN     H13      HGA3     0.090000        1.0080           0
     20479 WT9      379      MECN     C2       CG1N1    0.360000       12.0110           0
     20480 WT9      379      MECN     N3       NG1T1   -0.460000       14.0070           0
     20481 WT9      382      MECN     C1       CG331   -0.170000       12.0110           0
     20482 WT9      382      MECN     H11      HGA3     0.090000        1.0080           0
     20483 WT9      382      MECN     H12      HGA3     0.090000        1.0080           0
     20484 WT9      382      MECN     H13      HGA3     0.090000        1.0080           0
     20485 WT9      382      MECN     C2       CG1N1    0.360000       12.0110           0
     20486 WT9      382      MECN     N3       NG1T1   -0.460000       14.0070           0
     20487 WT9      390      MECN     C1       CG331   -0.170000       12.0110           0
     20488 WT9      390      MECN     H11      HGA3     0.090000        1.0080           0
     20489 WT9      390      MECN     H12      HGA3     0.090000        1.0080           0
     20490 WT9      390      MECN     H13      HGA3     0.090000        1.0080           0
     20491 WT9      390      MECN     C2       CG1N1    0.360000       12.0110           0
     20492 WT9      390      MECN     N3       NG1T1   -0.460000       14.0070           0
     20493 WT9      396      MECN     C1       CG331   -0.170000       12.0110           0
     20494 WT9      396      MECN     H11      HGA3     0.090000        1.0080           0
     20495 WT9      396      MECN     H12      HGA3     0.090000        1.0080           0
     20496 WT9      396      MECN     H13      HGA3     0.090000        1.0080           0
     20497 WT9      396      MECN     C2       CG1N1    0.360000       12.0110           0
     20498 WT9      396      MECN     N3       NG1T1   -0.460000       14.0070           0
     20499 WT9      397      MECN     C1       CG331   -0.170000       12.0110           0
     20500 WT9      397      MECN     H11      HGA3     0.090000        1.0080           0
     20501 WT9      397      MECN     H12      HGA3     0.090000        1.0080           0
     20502 WT9      397      MECN     H13      HGA3     0.090000        1.0080           0
     20503 WT9      397      MECN     C2       CG1N1    0.360000       12.0110           0
     20504 WT9      397      MECN     N3       NG1T1   -0.460000       14.0070           0
     20505 WT9      398      MECN     C1       CG331   -0.170000       12.0110           0
     20506 WT9      398      MECN     H11      HGA3     0.090000        1.0080           0
     20507 WT9      398      MECN     H12      HGA3     0.090000        1.0080           0
     20508 WT9      398      MECN     H13      HGA3     0.090000        1.0080           0
     20509 WT9      398      MECN     C2       CG1N1    0.360000       12.0110           0
     20510 WT9      398      MECN     N3       NG1T1   -0.460000       14.0070           0
     20511 WT9      399      MECN     C1       CG331   -0.170000       12.0110           0
     20512 WT9      399      MECN     H11      HGA3     0.090000        1.0080           0
     20513 WT9      399      MECN     H12      HGA3     0.090000        1.0080           0
     20514 WT9      399      MECN     H13      HGA3     0.090000        1.0080           0
     20515 WT9      399      MECN     C2       CG1N1    0.360000       12.0110           0
     20516 WT9      399      MECN     N3       NG1T1   -0.460000       14.0070           0
     20517 WT9      407      MECN     C1       CG331   -0.170000       12.0110           0
     20518 WT9      407      MECN     H11      HGA3     0.090000        1.0080           0
     20519 WT9      407      MECN     H12      HGA3     0.090000        1.0080           0
     20520 WT9      407      MECN     H13      HGA3     0.090000        1.0080           0
     20521 WT9      407      MECN     C2       CG1N1    0.360000       12.0110           0
     20522 WT9      407      MECN     N3       NG1T1   -0.460000       14.0070           0
     20523 WT9      411      MECN     C1       CG331   -0.170000       12.0110           0
     20524 WT9      411      MECN     H11      HGA3     0.090000        1.0080           0
     20525 WT9      411      MECN     H12      HGA3     0.090000        1.0080           0
     20526 WT9      411      MECN     H13      HGA3     0.090000        1.0080           0
     20527 WT9      411      MECN     C2       CG1N1    0.360000       12.0110           0
     20528 WT9      411      MECN     N3       NG1T1   -0.460000       14.0070           0
     20529 WT9      415      MECN     C1       CG331   -0.170000       12.0110           0
     20530 WT9      415      MECN     H11      HGA3     0.090000        1.0080           0
     20531 WT9      415      MECN     H12      HGA3     0.090000        1.0080           0
     20532 WT9      415      MECN     H13      HGA3     0.090000        1.0080           0
     20533 WT9      415      MECN     C2       CG1N1    0.360000       12.0110           0
     20534 WT9      415      MECN     N3       NG1T1   -0.460000       14.0070           0
     20535 WT9      416      MECN     C1       CG331   -0.170000       12.0110           0
     20536 WT9      416      MECN     H11      HGA3     0.090000        1.0080           0
     20537 WT9      416      MECN     H12      HGA3     0.090000        1.0080           0
     20538 WT9      416      MECN     H13      HGA3     0.090000        1.0080           0
     20539 WT9      416      MECN     C2       CG1N1    0.360000       12.0110           0
     20540 WT9      416      MECN     N3       NG1T1   -0.460000       14.0070           0
     20541 WT9      419      MECN     C1       CG331   -0.170000       12.0110           0
     20542 WT9      419      MECN     H11      HGA3     0.090000        1.0080           0
     20543 WT9      419      MECN     H12      HGA3     0.090000        1.0080           0
     20544 WT9      419      MECN     H13      HGA3     0.090000        1.0080           0
     20545 WT9      419      MECN     C2       CG1N1    0.360000       12.0110           0
     20546 WT9      419      MECN     N3       NG1T1   -0.460000       14.0070           0
     20547 WT9      424      MECN     C1       CG331   -0.170000       12.0110           0
     20548 WT9      424      MECN     H11      HGA3     0.090000        1.0080           0
     20549 WT9      424      MECN     H12      HGA3     0.090000        1.0080           0
     20550 WT9      424      MECN     H13      HGA3     0.090000        1.0080           0
     20551 WT9      424      MECN     C2       CG1N1    0.360000       12.0110           0
     20552 WT9      424      MECN     N3       NG1T1   -0.460000       14.0070           0
     20553 WT9      425      MECN     C1       CG331   -0.170000       12.0110           0
     20554 WT9      425      MECN     H11      HGA3     0.090000        1.0080           0
     20555 WT9      425      MECN     H12      HGA3     0.090000        1.0080           0
     20556 WT9      425      MECN     H13      HGA3     0.090000        1.0080           0
     20557 WT9      425      MECN     C2       CG1N1    0.360000       12.0110           0
     20558 WT9      425      MECN     N3       NG1T1   -0.460000       14.0070           0
     20559 WT9      428      MECN     C1       CG331   -0.170000       12.0110           0
     20560 WT9      428      MECN     H11      HGA3     0.090000        1.0080           0
     20561 WT9      428      MECN     H12      HGA3     0.090000        1.0080           0
     20562 WT9      428      MECN     H13      HGA3     0.090000        1.0080           0
     20563 WT9      428      MECN     C2       CG1N1    0.360000       12.0110           0
     20564 WT9      428      MECN     N3       NG1T1   -0.460000       14.0070           0
     20565 WT9      430      MECN     C1       CG331   -0.170000       12.0110           0
     20566 WT9      430      MECN     H11      HGA3     0.090000        1.0080           0
     20567 WT9      430      MECN     H12      HGA3     0.090000        1.0080           0
     20568 WT9      430      MECN     H13      HGA3     0.090000        1.0080           0
     20569 WT9      430      MECN     C2       CG1N1    0.360000       12.0110           0
     20570 WT9      430      MECN     N3       NG1T1   -0.460000       14.0070           0
     20571 WT9      439      MECN     C1       CG331   -0.170000       12.0110           0
     20572 WT9      439      MECN     H11      HGA3     0.090000        1.0080           0
     20573 WT9      439      MECN     H12      HGA3     0.090000        1.0080           0
     20574 WT9      439      MECN     H13      HGA3     0.090000        1.0080           0
     20575 WT9      439      MECN     C2       CG1N1    0.360000       12.0110           0
     20576 WT9      439      MECN     N3       NG1T1   -0.460000       14.0070           0
     20577 WT9      444      MECN     C1       CG331   -0.170000       12.0110           0
     20578 WT9      444      MECN     H11      HGA3     0.090000        1.0080           0
     20579 WT9      444      MECN     H12      HGA3     0.090000        1.0080           0
     20580 WT9      444      MECN     H13      HGA3     0.090000        1.0080           0
     20581 WT9      444      MECN     C2       CG1N1    0.360000       12.0110           0
     20582 WT9      444      MECN     N3       NG1T1   -0.460000       14.0070           0
     20583 WT9      447      MECN     C1       CG331   -0.170000       12.0110           0
     20584 WT9      447      MECN     H11      HGA3     0.090000        1.0080           0
     20585 WT9      447      MECN     H12      HGA3     0.090000        1.0080           0
     20586 WT9      447      MECN     H13      HGA3     0.090000        1.0080           0
     20587 WT9      447      MECN     C2       CG1N1    0.360000       12.0110           0
     20588 WT9      447      MECN     N3       NG1T1   -0.460000       14.0070           0
     20589 WT9      459      MECN     C1       CG331   -0.170000       12.0110           0
     20590 WT9      459      MECN     H11      HGA3     0.090000        1.0080           0
     20591 WT9      459      MECN     H12      HGA3     0.090000        1.0080           0
     20592 WT9      459      MECN     H13      HGA3     0.090000        1.0080           0
     20593 WT9      459      MECN     C2       CG1N1    0.360000       12.0110           0
     20594 WT9      459      MECN     N3       NG1T1   -0.460000       14.0070           0
     20595 WT9      460      MECN     C1       CG331   -0.170000       12.0110           0
     20596 WT9      460      MECN     H11      HGA3     0.090000        1.0080           0
     20597 WT9      460      MECN     H12      HGA3     0.090000        1.0080           0
     20598 WT9      460      MECN     H13      HGA3     0.090000        1.0080           0
     20599 WT9      460      MECN     C2       CG1N1    0.360000       12.0110           0
     20600 WT9      460      MECN     N3       NG1T1   -0.460000       14.0070           0
     20601 WT9      463      MECN     C1       CG331   -0.170000       12.0110           0
     20602 WT9      463      MECN     H11      HGA3     0.090000        1.0080           0
     20603 WT9      463      MECN     H12      HGA3     0.090000        1.0080           0
     20604 WT9      463      MECN     H13      HGA3     0.090000        1.0080           0
     20605 WT9      463      MECN     C2       CG1N1    0.360000       12.0110           0
     20606 WT9      463      MECN     N3       NG1T1   -0.460000       14.0070           0
     20607 WT9      473      MECN     C1       CG331   -0.170000       12.0110           0
     20608 WT9      473      MECN     H11      HGA3     0.090000        1.0080           0
     20609 WT9      473      MECN     H12      HGA3     0.090000        1.0080           0
     20610 WT9      473      MECN     H13      HGA3     0.090000        1.0080           0
     20611 WT9      473      MECN     C2       CG1N1    0.360000       12.0110           0
     20612 WT9      473      MECN     N3       NG1T1   -0.460000       14.0070           0
     20613 WT9      484      MECN     C1       CG331   -0.170000       12.0110           0
     20614 WT9      484      MECN     H11      HGA3     0.090000        1.0080           0
     20615 WT9      484      MECN     H12      HGA3     0.090000        1.0080           0
     20616 WT9      484      MECN     H13      HGA3     0.090000        1.0080           0
     20617 WT9      484      MECN     C2       CG1N1    0.360000       12.0110           0
     20618 WT9      484      MECN     N3       NG1T1   -0.460000       14.0070           0
     20619 WT9      487      MECN     C1       CG331   -0.170000       12.0110           0
     20620 WT9      487      MECN     H11      HGA3     0.090000        1.0080           0
     20621 WT9      487      MECN     H12      HGA3     0.090000        1.0080           0
     20622 WT9      487      MECN     H13      HGA3     0.090000        1.0080           0
     20623 WT9      487      MECN     C2       CG1N1    0.360000       12.0110           0
     20624 WT9      487      MECN     N3       NG1T1   -0.460000       14.0070           0
     20625 WT9      500      MECN     C1       CG331   -0.170000       12.0110           0
     20626 WT9      500      MECN     H11      HGA3     0.090000        1.0080           0
     20627 WT9      500      MECN     H12      HGA3     0.090000        1.0080           0
     20628 WT9      500      MECN     H13      HGA3     0.090000        1.0080           0
     20629 WT9      500      MECN     C2       CG1N1    0.360000       12.0110           0
     20630 WT9      500      MECN     N3       NG1T1   -0.460000       14.0070           0
     20631 WT9      508      MECN     C1       CG331   -0.170000       12.0110           0
     20632 WT9      508      MECN     H11      HGA3     0.090000        1.0080           0
     20633 WT9      508      MECN     H12      HGA3     0.090000        1.0080           0
     20634 WT9      508      MECN     H13      HGA3     0.090000        1.0080           0
     20635 WT9      508      MECN     C2       CG1N1    0.360000       12.0110           0
     20636 WT9      508      MECN     N3       NG1T1   -0.460000       14.0070           0
     20637 WT9      512      MECN     C1       CG331   -0.170000       12.0110           0
     20638 WT9      512      MECN     H11      HGA3     0.090000        1.0080           0
     20639 WT9      512      MECN     H12      HGA3     0.090000        1.0080           0
     20640 WT9      512      MECN     H13      HGA3     0.090000        1.0080           0
     20641 WT9      512      MECN     C2       CG1N1    0.360000       12.0110           0
     20642 WT9      512      MECN     N3       NG1T1   -0.460000       14.0070           0
     20643 WT9      513      MECN     C1       CG331   -0.170000       12.0110           0
     20644 WT9      513      MECN     H11      HGA3     0.090000        1.0080           0
     20645 WT9      513      MECN     H12      HGA3     0.090000        1.0080           0
     20646 WT9      513      MECN     H13      HGA3     0.090000        1.0080           0
     20647 WT9      513      MECN     C2       CG1N1    0.360000       12.0110           0
     20648 WT9      513      MECN     N3       NG1T1   -0.460000       14.0070           0
     20649 WT9      518      MECN     C1       CG331   -0.170000       12.0110           0
     20650 WT9      518      MECN     H11      HGA3     0.090000        1.0080           0
     20651 WT9      518      MECN     H12      HGA3     0.090000        1.0080           0
     20652 WT9      518      MECN     H13      HGA3     0.090000        1.0080           0
     20653 WT9      518      MECN     C2       CG1N1    0.360000       12.0110           0
     20654 WT9      518      MECN     N3       NG1T1   -0.460000       14.0070           0
     20655 WT9      521      MECN     C1       CG331   -0.170000       12.0110           0
     20656 WT9      521      MECN     H11      HGA3     0.090000        1.0080           0
     20657 WT9      521      MECN     H12      HGA3     0.090000        1.0080           0
     20658 WT9      521      MECN     H13      HGA3     0.090000        1.0080           0
     20659 WT9      521      MECN     C2       CG1N1    0.360000       12.0110           0
     20660 WT9      521      MECN     N3       NG1T1   -0.460000       14.0070           0
     20661 WT9      524      MECN     C1       CG331   -0.170000       12.0110           0
     20662 WT9      524      MECN     H11      HGA3     0.090000        1.0080           0
     20663 WT9      524      MECN     H12      HGA3     0.090000        1.0080           0
     20664 WT9      524      MECN     H13      HGA3     0.090000        1.0080           0
     20665 WT9      524      MECN     C2       CG1N1    0.360000       12.0110           0
     20666 WT9      524      MECN     N3       NG1T1   -0.460000       14.0070           0
     20667 WT9      526      MECN     C1       CG331   -0.170000       12.0110           0
     20668 WT9      526      MECN     H11      HGA3     0.090000        1.0080           0
     20669 WT9      526      MECN     H12      HGA3     0.090000        1.0080           0
     20670 WT9      526      MECN     H13      HGA3     0.090000        1.0080           0
     20671 WT9      526      MECN     C2       CG1N1    0.360000       12.0110           0
     20672 WT9      526      MECN     N3       NG1T1   -0.460000       14.0070           0
     20673 WT9      541      MECN     C1       CG331   -0.170000       12.0110           0
     20674 WT9      541      MECN     H11      HGA3     0.090000        1.0080           0
     20675 WT9      541      MECN     H12      HGA3     0.090000        1.0080           0
     20676 WT9      541      MECN     H13      HGA3     0.090000        1.0080           0
     20677 WT9      541      MECN     C2       CG1N1    0.360000       12.0110           0
     20678 WT9      541      MECN     N3       NG1T1   -0.460000       14.0070           0
     20679 WT9      542      MECN     C1       CG331   -0.170000       12.0110           0
     20680 WT9      542      MECN     H11      HGA3     0.090000        1.0080           0
     20681 WT9      542      MECN     H12      HGA3     0.090000        1.0080           0
     20682 WT9      542      MECN     H13      HGA3     0.090000        1.0080           0
     20683 WT9      542      MECN     C2       CG1N1    0.360000       12.0110           0
     20684 WT9      542      MECN     N3       NG1T1   -0.460000       14.0070           0
     20685 WT9      546      MECN     C1       CG331   -0.170000       12.0110           0
     20686 WT9      546      MECN     H11      HGA3     0.090000        1.0080           0
     20687 WT9      546      MECN     H12      HGA3     0.090000        1.0080           0
     20688 WT9      546      MECN     H13      HGA3     0.090000        1.0080           0
     20689 WT9      546      MECN     C2       CG1N1    0.360000       12.0110           0
     20690 WT9      546      MECN     N3       NG1T1   -0.460000       14.0070           0
     20691 WT9      549      MECN     C1       CG331   -0.170000       12.0110           0
     20692 WT9      549      MECN     H11      HGA3     0.090000        1.0080           0
     20693 WT9      549      MECN     H12      HGA3     0.090000        1.0080           0
     20694 WT9      549      MECN     H13      HGA3     0.090000        1.0080           0
     20695 WT9      549      MECN     C2       CG1N1    0.360000       12.0110           0
     20696 WT9      549      MECN     N3       NG1T1   -0.460000       14.0070           0
     20697 WT9      563      MECN     C1       CG331   -0.170000       12.0110           0
     20698 WT9      563      MECN     H11      HGA3     0.090000        1.0080           0
     20699 WT9      563      MECN     H12      HGA3     0.090000        1.0080           0
     20700 WT9      563      MECN     H13      HGA3     0.090000        1.0080           0
     20701 WT9      563      MECN     C2       CG1N1    0.360000       12.0110           0
     20702 WT9      563      MECN     N3       NG1T1   -0.460000       14.0070           0
     20703 WT9      565      MECN     C1       CG331   -0.170000       12.0110           0
     20704 WT9      565      MECN     H11      HGA3     0.090000        1.0080           0
     20705 WT9      565      MECN     H12      HGA3     0.090000        1.0080           0
     20706 WT9      565      MECN     H13      HGA3     0.090000        1.0080           0
     20707 WT9      565      MECN     C2       CG1N1    0.360000       12.0110           0
     20708 WT9      565      MECN     N3       NG1T1   -0.460000       14.0070           0
     20709 WT9      567      MECN     C1       CG331   -0.170000       12.0110           0
     20710 WT9      567      MECN     H11      HGA3     0.090000        1.0080           0
     20711 WT9      567      MECN     H12      HGA3     0.090000        1.0080           0
     20712 WT9      567      MECN     H13      HGA3     0.090000        1.0080           0
     20713 WT9      567      MECN     C2       CG1N1    0.360000       12.0110           0
     20714 WT9      567      MECN     N3       NG1T1   -0.460000       14.0070           0
     20715 WT9      568      MECN     C1       CG331   -0.170000       12.0110           0
     20716 WT9      568      MECN     H11      HGA3     0.090000        1.0080           0
     20717 WT9      568      MECN     H12      HGA3     0.090000        1.0080           0
     20718 WT9      568      MECN     H13      HGA3     0.090000        1.0080           0
     20719 WT9      568      MECN     C2       CG1N1    0.360000       12.0110           0
     20720 WT9      568      MECN     N3       NG1T1   -0.460000       14.0070           0
     20721 WT9      569      MECN     C1       CG331   -0.170000       12.0110           0
     20722 WT9      569      MECN     H11      HGA3     0.090000        1.0080           0
     20723 WT9      569      MECN     H12      HGA3     0.090000        1.0080           0
     20724 WT9      569      MECN     H13      HGA3     0.090000        1.0080           0
     20725 WT9      569      MECN     C2       CG1N1    0.360000       12.0110           0
     20726 WT9      569      MECN     N3       NG1T1   -0.460000       14.0070           0
     20727 WT9      570      MECN     C1       CG331   -0.170000       12.0110           0
     20728 WT9      570      MECN     H11      HGA3     0.090000        1.0080           0
     20729 WT9      570      MECN     H12      HGA3     0.090000        1.0080           0
     20730 WT9      570      MECN     H13      HGA3     0.090000        1.0080           0
     20731 WT9      570      MECN     C2       CG1N1    0.360000       12.0110           0
     20732 WT9      570      MECN     N3       NG1T1   -0.460000       14.0070           0
     20733 WT9      572      MECN     C1       CG331   -0.170000       12.0110           0
     20734 WT9      572      MECN     H11      HGA3     0.090000        1.0080           0
     20735 WT9      572      MECN     H12      HGA3     0.090000        1.0080           0
     20736 WT9      572      MECN     H13      HGA3     0.090000        1.0080           0
     20737 WT9      572      MECN     C2       CG1N1    0.360000       12.0110           0
     20738 WT9      572      MECN     N3       NG1T1   -0.460000       14.0070           0
     20739 WT9      574      MECN     C1       CG331   -0.170000       12.0110           0
     20740 WT9      574      MECN     H11      HGA3     0.090000        1.0080           0
     20741 WT9      574      MECN     H12      HGA3     0.090000        1.0080           0
     20742 WT9      574      MECN     H13      HGA3     0.090000        1.0080           0
     20743 WT9      574      MECN     C2       CG1N1    0.360000       12.0110           0
     20744 WT9      574      MECN     N3       NG1T1   -0.460000       14.0070           0
     20745 WT9      576      MECN     C1       CG331   -0.170000       12.0110           0
     20746 WT9      576      MECN     H11      HGA3     0.090000        1.0080           0
     20747 WT9      576      MECN     H12      HGA3     0.090000        1.0080           0
     20748 WT9      576      MECN     H13      HGA3     0.090000        1.0080           0
     20749 WT9      576      MECN     C2       CG1N1    0.360000       12.0110           0
     20750 WT9      576      MECN     N3       NG1T1   -0.460000       14.0070           0
     20751 WT9      581      MECN     C1       CG331   -0.170000       12.0110           0
     20752 WT9      581      MECN     H11      HGA3     0.090000        1.0080           0
     20753 WT9      581      MECN     H12      HGA3     0.090000        1.0080           0
     20754 WT9      581      MECN     H13      HGA3     0.090000        1.0080           0
     20755 WT9      581      MECN     C2       CG1N1    0.360000       12.0110           0
     20756 WT9      581      MECN     N3       NG1T1   -0.460000       14.0070           0
     20757 WT9      584      MECN     C1       CG331   -0.170000       12.0110           0
     20758 WT9      584      MECN     H11      HGA3     0.090000        1.0080           0
     20759 WT9      584      MECN     H12      HGA3     0.090000        1.0080           0
     20760 WT9      584      MECN     H13      HGA3     0.090000        1.0080           0
     20761 WT9      584      MECN     C2       CG1N1    0.360000       12.0110           0
     20762 WT9      584      MECN     N3       NG1T1   -0.460000       14.0070           0
     20763 WT9      585      MECN     C1       CG331   -0.170000       12.0110           0
     20764 WT9      585      MECN     H11      HGA3     0.090000        1.0080           0
     20765 WT9      585      MECN     H12      HGA3     0.090000        1.0080           0
     20766 WT9      585      MECN     H13      HGA3     0.090000        1.0080           0
     20767 WT9      585      MECN     C2       CG1N1    0.360000       12.0110           0
     20768 WT9      585      MECN     N3       NG1T1   -0.460000       14.0070           0
     20769 WT9      591      MECN     C1       CG331   -0.170000       12.0110           0
     20770 WT9      591      MECN     H11      HGA3     0.090000        1.0080           0
     20771 WT9      591      MECN     H12      HGA3     0.090000        1.0080           0
     20772 WT9      591      MECN     H13      HGA3     0.090000        1.0080           0
     20773 WT9      591      MECN     C2       CG1N1    0.360000       12.0110           0
     20774 WT9      591      MECN     N3       NG1T1   -0.460000       14.0070           0
     20775 WT9      594      MECN     C1       CG331   -0.170000       12.0110           0
     20776 WT9      594      MECN     H11      HGA3     0.090000        1.0080           0
     20777 WT9      594      MECN     H12      HGA3     0.090000        1.0080           0
     20778 WT9      594      MECN     H13      HGA3     0.090000        1.0080           0
     20779 WT9      594      MECN     C2       CG1N1    0.360000       12.0110           0
     20780 WT9      594      MECN     N3       NG1T1   -0.460000       14.0070           0
     20781 WT9      603      MECN     C1       CG331   -0.170000       12.0110           0
     20782 WT9      603      MECN     H11      HGA3     0.090000        1.0080           0
     20783 WT9      603      MECN     H12      HGA3     0.090000        1.0080           0
     20784 WT9      603      MECN     H13      HGA3     0.090000        1.0080           0
     20785 WT9      603      MECN     C2       CG1N1    0.360000       12.0110           0
     20786 WT9      603      MECN     N3       NG1T1   -0.460000       14.0070           0
     20787 WT9      605      MECN     C1       CG331   -0.170000       12.0110           0
     20788 WT9      605      MECN     H11      HGA3     0.090000        1.0080           0
     20789 WT9      605      MECN     H12      HGA3     0.090000        1.0080           0
     20790 WT9      605      MECN     H13      HGA3     0.090000        1.0080           0
     20791 WT9      605      MECN     C2       CG1N1    0.360000       12.0110           0
     20792 WT9      605      MECN     N3       NG1T1   -0.460000       14.0070           0
     20793 WT9      606      MECN     C1       CG331   -0.170000       12.0110           0
     20794 WT9      606      MECN     H11      HGA3     0.090000        1.0080           0
     20795 WT9      606      MECN     H12      HGA3     0.090000        1.0080           0
     20796 WT9      606      MECN     H13      HGA3     0.090000        1.0080           0
     20797 WT9      606      MECN     C2       CG1N1    0.360000       12.0110           0
     20798 WT9      606      MECN     N3       NG1T1   -0.460000       14.0070           0
     20799 WT9      609      MECN     C1       CG331   -0.170000       12.0110           0
     20800 WT9      609      MECN     H11      HGA3     0.090000        1.0080           0
     20801 WT9      609      MECN     H12      HGA3     0.090000        1.0080           0
     20802 WT9      609      MECN     H13      HGA3     0.090000        1.0080           0
     20803 WT9      609      MECN     C2       CG1N1    0.360000       12.0110           0
     20804 WT9      609      MECN     N3       NG1T1   -0.460000       14.0070           0
     20805 WT9      610      MECN     C1       CG331   -0.170000       12.0110           0
     20806 WT9      610      MECN     H11      HGA3     0.090000        1.0080           0
     20807 WT9      610      MECN     H12      HGA3     0.090000        1.0080           0
     20808 WT9      610      MECN     H13      HGA3     0.090000        1.0080           0
     20809 WT9      610      MECN     C2       CG1N1    0.360000       12.0110           0
     20810 WT9      610      MECN     N3       NG1T1   -0.460000       14.0070           0
     20811 WT9      614      MECN     C1       CG331   -0.170000       12.0110           0
     20812 WT9      614      MECN     H11      HGA3     0.090000        1.0080           0
     20813 WT9      614      MECN     H12      HGA3     0.090000        1.0080           0
     20814 WT9      614      MECN     H13      HGA3     0.090000        1.0080           0
     20815 WT9      614      MECN     C2       CG1N1    0.360000       12.0110           0
     20816 WT9      614      MECN     N3       NG1T1   -0.460000       14.0070           0
     20817 WT9      616      MECN     C1       CG331   -0.170000       12.0110           0
     20818 WT9      616      MECN     H11      HGA3     0.090000        1.0080           0
     20819 WT9      616      MECN     H12      HGA3     0.090000        1.0080           0
     20820 WT9      616      MECN     H13      HGA3     0.090000        1.0080           0
     20821 WT9      616      MECN     C2       CG1N1    0.360000       12.0110           0
     20822 WT9      616      MECN     N3       NG1T1   -0.460000       14.0070           0
     20823 WT9      623      MECN     C1       CG331   -0.170000       12.0110           0
     20824 WT9      623      MECN     H11      HGA3     0.090000        1.0080           0
     20825 WT9      623      MECN     H12      HGA3     0.090000        1.0080           0
     20826 WT9      623      MECN     H13      HGA3     0.090000        1.0080           0
     20827 WT9      623      MECN     C2       CG1N1    0.360000       12.0110           0
     20828 WT9      623      MECN     N3       NG1T1   -0.460000       14.0070           0
     20829 WT9      628      MECN     C1       CG331   -0.170000       12.0110           0
     20830 WT9      628      MECN     H11      HGA3     0.090000        1.0080           0
     20831 WT9      628      MECN     H12      HGA3     0.090000        1.0080           0
     20832 WT9      628      MECN     H13      HGA3     0.090000        1.0080           0
     20833 WT9      628      MECN     C2       CG1N1    0.360000       12.0110           0
     20834 WT9      628      MECN     N3       NG1T1   -0.460000       14.0070           0
     20835 WT9      630      MECN     C1       CG331   -0.170000       12.0110           0
     20836 WT9      630      MECN     H11      HGA3     0.090000        1.0080           0
     20837 WT9      630      MECN     H12      HGA3     0.090000        1.0080           0
     20838 WT9      630      MECN     H13      HGA3     0.090000        1.0080           0
     20839 WT9      630      MECN     C2       CG1N1    0.360000       12.0110           0
     20840 WT9      630      MECN     N3       NG1T1   -0.460000       14.0070           0
     20841 WT9      638      MECN     C1       CG331   -0.170000       12.0110           0
     20842 WT9      638      MECN     H11      HGA3     0.090000        1.0080           0
     20843 WT9      638      MECN     H12      HGA3     0.090000        1.0080           0
     20844 WT9      638      MECN     H13      HGA3     0.090000        1.0080           0
     20845 WT9      638      MECN     C2       CG1N1    0.360000       12.0110           0
     20846 WT9      638      MECN     N3       NG1T1   -0.460000       14.0070           0
     20847 WT9      668      MECN     C1       CG331   -0.170000       12.0110           0
     20848 WT9      668      MECN     H11      HGA3     0.090000        1.0080           0
     20849 WT9      668      MECN     H12      HGA3     0.090000        1.0080           0
     20850 WT9      668      MECN     H13      HGA3     0.090000        1.0080           0
     20851 WT9      668      MECN     C2       CG1N1    0.360000       12.0110           0
     20852 WT9      668      MECN     N3       NG1T1   -0.460000       14.0070           0
     20853 WT9      674      MECN     C1       CG331   -0.170000       12.0110           0
     20854 WT9      674      MECN     H11      HGA3     0.090000        1.0080           0
     20855 WT9      674      MECN     H12      HGA3     0.090000        1.0080           0
     20856 WT9      674      MECN     H13      HGA3     0.090000        1.0080           0
     20857 WT9      674      MECN     C2       CG1N1    0.360000       12.0110           0
     20858 WT9      674      MECN     N3       NG1T1   -0.460000       14.0070           0
     20859 WT9      677      MECN     C1       CG331   -0.170000       12.0110           0
     20860 WT9      677      MECN     H11      HGA3     0.090000        1.0080           0
     20861 WT9      677      MECN     H12      HGA3     0.090000        1.0080           0
     20862 WT9      677      MECN     H13      HGA3     0.090000        1.0080           0
     20863 WT9      677      MECN     C2       CG1N1    0.360000       12.0110           0
     20864 WT9      677      MECN     N3       NG1T1   -0.460000       14.0070           0
     20865 WT9      680      MECN     C1       CG331   -0.170000       12.0110           0
     20866 WT9      680      MECN     H11      HGA3     0.090000        1.0080           0
     20867 WT9      680      MECN     H12      HGA3     0.090000        1.0080           0
     20868 WT9      680      MECN     H13      HGA3     0.090000        1.0080           0
     20869 WT9      680      MECN     C2       CG1N1    0.360000       12.0110           0
     20870 WT9      680      MECN     N3       NG1T1   -0.460000       14.0070           0
     20871 WT9      681      MECN     C1       CG331   -0.170000       12.0110           0
     20872 WT9      681      MECN     H11      HGA3     0.090000        1.0080           0
     20873 WT9      681      MECN     H12      HGA3     0.090000        1.0080           0
     20874 WT9      681      MECN     H13      HGA3     0.090000        1.0080           0
     20875 WT9      681      MECN     C2       CG1N1    0.360000       12.0110           0
     20876 WT9      681      MECN     N3       NG1T1   -0.460000       14.0070           0
     20877 WT9      687      MECN     C1       CG331   -0.170000       12.0110           0
     20878 WT9      687      MECN     H11      HGA3     0.090000        1.0080           0
     20879 WT9      687      MECN     H12      HGA3     0.090000        1.0080           0
     20880 WT9      687      MECN     H13      HGA3     0.090000        1.0080           0
     20881 WT9      687      MECN     C2       CG1N1    0.360000       12.0110           0
     20882 WT9      687      MECN     N3       NG1T1   -0.460000       14.0070           0
     20883 WT9      689      MECN     C1       CG331   -0.170000       12.0110           0
     20884 WT9      689      MECN     H11      HGA3     0.090000        1.0080           0
     20885 WT9      689      MECN     H12      HGA3     0.090000        1.0080           0
     20886 WT9      689      MECN     H13      HGA3     0.090000        1.0080           0
     20887 WT9      689      MECN     C2       CG1N1    0.360000       12.0110           0
     20888 WT9      689      MECN     N3       NG1T1   -0.460000       14.0070           0
     20889 WT9      695      MECN     C1       CG331   -0.170000       12.0110           0
     20890 WT9      695      MECN     H11      HGA3     0.090000        1.0080           0
     20891 WT9      695      MECN     H12      HGA3     0.090000        1.0080           0
     20892 WT9      695      MECN     H13      HGA3     0.090000        1.0080           0
     20893 WT9      695      MECN     C2       CG1N1    0.360000       12.0110           0
     20894 WT9      695      MECN     N3       NG1T1   -0.460000       14.0070           0
     20895 WT9      696      MECN     C1       CG331   -0.170000       12.0110           0
     20896 WT9      696      MECN     H11      HGA3     0.090000        1.0080           0
     20897 WT9      696      MECN     H12      HGA3     0.090000        1.0080           0
     20898 WT9      696      MECN     H13      HGA3     0.090000        1.0080           0
     20899 WT9      696      MECN     C2       CG1N1    0.360000       12.0110           0
     20900 WT9      696      MECN     N3       NG1T1   -0.460000       14.0070           0
     20901 WT9      700      MECN     C1       CG331   -0.170000       12.0110           0
     20902 WT9      700      MECN     H11      HGA3     0.090000        1.0080           0
     20903 WT9      700      MECN     H12      HGA3     0.090000        1.0080           0
     20904 WT9      700      MECN     H13      HGA3     0.090000        1.0080           0
     20905 WT9      700      MECN     C2       CG1N1    0.360000       12.0110           0
     20906 WT9      700      MECN     N3       NG1T1   -0.460000       14.0070           0
     20907 WT9      703      MECN     C1       CG331   -0.170000       12.0110           0
     20908 WT9      703      MECN     H11      HGA3     0.090000        1.0080           0
     20909 WT9      703      MECN     H12      HGA3     0.090000        1.0080           0
     20910 WT9      703      MECN     H13      HGA3     0.090000        1.0080           0
     20911 WT9      703      MECN     C2       CG1N1    0.360000       12.0110           0
     20912 WT9      703      MECN     N3       NG1T1   -0.460000       14.0070           0
     20913 WT9      705      MECN     C1       CG331   -0.170000       12.0110           0
     20914 WT9      705      MECN     H11      HGA3     0.090000        1.0080           0
     20915 WT9      705      MECN     H12      HGA3     0.090000        1.0080           0
     20916 WT9      705      MECN     H13      HGA3     0.090000        1.0080           0
     20917 WT9      705      MECN     C2       CG1N1    0.360000       12.0110           0
     20918 WT9      705      MECN     N3       NG1T1   -0.460000       14.0070           0
     20919 WT9      707      MECN     C1       CG331   -0.170000       12.0110           0
     20920 WT9      707      MECN     H11      HGA3     0.090000        1.0080           0
     20921 WT9      707      MECN     H12      HGA3     0.090000        1.0080           0
     20922 WT9      707      MECN     H13      HGA3     0.090000        1.0080           0
     20923 WT9      707      MECN     C2       CG1N1    0.360000       12.0110           0
     20924 WT9      707      MECN     N3       NG1T1   -0.460000       14.0070           0
     20925 WT9      710      MECN     C1       CG331   -0.170000       12.0110           0
     20926 WT9      710      MECN     H11      HGA3     0.090000        1.0080           0
     20927 WT9      710      MECN     H12      HGA3     0.090000        1.0080           0
     20928 WT9      710      MECN     H13      HGA3     0.090000        1.0080           0
     20929 WT9      710      MECN     C2       CG1N1    0.360000       12.0110           0
     20930 WT9      710      MECN     N3       NG1T1   -0.460000       14.0070           0
     20931 WT9      711      MECN     C1       CG331   -0.170000       12.0110           0
     20932 WT9      711      MECN     H11      HGA3     0.090000        1.0080           0
     20933 WT9      711      MECN     H12      HGA3     0.090000        1.0080           0
     20934 WT9      711      MECN     H13      HGA3     0.090000        1.0080           0
     20935 WT9      711      MECN     C2       CG1N1    0.360000       12.0110           0
     20936 WT9      711      MECN     N3       NG1T1   -0.460000       14.0070           0
     20937 WT9      714      MECN     C1       CG331   -0.170000       12.0110           0
     20938 WT9      714      MECN     H11      HGA3     0.090000        1.0080           0
     20939 WT9      714      MECN     H12      HGA3     0.090000        1.0080           0
     20940 WT9      714      MECN     H13      HGA3     0.090000        1.0080           0
     20941 WT9      714      MECN     C2       CG1N1    0.360000       12.0110           0
     20942 WT9      714      MECN     N3       NG1T1   -0.460000       14.0070           0
     20943 WT9      718      MECN     C1       CG331   -0.170000       12.0110           0
     20944 WT9      718      MECN     H11      HGA3     0.090000        1.0080           0
     20945 WT9      718      MECN     H12      HGA3     0.090000        1.0080           0
     20946 WT9      718      MECN     H13      HGA3     0.090000        1.0080           0
     20947 WT9      718      MECN     C2       CG1N1    0.360000       12.0110           0
     20948 WT9      718      MECN     N3       NG1T1   -0.460000       14.0070           0
     20949 WT9      719      MECN     C1       CG331   -0.170000       12.0110           0
     20950 WT9      719      MECN     H11      HGA3     0.090000        1.0080           0
     20951 WT9      719      MECN     H12      HGA3     0.090000        1.0080           0
     20952 WT9      719      MECN     H13      HGA3     0.090000        1.0080           0
     20953 WT9      719      MECN     C2       CG1N1    0.360000       12.0110           0
     20954 WT9      719      MECN     N3       NG1T1   -0.460000       14.0070           0
     20955 WT9      725      MECN     C1       CG331   -0.170000       12.0110           0
     20956 WT9      725      MECN     H11      HGA3     0.090000        1.0080           0
     20957 WT9      725      MECN     H12      HGA3     0.090000        1.0080           0
     20958 WT9      725      MECN     H13      HGA3     0.090000        1.0080           0
     20959 WT9      725      MECN     C2       CG1N1    0.360000       12.0110           0
     20960 WT9      725      MECN     N3       NG1T1   -0.460000       14.0070           0
     20961 WT9      736      MECN     C1       CG331   -0.170000       12.0110           0
     20962 WT9      736      MECN     H11      HGA3     0.090000        1.0080           0
     20963 WT9      736      MECN     H12      HGA3     0.090000        1.0080           0
     20964 WT9      736      MECN     H13      HGA3     0.090000        1.0080           0
     20965 WT9      736      MECN     C2       CG1N1    0.360000       12.0110           0
     20966 WT9      736      MECN     N3       NG1T1   -0.460000       14.0070           0
     20967 WT9      738      MECN     C1       CG331   -0.170000       12.0110           0
     20968 WT9      738      MECN     H11      HGA3     0.090000        1.0080           0
     20969 WT9      738      MECN     H12      HGA3     0.090000        1.0080           0
     20970 WT9      738      MECN     H13      HGA3     0.090000        1.0080           0
     20971 WT9      738      MECN     C2       CG1N1    0.360000       12.0110           0
     20972 WT9      738      MECN     N3       NG1T1   -0.460000       14.0070           0
     20973 WT9      739      MECN     C1       CG331   -0.170000       12.0110           0
     20974 WT9      739      MECN     H11      HGA3     0.090000        1.0080           0
     20975 WT9      739      MECN     H12      HGA3     0.090000        1.0080           0
     20976 WT9      739      MECN     H13      HGA3     0.090000        1.0080           0
     20977 WT9      739      MECN     C2       CG1N1    0.360000       12.0110           0
     20978 WT9      739      MECN     N3       NG1T1   -0.460000       14.0070           0
     20979 WT9      742      MECN     C1       CG331   -0.170000       12.0110           0
     20980 WT9      742      MECN     H11      HGA3     0.090000        1.0080           0
     20981 WT9      742      MECN     H12      HGA3     0.090000        1.0080           0
     20982 WT9      742      MECN     H13      HGA3     0.090000        1.0080           0
     20983 WT9      742      MECN     C2       CG1N1    0.360000       12.0110           0
     20984 WT9      742      MECN     N3       NG1T1   -0.460000       14.0070           0
     20985 WT9      745      MECN     C1       CG331   -0.170000       12.0110           0
     20986 WT9      745      MECN     H11      HGA3     0.090000        1.0080           0
     20987 WT9      745      MECN     H12      HGA3     0.090000        1.0080           0
     20988 WT9      745      MECN     H13      HGA3     0.090000        1.0080           0
     20989 WT9      745      MECN     C2       CG1N1    0.360000       12.0110           0
     20990 WT9      745      MECN     N3       NG1T1   -0.460000       14.0070           0
     20991 WT9      751      MECN     C1       CG331   -0.170000       12.0110           0
     20992 WT9      751      MECN     H11      HGA3     0.090000        1.0080           0
     20993 WT9      751      MECN     H12      HGA3     0.090000        1.0080           0
     20994 WT9      751      MECN     H13      HGA3     0.090000        1.0080           0
     20995 WT9      751      MECN     C2       CG1N1    0.360000       12.0110           0
     20996 WT9      751      MECN     N3       NG1T1   -0.460000       14.0070           0
     20997 WT9      758      MECN     C1       CG331   -0.170000       12.0110           0
     20998 WT9      758      MECN     H11      HGA3     0.090000        1.0080           0
     20999 WT9      758      MECN     H12      HGA3     0.090000        1.0080           0
     21000 WT9      758      MECN     H13      HGA3     0.090000        1.0080           0
     21001 WT9      758      MECN     C2       CG1N1    0.360000       12.0110           0
     21002 WT9      758      MECN     N3       NG1T1   -0.460000       14.0070           0
     21003 WT9      759      MECN     C1       CG331   -0.170000       12.0110           0
     21004 WT9      759      MECN     H11      HGA3     0.090000        1.0080           0
     21005 WT9      759      MECN     H12      HGA3     0.090000        1.0080           0
     21006 WT9      759      MECN     H13      HGA3     0.090000        1.0080           0
     21007 WT9      759      MECN     C2       CG1N1    0.360000       12.0110           0
     21008 WT9      759      MECN     N3       NG1T1   -0.460000       14.0070           0
     21009 WT9      785      MECN     C1       CG331   -0.170000       12.0110           0
     21010 WT9      785      MECN     H11      HGA3     0.090000        1.0080           0
     21011 WT9      785      MECN     H12      HGA3     0.090000        1.0080           0
     21012 WT9      785      MECN     H13      HGA3     0.090000        1.0080           0
     21013 WT9      785      MECN     C2       CG1N1    0.360000       12.0110           0
     21014 WT9      785      MECN     N3       NG1T1   -0.460000       14.0070           0
     21015 WT9      787      MECN     C1       CG331   -0.170000       12.0110           0
     21016 WT9      787      MECN     H11      HGA3     0.090000        1.0080           0
     21017 WT9      787      MECN     H12      HGA3     0.090000        1.0080           0
     21018 WT9      787      MECN     H13      HGA3     0.090000        1.0080           0
     21019 WT9      787      MECN     C2       CG1N1    0.360000       12.0110           0
     21020 WT9      787      MECN     N3       NG1T1   -0.460000       14.0070           0
     21021 WT9      788      MECN     C1       CG331   -0.170000       12.0110           0
     21022 WT9      788      MECN     H11      HGA3     0.090000        1.0080           0
     21023 WT9      788      MECN     H12      HGA3     0.090000        1.0080           0
     21024 WT9      788      MECN     H13      HGA3     0.090000        1.0080           0
     21025 WT9      788      MECN     C2       CG1N1    0.360000       12.0110           0
     21026 WT9      788      MECN     N3       NG1T1   -0.460000       14.0070           0
     21027 WT9      790      MECN     C1       CG331   -0.170000       12.0110           0
     21028 WT9      790      MECN     H11      HGA3     0.090000        1.0080           0
     21029 WT9      790      MECN     H12      HGA3     0.090000        1.0080           0
     21030 WT9      790      MECN     H13      HGA3     0.090000        1.0080           0
     21031 WT9      790      MECN     C2       CG1N1    0.360000       12.0110           0
     21032 WT9      790      MECN     N3       NG1T1   -0.460000       14.0070           0
     21033 WT9      792      MECN     C1       CG331   -0.170000       12.0110           0
     21034 WT9      792      MECN     H11      HGA3     0.090000        1.0080           0
     21035 WT9      792      MECN     H12      HGA3     0.090000        1.0080           0
     21036 WT9      792      MECN     H13      HGA3     0.090000        1.0080           0
     21037 WT9      792      MECN     C2       CG1N1    0.360000       12.0110           0
     21038 WT9      792      MECN     N3       NG1T1   -0.460000       14.0070           0
     21039 WT9      804      MECN     C1       CG331   -0.170000       12.0110           0
     21040 WT9      804      MECN     H11      HGA3     0.090000        1.0080           0
     21041 WT9      804      MECN     H12      HGA3     0.090000        1.0080           0
     21042 WT9      804      MECN     H13      HGA3     0.090000        1.0080           0
     21043 WT9      804      MECN     C2       CG1N1    0.360000       12.0110           0
     21044 WT9      804      MECN     N3       NG1T1   -0.460000       14.0070           0
     21045 WT9      813      MECN     C1       CG331   -0.170000       12.0110           0
     21046 WT9      813      MECN     H11      HGA3     0.090000        1.0080           0
     21047 WT9      813      MECN     H12      HGA3     0.090000        1.0080           0
     21048 WT9      813      MECN     H13      HGA3     0.090000        1.0080           0
     21049 WT9      813      MECN     C2       CG1N1    0.360000       12.0110           0
     21050 WT9      813      MECN     N3       NG1T1   -0.460000       14.0070           0
     21051 WT9      820      MECN     C1       CG331   -0.170000       12.0110           0
     21052 WT9      820      MECN     H11      HGA3     0.090000        1.0080           0
     21053 WT9      820      MECN     H12      HGA3     0.090000        1.0080           0
     21054 WT9      820      MECN     H13      HGA3     0.090000        1.0080           0
     21055 WT9      820      MECN     C2       CG1N1    0.360000       12.0110           0
     21056 WT9      820      MECN     N3       NG1T1   -0.460000       14.0070           0
     21057 WT9      825      MECN     C1       CG331   -0.170000       12.0110           0
     21058 WT9      825      MECN     H11      HGA3     0.090000        1.0080           0
     21059 WT9      825      MECN     H12      HGA3     0.090000        1.0080           0
     21060 WT9      825      MECN     H13      HGA3     0.090000        1.0080           0
     21061 WT9      825      MECN     C2       CG1N1    0.360000       12.0110           0
     21062 WT9      825      MECN     N3       NG1T1   -0.460000       14.0070           0
     21063 WT9      830      MECN     C1       CG331   -0.170000       12.0110           0
     21064 WT9      830      MECN     H11      HGA3     0.090000        1.0080           0
     21065 WT9      830      MECN     H12      HGA3     0.090000        1.0080           0
     21066 WT9      830      MECN     H13      HGA3     0.090000        1.0080           0
     21067 WT9      830      MECN     C2       CG1N1    0.360000       12.0110           0
     21068 WT9      830      MECN     N3       NG1T1   -0.460000       14.0070           0
     21069 WT9      832      MECN     C1       CG331   -0.170000       12.0110           0
     21070 WT9      832      MECN     H11      HGA3     0.090000        1.0080           0
     21071 WT9      832      MECN     H12      HGA3     0.090000        1.0080           0
     21072 WT9      832      MECN     H13      HGA3     0.090000        1.0080           0
     21073 WT9      832      MECN     C2       CG1N1    0.360000       12.0110           0
     21074 WT9      832      MECN     N3       NG1T1   -0.460000       14.0070           0
     21075 WT9      836      MECN     C1       CG331   -0.170000       12.0110           0
     21076 WT9      836      MECN     H11      HGA3     0.090000        1.0080           0
     21077 WT9      836      MECN     H12      HGA3     0.090000        1.0080           0
     21078 WT9      836      MECN     H13      HGA3     0.090000        1.0080           0
     21079 WT9      836      MECN     C2       CG1N1    0.360000       12.0110           0
     21080 WT9      836      MECN     N3       NG1T1   -0.460000       14.0070           0
     21081 WT9      837      MECN     C1       CG331   -0.170000       12.0110           0
     21082 WT9      837      MECN     H11      HGA3     0.090000        1.0080           0
     21083 WT9      837      MECN     H12      HGA3     0.090000        1.0080           0
     21084 WT9      837      MECN     H13      HGA3     0.090000        1.0080           0
     21085 WT9      837      MECN     C2       CG1N1    0.360000       12.0110           0
     21086 WT9      837      MECN     N3       NG1T1   -0.460000       14.0070           0
     21087 WT9      839      MECN     C1       CG331   -0.170000       12.0110           0
     21088 WT9      839      MECN     H11      HGA3     0.090000        1.0080           0
     21089 WT9      839      MECN     H12      HGA3     0.090000        1.0080           0
     21090 WT9      839      MECN     H13      HGA3     0.090000        1.0080           0
     21091 WT9      839      MECN     C2       CG1N1    0.360000       12.0110           0
     21092 WT9      839      MECN     N3       NG1T1   -0.460000       14.0070           0
     21093 WT9      845      MECN     C1       CG331   -0.170000       12.0110           0
     21094 WT9      845      MECN     H11      HGA3     0.090000        1.0080           0
     21095 WT9      845      MECN     H12      HGA3     0.090000        1.0080           0
     21096 WT9      845      MECN     H13      HGA3     0.090000        1.0080           0
     21097 WT9      845      MECN     C2       CG1N1    0.360000       12.0110           0
     21098 WT9      845      MECN     N3       NG1T1   -0.460000       14.0070           0
     21099 WT9      848      MECN     C1       CG331   -0.170000       12.0110           0
     21100 WT9      848      MECN     H11      HGA3     0.090000        1.0080           0
     21101 WT9      848      MECN     H12      HGA3     0.090000        1.0080           0
     21102 WT9      848      MECN     H13      HGA3     0.090000        1.0080           0
     21103 WT9      848      MECN     C2       CG1N1    0.360000       12.0110           0
     21104 WT9      848      MECN     N3       NG1T1   -0.460000       14.0070           0
     21105 WT9      851      MECN     C1       CG331   -0.170000       12.0110           0
     21106 WT9      851      MECN     H11      HGA3     0.090000        1.0080           0
     21107 WT9      851      MECN     H12      HGA3     0.090000        1.0080           0
     21108 WT9      851      MECN     H13      HGA3     0.090000        1.0080           0
     21109 WT9      851      MECN     C2       CG1N1    0.360000       12.0110           0
     21110 WT9      851      MECN     N3       NG1T1   -0.460000       14.0070           0
     21111 WT9      853      MECN     C1       CG331   -0.170000       12.0110           0
     21112 WT9      853      MECN     H11      HGA3     0.090000        1.0080           0
     21113 WT9      853      MECN     H12      HGA3     0.090000        1.0080           0
     21114 WT9      853      MECN     H13      HGA3     0.090000        1.0080           0
     21115 WT9      853      MECN     C2       CG1N1    0.360000       12.0110           0
     21116 WT9      853      MECN     N3       NG1T1   -0.460000       14.0070           0
     21117 WT9      854      MECN     C1       CG331   -0.170000       12.0110           0
     21118 WT9      854      MECN     H11      HGA3     0.090000        1.0080           0
     21119 WT9      854      MECN     H12      HGA3     0.090000        1.0080           0
     21120 WT9      854      MECN     H13      HGA3     0.090000        1.0080           0
     21121 WT9      854      MECN     C2       CG1N1    0.360000       12.0110           0
     21122 WT9      854      MECN     N3       NG1T1   -0.460000       14.0070           0
     21123 WT9      855      MECN     C1       CG331   -0.170000       12.0110           0
     21124 WT9      855      MECN     H11      HGA3     0.090000        1.0080           0
     21125 WT9      855      MECN     H12      HGA3     0.090000        1.0080           0
     21126 WT9      855      MECN     H13      HGA3     0.090000        1.0080           0
     21127 WT9      855      MECN     C2       CG1N1    0.360000       12.0110           0
     21128 WT9      855      MECN     N3       NG1T1   -0.460000       14.0070           0
     21129 WT9      856      MECN     C1       CG331   -0.170000       12.0110           0
     21130 WT9      856      MECN     H11      HGA3     0.090000        1.0080           0
     21131 WT9      856      MECN     H12      HGA3     0.090000        1.0080           0
     21132 WT9      856      MECN     H13      HGA3     0.090000        1.0080           0
     21133 WT9      856      MECN     C2       CG1N1    0.360000       12.0110           0
     21134 WT9      856      MECN     N3       NG1T1   -0.460000       14.0070           0
     21135 WT9      862      MECN     C1       CG331   -0.170000       12.0110           0
     21136 WT9      862      MECN     H11      HGA3     0.090000        1.0080           0
     21137 WT9      862      MECN     H12      HGA3     0.090000        1.0080           0
     21138 WT9      862      MECN     H13      HGA3     0.090000        1.0080           0
     21139 WT9      862      MECN     C2       CG1N1    0.360000       12.0110           0
     21140 WT9      862      MECN     N3       NG1T1   -0.460000       14.0070           0
     21141 WT9      870      MECN     C1       CG331   -0.170000       12.0110           0
     21142 WT9      870      MECN     H11      HGA3     0.090000        1.0080           0
     21143 WT9      870      MECN     H12      HGA3     0.090000        1.0080           0
     21144 WT9      870      MECN     H13      HGA3     0.090000        1.0080           0
     21145 WT9      870      MECN     C2       CG1N1    0.360000       12.0110           0
     21146 WT9      870      MECN     N3       NG1T1   -0.460000       14.0070           0
     21147 WT9      877      MECN     C1       CG331   -0.170000       12.0110           0
     21148 WT9      877      MECN     H11      HGA3     0.090000        1.0080           0
     21149 WT9      877      MECN     H12      HGA3     0.090000        1.0080           0
     21150 WT9      877      MECN     H13      HGA3     0.090000        1.0080           0
     21151 WT9      877      MECN     C2       CG1N1    0.360000       12.0110           0
     21152 WT9      877      MECN     N3       NG1T1   -0.460000       14.0070           0
     21153 WT9      880      MECN     C1       CG331   -0.170000       12.0110           0
     21154 WT9      880      MECN     H11      HGA3     0.090000        1.0080           0
     21155 WT9      880      MECN     H12      HGA3     0.090000        1.0080           0
     21156 WT9      880      MECN     H13      HGA3     0.090000        1.0080           0
     21157 WT9      880      MECN     C2       CG1N1    0.360000       12.0110           0
     21158 WT9      880      MECN     N3       NG1T1   -0.460000       14.0070           0
     21159 WT9      881      MECN     C1       CG331   -0.170000       12.0110           0
     21160 WT9      881      MECN     H11      HGA3     0.090000        1.0080           0
     21161 WT9      881      MECN     H12      HGA3     0.090000        1.0080           0
     21162 WT9      881      MECN     H13      HGA3     0.090000        1.0080           0
     21163 WT9      881      MECN     C2       CG1N1    0.360000       12.0110           0
     21164 WT9      881      MECN     N3       NG1T1   -0.460000       14.0070           0
     21165 WT9      884      MECN     C1       CG331   -0.170000       12.0110           0
     21166 WT9      884      MECN     H11      HGA3     0.090000        1.0080           0
     21167 WT9      884      MECN     H12      HGA3     0.090000        1.0080           0
     21168 WT9      884      MECN     H13      HGA3     0.090000        1.0080           0
     21169 WT9      884      MECN     C2       CG1N1    0.360000       12.0110           0
     21170 WT9      884      MECN     N3       NG1T1   -0.460000       14.0070           0
     21171 WT9      901      MECN     C1       CG331   -0.170000       12.0110           0
     21172 WT9      901      MECN     H11      HGA3     0.090000        1.0080           0
     21173 WT9      901      MECN     H12      HGA3     0.090000        1.0080           0
     21174 WT9      901      MECN     H13      HGA3     0.090000        1.0080           0
     21175 WT9      901      MECN     C2       CG1N1    0.360000       12.0110           0
     21176 WT9      901      MECN     N3       NG1T1   -0.460000       14.0070           0
     21177 WT9      902      MECN     C1       CG331   -0.170000       12.0110           0
     21178 WT9      902      MECN     H11      HGA3     0.090000        1.0080           0
     21179 WT9      902      MECN     H12      HGA3     0.090000        1.0080           0
     21180 WT9      902      MECN     H13      HGA3     0.090000        1.0080           0
     21181 WT9      902      MECN     C2       CG1N1    0.360000       12.0110           0
     21182 WT9      902      MECN     N3       NG1T1   -0.460000       14.0070           0
     21183 WT9      903      MECN     C1       CG331   -0.170000       12.0110           0
     21184 WT9      903      MECN     H11      HGA3     0.090000        1.0080           0
     21185 WT9      903      MECN     H12      HGA3     0.090000        1.0080           0
     21186 WT9      903      MECN     H13      HGA3     0.090000        1.0080           0
     21187 WT9      903      MECN     C2       CG1N1    0.360000       12.0110           0
     21188 WT9      903      MECN     N3       NG1T1   -0.460000       14.0070           0
     21189 WT9      909      MECN     C1       CG331   -0.170000       12.0110           0
     21190 WT9      909      MECN     H11      HGA3     0.090000        1.0080           0
     21191 WT9      909      MECN     H12      HGA3     0.090000        1.0080           0
     21192 WT9      909      MECN     H13      HGA3     0.090000        1.0080           0
     21193 WT9      909      MECN     C2       CG1N1    0.360000       12.0110           0
     21194 WT9      909      MECN     N3       NG1T1   -0.460000       14.0070           0
     21195 WT9      912      MECN     C1       CG331   -0.170000       12.0110           0
     21196 WT9      912      MECN     H11      HGA3     0.090000        1.0080           0
     21197 WT9      912      MECN     H12      HGA3     0.090000        1.0080           0
     21198 WT9      912      MECN     H13      HGA3     0.090000        1.0080           0
     21199 WT9      912      MECN     C2       CG1N1    0.360000       12.0110           0
     21200 WT9      912      MECN     N3       NG1T1   -0.460000       14.0070           0
     21201 WT9      913      MECN     C1       CG331   -0.170000       12.0110           0
     21202 WT9      913      MECN     H11      HGA3     0.090000        1.0080           0
     21203 WT9      913      MECN     H12      HGA3     0.090000        1.0080           0
     21204 WT9      913      MECN     H13      HGA3     0.090000        1.0080           0
     21205 WT9      913      MECN     C2       CG1N1    0.360000       12.0110           0
     21206 WT9      913      MECN     N3       NG1T1   -0.460000       14.0070           0
     21207 WT9      923      MECN     C1       CG331   -0.170000       12.0110           0
     21208 WT9      923      MECN     H11      HGA3     0.090000        1.0080           0
     21209 WT9      923      MECN     H12      HGA3     0.090000        1.0080           0
     21210 WT9      923      MECN     H13      HGA3     0.090000        1.0080           0
     21211 WT9      923      MECN     C2       CG1N1    0.360000       12.0110           0
     21212 WT9      923      MECN     N3       NG1T1   -0.460000       14.0070           0
     21213 WT9      927      MECN     C1       CG331   -0.170000       12.0110           0
     21214 WT9      927      MECN     H11      HGA3     0.090000        1.0080           0
     21215 WT9      927      MECN     H12      HGA3     0.090000        1.0080           0
     21216 WT9      927      MECN     H13      HGA3     0.090000        1.0080           0
     21217 WT9      927      MECN     C2       CG1N1    0.360000       12.0110           0
     21218 WT9      927      MECN     N3       NG1T1   -0.460000       14.0070           0
     21219 WT9      929      MECN     C1       CG331   -0.170000       12.0110           0
     21220 WT9      929      MECN     H11      HGA3     0.090000        1.0080           0
     21221 WT9      929      MECN     H12      HGA3     0.090000        1.0080           0
     21222 WT9      929      MECN     H13      HGA3     0.090000        1.0080           0
     21223 WT9      929      MECN     C2       CG1N1    0.360000       12.0110           0
     21224 WT9      929      MECN     N3       NG1T1   -0.460000       14.0070           0
     21225 WT9      930      MECN     C1       CG331   -0.170000       12.0110           0
     21226 WT9      930      MECN     H11      HGA3     0.090000        1.0080           0
     21227 WT9      930      MECN     H12      HGA3     0.090000        1.0080           0
     21228 WT9      930      MECN     H13      HGA3     0.090000        1.0080           0
     21229 WT9      930      MECN     C2       CG1N1    0.360000       12.0110           0
     21230 WT9      930      MECN     N3       NG1T1   -0.460000       14.0070           0
     21231 WT9      932      MECN     C1       CG331   -0.170000       12.0110           0
     21232 WT9      932      MECN     H11      HGA3     0.090000        1.0080           0
     21233 WT9      932      MECN     H12      HGA3     0.090000        1.0080           0
     21234 WT9      932      MECN     H13      HGA3     0.090000        1.0080           0
     21235 WT9      932      MECN     C2       CG1N1    0.360000       12.0110           0
     21236 WT9      932      MECN     N3       NG1T1   -0.460000       14.0070           0
     21237 WT9      937      MECN     C1       CG331   -0.170000       12.0110           0
     21238 WT9      937      MECN     H11      HGA3     0.090000        1.0080           0
     21239 WT9      937      MECN     H12      HGA3     0.090000        1.0080           0
     21240 WT9      937      MECN     H13      HGA3     0.090000        1.0080           0
     21241 WT9      937      MECN     C2       CG1N1    0.360000       12.0110           0
     21242 WT9      937      MECN     N3       NG1T1   -0.460000       14.0070           0
     21243 WT9      938      MECN     C1       CG331   -0.170000       12.0110           0
     21244 WT9      938      MECN     H11      HGA3     0.090000        1.0080           0
     21245 WT9      938      MECN     H12      HGA3     0.090000        1.0080           0
     21246 WT9      938      MECN     H13      HGA3     0.090000        1.0080           0
     21247 WT9      938      MECN     C2       CG1N1    0.360000       12.0110           0
     21248 WT9      938      MECN     N3       NG1T1   -0.460000       14.0070           0
     21249 WT9      942      MECN     C1       CG331   -0.170000       12.0110           0
     21250 WT9      942      MECN     H11      HGA3     0.090000        1.0080           0
     21251 WT9      942      MECN     H12      HGA3     0.090000        1.0080           0
     21252 WT9      942      MECN     H13      HGA3     0.090000        1.0080           0
     21253 WT9      942      MECN     C2       CG1N1    0.360000       12.0110           0
     21254 WT9      942      MECN     N3       NG1T1   -0.460000       14.0070           0
     21255 WT9      943      MECN     C1       CG331   -0.170000       12.0110           0
     21256 WT9      943      MECN     H11      HGA3     0.090000        1.0080           0
     21257 WT9      943      MECN     H12      HGA3     0.090000        1.0080           0
     21258 WT9      943      MECN     H13      HGA3     0.090000        1.0080           0
     21259 WT9      943      MECN     C2       CG1N1    0.360000       12.0110           0
     21260 WT9      943      MECN     N3       NG1T1   -0.460000       14.0070           0
     21261 WT9      945      MECN     C1       CG331   -0.170000       12.0110           0
     21262 WT9      945      MECN     H11      HGA3     0.090000        1.0080           0
     21263 WT9      945      MECN     H12      HGA3     0.090000        1.0080           0
     21264 WT9      945      MECN     H13      HGA3     0.090000        1.0080           0
     21265 WT9      945      MECN     C2       CG1N1    0.360000       12.0110           0
     21266 WT9      945      MECN     N3       NG1T1   -0.460000       14.0070           0
     21267 WT9      947      MECN     C1       CG331   -0.170000       12.0110           0
     21268 WT9      947      MECN     H11      HGA3     0.090000        1.0080           0
     21269 WT9      947      MECN     H12      HGA3     0.090000        1.0080           0
     21270 WT9      947      MECN     H13      HGA3     0.090000        1.0080           0
     21271 WT9      947      MECN     C2       CG1N1    0.360000       12.0110           0
     21272 WT9      947      MECN     N3       NG1T1   -0.460000       14.0070           0
     21273 WT9      948      MECN     C1       CG331   -0.170000       12.0110           0
     21274 WT9      948      MECN     H11      HGA3     0.090000        1.0080           0
     21275 WT9      948      MECN     H12      HGA3     0.090000        1.0080           0
     21276 WT9      948      MECN     H13      HGA3     0.090000        1.0080           0
     21277 WT9      948      MECN     C2       CG1N1    0.360000       12.0110           0
     21278 WT9      948      MECN     N3       NG1T1   -0.460000       14.0070           0
     21279 WT9      949      MECN     C1       CG331   -0.170000       12.0110           0
     21280 WT9      949      MECN     H11      HGA3     0.090000        1.0080           0
     21281 WT9      949      MECN     H12      HGA3     0.090000        1.0080           0
     21282 WT9      949      MECN     H13      HGA3     0.090000        1.0080           0
     21283 WT9      949      MECN     C2       CG1N1    0.360000       12.0110           0
     21284 WT9      949      MECN     N3       NG1T1   -0.460000       14.0070           0
     21285 WT9      950      MECN     C1       CG331   -0.170000       12.0110           0
     21286 WT9      950      MECN     H11      HGA3     0.090000        1.0080           0
     21287 WT9      950      MECN     H12      HGA3     0.090000        1.0080           0
     21288 WT9      950      MECN     H13      HGA3     0.090000        1.0080           0
     21289 WT9      950      MECN     C2       CG1N1    0.360000       12.0110           0
     21290 WT9      950      MECN     N3       NG1T1   -0.460000       14.0070           0
     21291 WT9      953      MECN     C1       CG331   -0.170000       12.0110           0
     21292 WT9      953      MECN     H11      HGA3     0.090000        1.0080           0
     21293 WT9      953      MECN     H12      HGA3     0.090000        1.0080           0
     21294 WT9      953      MECN     H13      HGA3     0.090000        1.0080           0
     21295 WT9      953      MECN     C2       CG1N1    0.360000       12.0110           0
     21296 WT9      953      MECN     N3       NG1T1   -0.460000       14.0070           0
     21297 WT9      957      MECN     C1       CG331   -0.170000       12.0110           0
     21298 WT9      957      MECN     H11      HGA3     0.090000        1.0080           0
     21299 WT9      957      MECN     H12      HGA3     0.090000        1.0080           0
     21300 WT9      957      MECN     H13      HGA3     0.090000        1.0080           0
     21301 WT9      957      MECN     C2       CG1N1    0.360000       12.0110           0
     21302 WT9      957      MECN     N3       NG1T1   -0.460000       14.0070           0
     21303 WT9      958      MECN     C1       CG331   -0.170000       12.0110           0
     21304 WT9      958      MECN     H11      HGA3     0.090000        1.0080           0
     21305 WT9      958      MECN     H12      HGA3     0.090000        1.0080           0
     21306 WT9      958      MECN     H13      HGA3     0.090000        1.0080           0
     21307 WT9      958      MECN     C2       CG1N1    0.360000       12.0110           0
     21308 WT9      958      MECN     N3       NG1T1   -0.460000       14.0070           0
     21309 WT9      960      MECN     C1       CG331   -0.170000       12.0110           0
     21310 WT9      960      MECN     H11      HGA3     0.090000        1.0080           0
     21311 WT9      960      MECN     H12      HGA3     0.090000        1.0080           0
     21312 WT9      960      MECN     H13      HGA3     0.090000        1.0080           0
     21313 WT9      960      MECN     C2       CG1N1    0.360000       12.0110           0
     21314 WT9      960      MECN     N3       NG1T1   -0.460000       14.0070           0
     21315 WT9      964      MECN     C1       CG331   -0.170000       12.0110           0
     21316 WT9      964      MECN     H11      HGA3     0.090000        1.0080           0
     21317 WT9      964      MECN     H12      HGA3     0.090000        1.0080           0
     21318 WT9      964      MECN     H13      HGA3     0.090000        1.0080           0
     21319 WT9      964      MECN     C2       CG1N1    0.360000       12.0110           0
     21320 WT9      964      MECN     N3       NG1T1   -0.460000       14.0070           0
     21321 WT9      969      MECN     C1       CG331   -0.170000       12.0110           0
     21322 WT9      969      MECN     H11      HGA3     0.090000        1.0080           0
     21323 WT9      969      MECN     H12      HGA3     0.090000        1.0080           0
     21324 WT9      969      MECN     H13      HGA3     0.090000        1.0080           0
     21325 WT9      969      MECN     C2       CG1N1    0.360000       12.0110           0
     21326 WT9      969      MECN     N3       NG1T1   -0.460000       14.0070           0
     21327 WT9      970      MECN     C1       CG331   -0.170000       12.0110           0
     21328 WT9      970      MECN     H11      HGA3     0.090000        1.0080           0
     21329 WT9      970      MECN     H12      HGA3     0.090000        1.0080           0
     21330 WT9      970      MECN     H13      HGA3     0.090000        1.0080           0
     21331 WT9      970      MECN     C2       CG1N1    0.360000       12.0110           0
     21332 WT9      970      MECN     N3       NG1T1   -0.460000       14.0070           0
     21333 WT9      971      MECN     C1       CG331   -0.170000       12.0110           0
     21334 WT9      971      MECN     H11      HGA3     0.090000        1.0080           0
     21335 WT9      971      MECN     H12      HGA3     0.090000        1.0080           0
     21336 WT9      971      MECN     H13      HGA3     0.090000        1.0080           0
     21337 WT9      971      MECN     C2       CG1N1    0.360000       12.0110           0
     21338 WT9      971      MECN     N3       NG1T1   -0.460000       14.0070           0
     21339 WT9      974      MECN     C1       CG331   -0.170000       12.0110           0
     21340 WT9      974      MECN     H11      HGA3     0.090000        1.0080           0
     21341 WT9      974      MECN     H12      HGA3     0.090000        1.0080           0
     21342 WT9      974      MECN     H13      HGA3     0.090000        1.0080           0
     21343 WT9      974      MECN     C2       CG1N1    0.360000       12.0110           0
     21344 WT9      974      MECN     N3       NG1T1   -0.460000       14.0070           0
     21345 WT9      975      MECN     C1       CG331   -0.170000       12.0110           0
     21346 WT9      975      MECN     H11      HGA3     0.090000        1.0080           0
     21347 WT9      975      MECN     H12      HGA3     0.090000        1.0080           0
     21348 WT9      975      MECN     H13      HGA3     0.090000        1.0080           0
     21349 WT9      975      MECN     C2       CG1N1    0.360000       12.0110           0
     21350 WT9      975      MECN     N3       NG1T1   -0.460000       14.0070           0
     21351 WT9      988      MECN     C1       CG331   -0.170000       12.0110           0
     21352 WT9      988      MECN     H11      HGA3     0.090000        1.0080           0
     21353 WT9      988      MECN     H12      HGA3     0.090000        1.0080           0
     21354 WT9      988      MECN     H13      HGA3     0.090000        1.0080           0
     21355 WT9      988      MECN     C2       CG1N1    0.360000       12.0110           0
     21356 WT9      988      MECN     N3       NG1T1   -0.460000       14.0070           0
     21357 WT9      995      MECN     C1       CG331   -0.170000       12.0110           0
     21358 WT9      995      MECN     H11      HGA3     0.090000        1.0080           0
     21359 WT9      995      MECN     H12      HGA3     0.090000        1.0080           0
     21360 WT9      995      MECN     H13      HGA3     0.090000        1.0080           0
     21361 WT9      995      MECN     C2       CG1N1    0.360000       12.0110           0
     21362 WT9      995      MECN     N3       NG1T1   -0.460000       14.0070           0
     21363 WT9      997      MECN     C1       CG331   -0.170000       12.0110           0
     21364 WT9      997      MECN     H11      HGA3     0.090000        1.0080           0
     21365 WT9      997      MECN     H12      HGA3     0.090000        1.0080           0
     21366 WT9      997      MECN     H13      HGA3     0.090000        1.0080           0
     21367 WT9      997      MECN     C2       CG1N1    0.360000       12.0110           0
     21368 WT9      997      MECN     N3       NG1T1   -0.460000       14.0070           0
     21369 WT9      999      MECN     C1       CG331   -0.170000       12.0110           0
     21370 WT9      999      MECN     H11      HGA3     0.090000        1.0080           0
     21371 WT9      999      MECN     H12      HGA3     0.090000        1.0080           0
     21372 WT9      999      MECN     H13      HGA3     0.090000        1.0080           0
     21373 WT9      999      MECN     C2       CG1N1    0.360000       12.0110           0
     21374 WT9      999      MECN     N3       NG1T1   -0.460000       14.0070           0
     21375 WT9      1002     MECN     C1       CG331   -0.170000       12.0110           0
     21376 WT9      1002     MECN     H11      HGA3     0.090000        1.0080           0
     21377 WT9      1002     MECN     H12      HGA3     0.090000        1.0080           0
     21378 WT9      1002     MECN     H13      HGA3     0.090000        1.0080           0
     21379 WT9      1002     MECN     C2       CG1N1    0.360000       12.0110           0
     21380 WT9      1002     MECN     N3       NG1T1   -0.460000       14.0070           0
     21381 WT9      1004     MECN     C1       CG331   -0.170000       12.0110           0
     21382 WT9      1004     MECN     H11      HGA3     0.090000        1.0080           0
     21383 WT9      1004     MECN     H12      HGA3     0.090000        1.0080           0
     21384 WT9      1004     MECN     H13      HGA3     0.090000        1.0080           0
     21385 WT9      1004     MECN     C2       CG1N1    0.360000       12.0110           0
     21386 WT9      1004     MECN     N3       NG1T1   -0.460000       14.0070           0
     21387 WT9      1015     MECN     C1       CG331   -0.170000       12.0110           0
     21388 WT9      1015     MECN     H11      HGA3     0.090000        1.0080           0
     21389 WT9      1015     MECN     H12      HGA3     0.090000        1.0080           0
     21390 WT9      1015     MECN     H13      HGA3     0.090000        1.0080           0
     21391 WT9      1015     MECN     C2       CG1N1    0.360000       12.0110           0
     21392 WT9      1015     MECN     N3       NG1T1   -0.460000       14.0070           0
     21393 WT9      1022     MECN     C1       CG331   -0.170000       12.0110           0
     21394 WT9      1022     MECN     H11      HGA3     0.090000        1.0080           0
     21395 WT9      1022     MECN     H12      HGA3     0.090000        1.0080           0
     21396 WT9      1022     MECN     H13      HGA3     0.090000        1.0080           0
     21397 WT9      1022     MECN     C2       CG1N1    0.360000       12.0110           0
     21398 WT9      1022     MECN     N3       NG1T1   -0.460000       14.0070           0
     21399 WT9      1024     MECN     C1       CG331   -0.170000       12.0110           0
     21400 WT9      1024     MECN     H11      HGA3     0.090000        1.0080           0
     21401 WT9      1024     MECN     H12      HGA3     0.090000        1.0080           0
     21402 WT9      1024     MECN     H13      HGA3     0.090000        1.0080           0
     21403 WT9      1024     MECN     C2       CG1N1    0.360000       12.0110           0
     21404 WT9      1024     MECN     N3       NG1T1   -0.460000       14.0070           0
     21405 WT9      1026     MECN     C1       CG331   -0.170000       12.0110           0
     21406 WT9      1026     MECN     H11      HGA3     0.090000        1.0080           0
     21407 WT9      1026     MECN     H12      HGA3     0.090000        1.0080           0
     21408 WT9      1026     MECN     H13      HGA3     0.090000        1.0080           0
     21409 WT9      1026     MECN     C2       CG1N1    0.360000       12.0110           0
     21410 WT9      1026     MECN     N3       NG1T1   -0.460000       14.0070           0
     21411 WT9      1036     MECN     C1       CG331   -0.170000       12.0110           0
     21412 WT9      1036     MECN     H11      HGA3     0.090000        1.0080           0
     21413 WT9      1036     MECN     H12      HGA3     0.090000        1.0080           0
     21414 WT9      1036     MECN     H13      HGA3     0.090000        1.0080           0
     21415 WT9      1036     MECN     C2       CG1N1    0.360000       12.0110           0
     21416 WT9      1036     MECN     N3       NG1T1   -0.460000       14.0070           0
     21417 WT9      1037     MECN     C1       CG331   -0.170000       12.0110           0
     21418 WT9      1037     MECN     H11      HGA3     0.090000        1.0080           0
     21419 WT9      1037     MECN     H12      HGA3     0.090000        1.0080           0
     21420 WT9      1037     MECN     H13      HGA3     0.090000        1.0080           0
     21421 WT9      1037     MECN     C2       CG1N1    0.360000       12.0110           0
     21422 WT9      1037     MECN     N3       NG1T1   -0.460000       14.0070           0
     21423 WT9      1038     MECN     C1       CG331   -0.170000       12.0110           0
     21424 WT9      1038     MECN     H11      HGA3     0.090000        1.0080           0
     21425 WT9      1038     MECN     H12      HGA3     0.090000        1.0080           0
     21426 WT9      1038     MECN     H13      HGA3     0.090000        1.0080           0
     21427 WT9      1038     MECN     C2       CG1N1    0.360000       12.0110           0
     21428 WT9      1038     MECN     N3       NG1T1   -0.460000       14.0070           0
     21429 WT9      1045     MECN     C1       CG331   -0.170000       12.0110           0
     21430 WT9      1045     MECN     H11      HGA3     0.090000        1.0080           0
     21431 WT9      1045     MECN     H12      HGA3     0.090000        1.0080           0
     21432 WT9      1045     MECN     H13      HGA3     0.090000        1.0080           0
     21433 WT9      1045     MECN     C2       CG1N1    0.360000       12.0110           0
     21434 WT9      1045     MECN     N3       NG1T1   -0.460000       14.0070           0
     21435 WT9      1046     MECN     C1       CG331   -0.170000       12.0110           0
     21436 WT9      1046     MECN     H11      HGA3     0.090000        1.0080           0
     21437 WT9      1046     MECN     H12      HGA3     0.090000        1.0080           0
     21438 WT9      1046     MECN     H13      HGA3     0.090000        1.0080           0
     21439 WT9      1046     MECN     C2       CG1N1    0.360000       12.0110           0
     21440 WT9      1046     MECN     N3       NG1T1   -0.460000       14.0070           0
     21441 WT9      1047     MECN     C1       CG331   -0.170000       12.0110           0
     21442 WT9      1047     MECN     H11      HGA3     0.090000        1.0080           0
     21443 WT9      1047     MECN     H12      HGA3     0.090000        1.0080           0
     21444 WT9      1047     MECN     H13      HGA3     0.090000        1.0080           0
     21445 WT9      1047     MECN     C2       CG1N1    0.360000       12.0110           0
     21446 WT9      1047     MECN     N3       NG1T1   -0.460000       14.0070           0
     21447 WT9      1056     MECN     C1       CG331   -0.170000       12.0110           0
     21448 WT9      1056     MECN     H11      HGA3     0.090000        1.0080           0
     21449 WT9      1056     MECN     H12      HGA3     0.090000        1.0080           0
     21450 WT9      1056     MECN     H13      HGA3     0.090000        1.0080           0
     21451 WT9      1056     MECN     C2       CG1N1    0.360000       12.0110           0
     21452 WT9      1056     MECN     N3       NG1T1   -0.460000       14.0070           0
     21453 WT9      1065     MECN     C1       CG331   -0.170000       12.0110           0
     21454 WT9      1065     MECN     H11      HGA3     0.090000        1.0080           0
     21455 WT9      1065     MECN     H12      HGA3     0.090000        1.0080           0
     21456 WT9      1065     MECN     H13      HGA3     0.090000        1.0080           0
     21457 WT9      1065     MECN     C2       CG1N1    0.360000       12.0110           0
     21458 WT9      1065     MECN     N3       NG1T1   -0.460000       14.0070           0
     21459 WT9      1066     MECN     C1       CG331   -0.170000       12.0110           0
     21460 WT9      1066     MECN     H11      HGA3     0.090000        1.0080           0
     21461 WT9      1066     MECN     H12      HGA3     0.090000        1.0080           0
     21462 WT9      1066     MECN     H13      HGA3     0.090000        1.0080           0
     21463 WT9      1066     MECN     C2       CG1N1    0.360000       12.0110           0
     21464 WT9      1066     MECN     N3       NG1T1   -0.460000       14.0070           0
     21465 WT9      1068     MECN     C1       CG331   -0.170000       12.0110           0
     21466 WT9      1068     MECN     H11      HGA3     0.090000        1.0080           0
     21467 WT9      1068     MECN     H12      HGA3     0.090000        1.0080           0
     21468 WT9      1068     MECN     H13      HGA3     0.090000        1.0080           0
     21469 WT9      1068     MECN     C2       CG1N1    0.360000       12.0110           0
     21470 WT9      1068     MECN     N3       NG1T1   -0.460000       14.0070           0
     21471 WT9      1069     MECN     C1       CG331   -0.170000       12.0110           0
     21472 WT9      1069     MECN     H11      HGA3     0.090000        1.0080           0
     21473 WT9      1069     MECN     H12      HGA3     0.090000        1.0080           0
     21474 WT9      1069     MECN     H13      HGA3     0.090000        1.0080           0
     21475 WT9      1069     MECN     C2       CG1N1    0.360000       12.0110           0
     21476 WT9      1069     MECN     N3       NG1T1   -0.460000       14.0070           0
     21477 WT9      1073     MECN     C1       CG331   -0.170000       12.0110           0
     21478 WT9      1073     MECN     H11      HGA3     0.090000        1.0080           0
     21479 WT9      1073     MECN     H12      HGA3     0.090000        1.0080           0
     21480 WT9      1073     MECN     H13      HGA3     0.090000        1.0080           0
     21481 WT9      1073     MECN     C2       CG1N1    0.360000       12.0110           0
     21482 WT9      1073     MECN     N3       NG1T1   -0.460000       14.0070           0
     21483 WT9      1078     MECN     C1       CG331   -0.170000       12.0110           0
     21484 WT9      1078     MECN     H11      HGA3     0.090000        1.0080           0
     21485 WT9      1078     MECN     H12      HGA3     0.090000        1.0080           0
     21486 WT9      1078     MECN     H13      HGA3     0.090000        1.0080           0
     21487 WT9      1078     MECN     C2       CG1N1    0.360000       12.0110           0
     21488 WT9      1078     MECN     N3       NG1T1   -0.460000       14.0070           0
     21489 WT9      1092     MECN     C1       CG331   -0.170000       12.0110           0
     21490 WT9      1092     MECN     H11      HGA3     0.090000        1.0080           0
     21491 WT9      1092     MECN     H12      HGA3     0.090000        1.0080           0
     21492 WT9      1092     MECN     H13      HGA3     0.090000        1.0080           0
     21493 WT9      1092     MECN     C2       CG1N1    0.360000       12.0110           0
     21494 WT9      1092     MECN     N3       NG1T1   -0.460000       14.0070           0
     21495 WT9      1100     MECN     C1       CG331   -0.170000       12.0110           0
     21496 WT9      1100     MECN     H11      HGA3     0.090000        1.0080           0
     21497 WT9      1100     MECN     H12      HGA3     0.090000        1.0080           0
     21498 WT9      1100     MECN     H13      HGA3     0.090000        1.0080           0
     21499 WT9      1100     MECN     C2       CG1N1    0.360000       12.0110           0
     21500 WT9      1100     MECN     N3       NG1T1   -0.460000       14.0070           0
     21501 WT9      1103     MECN     C1       CG331   -0.170000       12.0110           0
     21502 WT9      1103     MECN     H11      HGA3     0.090000        1.0080           0
     21503 WT9      1103     MECN     H12      HGA3     0.090000        1.0080           0
     21504 WT9      1103     MECN     H13      HGA3     0.090000        1.0080           0
     21505 WT9      1103     MECN     C2       CG1N1    0.360000       12.0110           0
     21506 WT9      1103     MECN     N3       NG1T1   -0.460000       14.0070           0
     21507 WT9      1107     MECN     C1       CG331   -0.170000       12.0110           0
     21508 WT9      1107     MECN     H11      HGA3     0.090000        1.0080           0
     21509 WT9      1107     MECN     H12      HGA3     0.090000        1.0080           0
     21510 WT9      1107     MECN     H13      HGA3     0.090000        1.0080           0
     21511 WT9      1107     MECN     C2       CG1N1    0.360000       12.0110           0
     21512 WT9      1107     MECN     N3       NG1T1   -0.460000       14.0070           0
     21513 WT9      1111     MECN     C1       CG331   -0.170000       12.0110           0
     21514 WT9      1111     MECN     H11      HGA3     0.090000        1.0080           0
     21515 WT9      1111     MECN     H12      HGA3     0.090000        1.0080           0
     21516 WT9      1111     MECN     H13      HGA3     0.090000        1.0080           0
     21517 WT9      1111     MECN     C2       CG1N1    0.360000       12.0110           0
     21518 WT9      1111     MECN     N3       NG1T1   -0.460000       14.0070           0
     21519 WT9      1114     MECN     C1       CG331   -0.170000       12.0110           0
     21520 WT9      1114     MECN     H11      HGA3     0.090000        1.0080           0
     21521 WT9      1114     MECN     H12      HGA3     0.090000        1.0080           0
     21522 WT9      1114     MECN     H13      HGA3     0.090000        1.0080           0
     21523 WT9      1114     MECN     C2       CG1N1    0.360000       12.0110           0
     21524 WT9      1114     MECN     N3       NG1T1   -0.460000       14.0070           0
     21525 WT9      1116     MECN     C1       CG331   -0.170000       12.0110           0
     21526 WT9      1116     MECN     H11      HGA3     0.090000        1.0080           0
     21527 WT9      1116     MECN     H12      HGA3     0.090000        1.0080           0
     21528 WT9      1116     MECN     H13      HGA3     0.090000        1.0080           0
     21529 WT9      1116     MECN     C2       CG1N1    0.360000       12.0110           0
     21530 WT9      1116     MECN     N3       NG1T1   -0.460000       14.0070           0
     21531 WT9      1117     MECN     C1       CG331   -0.170000       12.0110           0
     21532 WT9      1117     MECN     H11      HGA3     0.090000        1.0080           0
     21533 WT9      1117     MECN     H12      HGA3     0.090000        1.0080           0
     21534 WT9      1117     MECN     H13      HGA3     0.090000        1.0080           0
     21535 WT9      1117     MECN     C2       CG1N1    0.360000       12.0110           0
     21536 WT9      1117     MECN     N3       NG1T1   -0.460000       14.0070           0
     21537 WT9      1119     MECN     C1       CG331   -0.170000       12.0110           0
     21538 WT9      1119     MECN     H11      HGA3     0.090000        1.0080           0
     21539 WT9      1119     MECN     H12      HGA3     0.090000        1.0080           0
     21540 WT9      1119     MECN     H13      HGA3     0.090000        1.0080           0
     21541 WT9      1119     MECN     C2       CG1N1    0.360000       12.0110           0
     21542 WT9      1119     MECN     N3       NG1T1   -0.460000       14.0070           0
     21543 WT9      1128     MECN     C1       CG331   -0.170000       12.0110           0
     21544 WT9      1128     MECN     H11      HGA3     0.090000        1.0080           0
     21545 WT9      1128     MECN     H12      HGA3     0.090000        1.0080           0
     21546 WT9      1128     MECN     H13      HGA3     0.090000        1.0080           0
     21547 WT9      1128     MECN     C2       CG1N1    0.360000       12.0110           0
     21548 WT9      1128     MECN     N3       NG1T1   -0.460000       14.0070           0
     21549 WT9      1135     MECN     C1       CG331   -0.170000       12.0110           0
     21550 WT9      1135     MECN     H11      HGA3     0.090000        1.0080           0
     21551 WT9      1135     MECN     H12      HGA3     0.090000        1.0080           0
     21552 WT9      1135     MECN     H13      HGA3     0.090000        1.0080           0
     21553 WT9      1135     MECN     C2       CG1N1    0.360000       12.0110           0
     21554 WT9      1135     MECN     N3       NG1T1   -0.460000       14.0070           0
     21555 WT9      1136     MECN     C1       CG331   -0.170000       12.0110           0
     21556 WT9      1136     MECN     H11      HGA3     0.090000        1.0080           0
     21557 WT9      1136     MECN     H12      HGA3     0.090000        1.0080           0
     21558 WT9      1136     MECN     H13      HGA3     0.090000        1.0080           0
     21559 WT9      1136     MECN     C2       CG1N1    0.360000       12.0110           0
     21560 WT9      1136     MECN     N3       NG1T1   -0.460000       14.0070           0
     21561 WT9      1141     MECN     C1       CG331   -0.170000       12.0110           0
     21562 WT9      1141     MECN     H11      HGA3     0.090000        1.0080           0
     21563 WT9      1141     MECN     H12      HGA3     0.090000        1.0080           0
     21564 WT9      1141     MECN     H13      HGA3     0.090000        1.0080           0
     21565 WT9      1141     MECN     C2       CG1N1    0.360000       12.0110           0
     21566 WT9      1141     MECN     N3       NG1T1   -0.460000       14.0070           0
     21567 WT9      1144     MECN     C1       CG331   -0.170000       12.0110           0
     21568 WT9      1144     MECN     H11      HGA3     0.090000        1.0080           0
     21569 WT9      1144     MECN     H12      HGA3     0.090000        1.0080           0
     21570 WT9      1144     MECN     H13      HGA3     0.090000        1.0080           0
     21571 WT9      1144     MECN     C2       CG1N1    0.360000       12.0110           0
     21572 WT9      1144     MECN     N3       NG1T1   -0.460000       14.0070           0
     21573 WT9      1145     MECN     C1       CG331   -0.170000       12.0110           0
     21574 WT9      1145     MECN     H11      HGA3     0.090000        1.0080           0
     21575 WT9      1145     MECN     H12      HGA3     0.090000        1.0080           0
     21576 WT9      1145     MECN     H13      HGA3     0.090000        1.0080           0
     21577 WT9      1145     MECN     C2       CG1N1    0.360000       12.0110           0
     21578 WT9      1145     MECN     N3       NG1T1   -0.460000       14.0070           0
     21579 WT9      1147     MECN     C1       CG331   -0.170000       12.0110           0
     21580 WT9      1147     MECN     H11      HGA3     0.090000        1.0080           0
     21581 WT9      1147     MECN     H12      HGA3     0.090000        1.0080           0
     21582 WT9      1147     MECN     H13      HGA3     0.090000        1.0080           0
     21583 WT9      1147     MECN     C2       CG1N1    0.360000       12.0110           0
     21584 WT9      1147     MECN     N3       NG1T1   -0.460000       14.0070           0
     21585 WT9      1150     MECN     C1       CG331   -0.170000       12.0110           0
     21586 WT9      1150     MECN     H11      HGA3     0.090000        1.0080           0
     21587 WT9      1150     MECN     H12      HGA3     0.090000        1.0080           0
     21588 WT9      1150     MECN     H13      HGA3     0.090000        1.0080           0
     21589 WT9      1150     MECN     C2       CG1N1    0.360000       12.0110           0
     21590 WT9      1150     MECN     N3       NG1T1   -0.460000       14.0070           0
     21591 WT9      1152     MECN     C1       CG331   -0.170000       12.0110           0
     21592 WT9      1152     MECN     H11      HGA3     0.090000        1.0080           0
     21593 WT9      1152     MECN     H12      HGA3     0.090000        1.0080           0
     21594 WT9      1152     MECN     H13      HGA3     0.090000        1.0080           0
     21595 WT9      1152     MECN     C2       CG1N1    0.360000       12.0110           0
     21596 WT9      1152     MECN     N3       NG1T1   -0.460000       14.0070           0
     21597 WT9      1154     MECN     C1       CG331   -0.170000       12.0110           0
     21598 WT9      1154     MECN     H11      HGA3     0.090000        1.0080           0
     21599 WT9      1154     MECN     H12      HGA3     0.090000        1.0080           0
     21600 WT9      1154     MECN     H13      HGA3     0.090000        1.0080           0
     21601 WT9      1154     MECN     C2       CG1N1    0.360000       12.0110           0
     21602 WT9      1154     MECN     N3       NG1T1   -0.460000       14.0070           0
     21603 WT9      1156     MECN     C1       CG331   -0.170000       12.0110           0
     21604 WT9      1156     MECN     H11      HGA3     0.090000        1.0080           0
     21605 WT9      1156     MECN     H12      HGA3     0.090000        1.0080           0
     21606 WT9      1156     MECN     H13      HGA3     0.090000        1.0080           0
     21607 WT9      1156     MECN     C2       CG1N1    0.360000       12.0110           0
     21608 WT9      1156     MECN     N3       NG1T1   -0.460000       14.0070           0
     21609 WT9      1159     MECN     C1       CG331   -0.170000       12.0110           0
     21610 WT9      1159     MECN     H11      HGA3     0.090000        1.0080           0
     21611 WT9      1159     MECN     H12      HGA3     0.090000        1.0080           0
     21612 WT9      1159     MECN     H13      HGA3     0.090000        1.0080           0
     21613 WT9      1159     MECN     C2       CG1N1    0.360000       12.0110           0
     21614 WT9      1159     MECN     N3       NG1T1   -0.460000       14.0070           0
     21615 WT9      1160     MECN     C1       CG331   -0.170000       12.0110           0
     21616 WT9      1160     MECN     H11      HGA3     0.090000        1.0080           0
     21617 WT9      1160     MECN     H12      HGA3     0.090000        1.0080           0
     21618 WT9      1160     MECN     H13      HGA3     0.090000        1.0080           0
     21619 WT9      1160     MECN     C2       CG1N1    0.360000       12.0110           0
     21620 WT9      1160     MECN     N3       NG1T1   -0.460000       14.0070           0
     21621 WT9      1175     MECN     C1       CG331   -0.170000       12.0110           0
     21622 WT9      1175     MECN     H11      HGA3     0.090000        1.0080           0
     21623 WT9      1175     MECN     H12      HGA3     0.090000        1.0080           0
     21624 WT9      1175     MECN     H13      HGA3     0.090000        1.0080           0
     21625 WT9      1175     MECN     C2       CG1N1    0.360000       12.0110           0
     21626 WT9      1175     MECN     N3       NG1T1   -0.460000       14.0070           0
     21627 WT9      1176     MECN     C1       CG331   -0.170000       12.0110           0
     21628 WT9      1176     MECN     H11      HGA3     0.090000        1.0080           0
     21629 WT9      1176     MECN     H12      HGA3     0.090000        1.0080           0
     21630 WT9      1176     MECN     H13      HGA3     0.090000        1.0080           0
     21631 WT9      1176     MECN     C2       CG1N1    0.360000       12.0110           0
     21632 WT9      1176     MECN     N3       NG1T1   -0.460000       14.0070           0
     21633 WT9      1177     MECN     C1       CG331   -0.170000       12.0110           0
     21634 WT9      1177     MECN     H11      HGA3     0.090000        1.0080           0
     21635 WT9      1177     MECN     H12      HGA3     0.090000        1.0080           0
     21636 WT9      1177     MECN     H13      HGA3     0.090000        1.0080           0
     21637 WT9      1177     MECN     C2       CG1N1    0.360000       12.0110           0
     21638 WT9      1177     MECN     N3       NG1T1   -0.460000       14.0070           0
     21639 WT9      1182     MECN     C1       CG331   -0.170000       12.0110           0
     21640 WT9      1182     MECN     H11      HGA3     0.090000        1.0080           0
     21641 WT9      1182     MECN     H12      HGA3     0.090000        1.0080           0
     21642 WT9      1182     MECN     H13      HGA3     0.090000        1.0080           0
     21643 WT9      1182     MECN     C2       CG1N1    0.360000       12.0110           0
     21644 WT9      1182     MECN     N3       NG1T1   -0.460000       14.0070           0
     21645 WT9      1183     MECN     C1       CG331   -0.170000       12.0110           0
     21646 WT9      1183     MECN     H11      HGA3     0.090000        1.0080           0
     21647 WT9      1183     MECN     H12      HGA3     0.090000        1.0080           0
     21648 WT9      1183     MECN     H13      HGA3     0.090000        1.0080           0
     21649 WT9      1183     MECN     C2       CG1N1    0.360000       12.0110           0
     21650 WT9      1183     MECN     N3       NG1T1   -0.460000       14.0070           0
     21651 WT9      1186     MECN     C1       CG331   -0.170000       12.0110           0
     21652 WT9      1186     MECN     H11      HGA3     0.090000        1.0080           0
     21653 WT9      1186     MECN     H12      HGA3     0.090000        1.0080           0
     21654 WT9      1186     MECN     H13      HGA3     0.090000        1.0080           0
     21655 WT9      1186     MECN     C2       CG1N1    0.360000       12.0110           0
     21656 WT9      1186     MECN     N3       NG1T1   -0.460000       14.0070           0
     21657 WT9      1194     MECN     C1       CG331   -0.170000       12.0110           0
     21658 WT9      1194     MECN     H11      HGA3     0.090000        1.0080           0
     21659 WT9      1194     MECN     H12      HGA3     0.090000        1.0080           0
     21660 WT9      1194     MECN     H13      HGA3     0.090000        1.0080           0
     21661 WT9      1194     MECN     C2       CG1N1    0.360000       12.0110           0
     21662 WT9      1194     MECN     N3       NG1T1   -0.460000       14.0070           0
     21663 WT9      1196     MECN     C1       CG331   -0.170000       12.0110           0
     21664 WT9      1196     MECN     H11      HGA3     0.090000        1.0080           0
     21665 WT9      1196     MECN     H12      HGA3     0.090000        1.0080           0
     21666 WT9      1196     MECN     H13      HGA3     0.090000        1.0080           0
     21667 WT9      1196     MECN     C2       CG1N1    0.360000       12.0110           0
     21668 WT9      1196     MECN     N3       NG1T1   -0.460000       14.0070           0
     21669 WT9      1201     MECN     C1       CG331   -0.170000       12.0110           0
     21670 WT9      1201     MECN     H11      HGA3     0.090000        1.0080           0
     21671 WT9      1201     MECN     H12      HGA3     0.090000        1.0080           0
     21672 WT9      1201     MECN     H13      HGA3     0.090000        1.0080           0
     21673 WT9      1201     MECN     C2       CG1N1    0.360000       12.0110           0
     21674 WT9      1201     MECN     N3       NG1T1   -0.460000       14.0070           0
     21675 WT9      1207     MECN     C1       CG331   -0.170000       12.0110           0
     21676 WT9      1207     MECN     H11      HGA3     0.090000        1.0080           0
     21677 WT9      1207     MECN     H12      HGA3     0.090000        1.0080           0
     21678 WT9      1207     MECN     H13      HGA3     0.090000        1.0080           0
     21679 WT9      1207     MECN     C2       CG1N1    0.360000       12.0110           0
     21680 WT9      1207     MECN     N3       NG1T1   -0.460000       14.0070           0
     21681 WT9      1208     MECN     C1       CG331   -0.170000       12.0110           0
     21682 WT9      1208     MECN     H11      HGA3     0.090000        1.0080           0
     21683 WT9      1208     MECN     H12      HGA3     0.090000        1.0080           0
     21684 WT9      1208     MECN     H13      HGA3     0.090000        1.0080           0
     21685 WT9      1208     MECN     C2       CG1N1    0.360000       12.0110           0
     21686 WT9      1208     MECN     N3       NG1T1   -0.460000       14.0070           0
     21687 WT9      1209     MECN     C1       CG331   -0.170000       12.0110           0
     21688 WT9      1209     MECN     H11      HGA3     0.090000        1.0080           0
     21689 WT9      1209     MECN     H12      HGA3     0.090000        1.0080           0
     21690 WT9      1209     MECN     H13      HGA3     0.090000        1.0080           0
     21691 WT9      1209     MECN     C2       CG1N1    0.360000       12.0110           0
     21692 WT9      1209     MECN     N3       NG1T1   -0.460000       14.0070           0
     21693 WT9      1215     MECN     C1       CG331   -0.170000       12.0110           0
     21694 WT9      1215     MECN     H11      HGA3     0.090000        1.0080           0
     21695 WT9      1215     MECN     H12      HGA3     0.090000        1.0080           0
     21696 WT9      1215     MECN     H13      HGA3     0.090000        1.0080           0
     21697 WT9      1215     MECN     C2       CG1N1    0.360000       12.0110           0
     21698 WT9      1215     MECN     N3       NG1T1   -0.460000       14.0070           0
     21699 WT9      1221     MECN     C1       CG331   -0.170000       12.0110           0
     21700 WT9      1221     MECN     H11      HGA3     0.090000        1.0080           0
     21701 WT9      1221     MECN     H12      HGA3     0.090000        1.0080           0
     21702 WT9      1221     MECN     H13      HGA3     0.090000        1.0080           0
     21703 WT9      1221     MECN     C2       CG1N1    0.360000       12.0110           0
     21704 WT9      1221     MECN     N3       NG1T1   -0.460000       14.0070           0
     21705 WT9      1233     MECN     C1       CG331   -0.170000       12.0110           0
     21706 WT9      1233     MECN     H11      HGA3     0.090000        1.0080           0
     21707 WT9      1233     MECN     H12      HGA3     0.090000        1.0080           0
     21708 WT9      1233     MECN     H13      HGA3     0.090000        1.0080           0
     21709 WT9      1233     MECN     C2       CG1N1    0.360000       12.0110           0
     21710 WT9      1233     MECN     N3       NG1T1   -0.460000       14.0070           0
     21711 WT9      1234     MECN     C1       CG331   -0.170000       12.0110           0
     21712 WT9      1234     MECN     H11      HGA3     0.090000        1.0080           0
     21713 WT9      1234     MECN     H12      HGA3     0.090000        1.0080           0
     21714 WT9      1234     MECN     H13      HGA3     0.090000        1.0080           0
     21715 WT9      1234     MECN     C2       CG1N1    0.360000       12.0110           0
     21716 WT9      1234     MECN     N3       NG1T1   -0.460000       14.0070           0
     21717 WT9      1241     MECN     C1       CG331   -0.170000       12.0110           0
     21718 WT9      1241     MECN     H11      HGA3     0.090000        1.0080           0
     21719 WT9      1241     MECN     H12      HGA3     0.090000        1.0080           0
     21720 WT9      1241     MECN     H13      HGA3     0.090000        1.0080           0
     21721 WT9      1241     MECN     C2       CG1N1    0.360000       12.0110           0
     21722 WT9      1241     MECN     N3       NG1T1   -0.460000       14.0070           0
     21723 WT9      1243     MECN     C1       CG331   -0.170000       12.0110           0
     21724 WT9      1243     MECN     H11      HGA3     0.090000        1.0080           0
     21725 WT9      1243     MECN     H12      HGA3     0.090000        1.0080           0
     21726 WT9      1243     MECN     H13      HGA3     0.090000        1.0080           0
     21727 WT9      1243     MECN     C2       CG1N1    0.360000       12.0110           0
     21728 WT9      1243     MECN     N3       NG1T1   -0.460000       14.0070           0
     21729 WT9      1245     MECN     C1       CG331   -0.170000       12.0110           0
     21730 WT9      1245     MECN     H11      HGA3     0.090000        1.0080           0
     21731 WT9      1245     MECN     H12      HGA3     0.090000        1.0080           0
     21732 WT9      1245     MECN     H13      HGA3     0.090000        1.0080           0
     21733 WT9      1245     MECN     C2       CG1N1    0.360000       12.0110           0
     21734 WT9      1245     MECN     N3       NG1T1   -0.460000       14.0070           0
     21735 WT9      1248     MECN     C1       CG331   -0.170000       12.0110           0
     21736 WT9      1248     MECN     H11      HGA3     0.090000        1.0080           0
     21737 WT9      1248     MECN     H12      HGA3     0.090000        1.0080           0
     21738 WT9      1248     MECN     H13      HGA3     0.090000        1.0080           0
     21739 WT9      1248     MECN     C2       CG1N1    0.360000       12.0110           0
     21740 WT9      1248     MECN     N3       NG1T1   -0.460000       14.0070           0
     21741 WT9      1251     MECN     C1       CG331   -0.170000       12.0110           0
     21742 WT9      1251     MECN     H11      HGA3     0.090000        1.0080           0
     21743 WT9      1251     MECN     H12      HGA3     0.090000        1.0080           0
     21744 WT9      1251     MECN     H13      HGA3     0.090000        1.0080           0
     21745 WT9      1251     MECN     C2       CG1N1    0.360000       12.0110           0
     21746 WT9      1251     MECN     N3       NG1T1   -0.460000       14.0070           0
     21747 WT9      1258     MECN     C1       CG331   -0.170000       12.0110           0
     21748 WT9      1258     MECN     H11      HGA3     0.090000        1.0080           0
     21749 WT9      1258     MECN     H12      HGA3     0.090000        1.0080           0
     21750 WT9      1258     MECN     H13      HGA3     0.090000        1.0080           0
     21751 WT9      1258     MECN     C2       CG1N1    0.360000       12.0110           0
     21752 WT9      1258     MECN     N3       NG1T1   -0.460000       14.0070           0
     21753 WT9      1260     MECN     C1       CG331   -0.170000       12.0110           0
     21754 WT9      1260     MECN     H11      HGA3     0.090000        1.0080           0
     21755 WT9      1260     MECN     H12      HGA3     0.090000        1.0080           0
     21756 WT9      1260     MECN     H13      HGA3     0.090000        1.0080           0
     21757 WT9      1260     MECN     C2       CG1N1    0.360000       12.0110           0
     21758 WT9      1260     MECN     N3       NG1T1   -0.460000       14.0070           0
     21759 WT9      1263     MECN     C1       CG331   -0.170000       12.0110           0
     21760 WT9      1263     MECN     H11      HGA3     0.090000        1.0080           0
     21761 WT9      1263     MECN     H12      HGA3     0.090000        1.0080           0
     21762 WT9      1263     MECN     H13      HGA3     0.090000        1.0080           0
     21763 WT9      1263     MECN     C2       CG1N1    0.360000       12.0110           0
     21764 WT9      1263     MECN     N3       NG1T1   -0.460000       14.0070           0
     21765 WT9      1282     MECN     C1       CG331   -0.170000       12.0110           0
     21766 WT9      1282     MECN     H11      HGA3     0.090000        1.0080           0
     21767 WT9      1282     MECN     H12      HGA3     0.090000        1.0080           0
     21768 WT9      1282     MECN     H13      HGA3     0.090000        1.0080           0
     21769 WT9      1282     MECN     C2       CG1N1    0.360000       12.0110           0
     21770 WT9      1282     MECN     N3       NG1T1   -0.460000       14.0070           0
     21771 WT9      1285     MECN     C1       CG331   -0.170000       12.0110           0
     21772 WT9      1285     MECN     H11      HGA3     0.090000        1.0080           0
     21773 WT9      1285     MECN     H12      HGA3     0.090000        1.0080           0
     21774 WT9      1285     MECN     H13      HGA3     0.090000        1.0080           0
     21775 WT9      1285     MECN     C2       CG1N1    0.360000       12.0110           0
     21776 WT9      1285     MECN     N3       NG1T1   -0.460000       14.0070           0
     21777 WT9      1312     MECN     C1       CG331   -0.170000       12.0110           0
     21778 WT9      1312     MECN     H11      HGA3     0.090000        1.0080           0
     21779 WT9      1312     MECN     H12      HGA3     0.090000        1.0080           0
     21780 WT9      1312     MECN     H13      HGA3     0.090000        1.0080           0
     21781 WT9      1312     MECN     C2       CG1N1    0.360000       12.0110           0
     21782 WT9      1312     MECN     N3       NG1T1   -0.460000       14.0070           0
     21783 WT9      1314     MECN     C1       CG331   -0.170000       12.0110           0
     21784 WT9      1314     MECN     H11      HGA3     0.090000        1.0080           0
     21785 WT9      1314     MECN     H12      HGA3     0.090000        1.0080           0
     21786 WT9      1314     MECN     H13      HGA3     0.090000        1.0080           0
     21787 WT9      1314     MECN     C2       CG1N1    0.360000       12.0110           0
     21788 WT9      1314     MECN     N3       NG1T1   -0.460000       14.0070           0
     21789 WT9      1320     MECN     C1       CG331   -0.170000       12.0110           0
     21790 WT9      1320     MECN     H11      HGA3     0.090000        1.0080           0
     21791 WT9      1320     MECN     H12      HGA3     0.090000        1.0080           0
     21792 WT9      1320     MECN     H13      HGA3     0.090000        1.0080           0
     21793 WT9      1320     MECN     C2       CG1N1    0.360000       12.0110           0
     21794 WT9      1320     MECN     N3       NG1T1   -0.460000       14.0070           0
     21795 WT9      1329     MECN     C1       CG331   -0.170000       12.0110           0
     21796 WT9      1329     MECN     H11      HGA3     0.090000        1.0080           0
     21797 WT9      1329     MECN     H12      HGA3     0.090000        1.0080           0
     21798 WT9      1329     MECN     H13      HGA3     0.090000        1.0080           0
     21799 WT9      1329     MECN     C2       CG1N1    0.360000       12.0110           0
     21800 WT9      1329     MECN     N3       NG1T1   -0.460000       14.0070           0
     21801 WT10     7        MECN     C1       CG331   -0.170000       12.0110           0
     21802 WT10     7        MECN     H11      HGA3     0.090000        1.0080           0
     21803 WT10     7        MECN     H12      HGA3     0.090000        1.0080           0
     21804 WT10     7        MECN     H13      HGA3     0.090000        1.0080           0
     21805 WT10     7        MECN     C2       CG1N1    0.360000       12.0110           0
     21806 WT10     7        MECN     N3       NG1T1   -0.460000       14.0070           0
     21807 WT10     9        MECN     C1       CG331   -0.170000       12.0110           0
     21808 WT10     9        MECN     H11      HGA3     0.090000        1.0080           0
     21809 WT10     9        MECN     H12      HGA3     0.090000        1.0080           0
     21810 WT10     9        MECN     H13      HGA3     0.090000        1.0080           0
     21811 WT10     9        MECN     C2       CG1N1    0.360000       12.0110           0
     21812 WT10     9        MECN     N3       NG1T1   -0.460000       14.0070           0
     21813 WT10     16       MECN     C1       CG331   -0.170000       12.0110           0
     21814 WT10     16       MECN     H11      HGA3     0.090000        1.0080           0
     21815 WT10     16       MECN     H12      HGA3     0.090000        1.0080           0
     21816 WT10     16       MECN     H13      HGA3     0.090000        1.0080           0
     21817 WT10     16       MECN     C2       CG1N1    0.360000       12.0110           0
     21818 WT10     16       MECN     N3       NG1T1   -0.460000       14.0070           0
     21819 WT10     23       MECN     C1       CG331   -0.170000       12.0110           0
     21820 WT10     23       MECN     H11      HGA3     0.090000        1.0080           0
     21821 WT10     23       MECN     H12      HGA3     0.090000        1.0080           0
     21822 WT10     23       MECN     H13      HGA3     0.090000        1.0080           0
     21823 WT10     23       MECN     C2       CG1N1    0.360000       12.0110           0
     21824 WT10     23       MECN     N3       NG1T1   -0.460000       14.0070           0
     21825 WT10     31       MECN     C1       CG331   -0.170000       12.0110           0
     21826 WT10     31       MECN     H11      HGA3     0.090000        1.0080           0
     21827 WT10     31       MECN     H12      HGA3     0.090000        1.0080           0
     21828 WT10     31       MECN     H13      HGA3     0.090000        1.0080           0
     21829 WT10     31       MECN     C2       CG1N1    0.360000       12.0110           0
     21830 WT10     31       MECN     N3       NG1T1   -0.460000       14.0070           0
     21831 WT10     38       MECN     C1       CG331   -0.170000       12.0110           0
     21832 WT10     38       MECN     H11      HGA3     0.090000        1.0080           0
     21833 WT10     38       MECN     H12      HGA3     0.090000        1.0080           0
     21834 WT10     38       MECN     H13      HGA3     0.090000        1.0080           0
     21835 WT10     38       MECN     C2       CG1N1    0.360000       12.0110           0
     21836 WT10     38       MECN     N3       NG1T1   -0.460000       14.0070           0
     21837 WT10     50       MECN     C1       CG331   -0.170000       12.0110           0
     21838 WT10     50       MECN     H11      HGA3     0.090000        1.0080           0
     21839 WT10     50       MECN     H12      HGA3     0.090000        1.0080           0
     21840 WT10     50       MECN     H13      HGA3     0.090000        1.0080           0
     21841 WT10     50       MECN     C2       CG1N1    0.360000       12.0110           0
     21842 WT10     50       MECN     N3       NG1T1   -0.460000       14.0070           0
     21843 WT10     52       MECN     C1       CG331   -0.170000       12.0110           0
     21844 WT10     52       MECN     H11      HGA3     0.090000        1.0080           0
     21845 WT10     52       MECN     H12      HGA3     0.090000        1.0080           0
     21846 WT10     52       MECN     H13      HGA3     0.090000        1.0080           0
     21847 WT10     52       MECN     C2       CG1N1    0.360000       12.0110           0
     21848 WT10     52       MECN     N3       NG1T1   -0.460000       14.0070           0
     21849 WT10     54       MECN     C1       CG331   -0.170000       12.0110           0
     21850 WT10     54       MECN     H11      HGA3     0.090000        1.0080           0
     21851 WT10     54       MECN     H12      HGA3     0.090000        1.0080           0
     21852 WT10     54       MECN     H13      HGA3     0.090000        1.0080           0
     21853 WT10     54       MECN     C2       CG1N1    0.360000       12.0110           0
     21854 WT10     54       MECN     N3       NG1T1   -0.460000       14.0070           0
     21855 WT10     56       MECN     C1       CG331   -0.170000       12.0110           0
     21856 WT10     56       MECN     H11      HGA3     0.090000        1.0080           0
     21857 WT10     56       MECN     H12      HGA3     0.090000        1.0080           0
     21858 WT10     56       MECN     H13      HGA3     0.090000        1.0080           0
     21859 WT10     56       MECN     C2       CG1N1    0.360000       12.0110           0
     21860 WT10     56       MECN     N3       NG1T1   -0.460000       14.0070           0
     21861 WT10     57       MECN     C1       CG331   -0.170000       12.0110           0
     21862 WT10     57       MECN     H11      HGA3     0.090000        1.0080           0
     21863 WT10     57       MECN     H12      HGA3     0.090000        1.0080           0
     21864 WT10     57       MECN     H13      HGA3     0.090000        1.0080           0
     21865 WT10     57       MECN     C2       CG1N1    0.360000       12.0110           0
     21866 WT10     57       MECN     N3       NG1T1   -0.460000       14.0070           0
     21867 WT10     58       MECN     C1       CG331   -0.170000       12.0110           0
     21868 WT10     58       MECN     H11      HGA3     0.090000        1.0080           0
     21869 WT10     58       MECN     H12      HGA3     0.090000        1.0080           0
     21870 WT10     58       MECN     H13      HGA3     0.090000        1.0080           0
     21871 WT10     58       MECN     C2       CG1N1    0.360000       12.0110           0
     21872 WT10     58       MECN     N3       NG1T1   -0.460000       14.0070           0
     21873 WT10     59       MECN     C1       CG331   -0.170000       12.0110           0
     21874 WT10     59       MECN     H11      HGA3     0.090000        1.0080           0
     21875 WT10     59       MECN     H12      HGA3     0.090000        1.0080           0
     21876 WT10     59       MECN     H13      HGA3     0.090000        1.0080           0
     21877 WT10     59       MECN     C2       CG1N1    0.360000       12.0110           0
     21878 WT10     59       MECN     N3       NG1T1   -0.460000       14.0070           0
     21879 WT10     63       MECN     C1       CG331   -0.170000       12.0110           0
     21880 WT10     63       MECN     H11      HGA3     0.090000        1.0080           0
     21881 WT10     63       MECN     H12      HGA3     0.090000        1.0080           0
     21882 WT10     63       MECN     H13      HGA3     0.090000        1.0080           0
     21883 WT10     63       MECN     C2       CG1N1    0.360000       12.0110           0
     21884 WT10     63       MECN     N3       NG1T1   -0.460000       14.0070           0
     21885 WT10     71       MECN     C1       CG331   -0.170000       12.0110           0
     21886 WT10     71       MECN     H11      HGA3     0.090000        1.0080           0
     21887 WT10     71       MECN     H12      HGA3     0.090000        1.0080           0
     21888 WT10     71       MECN     H13      HGA3     0.090000        1.0080           0
     21889 WT10     71       MECN     C2       CG1N1    0.360000       12.0110           0
     21890 WT10     71       MECN     N3       NG1T1   -0.460000       14.0070           0
     21891 WT10     76       MECN     C1       CG331   -0.170000       12.0110           0
     21892 WT10     76       MECN     H11      HGA3     0.090000        1.0080           0
     21893 WT10     76       MECN     H12      HGA3     0.090000        1.0080           0
     21894 WT10     76       MECN     H13      HGA3     0.090000        1.0080           0
     21895 WT10     76       MECN     C2       CG1N1    0.360000       12.0110           0
     21896 WT10     76       MECN     N3       NG1T1   -0.460000       14.0070           0
     21897 WT10     79       MECN     C1       CG331   -0.170000       12.0110           0
     21898 WT10     79       MECN     H11      HGA3     0.090000        1.0080           0
     21899 WT10     79       MECN     H12      HGA3     0.090000        1.0080           0
     21900 WT10     79       MECN     H13      HGA3     0.090000        1.0080           0
     21901 WT10     79       MECN     C2       CG1N1    0.360000       12.0110           0
     21902 WT10     79       MECN     N3       NG1T1   -0.460000       14.0070           0
     21903 WT10     81       MECN     C1       CG331   -0.170000       12.0110           0
     21904 WT10     81       MECN     H11      HGA3     0.090000        1.0080           0
     21905 WT10     81       MECN     H12      HGA3     0.090000        1.0080           0
     21906 WT10     81       MECN     H13      HGA3     0.090000        1.0080           0
     21907 WT10     81       MECN     C2       CG1N1    0.360000       12.0110           0
     21908 WT10     81       MECN     N3       NG1T1   -0.460000       14.0070           0
     21909 WT10     83       MECN     C1       CG331   -0.170000       12.0110           0
     21910 WT10     83       MECN     H11      HGA3     0.090000        1.0080           0
     21911 WT10     83       MECN     H12      HGA3     0.090000        1.0080           0
     21912 WT10     83       MECN     H13      HGA3     0.090000        1.0080           0
     21913 WT10     83       MECN     C2       CG1N1    0.360000       12.0110           0
     21914 WT10     83       MECN     N3       NG1T1   -0.460000       14.0070           0
     21915 WT10     92       MECN     C1       CG331   -0.170000       12.0110           0
     21916 WT10     92       MECN     H11      HGA3     0.090000        1.0080           0
     21917 WT10     92       MECN     H12      HGA3     0.090000        1.0080           0
     21918 WT10     92       MECN     H13      HGA3     0.090000        1.0080           0
     21919 WT10     92       MECN     C2       CG1N1    0.360000       12.0110           0
     21920 WT10     92       MECN     N3       NG1T1   -0.460000       14.0070           0
     21921 WT10     96       MECN     C1       CG331   -0.170000       12.0110           0
     21922 WT10     96       MECN     H11      HGA3     0.090000        1.0080           0
     21923 WT10     96       MECN     H12      HGA3     0.090000        1.0080           0
     21924 WT10     96       MECN     H13      HGA3     0.090000        1.0080           0
     21925 WT10     96       MECN     C2       CG1N1    0.360000       12.0110           0
     21926 WT10     96       MECN     N3       NG1T1   -0.460000       14.0070           0
     21927 WT10     105      MECN     C1       CG331   -0.170000       12.0110           0
     21928 WT10     105      MECN     H11      HGA3     0.090000        1.0080           0
     21929 WT10     105      MECN     H12      HGA3     0.090000        1.0080           0
     21930 WT10     105      MECN     H13      HGA3     0.090000        1.0080           0
     21931 WT10     105      MECN     C2       CG1N1    0.360000       12.0110           0
     21932 WT10     105      MECN     N3       NG1T1   -0.460000       14.0070           0
     21933 WT10     108      MECN     C1       CG331   -0.170000       12.0110           0
     21934 WT10     108      MECN     H11      HGA3     0.090000        1.0080           0
     21935 WT10     108      MECN     H12      HGA3     0.090000        1.0080           0
     21936 WT10     108      MECN     H13      HGA3     0.090000        1.0080           0
     21937 WT10     108      MECN     C2       CG1N1    0.360000       12.0110           0
     21938 WT10     108      MECN     N3       NG1T1   -0.460000       14.0070           0
     21939 WT10     111      MECN     C1       CG331   -0.170000       12.0110           0
     21940 WT10     111      MECN     H11      HGA3     0.090000        1.0080           0
     21941 WT10     111      MECN     H12      HGA3     0.090000        1.0080           0
     21942 WT10     111      MECN     H13      HGA3     0.090000        1.0080           0
     21943 WT10     111      MECN     C2       CG1N1    0.360000       12.0110           0
     21944 WT10     111      MECN     N3       NG1T1   -0.460000       14.0070           0
     21945 WT10     112      MECN     C1       CG331   -0.170000       12.0110           0
     21946 WT10     112      MECN     H11      HGA3     0.090000        1.0080           0
     21947 WT10     112      MECN     H12      HGA3     0.090000        1.0080           0
     21948 WT10     112      MECN     H13      HGA3     0.090000        1.0080           0
     21949 WT10     112      MECN     C2       CG1N1    0.360000       12.0110           0
     21950 WT10     112      MECN     N3       NG1T1   -0.460000       14.0070           0
     21951 WT10     115      MECN     C1       CG331   -0.170000       12.0110           0
     21952 WT10     115      MECN     H11      HGA3     0.090000        1.0080           0
     21953 WT10     115      MECN     H12      HGA3     0.090000        1.0080           0
     21954 WT10     115      MECN     H13      HGA3     0.090000        1.0080           0
     21955 WT10     115      MECN     C2       CG1N1    0.360000       12.0110           0
     21956 WT10     115      MECN     N3       NG1T1   -0.460000       14.0070           0
     21957 WT10     117      MECN     C1       CG331   -0.170000       12.0110           0
     21958 WT10     117      MECN     H11      HGA3     0.090000        1.0080           0
     21959 WT10     117      MECN     H12      HGA3     0.090000        1.0080           0
     21960 WT10     117      MECN     H13      HGA3     0.090000        1.0080           0
     21961 WT10     117      MECN     C2       CG1N1    0.360000       12.0110           0
     21962 WT10     117      MECN     N3       NG1T1   -0.460000       14.0070           0
     21963 WT10     118      MECN     C1       CG331   -0.170000       12.0110           0
     21964 WT10     118      MECN     H11      HGA3     0.090000        1.0080           0
     21965 WT10     118      MECN     H12      HGA3     0.090000        1.0080           0
     21966 WT10     118      MECN     H13      HGA3     0.090000        1.0080           0
     21967 WT10     118      MECN     C2       CG1N1    0.360000       12.0110           0
     21968 WT10     118      MECN     N3       NG1T1   -0.460000       14.0070           0
     21969 WT10     120      MECN     C1       CG331   -0.170000       12.0110           0
     21970 WT10     120      MECN     H11      HGA3     0.090000        1.0080           0
     21971 WT10     120      MECN     H12      HGA3     0.090000        1.0080           0
     21972 WT10     120      MECN     H13      HGA3     0.090000        1.0080           0
     21973 WT10     120      MECN     C2       CG1N1    0.360000       12.0110           0
     21974 WT10     120      MECN     N3       NG1T1   -0.460000       14.0070           0
     21975 WT10     121      MECN     C1       CG331   -0.170000       12.0110           0
     21976 WT10     121      MECN     H11      HGA3     0.090000        1.0080           0
     21977 WT10     121      MECN     H12      HGA3     0.090000        1.0080           0
     21978 WT10     121      MECN     H13      HGA3     0.090000        1.0080           0
     21979 WT10     121      MECN     C2       CG1N1    0.360000       12.0110           0
     21980 WT10     121      MECN     N3       NG1T1   -0.460000       14.0070           0
     21981 WT10     129      MECN     C1       CG331   -0.170000       12.0110           0
     21982 WT10     129      MECN     H11      HGA3     0.090000        1.0080           0
     21983 WT10     129      MECN     H12      HGA3     0.090000        1.0080           0
     21984 WT10     129      MECN     H13      HGA3     0.090000        1.0080           0
     21985 WT10     129      MECN     C2       CG1N1    0.360000       12.0110           0
     21986 WT10     129      MECN     N3       NG1T1   -0.460000       14.0070           0
     21987 WT10     134      MECN     C1       CG331   -0.170000       12.0110           0
     21988 WT10     134      MECN     H11      HGA3     0.090000        1.0080           0
     21989 WT10     134      MECN     H12      HGA3     0.090000        1.0080           0
     21990 WT10     134      MECN     H13      HGA3     0.090000        1.0080           0
     21991 WT10     134      MECN     C2       CG1N1    0.360000       12.0110           0
     21992 WT10     134      MECN     N3       NG1T1   -0.460000       14.0070           0
     21993 WT10     138      MECN     C1       CG331   -0.170000       12.0110           0
     21994 WT10     138      MECN     H11      HGA3     0.090000        1.0080           0
     21995 WT10     138      MECN     H12      HGA3     0.090000        1.0080           0
     21996 WT10     138      MECN     H13      HGA3     0.090000        1.0080           0
     21997 WT10     138      MECN     C2       CG1N1    0.360000       12.0110           0
     21998 WT10     138      MECN     N3       NG1T1   -0.460000       14.0070           0
     21999 WT10     147      MECN     C1       CG331   -0.170000       12.0110           0
     22000 WT10     147      MECN     H11      HGA3     0.090000        1.0080           0
     22001 WT10     147      MECN     H12      HGA3     0.090000        1.0080           0
     22002 WT10     147      MECN     H13      HGA3     0.090000        1.0080           0
     22003 WT10     147      MECN     C2       CG1N1    0.360000       12.0110           0
     22004 WT10     147      MECN     N3       NG1T1   -0.460000       14.0070           0
     22005 WT10     151      MECN     C1       CG331   -0.170000       12.0110           0
     22006 WT10     151      MECN     H11      HGA3     0.090000        1.0080           0
     22007 WT10     151      MECN     H12      HGA3     0.090000        1.0080           0
     22008 WT10     151      MECN     H13      HGA3     0.090000        1.0080           0
     22009 WT10     151      MECN     C2       CG1N1    0.360000       12.0110           0
     22010 WT10     151      MECN     N3       NG1T1   -0.460000       14.0070           0
     22011 WT10     159      MECN     C1       CG331   -0.170000       12.0110           0
     22012 WT10     159      MECN     H11      HGA3     0.090000        1.0080           0
     22013 WT10     159      MECN     H12      HGA3     0.090000        1.0080           0
     22014 WT10     159      MECN     H13      HGA3     0.090000        1.0080           0
     22015 WT10     159      MECN     C2       CG1N1    0.360000       12.0110           0
     22016 WT10     159      MECN     N3       NG1T1   -0.460000       14.0070           0
     22017 WT10     171      MECN     C1       CG331   -0.170000       12.0110           0
     22018 WT10     171      MECN     H11      HGA3     0.090000        1.0080           0
     22019 WT10     171      MECN     H12      HGA3     0.090000        1.0080           0
     22020 WT10     171      MECN     H13      HGA3     0.090000        1.0080           0
     22021 WT10     171      MECN     C2       CG1N1    0.360000       12.0110           0
     22022 WT10     171      MECN     N3       NG1T1   -0.460000       14.0070           0
     22023 WT10     173      MECN     C1       CG331   -0.170000       12.0110           0
     22024 WT10     173      MECN     H11      HGA3     0.090000        1.0080           0
     22025 WT10     173      MECN     H12      HGA3     0.090000        1.0080           0
     22026 WT10     173      MECN     H13      HGA3     0.090000        1.0080           0
     22027 WT10     173      MECN     C2       CG1N1    0.360000       12.0110           0
     22028 WT10     173      MECN     N3       NG1T1   -0.460000       14.0070           0
     22029 WT10     179      MECN     C1       CG331   -0.170000       12.0110           0
     22030 WT10     179      MECN     H11      HGA3     0.090000        1.0080           0
     22031 WT10     179      MECN     H12      HGA3     0.090000        1.0080           0
     22032 WT10     179      MECN     H13      HGA3     0.090000        1.0080           0
     22033 WT10     179      MECN     C2       CG1N1    0.360000       12.0110           0
     22034 WT10     179      MECN     N3       NG1T1   -0.460000       14.0070           0
     22035 WT10     182      MECN     C1       CG331   -0.170000       12.0110           0
     22036 WT10     182      MECN     H11      HGA3     0.090000        1.0080           0
     22037 WT10     182      MECN     H12      HGA3     0.090000        1.0080           0
     22038 WT10     182      MECN     H13      HGA3     0.090000        1.0080           0
     22039 WT10     182      MECN     C2       CG1N1    0.360000       12.0110           0
     22040 WT10     182      MECN     N3       NG1T1   -0.460000       14.0070           0
     22041 WT10     183      MECN     C1       CG331   -0.170000       12.0110           0
     22042 WT10     183      MECN     H11      HGA3     0.090000        1.0080           0
     22043 WT10     183      MECN     H12      HGA3     0.090000        1.0080           0
     22044 WT10     183      MECN     H13      HGA3     0.090000        1.0080           0
     22045 WT10     183      MECN     C2       CG1N1    0.360000       12.0110           0
     22046 WT10     183      MECN     N3       NG1T1   -0.460000       14.0070           0
     22047 WT10     185      MECN     C1       CG331   -0.170000       12.0110           0
     22048 WT10     185      MECN     H11      HGA3     0.090000        1.0080           0
     22049 WT10     185      MECN     H12      HGA3     0.090000        1.0080           0
     22050 WT10     185      MECN     H13      HGA3     0.090000        1.0080           0
     22051 WT10     185      MECN     C2       CG1N1    0.360000       12.0110           0
     22052 WT10     185      MECN     N3       NG1T1   -0.460000       14.0070           0
     22053 WT10     191      MECN     C1       CG331   -0.170000       12.0110           0
     22054 WT10     191      MECN     H11      HGA3     0.090000        1.0080           0
     22055 WT10     191      MECN     H12      HGA3     0.090000        1.0080           0
     22056 WT10     191      MECN     H13      HGA3     0.090000        1.0080           0
     22057 WT10     191      MECN     C2       CG1N1    0.360000       12.0110           0
     22058 WT10     191      MECN     N3       NG1T1   -0.460000       14.0070           0
     22059 WT10     197      MECN     C1       CG331   -0.170000       12.0110           0
     22060 WT10     197      MECN     H11      HGA3     0.090000        1.0080           0
     22061 WT10     197      MECN     H12      HGA3     0.090000        1.0080           0
     22062 WT10     197      MECN     H13      HGA3     0.090000        1.0080           0
     22063 WT10     197      MECN     C2       CG1N1    0.360000       12.0110           0
     22064 WT10     197      MECN     N3       NG1T1   -0.460000       14.0070           0
     22065 WT10     201      MECN     C1       CG331   -0.170000       12.0110           0
     22066 WT10     201      MECN     H11      HGA3     0.090000        1.0080           0
     22067 WT10     201      MECN     H12      HGA3     0.090000        1.0080           0
     22068 WT10     201      MECN     H13      HGA3     0.090000        1.0080           0
     22069 WT10     201      MECN     C2       CG1N1    0.360000       12.0110           0
     22070 WT10     201      MECN     N3       NG1T1   -0.460000       14.0070           0
     22071 WT10     202      MECN     C1       CG331   -0.170000       12.0110           0
     22072 WT10     202      MECN     H11      HGA3     0.090000        1.0080           0
     22073 WT10     202      MECN     H12      HGA3     0.090000        1.0080           0
     22074 WT10     202      MECN     H13      HGA3     0.090000        1.0080           0
     22075 WT10     202      MECN     C2       CG1N1    0.360000       12.0110           0
     22076 WT10     202      MECN     N3       NG1T1   -0.460000       14.0070           0
     22077 WT10     204      MECN     C1       CG331   -0.170000       12.0110           0
     22078 WT10     204      MECN     H11      HGA3     0.090000        1.0080           0
     22079 WT10     204      MECN     H12      HGA3     0.090000        1.0080           0
     22080 WT10     204      MECN     H13      HGA3     0.090000        1.0080           0
     22081 WT10     204      MECN     C2       CG1N1    0.360000       12.0110           0
     22082 WT10     204      MECN     N3       NG1T1   -0.460000       14.0070           0
     22083 WT10     209      MECN     C1       CG331   -0.170000       12.0110           0
     22084 WT10     209      MECN     H11      HGA3     0.090000        1.0080           0
     22085 WT10     209      MECN     H12      HGA3     0.090000        1.0080           0
     22086 WT10     209      MECN     H13      HGA3     0.090000        1.0080           0
     22087 WT10     209      MECN     C2       CG1N1    0.360000       12.0110           0
     22088 WT10     209      MECN     N3       NG1T1   -0.460000       14.0070           0
     22089 WT10     211      MECN     C1       CG331   -0.170000       12.0110           0
     22090 WT10     211      MECN     H11      HGA3     0.090000        1.0080           0
     22091 WT10     211      MECN     H12      HGA3     0.090000        1.0080           0
     22092 WT10     211      MECN     H13      HGA3     0.090000        1.0080           0
     22093 WT10     211      MECN     C2       CG1N1    0.360000       12.0110           0
     22094 WT10     211      MECN     N3       NG1T1   -0.460000       14.0070           0
     22095 WT10     216      MECN     C1       CG331   -0.170000       12.0110           0
     22096 WT10     216      MECN     H11      HGA3     0.090000        1.0080           0
     22097 WT10     216      MECN     H12      HGA3     0.090000        1.0080           0
     22098 WT10     216      MECN     H13      HGA3     0.090000        1.0080           0
     22099 WT10     216      MECN     C2       CG1N1    0.360000       12.0110           0
     22100 WT10     216      MECN     N3       NG1T1   -0.460000       14.0070           0
     22101 WT10     230      MECN     C1       CG331   -0.170000       12.0110           0
     22102 WT10     230      MECN     H11      HGA3     0.090000        1.0080           0
     22103 WT10     230      MECN     H12      HGA3     0.090000        1.0080           0
     22104 WT10     230      MECN     H13      HGA3     0.090000        1.0080           0
     22105 WT10     230      MECN     C2       CG1N1    0.360000       12.0110           0
     22106 WT10     230      MECN     N3       NG1T1   -0.460000       14.0070           0
     22107 WT10     246      MECN     C1       CG331   -0.170000       12.0110           0
     22108 WT10     246      MECN     H11      HGA3     0.090000        1.0080           0
     22109 WT10     246      MECN     H12      HGA3     0.090000        1.0080           0
     22110 WT10     246      MECN     H13      HGA3     0.090000        1.0080           0
     22111 WT10     246      MECN     C2       CG1N1    0.360000       12.0110           0
     22112 WT10     246      MECN     N3       NG1T1   -0.460000       14.0070           0
     22113 WT10     247      MECN     C1       CG331   -0.170000       12.0110           0
     22114 WT10     247      MECN     H11      HGA3     0.090000        1.0080           0
     22115 WT10     247      MECN     H12      HGA3     0.090000        1.0080           0
     22116 WT10     247      MECN     H13      HGA3     0.090000        1.0080           0
     22117 WT10     247      MECN     C2       CG1N1    0.360000       12.0110           0
     22118 WT10     247      MECN     N3       NG1T1   -0.460000       14.0070           0
     22119 WT10     248      MECN     C1       CG331   -0.170000       12.0110           0
     22120 WT10     248      MECN     H11      HGA3     0.090000        1.0080           0
     22121 WT10     248      MECN     H12      HGA3     0.090000        1.0080           0
     22122 WT10     248      MECN     H13      HGA3     0.090000        1.0080           0
     22123 WT10     248      MECN     C2       CG1N1    0.360000       12.0110           0
     22124 WT10     248      MECN     N3       NG1T1   -0.460000       14.0070           0
     22125 WT10     251      MECN     C1       CG331   -0.170000       12.0110           0
     22126 WT10     251      MECN     H11      HGA3     0.090000        1.0080           0
     22127 WT10     251      MECN     H12      HGA3     0.090000        1.0080           0
     22128 WT10     251      MECN     H13      HGA3     0.090000        1.0080           0
     22129 WT10     251      MECN     C2       CG1N1    0.360000       12.0110           0
     22130 WT10     251      MECN     N3       NG1T1   -0.460000       14.0070           0
     22131 WT10     253      MECN     C1       CG331   -0.170000       12.0110           0
     22132 WT10     253      MECN     H11      HGA3     0.090000        1.0080           0
     22133 WT10     253      MECN     H12      HGA3     0.090000        1.0080           0
     22134 WT10     253      MECN     H13      HGA3     0.090000        1.0080           0
     22135 WT10     253      MECN     C2       CG1N1    0.360000       12.0110           0
     22136 WT10     253      MECN     N3       NG1T1   -0.460000       14.0070           0
     22137 WT10     255      MECN     C1       CG331   -0.170000       12.0110           0
     22138 WT10     255      MECN     H11      HGA3     0.090000        1.0080           0
     22139 WT10     255      MECN     H12      HGA3     0.090000        1.0080           0
     22140 WT10     255      MECN     H13      HGA3     0.090000        1.0080           0
     22141 WT10     255      MECN     C2       CG1N1    0.360000       12.0110           0
     22142 WT10     255      MECN     N3       NG1T1   -0.460000       14.0070           0
     22143 WT10     260      MECN     C1       CG331   -0.170000       12.0110           0
     22144 WT10     260      MECN     H11      HGA3     0.090000        1.0080           0
     22145 WT10     260      MECN     H12      HGA3     0.090000        1.0080           0
     22146 WT10     260      MECN     H13      HGA3     0.090000        1.0080           0
     22147 WT10     260      MECN     C2       CG1N1    0.360000       12.0110           0
     22148 WT10     260      MECN     N3       NG1T1   -0.460000       14.0070           0
     22149 WT10     270      MECN     C1       CG331   -0.170000       12.0110           0
     22150 WT10     270      MECN     H11      HGA3     0.090000        1.0080           0
     22151 WT10     270      MECN     H12      HGA3     0.090000        1.0080           0
     22152 WT10     270      MECN     H13      HGA3     0.090000        1.0080           0
     22153 WT10     270      MECN     C2       CG1N1    0.360000       12.0110           0
     22154 WT10     270      MECN     N3       NG1T1   -0.460000       14.0070           0
     22155 WT10     272      MECN     C1       CG331   -0.170000       12.0110           0
     22156 WT10     272      MECN     H11      HGA3     0.090000        1.0080           0
     22157 WT10     272      MECN     H12      HGA3     0.090000        1.0080           0
     22158 WT10     272      MECN     H13      HGA3     0.090000        1.0080           0
     22159 WT10     272      MECN     C2       CG1N1    0.360000       12.0110           0
     22160 WT10     272      MECN     N3       NG1T1   -0.460000       14.0070           0
     22161 WT10     273      MECN     C1       CG331   -0.170000       12.0110           0
     22162 WT10     273      MECN     H11      HGA3     0.090000        1.0080           0
     22163 WT10     273      MECN     H12      HGA3     0.090000        1.0080           0
     22164 WT10     273      MECN     H13      HGA3     0.090000        1.0080           0
     22165 WT10     273      MECN     C2       CG1N1    0.360000       12.0110           0
     22166 WT10     273      MECN     N3       NG1T1   -0.460000       14.0070           0
     22167 WT10     274      MECN     C1       CG331   -0.170000       12.0110           0
     22168 WT10     274      MECN     H11      HGA3     0.090000        1.0080           0
     22169 WT10     274      MECN     H12      HGA3     0.090000        1.0080           0
     22170 WT10     274      MECN     H13      HGA3     0.090000        1.0080           0
     22171 WT10     274      MECN     C2       CG1N1    0.360000       12.0110           0
     22172 WT10     274      MECN     N3       NG1T1   -0.460000       14.0070           0
     22173 WT10     285      MECN     C1       CG331   -0.170000       12.0110           0
     22174 WT10     285      MECN     H11      HGA3     0.090000        1.0080           0
     22175 WT10     285      MECN     H12      HGA3     0.090000        1.0080           0
     22176 WT10     285      MECN     H13      HGA3     0.090000        1.0080           0
     22177 WT10     285      MECN     C2       CG1N1    0.360000       12.0110           0
     22178 WT10     285      MECN     N3       NG1T1   -0.460000       14.0070           0
     22179 WT10     287      MECN     C1       CG331   -0.170000       12.0110           0
     22180 WT10     287      MECN     H11      HGA3     0.090000        1.0080           0
     22181 WT10     287      MECN     H12      HGA3     0.090000        1.0080           0
     22182 WT10     287      MECN     H13      HGA3     0.090000        1.0080           0
     22183 WT10     287      MECN     C2       CG1N1    0.360000       12.0110           0
     22184 WT10     287      MECN     N3       NG1T1   -0.460000       14.0070           0
     22185 WT10     292      MECN     C1       CG331   -0.170000       12.0110           0
     22186 WT10     292      MECN     H11      HGA3     0.090000        1.0080           0
     22187 WT10     292      MECN     H12      HGA3     0.090000        1.0080           0
     22188 WT10     292      MECN     H13      HGA3     0.090000        1.0080           0
     22189 WT10     292      MECN     C2       CG1N1    0.360000       12.0110           0
     22190 WT10     292      MECN     N3       NG1T1   -0.460000       14.0070           0
     22191 WT10     296      MECN     C1       CG331   -0.170000       12.0110           0
     22192 WT10     296      MECN     H11      HGA3     0.090000        1.0080           0
     22193 WT10     296      MECN     H12      HGA3     0.090000        1.0080           0
     22194 WT10     296      MECN     H13      HGA3     0.090000        1.0080           0
     22195 WT10     296      MECN     C2       CG1N1    0.360000       12.0110           0
     22196 WT10     296      MECN     N3       NG1T1   -0.460000       14.0070           0
     22197 WT10     297      MECN     C1       CG331   -0.170000       12.0110           0
     22198 WT10     297      MECN     H11      HGA3     0.090000        1.0080           0
     22199 WT10     297      MECN     H12      HGA3     0.090000        1.0080           0
     22200 WT10     297      MECN     H13      HGA3     0.090000        1.0080           0
     22201 WT10     297      MECN     C2       CG1N1    0.360000       12.0110           0
     22202 WT10     297      MECN     N3       NG1T1   -0.460000       14.0070           0
     22203 WT10     298      MECN     C1       CG331   -0.170000       12.0110           0
     22204 WT10     298      MECN     H11      HGA3     0.090000        1.0080           0
     22205 WT10     298      MECN     H12      HGA3     0.090000        1.0080           0
     22206 WT10     298      MECN     H13      HGA3     0.090000        1.0080           0
     22207 WT10     298      MECN     C2       CG1N1    0.360000       12.0110           0
     22208 WT10     298      MECN     N3       NG1T1   -0.460000       14.0070           0
     22209 WT10     304      MECN     C1       CG331   -0.170000       12.0110           0
     22210 WT10     304      MECN     H11      HGA3     0.090000        1.0080           0
     22211 WT10     304      MECN     H12      HGA3     0.090000        1.0080           0
     22212 WT10     304      MECN     H13      HGA3     0.090000        1.0080           0
     22213 WT10     304      MECN     C2       CG1N1    0.360000       12.0110           0
     22214 WT10     304      MECN     N3       NG1T1   -0.460000       14.0070           0
     22215 WT10     308      MECN     C1       CG331   -0.170000       12.0110           0
     22216 WT10     308      MECN     H11      HGA3     0.090000        1.0080           0
     22217 WT10     308      MECN     H12      HGA3     0.090000        1.0080           0
     22218 WT10     308      MECN     H13      HGA3     0.090000        1.0080           0
     22219 WT10     308      MECN     C2       CG1N1    0.360000       12.0110           0
     22220 WT10     308      MECN     N3       NG1T1   -0.460000       14.0070           0
     22221 WT10     310      MECN     C1       CG331   -0.170000       12.0110           0
     22222 WT10     310      MECN     H11      HGA3     0.090000        1.0080           0
     22223 WT10     310      MECN     H12      HGA3     0.090000        1.0080           0
     22224 WT10     310      MECN     H13      HGA3     0.090000        1.0080           0
     22225 WT10     310      MECN     C2       CG1N1    0.360000       12.0110           0
     22226 WT10     310      MECN     N3       NG1T1   -0.460000       14.0070           0
     22227 WT10     317      MECN     C1       CG331   -0.170000       12.0110           0
     22228 WT10     317      MECN     H11      HGA3     0.090000        1.0080           0
     22229 WT10     317      MECN     H12      HGA3     0.090000        1.0080           0
     22230 WT10     317      MECN     H13      HGA3     0.090000        1.0080           0
     22231 WT10     317      MECN     C2       CG1N1    0.360000       12.0110           0
     22232 WT10     317      MECN     N3       NG1T1   -0.460000       14.0070           0
     22233 WT10     322      MECN     C1       CG331   -0.170000       12.0110           0
     22234 WT10     322      MECN     H11      HGA3     0.090000        1.0080           0
     22235 WT10     322      MECN     H12      HGA3     0.090000        1.0080           0
     22236 WT10     322      MECN     H13      HGA3     0.090000        1.0080           0
     22237 WT10     322      MECN     C2       CG1N1    0.360000       12.0110           0
     22238 WT10     322      MECN     N3       NG1T1   -0.460000       14.0070           0
     22239 WT10     323      MECN     C1       CG331   -0.170000       12.0110           0
     22240 WT10     323      MECN     H11      HGA3     0.090000        1.0080           0
     22241 WT10     323      MECN     H12      HGA3     0.090000        1.0080           0
     22242 WT10     323      MECN     H13      HGA3     0.090000        1.0080           0
     22243 WT10     323      MECN     C2       CG1N1    0.360000       12.0110           0
     22244 WT10     323      MECN     N3       NG1T1   -0.460000       14.0070           0
     22245 WT10     325      MECN     C1       CG331   -0.170000       12.0110           0
     22246 WT10     325      MECN     H11      HGA3     0.090000        1.0080           0
     22247 WT10     325      MECN     H12      HGA3     0.090000        1.0080           0
     22248 WT10     325      MECN     H13      HGA3     0.090000        1.0080           0
     22249 WT10     325      MECN     C2       CG1N1    0.360000       12.0110           0
     22250 WT10     325      MECN     N3       NG1T1   -0.460000       14.0070           0
     22251 WT10     327      MECN     C1       CG331   -0.170000       12.0110           0
     22252 WT10     327      MECN     H11      HGA3     0.090000        1.0080           0
     22253 WT10     327      MECN     H12      HGA3     0.090000        1.0080           0
     22254 WT10     327      MECN     H13      HGA3     0.090000        1.0080           0
     22255 WT10     327      MECN     C2       CG1N1    0.360000       12.0110           0
     22256 WT10     327      MECN     N3       NG1T1   -0.460000       14.0070           0
     22257 WT10     328      MECN     C1       CG331   -0.170000       12.0110           0
     22258 WT10     328      MECN     H11      HGA3     0.090000        1.0080           0
     22259 WT10     328      MECN     H12      HGA3     0.090000        1.0080           0
     22260 WT10     328      MECN     H13      HGA3     0.090000        1.0080           0
     22261 WT10     328      MECN     C2       CG1N1    0.360000       12.0110           0
     22262 WT10     328      MECN     N3       NG1T1   -0.460000       14.0070           0
     22263 WT10     333      MECN     C1       CG331   -0.170000       12.0110           0
     22264 WT10     333      MECN     H11      HGA3     0.090000        1.0080           0
     22265 WT10     333      MECN     H12      HGA3     0.090000        1.0080           0
     22266 WT10     333      MECN     H13      HGA3     0.090000        1.0080           0
     22267 WT10     333      MECN     C2       CG1N1    0.360000       12.0110           0
     22268 WT10     333      MECN     N3       NG1T1   -0.460000       14.0070           0
     22269 WT10     336      MECN     C1       CG331   -0.170000       12.0110           0
     22270 WT10     336      MECN     H11      HGA3     0.090000        1.0080           0
     22271 WT10     336      MECN     H12      HGA3     0.090000        1.0080           0
     22272 WT10     336      MECN     H13      HGA3     0.090000        1.0080           0
     22273 WT10     336      MECN     C2       CG1N1    0.360000       12.0110           0
     22274 WT10     336      MECN     N3       NG1T1   -0.460000       14.0070           0
     22275 WT10     338      MECN     C1       CG331   -0.170000       12.0110           0
     22276 WT10     338      MECN     H11      HGA3     0.090000        1.0080           0
     22277 WT10     338      MECN     H12      HGA3     0.090000        1.0080           0
     22278 WT10     338      MECN     H13      HGA3     0.090000        1.0080           0
     22279 WT10     338      MECN     C2       CG1N1    0.360000       12.0110           0
     22280 WT10     338      MECN     N3       NG1T1   -0.460000       14.0070           0
     22281 WT10     340      MECN     C1       CG331   -0.170000       12.0110           0
     22282 WT10     340      MECN     H11      HGA3     0.090000        1.0080           0
     22283 WT10     340      MECN     H12      HGA3     0.090000        1.0080           0
     22284 WT10     340      MECN     H13      HGA3     0.090000        1.0080           0
     22285 WT10     340      MECN     C2       CG1N1    0.360000       12.0110           0
     22286 WT10     340      MECN     N3       NG1T1   -0.460000       14.0070           0
     22287 WT10     341      MECN     C1       CG331   -0.170000       12.0110           0
     22288 WT10     341      MECN     H11      HGA3     0.090000        1.0080           0
     22289 WT10     341      MECN     H12      HGA3     0.090000        1.0080           0
     22290 WT10     341      MECN     H13      HGA3     0.090000        1.0080           0
     22291 WT10     341      MECN     C2       CG1N1    0.360000       12.0110           0
     22292 WT10     341      MECN     N3       NG1T1   -0.460000       14.0070           0
     22293 WT10     342      MECN     C1       CG331   -0.170000       12.0110           0
     22294 WT10     342      MECN     H11      HGA3     0.090000        1.0080           0
     22295 WT10     342      MECN     H12      HGA3     0.090000        1.0080           0
     22296 WT10     342      MECN     H13      HGA3     0.090000        1.0080           0
     22297 WT10     342      MECN     C2       CG1N1    0.360000       12.0110           0
     22298 WT10     342      MECN     N3       NG1T1   -0.460000       14.0070           0
     22299 WT10     343      MECN     C1       CG331   -0.170000       12.0110           0
     22300 WT10     343      MECN     H11      HGA3     0.090000        1.0080           0
     22301 WT10     343      MECN     H12      HGA3     0.090000        1.0080           0
     22302 WT10     343      MECN     H13      HGA3     0.090000        1.0080           0
     22303 WT10     343      MECN     C2       CG1N1    0.360000       12.0110           0
     22304 WT10     343      MECN     N3       NG1T1   -0.460000       14.0070           0
     22305 WT10     344      MECN     C1       CG331   -0.170000       12.0110           0
     22306 WT10     344      MECN     H11      HGA3     0.090000        1.0080           0
     22307 WT10     344      MECN     H12      HGA3     0.090000        1.0080           0
     22308 WT10     344      MECN     H13      HGA3     0.090000        1.0080           0
     22309 WT10     344      MECN     C2       CG1N1    0.360000       12.0110           0
     22310 WT10     344      MECN     N3       NG1T1   -0.460000       14.0070           0
     22311 WT10     346      MECN     C1       CG331   -0.170000       12.0110           0
     22312 WT10     346      MECN     H11      HGA3     0.090000        1.0080           0
     22313 WT10     346      MECN     H12      HGA3     0.090000        1.0080           0
     22314 WT10     346      MECN     H13      HGA3     0.090000        1.0080           0
     22315 WT10     346      MECN     C2       CG1N1    0.360000       12.0110           0
     22316 WT10     346      MECN     N3       NG1T1   -0.460000       14.0070           0
     22317 WT10     349      MECN     C1       CG331   -0.170000       12.0110           0
     22318 WT10     349      MECN     H11      HGA3     0.090000        1.0080           0
     22319 WT10     349      MECN     H12      HGA3     0.090000        1.0080           0
     22320 WT10     349      MECN     H13      HGA3     0.090000        1.0080           0
     22321 WT10     349      MECN     C2       CG1N1    0.360000       12.0110           0
     22322 WT10     349      MECN     N3       NG1T1   -0.460000       14.0070           0
     22323 WT10     366      MECN     C1       CG331   -0.170000       12.0110           0
     22324 WT10     366      MECN     H11      HGA3     0.090000        1.0080           0
     22325 WT10     366      MECN     H12      HGA3     0.090000        1.0080           0
     22326 WT10     366      MECN     H13      HGA3     0.090000        1.0080           0
     22327 WT10     366      MECN     C2       CG1N1    0.360000       12.0110           0
     22328 WT10     366      MECN     N3       NG1T1   -0.460000       14.0070           0
     22329 WT10     367      MECN     C1       CG331   -0.170000       12.0110           0
     22330 WT10     367      MECN     H11      HGA3     0.090000        1.0080           0
     22331 WT10     367      MECN     H12      HGA3     0.090000        1.0080           0
     22332 WT10     367      MECN     H13      HGA3     0.090000        1.0080           0
     22333 WT10     367      MECN     C2       CG1N1    0.360000       12.0110           0
     22334 WT10     367      MECN     N3       NG1T1   -0.460000       14.0070           0
     22335 WT10     369      MECN     C1       CG331   -0.170000       12.0110           0
     22336 WT10     369      MECN     H11      HGA3     0.090000        1.0080           0
     22337 WT10     369      MECN     H12      HGA3     0.090000        1.0080           0
     22338 WT10     369      MECN     H13      HGA3     0.090000        1.0080           0
     22339 WT10     369      MECN     C2       CG1N1    0.360000       12.0110           0
     22340 WT10     369      MECN     N3       NG1T1   -0.460000       14.0070           0
     22341 WT10     378      MECN     C1       CG331   -0.170000       12.0110           0
     22342 WT10     378      MECN     H11      HGA3     0.090000        1.0080           0
     22343 WT10     378      MECN     H12      HGA3     0.090000        1.0080           0
     22344 WT10     378      MECN     H13      HGA3     0.090000        1.0080           0
     22345 WT10     378      MECN     C2       CG1N1    0.360000       12.0110           0
     22346 WT10     378      MECN     N3       NG1T1   -0.460000       14.0070           0
     22347 WT10     381      MECN     C1       CG331   -0.170000       12.0110           0
     22348 WT10     381      MECN     H11      HGA3     0.090000        1.0080           0
     22349 WT10     381      MECN     H12      HGA3     0.090000        1.0080           0
     22350 WT10     381      MECN     H13      HGA3     0.090000        1.0080           0
     22351 WT10     381      MECN     C2       CG1N1    0.360000       12.0110           0
     22352 WT10     381      MECN     N3       NG1T1   -0.460000       14.0070           0
     22353 WT10     388      MECN     C1       CG331   -0.170000       12.0110           0
     22354 WT10     388      MECN     H11      HGA3     0.090000        1.0080           0
     22355 WT10     388      MECN     H12      HGA3     0.090000        1.0080           0
     22356 WT10     388      MECN     H13      HGA3     0.090000        1.0080           0
     22357 WT10     388      MECN     C2       CG1N1    0.360000       12.0110           0
     22358 WT10     388      MECN     N3       NG1T1   -0.460000       14.0070           0
     22359 WT10     391      MECN     C1       CG331   -0.170000       12.0110           0
     22360 WT10     391      MECN     H11      HGA3     0.090000        1.0080           0
     22361 WT10     391      MECN     H12      HGA3     0.090000        1.0080           0
     22362 WT10     391      MECN     H13      HGA3     0.090000        1.0080           0
     22363 WT10     391      MECN     C2       CG1N1    0.360000       12.0110           0
     22364 WT10     391      MECN     N3       NG1T1   -0.460000       14.0070           0
     22365 WT10     392      MECN     C1       CG331   -0.170000       12.0110           0
     22366 WT10     392      MECN     H11      HGA3     0.090000        1.0080           0
     22367 WT10     392      MECN     H12      HGA3     0.090000        1.0080           0
     22368 WT10     392      MECN     H13      HGA3     0.090000        1.0080           0
     22369 WT10     392      MECN     C2       CG1N1    0.360000       12.0110           0
     22370 WT10     392      MECN     N3       NG1T1   -0.460000       14.0070           0
     22371 WT10     395      MECN     C1       CG331   -0.170000       12.0110           0
     22372 WT10     395      MECN     H11      HGA3     0.090000        1.0080           0
     22373 WT10     395      MECN     H12      HGA3     0.090000        1.0080           0
     22374 WT10     395      MECN     H13      HGA3     0.090000        1.0080           0
     22375 WT10     395      MECN     C2       CG1N1    0.360000       12.0110           0
     22376 WT10     395      MECN     N3       NG1T1   -0.460000       14.0070           0
     22377 WT10     400      MECN     C1       CG331   -0.170000       12.0110           0
     22378 WT10     400      MECN     H11      HGA3     0.090000        1.0080           0
     22379 WT10     400      MECN     H12      HGA3     0.090000        1.0080           0
     22380 WT10     400      MECN     H13      HGA3     0.090000        1.0080           0
     22381 WT10     400      MECN     C2       CG1N1    0.360000       12.0110           0
     22382 WT10     400      MECN     N3       NG1T1   -0.460000       14.0070           0
     22383 WT10     401      MECN     C1       CG331   -0.170000       12.0110           0
     22384 WT10     401      MECN     H11      HGA3     0.090000        1.0080           0
     22385 WT10     401      MECN     H12      HGA3     0.090000        1.0080           0
     22386 WT10     401      MECN     H13      HGA3     0.090000        1.0080           0
     22387 WT10     401      MECN     C2       CG1N1    0.360000       12.0110           0
     22388 WT10     401      MECN     N3       NG1T1   -0.460000       14.0070           0
     22389 WT10     406      MECN     C1       CG331   -0.170000       12.0110           0
     22390 WT10     406      MECN     H11      HGA3     0.090000        1.0080           0
     22391 WT10     406      MECN     H12      HGA3     0.090000        1.0080           0
     22392 WT10     406      MECN     H13      HGA3     0.090000        1.0080           0
     22393 WT10     406      MECN     C2       CG1N1    0.360000       12.0110           0
     22394 WT10     406      MECN     N3       NG1T1   -0.460000       14.0070           0
     22395 WT10     408      MECN     C1       CG331   -0.170000       12.0110           0
     22396 WT10     408      MECN     H11      HGA3     0.090000        1.0080           0
     22397 WT10     408      MECN     H12      HGA3     0.090000        1.0080           0
     22398 WT10     408      MECN     H13      HGA3     0.090000        1.0080           0
     22399 WT10     408      MECN     C2       CG1N1    0.360000       12.0110           0
     22400 WT10     408      MECN     N3       NG1T1   -0.460000       14.0070           0
     22401 WT10     416      MECN     C1       CG331   -0.170000       12.0110           0
     22402 WT10     416      MECN     H11      HGA3     0.090000        1.0080           0
     22403 WT10     416      MECN     H12      HGA3     0.090000        1.0080           0
     22404 WT10     416      MECN     H13      HGA3     0.090000        1.0080           0
     22405 WT10     416      MECN     C2       CG1N1    0.360000       12.0110           0
     22406 WT10     416      MECN     N3       NG1T1   -0.460000       14.0070           0
     22407 WT10     423      MECN     C1       CG331   -0.170000       12.0110           0
     22408 WT10     423      MECN     H11      HGA3     0.090000        1.0080           0
     22409 WT10     423      MECN     H12      HGA3     0.090000        1.0080           0
     22410 WT10     423      MECN     H13      HGA3     0.090000        1.0080           0
     22411 WT10     423      MECN     C2       CG1N1    0.360000       12.0110           0
     22412 WT10     423      MECN     N3       NG1T1   -0.460000       14.0070           0
     22413 WT10     430      MECN     C1       CG331   -0.170000       12.0110           0
     22414 WT10     430      MECN     H11      HGA3     0.090000        1.0080           0
     22415 WT10     430      MECN     H12      HGA3     0.090000        1.0080           0
     22416 WT10     430      MECN     H13      HGA3     0.090000        1.0080           0
     22417 WT10     430      MECN     C2       CG1N1    0.360000       12.0110           0
     22418 WT10     430      MECN     N3       NG1T1   -0.460000       14.0070           0
     22419 WT10     436      MECN     C1       CG331   -0.170000       12.0110           0
     22420 WT10     436      MECN     H11      HGA3     0.090000        1.0080           0
     22421 WT10     436      MECN     H12      HGA3     0.090000        1.0080           0
     22422 WT10     436      MECN     H13      HGA3     0.090000        1.0080           0
     22423 WT10     436      MECN     C2       CG1N1    0.360000       12.0110           0
     22424 WT10     436      MECN     N3       NG1T1   -0.460000       14.0070           0
     22425 WT10     440      MECN     C1       CG331   -0.170000       12.0110           0
     22426 WT10     440      MECN     H11      HGA3     0.090000        1.0080           0
     22427 WT10     440      MECN     H12      HGA3     0.090000        1.0080           0
     22428 WT10     440      MECN     H13      HGA3     0.090000        1.0080           0
     22429 WT10     440      MECN     C2       CG1N1    0.360000       12.0110           0
     22430 WT10     440      MECN     N3       NG1T1   -0.460000       14.0070           0
     22431 WT10     446      MECN     C1       CG331   -0.170000       12.0110           0
     22432 WT10     446      MECN     H11      HGA3     0.090000        1.0080           0
     22433 WT10     446      MECN     H12      HGA3     0.090000        1.0080           0
     22434 WT10     446      MECN     H13      HGA3     0.090000        1.0080           0
     22435 WT10     446      MECN     C2       CG1N1    0.360000       12.0110           0
     22436 WT10     446      MECN     N3       NG1T1   -0.460000       14.0070           0
     22437 WT10     449      MECN     C1       CG331   -0.170000       12.0110           0
     22438 WT10     449      MECN     H11      HGA3     0.090000        1.0080           0
     22439 WT10     449      MECN     H12      HGA3     0.090000        1.0080           0
     22440 WT10     449      MECN     H13      HGA3     0.090000        1.0080           0
     22441 WT10     449      MECN     C2       CG1N1    0.360000       12.0110           0
     22442 WT10     449      MECN     N3       NG1T1   -0.460000       14.0070           0
     22443 WT10     452      MECN     C1       CG331   -0.170000       12.0110           0
     22444 WT10     452      MECN     H11      HGA3     0.090000        1.0080           0
     22445 WT10     452      MECN     H12      HGA3     0.090000        1.0080           0
     22446 WT10     452      MECN     H13      HGA3     0.090000        1.0080           0
     22447 WT10     452      MECN     C2       CG1N1    0.360000       12.0110           0
     22448 WT10     452      MECN     N3       NG1T1   -0.460000       14.0070           0
     22449 WT10     454      MECN     C1       CG331   -0.170000       12.0110           0
     22450 WT10     454      MECN     H11      HGA3     0.090000        1.0080           0
     22451 WT10     454      MECN     H12      HGA3     0.090000        1.0080           0
     22452 WT10     454      MECN     H13      HGA3     0.090000        1.0080           0
     22453 WT10     454      MECN     C2       CG1N1    0.360000       12.0110           0
     22454 WT10     454      MECN     N3       NG1T1   -0.460000       14.0070           0
     22455 WT10     458      MECN     C1       CG331   -0.170000       12.0110           0
     22456 WT10     458      MECN     H11      HGA3     0.090000        1.0080           0
     22457 WT10     458      MECN     H12      HGA3     0.090000        1.0080           0
     22458 WT10     458      MECN     H13      HGA3     0.090000        1.0080           0
     22459 WT10     458      MECN     C2       CG1N1    0.360000       12.0110           0
     22460 WT10     458      MECN     N3       NG1T1   -0.460000       14.0070           0
     22461 WT10     464      MECN     C1       CG331   -0.170000       12.0110           0
     22462 WT10     464      MECN     H11      HGA3     0.090000        1.0080           0
     22463 WT10     464      MECN     H12      HGA3     0.090000        1.0080           0
     22464 WT10     464      MECN     H13      HGA3     0.090000        1.0080           0
     22465 WT10     464      MECN     C2       CG1N1    0.360000       12.0110           0
     22466 WT10     464      MECN     N3       NG1T1   -0.460000       14.0070           0
     22467 WT10     467      MECN     C1       CG331   -0.170000       12.0110           0
     22468 WT10     467      MECN     H11      HGA3     0.090000        1.0080           0
     22469 WT10     467      MECN     H12      HGA3     0.090000        1.0080           0
     22470 WT10     467      MECN     H13      HGA3     0.090000        1.0080           0
     22471 WT10     467      MECN     C2       CG1N1    0.360000       12.0110           0
     22472 WT10     467      MECN     N3       NG1T1   -0.460000       14.0070           0
     22473 WT10     471      MECN     C1       CG331   -0.170000       12.0110           0
     22474 WT10     471      MECN     H11      HGA3     0.090000        1.0080           0
     22475 WT10     471      MECN     H12      HGA3     0.090000        1.0080           0
     22476 WT10     471      MECN     H13      HGA3     0.090000        1.0080           0
     22477 WT10     471      MECN     C2       CG1N1    0.360000       12.0110           0
     22478 WT10     471      MECN     N3       NG1T1   -0.460000       14.0070           0
     22479 WT10     477      MECN     C1       CG331   -0.170000       12.0110           0
     22480 WT10     477      MECN     H11      HGA3     0.090000        1.0080           0
     22481 WT10     477      MECN     H12      HGA3     0.090000        1.0080           0
     22482 WT10     477      MECN     H13      HGA3     0.090000        1.0080           0
     22483 WT10     477      MECN     C2       CG1N1    0.360000       12.0110           0
     22484 WT10     477      MECN     N3       NG1T1   -0.460000       14.0070           0
     22485 WT10     480      MECN     C1       CG331   -0.170000       12.0110           0
     22486 WT10     480      MECN     H11      HGA3     0.090000        1.0080           0
     22487 WT10     480      MECN     H12      HGA3     0.090000        1.0080           0
     22488 WT10     480      MECN     H13      HGA3     0.090000        1.0080           0
     22489 WT10     480      MECN     C2       CG1N1    0.360000       12.0110           0
     22490 WT10     480      MECN     N3       NG1T1   -0.460000       14.0070           0
     22491 WT10     485      MECN     C1       CG331   -0.170000       12.0110           0
     22492 WT10     485      MECN     H11      HGA3     0.090000        1.0080           0
     22493 WT10     485      MECN     H12      HGA3     0.090000        1.0080           0
     22494 WT10     485      MECN     H13      HGA3     0.090000        1.0080           0
     22495 WT10     485      MECN     C2       CG1N1    0.360000       12.0110           0
     22496 WT10     485      MECN     N3       NG1T1   -0.460000       14.0070           0
     22497 WT10     488      MECN     C1       CG331   -0.170000       12.0110           0
     22498 WT10     488      MECN     H11      HGA3     0.090000        1.0080           0
     22499 WT10     488      MECN     H12      HGA3     0.090000        1.0080           0
     22500 WT10     488      MECN     H13      HGA3     0.090000        1.0080           0
     22501 WT10     488      MECN     C2       CG1N1    0.360000       12.0110           0
     22502 WT10     488      MECN     N3       NG1T1   -0.460000       14.0070           0
     22503 WT10     492      MECN     C1       CG331   -0.170000       12.0110           0
     22504 WT10     492      MECN     H11      HGA3     0.090000        1.0080           0
     22505 WT10     492      MECN     H12      HGA3     0.090000        1.0080           0
     22506 WT10     492      MECN     H13      HGA3     0.090000        1.0080           0
     22507 WT10     492      MECN     C2       CG1N1    0.360000       12.0110           0
     22508 WT10     492      MECN     N3       NG1T1   -0.460000       14.0070           0
     22509 WT10     494      MECN     C1       CG331   -0.170000       12.0110           0
     22510 WT10     494      MECN     H11      HGA3     0.090000        1.0080           0
     22511 WT10     494      MECN     H12      HGA3     0.090000        1.0080           0
     22512 WT10     494      MECN     H13      HGA3     0.090000        1.0080           0
     22513 WT10     494      MECN     C2       CG1N1    0.360000       12.0110           0
     22514 WT10     494      MECN     N3       NG1T1   -0.460000       14.0070           0
     22515 WT10     495      MECN     C1       CG331   -0.170000       12.0110           0
     22516 WT10     495      MECN     H11      HGA3     0.090000        1.0080           0
     22517 WT10     495      MECN     H12      HGA3     0.090000        1.0080           0
     22518 WT10     495      MECN     H13      HGA3     0.090000        1.0080           0
     22519 WT10     495      MECN     C2       CG1N1    0.360000       12.0110           0
     22520 WT10     495      MECN     N3       NG1T1   -0.460000       14.0070           0
     22521 WT10     497      MECN     C1       CG331   -0.170000       12.0110           0
     22522 WT10     497      MECN     H11      HGA3     0.090000        1.0080           0
     22523 WT10     497      MECN     H12      HGA3     0.090000        1.0080           0
     22524 WT10     497      MECN     H13      HGA3     0.090000        1.0080           0
     22525 WT10     497      MECN     C2       CG1N1    0.360000       12.0110           0
     22526 WT10     497      MECN     N3       NG1T1   -0.460000       14.0070           0
     22527 WT10     519      MECN     C1       CG331   -0.170000       12.0110           0
     22528 WT10     519      MECN     H11      HGA3     0.090000        1.0080           0
     22529 WT10     519      MECN     H12      HGA3     0.090000        1.0080           0
     22530 WT10     519      MECN     H13      HGA3     0.090000        1.0080           0
     22531 WT10     519      MECN     C2       CG1N1    0.360000       12.0110           0
     22532 WT10     519      MECN     N3       NG1T1   -0.460000       14.0070           0
     22533 WT10     520      MECN     C1       CG331   -0.170000       12.0110           0
     22534 WT10     520      MECN     H11      HGA3     0.090000        1.0080           0
     22535 WT10     520      MECN     H12      HGA3     0.090000        1.0080           0
     22536 WT10     520      MECN     H13      HGA3     0.090000        1.0080           0
     22537 WT10     520      MECN     C2       CG1N1    0.360000       12.0110           0
     22538 WT10     520      MECN     N3       NG1T1   -0.460000       14.0070           0
     22539 WT10     528      MECN     C1       CG331   -0.170000       12.0110           0
     22540 WT10     528      MECN     H11      HGA3     0.090000        1.0080           0
     22541 WT10     528      MECN     H12      HGA3     0.090000        1.0080           0
     22542 WT10     528      MECN     H13      HGA3     0.090000        1.0080           0
     22543 WT10     528      MECN     C2       CG1N1    0.360000       12.0110           0
     22544 WT10     528      MECN     N3       NG1T1   -0.460000       14.0070           0
     22545 WT10     531      MECN     C1       CG331   -0.170000       12.0110           0
     22546 WT10     531      MECN     H11      HGA3     0.090000        1.0080           0
     22547 WT10     531      MECN     H12      HGA3     0.090000        1.0080           0
     22548 WT10     531      MECN     H13      HGA3     0.090000        1.0080           0
     22549 WT10     531      MECN     C2       CG1N1    0.360000       12.0110           0
     22550 WT10     531      MECN     N3       NG1T1   -0.460000       14.0070           0
     22551 WT10     543      MECN     C1       CG331   -0.170000       12.0110           0
     22552 WT10     543      MECN     H11      HGA3     0.090000        1.0080           0
     22553 WT10     543      MECN     H12      HGA3     0.090000        1.0080           0
     22554 WT10     543      MECN     H13      HGA3     0.090000        1.0080           0
     22555 WT10     543      MECN     C2       CG1N1    0.360000       12.0110           0
     22556 WT10     543      MECN     N3       NG1T1   -0.460000       14.0070           0
     22557 WT10     544      MECN     C1       CG331   -0.170000       12.0110           0
     22558 WT10     544      MECN     H11      HGA3     0.090000        1.0080           0
     22559 WT10     544      MECN     H12      HGA3     0.090000        1.0080           0
     22560 WT10     544      MECN     H13      HGA3     0.090000        1.0080           0
     22561 WT10     544      MECN     C2       CG1N1    0.360000       12.0110           0
     22562 WT10     544      MECN     N3       NG1T1   -0.460000       14.0070           0
     22563 WT10     546      MECN     C1       CG331   -0.170000       12.0110           0
     22564 WT10     546      MECN     H11      HGA3     0.090000        1.0080           0
     22565 WT10     546      MECN     H12      HGA3     0.090000        1.0080           0
     22566 WT10     546      MECN     H13      HGA3     0.090000        1.0080           0
     22567 WT10     546      MECN     C2       CG1N1    0.360000       12.0110           0
     22568 WT10     546      MECN     N3       NG1T1   -0.460000       14.0070           0
     22569 WT10     553      MECN     C1       CG331   -0.170000       12.0110           0
     22570 WT10     553      MECN     H11      HGA3     0.090000        1.0080           0
     22571 WT10     553      MECN     H12      HGA3     0.090000        1.0080           0
     22572 WT10     553      MECN     H13      HGA3     0.090000        1.0080           0
     22573 WT10     553      MECN     C2       CG1N1    0.360000       12.0110           0
     22574 WT10     553      MECN     N3       NG1T1   -0.460000       14.0070           0
     22575 WT10     555      MECN     C1       CG331   -0.170000       12.0110           0
     22576 WT10     555      MECN     H11      HGA3     0.090000        1.0080           0
     22577 WT10     555      MECN     H12      HGA3     0.090000        1.0080           0
     22578 WT10     555      MECN     H13      HGA3     0.090000        1.0080           0
     22579 WT10     555      MECN     C2       CG1N1    0.360000       12.0110           0
     22580 WT10     555      MECN     N3       NG1T1   -0.460000       14.0070           0
     22581 WT10     560      MECN     C1       CG331   -0.170000       12.0110           0
     22582 WT10     560      MECN     H11      HGA3     0.090000        1.0080           0
     22583 WT10     560      MECN     H12      HGA3     0.090000        1.0080           0
     22584 WT10     560      MECN     H13      HGA3     0.090000        1.0080           0
     22585 WT10     560      MECN     C2       CG1N1    0.360000       12.0110           0
     22586 WT10     560      MECN     N3       NG1T1   -0.460000       14.0070           0
     22587 WT10     578      MECN     C1       CG331   -0.170000       12.0110           0
     22588 WT10     578      MECN     H11      HGA3     0.090000        1.0080           0
     22589 WT10     578      MECN     H12      HGA3     0.090000        1.0080           0
     22590 WT10     578      MECN     H13      HGA3     0.090000        1.0080           0
     22591 WT10     578      MECN     C2       CG1N1    0.360000       12.0110           0
     22592 WT10     578      MECN     N3       NG1T1   -0.460000       14.0070           0
     22593 WT10     579      MECN     C1       CG331   -0.170000       12.0110           0
     22594 WT10     579      MECN     H11      HGA3     0.090000        1.0080           0
     22595 WT10     579      MECN     H12      HGA3     0.090000        1.0080           0
     22596 WT10     579      MECN     H13      HGA3     0.090000        1.0080           0
     22597 WT10     579      MECN     C2       CG1N1    0.360000       12.0110           0
     22598 WT10     579      MECN     N3       NG1T1   -0.460000       14.0070           0
     22599 WT10     580      MECN     C1       CG331   -0.170000       12.0110           0
     22600 WT10     580      MECN     H11      HGA3     0.090000        1.0080           0
     22601 WT10     580      MECN     H12      HGA3     0.090000        1.0080           0
     22602 WT10     580      MECN     H13      HGA3     0.090000        1.0080           0
     22603 WT10     580      MECN     C2       CG1N1    0.360000       12.0110           0
     22604 WT10     580      MECN     N3       NG1T1   -0.460000       14.0070           0
     22605 WT10     584      MECN     C1       CG331   -0.170000       12.0110           0
     22606 WT10     584      MECN     H11      HGA3     0.090000        1.0080           0
     22607 WT10     584      MECN     H12      HGA3     0.090000        1.0080           0
     22608 WT10     584      MECN     H13      HGA3     0.090000        1.0080           0
     22609 WT10     584      MECN     C2       CG1N1    0.360000       12.0110           0
     22610 WT10     584      MECN     N3       NG1T1   -0.460000       14.0070           0
     22611 WT10     585      MECN     C1       CG331   -0.170000       12.0110           0
     22612 WT10     585      MECN     H11      HGA3     0.090000        1.0080           0
     22613 WT10     585      MECN     H12      HGA3     0.090000        1.0080           0
     22614 WT10     585      MECN     H13      HGA3     0.090000        1.0080           0
     22615 WT10     585      MECN     C2       CG1N1    0.360000       12.0110           0
     22616 WT10     585      MECN     N3       NG1T1   -0.460000       14.0070           0
     22617 WT10     586      MECN     C1       CG331   -0.170000       12.0110           0
     22618 WT10     586      MECN     H11      HGA3     0.090000        1.0080           0
     22619 WT10     586      MECN     H12      HGA3     0.090000        1.0080           0
     22620 WT10     586      MECN     H13      HGA3     0.090000        1.0080           0
     22621 WT10     586      MECN     C2       CG1N1    0.360000       12.0110           0
     22622 WT10     586      MECN     N3       NG1T1   -0.460000       14.0070           0
     22623 WT10     587      MECN     C1       CG331   -0.170000       12.0110           0
     22624 WT10     587      MECN     H11      HGA3     0.090000        1.0080           0
     22625 WT10     587      MECN     H12      HGA3     0.090000        1.0080           0
     22626 WT10     587      MECN     H13      HGA3     0.090000        1.0080           0
     22627 WT10     587      MECN     C2       CG1N1    0.360000       12.0110           0
     22628 WT10     587      MECN     N3       NG1T1   -0.460000       14.0070           0
     22629 WT10     589      MECN     C1       CG331   -0.170000       12.0110           0
     22630 WT10     589      MECN     H11      HGA3     0.090000        1.0080           0
     22631 WT10     589      MECN     H12      HGA3     0.090000        1.0080           0
     22632 WT10     589      MECN     H13      HGA3     0.090000        1.0080           0
     22633 WT10     589      MECN     C2       CG1N1    0.360000       12.0110           0
     22634 WT10     589      MECN     N3       NG1T1   -0.460000       14.0070           0
     22635 WT10     590      MECN     C1       CG331   -0.170000       12.0110           0
     22636 WT10     590      MECN     H11      HGA3     0.090000        1.0080           0
     22637 WT10     590      MECN     H12      HGA3     0.090000        1.0080           0
     22638 WT10     590      MECN     H13      HGA3     0.090000        1.0080           0
     22639 WT10     590      MECN     C2       CG1N1    0.360000       12.0110           0
     22640 WT10     590      MECN     N3       NG1T1   -0.460000       14.0070           0
     22641 WT10     595      MECN     C1       CG331   -0.170000       12.0110           0
     22642 WT10     595      MECN     H11      HGA3     0.090000        1.0080           0
     22643 WT10     595      MECN     H12      HGA3     0.090000        1.0080           0
     22644 WT10     595      MECN     H13      HGA3     0.090000        1.0080           0
     22645 WT10     595      MECN     C2       CG1N1    0.360000       12.0110           0
     22646 WT10     595      MECN     N3       NG1T1   -0.460000       14.0070           0
     22647 WT10     599      MECN     C1       CG331   -0.170000       12.0110           0
     22648 WT10     599      MECN     H11      HGA3     0.090000        1.0080           0
     22649 WT10     599      MECN     H12      HGA3     0.090000        1.0080           0
     22650 WT10     599      MECN     H13      HGA3     0.090000        1.0080           0
     22651 WT10     599      MECN     C2       CG1N1    0.360000       12.0110           0
     22652 WT10     599      MECN     N3       NG1T1   -0.460000       14.0070           0
     22653 WT10     613      MECN     C1       CG331   -0.170000       12.0110           0
     22654 WT10     613      MECN     H11      HGA3     0.090000        1.0080           0
     22655 WT10     613      MECN     H12      HGA3     0.090000        1.0080           0
     22656 WT10     613      MECN     H13      HGA3     0.090000        1.0080           0
     22657 WT10     613      MECN     C2       CG1N1    0.360000       12.0110           0
     22658 WT10     613      MECN     N3       NG1T1   -0.460000       14.0070           0
     22659 WT10     620      MECN     C1       CG331   -0.170000       12.0110           0
     22660 WT10     620      MECN     H11      HGA3     0.090000        1.0080           0
     22661 WT10     620      MECN     H12      HGA3     0.090000        1.0080           0
     22662 WT10     620      MECN     H13      HGA3     0.090000        1.0080           0
     22663 WT10     620      MECN     C2       CG1N1    0.360000       12.0110           0
     22664 WT10     620      MECN     N3       NG1T1   -0.460000       14.0070           0
     22665 WT10     623      MECN     C1       CG331   -0.170000       12.0110           0
     22666 WT10     623      MECN     H11      HGA3     0.090000        1.0080           0
     22667 WT10     623      MECN     H12      HGA3     0.090000        1.0080           0
     22668 WT10     623      MECN     H13      HGA3     0.090000        1.0080           0
     22669 WT10     623      MECN     C2       CG1N1    0.360000       12.0110           0
     22670 WT10     623      MECN     N3       NG1T1   -0.460000       14.0070           0
     22671 WT10     625      MECN     C1       CG331   -0.170000       12.0110           0
     22672 WT10     625      MECN     H11      HGA3     0.090000        1.0080           0
     22673 WT10     625      MECN     H12      HGA3     0.090000        1.0080           0
     22674 WT10     625      MECN     H13      HGA3     0.090000        1.0080           0
     22675 WT10     625      MECN     C2       CG1N1    0.360000       12.0110           0
     22676 WT10     625      MECN     N3       NG1T1   -0.460000       14.0070           0
     22677 WT10     627      MECN     C1       CG331   -0.170000       12.0110           0
     22678 WT10     627      MECN     H11      HGA3     0.090000        1.0080           0
     22679 WT10     627      MECN     H12      HGA3     0.090000        1.0080           0
     22680 WT10     627      MECN     H13      HGA3     0.090000        1.0080           0
     22681 WT10     627      MECN     C2       CG1N1    0.360000       12.0110           0
     22682 WT10     627      MECN     N3       NG1T1   -0.460000       14.0070           0
     22683 WT10     633      MECN     C1       CG331   -0.170000       12.0110           0
     22684 WT10     633      MECN     H11      HGA3     0.090000        1.0080           0
     22685 WT10     633      MECN     H12      HGA3     0.090000        1.0080           0
     22686 WT10     633      MECN     H13      HGA3     0.090000        1.0080           0
     22687 WT10     633      MECN     C2       CG1N1    0.360000       12.0110           0
     22688 WT10     633      MECN     N3       NG1T1   -0.460000       14.0070           0
     22689 WT10     636      MECN     C1       CG331   -0.170000       12.0110           0
     22690 WT10     636      MECN     H11      HGA3     0.090000        1.0080           0
     22691 WT10     636      MECN     H12      HGA3     0.090000        1.0080           0
     22692 WT10     636      MECN     H13      HGA3     0.090000        1.0080           0
     22693 WT10     636      MECN     C2       CG1N1    0.360000       12.0110           0
     22694 WT10     636      MECN     N3       NG1T1   -0.460000       14.0070           0
     22695 WT10     637      MECN     C1       CG331   -0.170000       12.0110           0
     22696 WT10     637      MECN     H11      HGA3     0.090000        1.0080           0
     22697 WT10     637      MECN     H12      HGA3     0.090000        1.0080           0
     22698 WT10     637      MECN     H13      HGA3     0.090000        1.0080           0
     22699 WT10     637      MECN     C2       CG1N1    0.360000       12.0110           0
     22700 WT10     637      MECN     N3       NG1T1   -0.460000       14.0070           0
     22701 WT10     639      MECN     C1       CG331   -0.170000       12.0110           0
     22702 WT10     639      MECN     H11      HGA3     0.090000        1.0080           0
     22703 WT10     639      MECN     H12      HGA3     0.090000        1.0080           0
     22704 WT10     639      MECN     H13      HGA3     0.090000        1.0080           0
     22705 WT10     639      MECN     C2       CG1N1    0.360000       12.0110           0
     22706 WT10     639      MECN     N3       NG1T1   -0.460000       14.0070           0
     22707 WT10     649      MECN     C1       CG331   -0.170000       12.0110           0
     22708 WT10     649      MECN     H11      HGA3     0.090000        1.0080           0
     22709 WT10     649      MECN     H12      HGA3     0.090000        1.0080           0
     22710 WT10     649      MECN     H13      HGA3     0.090000        1.0080           0
     22711 WT10     649      MECN     C2       CG1N1    0.360000       12.0110           0
     22712 WT10     649      MECN     N3       NG1T1   -0.460000       14.0070           0
     22713 WT10     650      MECN     C1       CG331   -0.170000       12.0110           0
     22714 WT10     650      MECN     H11      HGA3     0.090000        1.0080           0
     22715 WT10     650      MECN     H12      HGA3     0.090000        1.0080           0
     22716 WT10     650      MECN     H13      HGA3     0.090000        1.0080           0
     22717 WT10     650      MECN     C2       CG1N1    0.360000       12.0110           0
     22718 WT10     650      MECN     N3       NG1T1   -0.460000       14.0070           0
     22719 WT10     651      MECN     C1       CG331   -0.170000       12.0110           0
     22720 WT10     651      MECN     H11      HGA3     0.090000        1.0080           0
     22721 WT10     651      MECN     H12      HGA3     0.090000        1.0080           0
     22722 WT10     651      MECN     H13      HGA3     0.090000        1.0080           0
     22723 WT10     651      MECN     C2       CG1N1    0.360000       12.0110           0
     22724 WT10     651      MECN     N3       NG1T1   -0.460000       14.0070           0
     22725 WT10     656      MECN     C1       CG331   -0.170000       12.0110           0
     22726 WT10     656      MECN     H11      HGA3     0.090000        1.0080           0
     22727 WT10     656      MECN     H12      HGA3     0.090000        1.0080           0
     22728 WT10     656      MECN     H13      HGA3     0.090000        1.0080           0
     22729 WT10     656      MECN     C2       CG1N1    0.360000       12.0110           0
     22730 WT10     656      MECN     N3       NG1T1   -0.460000       14.0070           0
     22731 WT10     658      MECN     C1       CG331   -0.170000       12.0110           0
     22732 WT10     658      MECN     H11      HGA3     0.090000        1.0080           0
     22733 WT10     658      MECN     H12      HGA3     0.090000        1.0080           0
     22734 WT10     658      MECN     H13      HGA3     0.090000        1.0080           0
     22735 WT10     658      MECN     C2       CG1N1    0.360000       12.0110           0
     22736 WT10     658      MECN     N3       NG1T1   -0.460000       14.0070           0
     22737 WT10     659      MECN     C1       CG331   -0.170000       12.0110           0
     22738 WT10     659      MECN     H11      HGA3     0.090000        1.0080           0
     22739 WT10     659      MECN     H12      HGA3     0.090000        1.0080           0
     22740 WT10     659      MECN     H13      HGA3     0.090000        1.0080           0
     22741 WT10     659      MECN     C2       CG1N1    0.360000       12.0110           0
     22742 WT10     659      MECN     N3       NG1T1   -0.460000       14.0070           0
     22743 WT10     661      MECN     C1       CG331   -0.170000       12.0110           0
     22744 WT10     661      MECN     H11      HGA3     0.090000        1.0080           0
     22745 WT10     661      MECN     H12      HGA3     0.090000        1.0080           0
     22746 WT10     661      MECN     H13      HGA3     0.090000        1.0080           0
     22747 WT10     661      MECN     C2       CG1N1    0.360000       12.0110           0
     22748 WT10     661      MECN     N3       NG1T1   -0.460000       14.0070           0
     22749 WT10     665      MECN     C1       CG331   -0.170000       12.0110           0
     22750 WT10     665      MECN     H11      HGA3     0.090000        1.0080           0
     22751 WT10     665      MECN     H12      HGA3     0.090000        1.0080           0
     22752 WT10     665      MECN     H13      HGA3     0.090000        1.0080           0
     22753 WT10     665      MECN     C2       CG1N1    0.360000       12.0110           0
     22754 WT10     665      MECN     N3       NG1T1   -0.460000       14.0070           0
     22755 WT10     667      MECN     C1       CG331   -0.170000       12.0110           0
     22756 WT10     667      MECN     H11      HGA3     0.090000        1.0080           0
     22757 WT10     667      MECN     H12      HGA3     0.090000        1.0080           0
     22758 WT10     667      MECN     H13      HGA3     0.090000        1.0080           0
     22759 WT10     667      MECN     C2       CG1N1    0.360000       12.0110           0
     22760 WT10     667      MECN     N3       NG1T1   -0.460000       14.0070           0
     22761 WT10     672      MECN     C1       CG331   -0.170000       12.0110           0
     22762 WT10     672      MECN     H11      HGA3     0.090000        1.0080           0
     22763 WT10     672      MECN     H12      HGA3     0.090000        1.0080           0
     22764 WT10     672      MECN     H13      HGA3     0.090000        1.0080           0
     22765 WT10     672      MECN     C2       CG1N1    0.360000       12.0110           0
     22766 WT10     672      MECN     N3       NG1T1   -0.460000       14.0070           0
     22767 WT10     673      MECN     C1       CG331   -0.170000       12.0110           0
     22768 WT10     673      MECN     H11      HGA3     0.090000        1.0080           0
     22769 WT10     673      MECN     H12      HGA3     0.090000        1.0080           0
     22770 WT10     673      MECN     H13      HGA3     0.090000        1.0080           0
     22771 WT10     673      MECN     C2       CG1N1    0.360000       12.0110           0
     22772 WT10     673      MECN     N3       NG1T1   -0.460000       14.0070           0
     22773 WT10     680      MECN     C1       CG331   -0.170000       12.0110           0
     22774 WT10     680      MECN     H11      HGA3     0.090000        1.0080           0
     22775 WT10     680      MECN     H12      HGA3     0.090000        1.0080           0
     22776 WT10     680      MECN     H13      HGA3     0.090000        1.0080           0
     22777 WT10     680      MECN     C2       CG1N1    0.360000       12.0110           0
     22778 WT10     680      MECN     N3       NG1T1   -0.460000       14.0070           0
     22779 WT10     682      MECN     C1       CG331   -0.170000       12.0110           0
     22780 WT10     682      MECN     H11      HGA3     0.090000        1.0080           0
     22781 WT10     682      MECN     H12      HGA3     0.090000        1.0080           0
     22782 WT10     682      MECN     H13      HGA3     0.090000        1.0080           0
     22783 WT10     682      MECN     C2       CG1N1    0.360000       12.0110           0
     22784 WT10     682      MECN     N3       NG1T1   -0.460000       14.0070           0
     22785 WT10     694      MECN     C1       CG331   -0.170000       12.0110           0
     22786 WT10     694      MECN     H11      HGA3     0.090000        1.0080           0
     22787 WT10     694      MECN     H12      HGA3     0.090000        1.0080           0
     22788 WT10     694      MECN     H13      HGA3     0.090000        1.0080           0
     22789 WT10     694      MECN     C2       CG1N1    0.360000       12.0110           0
     22790 WT10     694      MECN     N3       NG1T1   -0.460000       14.0070           0
     22791 WT10     696      MECN     C1       CG331   -0.170000       12.0110           0
     22792 WT10     696      MECN     H11      HGA3     0.090000        1.0080           0
     22793 WT10     696      MECN     H12      HGA3     0.090000        1.0080           0
     22794 WT10     696      MECN     H13      HGA3     0.090000        1.0080           0
     22795 WT10     696      MECN     C2       CG1N1    0.360000       12.0110           0
     22796 WT10     696      MECN     N3       NG1T1   -0.460000       14.0070           0
     22797 WT10     699      MECN     C1       CG331   -0.170000       12.0110           0
     22798 WT10     699      MECN     H11      HGA3     0.090000        1.0080           0
     22799 WT10     699      MECN     H12      HGA3     0.090000        1.0080           0
     22800 WT10     699      MECN     H13      HGA3     0.090000        1.0080           0
     22801 WT10     699      MECN     C2       CG1N1    0.360000       12.0110           0
     22802 WT10     699      MECN     N3       NG1T1   -0.460000       14.0070           0
     22803 WT10     704      MECN     C1       CG331   -0.170000       12.0110           0
     22804 WT10     704      MECN     H11      HGA3     0.090000        1.0080           0
     22805 WT10     704      MECN     H12      HGA3     0.090000        1.0080           0
     22806 WT10     704      MECN     H13      HGA3     0.090000        1.0080           0
     22807 WT10     704      MECN     C2       CG1N1    0.360000       12.0110           0
     22808 WT10     704      MECN     N3       NG1T1   -0.460000       14.0070           0
     22809 WT10     717      MECN     C1       CG331   -0.170000       12.0110           0
     22810 WT10     717      MECN     H11      HGA3     0.090000        1.0080           0
     22811 WT10     717      MECN     H12      HGA3     0.090000        1.0080           0
     22812 WT10     717      MECN     H13      HGA3     0.090000        1.0080           0
     22813 WT10     717      MECN     C2       CG1N1    0.360000       12.0110           0
     22814 WT10     717      MECN     N3       NG1T1   -0.460000       14.0070           0
     22815 WT10     721      MECN     C1       CG331   -0.170000       12.0110           0
     22816 WT10     721      MECN     H11      HGA3     0.090000        1.0080           0
     22817 WT10     721      MECN     H12      HGA3     0.090000        1.0080           0
     22818 WT10     721      MECN     H13      HGA3     0.090000        1.0080           0
     22819 WT10     721      MECN     C2       CG1N1    0.360000       12.0110           0
     22820 WT10     721      MECN     N3       NG1T1   -0.460000       14.0070           0
     22821 WT10     722      MECN     C1       CG331   -0.170000       12.0110           0
     22822 WT10     722      MECN     H11      HGA3     0.090000        1.0080           0
     22823 WT10     722      MECN     H12      HGA3     0.090000        1.0080           0
     22824 WT10     722      MECN     H13      HGA3     0.090000        1.0080           0
     22825 WT10     722      MECN     C2       CG1N1    0.360000       12.0110           0
     22826 WT10     722      MECN     N3       NG1T1   -0.460000       14.0070           0
     22827 WT10     723      MECN     C1       CG331   -0.170000       12.0110           0
     22828 WT10     723      MECN     H11      HGA3     0.090000        1.0080           0
     22829 WT10     723      MECN     H12      HGA3     0.090000        1.0080           0
     22830 WT10     723      MECN     H13      HGA3     0.090000        1.0080           0
     22831 WT10     723      MECN     C2       CG1N1    0.360000       12.0110           0
     22832 WT10     723      MECN     N3       NG1T1   -0.460000       14.0070           0
     22833 WT10     724      MECN     C1       CG331   -0.170000       12.0110           0
     22834 WT10     724      MECN     H11      HGA3     0.090000        1.0080           0
     22835 WT10     724      MECN     H12      HGA3     0.090000        1.0080           0
     22836 WT10     724      MECN     H13      HGA3     0.090000        1.0080           0
     22837 WT10     724      MECN     C2       CG1N1    0.360000       12.0110           0
     22838 WT10     724      MECN     N3       NG1T1   -0.460000       14.0070           0
     22839 WT10     726      MECN     C1       CG331   -0.170000       12.0110           0
     22840 WT10     726      MECN     H11      HGA3     0.090000        1.0080           0
     22841 WT10     726      MECN     H12      HGA3     0.090000        1.0080           0
     22842 WT10     726      MECN     H13      HGA3     0.090000        1.0080           0
     22843 WT10     726      MECN     C2       CG1N1    0.360000       12.0110           0
     22844 WT10     726      MECN     N3       NG1T1   -0.460000       14.0070           0
     22845 WT10     731      MECN     C1       CG331   -0.170000       12.0110           0
     22846 WT10     731      MECN     H11      HGA3     0.090000        1.0080           0
     22847 WT10     731      MECN     H12      HGA3     0.090000        1.0080           0
     22848 WT10     731      MECN     H13      HGA3     0.090000        1.0080           0
     22849 WT10     731      MECN     C2       CG1N1    0.360000       12.0110           0
     22850 WT10     731      MECN     N3       NG1T1   -0.460000       14.0070           0
     22851 WT10     743      MECN     C1       CG331   -0.170000       12.0110           0
     22852 WT10     743      MECN     H11      HGA3     0.090000        1.0080           0
     22853 WT10     743      MECN     H12      HGA3     0.090000        1.0080           0
     22854 WT10     743      MECN     H13      HGA3     0.090000        1.0080           0
     22855 WT10     743      MECN     C2       CG1N1    0.360000       12.0110           0
     22856 WT10     743      MECN     N3       NG1T1   -0.460000       14.0070           0
     22857 WT10     748      MECN     C1       CG331   -0.170000       12.0110           0
     22858 WT10     748      MECN     H11      HGA3     0.090000        1.0080           0
     22859 WT10     748      MECN     H12      HGA3     0.090000        1.0080           0
     22860 WT10     748      MECN     H13      HGA3     0.090000        1.0080           0
     22861 WT10     748      MECN     C2       CG1N1    0.360000       12.0110           0
     22862 WT10     748      MECN     N3       NG1T1   -0.460000       14.0070           0
     22863 WT10     761      MECN     C1       CG331   -0.170000       12.0110           0
     22864 WT10     761      MECN     H11      HGA3     0.090000        1.0080           0
     22865 WT10     761      MECN     H12      HGA3     0.090000        1.0080           0
     22866 WT10     761      MECN     H13      HGA3     0.090000        1.0080           0
     22867 WT10     761      MECN     C2       CG1N1    0.360000       12.0110           0
     22868 WT10     761      MECN     N3       NG1T1   -0.460000       14.0070           0
     22869 WT10     762      MECN     C1       CG331   -0.170000       12.0110           0
     22870 WT10     762      MECN     H11      HGA3     0.090000        1.0080           0
     22871 WT10     762      MECN     H12      HGA3     0.090000        1.0080           0
     22872 WT10     762      MECN     H13      HGA3     0.090000        1.0080           0
     22873 WT10     762      MECN     C2       CG1N1    0.360000       12.0110           0
     22874 WT10     762      MECN     N3       NG1T1   -0.460000       14.0070           0
     22875 WT10     763      MECN     C1       CG331   -0.170000       12.0110           0
     22876 WT10     763      MECN     H11      HGA3     0.090000        1.0080           0
     22877 WT10     763      MECN     H12      HGA3     0.090000        1.0080           0
     22878 WT10     763      MECN     H13      HGA3     0.090000        1.0080           0
     22879 WT10     763      MECN     C2       CG1N1    0.360000       12.0110           0
     22880 WT10     763      MECN     N3       NG1T1   -0.460000       14.0070           0
     22881 WT10     765      MECN     C1       CG331   -0.170000       12.0110           0
     22882 WT10     765      MECN     H11      HGA3     0.090000        1.0080           0
     22883 WT10     765      MECN     H12      HGA3     0.090000        1.0080           0
     22884 WT10     765      MECN     H13      HGA3     0.090000        1.0080           0
     22885 WT10     765      MECN     C2       CG1N1    0.360000       12.0110           0
     22886 WT10     765      MECN     N3       NG1T1   -0.460000       14.0070           0
     22887 WT10     768      MECN     C1       CG331   -0.170000       12.0110           0
     22888 WT10     768      MECN     H11      HGA3     0.090000        1.0080           0
     22889 WT10     768      MECN     H12      HGA3     0.090000        1.0080           0
     22890 WT10     768      MECN     H13      HGA3     0.090000        1.0080           0
     22891 WT10     768      MECN     C2       CG1N1    0.360000       12.0110           0
     22892 WT10     768      MECN     N3       NG1T1   -0.460000       14.0070           0
     22893 WT10     770      MECN     C1       CG331   -0.170000       12.0110           0
     22894 WT10     770      MECN     H11      HGA3     0.090000        1.0080           0
     22895 WT10     770      MECN     H12      HGA3     0.090000        1.0080           0
     22896 WT10     770      MECN     H13      HGA3     0.090000        1.0080           0
     22897 WT10     770      MECN     C2       CG1N1    0.360000       12.0110           0
     22898 WT10     770      MECN     N3       NG1T1   -0.460000       14.0070           0
     22899 WT10     772      MECN     C1       CG331   -0.170000       12.0110           0
     22900 WT10     772      MECN     H11      HGA3     0.090000        1.0080           0
     22901 WT10     772      MECN     H12      HGA3     0.090000        1.0080           0
     22902 WT10     772      MECN     H13      HGA3     0.090000        1.0080           0
     22903 WT10     772      MECN     C2       CG1N1    0.360000       12.0110           0
     22904 WT10     772      MECN     N3       NG1T1   -0.460000       14.0070           0
     22905 WT10     774      MECN     C1       CG331   -0.170000       12.0110           0
     22906 WT10     774      MECN     H11      HGA3     0.090000        1.0080           0
     22907 WT10     774      MECN     H12      HGA3     0.090000        1.0080           0
     22908 WT10     774      MECN     H13      HGA3     0.090000        1.0080           0
     22909 WT10     774      MECN     C2       CG1N1    0.360000       12.0110           0
     22910 WT10     774      MECN     N3       NG1T1   -0.460000       14.0070           0
     22911 WT10     775      MECN     C1       CG331   -0.170000       12.0110           0
     22912 WT10     775      MECN     H11      HGA3     0.090000        1.0080           0
     22913 WT10     775      MECN     H12      HGA3     0.090000        1.0080           0
     22914 WT10     775      MECN     H13      HGA3     0.090000        1.0080           0
     22915 WT10     775      MECN     C2       CG1N1    0.360000       12.0110           0
     22916 WT10     775      MECN     N3       NG1T1   -0.460000       14.0070           0
     22917 WT10     778      MECN     C1       CG331   -0.170000       12.0110           0
     22918 WT10     778      MECN     H11      HGA3     0.090000        1.0080           0
     22919 WT10     778      MECN     H12      HGA3     0.090000        1.0080           0
     22920 WT10     778      MECN     H13      HGA3     0.090000        1.0080           0
     22921 WT10     778      MECN     C2       CG1N1    0.360000       12.0110           0
     22922 WT10     778      MECN     N3       NG1T1   -0.460000       14.0070           0
     22923 WT10     782      MECN     C1       CG331   -0.170000       12.0110           0
     22924 WT10     782      MECN     H11      HGA3     0.090000        1.0080           0
     22925 WT10     782      MECN     H12      HGA3     0.090000        1.0080           0
     22926 WT10     782      MECN     H13      HGA3     0.090000        1.0080           0
     22927 WT10     782      MECN     C2       CG1N1    0.360000       12.0110           0
     22928 WT10     782      MECN     N3       NG1T1   -0.460000       14.0070           0
     22929 WT10     783      MECN     C1       CG331   -0.170000       12.0110           0
     22930 WT10     783      MECN     H11      HGA3     0.090000        1.0080           0
     22931 WT10     783      MECN     H12      HGA3     0.090000        1.0080           0
     22932 WT10     783      MECN     H13      HGA3     0.090000        1.0080           0
     22933 WT10     783      MECN     C2       CG1N1    0.360000       12.0110           0
     22934 WT10     783      MECN     N3       NG1T1   -0.460000       14.0070           0
     22935 WT10     791      MECN     C1       CG331   -0.170000       12.0110           0
     22936 WT10     791      MECN     H11      HGA3     0.090000        1.0080           0
     22937 WT10     791      MECN     H12      HGA3     0.090000        1.0080           0
     22938 WT10     791      MECN     H13      HGA3     0.090000        1.0080           0
     22939 WT10     791      MECN     C2       CG1N1    0.360000       12.0110           0
     22940 WT10     791      MECN     N3       NG1T1   -0.460000       14.0070           0
     22941 WT10     797      MECN     C1       CG331   -0.170000       12.0110           0
     22942 WT10     797      MECN     H11      HGA3     0.090000        1.0080           0
     22943 WT10     797      MECN     H12      HGA3     0.090000        1.0080           0
     22944 WT10     797      MECN     H13      HGA3     0.090000        1.0080           0
     22945 WT10     797      MECN     C2       CG1N1    0.360000       12.0110           0
     22946 WT10     797      MECN     N3       NG1T1   -0.460000       14.0070           0
     22947 WT10     799      MECN     C1       CG331   -0.170000       12.0110           0
     22948 WT10     799      MECN     H11      HGA3     0.090000        1.0080           0
     22949 WT10     799      MECN     H12      HGA3     0.090000        1.0080           0
     22950 WT10     799      MECN     H13      HGA3     0.090000        1.0080           0
     22951 WT10     799      MECN     C2       CG1N1    0.360000       12.0110           0
     22952 WT10     799      MECN     N3       NG1T1   -0.460000       14.0070           0
     22953 WT10     805      MECN     C1       CG331   -0.170000       12.0110           0
     22954 WT10     805      MECN     H11      HGA3     0.090000        1.0080           0
     22955 WT10     805      MECN     H12      HGA3     0.090000        1.0080           0
     22956 WT10     805      MECN     H13      HGA3     0.090000        1.0080           0
     22957 WT10     805      MECN     C2       CG1N1    0.360000       12.0110           0
     22958 WT10     805      MECN     N3       NG1T1   -0.460000       14.0070           0
     22959 WT10     807      MECN     C1       CG331   -0.170000       12.0110           0
     22960 WT10     807      MECN     H11      HGA3     0.090000        1.0080           0
     22961 WT10     807      MECN     H12      HGA3     0.090000        1.0080           0
     22962 WT10     807      MECN     H13      HGA3     0.090000        1.0080           0
     22963 WT10     807      MECN     C2       CG1N1    0.360000       12.0110           0
     22964 WT10     807      MECN     N3       NG1T1   -0.460000       14.0070           0
     22965 WT10     817      MECN     C1       CG331   -0.170000       12.0110           0
     22966 WT10     817      MECN     H11      HGA3     0.090000        1.0080           0
     22967 WT10     817      MECN     H12      HGA3     0.090000        1.0080           0
     22968 WT10     817      MECN     H13      HGA3     0.090000        1.0080           0
     22969 WT10     817      MECN     C2       CG1N1    0.360000       12.0110           0
     22970 WT10     817      MECN     N3       NG1T1   -0.460000       14.0070           0
     22971 WT10     818      MECN     C1       CG331   -0.170000       12.0110           0
     22972 WT10     818      MECN     H11      HGA3     0.090000        1.0080           0
     22973 WT10     818      MECN     H12      HGA3     0.090000        1.0080           0
     22974 WT10     818      MECN     H13      HGA3     0.090000        1.0080           0
     22975 WT10     818      MECN     C2       CG1N1    0.360000       12.0110           0
     22976 WT10     818      MECN     N3       NG1T1   -0.460000       14.0070           0
     22977 WT10     821      MECN     C1       CG331   -0.170000       12.0110           0
     22978 WT10     821      MECN     H11      HGA3     0.090000        1.0080           0
     22979 WT10     821      MECN     H12      HGA3     0.090000        1.0080           0
     22980 WT10     821      MECN     H13      HGA3     0.090000        1.0080           0
     22981 WT10     821      MECN     C2       CG1N1    0.360000       12.0110           0
     22982 WT10     821      MECN     N3       NG1T1   -0.460000       14.0070           0
     22983 WT10     822      MECN     C1       CG331   -0.170000       12.0110           0
     22984 WT10     822      MECN     H11      HGA3     0.090000        1.0080           0
     22985 WT10     822      MECN     H12      HGA3     0.090000        1.0080           0
     22986 WT10     822      MECN     H13      HGA3     0.090000        1.0080           0
     22987 WT10     822      MECN     C2       CG1N1    0.360000       12.0110           0
     22988 WT10     822      MECN     N3       NG1T1   -0.460000       14.0070           0
     22989 WT10     833      MECN     C1       CG331   -0.170000       12.0110           0
     22990 WT10     833      MECN     H11      HGA3     0.090000        1.0080           0
     22991 WT10     833      MECN     H12      HGA3     0.090000        1.0080           0
     22992 WT10     833      MECN     H13      HGA3     0.090000        1.0080           0
     22993 WT10     833      MECN     C2       CG1N1    0.360000       12.0110           0
     22994 WT10     833      MECN     N3       NG1T1   -0.460000       14.0070           0
     22995 WT10     834      MECN     C1       CG331   -0.170000       12.0110           0
     22996 WT10     834      MECN     H11      HGA3     0.090000        1.0080           0
     22997 WT10     834      MECN     H12      HGA3     0.090000        1.0080           0
     22998 WT10     834      MECN     H13      HGA3     0.090000        1.0080           0
     22999 WT10     834      MECN     C2       CG1N1    0.360000       12.0110           0
     23000 WT10     834      MECN     N3       NG1T1   -0.460000       14.0070           0
     23001 WT10     839      MECN     C1       CG331   -0.170000       12.0110           0
     23002 WT10     839      MECN     H11      HGA3     0.090000        1.0080           0
     23003 WT10     839      MECN     H12      HGA3     0.090000        1.0080           0
     23004 WT10     839      MECN     H13      HGA3     0.090000        1.0080           0
     23005 WT10     839      MECN     C2       CG1N1    0.360000       12.0110           0
     23006 WT10     839      MECN     N3       NG1T1   -0.460000       14.0070           0
     23007 WT10     849      MECN     C1       CG331   -0.170000       12.0110           0
     23008 WT10     849      MECN     H11      HGA3     0.090000        1.0080           0
     23009 WT10     849      MECN     H12      HGA3     0.090000        1.0080           0
     23010 WT10     849      MECN     H13      HGA3     0.090000        1.0080           0
     23011 WT10     849      MECN     C2       CG1N1    0.360000       12.0110           0
     23012 WT10     849      MECN     N3       NG1T1   -0.460000       14.0070           0
     23013 WT10     859      MECN     C1       CG331   -0.170000       12.0110           0
     23014 WT10     859      MECN     H11      HGA3     0.090000        1.0080           0
     23015 WT10     859      MECN     H12      HGA3     0.090000        1.0080           0
     23016 WT10     859      MECN     H13      HGA3     0.090000        1.0080           0
     23017 WT10     859      MECN     C2       CG1N1    0.360000       12.0110           0
     23018 WT10     859      MECN     N3       NG1T1   -0.460000       14.0070           0
     23019 WT10     860      MECN     C1       CG331   -0.170000       12.0110           0
     23020 WT10     860      MECN     H11      HGA3     0.090000        1.0080           0
     23021 WT10     860      MECN     H12      HGA3     0.090000        1.0080           0
     23022 WT10     860      MECN     H13      HGA3     0.090000        1.0080           0
     23023 WT10     860      MECN     C2       CG1N1    0.360000       12.0110           0
     23024 WT10     860      MECN     N3       NG1T1   -0.460000       14.0070           0
     23025 WT10     862      MECN     C1       CG331   -0.170000       12.0110           0
     23026 WT10     862      MECN     H11      HGA3     0.090000        1.0080           0
     23027 WT10     862      MECN     H12      HGA3     0.090000        1.0080           0
     23028 WT10     862      MECN     H13      HGA3     0.090000        1.0080           0
     23029 WT10     862      MECN     C2       CG1N1    0.360000       12.0110           0
     23030 WT10     862      MECN     N3       NG1T1   -0.460000       14.0070           0
     23031 WT10     864      MECN     C1       CG331   -0.170000       12.0110           0
     23032 WT10     864      MECN     H11      HGA3     0.090000        1.0080           0
     23033 WT10     864      MECN     H12      HGA3     0.090000        1.0080           0
     23034 WT10     864      MECN     H13      HGA3     0.090000        1.0080           0
     23035 WT10     864      MECN     C2       CG1N1    0.360000       12.0110           0
     23036 WT10     864      MECN     N3       NG1T1   -0.460000       14.0070           0
     23037 WT10     866      MECN     C1       CG331   -0.170000       12.0110           0
     23038 WT10     866      MECN     H11      HGA3     0.090000        1.0080           0
     23039 WT10     866      MECN     H12      HGA3     0.090000        1.0080           0
     23040 WT10     866      MECN     H13      HGA3     0.090000        1.0080           0
     23041 WT10     866      MECN     C2       CG1N1    0.360000       12.0110           0
     23042 WT10     866      MECN     N3       NG1T1   -0.460000       14.0070           0
     23043 WT10     867      MECN     C1       CG331   -0.170000       12.0110           0
     23044 WT10     867      MECN     H11      HGA3     0.090000        1.0080           0
     23045 WT10     867      MECN     H12      HGA3     0.090000        1.0080           0
     23046 WT10     867      MECN     H13      HGA3     0.090000        1.0080           0
     23047 WT10     867      MECN     C2       CG1N1    0.360000       12.0110           0
     23048 WT10     867      MECN     N3       NG1T1   -0.460000       14.0070           0
     23049 WT10     873      MECN     C1       CG331   -0.170000       12.0110           0
     23050 WT10     873      MECN     H11      HGA3     0.090000        1.0080           0
     23051 WT10     873      MECN     H12      HGA3     0.090000        1.0080           0
     23052 WT10     873      MECN     H13      HGA3     0.090000        1.0080           0
     23053 WT10     873      MECN     C2       CG1N1    0.360000       12.0110           0
     23054 WT10     873      MECN     N3       NG1T1   -0.460000       14.0070           0
     23055 WT10     875      MECN     C1       CG331   -0.170000       12.0110           0
     23056 WT10     875      MECN     H11      HGA3     0.090000        1.0080           0
     23057 WT10     875      MECN     H12      HGA3     0.090000        1.0080           0
     23058 WT10     875      MECN     H13      HGA3     0.090000        1.0080           0
     23059 WT10     875      MECN     C2       CG1N1    0.360000       12.0110           0
     23060 WT10     875      MECN     N3       NG1T1   -0.460000       14.0070           0
     23061 WT10     882      MECN     C1       CG331   -0.170000       12.0110           0
     23062 WT10     882      MECN     H11      HGA3     0.090000        1.0080           0
     23063 WT10     882      MECN     H12      HGA3     0.090000        1.0080           0
     23064 WT10     882      MECN     H13      HGA3     0.090000        1.0080           0
     23065 WT10     882      MECN     C2       CG1N1    0.360000       12.0110           0
     23066 WT10     882      MECN     N3       NG1T1   -0.460000       14.0070           0
     23067 WT10     890      MECN     C1       CG331   -0.170000       12.0110           0
     23068 WT10     890      MECN     H11      HGA3     0.090000        1.0080           0
     23069 WT10     890      MECN     H12      HGA3     0.090000        1.0080           0
     23070 WT10     890      MECN     H13      HGA3     0.090000        1.0080           0
     23071 WT10     890      MECN     C2       CG1N1    0.360000       12.0110           0
     23072 WT10     890      MECN     N3       NG1T1   -0.460000       14.0070           0
     23073 WT10     891      MECN     C1       CG331   -0.170000       12.0110           0
     23074 WT10     891      MECN     H11      HGA3     0.090000        1.0080           0
     23075 WT10     891      MECN     H12      HGA3     0.090000        1.0080           0
     23076 WT10     891      MECN     H13      HGA3     0.090000        1.0080           0
     23077 WT10     891      MECN     C2       CG1N1    0.360000       12.0110           0
     23078 WT10     891      MECN     N3       NG1T1   -0.460000       14.0070           0
     23079 WT10     897      MECN     C1       CG331   -0.170000       12.0110           0
     23080 WT10     897      MECN     H11      HGA3     0.090000        1.0080           0
     23081 WT10     897      MECN     H12      HGA3     0.090000        1.0080           0
     23082 WT10     897      MECN     H13      HGA3     0.090000        1.0080           0
     23083 WT10     897      MECN     C2       CG1N1    0.360000       12.0110           0
     23084 WT10     897      MECN     N3       NG1T1   -0.460000       14.0070           0
     23085 WT10     899      MECN     C1       CG331   -0.170000       12.0110           0
     23086 WT10     899      MECN     H11      HGA3     0.090000        1.0080           0
     23087 WT10     899      MECN     H12      HGA3     0.090000        1.0080           0
     23088 WT10     899      MECN     H13      HGA3     0.090000        1.0080           0
     23089 WT10     899      MECN     C2       CG1N1    0.360000       12.0110           0
     23090 WT10     899      MECN     N3       NG1T1   -0.460000       14.0070           0
     23091 WT10     902      MECN     C1       CG331   -0.170000       12.0110           0
     23092 WT10     902      MECN     H11      HGA3     0.090000        1.0080           0
     23093 WT10     902      MECN     H12      HGA3     0.090000        1.0080           0
     23094 WT10     902      MECN     H13      HGA3     0.090000        1.0080           0
     23095 WT10     902      MECN     C2       CG1N1    0.360000       12.0110           0
     23096 WT10     902      MECN     N3       NG1T1   -0.460000       14.0070           0
     23097 WT10     904      MECN     C1       CG331   -0.170000       12.0110           0
     23098 WT10     904      MECN     H11      HGA3     0.090000        1.0080           0
     23099 WT10     904      MECN     H12      HGA3     0.090000        1.0080           0
     23100 WT10     904      MECN     H13      HGA3     0.090000        1.0080           0
     23101 WT10     904      MECN     C2       CG1N1    0.360000       12.0110           0
     23102 WT10     904      MECN     N3       NG1T1   -0.460000       14.0070           0
     23103 WT10     914      MECN     C1       CG331   -0.170000       12.0110           0
     23104 WT10     914      MECN     H11      HGA3     0.090000        1.0080           0
     23105 WT10     914      MECN     H12      HGA3     0.090000        1.0080           0
     23106 WT10     914      MECN     H13      HGA3     0.090000        1.0080           0
     23107 WT10     914      MECN     C2       CG1N1    0.360000       12.0110           0
     23108 WT10     914      MECN     N3       NG1T1   -0.460000       14.0070           0
     23109 WT10     915      MECN     C1       CG331   -0.170000       12.0110           0
     23110 WT10     915      MECN     H11      HGA3     0.090000        1.0080           0
     23111 WT10     915      MECN     H12      HGA3     0.090000        1.0080           0
     23112 WT10     915      MECN     H13      HGA3     0.090000        1.0080           0
     23113 WT10     915      MECN     C2       CG1N1    0.360000       12.0110           0
     23114 WT10     915      MECN     N3       NG1T1   -0.460000       14.0070           0
     23115 WT10     918      MECN     C1       CG331   -0.170000       12.0110           0
     23116 WT10     918      MECN     H11      HGA3     0.090000        1.0080           0
     23117 WT10     918      MECN     H12      HGA3     0.090000        1.0080           0
     23118 WT10     918      MECN     H13      HGA3     0.090000        1.0080           0
     23119 WT10     918      MECN     C2       CG1N1    0.360000       12.0110           0
     23120 WT10     918      MECN     N3       NG1T1   -0.460000       14.0070           0
     23121 WT10     920      MECN     C1       CG331   -0.170000       12.0110           0
     23122 WT10     920      MECN     H11      HGA3     0.090000        1.0080           0
     23123 WT10     920      MECN     H12      HGA3     0.090000        1.0080           0
     23124 WT10     920      MECN     H13      HGA3     0.090000        1.0080           0
     23125 WT10     920      MECN     C2       CG1N1    0.360000       12.0110           0
     23126 WT10     920      MECN     N3       NG1T1   -0.460000       14.0070           0
     23127 WT10     922      MECN     C1       CG331   -0.170000       12.0110           0
     23128 WT10     922      MECN     H11      HGA3     0.090000        1.0080           0
     23129 WT10     922      MECN     H12      HGA3     0.090000        1.0080           0
     23130 WT10     922      MECN     H13      HGA3     0.090000        1.0080           0
     23131 WT10     922      MECN     C2       CG1N1    0.360000       12.0110           0
     23132 WT10     922      MECN     N3       NG1T1   -0.460000       14.0070           0
     23133 WT10     924      MECN     C1       CG331   -0.170000       12.0110           0
     23134 WT10     924      MECN     H11      HGA3     0.090000        1.0080           0
     23135 WT10     924      MECN     H12      HGA3     0.090000        1.0080           0
     23136 WT10     924      MECN     H13      HGA3     0.090000        1.0080           0
     23137 WT10     924      MECN     C2       CG1N1    0.360000       12.0110           0
     23138 WT10     924      MECN     N3       NG1T1   -0.460000       14.0070           0
     23139 WT10     926      MECN     C1       CG331   -0.170000       12.0110           0
     23140 WT10     926      MECN     H11      HGA3     0.090000        1.0080           0
     23141 WT10     926      MECN     H12      HGA3     0.090000        1.0080           0
     23142 WT10     926      MECN     H13      HGA3     0.090000        1.0080           0
     23143 WT10     926      MECN     C2       CG1N1    0.360000       12.0110           0
     23144 WT10     926      MECN     N3       NG1T1   -0.460000       14.0070           0
     23145 WT10     933      MECN     C1       CG331   -0.170000       12.0110           0
     23146 WT10     933      MECN     H11      HGA3     0.090000        1.0080           0
     23147 WT10     933      MECN     H12      HGA3     0.090000        1.0080           0
     23148 WT10     933      MECN     H13      HGA3     0.090000        1.0080           0
     23149 WT10     933      MECN     C2       CG1N1    0.360000       12.0110           0
     23150 WT10     933      MECN     N3       NG1T1   -0.460000       14.0070           0
     23151 WT10     934      MECN     C1       CG331   -0.170000       12.0110           0
     23152 WT10     934      MECN     H11      HGA3     0.090000        1.0080           0
     23153 WT10     934      MECN     H12      HGA3     0.090000        1.0080           0
     23154 WT10     934      MECN     H13      HGA3     0.090000        1.0080           0
     23155 WT10     934      MECN     C2       CG1N1    0.360000       12.0110           0
     23156 WT10     934      MECN     N3       NG1T1   -0.460000       14.0070           0
     23157 WT10     935      MECN     C1       CG331   -0.170000       12.0110           0
     23158 WT10     935      MECN     H11      HGA3     0.090000        1.0080           0
     23159 WT10     935      MECN     H12      HGA3     0.090000        1.0080           0
     23160 WT10     935      MECN     H13      HGA3     0.090000        1.0080           0
     23161 WT10     935      MECN     C2       CG1N1    0.360000       12.0110           0
     23162 WT10     935      MECN     N3       NG1T1   -0.460000       14.0070           0
     23163 WT10     938      MECN     C1       CG331   -0.170000       12.0110           0
     23164 WT10     938      MECN     H11      HGA3     0.090000        1.0080           0
     23165 WT10     938      MECN     H12      HGA3     0.090000        1.0080           0
     23166 WT10     938      MECN     H13      HGA3     0.090000        1.0080           0
     23167 WT10     938      MECN     C2       CG1N1    0.360000       12.0110           0
     23168 WT10     938      MECN     N3       NG1T1   -0.460000       14.0070           0
     23169 WT10     939      MECN     C1       CG331   -0.170000       12.0110           0
     23170 WT10     939      MECN     H11      HGA3     0.090000        1.0080           0
     23171 WT10     939      MECN     H12      HGA3     0.090000        1.0080           0
     23172 WT10     939      MECN     H13      HGA3     0.090000        1.0080           0
     23173 WT10     939      MECN     C2       CG1N1    0.360000       12.0110           0
     23174 WT10     939      MECN     N3       NG1T1   -0.460000       14.0070           0
     23175 WT10     943      MECN     C1       CG331   -0.170000       12.0110           0
     23176 WT10     943      MECN     H11      HGA3     0.090000        1.0080           0
     23177 WT10     943      MECN     H12      HGA3     0.090000        1.0080           0
     23178 WT10     943      MECN     H13      HGA3     0.090000        1.0080           0
     23179 WT10     943      MECN     C2       CG1N1    0.360000       12.0110           0
     23180 WT10     943      MECN     N3       NG1T1   -0.460000       14.0070           0
     23181 WT10     977      MECN     C1       CG331   -0.170000       12.0110           0
     23182 WT10     977      MECN     H11      HGA3     0.090000        1.0080           0
     23183 WT10     977      MECN     H12      HGA3     0.090000        1.0080           0
     23184 WT10     977      MECN     H13      HGA3     0.090000        1.0080           0
     23185 WT10     977      MECN     C2       CG1N1    0.360000       12.0110           0
     23186 WT10     977      MECN     N3       NG1T1   -0.460000       14.0070           0
     23187 WT10     983      MECN     C1       CG331   -0.170000       12.0110           0
     23188 WT10     983      MECN     H11      HGA3     0.090000        1.0080           0
     23189 WT10     983      MECN     H12      HGA3     0.090000        1.0080           0
     23190 WT10     983      MECN     H13      HGA3     0.090000        1.0080           0
     23191 WT10     983      MECN     C2       CG1N1    0.360000       12.0110           0
     23192 WT10     983      MECN     N3       NG1T1   -0.460000       14.0070           0
     23193 WT10     985      MECN     C1       CG331   -0.170000       12.0110           0
     23194 WT10     985      MECN     H11      HGA3     0.090000        1.0080           0
     23195 WT10     985      MECN     H12      HGA3     0.090000        1.0080           0
     23196 WT10     985      MECN     H13      HGA3     0.090000        1.0080           0
     23197 WT10     985      MECN     C2       CG1N1    0.360000       12.0110           0
     23198 WT10     985      MECN     N3       NG1T1   -0.460000       14.0070           0
     23199 WT10     986      MECN     C1       CG331   -0.170000       12.0110           0
     23200 WT10     986      MECN     H11      HGA3     0.090000        1.0080           0
     23201 WT10     986      MECN     H12      HGA3     0.090000        1.0080           0
     23202 WT10     986      MECN     H13      HGA3     0.090000        1.0080           0
     23203 WT10     986      MECN     C2       CG1N1    0.360000       12.0110           0
     23204 WT10     986      MECN     N3       NG1T1   -0.460000       14.0070           0
     23205 WT10     988      MECN     C1       CG331   -0.170000       12.0110           0
     23206 WT10     988      MECN     H11      HGA3     0.090000        1.0080           0
     23207 WT10     988      MECN     H12      HGA3     0.090000        1.0080           0
     23208 WT10     988      MECN     H13      HGA3     0.090000        1.0080           0
     23209 WT10     988      MECN     C2       CG1N1    0.360000       12.0110           0
     23210 WT10     988      MECN     N3       NG1T1   -0.460000       14.0070           0
     23211 WT10     992      MECN     C1       CG331   -0.170000       12.0110           0
     23212 WT10     992      MECN     H11      HGA3     0.090000        1.0080           0
     23213 WT10     992      MECN     H12      HGA3     0.090000        1.0080           0
     23214 WT10     992      MECN     H13      HGA3     0.090000        1.0080           0
     23215 WT10     992      MECN     C2       CG1N1    0.360000       12.0110           0
     23216 WT10     992      MECN     N3       NG1T1   -0.460000       14.0070           0
     23217 WT10     999      MECN     C1       CG331   -0.170000       12.0110           0
     23218 WT10     999      MECN     H11      HGA3     0.090000        1.0080           0
     23219 WT10     999      MECN     H12      HGA3     0.090000        1.0080           0
     23220 WT10     999      MECN     H13      HGA3     0.090000        1.0080           0
     23221 WT10     999      MECN     C2       CG1N1    0.360000       12.0110           0
     23222 WT10     999      MECN     N3       NG1T1   -0.460000       14.0070           0
     23223 WT10     1006     MECN     C1       CG331   -0.170000       12.0110           0
     23224 WT10     1006     MECN     H11      HGA3     0.090000        1.0080           0
     23225 WT10     1006     MECN     H12      HGA3     0.090000        1.0080           0
     23226 WT10     1006     MECN     H13      HGA3     0.090000        1.0080           0
     23227 WT10     1006     MECN     C2       CG1N1    0.360000       12.0110           0
     23228 WT10     1006     MECN     N3       NG1T1   -0.460000       14.0070           0
     23229 WT10     1020     MECN     C1       CG331   -0.170000       12.0110           0
     23230 WT10     1020     MECN     H11      HGA3     0.090000        1.0080           0
     23231 WT10     1020     MECN     H12      HGA3     0.090000        1.0080           0
     23232 WT10     1020     MECN     H13      HGA3     0.090000        1.0080           0
     23233 WT10     1020     MECN     C2       CG1N1    0.360000       12.0110           0
     23234 WT10     1020     MECN     N3       NG1T1   -0.460000       14.0070           0
     23235 WT10     1021     MECN     C1       CG331   -0.170000       12.0110           0
     23236 WT10     1021     MECN     H11      HGA3     0.090000        1.0080           0
     23237 WT10     1021     MECN     H12      HGA3     0.090000        1.0080           0
     23238 WT10     1021     MECN     H13      HGA3     0.090000        1.0080           0
     23239 WT10     1021     MECN     C2       CG1N1    0.360000       12.0110           0
     23240 WT10     1021     MECN     N3       NG1T1   -0.460000       14.0070           0
     23241 WT10     1029     MECN     C1       CG331   -0.170000       12.0110           0
     23242 WT10     1029     MECN     H11      HGA3     0.090000        1.0080           0
     23243 WT10     1029     MECN     H12      HGA3     0.090000        1.0080           0
     23244 WT10     1029     MECN     H13      HGA3     0.090000        1.0080           0
     23245 WT10     1029     MECN     C2       CG1N1    0.360000       12.0110           0
     23246 WT10     1029     MECN     N3       NG1T1   -0.460000       14.0070           0
     23247 WT10     1030     MECN     C1       CG331   -0.170000       12.0110           0
     23248 WT10     1030     MECN     H11      HGA3     0.090000        1.0080           0
     23249 WT10     1030     MECN     H12      HGA3     0.090000        1.0080           0
     23250 WT10     1030     MECN     H13      HGA3     0.090000        1.0080           0
     23251 WT10     1030     MECN     C2       CG1N1    0.360000       12.0110           0
     23252 WT10     1030     MECN     N3       NG1T1   -0.460000       14.0070           0
     23253 WT10     1040     MECN     C1       CG331   -0.170000       12.0110           0
     23254 WT10     1040     MECN     H11      HGA3     0.090000        1.0080           0
     23255 WT10     1040     MECN     H12      HGA3     0.090000        1.0080           0
     23256 WT10     1040     MECN     H13      HGA3     0.090000        1.0080           0
     23257 WT10     1040     MECN     C2       CG1N1    0.360000       12.0110           0
     23258 WT10     1040     MECN     N3       NG1T1   -0.460000       14.0070           0
     23259 WT10     1043     MECN     C1       CG331   -0.170000       12.0110           0
     23260 WT10     1043     MECN     H11      HGA3     0.090000        1.0080           0
     23261 WT10     1043     MECN     H12      HGA3     0.090000        1.0080           0
     23262 WT10     1043     MECN     H13      HGA3     0.090000        1.0080           0
     23263 WT10     1043     MECN     C2       CG1N1    0.360000       12.0110           0
     23264 WT10     1043     MECN     N3       NG1T1   -0.460000       14.0070           0
     23265 WT10     1050     MECN     C1       CG331   -0.170000       12.0110           0
     23266 WT10     1050     MECN     H11      HGA3     0.090000        1.0080           0
     23267 WT10     1050     MECN     H12      HGA3     0.090000        1.0080           0
     23268 WT10     1050     MECN     H13      HGA3     0.090000        1.0080           0
     23269 WT10     1050     MECN     C2       CG1N1    0.360000       12.0110           0
     23270 WT10     1050     MECN     N3       NG1T1   -0.460000       14.0070           0
     23271 WT10     1052     MECN     C1       CG331   -0.170000       12.0110           0
     23272 WT10     1052     MECN     H11      HGA3     0.090000        1.0080           0
     23273 WT10     1052     MECN     H12      HGA3     0.090000        1.0080           0
     23274 WT10     1052     MECN     H13      HGA3     0.090000        1.0080           0
     23275 WT10     1052     MECN     C2       CG1N1    0.360000       12.0110           0
     23276 WT10     1052     MECN     N3       NG1T1   -0.460000       14.0070           0
     23277 WT10     1054     MECN     C1       CG331   -0.170000       12.0110           0
     23278 WT10     1054     MECN     H11      HGA3     0.090000        1.0080           0
     23279 WT10     1054     MECN     H12      HGA3     0.090000        1.0080           0
     23280 WT10     1054     MECN     H13      HGA3     0.090000        1.0080           0
     23281 WT10     1054     MECN     C2       CG1N1    0.360000       12.0110           0
     23282 WT10     1054     MECN     N3       NG1T1   -0.460000       14.0070           0
     23283 WT10     1059     MECN     C1       CG331   -0.170000       12.0110           0
     23284 WT10     1059     MECN     H11      HGA3     0.090000        1.0080           0
     23285 WT10     1059     MECN     H12      HGA3     0.090000        1.0080           0
     23286 WT10     1059     MECN     H13      HGA3     0.090000        1.0080           0
     23287 WT10     1059     MECN     C2       CG1N1    0.360000       12.0110           0
     23288 WT10     1059     MECN     N3       NG1T1   -0.460000       14.0070           0
     23289 WT10     1061     MECN     C1       CG331   -0.170000       12.0110           0
     23290 WT10     1061     MECN     H11      HGA3     0.090000        1.0080           0
     23291 WT10     1061     MECN     H12      HGA3     0.090000        1.0080           0
     23292 WT10     1061     MECN     H13      HGA3     0.090000        1.0080           0
     23293 WT10     1061     MECN     C2       CG1N1    0.360000       12.0110           0
     23294 WT10     1061     MECN     N3       NG1T1   -0.460000       14.0070           0
     23295 WT10     1075     MECN     C1       CG331   -0.170000       12.0110           0
     23296 WT10     1075     MECN     H11      HGA3     0.090000        1.0080           0
     23297 WT10     1075     MECN     H12      HGA3     0.090000        1.0080           0
     23298 WT10     1075     MECN     H13      HGA3     0.090000        1.0080           0
     23299 WT10     1075     MECN     C2       CG1N1    0.360000       12.0110           0
     23300 WT10     1075     MECN     N3       NG1T1   -0.460000       14.0070           0
     23301 WT10     1087     MECN     C1       CG331   -0.170000       12.0110           0
     23302 WT10     1087     MECN     H11      HGA3     0.090000        1.0080           0
     23303 WT10     1087     MECN     H12      HGA3     0.090000        1.0080           0
     23304 WT10     1087     MECN     H13      HGA3     0.090000        1.0080           0
     23305 WT10     1087     MECN     C2       CG1N1    0.360000       12.0110           0
     23306 WT10     1087     MECN     N3       NG1T1   -0.460000       14.0070           0
     23307 WT10     1098     MECN     C1       CG331   -0.170000       12.0110           0
     23308 WT10     1098     MECN     H11      HGA3     0.090000        1.0080           0
     23309 WT10     1098     MECN     H12      HGA3     0.090000        1.0080           0
     23310 WT10     1098     MECN     H13      HGA3     0.090000        1.0080           0
     23311 WT10     1098     MECN     C2       CG1N1    0.360000       12.0110           0
     23312 WT10     1098     MECN     N3       NG1T1   -0.460000       14.0070           0
     23313 WT10     1099     MECN     C1       CG331   -0.170000       12.0110           0
     23314 WT10     1099     MECN     H11      HGA3     0.090000        1.0080           0
     23315 WT10     1099     MECN     H12      HGA3     0.090000        1.0080           0
     23316 WT10     1099     MECN     H13      HGA3     0.090000        1.0080           0
     23317 WT10     1099     MECN     C2       CG1N1    0.360000       12.0110           0
     23318 WT10     1099     MECN     N3       NG1T1   -0.460000       14.0070           0
     23319 WT10     1113     MECN     C1       CG331   -0.170000       12.0110           0
     23320 WT10     1113     MECN     H11      HGA3     0.090000        1.0080           0
     23321 WT10     1113     MECN     H12      HGA3     0.090000        1.0080           0
     23322 WT10     1113     MECN     H13      HGA3     0.090000        1.0080           0
     23323 WT10     1113     MECN     C2       CG1N1    0.360000       12.0110           0
     23324 WT10     1113     MECN     N3       NG1T1   -0.460000       14.0070           0
     23325 WT10     1115     MECN     C1       CG331   -0.170000       12.0110           0
     23326 WT10     1115     MECN     H11      HGA3     0.090000        1.0080           0
     23327 WT10     1115     MECN     H12      HGA3     0.090000        1.0080           0
     23328 WT10     1115     MECN     H13      HGA3     0.090000        1.0080           0
     23329 WT10     1115     MECN     C2       CG1N1    0.360000       12.0110           0
     23330 WT10     1115     MECN     N3       NG1T1   -0.460000       14.0070           0
     23331 WT10     1121     MECN     C1       CG331   -0.170000       12.0110           0
     23332 WT10     1121     MECN     H11      HGA3     0.090000        1.0080           0
     23333 WT10     1121     MECN     H12      HGA3     0.090000        1.0080           0
     23334 WT10     1121     MECN     H13      HGA3     0.090000        1.0080           0
     23335 WT10     1121     MECN     C2       CG1N1    0.360000       12.0110           0
     23336 WT10     1121     MECN     N3       NG1T1   -0.460000       14.0070           0
     23337 WT10     1130     MECN     C1       CG331   -0.170000       12.0110           0
     23338 WT10     1130     MECN     H11      HGA3     0.090000        1.0080           0
     23339 WT10     1130     MECN     H12      HGA3     0.090000        1.0080           0
     23340 WT10     1130     MECN     H13      HGA3     0.090000        1.0080           0
     23341 WT10     1130     MECN     C2       CG1N1    0.360000       12.0110           0
     23342 WT10     1130     MECN     N3       NG1T1   -0.460000       14.0070           0
     23343 WT10     1134     MECN     C1       CG331   -0.170000       12.0110           0
     23344 WT10     1134     MECN     H11      HGA3     0.090000        1.0080           0
     23345 WT10     1134     MECN     H12      HGA3     0.090000        1.0080           0
     23346 WT10     1134     MECN     H13      HGA3     0.090000        1.0080           0
     23347 WT10     1134     MECN     C2       CG1N1    0.360000       12.0110           0
     23348 WT10     1134     MECN     N3       NG1T1   -0.460000       14.0070           0
     23349 WT10     1136     MECN     C1       CG331   -0.170000       12.0110           0
     23350 WT10     1136     MECN     H11      HGA3     0.090000        1.0080           0
     23351 WT10     1136     MECN     H12      HGA3     0.090000        1.0080           0
     23352 WT10     1136     MECN     H13      HGA3     0.090000        1.0080           0
     23353 WT10     1136     MECN     C2       CG1N1    0.360000       12.0110           0
     23354 WT10     1136     MECN     N3       NG1T1   -0.460000       14.0070           0
     23355 WT10     1143     MECN     C1       CG331   -0.170000       12.0110           0
     23356 WT10     1143     MECN     H11      HGA3     0.090000        1.0080           0
     23357 WT10     1143     MECN     H12      HGA3     0.090000        1.0080           0
     23358 WT10     1143     MECN     H13      HGA3     0.090000        1.0080           0
     23359 WT10     1143     MECN     C2       CG1N1    0.360000       12.0110           0
     23360 WT10     1143     MECN     N3       NG1T1   -0.460000       14.0070           0
     23361 WT10     1166     MECN     C1       CG331   -0.170000       12.0110           0
     23362 WT10     1166     MECN     H11      HGA3     0.090000        1.0080           0
     23363 WT10     1166     MECN     H12      HGA3     0.090000        1.0080           0
     23364 WT10     1166     MECN     H13      HGA3     0.090000        1.0080           0
     23365 WT10     1166     MECN     C2       CG1N1    0.360000       12.0110           0
     23366 WT10     1166     MECN     N3       NG1T1   -0.460000       14.0070           0
     23367 WT10     1174     MECN     C1       CG331   -0.170000       12.0110           0
     23368 WT10     1174     MECN     H11      HGA3     0.090000        1.0080           0
     23369 WT10     1174     MECN     H12      HGA3     0.090000        1.0080           0
     23370 WT10     1174     MECN     H13      HGA3     0.090000        1.0080           0
     23371 WT10     1174     MECN     C2       CG1N1    0.360000       12.0110           0
     23372 WT10     1174     MECN     N3       NG1T1   -0.460000       14.0070           0
     23373 WT10     1178     MECN     C1       CG331   -0.170000       12.0110           0
     23374 WT10     1178     MECN     H11      HGA3     0.090000        1.0080           0
     23375 WT10     1178     MECN     H12      HGA3     0.090000        1.0080           0
     23376 WT10     1178     MECN     H13      HGA3     0.090000        1.0080           0
     23377 WT10     1178     MECN     C2       CG1N1    0.360000       12.0110           0
     23378 WT10     1178     MECN     N3       NG1T1   -0.460000       14.0070           0
     23379 WT10     1181     MECN     C1       CG331   -0.170000       12.0110           0
     23380 WT10     1181     MECN     H11      HGA3     0.090000        1.0080           0
     23381 WT10     1181     MECN     H12      HGA3     0.090000        1.0080           0
     23382 WT10     1181     MECN     H13      HGA3     0.090000        1.0080           0
     23383 WT10     1181     MECN     C2       CG1N1    0.360000       12.0110           0
     23384 WT10     1181     MECN     N3       NG1T1   -0.460000       14.0070           0
     23385 WT10     1191     MECN     C1       CG331   -0.170000       12.0110           0
     23386 WT10     1191     MECN     H11      HGA3     0.090000        1.0080           0
     23387 WT10     1191     MECN     H12      HGA3     0.090000        1.0080           0
     23388 WT10     1191     MECN     H13      HGA3     0.090000        1.0080           0
     23389 WT10     1191     MECN     C2       CG1N1    0.360000       12.0110           0
     23390 WT10     1191     MECN     N3       NG1T1   -0.460000       14.0070           0
     23391 WT10     1195     MECN     C1       CG331   -0.170000       12.0110           0
     23392 WT10     1195     MECN     H11      HGA3     0.090000        1.0080           0
     23393 WT10     1195     MECN     H12      HGA3     0.090000        1.0080           0
     23394 WT10     1195     MECN     H13      HGA3     0.090000        1.0080           0
     23395 WT10     1195     MECN     C2       CG1N1    0.360000       12.0110           0
     23396 WT10     1195     MECN     N3       NG1T1   -0.460000       14.0070           0
     23397 WT10     1199     MECN     C1       CG331   -0.170000       12.0110           0
     23398 WT10     1199     MECN     H11      HGA3     0.090000        1.0080           0
     23399 WT10     1199     MECN     H12      HGA3     0.090000        1.0080           0
     23400 WT10     1199     MECN     H13      HGA3     0.090000        1.0080           0
     23401 WT10     1199     MECN     C2       CG1N1    0.360000       12.0110           0
     23402 WT10     1199     MECN     N3       NG1T1   -0.460000       14.0070           0
     23403 WT10     1205     MECN     C1       CG331   -0.170000       12.0110           0
     23404 WT10     1205     MECN     H11      HGA3     0.090000        1.0080           0
     23405 WT10     1205     MECN     H12      HGA3     0.090000        1.0080           0
     23406 WT10     1205     MECN     H13      HGA3     0.090000        1.0080           0
     23407 WT10     1205     MECN     C2       CG1N1    0.360000       12.0110           0
     23408 WT10     1205     MECN     N3       NG1T1   -0.460000       14.0070           0
     23409 WT10     1207     MECN     C1       CG331   -0.170000       12.0110           0
     23410 WT10     1207     MECN     H11      HGA3     0.090000        1.0080           0
     23411 WT10     1207     MECN     H12      HGA3     0.090000        1.0080           0
     23412 WT10     1207     MECN     H13      HGA3     0.090000        1.0080           0
     23413 WT10     1207     MECN     C2       CG1N1    0.360000       12.0110           0
     23414 WT10     1207     MECN     N3       NG1T1   -0.460000       14.0070           0
     23415 WT10     1211     MECN     C1       CG331   -0.170000       12.0110           0
     23416 WT10     1211     MECN     H11      HGA3     0.090000        1.0080           0
     23417 WT10     1211     MECN     H12      HGA3     0.090000        1.0080           0
     23418 WT10     1211     MECN     H13      HGA3     0.090000        1.0080           0
     23419 WT10     1211     MECN     C2       CG1N1    0.360000       12.0110           0
     23420 WT10     1211     MECN     N3       NG1T1   -0.460000       14.0070           0
     23421 WT10     1215     MECN     C1       CG331   -0.170000       12.0110           0
     23422 WT10     1215     MECN     H11      HGA3     0.090000        1.0080           0
     23423 WT10     1215     MECN     H12      HGA3     0.090000        1.0080           0
     23424 WT10     1215     MECN     H13      HGA3     0.090000        1.0080           0
     23425 WT10     1215     MECN     C2       CG1N1    0.360000       12.0110           0
     23426 WT10     1215     MECN     N3       NG1T1   -0.460000       14.0070           0
     23427 WT10     1220     MECN     C1       CG331   -0.170000       12.0110           0
     23428 WT10     1220     MECN     H11      HGA3     0.090000        1.0080           0
     23429 WT10     1220     MECN     H12      HGA3     0.090000        1.0080           0
     23430 WT10     1220     MECN     H13      HGA3     0.090000        1.0080           0
     23431 WT10     1220     MECN     C2       CG1N1    0.360000       12.0110           0
     23432 WT10     1220     MECN     N3       NG1T1   -0.460000       14.0070           0
     23433 WT10     1223     MECN     C1       CG331   -0.170000       12.0110           0
     23434 WT10     1223     MECN     H11      HGA3     0.090000        1.0080           0
     23435 WT10     1223     MECN     H12      HGA3     0.090000        1.0080           0
     23436 WT10     1223     MECN     H13      HGA3     0.090000        1.0080           0
     23437 WT10     1223     MECN     C2       CG1N1    0.360000       12.0110           0
     23438 WT10     1223     MECN     N3       NG1T1   -0.460000       14.0070           0
     23439 WT10     1228     MECN     C1       CG331   -0.170000       12.0110           0
     23440 WT10     1228     MECN     H11      HGA3     0.090000        1.0080           0
     23441 WT10     1228     MECN     H12      HGA3     0.090000        1.0080           0
     23442 WT10     1228     MECN     H13      HGA3     0.090000        1.0080           0
     23443 WT10     1228     MECN     C2       CG1N1    0.360000       12.0110           0
     23444 WT10     1228     MECN     N3       NG1T1   -0.460000       14.0070           0
     23445 WT10     1236     MECN     C1       CG331   -0.170000       12.0110           0
     23446 WT10     1236     MECN     H11      HGA3     0.090000        1.0080           0
     23447 WT10     1236     MECN     H12      HGA3     0.090000        1.0080           0
     23448 WT10     1236     MECN     H13      HGA3     0.090000        1.0080           0
     23449 WT10     1236     MECN     C2       CG1N1    0.360000       12.0110           0
     23450 WT10     1236     MECN     N3       NG1T1   -0.460000       14.0070           0
     23451 WT10     1242     MECN     C1       CG331   -0.170000       12.0110           0
     23452 WT10     1242     MECN     H11      HGA3     0.090000        1.0080           0
     23453 WT10     1242     MECN     H12      HGA3     0.090000        1.0080           0
     23454 WT10     1242     MECN     H13      HGA3     0.090000        1.0080           0
     23455 WT10     1242     MECN     C2       CG1N1    0.360000       12.0110           0
     23456 WT10     1242     MECN     N3       NG1T1   -0.460000       14.0070           0
     23457 WT10     1245     MECN     C1       CG331   -0.170000       12.0110           0
     23458 WT10     1245     MECN     H11      HGA3     0.090000        1.0080           0
     23459 WT10     1245     MECN     H12      HGA3     0.090000        1.0080           0
     23460 WT10     1245     MECN     H13      HGA3     0.090000        1.0080           0
     23461 WT10     1245     MECN     C2       CG1N1    0.360000       12.0110           0
     23462 WT10     1245     MECN     N3       NG1T1   -0.460000       14.0070           0
     23463 WT10     1246     MECN     C1       CG331   -0.170000       12.0110           0
     23464 WT10     1246     MECN     H11      HGA3     0.090000        1.0080           0
     23465 WT10     1246     MECN     H12      HGA3     0.090000        1.0080           0
     23466 WT10     1246     MECN     H13      HGA3     0.090000        1.0080           0
     23467 WT10     1246     MECN     C2       CG1N1    0.360000       12.0110           0
     23468 WT10     1246     MECN     N3       NG1T1   -0.460000       14.0070           0
     23469 WT10     1249     MECN     C1       CG331   -0.170000       12.0110           0
     23470 WT10     1249     MECN     H11      HGA3     0.090000        1.0080           0
     23471 WT10     1249     MECN     H12      HGA3     0.090000        1.0080           0
     23472 WT10     1249     MECN     H13      HGA3     0.090000        1.0080           0
     23473 WT10     1249     MECN     C2       CG1N1    0.360000       12.0110           0
     23474 WT10     1249     MECN     N3       NG1T1   -0.460000       14.0070           0
     23475 WT10     1252     MECN     C1       CG331   -0.170000       12.0110           0
     23476 WT10     1252     MECN     H11      HGA3     0.090000        1.0080           0
     23477 WT10     1252     MECN     H12      HGA3     0.090000        1.0080           0
     23478 WT10     1252     MECN     H13      HGA3     0.090000        1.0080           0
     23479 WT10     1252     MECN     C2       CG1N1    0.360000       12.0110           0
     23480 WT10     1252     MECN     N3       NG1T1   -0.460000       14.0070           0
     23481 WT10     1256     MECN     C1       CG331   -0.170000       12.0110           0
     23482 WT10     1256     MECN     H11      HGA3     0.090000        1.0080           0
     23483 WT10     1256     MECN     H12      HGA3     0.090000        1.0080           0
     23484 WT10     1256     MECN     H13      HGA3     0.090000        1.0080           0
     23485 WT10     1256     MECN     C2       CG1N1    0.360000       12.0110           0
     23486 WT10     1256     MECN     N3       NG1T1   -0.460000       14.0070           0
     23487 WT10     1257     MECN     C1       CG331   -0.170000       12.0110           0
     23488 WT10     1257     MECN     H11      HGA3     0.090000        1.0080           0
     23489 WT10     1257     MECN     H12      HGA3     0.090000        1.0080           0
     23490 WT10     1257     MECN     H13      HGA3     0.090000        1.0080           0
     23491 WT10     1257     MECN     C2       CG1N1    0.360000       12.0110           0
     23492 WT10     1257     MECN     N3       NG1T1   -0.460000       14.0070           0
     23493 WT10     1267     MECN     C1       CG331   -0.170000       12.0110           0
     23494 WT10     1267     MECN     H11      HGA3     0.090000        1.0080           0
     23495 WT10     1267     MECN     H12      HGA3     0.090000        1.0080           0
     23496 WT10     1267     MECN     H13      HGA3     0.090000        1.0080           0
     23497 WT10     1267     MECN     C2       CG1N1    0.360000       12.0110           0
     23498 WT10     1267     MECN     N3       NG1T1   -0.460000       14.0070           0
     23499 WT10     1269     MECN     C1       CG331   -0.170000       12.0110           0
     23500 WT10     1269     MECN     H11      HGA3     0.090000        1.0080           0
     23501 WT10     1269     MECN     H12      HGA3     0.090000        1.0080           0
     23502 WT10     1269     MECN     H13      HGA3     0.090000        1.0080           0
     23503 WT10     1269     MECN     C2       CG1N1    0.360000       12.0110           0
     23504 WT10     1269     MECN     N3       NG1T1   -0.460000       14.0070           0
     23505 WT10     1270     MECN     C1       CG331   -0.170000       12.0110           0
     23506 WT10     1270     MECN     H11      HGA3     0.090000        1.0080           0
     23507 WT10     1270     MECN     H12      HGA3     0.090000        1.0080           0
     23508 WT10     1270     MECN     H13      HGA3     0.090000        1.0080           0
     23509 WT10     1270     MECN     C2       CG1N1    0.360000       12.0110           0
     23510 WT10     1270     MECN     N3       NG1T1   -0.460000       14.0070           0
     23511 WT10     1276     MECN     C1       CG331   -0.170000       12.0110           0
     23512 WT10     1276     MECN     H11      HGA3     0.090000        1.0080           0
     23513 WT10     1276     MECN     H12      HGA3     0.090000        1.0080           0
     23514 WT10     1276     MECN     H13      HGA3     0.090000        1.0080           0
     23515 WT10     1276     MECN     C2       CG1N1    0.360000       12.0110           0
     23516 WT10     1276     MECN     N3       NG1T1   -0.460000       14.0070           0
     23517 WT10     1281     MECN     C1       CG331   -0.170000       12.0110           0
     23518 WT10     1281     MECN     H11      HGA3     0.090000        1.0080           0
     23519 WT10     1281     MECN     H12      HGA3     0.090000        1.0080           0
     23520 WT10     1281     MECN     H13      HGA3     0.090000        1.0080           0
     23521 WT10     1281     MECN     C2       CG1N1    0.360000       12.0110           0
     23522 WT10     1281     MECN     N3       NG1T1   -0.460000       14.0070           0
     23523 WT10     1287     MECN     C1       CG331   -0.170000       12.0110           0
     23524 WT10     1287     MECN     H11      HGA3     0.090000        1.0080           0
     23525 WT10     1287     MECN     H12      HGA3     0.090000        1.0080           0
     23526 WT10     1287     MECN     H13      HGA3     0.090000        1.0080           0
     23527 WT10     1287     MECN     C2       CG1N1    0.360000       12.0110           0
     23528 WT10     1287     MECN     N3       NG1T1   -0.460000       14.0070           0
     23529 WT10     1288     MECN     C1       CG331   -0.170000       12.0110           0
     23530 WT10     1288     MECN     H11      HGA3     0.090000        1.0080           0
     23531 WT10     1288     MECN     H12      HGA3     0.090000        1.0080           0
     23532 WT10     1288     MECN     H13      HGA3     0.090000        1.0080           0
     23533 WT10     1288     MECN     C2       CG1N1    0.360000       12.0110           0
     23534 WT10     1288     MECN     N3       NG1T1   -0.460000       14.0070           0
     23535 WT10     1289     MECN     C1       CG331   -0.170000       12.0110           0
     23536 WT10     1289     MECN     H11      HGA3     0.090000        1.0080           0
     23537 WT10     1289     MECN     H12      HGA3     0.090000        1.0080           0
     23538 WT10     1289     MECN     H13      HGA3     0.090000        1.0080           0
     23539 WT10     1289     MECN     C2       CG1N1    0.360000       12.0110           0
     23540 WT10     1289     MECN     N3       NG1T1   -0.460000       14.0070           0
     23541 WT10     1291     MECN     C1       CG331   -0.170000       12.0110           0
     23542 WT10     1291     MECN     H11      HGA3     0.090000        1.0080           0
     23543 WT10     1291     MECN     H12      HGA3     0.090000        1.0080           0
     23544 WT10     1291     MECN     H13      HGA3     0.090000        1.0080           0
     23545 WT10     1291     MECN     C2       CG1N1    0.360000       12.0110           0
     23546 WT10     1291     MECN     N3       NG1T1   -0.460000       14.0070           0
     23547 WT10     1294     MECN     C1       CG331   -0.170000       12.0110           0
     23548 WT10     1294     MECN     H11      HGA3     0.090000        1.0080           0
     23549 WT10     1294     MECN     H12      HGA3     0.090000        1.0080           0
     23550 WT10     1294     MECN     H13      HGA3     0.090000        1.0080           0
     23551 WT10     1294     MECN     C2       CG1N1    0.360000       12.0110           0
     23552 WT10     1294     MECN     N3       NG1T1   -0.460000       14.0070           0
     23553 WT10     1295     MECN     C1       CG331   -0.170000       12.0110           0
     23554 WT10     1295     MECN     H11      HGA3     0.090000        1.0080           0
     23555 WT10     1295     MECN     H12      HGA3     0.090000        1.0080           0
     23556 WT10     1295     MECN     H13      HGA3     0.090000        1.0080           0
     23557 WT10     1295     MECN     C2       CG1N1    0.360000       12.0110           0
     23558 WT10     1295     MECN     N3       NG1T1   -0.460000       14.0070           0
     23559 WT10     1296     MECN     C1       CG331   -0.170000       12.0110           0
     23560 WT10     1296     MECN     H11      HGA3     0.090000        1.0080           0
     23561 WT10     1296     MECN     H12      HGA3     0.090000        1.0080           0
     23562 WT10     1296     MECN     H13      HGA3     0.090000        1.0080           0
     23563 WT10     1296     MECN     C2       CG1N1    0.360000       12.0110           0
     23564 WT10     1296     MECN     N3       NG1T1   -0.460000       14.0070           0
     23565 WT10     1304     MECN     C1       CG331   -0.170000       12.0110           0
     23566 WT10     1304     MECN     H11      HGA3     0.090000        1.0080           0
     23567 WT10     1304     MECN     H12      HGA3     0.090000        1.0080           0
     23568 WT10     1304     MECN     H13      HGA3     0.090000        1.0080           0
     23569 WT10     1304     MECN     C2       CG1N1    0.360000       12.0110           0
     23570 WT10     1304     MECN     N3       NG1T1   -0.460000       14.0070           0
     23571 WT10     1310     MECN     C1       CG331   -0.170000       12.0110           0
     23572 WT10     1310     MECN     H11      HGA3     0.090000        1.0080           0
     23573 WT10     1310     MECN     H12      HGA3     0.090000        1.0080           0
     23574 WT10     1310     MECN     H13      HGA3     0.090000        1.0080           0
     23575 WT10     1310     MECN     C2       CG1N1    0.360000       12.0110           0
     23576 WT10     1310     MECN     N3       NG1T1   -0.460000       14.0070           0
     23577 WT10     1321     MECN     C1       CG331   -0.170000       12.0110           0
     23578 WT10     1321     MECN     H11      HGA3     0.090000        1.0080           0
     23579 WT10     1321     MECN     H12      HGA3     0.090000        1.0080           0
     23580 WT10     1321     MECN     H13      HGA3     0.090000        1.0080           0
     23581 WT10     1321     MECN     C2       CG1N1    0.360000       12.0110           0
     23582 WT10     1321     MECN     N3       NG1T1   -0.460000       14.0070           0
     23583 WT10     1322     MECN     C1       CG331   -0.170000       12.0110           0
     23584 WT10     1322     MECN     H11      HGA3     0.090000        1.0080           0
     23585 WT10     1322     MECN     H12      HGA3     0.090000        1.0080           0
     23586 WT10     1322     MECN     H13      HGA3     0.090000        1.0080           0
     23587 WT10     1322     MECN     C2       CG1N1    0.360000       12.0110           0
     23588 WT10     1322     MECN     N3       NG1T1   -0.460000       14.0070           0
     23589 WT10     1326     MECN     C1       CG331   -0.170000       12.0110           0
     23590 WT10     1326     MECN     H11      HGA3     0.090000        1.0080           0
     23591 WT10     1326     MECN     H12      HGA3     0.090000        1.0080           0
     23592 WT10     1326     MECN     H13      HGA3     0.090000        1.0080           0
     23593 WT10     1326     MECN     C2       CG1N1    0.360000       12.0110           0
     23594 WT10     1326     MECN     N3       NG1T1   -0.460000       14.0070           0
     23595 WT11     3        MECN     C1       CG331   -0.170000       12.0110           0
     23596 WT11     3        MECN     H11      HGA3     0.090000        1.0080           0
     23597 WT11     3        MECN     H12      HGA3     0.090000        1.0080           0
     23598 WT11     3        MECN     H13      HGA3     0.090000        1.0080           0
     23599 WT11     3        MECN     C2       CG1N1    0.360000       12.0110           0
     23600 WT11     3        MECN     N3       NG1T1   -0.460000       14.0070           0
     23601 WT11     6        MECN     C1       CG331   -0.170000       12.0110           0
     23602 WT11     6        MECN     H11      HGA3     0.090000        1.0080           0
     23603 WT11     6        MECN     H12      HGA3     0.090000        1.0080           0
     23604 WT11     6        MECN     H13      HGA3     0.090000        1.0080           0
     23605 WT11     6        MECN     C2       CG1N1    0.360000       12.0110           0
     23606 WT11     6        MECN     N3       NG1T1   -0.460000       14.0070           0
     23607 WT11     7        MECN     C1       CG331   -0.170000       12.0110           0
     23608 WT11     7        MECN     H11      HGA3     0.090000        1.0080           0
     23609 WT11     7        MECN     H12      HGA3     0.090000        1.0080           0
     23610 WT11     7        MECN     H13      HGA3     0.090000        1.0080           0
     23611 WT11     7        MECN     C2       CG1N1    0.360000       12.0110           0
     23612 WT11     7        MECN     N3       NG1T1   -0.460000       14.0070           0
     23613 WT11     9        MECN     C1       CG331   -0.170000       12.0110           0
     23614 WT11     9        MECN     H11      HGA3     0.090000        1.0080           0
     23615 WT11     9        MECN     H12      HGA3     0.090000        1.0080           0
     23616 WT11     9        MECN     H13      HGA3     0.090000        1.0080           0
     23617 WT11     9        MECN     C2       CG1N1    0.360000       12.0110           0
     23618 WT11     9        MECN     N3       NG1T1   -0.460000       14.0070           0
     23619 WT11     10       MECN     C1       CG331   -0.170000       12.0110           0
     23620 WT11     10       MECN     H11      HGA3     0.090000        1.0080           0
     23621 WT11     10       MECN     H12      HGA3     0.090000        1.0080           0
     23622 WT11     10       MECN     H13      HGA3     0.090000        1.0080           0
     23623 WT11     10       MECN     C2       CG1N1    0.360000       12.0110           0
     23624 WT11     10       MECN     N3       NG1T1   -0.460000       14.0070           0
     23625 WT11     12       MECN     C1       CG331   -0.170000       12.0110           0
     23626 WT11     12       MECN     H11      HGA3     0.090000        1.0080           0
     23627 WT11     12       MECN     H12      HGA3     0.090000        1.0080           0
     23628 WT11     12       MECN     H13      HGA3     0.090000        1.0080           0
     23629 WT11     12       MECN     C2       CG1N1    0.360000       12.0110           0
     23630 WT11     12       MECN     N3       NG1T1   -0.460000       14.0070           0
     23631 WT11     14       MECN     C1       CG331   -0.170000       12.0110           0
     23632 WT11     14       MECN     H11      HGA3     0.090000        1.0080           0
     23633 WT11     14       MECN     H12      HGA3     0.090000        1.0080           0
     23634 WT11     14       MECN     H13      HGA3     0.090000        1.0080           0
     23635 WT11     14       MECN     C2       CG1N1    0.360000       12.0110           0
     23636 WT11     14       MECN     N3       NG1T1   -0.460000       14.0070           0
     23637 WT11     16       MECN     C1       CG331   -0.170000       12.0110           0
     23638 WT11     16       MECN     H11      HGA3     0.090000        1.0080           0
     23639 WT11     16       MECN     H12      HGA3     0.090000        1.0080           0
     23640 WT11     16       MECN     H13      HGA3     0.090000        1.0080           0
     23641 WT11     16       MECN     C2       CG1N1    0.360000       12.0110           0
     23642 WT11     16       MECN     N3       NG1T1   -0.460000       14.0070           0
     23643 WT11     18       MECN     C1       CG331   -0.170000       12.0110           0
     23644 WT11     18       MECN     H11      HGA3     0.090000        1.0080           0
     23645 WT11     18       MECN     H12      HGA3     0.090000        1.0080           0
     23646 WT11     18       MECN     H13      HGA3     0.090000        1.0080           0
     23647 WT11     18       MECN     C2       CG1N1    0.360000       12.0110           0
     23648 WT11     18       MECN     N3       NG1T1   -0.460000       14.0070           0
     23649 WT11     21       MECN     C1       CG331   -0.170000       12.0110           0
     23650 WT11     21       MECN     H11      HGA3     0.090000        1.0080           0
     23651 WT11     21       MECN     H12      HGA3     0.090000        1.0080           0
     23652 WT11     21       MECN     H13      HGA3     0.090000        1.0080           0
     23653 WT11     21       MECN     C2       CG1N1    0.360000       12.0110           0
     23654 WT11     21       MECN     N3       NG1T1   -0.460000       14.0070           0
     23655 WT11     22       MECN     C1       CG331   -0.170000       12.0110           0
     23656 WT11     22       MECN     H11      HGA3     0.090000        1.0080           0
     23657 WT11     22       MECN     H12      HGA3     0.090000        1.0080           0
     23658 WT11     22       MECN     H13      HGA3     0.090000        1.0080           0
     23659 WT11     22       MECN     C2       CG1N1    0.360000       12.0110           0
     23660 WT11     22       MECN     N3       NG1T1   -0.460000       14.0070           0
     23661 WT11     23       MECN     C1       CG331   -0.170000       12.0110           0
     23662 WT11     23       MECN     H11      HGA3     0.090000        1.0080           0
     23663 WT11     23       MECN     H12      HGA3     0.090000        1.0080           0
     23664 WT11     23       MECN     H13      HGA3     0.090000        1.0080           0
     23665 WT11     23       MECN     C2       CG1N1    0.360000       12.0110           0
     23666 WT11     23       MECN     N3       NG1T1   -0.460000       14.0070           0
     23667 WT11     27       MECN     C1       CG331   -0.170000       12.0110           0
     23668 WT11     27       MECN     H11      HGA3     0.090000        1.0080           0
     23669 WT11     27       MECN     H12      HGA3     0.090000        1.0080           0
     23670 WT11     27       MECN     H13      HGA3     0.090000        1.0080           0
     23671 WT11     27       MECN     C2       CG1N1    0.360000       12.0110           0
     23672 WT11     27       MECN     N3       NG1T1   -0.460000       14.0070           0
     23673 WT11     28       MECN     C1       CG331   -0.170000       12.0110           0
     23674 WT11     28       MECN     H11      HGA3     0.090000        1.0080           0
     23675 WT11     28       MECN     H12      HGA3     0.090000        1.0080           0
     23676 WT11     28       MECN     H13      HGA3     0.090000        1.0080           0
     23677 WT11     28       MECN     C2       CG1N1    0.360000       12.0110           0
     23678 WT11     28       MECN     N3       NG1T1   -0.460000       14.0070           0
     23679 WT11     29       MECN     C1       CG331   -0.170000       12.0110           0
     23680 WT11     29       MECN     H11      HGA3     0.090000        1.0080           0
     23681 WT11     29       MECN     H12      HGA3     0.090000        1.0080           0
     23682 WT11     29       MECN     H13      HGA3     0.090000        1.0080           0
     23683 WT11     29       MECN     C2       CG1N1    0.360000       12.0110           0
     23684 WT11     29       MECN     N3       NG1T1   -0.460000       14.0070           0
     23685 WT11     31       MECN     C1       CG331   -0.170000       12.0110           0
     23686 WT11     31       MECN     H11      HGA3     0.090000        1.0080           0
     23687 WT11     31       MECN     H12      HGA3     0.090000        1.0080           0
     23688 WT11     31       MECN     H13      HGA3     0.090000        1.0080           0
     23689 WT11     31       MECN     C2       CG1N1    0.360000       12.0110           0
     23690 WT11     31       MECN     N3       NG1T1   -0.460000       14.0070           0
     23691 WT11     32       MECN     C1       CG331   -0.170000       12.0110           0
     23692 WT11     32       MECN     H11      HGA3     0.090000        1.0080           0
     23693 WT11     32       MECN     H12      HGA3     0.090000        1.0080           0
     23694 WT11     32       MECN     H13      HGA3     0.090000        1.0080           0
     23695 WT11     32       MECN     C2       CG1N1    0.360000       12.0110           0
     23696 WT11     32       MECN     N3       NG1T1   -0.460000       14.0070           0
     23697 WT11     44       MECN     C1       CG331   -0.170000       12.0110           0
     23698 WT11     44       MECN     H11      HGA3     0.090000        1.0080           0
     23699 WT11     44       MECN     H12      HGA3     0.090000        1.0080           0
     23700 WT11     44       MECN     H13      HGA3     0.090000        1.0080           0
     23701 WT11     44       MECN     C2       CG1N1    0.360000       12.0110           0
     23702 WT11     44       MECN     N3       NG1T1   -0.460000       14.0070           0
     23703 WT11     47       MECN     C1       CG331   -0.170000       12.0110           0
     23704 WT11     47       MECN     H11      HGA3     0.090000        1.0080           0
     23705 WT11     47       MECN     H12      HGA3     0.090000        1.0080           0
     23706 WT11     47       MECN     H13      HGA3     0.090000        1.0080           0
     23707 WT11     47       MECN     C2       CG1N1    0.360000       12.0110           0
     23708 WT11     47       MECN     N3       NG1T1   -0.460000       14.0070           0
     23709 WT11     49       MECN     C1       CG331   -0.170000       12.0110           0
     23710 WT11     49       MECN     H11      HGA3     0.090000        1.0080           0
     23711 WT11     49       MECN     H12      HGA3     0.090000        1.0080           0
     23712 WT11     49       MECN     H13      HGA3     0.090000        1.0080           0
     23713 WT11     49       MECN     C2       CG1N1    0.360000       12.0110           0
     23714 WT11     49       MECN     N3       NG1T1   -0.460000       14.0070           0
     23715 WT11     50       MECN     C1       CG331   -0.170000       12.0110           0
     23716 WT11     50       MECN     H11      HGA3     0.090000        1.0080           0
     23717 WT11     50       MECN     H12      HGA3     0.090000        1.0080           0
     23718 WT11     50       MECN     H13      HGA3     0.090000        1.0080           0
     23719 WT11     50       MECN     C2       CG1N1    0.360000       12.0110           0
     23720 WT11     50       MECN     N3       NG1T1   -0.460000       14.0070           0
     23721 WT11     52       MECN     C1       CG331   -0.170000       12.0110           0
     23722 WT11     52       MECN     H11      HGA3     0.090000        1.0080           0
     23723 WT11     52       MECN     H12      HGA3     0.090000        1.0080           0
     23724 WT11     52       MECN     H13      HGA3     0.090000        1.0080           0
     23725 WT11     52       MECN     C2       CG1N1    0.360000       12.0110           0
     23726 WT11     52       MECN     N3       NG1T1   -0.460000       14.0070           0
     23727 WT11     54       MECN     C1       CG331   -0.170000       12.0110           0
     23728 WT11     54       MECN     H11      HGA3     0.090000        1.0080           0
     23729 WT11     54       MECN     H12      HGA3     0.090000        1.0080           0
     23730 WT11     54       MECN     H13      HGA3     0.090000        1.0080           0
     23731 WT11     54       MECN     C2       CG1N1    0.360000       12.0110           0
     23732 WT11     54       MECN     N3       NG1T1   -0.460000       14.0070           0
     23733 WT11     55       MECN     C1       CG331   -0.170000       12.0110           0
     23734 WT11     55       MECN     H11      HGA3     0.090000        1.0080           0
     23735 WT11     55       MECN     H12      HGA3     0.090000        1.0080           0
     23736 WT11     55       MECN     H13      HGA3     0.090000        1.0080           0
     23737 WT11     55       MECN     C2       CG1N1    0.360000       12.0110           0
     23738 WT11     55       MECN     N3       NG1T1   -0.460000       14.0070           0
     23739 WT11     56       MECN     C1       CG331   -0.170000       12.0110           0
     23740 WT11     56       MECN     H11      HGA3     0.090000        1.0080           0
     23741 WT11     56       MECN     H12      HGA3     0.090000        1.0080           0
     23742 WT11     56       MECN     H13      HGA3     0.090000        1.0080           0
     23743 WT11     56       MECN     C2       CG1N1    0.360000       12.0110           0
     23744 WT11     56       MECN     N3       NG1T1   -0.460000       14.0070           0
     23745 WT11     57       MECN     C1       CG331   -0.170000       12.0110           0
     23746 WT11     57       MECN     H11      HGA3     0.090000        1.0080           0
     23747 WT11     57       MECN     H12      HGA3     0.090000        1.0080           0
     23748 WT11     57       MECN     H13      HGA3     0.090000        1.0080           0
     23749 WT11     57       MECN     C2       CG1N1    0.360000       12.0110           0
     23750 WT11     57       MECN     N3       NG1T1   -0.460000       14.0070           0
     23751 WT11     58       MECN     C1       CG331   -0.170000       12.0110           0
     23752 WT11     58       MECN     H11      HGA3     0.090000        1.0080           0
     23753 WT11     58       MECN     H12      HGA3     0.090000        1.0080           0
     23754 WT11     58       MECN     H13      HGA3     0.090000        1.0080           0
     23755 WT11     58       MECN     C2       CG1N1    0.360000       12.0110           0
     23756 WT11     58       MECN     N3       NG1T1   -0.460000       14.0070           0
     23757 WT11     59       MECN     C1       CG331   -0.170000       12.0110           0
     23758 WT11     59       MECN     H11      HGA3     0.090000        1.0080           0
     23759 WT11     59       MECN     H12      HGA3     0.090000        1.0080           0
     23760 WT11     59       MECN     H13      HGA3     0.090000        1.0080           0
     23761 WT11     59       MECN     C2       CG1N1    0.360000       12.0110           0
     23762 WT11     59       MECN     N3       NG1T1   -0.460000       14.0070           0
     23763 WT11     61       MECN     C1       CG331   -0.170000       12.0110           0
     23764 WT11     61       MECN     H11      HGA3     0.090000        1.0080           0
     23765 WT11     61       MECN     H12      HGA3     0.090000        1.0080           0
     23766 WT11     61       MECN     H13      HGA3     0.090000        1.0080           0
     23767 WT11     61       MECN     C2       CG1N1    0.360000       12.0110           0
     23768 WT11     61       MECN     N3       NG1T1   -0.460000       14.0070           0
     23769 WT11     63       MECN     C1       CG331   -0.170000       12.0110           0
     23770 WT11     63       MECN     H11      HGA3     0.090000        1.0080           0
     23771 WT11     63       MECN     H12      HGA3     0.090000        1.0080           0
     23772 WT11     63       MECN     H13      HGA3     0.090000        1.0080           0
     23773 WT11     63       MECN     C2       CG1N1    0.360000       12.0110           0
     23774 WT11     63       MECN     N3       NG1T1   -0.460000       14.0070           0
     23775 WT11     64       MECN     C1       CG331   -0.170000       12.0110           0
     23776 WT11     64       MECN     H11      HGA3     0.090000        1.0080           0
     23777 WT11     64       MECN     H12      HGA3     0.090000        1.0080           0
     23778 WT11     64       MECN     H13      HGA3     0.090000        1.0080           0
     23779 WT11     64       MECN     C2       CG1N1    0.360000       12.0110           0
     23780 WT11     64       MECN     N3       NG1T1   -0.460000       14.0070           0
     23781 WT11     65       MECN     C1       CG331   -0.170000       12.0110           0
     23782 WT11     65       MECN     H11      HGA3     0.090000        1.0080           0
     23783 WT11     65       MECN     H12      HGA3     0.090000        1.0080           0
     23784 WT11     65       MECN     H13      HGA3     0.090000        1.0080           0
     23785 WT11     65       MECN     C2       CG1N1    0.360000       12.0110           0
     23786 WT11     65       MECN     N3       NG1T1   -0.460000       14.0070           0
     23787 WT11     66       MECN     C1       CG331   -0.170000       12.0110           0
     23788 WT11     66       MECN     H11      HGA3     0.090000        1.0080           0
     23789 WT11     66       MECN     H12      HGA3     0.090000        1.0080           0
     23790 WT11     66       MECN     H13      HGA3     0.090000        1.0080           0
     23791 WT11     66       MECN     C2       CG1N1    0.360000       12.0110           0
     23792 WT11     66       MECN     N3       NG1T1   -0.460000       14.0070           0
     23793 WT11     70       MECN     C1       CG331   -0.170000       12.0110           0
     23794 WT11     70       MECN     H11      HGA3     0.090000        1.0080           0
     23795 WT11     70       MECN     H12      HGA3     0.090000        1.0080           0
     23796 WT11     70       MECN     H13      HGA3     0.090000        1.0080           0
     23797 WT11     70       MECN     C2       CG1N1    0.360000       12.0110           0
     23798 WT11     70       MECN     N3       NG1T1   -0.460000       14.0070           0
     23799 WT11     71       MECN     C1       CG331   -0.170000       12.0110           0
     23800 WT11     71       MECN     H11      HGA3     0.090000        1.0080           0
     23801 WT11     71       MECN     H12      HGA3     0.090000        1.0080           0
     23802 WT11     71       MECN     H13      HGA3     0.090000        1.0080           0
     23803 WT11     71       MECN     C2       CG1N1    0.360000       12.0110           0
     23804 WT11     71       MECN     N3       NG1T1   -0.460000       14.0070           0
     23805 WT11     74       MECN     C1       CG331   -0.170000       12.0110           0
     23806 WT11     74       MECN     H11      HGA3     0.090000        1.0080           0
     23807 WT11     74       MECN     H12      HGA3     0.090000        1.0080           0
     23808 WT11     74       MECN     H13      HGA3     0.090000        1.0080           0
     23809 WT11     74       MECN     C2       CG1N1    0.360000       12.0110           0
     23810 WT11     74       MECN     N3       NG1T1   -0.460000       14.0070           0
     23811 WT11     76       MECN     C1       CG331   -0.170000       12.0110           0
     23812 WT11     76       MECN     H11      HGA3     0.090000        1.0080           0
     23813 WT11     76       MECN     H12      HGA3     0.090000        1.0080           0
     23814 WT11     76       MECN     H13      HGA3     0.090000        1.0080           0
     23815 WT11     76       MECN     C2       CG1N1    0.360000       12.0110           0
     23816 WT11     76       MECN     N3       NG1T1   -0.460000       14.0070           0
     23817 WT11     79       MECN     C1       CG331   -0.170000       12.0110           0
     23818 WT11     79       MECN     H11      HGA3     0.090000        1.0080           0
     23819 WT11     79       MECN     H12      HGA3     0.090000        1.0080           0
     23820 WT11     79       MECN     H13      HGA3     0.090000        1.0080           0
     23821 WT11     79       MECN     C2       CG1N1    0.360000       12.0110           0
     23822 WT11     79       MECN     N3       NG1T1   -0.460000       14.0070           0
     23823 WT11     81       MECN     C1       CG331   -0.170000       12.0110           0
     23824 WT11     81       MECN     H11      HGA3     0.090000        1.0080           0
     23825 WT11     81       MECN     H12      HGA3     0.090000        1.0080           0
     23826 WT11     81       MECN     H13      HGA3     0.090000        1.0080           0
     23827 WT11     81       MECN     C2       CG1N1    0.360000       12.0110           0
     23828 WT11     81       MECN     N3       NG1T1   -0.460000       14.0070           0
     23829 WT11     83       MECN     C1       CG331   -0.170000       12.0110           0
     23830 WT11     83       MECN     H11      HGA3     0.090000        1.0080           0
     23831 WT11     83       MECN     H12      HGA3     0.090000        1.0080           0
     23832 WT11     83       MECN     H13      HGA3     0.090000        1.0080           0
     23833 WT11     83       MECN     C2       CG1N1    0.360000       12.0110           0
     23834 WT11     83       MECN     N3       NG1T1   -0.460000       14.0070           0
     23835 WT11     85       MECN     C1       CG331   -0.170000       12.0110           0
     23836 WT11     85       MECN     H11      HGA3     0.090000        1.0080           0
     23837 WT11     85       MECN     H12      HGA3     0.090000        1.0080           0
     23838 WT11     85       MECN     H13      HGA3     0.090000        1.0080           0
     23839 WT11     85       MECN     C2       CG1N1    0.360000       12.0110           0
     23840 WT11     85       MECN     N3       NG1T1   -0.460000       14.0070           0
     23841 WT11     87       MECN     C1       CG331   -0.170000       12.0110           0
     23842 WT11     87       MECN     H11      HGA3     0.090000        1.0080           0
     23843 WT11     87       MECN     H12      HGA3     0.090000        1.0080           0
     23844 WT11     87       MECN     H13      HGA3     0.090000        1.0080           0
     23845 WT11     87       MECN     C2       CG1N1    0.360000       12.0110           0
     23846 WT11     87       MECN     N3       NG1T1   -0.460000       14.0070           0
     23847 WT11     88       MECN     C1       CG331   -0.170000       12.0110           0
     23848 WT11     88       MECN     H11      HGA3     0.090000        1.0080           0
     23849 WT11     88       MECN     H12      HGA3     0.090000        1.0080           0
     23850 WT11     88       MECN     H13      HGA3     0.090000        1.0080           0
     23851 WT11     88       MECN     C2       CG1N1    0.360000       12.0110           0
     23852 WT11     88       MECN     N3       NG1T1   -0.460000       14.0070           0
     23853 WT11     89       MECN     C1       CG331   -0.170000       12.0110           0
     23854 WT11     89       MECN     H11      HGA3     0.090000        1.0080           0
     23855 WT11     89       MECN     H12      HGA3     0.090000        1.0080           0
     23856 WT11     89       MECN     H13      HGA3     0.090000        1.0080           0
     23857 WT11     89       MECN     C2       CG1N1    0.360000       12.0110           0
     23858 WT11     89       MECN     N3       NG1T1   -0.460000       14.0070           0
     23859 WT11     98       MECN     C1       CG331   -0.170000       12.0110           0
     23860 WT11     98       MECN     H11      HGA3     0.090000        1.0080           0
     23861 WT11     98       MECN     H12      HGA3     0.090000        1.0080           0
     23862 WT11     98       MECN     H13      HGA3     0.090000        1.0080           0
     23863 WT11     98       MECN     C2       CG1N1    0.360000       12.0110           0
     23864 WT11     98       MECN     N3       NG1T1   -0.460000       14.0070           0
     23865 WT11     105      MECN     C1       CG331   -0.170000       12.0110           0
     23866 WT11     105      MECN     H11      HGA3     0.090000        1.0080           0
     23867 WT11     105      MECN     H12      HGA3     0.090000        1.0080           0
     23868 WT11     105      MECN     H13      HGA3     0.090000        1.0080           0
     23869 WT11     105      MECN     C2       CG1N1    0.360000       12.0110           0
     23870 WT11     105      MECN     N3       NG1T1   -0.460000       14.0070           0
     23871 WT11     110      MECN     C1       CG331   -0.170000       12.0110           0
     23872 WT11     110      MECN     H11      HGA3     0.090000        1.0080           0
     23873 WT11     110      MECN     H12      HGA3     0.090000        1.0080           0
     23874 WT11     110      MECN     H13      HGA3     0.090000        1.0080           0
     23875 WT11     110      MECN     C2       CG1N1    0.360000       12.0110           0
     23876 WT11     110      MECN     N3       NG1T1   -0.460000       14.0070           0
     23877 WT11     111      MECN     C1       CG331   -0.170000       12.0110           0
     23878 WT11     111      MECN     H11      HGA3     0.090000        1.0080           0
     23879 WT11     111      MECN     H12      HGA3     0.090000        1.0080           0
     23880 WT11     111      MECN     H13      HGA3     0.090000        1.0080           0
     23881 WT11     111      MECN     C2       CG1N1    0.360000       12.0110           0
     23882 WT11     111      MECN     N3       NG1T1   -0.460000       14.0070           0
     23883 WT11     112      MECN     C1       CG331   -0.170000       12.0110           0
     23884 WT11     112      MECN     H11      HGA3     0.090000        1.0080           0
     23885 WT11     112      MECN     H12      HGA3     0.090000        1.0080           0
     23886 WT11     112      MECN     H13      HGA3     0.090000        1.0080           0
     23887 WT11     112      MECN     C2       CG1N1    0.360000       12.0110           0
     23888 WT11     112      MECN     N3       NG1T1   -0.460000       14.0070           0
     23889 WT11     113      MECN     C1       CG331   -0.170000       12.0110           0
     23890 WT11     113      MECN     H11      HGA3     0.090000        1.0080           0
     23891 WT11     113      MECN     H12      HGA3     0.090000        1.0080           0
     23892 WT11     113      MECN     H13      HGA3     0.090000        1.0080           0
     23893 WT11     113      MECN     C2       CG1N1    0.360000       12.0110           0
     23894 WT11     113      MECN     N3       NG1T1   -0.460000       14.0070           0
     23895 WT11     115      MECN     C1       CG331   -0.170000       12.0110           0
     23896 WT11     115      MECN     H11      HGA3     0.090000        1.0080           0
     23897 WT11     115      MECN     H12      HGA3     0.090000        1.0080           0
     23898 WT11     115      MECN     H13      HGA3     0.090000        1.0080           0
     23899 WT11     115      MECN     C2       CG1N1    0.360000       12.0110           0
     23900 WT11     115      MECN     N3       NG1T1   -0.460000       14.0070           0
     23901 WT11     117      MECN     C1       CG331   -0.170000       12.0110           0
     23902 WT11     117      MECN     H11      HGA3     0.090000        1.0080           0
     23903 WT11     117      MECN     H12      HGA3     0.090000        1.0080           0
     23904 WT11     117      MECN     H13      HGA3     0.090000        1.0080           0
     23905 WT11     117      MECN     C2       CG1N1    0.360000       12.0110           0
     23906 WT11     117      MECN     N3       NG1T1   -0.460000       14.0070           0
     23907 WT11     118      MECN     C1       CG331   -0.170000       12.0110           0
     23908 WT11     118      MECN     H11      HGA3     0.090000        1.0080           0
     23909 WT11     118      MECN     H12      HGA3     0.090000        1.0080           0
     23910 WT11     118      MECN     H13      HGA3     0.090000        1.0080           0
     23911 WT11     118      MECN     C2       CG1N1    0.360000       12.0110           0
     23912 WT11     118      MECN     N3       NG1T1   -0.460000       14.0070           0
     23913 WT11     119      MECN     C1       CG331   -0.170000       12.0110           0
     23914 WT11     119      MECN     H11      HGA3     0.090000        1.0080           0
     23915 WT11     119      MECN     H12      HGA3     0.090000        1.0080           0
     23916 WT11     119      MECN     H13      HGA3     0.090000        1.0080           0
     23917 WT11     119      MECN     C2       CG1N1    0.360000       12.0110           0
     23918 WT11     119      MECN     N3       NG1T1   -0.460000       14.0070           0
     23919 WT11     120      MECN     C1       CG331   -0.170000       12.0110           0
     23920 WT11     120      MECN     H11      HGA3     0.090000        1.0080           0
     23921 WT11     120      MECN     H12      HGA3     0.090000        1.0080           0
     23922 WT11     120      MECN     H13      HGA3     0.090000        1.0080           0
     23923 WT11     120      MECN     C2       CG1N1    0.360000       12.0110           0
     23924 WT11     120      MECN     N3       NG1T1   -0.460000       14.0070           0
     23925 WT11     121      MECN     C1       CG331   -0.170000       12.0110           0
     23926 WT11     121      MECN     H11      HGA3     0.090000        1.0080           0
     23927 WT11     121      MECN     H12      HGA3     0.090000        1.0080           0
     23928 WT11     121      MECN     H13      HGA3     0.090000        1.0080           0
     23929 WT11     121      MECN     C2       CG1N1    0.360000       12.0110           0
     23930 WT11     121      MECN     N3       NG1T1   -0.460000       14.0070           0
     23931 WT11     122      MECN     C1       CG331   -0.170000       12.0110           0
     23932 WT11     122      MECN     H11      HGA3     0.090000        1.0080           0
     23933 WT11     122      MECN     H12      HGA3     0.090000        1.0080           0
     23934 WT11     122      MECN     H13      HGA3     0.090000        1.0080           0
     23935 WT11     122      MECN     C2       CG1N1    0.360000       12.0110           0
     23936 WT11     122      MECN     N3       NG1T1   -0.460000       14.0070           0
     23937 WT11     123      MECN     C1       CG331   -0.170000       12.0110           0
     23938 WT11     123      MECN     H11      HGA3     0.090000        1.0080           0
     23939 WT11     123      MECN     H12      HGA3     0.090000        1.0080           0
     23940 WT11     123      MECN     H13      HGA3     0.090000        1.0080           0
     23941 WT11     123      MECN     C2       CG1N1    0.360000       12.0110           0
     23942 WT11     123      MECN     N3       NG1T1   -0.460000       14.0070           0
     23943 WT11     124      MECN     C1       CG331   -0.170000       12.0110           0
     23944 WT11     124      MECN     H11      HGA3     0.090000        1.0080           0
     23945 WT11     124      MECN     H12      HGA3     0.090000        1.0080           0
     23946 WT11     124      MECN     H13      HGA3     0.090000        1.0080           0
     23947 WT11     124      MECN     C2       CG1N1    0.360000       12.0110           0
     23948 WT11     124      MECN     N3       NG1T1   -0.460000       14.0070           0
     23949 WT11     125      MECN     C1       CG331   -0.170000       12.0110           0
     23950 WT11     125      MECN     H11      HGA3     0.090000        1.0080           0
     23951 WT11     125      MECN     H12      HGA3     0.090000        1.0080           0
     23952 WT11     125      MECN     H13      HGA3     0.090000        1.0080           0
     23953 WT11     125      MECN     C2       CG1N1    0.360000       12.0110           0
     23954 WT11     125      MECN     N3       NG1T1   -0.460000       14.0070           0
     23955 WT11     127      MECN     C1       CG331   -0.170000       12.0110           0
     23956 WT11     127      MECN     H11      HGA3     0.090000        1.0080           0
     23957 WT11     127      MECN     H12      HGA3     0.090000        1.0080           0
     23958 WT11     127      MECN     H13      HGA3     0.090000        1.0080           0
     23959 WT11     127      MECN     C2       CG1N1    0.360000       12.0110           0
     23960 WT11     127      MECN     N3       NG1T1   -0.460000       14.0070           0
     23961 WT11     129      MECN     C1       CG331   -0.170000       12.0110           0
     23962 WT11     129      MECN     H11      HGA3     0.090000        1.0080           0
     23963 WT11     129      MECN     H12      HGA3     0.090000        1.0080           0
     23964 WT11     129      MECN     H13      HGA3     0.090000        1.0080           0
     23965 WT11     129      MECN     C2       CG1N1    0.360000       12.0110           0
     23966 WT11     129      MECN     N3       NG1T1   -0.460000       14.0070           0
     23967 WT11     132      MECN     C1       CG331   -0.170000       12.0110           0
     23968 WT11     132      MECN     H11      HGA3     0.090000        1.0080           0
     23969 WT11     132      MECN     H12      HGA3     0.090000        1.0080           0
     23970 WT11     132      MECN     H13      HGA3     0.090000        1.0080           0
     23971 WT11     132      MECN     C2       CG1N1    0.360000       12.0110           0
     23972 WT11     132      MECN     N3       NG1T1   -0.460000       14.0070           0
     23973 WT11     134      MECN     C1       CG331   -0.170000       12.0110           0
     23974 WT11     134      MECN     H11      HGA3     0.090000        1.0080           0
     23975 WT11     134      MECN     H12      HGA3     0.090000        1.0080           0
     23976 WT11     134      MECN     H13      HGA3     0.090000        1.0080           0
     23977 WT11     134      MECN     C2       CG1N1    0.360000       12.0110           0
     23978 WT11     134      MECN     N3       NG1T1   -0.460000       14.0070           0
     23979 WT11     135      MECN     C1       CG331   -0.170000       12.0110           0
     23980 WT11     135      MECN     H11      HGA3     0.090000        1.0080           0
     23981 WT11     135      MECN     H12      HGA3     0.090000        1.0080           0
     23982 WT11     135      MECN     H13      HGA3     0.090000        1.0080           0
     23983 WT11     135      MECN     C2       CG1N1    0.360000       12.0110           0
     23984 WT11     135      MECN     N3       NG1T1   -0.460000       14.0070           0
     23985 WT11     138      MECN     C1       CG331   -0.170000       12.0110           0
     23986 WT11     138      MECN     H11      HGA3     0.090000        1.0080           0
     23987 WT11     138      MECN     H12      HGA3     0.090000        1.0080           0
     23988 WT11     138      MECN     H13      HGA3     0.090000        1.0080           0
     23989 WT11     138      MECN     C2       CG1N1    0.360000       12.0110           0
     23990 WT11     138      MECN     N3       NG1T1   -0.460000       14.0070           0
     23991 WT11     143      MECN     C1       CG331   -0.170000       12.0110           0
     23992 WT11     143      MECN     H11      HGA3     0.090000        1.0080           0
     23993 WT11     143      MECN     H12      HGA3     0.090000        1.0080           0
     23994 WT11     143      MECN     H13      HGA3     0.090000        1.0080           0
     23995 WT11     143      MECN     C2       CG1N1    0.360000       12.0110           0
     23996 WT11     143      MECN     N3       NG1T1   -0.460000       14.0070           0
     23997 WT11     145      MECN     C1       CG331   -0.170000       12.0110           0
     23998 WT11     145      MECN     H11      HGA3     0.090000        1.0080           0
     23999 WT11     145      MECN     H12      HGA3     0.090000        1.0080           0
     24000 WT11     145      MECN     H13      HGA3     0.090000        1.0080           0
     24001 WT11     145      MECN     C2       CG1N1    0.360000       12.0110           0
     24002 WT11     145      MECN     N3       NG1T1   -0.460000       14.0070           0
     24003 WT11     147      MECN     C1       CG331   -0.170000       12.0110           0
     24004 WT11     147      MECN     H11      HGA3     0.090000        1.0080           0
     24005 WT11     147      MECN     H12      HGA3     0.090000        1.0080           0
     24006 WT11     147      MECN     H13      HGA3     0.090000        1.0080           0
     24007 WT11     147      MECN     C2       CG1N1    0.360000       12.0110           0
     24008 WT11     147      MECN     N3       NG1T1   -0.460000       14.0070           0
     24009 WT11     150      MECN     C1       CG331   -0.170000       12.0110           0
     24010 WT11     150      MECN     H11      HGA3     0.090000        1.0080           0
     24011 WT11     150      MECN     H12      HGA3     0.090000        1.0080           0
     24012 WT11     150      MECN     H13      HGA3     0.090000        1.0080           0
     24013 WT11     150      MECN     C2       CG1N1    0.360000       12.0110           0
     24014 WT11     150      MECN     N3       NG1T1   -0.460000       14.0070           0
     24015 WT11     154      MECN     C1       CG331   -0.170000       12.0110           0
     24016 WT11     154      MECN     H11      HGA3     0.090000        1.0080           0
     24017 WT11     154      MECN     H12      HGA3     0.090000        1.0080           0
     24018 WT11     154      MECN     H13      HGA3     0.090000        1.0080           0
     24019 WT11     154      MECN     C2       CG1N1    0.360000       12.0110           0
     24020 WT11     154      MECN     N3       NG1T1   -0.460000       14.0070           0
     24021 WT11     155      MECN     C1       CG331   -0.170000       12.0110           0
     24022 WT11     155      MECN     H11      HGA3     0.090000        1.0080           0
     24023 WT11     155      MECN     H12      HGA3     0.090000        1.0080           0
     24024 WT11     155      MECN     H13      HGA3     0.090000        1.0080           0
     24025 WT11     155      MECN     C2       CG1N1    0.360000       12.0110           0
     24026 WT11     155      MECN     N3       NG1T1   -0.460000       14.0070           0
     24027 WT11     159      MECN     C1       CG331   -0.170000       12.0110           0
     24028 WT11     159      MECN     H11      HGA3     0.090000        1.0080           0
     24029 WT11     159      MECN     H12      HGA3     0.090000        1.0080           0
     24030 WT11     159      MECN     H13      HGA3     0.090000        1.0080           0
     24031 WT11     159      MECN     C2       CG1N1    0.360000       12.0110           0
     24032 WT11     159      MECN     N3       NG1T1   -0.460000       14.0070           0
     24033 WT11     164      MECN     C1       CG331   -0.170000       12.0110           0
     24034 WT11     164      MECN     H11      HGA3     0.090000        1.0080           0
     24035 WT11     164      MECN     H12      HGA3     0.090000        1.0080           0
     24036 WT11     164      MECN     H13      HGA3     0.090000        1.0080           0
     24037 WT11     164      MECN     C2       CG1N1    0.360000       12.0110           0
     24038 WT11     164      MECN     N3       NG1T1   -0.460000       14.0070           0
     24039 WT11     168      MECN     C1       CG331   -0.170000       12.0110           0
     24040 WT11     168      MECN     H11      HGA3     0.090000        1.0080           0
     24041 WT11     168      MECN     H12      HGA3     0.090000        1.0080           0
     24042 WT11     168      MECN     H13      HGA3     0.090000        1.0080           0
     24043 WT11     168      MECN     C2       CG1N1    0.360000       12.0110           0
     24044 WT11     168      MECN     N3       NG1T1   -0.460000       14.0070           0
     24045 WT11     169      MECN     C1       CG331   -0.170000       12.0110           0
     24046 WT11     169      MECN     H11      HGA3     0.090000        1.0080           0
     24047 WT11     169      MECN     H12      HGA3     0.090000        1.0080           0
     24048 WT11     169      MECN     H13      HGA3     0.090000        1.0080           0
     24049 WT11     169      MECN     C2       CG1N1    0.360000       12.0110           0
     24050 WT11     169      MECN     N3       NG1T1   -0.460000       14.0070           0
     24051 WT11     171      MECN     C1       CG331   -0.170000       12.0110           0
     24052 WT11     171      MECN     H11      HGA3     0.090000        1.0080           0
     24053 WT11     171      MECN     H12      HGA3     0.090000        1.0080           0
     24054 WT11     171      MECN     H13      HGA3     0.090000        1.0080           0
     24055 WT11     171      MECN     C2       CG1N1    0.360000       12.0110           0
     24056 WT11     171      MECN     N3       NG1T1   -0.460000       14.0070           0
     24057 WT11     172      MECN     C1       CG331   -0.170000       12.0110           0
     24058 WT11     172      MECN     H11      HGA3     0.090000        1.0080           0
     24059 WT11     172      MECN     H12      HGA3     0.090000        1.0080           0
     24060 WT11     172      MECN     H13      HGA3     0.090000        1.0080           0
     24061 WT11     172      MECN     C2       CG1N1    0.360000       12.0110           0
     24062 WT11     172      MECN     N3       NG1T1   -0.460000       14.0070           0
     24063 WT11     173      MECN     C1       CG331   -0.170000       12.0110           0
     24064 WT11     173      MECN     H11      HGA3     0.090000        1.0080           0
     24065 WT11     173      MECN     H12      HGA3     0.090000        1.0080           0
     24066 WT11     173      MECN     H13      HGA3     0.090000        1.0080           0
     24067 WT11     173      MECN     C2       CG1N1    0.360000       12.0110           0
     24068 WT11     173      MECN     N3       NG1T1   -0.460000       14.0070           0
     24069 WT11     174      MECN     C1       CG331   -0.170000       12.0110           0
     24070 WT11     174      MECN     H11      HGA3     0.090000        1.0080           0
     24071 WT11     174      MECN     H12      HGA3     0.090000        1.0080           0
     24072 WT11     174      MECN     H13      HGA3     0.090000        1.0080           0
     24073 WT11     174      MECN     C2       CG1N1    0.360000       12.0110           0
     24074 WT11     174      MECN     N3       NG1T1   -0.460000       14.0070           0
     24075 WT11     175      MECN     C1       CG331   -0.170000       12.0110           0
     24076 WT11     175      MECN     H11      HGA3     0.090000        1.0080           0
     24077 WT11     175      MECN     H12      HGA3     0.090000        1.0080           0
     24078 WT11     175      MECN     H13      HGA3     0.090000        1.0080           0
     24079 WT11     175      MECN     C2       CG1N1    0.360000       12.0110           0
     24080 WT11     175      MECN     N3       NG1T1   -0.460000       14.0070           0
     24081 WT11     179      MECN     C1       CG331   -0.170000       12.0110           0
     24082 WT11     179      MECN     H11      HGA3     0.090000        1.0080           0
     24083 WT11     179      MECN     H12      HGA3     0.090000        1.0080           0
     24084 WT11     179      MECN     H13      HGA3     0.090000        1.0080           0
     24085 WT11     179      MECN     C2       CG1N1    0.360000       12.0110           0
     24086 WT11     179      MECN     N3       NG1T1   -0.460000       14.0070           0
     24087 WT11     181      MECN     C1       CG331   -0.170000       12.0110           0
     24088 WT11     181      MECN     H11      HGA3     0.090000        1.0080           0
     24089 WT11     181      MECN     H12      HGA3     0.090000        1.0080           0
     24090 WT11     181      MECN     H13      HGA3     0.090000        1.0080           0
     24091 WT11     181      MECN     C2       CG1N1    0.360000       12.0110           0
     24092 WT11     181      MECN     N3       NG1T1   -0.460000       14.0070           0
     24093 WT11     183      MECN     C1       CG331   -0.170000       12.0110           0
     24094 WT11     183      MECN     H11      HGA3     0.090000        1.0080           0
     24095 WT11     183      MECN     H12      HGA3     0.090000        1.0080           0
     24096 WT11     183      MECN     H13      HGA3     0.090000        1.0080           0
     24097 WT11     183      MECN     C2       CG1N1    0.360000       12.0110           0
     24098 WT11     183      MECN     N3       NG1T1   -0.460000       14.0070           0
     24099 WT11     184      MECN     C1       CG331   -0.170000       12.0110           0
     24100 WT11     184      MECN     H11      HGA3     0.090000        1.0080           0
     24101 WT11     184      MECN     H12      HGA3     0.090000        1.0080           0
     24102 WT11     184      MECN     H13      HGA3     0.090000        1.0080           0
     24103 WT11     184      MECN     C2       CG1N1    0.360000       12.0110           0
     24104 WT11     184      MECN     N3       NG1T1   -0.460000       14.0070           0
     24105 WT11     185      MECN     C1       CG331   -0.170000       12.0110           0
     24106 WT11     185      MECN     H11      HGA3     0.090000        1.0080           0
     24107 WT11     185      MECN     H12      HGA3     0.090000        1.0080           0
     24108 WT11     185      MECN     H13      HGA3     0.090000        1.0080           0
     24109 WT11     185      MECN     C2       CG1N1    0.360000       12.0110           0
     24110 WT11     185      MECN     N3       NG1T1   -0.460000       14.0070           0
     24111 WT11     186      MECN     C1       CG331   -0.170000       12.0110           0
     24112 WT11     186      MECN     H11      HGA3     0.090000        1.0080           0
     24113 WT11     186      MECN     H12      HGA3     0.090000        1.0080           0
     24114 WT11     186      MECN     H13      HGA3     0.090000        1.0080           0
     24115 WT11     186      MECN     C2       CG1N1    0.360000       12.0110           0
     24116 WT11     186      MECN     N3       NG1T1   -0.460000       14.0070           0
     24117 WT11     190      MECN     C1       CG331   -0.170000       12.0110           0
     24118 WT11     190      MECN     H11      HGA3     0.090000        1.0080           0
     24119 WT11     190      MECN     H12      HGA3     0.090000        1.0080           0
     24120 WT11     190      MECN     H13      HGA3     0.090000        1.0080           0
     24121 WT11     190      MECN     C2       CG1N1    0.360000       12.0110           0
     24122 WT11     190      MECN     N3       NG1T1   -0.460000       14.0070           0
     24123 WT11     191      MECN     C1       CG331   -0.170000       12.0110           0
     24124 WT11     191      MECN     H11      HGA3     0.090000        1.0080           0
     24125 WT11     191      MECN     H12      HGA3     0.090000        1.0080           0
     24126 WT11     191      MECN     H13      HGA3     0.090000        1.0080           0
     24127 WT11     191      MECN     C2       CG1N1    0.360000       12.0110           0
     24128 WT11     191      MECN     N3       NG1T1   -0.460000       14.0070           0
     24129 WT11     197      MECN     C1       CG331   -0.170000       12.0110           0
     24130 WT11     197      MECN     H11      HGA3     0.090000        1.0080           0
     24131 WT11     197      MECN     H12      HGA3     0.090000        1.0080           0
     24132 WT11     197      MECN     H13      HGA3     0.090000        1.0080           0
     24133 WT11     197      MECN     C2       CG1N1    0.360000       12.0110           0
     24134 WT11     197      MECN     N3       NG1T1   -0.460000       14.0070           0
     24135 WT11     199      MECN     C1       CG331   -0.170000       12.0110           0
     24136 WT11     199      MECN     H11      HGA3     0.090000        1.0080           0
     24137 WT11     199      MECN     H12      HGA3     0.090000        1.0080           0
     24138 WT11     199      MECN     H13      HGA3     0.090000        1.0080           0
     24139 WT11     199      MECN     C2       CG1N1    0.360000       12.0110           0
     24140 WT11     199      MECN     N3       NG1T1   -0.460000       14.0070           0
     24141 WT11     202      MECN     C1       CG331   -0.170000       12.0110           0
     24142 WT11     202      MECN     H11      HGA3     0.090000        1.0080           0
     24143 WT11     202      MECN     H12      HGA3     0.090000        1.0080           0
     24144 WT11     202      MECN     H13      HGA3     0.090000        1.0080           0
     24145 WT11     202      MECN     C2       CG1N1    0.360000       12.0110           0
     24146 WT11     202      MECN     N3       NG1T1   -0.460000       14.0070           0
     24147 WT11     203      MECN     C1       CG331   -0.170000       12.0110           0
     24148 WT11     203      MECN     H11      HGA3     0.090000        1.0080           0
     24149 WT11     203      MECN     H12      HGA3     0.090000        1.0080           0
     24150 WT11     203      MECN     H13      HGA3     0.090000        1.0080           0
     24151 WT11     203      MECN     C2       CG1N1    0.360000       12.0110           0
     24152 WT11     203      MECN     N3       NG1T1   -0.460000       14.0070           0
     24153 WT11     204      MECN     C1       CG331   -0.170000       12.0110           0
     24154 WT11     204      MECN     H11      HGA3     0.090000        1.0080           0
     24155 WT11     204      MECN     H12      HGA3     0.090000        1.0080           0
     24156 WT11     204      MECN     H13      HGA3     0.090000        1.0080           0
     24157 WT11     204      MECN     C2       CG1N1    0.360000       12.0110           0
     24158 WT11     204      MECN     N3       NG1T1   -0.460000       14.0070           0
     24159 WT11     205      MECN     C1       CG331   -0.170000       12.0110           0
     24160 WT11     205      MECN     H11      HGA3     0.090000        1.0080           0
     24161 WT11     205      MECN     H12      HGA3     0.090000        1.0080           0
     24162 WT11     205      MECN     H13      HGA3     0.090000        1.0080           0
     24163 WT11     205      MECN     C2       CG1N1    0.360000       12.0110           0
     24164 WT11     205      MECN     N3       NG1T1   -0.460000       14.0070           0
     24165 WT11     209      MECN     C1       CG331   -0.170000       12.0110           0
     24166 WT11     209      MECN     H11      HGA3     0.090000        1.0080           0
     24167 WT11     209      MECN     H12      HGA3     0.090000        1.0080           0
     24168 WT11     209      MECN     H13      HGA3     0.090000        1.0080           0
     24169 WT11     209      MECN     C2       CG1N1    0.360000       12.0110           0
     24170 WT11     209      MECN     N3       NG1T1   -0.460000       14.0070           0
     24171 WT11     212      MECN     C1       CG331   -0.170000       12.0110           0
     24172 WT11     212      MECN     H11      HGA3     0.090000        1.0080           0
     24173 WT11     212      MECN     H12      HGA3     0.090000        1.0080           0
     24174 WT11     212      MECN     H13      HGA3     0.090000        1.0080           0
     24175 WT11     212      MECN     C2       CG1N1    0.360000       12.0110           0
     24176 WT11     212      MECN     N3       NG1T1   -0.460000       14.0070           0
     24177 WT11     220      MECN     C1       CG331   -0.170000       12.0110           0
     24178 WT11     220      MECN     H11      HGA3     0.090000        1.0080           0
     24179 WT11     220      MECN     H12      HGA3     0.090000        1.0080           0
     24180 WT11     220      MECN     H13      HGA3     0.090000        1.0080           0
     24181 WT11     220      MECN     C2       CG1N1    0.360000       12.0110           0
     24182 WT11     220      MECN     N3       NG1T1   -0.460000       14.0070           0
     24183 WT11     224      MECN     C1       CG331   -0.170000       12.0110           0
     24184 WT11     224      MECN     H11      HGA3     0.090000        1.0080           0
     24185 WT11     224      MECN     H12      HGA3     0.090000        1.0080           0
     24186 WT11     224      MECN     H13      HGA3     0.090000        1.0080           0
     24187 WT11     224      MECN     C2       CG1N1    0.360000       12.0110           0
     24188 WT11     224      MECN     N3       NG1T1   -0.460000       14.0070           0
     24189 WT11     227      MECN     C1       CG331   -0.170000       12.0110           0
     24190 WT11     227      MECN     H11      HGA3     0.090000        1.0080           0
     24191 WT11     227      MECN     H12      HGA3     0.090000        1.0080           0
     24192 WT11     227      MECN     H13      HGA3     0.090000        1.0080           0
     24193 WT11     227      MECN     C2       CG1N1    0.360000       12.0110           0
     24194 WT11     227      MECN     N3       NG1T1   -0.460000       14.0070           0
     24195 WT11     229      MECN     C1       CG331   -0.170000       12.0110           0
     24196 WT11     229      MECN     H11      HGA3     0.090000        1.0080           0
     24197 WT11     229      MECN     H12      HGA3     0.090000        1.0080           0
     24198 WT11     229      MECN     H13      HGA3     0.090000        1.0080           0
     24199 WT11     229      MECN     C2       CG1N1    0.360000       12.0110           0
     24200 WT11     229      MECN     N3       NG1T1   -0.460000       14.0070           0
     24201 WT11     230      MECN     C1       CG331   -0.170000       12.0110           0
     24202 WT11     230      MECN     H11      HGA3     0.090000        1.0080           0
     24203 WT11     230      MECN     H12      HGA3     0.090000        1.0080           0
     24204 WT11     230      MECN     H13      HGA3     0.090000        1.0080           0
     24205 WT11     230      MECN     C2       CG1N1    0.360000       12.0110           0
     24206 WT11     230      MECN     N3       NG1T1   -0.460000       14.0070           0
     24207 WT11     231      MECN     C1       CG331   -0.170000       12.0110           0
     24208 WT11     231      MECN     H11      HGA3     0.090000        1.0080           0
     24209 WT11     231      MECN     H12      HGA3     0.090000        1.0080           0
     24210 WT11     231      MECN     H13      HGA3     0.090000        1.0080           0
     24211 WT11     231      MECN     C2       CG1N1    0.360000       12.0110           0
     24212 WT11     231      MECN     N3       NG1T1   -0.460000       14.0070           0
     24213 WT11     236      MECN     C1       CG331   -0.170000       12.0110           0
     24214 WT11     236      MECN     H11      HGA3     0.090000        1.0080           0
     24215 WT11     236      MECN     H12      HGA3     0.090000        1.0080           0
     24216 WT11     236      MECN     H13      HGA3     0.090000        1.0080           0
     24217 WT11     236      MECN     C2       CG1N1    0.360000       12.0110           0
     24218 WT11     236      MECN     N3       NG1T1   -0.460000       14.0070           0
     24219 WT11     237      MECN     C1       CG331   -0.170000       12.0110           0
     24220 WT11     237      MECN     H11      HGA3     0.090000        1.0080           0
     24221 WT11     237      MECN     H12      HGA3     0.090000        1.0080           0
     24222 WT11     237      MECN     H13      HGA3     0.090000        1.0080           0
     24223 WT11     237      MECN     C2       CG1N1    0.360000       12.0110           0
     24224 WT11     237      MECN     N3       NG1T1   -0.460000       14.0070           0
     24225 WT11     238      MECN     C1       CG331   -0.170000       12.0110           0
     24226 WT11     238      MECN     H11      HGA3     0.090000        1.0080           0
     24227 WT11     238      MECN     H12      HGA3     0.090000        1.0080           0
     24228 WT11     238      MECN     H13      HGA3     0.090000        1.0080           0
     24229 WT11     238      MECN     C2       CG1N1    0.360000       12.0110           0
     24230 WT11     238      MECN     N3       NG1T1   -0.460000       14.0070           0
     24231 WT11     242      MECN     C1       CG331   -0.170000       12.0110           0
     24232 WT11     242      MECN     H11      HGA3     0.090000        1.0080           0
     24233 WT11     242      MECN     H12      HGA3     0.090000        1.0080           0
     24234 WT11     242      MECN     H13      HGA3     0.090000        1.0080           0
     24235 WT11     242      MECN     C2       CG1N1    0.360000       12.0110           0
     24236 WT11     242      MECN     N3       NG1T1   -0.460000       14.0070           0
     24237 WT11     246      MECN     C1       CG331   -0.170000       12.0110           0
     24238 WT11     246      MECN     H11      HGA3     0.090000        1.0080           0
     24239 WT11     246      MECN     H12      HGA3     0.090000        1.0080           0
     24240 WT11     246      MECN     H13      HGA3     0.090000        1.0080           0
     24241 WT11     246      MECN     C2       CG1N1    0.360000       12.0110           0
     24242 WT11     246      MECN     N3       NG1T1   -0.460000       14.0070           0
     24243 WT11     247      MECN     C1       CG331   -0.170000       12.0110           0
     24244 WT11     247      MECN     H11      HGA3     0.090000        1.0080           0
     24245 WT11     247      MECN     H12      HGA3     0.090000        1.0080           0
     24246 WT11     247      MECN     H13      HGA3     0.090000        1.0080           0
     24247 WT11     247      MECN     C2       CG1N1    0.360000       12.0110           0
     24248 WT11     247      MECN     N3       NG1T1   -0.460000       14.0070           0
     24249 WT11     248      MECN     C1       CG331   -0.170000       12.0110           0
     24250 WT11     248      MECN     H11      HGA3     0.090000        1.0080           0
     24251 WT11     248      MECN     H12      HGA3     0.090000        1.0080           0
     24252 WT11     248      MECN     H13      HGA3     0.090000        1.0080           0
     24253 WT11     248      MECN     C2       CG1N1    0.360000       12.0110           0
     24254 WT11     248      MECN     N3       NG1T1   -0.460000       14.0070           0
     24255 WT11     252      MECN     C1       CG331   -0.170000       12.0110           0
     24256 WT11     252      MECN     H11      HGA3     0.090000        1.0080           0
     24257 WT11     252      MECN     H12      HGA3     0.090000        1.0080           0
     24258 WT11     252      MECN     H13      HGA3     0.090000        1.0080           0
     24259 WT11     252      MECN     C2       CG1N1    0.360000       12.0110           0
     24260 WT11     252      MECN     N3       NG1T1   -0.460000       14.0070           0
     24261 WT11     253      MECN     C1       CG331   -0.170000       12.0110           0
     24262 WT11     253      MECN     H11      HGA3     0.090000        1.0080           0
     24263 WT11     253      MECN     H12      HGA3     0.090000        1.0080           0
     24264 WT11     253      MECN     H13      HGA3     0.090000        1.0080           0
     24265 WT11     253      MECN     C2       CG1N1    0.360000       12.0110           0
     24266 WT11     253      MECN     N3       NG1T1   -0.460000       14.0070           0
     24267 WT11     260      MECN     C1       CG331   -0.170000       12.0110           0
     24268 WT11     260      MECN     H11      HGA3     0.090000        1.0080           0
     24269 WT11     260      MECN     H12      HGA3     0.090000        1.0080           0
     24270 WT11     260      MECN     H13      HGA3     0.090000        1.0080           0
     24271 WT11     260      MECN     C2       CG1N1    0.360000       12.0110           0
     24272 WT11     260      MECN     N3       NG1T1   -0.460000       14.0070           0
     24273 WT11     267      MECN     C1       CG331   -0.170000       12.0110           0
     24274 WT11     267      MECN     H11      HGA3     0.090000        1.0080           0
     24275 WT11     267      MECN     H12      HGA3     0.090000        1.0080           0
     24276 WT11     267      MECN     H13      HGA3     0.090000        1.0080           0
     24277 WT11     267      MECN     C2       CG1N1    0.360000       12.0110           0
     24278 WT11     267      MECN     N3       NG1T1   -0.460000       14.0070           0
     24279 WT11     268      MECN     C1       CG331   -0.170000       12.0110           0
     24280 WT11     268      MECN     H11      HGA3     0.090000        1.0080           0
     24281 WT11     268      MECN     H12      HGA3     0.090000        1.0080           0
     24282 WT11     268      MECN     H13      HGA3     0.090000        1.0080           0
     24283 WT11     268      MECN     C2       CG1N1    0.360000       12.0110           0
     24284 WT11     268      MECN     N3       NG1T1   -0.460000       14.0070           0
     24285 WT11     270      MECN     C1       CG331   -0.170000       12.0110           0
     24286 WT11     270      MECN     H11      HGA3     0.090000        1.0080           0
     24287 WT11     270      MECN     H12      HGA3     0.090000        1.0080           0
     24288 WT11     270      MECN     H13      HGA3     0.090000        1.0080           0
     24289 WT11     270      MECN     C2       CG1N1    0.360000       12.0110           0
     24290 WT11     270      MECN     N3       NG1T1   -0.460000       14.0070           0
     24291 WT11     272      MECN     C1       CG331   -0.170000       12.0110           0
     24292 WT11     272      MECN     H11      HGA3     0.090000        1.0080           0
     24293 WT11     272      MECN     H12      HGA3     0.090000        1.0080           0
     24294 WT11     272      MECN     H13      HGA3     0.090000        1.0080           0
     24295 WT11     272      MECN     C2       CG1N1    0.360000       12.0110           0
     24296 WT11     272      MECN     N3       NG1T1   -0.460000       14.0070           0
     24297 WT11     273      MECN     C1       CG331   -0.170000       12.0110           0
     24298 WT11     273      MECN     H11      HGA3     0.090000        1.0080           0
     24299 WT11     273      MECN     H12      HGA3     0.090000        1.0080           0
     24300 WT11     273      MECN     H13      HGA3     0.090000        1.0080           0
     24301 WT11     273      MECN     C2       CG1N1    0.360000       12.0110           0
     24302 WT11     273      MECN     N3       NG1T1   -0.460000       14.0070           0
     24303 WT11     274      MECN     C1       CG331   -0.170000       12.0110           0
     24304 WT11     274      MECN     H11      HGA3     0.090000        1.0080           0
     24305 WT11     274      MECN     H12      HGA3     0.090000        1.0080           0
     24306 WT11     274      MECN     H13      HGA3     0.090000        1.0080           0
     24307 WT11     274      MECN     C2       CG1N1    0.360000       12.0110           0
     24308 WT11     274      MECN     N3       NG1T1   -0.460000       14.0070           0
     24309 WT11     276      MECN     C1       CG331   -0.170000       12.0110           0
     24310 WT11     276      MECN     H11      HGA3     0.090000        1.0080           0
     24311 WT11     276      MECN     H12      HGA3     0.090000        1.0080           0
     24312 WT11     276      MECN     H13      HGA3     0.090000        1.0080           0
     24313 WT11     276      MECN     C2       CG1N1    0.360000       12.0110           0
     24314 WT11     276      MECN     N3       NG1T1   -0.460000       14.0070           0
     24315 WT11     279      MECN     C1       CG331   -0.170000       12.0110           0
     24316 WT11     279      MECN     H11      HGA3     0.090000        1.0080           0
     24317 WT11     279      MECN     H12      HGA3     0.090000        1.0080           0
     24318 WT11     279      MECN     H13      HGA3     0.090000        1.0080           0
     24319 WT11     279      MECN     C2       CG1N1    0.360000       12.0110           0
     24320 WT11     279      MECN     N3       NG1T1   -0.460000       14.0070           0
     24321 WT11     280      MECN     C1       CG331   -0.170000       12.0110           0
     24322 WT11     280      MECN     H11      HGA3     0.090000        1.0080           0
     24323 WT11     280      MECN     H12      HGA3     0.090000        1.0080           0
     24324 WT11     280      MECN     H13      HGA3     0.090000        1.0080           0
     24325 WT11     280      MECN     C2       CG1N1    0.360000       12.0110           0
     24326 WT11     280      MECN     N3       NG1T1   -0.460000       14.0070           0
     24327 WT11     286      MECN     C1       CG331   -0.170000       12.0110           0
     24328 WT11     286      MECN     H11      HGA3     0.090000        1.0080           0
     24329 WT11     286      MECN     H12      HGA3     0.090000        1.0080           0
     24330 WT11     286      MECN     H13      HGA3     0.090000        1.0080           0
     24331 WT11     286      MECN     C2       CG1N1    0.360000       12.0110           0
     24332 WT11     286      MECN     N3       NG1T1   -0.460000       14.0070           0
     24333 WT11     287      MECN     C1       CG331   -0.170000       12.0110           0
     24334 WT11     287      MECN     H11      HGA3     0.090000        1.0080           0
     24335 WT11     287      MECN     H12      HGA3     0.090000        1.0080           0
     24336 WT11     287      MECN     H13      HGA3     0.090000        1.0080           0
     24337 WT11     287      MECN     C2       CG1N1    0.360000       12.0110           0
     24338 WT11     287      MECN     N3       NG1T1   -0.460000       14.0070           0
     24339 WT11     288      MECN     C1       CG331   -0.170000       12.0110           0
     24340 WT11     288      MECN     H11      HGA3     0.090000        1.0080           0
     24341 WT11     288      MECN     H12      HGA3     0.090000        1.0080           0
     24342 WT11     288      MECN     H13      HGA3     0.090000        1.0080           0
     24343 WT11     288      MECN     C2       CG1N1    0.360000       12.0110           0
     24344 WT11     288      MECN     N3       NG1T1   -0.460000       14.0070           0
     24345 WT11     292      MECN     C1       CG331   -0.170000       12.0110           0
     24346 WT11     292      MECN     H11      HGA3     0.090000        1.0080           0
     24347 WT11     292      MECN     H12      HGA3     0.090000        1.0080           0
     24348 WT11     292      MECN     H13      HGA3     0.090000        1.0080           0
     24349 WT11     292      MECN     C2       CG1N1    0.360000       12.0110           0
     24350 WT11     292      MECN     N3       NG1T1   -0.460000       14.0070           0
     24351 WT11     294      MECN     C1       CG331   -0.170000       12.0110           0
     24352 WT11     294      MECN     H11      HGA3     0.090000        1.0080           0
     24353 WT11     294      MECN     H12      HGA3     0.090000        1.0080           0
     24354 WT11     294      MECN     H13      HGA3     0.090000        1.0080           0
     24355 WT11     294      MECN     C2       CG1N1    0.360000       12.0110           0
     24356 WT11     294      MECN     N3       NG1T1   -0.460000       14.0070           0
     24357 WT11     297      MECN     C1       CG331   -0.170000       12.0110           0
     24358 WT11     297      MECN     H11      HGA3     0.090000        1.0080           0
     24359 WT11     297      MECN     H12      HGA3     0.090000        1.0080           0
     24360 WT11     297      MECN     H13      HGA3     0.090000        1.0080           0
     24361 WT11     297      MECN     C2       CG1N1    0.360000       12.0110           0
     24362 WT11     297      MECN     N3       NG1T1   -0.460000       14.0070           0
     24363 WT11     298      MECN     C1       CG331   -0.170000       12.0110           0
     24364 WT11     298      MECN     H11      HGA3     0.090000        1.0080           0
     24365 WT11     298      MECN     H12      HGA3     0.090000        1.0080           0
     24366 WT11     298      MECN     H13      HGA3     0.090000        1.0080           0
     24367 WT11     298      MECN     C2       CG1N1    0.360000       12.0110           0
     24368 WT11     298      MECN     N3       NG1T1   -0.460000       14.0070           0
     24369 WT11     304      MECN     C1       CG331   -0.170000       12.0110           0
     24370 WT11     304      MECN     H11      HGA3     0.090000        1.0080           0
     24371 WT11     304      MECN     H12      HGA3     0.090000        1.0080           0
     24372 WT11     304      MECN     H13      HGA3     0.090000        1.0080           0
     24373 WT11     304      MECN     C2       CG1N1    0.360000       12.0110           0
     24374 WT11     304      MECN     N3       NG1T1   -0.460000       14.0070           0
     24375 WT11     306      MECN     C1       CG331   -0.170000       12.0110           0
     24376 WT11     306      MECN     H11      HGA3     0.090000        1.0080           0
     24377 WT11     306      MECN     H12      HGA3     0.090000        1.0080           0
     24378 WT11     306      MECN     H13      HGA3     0.090000        1.0080           0
     24379 WT11     306      MECN     C2       CG1N1    0.360000       12.0110           0
     24380 WT11     306      MECN     N3       NG1T1   -0.460000       14.0070           0
     24381 WT11     310      MECN     C1       CG331   -0.170000       12.0110           0
     24382 WT11     310      MECN     H11      HGA3     0.090000        1.0080           0
     24383 WT11     310      MECN     H12      HGA3     0.090000        1.0080           0
     24384 WT11     310      MECN     H13      HGA3     0.090000        1.0080           0
     24385 WT11     310      MECN     C2       CG1N1    0.360000       12.0110           0
     24386 WT11     310      MECN     N3       NG1T1   -0.460000       14.0070           0
     24387 WT11     316      MECN     C1       CG331   -0.170000       12.0110           0
     24388 WT11     316      MECN     H11      HGA3     0.090000        1.0080           0
     24389 WT11     316      MECN     H12      HGA3     0.090000        1.0080           0
     24390 WT11     316      MECN     H13      HGA3     0.090000        1.0080           0
     24391 WT11     316      MECN     C2       CG1N1    0.360000       12.0110           0
     24392 WT11     316      MECN     N3       NG1T1   -0.460000       14.0070           0
     24393 WT11     317      MECN     C1       CG331   -0.170000       12.0110           0
     24394 WT11     317      MECN     H11      HGA3     0.090000        1.0080           0
     24395 WT11     317      MECN     H12      HGA3     0.090000        1.0080           0
     24396 WT11     317      MECN     H13      HGA3     0.090000        1.0080           0
     24397 WT11     317      MECN     C2       CG1N1    0.360000       12.0110           0
     24398 WT11     317      MECN     N3       NG1T1   -0.460000       14.0070           0
     24399 WT11     318      MECN     C1       CG331   -0.170000       12.0110           0
     24400 WT11     318      MECN     H11      HGA3     0.090000        1.0080           0
     24401 WT11     318      MECN     H12      HGA3     0.090000        1.0080           0
     24402 WT11     318      MECN     H13      HGA3     0.090000        1.0080           0
     24403 WT11     318      MECN     C2       CG1N1    0.360000       12.0110           0
     24404 WT11     318      MECN     N3       NG1T1   -0.460000       14.0070           0
     24405 WT11     319      MECN     C1       CG331   -0.170000       12.0110           0
     24406 WT11     319      MECN     H11      HGA3     0.090000        1.0080           0
     24407 WT11     319      MECN     H12      HGA3     0.090000        1.0080           0
     24408 WT11     319      MECN     H13      HGA3     0.090000        1.0080           0
     24409 WT11     319      MECN     C2       CG1N1    0.360000       12.0110           0
     24410 WT11     319      MECN     N3       NG1T1   -0.460000       14.0070           0
     24411 WT11     322      MECN     C1       CG331   -0.170000       12.0110           0
     24412 WT11     322      MECN     H11      HGA3     0.090000        1.0080           0
     24413 WT11     322      MECN     H12      HGA3     0.090000        1.0080           0
     24414 WT11     322      MECN     H13      HGA3     0.090000        1.0080           0
     24415 WT11     322      MECN     C2       CG1N1    0.360000       12.0110           0
     24416 WT11     322      MECN     N3       NG1T1   -0.460000       14.0070           0
     24417 WT11     325      MECN     C1       CG331   -0.170000       12.0110           0
     24418 WT11     325      MECN     H11      HGA3     0.090000        1.0080           0
     24419 WT11     325      MECN     H12      HGA3     0.090000        1.0080           0
     24420 WT11     325      MECN     H13      HGA3     0.090000        1.0080           0
     24421 WT11     325      MECN     C2       CG1N1    0.360000       12.0110           0
     24422 WT11     325      MECN     N3       NG1T1   -0.460000       14.0070           0
     24423 WT11     327      MECN     C1       CG331   -0.170000       12.0110           0
     24424 WT11     327      MECN     H11      HGA3     0.090000        1.0080           0
     24425 WT11     327      MECN     H12      HGA3     0.090000        1.0080           0
     24426 WT11     327      MECN     H13      HGA3     0.090000        1.0080           0
     24427 WT11     327      MECN     C2       CG1N1    0.360000       12.0110           0
     24428 WT11     327      MECN     N3       NG1T1   -0.460000       14.0070           0
     24429 WT11     328      MECN     C1       CG331   -0.170000       12.0110           0
     24430 WT11     328      MECN     H11      HGA3     0.090000        1.0080           0
     24431 WT11     328      MECN     H12      HGA3     0.090000        1.0080           0
     24432 WT11     328      MECN     H13      HGA3     0.090000        1.0080           0
     24433 WT11     328      MECN     C2       CG1N1    0.360000       12.0110           0
     24434 WT11     328      MECN     N3       NG1T1   -0.460000       14.0070           0
     24435 WT11     329      MECN     C1       CG331   -0.170000       12.0110           0
     24436 WT11     329      MECN     H11      HGA3     0.090000        1.0080           0
     24437 WT11     329      MECN     H12      HGA3     0.090000        1.0080           0
     24438 WT11     329      MECN     H13      HGA3     0.090000        1.0080           0
     24439 WT11     329      MECN     C2       CG1N1    0.360000       12.0110           0
     24440 WT11     329      MECN     N3       NG1T1   -0.460000       14.0070           0
     24441 WT11     331      MECN     C1       CG331   -0.170000       12.0110           0
     24442 WT11     331      MECN     H11      HGA3     0.090000        1.0080           0
     24443 WT11     331      MECN     H12      HGA3     0.090000        1.0080           0
     24444 WT11     331      MECN     H13      HGA3     0.090000        1.0080           0
     24445 WT11     331      MECN     C2       CG1N1    0.360000       12.0110           0
     24446 WT11     331      MECN     N3       NG1T1   -0.460000       14.0070           0
     24447 WT11     336      MECN     C1       CG331   -0.170000       12.0110           0
     24448 WT11     336      MECN     H11      HGA3     0.090000        1.0080           0
     24449 WT11     336      MECN     H12      HGA3     0.090000        1.0080           0
     24450 WT11     336      MECN     H13      HGA3     0.090000        1.0080           0
     24451 WT11     336      MECN     C2       CG1N1    0.360000       12.0110           0
     24452 WT11     336      MECN     N3       NG1T1   -0.460000       14.0070           0
     24453 WT11     337      MECN     C1       CG331   -0.170000       12.0110           0
     24454 WT11     337      MECN     H11      HGA3     0.090000        1.0080           0
     24455 WT11     337      MECN     H12      HGA3     0.090000        1.0080           0
     24456 WT11     337      MECN     H13      HGA3     0.090000        1.0080           0
     24457 WT11     337      MECN     C2       CG1N1    0.360000       12.0110           0
     24458 WT11     337      MECN     N3       NG1T1   -0.460000       14.0070           0
     24459 WT11     338      MECN     C1       CG331   -0.170000       12.0110           0
     24460 WT11     338      MECN     H11      HGA3     0.090000        1.0080           0
     24461 WT11     338      MECN     H12      HGA3     0.090000        1.0080           0
     24462 WT11     338      MECN     H13      HGA3     0.090000        1.0080           0
     24463 WT11     338      MECN     C2       CG1N1    0.360000       12.0110           0
     24464 WT11     338      MECN     N3       NG1T1   -0.460000       14.0070           0
     24465 WT11     340      MECN     C1       CG331   -0.170000       12.0110           0
     24466 WT11     340      MECN     H11      HGA3     0.090000        1.0080           0
     24467 WT11     340      MECN     H12      HGA3     0.090000        1.0080           0
     24468 WT11     340      MECN     H13      HGA3     0.090000        1.0080           0
     24469 WT11     340      MECN     C2       CG1N1    0.360000       12.0110           0
     24470 WT11     340      MECN     N3       NG1T1   -0.460000       14.0070           0
     24471 WT11     341      MECN     C1       CG331   -0.170000       12.0110           0
     24472 WT11     341      MECN     H11      HGA3     0.090000        1.0080           0
     24473 WT11     341      MECN     H12      HGA3     0.090000        1.0080           0
     24474 WT11     341      MECN     H13      HGA3     0.090000        1.0080           0
     24475 WT11     341      MECN     C2       CG1N1    0.360000       12.0110           0
     24476 WT11     341      MECN     N3       NG1T1   -0.460000       14.0070           0
     24477 WT11     342      MECN     C1       CG331   -0.170000       12.0110           0
     24478 WT11     342      MECN     H11      HGA3     0.090000        1.0080           0
     24479 WT11     342      MECN     H12      HGA3     0.090000        1.0080           0
     24480 WT11     342      MECN     H13      HGA3     0.090000        1.0080           0
     24481 WT11     342      MECN     C2       CG1N1    0.360000       12.0110           0
     24482 WT11     342      MECN     N3       NG1T1   -0.460000       14.0070           0
     24483 WT11     343      MECN     C1       CG331   -0.170000       12.0110           0
     24484 WT11     343      MECN     H11      HGA3     0.090000        1.0080           0
     24485 WT11     343      MECN     H12      HGA3     0.090000        1.0080           0
     24486 WT11     343      MECN     H13      HGA3     0.090000        1.0080           0
     24487 WT11     343      MECN     C2       CG1N1    0.360000       12.0110           0
     24488 WT11     343      MECN     N3       NG1T1   -0.460000       14.0070           0
     24489 WT11     344      MECN     C1       CG331   -0.170000       12.0110           0
     24490 WT11     344      MECN     H11      HGA3     0.090000        1.0080           0
     24491 WT11     344      MECN     H12      HGA3     0.090000        1.0080           0
     24492 WT11     344      MECN     H13      HGA3     0.090000        1.0080           0
     24493 WT11     344      MECN     C2       CG1N1    0.360000       12.0110           0
     24494 WT11     344      MECN     N3       NG1T1   -0.460000       14.0070           0
     24495 WT11     349      MECN     C1       CG331   -0.170000       12.0110           0
     24496 WT11     349      MECN     H11      HGA3     0.090000        1.0080           0
     24497 WT11     349      MECN     H12      HGA3     0.090000        1.0080           0
     24498 WT11     349      MECN     H13      HGA3     0.090000        1.0080           0
     24499 WT11     349      MECN     C2       CG1N1    0.360000       12.0110           0
     24500 WT11     349      MECN     N3       NG1T1   -0.460000       14.0070           0
     24501 WT11     351      MECN     C1       CG331   -0.170000       12.0110           0
     24502 WT11     351      MECN     H11      HGA3     0.090000        1.0080           0
     24503 WT11     351      MECN     H12      HGA3     0.090000        1.0080           0
     24504 WT11     351      MECN     H13      HGA3     0.090000        1.0080           0
     24505 WT11     351      MECN     C2       CG1N1    0.360000       12.0110           0
     24506 WT11     351      MECN     N3       NG1T1   -0.460000       14.0070           0
     24507 WT11     358      MECN     C1       CG331   -0.170000       12.0110           0
     24508 WT11     358      MECN     H11      HGA3     0.090000        1.0080           0
     24509 WT11     358      MECN     H12      HGA3     0.090000        1.0080           0
     24510 WT11     358      MECN     H13      HGA3     0.090000        1.0080           0
     24511 WT11     358      MECN     C2       CG1N1    0.360000       12.0110           0
     24512 WT11     358      MECN     N3       NG1T1   -0.460000       14.0070           0
     24513 WT11     359      MECN     C1       CG331   -0.170000       12.0110           0
     24514 WT11     359      MECN     H11      HGA3     0.090000        1.0080           0
     24515 WT11     359      MECN     H12      HGA3     0.090000        1.0080           0
     24516 WT11     359      MECN     H13      HGA3     0.090000        1.0080           0
     24517 WT11     359      MECN     C2       CG1N1    0.360000       12.0110           0
     24518 WT11     359      MECN     N3       NG1T1   -0.460000       14.0070           0
     24519 WT11     361      MECN     C1       CG331   -0.170000       12.0110           0
     24520 WT11     361      MECN     H11      HGA3     0.090000        1.0080           0
     24521 WT11     361      MECN     H12      HGA3     0.090000        1.0080           0
     24522 WT11     361      MECN     H13      HGA3     0.090000        1.0080           0
     24523 WT11     361      MECN     C2       CG1N1    0.360000       12.0110           0
     24524 WT11     361      MECN     N3       NG1T1   -0.460000       14.0070           0
     24525 WT11     366      MECN     C1       CG331   -0.170000       12.0110           0
     24526 WT11     366      MECN     H11      HGA3     0.090000        1.0080           0
     24527 WT11     366      MECN     H12      HGA3     0.090000        1.0080           0
     24528 WT11     366      MECN     H13      HGA3     0.090000        1.0080           0
     24529 WT11     366      MECN     C2       CG1N1    0.360000       12.0110           0
     24530 WT11     366      MECN     N3       NG1T1   -0.460000       14.0070           0
     24531 WT11     367      MECN     C1       CG331   -0.170000       12.0110           0
     24532 WT11     367      MECN     H11      HGA3     0.090000        1.0080           0
     24533 WT11     367      MECN     H12      HGA3     0.090000        1.0080           0
     24534 WT11     367      MECN     H13      HGA3     0.090000        1.0080           0
     24535 WT11     367      MECN     C2       CG1N1    0.360000       12.0110           0
     24536 WT11     367      MECN     N3       NG1T1   -0.460000       14.0070           0
     24537 WT11     373      MECN     C1       CG331   -0.170000       12.0110           0
     24538 WT11     373      MECN     H11      HGA3     0.090000        1.0080           0
     24539 WT11     373      MECN     H12      HGA3     0.090000        1.0080           0
     24540 WT11     373      MECN     H13      HGA3     0.090000        1.0080           0
     24541 WT11     373      MECN     C2       CG1N1    0.360000       12.0110           0
     24542 WT11     373      MECN     N3       NG1T1   -0.460000       14.0070           0
     24543 WT11     378      MECN     C1       CG331   -0.170000       12.0110           0
     24544 WT11     378      MECN     H11      HGA3     0.090000        1.0080           0
     24545 WT11     378      MECN     H12      HGA3     0.090000        1.0080           0
     24546 WT11     378      MECN     H13      HGA3     0.090000        1.0080           0
     24547 WT11     378      MECN     C2       CG1N1    0.360000       12.0110           0
     24548 WT11     378      MECN     N3       NG1T1   -0.460000       14.0070           0
     24549 WT11     381      MECN     C1       CG331   -0.170000       12.0110           0
     24550 WT11     381      MECN     H11      HGA3     0.090000        1.0080           0
     24551 WT11     381      MECN     H12      HGA3     0.090000        1.0080           0
     24552 WT11     381      MECN     H13      HGA3     0.090000        1.0080           0
     24553 WT11     381      MECN     C2       CG1N1    0.360000       12.0110           0
     24554 WT11     381      MECN     N3       NG1T1   -0.460000       14.0070           0
     24555 WT11     385      MECN     C1       CG331   -0.170000       12.0110           0
     24556 WT11     385      MECN     H11      HGA3     0.090000        1.0080           0
     24557 WT11     385      MECN     H12      HGA3     0.090000        1.0080           0
     24558 WT11     385      MECN     H13      HGA3     0.090000        1.0080           0
     24559 WT11     385      MECN     C2       CG1N1    0.360000       12.0110           0
     24560 WT11     385      MECN     N3       NG1T1   -0.460000       14.0070           0
     24561 WT11     392      MECN     C1       CG331   -0.170000       12.0110           0
     24562 WT11     392      MECN     H11      HGA3     0.090000        1.0080           0
     24563 WT11     392      MECN     H12      HGA3     0.090000        1.0080           0
     24564 WT11     392      MECN     H13      HGA3     0.090000        1.0080           0
     24565 WT11     392      MECN     C2       CG1N1    0.360000       12.0110           0
     24566 WT11     392      MECN     N3       NG1T1   -0.460000       14.0070           0
     24567 WT11     393      MECN     C1       CG331   -0.170000       12.0110           0
     24568 WT11     393      MECN     H11      HGA3     0.090000        1.0080           0
     24569 WT11     393      MECN     H12      HGA3     0.090000        1.0080           0
     24570 WT11     393      MECN     H13      HGA3     0.090000        1.0080           0
     24571 WT11     393      MECN     C2       CG1N1    0.360000       12.0110           0
     24572 WT11     393      MECN     N3       NG1T1   -0.460000       14.0070           0
     24573 WT11     396      MECN     C1       CG331   -0.170000       12.0110           0
     24574 WT11     396      MECN     H11      HGA3     0.090000        1.0080           0
     24575 WT11     396      MECN     H12      HGA3     0.090000        1.0080           0
     24576 WT11     396      MECN     H13      HGA3     0.090000        1.0080           0
     24577 WT11     396      MECN     C2       CG1N1    0.360000       12.0110           0
     24578 WT11     396      MECN     N3       NG1T1   -0.460000       14.0070           0
     24579 WT11     400      MECN     C1       CG331   -0.170000       12.0110           0
     24580 WT11     400      MECN     H11      HGA3     0.090000        1.0080           0
     24581 WT11     400      MECN     H12      HGA3     0.090000        1.0080           0
     24582 WT11     400      MECN     H13      HGA3     0.090000        1.0080           0
     24583 WT11     400      MECN     C2       CG1N1    0.360000       12.0110           0
     24584 WT11     400      MECN     N3       NG1T1   -0.460000       14.0070           0
     24585 WT11     403      MECN     C1       CG331   -0.170000       12.0110           0
     24586 WT11     403      MECN     H11      HGA3     0.090000        1.0080           0
     24587 WT11     403      MECN     H12      HGA3     0.090000        1.0080           0
     24588 WT11     403      MECN     H13      HGA3     0.090000        1.0080           0
     24589 WT11     403      MECN     C2       CG1N1    0.360000       12.0110           0
     24590 WT11     403      MECN     N3       NG1T1   -0.460000       14.0070           0
     24591 WT11     406      MECN     C1       CG331   -0.170000       12.0110           0
     24592 WT11     406      MECN     H11      HGA3     0.090000        1.0080           0
     24593 WT11     406      MECN     H12      HGA3     0.090000        1.0080           0
     24594 WT11     406      MECN     H13      HGA3     0.090000        1.0080           0
     24595 WT11     406      MECN     C2       CG1N1    0.360000       12.0110           0
     24596 WT11     406      MECN     N3       NG1T1   -0.460000       14.0070           0
     24597 WT11     408      MECN     C1       CG331   -0.170000       12.0110           0
     24598 WT11     408      MECN     H11      HGA3     0.090000        1.0080           0
     24599 WT11     408      MECN     H12      HGA3     0.090000        1.0080           0
     24600 WT11     408      MECN     H13      HGA3     0.090000        1.0080           0
     24601 WT11     408      MECN     C2       CG1N1    0.360000       12.0110           0
     24602 WT11     408      MECN     N3       NG1T1   -0.460000       14.0070           0
     24603 WT11     410      MECN     C1       CG331   -0.170000       12.0110           0
     24604 WT11     410      MECN     H11      HGA3     0.090000        1.0080           0
     24605 WT11     410      MECN     H12      HGA3     0.090000        1.0080           0
     24606 WT11     410      MECN     H13      HGA3     0.090000        1.0080           0
     24607 WT11     410      MECN     C2       CG1N1    0.360000       12.0110           0
     24608 WT11     410      MECN     N3       NG1T1   -0.460000       14.0070           0
     24609 WT11     411      MECN     C1       CG331   -0.170000       12.0110           0
     24610 WT11     411      MECN     H11      HGA3     0.090000        1.0080           0
     24611 WT11     411      MECN     H12      HGA3     0.090000        1.0080           0
     24612 WT11     411      MECN     H13      HGA3     0.090000        1.0080           0
     24613 WT11     411      MECN     C2       CG1N1    0.360000       12.0110           0
     24614 WT11     411      MECN     N3       NG1T1   -0.460000       14.0070           0
     24615 WT11     418      MECN     C1       CG331   -0.170000       12.0110           0
     24616 WT11     418      MECN     H11      HGA3     0.090000        1.0080           0
     24617 WT11     418      MECN     H12      HGA3     0.090000        1.0080           0
     24618 WT11     418      MECN     H13      HGA3     0.090000        1.0080           0
     24619 WT11     418      MECN     C2       CG1N1    0.360000       12.0110           0
     24620 WT11     418      MECN     N3       NG1T1   -0.460000       14.0070           0
     24621 WT11     419      MECN     C1       CG331   -0.170000       12.0110           0
     24622 WT11     419      MECN     H11      HGA3     0.090000        1.0080           0
     24623 WT11     419      MECN     H12      HGA3     0.090000        1.0080           0
     24624 WT11     419      MECN     H13      HGA3     0.090000        1.0080           0
     24625 WT11     419      MECN     C2       CG1N1    0.360000       12.0110           0
     24626 WT11     419      MECN     N3       NG1T1   -0.460000       14.0070           0
     24627 WT11     420      MECN     C1       CG331   -0.170000       12.0110           0
     24628 WT11     420      MECN     H11      HGA3     0.090000        1.0080           0
     24629 WT11     420      MECN     H12      HGA3     0.090000        1.0080           0
     24630 WT11     420      MECN     H13      HGA3     0.090000        1.0080           0
     24631 WT11     420      MECN     C2       CG1N1    0.360000       12.0110           0
     24632 WT11     420      MECN     N3       NG1T1   -0.460000       14.0070           0
     24633 WT11     422      MECN     C1       CG331   -0.170000       12.0110           0
     24634 WT11     422      MECN     H11      HGA3     0.090000        1.0080           0
     24635 WT11     422      MECN     H12      HGA3     0.090000        1.0080           0
     24636 WT11     422      MECN     H13      HGA3     0.090000        1.0080           0
     24637 WT11     422      MECN     C2       CG1N1    0.360000       12.0110           0
     24638 WT11     422      MECN     N3       NG1T1   -0.460000       14.0070           0
     24639 WT11     423      MECN     C1       CG331   -0.170000       12.0110           0
     24640 WT11     423      MECN     H11      HGA3     0.090000        1.0080           0
     24641 WT11     423      MECN     H12      HGA3     0.090000        1.0080           0
     24642 WT11     423      MECN     H13      HGA3     0.090000        1.0080           0
     24643 WT11     423      MECN     C2       CG1N1    0.360000       12.0110           0
     24644 WT11     423      MECN     N3       NG1T1   -0.460000       14.0070           0
     24645 WT11     427      MECN     C1       CG331   -0.170000       12.0110           0
     24646 WT11     427      MECN     H11      HGA3     0.090000        1.0080           0
     24647 WT11     427      MECN     H12      HGA3     0.090000        1.0080           0
     24648 WT11     427      MECN     H13      HGA3     0.090000        1.0080           0
     24649 WT11     427      MECN     C2       CG1N1    0.360000       12.0110           0
     24650 WT11     427      MECN     N3       NG1T1   -0.460000       14.0070           0
     24651 WT11     435      MECN     C1       CG331   -0.170000       12.0110           0
     24652 WT11     435      MECN     H11      HGA3     0.090000        1.0080           0
     24653 WT11     435      MECN     H12      HGA3     0.090000        1.0080           0
     24654 WT11     435      MECN     H13      HGA3     0.090000        1.0080           0
     24655 WT11     435      MECN     C2       CG1N1    0.360000       12.0110           0
     24656 WT11     435      MECN     N3       NG1T1   -0.460000       14.0070           0
     24657 WT11     441      MECN     C1       CG331   -0.170000       12.0110           0
     24658 WT11     441      MECN     H11      HGA3     0.090000        1.0080           0
     24659 WT11     441      MECN     H12      HGA3     0.090000        1.0080           0
     24660 WT11     441      MECN     H13      HGA3     0.090000        1.0080           0
     24661 WT11     441      MECN     C2       CG1N1    0.360000       12.0110           0
     24662 WT11     441      MECN     N3       NG1T1   -0.460000       14.0070           0
     24663 WT11     445      MECN     C1       CG331   -0.170000       12.0110           0
     24664 WT11     445      MECN     H11      HGA3     0.090000        1.0080           0
     24665 WT11     445      MECN     H12      HGA3     0.090000        1.0080           0
     24666 WT11     445      MECN     H13      HGA3     0.090000        1.0080           0
     24667 WT11     445      MECN     C2       CG1N1    0.360000       12.0110           0
     24668 WT11     445      MECN     N3       NG1T1   -0.460000       14.0070           0
     24669 WT11     446      MECN     C1       CG331   -0.170000       12.0110           0
     24670 WT11     446      MECN     H11      HGA3     0.090000        1.0080           0
     24671 WT11     446      MECN     H12      HGA3     0.090000        1.0080           0
     24672 WT11     446      MECN     H13      HGA3     0.090000        1.0080           0
     24673 WT11     446      MECN     C2       CG1N1    0.360000       12.0110           0
     24674 WT11     446      MECN     N3       NG1T1   -0.460000       14.0070           0
     24675 WT11     448      MECN     C1       CG331   -0.170000       12.0110           0
     24676 WT11     448      MECN     H11      HGA3     0.090000        1.0080           0
     24677 WT11     448      MECN     H12      HGA3     0.090000        1.0080           0
     24678 WT11     448      MECN     H13      HGA3     0.090000        1.0080           0
     24679 WT11     448      MECN     C2       CG1N1    0.360000       12.0110           0
     24680 WT11     448      MECN     N3       NG1T1   -0.460000       14.0070           0
     24681 WT11     450      MECN     C1       CG331   -0.170000       12.0110           0
     24682 WT11     450      MECN     H11      HGA3     0.090000        1.0080           0
     24683 WT11     450      MECN     H12      HGA3     0.090000        1.0080           0
     24684 WT11     450      MECN     H13      HGA3     0.090000        1.0080           0
     24685 WT11     450      MECN     C2       CG1N1    0.360000       12.0110           0
     24686 WT11     450      MECN     N3       NG1T1   -0.460000       14.0070           0
     24687 WT11     452      MECN     C1       CG331   -0.170000       12.0110           0
     24688 WT11     452      MECN     H11      HGA3     0.090000        1.0080           0
     24689 WT11     452      MECN     H12      HGA3     0.090000        1.0080           0
     24690 WT11     452      MECN     H13      HGA3     0.090000        1.0080           0
     24691 WT11     452      MECN     C2       CG1N1    0.360000       12.0110           0
     24692 WT11     452      MECN     N3       NG1T1   -0.460000       14.0070           0
     24693 WT11     457      MECN     C1       CG331   -0.170000       12.0110           0
     24694 WT11     457      MECN     H11      HGA3     0.090000        1.0080           0
     24695 WT11     457      MECN     H12      HGA3     0.090000        1.0080           0
     24696 WT11     457      MECN     H13      HGA3     0.090000        1.0080           0
     24697 WT11     457      MECN     C2       CG1N1    0.360000       12.0110           0
     24698 WT11     457      MECN     N3       NG1T1   -0.460000       14.0070           0
     24699 WT11     458      MECN     C1       CG331   -0.170000       12.0110           0
     24700 WT11     458      MECN     H11      HGA3     0.090000        1.0080           0
     24701 WT11     458      MECN     H12      HGA3     0.090000        1.0080           0
     24702 WT11     458      MECN     H13      HGA3     0.090000        1.0080           0
     24703 WT11     458      MECN     C2       CG1N1    0.360000       12.0110           0
     24704 WT11     458      MECN     N3       NG1T1   -0.460000       14.0070           0
     24705 WT11     460      MECN     C1       CG331   -0.170000       12.0110           0
     24706 WT11     460      MECN     H11      HGA3     0.090000        1.0080           0
     24707 WT11     460      MECN     H12      HGA3     0.090000        1.0080           0
     24708 WT11     460      MECN     H13      HGA3     0.090000        1.0080           0
     24709 WT11     460      MECN     C2       CG1N1    0.360000       12.0110           0
     24710 WT11     460      MECN     N3       NG1T1   -0.460000       14.0070           0
     24711 WT11     461      MECN     C1       CG331   -0.170000       12.0110           0
     24712 WT11     461      MECN     H11      HGA3     0.090000        1.0080           0
     24713 WT11     461      MECN     H12      HGA3     0.090000        1.0080           0
     24714 WT11     461      MECN     H13      HGA3     0.090000        1.0080           0
     24715 WT11     461      MECN     C2       CG1N1    0.360000       12.0110           0
     24716 WT11     461      MECN     N3       NG1T1   -0.460000       14.0070           0
     24717 WT11     468      MECN     C1       CG331   -0.170000       12.0110           0
     24718 WT11     468      MECN     H11      HGA3     0.090000        1.0080           0
     24719 WT11     468      MECN     H12      HGA3     0.090000        1.0080           0
     24720 WT11     468      MECN     H13      HGA3     0.090000        1.0080           0
     24721 WT11     468      MECN     C2       CG1N1    0.360000       12.0110           0
     24722 WT11     468      MECN     N3       NG1T1   -0.460000       14.0070           0
     24723 WT11     470      MECN     C1       CG331   -0.170000       12.0110           0
     24724 WT11     470      MECN     H11      HGA3     0.090000        1.0080           0
     24725 WT11     470      MECN     H12      HGA3     0.090000        1.0080           0
     24726 WT11     470      MECN     H13      HGA3     0.090000        1.0080           0
     24727 WT11     470      MECN     C2       CG1N1    0.360000       12.0110           0
     24728 WT11     470      MECN     N3       NG1T1   -0.460000       14.0070           0
     24729 WT11     471      MECN     C1       CG331   -0.170000       12.0110           0
     24730 WT11     471      MECN     H11      HGA3     0.090000        1.0080           0
     24731 WT11     471      MECN     H12      HGA3     0.090000        1.0080           0
     24732 WT11     471      MECN     H13      HGA3     0.090000        1.0080           0
     24733 WT11     471      MECN     C2       CG1N1    0.360000       12.0110           0
     24734 WT11     471      MECN     N3       NG1T1   -0.460000       14.0070           0
     24735 WT11     475      MECN     C1       CG331   -0.170000       12.0110           0
     24736 WT11     475      MECN     H11      HGA3     0.090000        1.0080           0
     24737 WT11     475      MECN     H12      HGA3     0.090000        1.0080           0
     24738 WT11     475      MECN     H13      HGA3     0.090000        1.0080           0
     24739 WT11     475      MECN     C2       CG1N1    0.360000       12.0110           0
     24740 WT11     475      MECN     N3       NG1T1   -0.460000       14.0070           0
     24741 WT11     476      MECN     C1       CG331   -0.170000       12.0110           0
     24742 WT11     476      MECN     H11      HGA3     0.090000        1.0080           0
     24743 WT11     476      MECN     H12      HGA3     0.090000        1.0080           0
     24744 WT11     476      MECN     H13      HGA3     0.090000        1.0080           0
     24745 WT11     476      MECN     C2       CG1N1    0.360000       12.0110           0
     24746 WT11     476      MECN     N3       NG1T1   -0.460000       14.0070           0
     24747 WT11     482      MECN     C1       CG331   -0.170000       12.0110           0
     24748 WT11     482      MECN     H11      HGA3     0.090000        1.0080           0
     24749 WT11     482      MECN     H12      HGA3     0.090000        1.0080           0
     24750 WT11     482      MECN     H13      HGA3     0.090000        1.0080           0
     24751 WT11     482      MECN     C2       CG1N1    0.360000       12.0110           0
     24752 WT11     482      MECN     N3       NG1T1   -0.460000       14.0070           0
     24753 WT11     485      MECN     C1       CG331   -0.170000       12.0110           0
     24754 WT11     485      MECN     H11      HGA3     0.090000        1.0080           0
     24755 WT11     485      MECN     H12      HGA3     0.090000        1.0080           0
     24756 WT11     485      MECN     H13      HGA3     0.090000        1.0080           0
     24757 WT11     485      MECN     C2       CG1N1    0.360000       12.0110           0
     24758 WT11     485      MECN     N3       NG1T1   -0.460000       14.0070           0
     24759 WT11     486      MECN     C1       CG331   -0.170000       12.0110           0
     24760 WT11     486      MECN     H11      HGA3     0.090000        1.0080           0
     24761 WT11     486      MECN     H12      HGA3     0.090000        1.0080           0
     24762 WT11     486      MECN     H13      HGA3     0.090000        1.0080           0
     24763 WT11     486      MECN     C2       CG1N1    0.360000       12.0110           0
     24764 WT11     486      MECN     N3       NG1T1   -0.460000       14.0070           0
     24765 WT11     489      MECN     C1       CG331   -0.170000       12.0110           0
     24766 WT11     489      MECN     H11      HGA3     0.090000        1.0080           0
     24767 WT11     489      MECN     H12      HGA3     0.090000        1.0080           0
     24768 WT11     489      MECN     H13      HGA3     0.090000        1.0080           0
     24769 WT11     489      MECN     C2       CG1N1    0.360000       12.0110           0
     24770 WT11     489      MECN     N3       NG1T1   -0.460000       14.0070           0
     24771 WT11     490      MECN     C1       CG331   -0.170000       12.0110           0
     24772 WT11     490      MECN     H11      HGA3     0.090000        1.0080           0
     24773 WT11     490      MECN     H12      HGA3     0.090000        1.0080           0
     24774 WT11     490      MECN     H13      HGA3     0.090000        1.0080           0
     24775 WT11     490      MECN     C2       CG1N1    0.360000       12.0110           0
     24776 WT11     490      MECN     N3       NG1T1   -0.460000       14.0070           0
     24777 WT11     492      MECN     C1       CG331   -0.170000       12.0110           0
     24778 WT11     492      MECN     H11      HGA3     0.090000        1.0080           0
     24779 WT11     492      MECN     H12      HGA3     0.090000        1.0080           0
     24780 WT11     492      MECN     H13      HGA3     0.090000        1.0080           0
     24781 WT11     492      MECN     C2       CG1N1    0.360000       12.0110           0
     24782 WT11     492      MECN     N3       NG1T1   -0.460000       14.0070           0
     24783 WT11     493      MECN     C1       CG331   -0.170000       12.0110           0
     24784 WT11     493      MECN     H11      HGA3     0.090000        1.0080           0
     24785 WT11     493      MECN     H12      HGA3     0.090000        1.0080           0
     24786 WT11     493      MECN     H13      HGA3     0.090000        1.0080           0
     24787 WT11     493      MECN     C2       CG1N1    0.360000       12.0110           0
     24788 WT11     493      MECN     N3       NG1T1   -0.460000       14.0070           0
     24789 WT11     495      MECN     C1       CG331   -0.170000       12.0110           0
     24790 WT11     495      MECN     H11      HGA3     0.090000        1.0080           0
     24791 WT11     495      MECN     H12      HGA3     0.090000        1.0080           0
     24792 WT11     495      MECN     H13      HGA3     0.090000        1.0080           0
     24793 WT11     495      MECN     C2       CG1N1    0.360000       12.0110           0
     24794 WT11     495      MECN     N3       NG1T1   -0.460000       14.0070           0
     24795 WT11     498      MECN     C1       CG331   -0.170000       12.0110           0
     24796 WT11     498      MECN     H11      HGA3     0.090000        1.0080           0
     24797 WT11     498      MECN     H12      HGA3     0.090000        1.0080           0
     24798 WT11     498      MECN     H13      HGA3     0.090000        1.0080           0
     24799 WT11     498      MECN     C2       CG1N1    0.360000       12.0110           0
     24800 WT11     498      MECN     N3       NG1T1   -0.460000       14.0070           0
     24801 WT11     499      MECN     C1       CG331   -0.170000       12.0110           0
     24802 WT11     499      MECN     H11      HGA3     0.090000        1.0080           0
     24803 WT11     499      MECN     H12      HGA3     0.090000        1.0080           0
     24804 WT11     499      MECN     H13      HGA3     0.090000        1.0080           0
     24805 WT11     499      MECN     C2       CG1N1    0.360000       12.0110           0
     24806 WT11     499      MECN     N3       NG1T1   -0.460000       14.0070           0
     24807 WT11     501      MECN     C1       CG331   -0.170000       12.0110           0
     24808 WT11     501      MECN     H11      HGA3     0.090000        1.0080           0
     24809 WT11     501      MECN     H12      HGA3     0.090000        1.0080           0
     24810 WT11     501      MECN     H13      HGA3     0.090000        1.0080           0
     24811 WT11     501      MECN     C2       CG1N1    0.360000       12.0110           0
     24812 WT11     501      MECN     N3       NG1T1   -0.460000       14.0070           0
     24813 WT11     504      MECN     C1       CG331   -0.170000       12.0110           0
     24814 WT11     504      MECN     H11      HGA3     0.090000        1.0080           0
     24815 WT11     504      MECN     H12      HGA3     0.090000        1.0080           0
     24816 WT11     504      MECN     H13      HGA3     0.090000        1.0080           0
     24817 WT11     504      MECN     C2       CG1N1    0.360000       12.0110           0
     24818 WT11     504      MECN     N3       NG1T1   -0.460000       14.0070           0
     24819 WT11     506      MECN     C1       CG331   -0.170000       12.0110           0
     24820 WT11     506      MECN     H11      HGA3     0.090000        1.0080           0
     24821 WT11     506      MECN     H12      HGA3     0.090000        1.0080           0
     24822 WT11     506      MECN     H13      HGA3     0.090000        1.0080           0
     24823 WT11     506      MECN     C2       CG1N1    0.360000       12.0110           0
     24824 WT11     506      MECN     N3       NG1T1   -0.460000       14.0070           0
     24825 WT11     507      MECN     C1       CG331   -0.170000       12.0110           0
     24826 WT11     507      MECN     H11      HGA3     0.090000        1.0080           0
     24827 WT11     507      MECN     H12      HGA3     0.090000        1.0080           0
     24828 WT11     507      MECN     H13      HGA3     0.090000        1.0080           0
     24829 WT11     507      MECN     C2       CG1N1    0.360000       12.0110           0
     24830 WT11     507      MECN     N3       NG1T1   -0.460000       14.0070           0
     24831 WT11     509      MECN     C1       CG331   -0.170000       12.0110           0
     24832 WT11     509      MECN     H11      HGA3     0.090000        1.0080           0
     24833 WT11     509      MECN     H12      HGA3     0.090000        1.0080           0
     24834 WT11     509      MECN     H13      HGA3     0.090000        1.0080           0
     24835 WT11     509      MECN     C2       CG1N1    0.360000       12.0110           0
     24836 WT11     509      MECN     N3       NG1T1   -0.460000       14.0070           0
     24837 WT11     513      MECN     C1       CG331   -0.170000       12.0110           0
     24838 WT11     513      MECN     H11      HGA3     0.090000        1.0080           0
     24839 WT11     513      MECN     H12      HGA3     0.090000        1.0080           0
     24840 WT11     513      MECN     H13      HGA3     0.090000        1.0080           0
     24841 WT11     513      MECN     C2       CG1N1    0.360000       12.0110           0
     24842 WT11     513      MECN     N3       NG1T1   -0.460000       14.0070           0
     24843 WT11     520      MECN     C1       CG331   -0.170000       12.0110           0
     24844 WT11     520      MECN     H11      HGA3     0.090000        1.0080           0
     24845 WT11     520      MECN     H12      HGA3     0.090000        1.0080           0
     24846 WT11     520      MECN     H13      HGA3     0.090000        1.0080           0
     24847 WT11     520      MECN     C2       CG1N1    0.360000       12.0110           0
     24848 WT11     520      MECN     N3       NG1T1   -0.460000       14.0070           0
     24849 WT11     521      MECN     C1       CG331   -0.170000       12.0110           0
     24850 WT11     521      MECN     H11      HGA3     0.090000        1.0080           0
     24851 WT11     521      MECN     H12      HGA3     0.090000        1.0080           0
     24852 WT11     521      MECN     H13      HGA3     0.090000        1.0080           0
     24853 WT11     521      MECN     C2       CG1N1    0.360000       12.0110           0
     24854 WT11     521      MECN     N3       NG1T1   -0.460000       14.0070           0
     24855 WT11     522      MECN     C1       CG331   -0.170000       12.0110           0
     24856 WT11     522      MECN     H11      HGA3     0.090000        1.0080           0
     24857 WT11     522      MECN     H12      HGA3     0.090000        1.0080           0
     24858 WT11     522      MECN     H13      HGA3     0.090000        1.0080           0
     24859 WT11     522      MECN     C2       CG1N1    0.360000       12.0110           0
     24860 WT11     522      MECN     N3       NG1T1   -0.460000       14.0070           0
     24861 WT11     523      MECN     C1       CG331   -0.170000       12.0110           0
     24862 WT11     523      MECN     H11      HGA3     0.090000        1.0080           0
     24863 WT11     523      MECN     H12      HGA3     0.090000        1.0080           0
     24864 WT11     523      MECN     H13      HGA3     0.090000        1.0080           0
     24865 WT11     523      MECN     C2       CG1N1    0.360000       12.0110           0
     24866 WT11     523      MECN     N3       NG1T1   -0.460000       14.0070           0
     24867 WT11     528      MECN     C1       CG331   -0.170000       12.0110           0
     24868 WT11     528      MECN     H11      HGA3     0.090000        1.0080           0
     24869 WT11     528      MECN     H12      HGA3     0.090000        1.0080           0
     24870 WT11     528      MECN     H13      HGA3     0.090000        1.0080           0
     24871 WT11     528      MECN     C2       CG1N1    0.360000       12.0110           0
     24872 WT11     528      MECN     N3       NG1T1   -0.460000       14.0070           0
     24873 WT11     529      MECN     C1       CG331   -0.170000       12.0110           0
     24874 WT11     529      MECN     H11      HGA3     0.090000        1.0080           0
     24875 WT11     529      MECN     H12      HGA3     0.090000        1.0080           0
     24876 WT11     529      MECN     H13      HGA3     0.090000        1.0080           0
     24877 WT11     529      MECN     C2       CG1N1    0.360000       12.0110           0
     24878 WT11     529      MECN     N3       NG1T1   -0.460000       14.0070           0
     24879 WT11     530      MECN     C1       CG331   -0.170000       12.0110           0
     24880 WT11     530      MECN     H11      HGA3     0.090000        1.0080           0
     24881 WT11     530      MECN     H12      HGA3     0.090000        1.0080           0
     24882 WT11     530      MECN     H13      HGA3     0.090000        1.0080           0
     24883 WT11     530      MECN     C2       CG1N1    0.360000       12.0110           0
     24884 WT11     530      MECN     N3       NG1T1   -0.460000       14.0070           0
     24885 WT11     531      MECN     C1       CG331   -0.170000       12.0110           0
     24886 WT11     531      MECN     H11      HGA3     0.090000        1.0080           0
     24887 WT11     531      MECN     H12      HGA3     0.090000        1.0080           0
     24888 WT11     531      MECN     H13      HGA3     0.090000        1.0080           0
     24889 WT11     531      MECN     C2       CG1N1    0.360000       12.0110           0
     24890 WT11     531      MECN     N3       NG1T1   -0.460000       14.0070           0
     24891 WT11     532      MECN     C1       CG331   -0.170000       12.0110           0
     24892 WT11     532      MECN     H11      HGA3     0.090000        1.0080           0
     24893 WT11     532      MECN     H12      HGA3     0.090000        1.0080           0
     24894 WT11     532      MECN     H13      HGA3     0.090000        1.0080           0
     24895 WT11     532      MECN     C2       CG1N1    0.360000       12.0110           0
     24896 WT11     532      MECN     N3       NG1T1   -0.460000       14.0070           0
     24897 WT11     537      MECN     C1       CG331   -0.170000       12.0110           0
     24898 WT11     537      MECN     H11      HGA3     0.090000        1.0080           0
     24899 WT11     537      MECN     H12      HGA3     0.090000        1.0080           0
     24900 WT11     537      MECN     H13      HGA3     0.090000        1.0080           0
     24901 WT11     537      MECN     C2       CG1N1    0.360000       12.0110           0
     24902 WT11     537      MECN     N3       NG1T1   -0.460000       14.0070           0
     24903 WT11     543      MECN     C1       CG331   -0.170000       12.0110           0
     24904 WT11     543      MECN     H11      HGA3     0.090000        1.0080           0
     24905 WT11     543      MECN     H12      HGA3     0.090000        1.0080           0
     24906 WT11     543      MECN     H13      HGA3     0.090000        1.0080           0
     24907 WT11     543      MECN     C2       CG1N1    0.360000       12.0110           0
     24908 WT11     543      MECN     N3       NG1T1   -0.460000       14.0070           0
     24909 WT11     545      MECN     C1       CG331   -0.170000       12.0110           0
     24910 WT11     545      MECN     H11      HGA3     0.090000        1.0080           0
     24911 WT11     545      MECN     H12      HGA3     0.090000        1.0080           0
     24912 WT11     545      MECN     H13      HGA3     0.090000        1.0080           0
     24913 WT11     545      MECN     C2       CG1N1    0.360000       12.0110           0
     24914 WT11     545      MECN     N3       NG1T1   -0.460000       14.0070           0
     24915 WT11     553      MECN     C1       CG331   -0.170000       12.0110           0
     24916 WT11     553      MECN     H11      HGA3     0.090000        1.0080           0
     24917 WT11     553      MECN     H12      HGA3     0.090000        1.0080           0
     24918 WT11     553      MECN     H13      HGA3     0.090000        1.0080           0
     24919 WT11     553      MECN     C2       CG1N1    0.360000       12.0110           0
     24920 WT11     553      MECN     N3       NG1T1   -0.460000       14.0070           0
     24921 WT11     557      MECN     C1       CG331   -0.170000       12.0110           0
     24922 WT11     557      MECN     H11      HGA3     0.090000        1.0080           0
     24923 WT11     557      MECN     H12      HGA3     0.090000        1.0080           0
     24924 WT11     557      MECN     H13      HGA3     0.090000        1.0080           0
     24925 WT11     557      MECN     C2       CG1N1    0.360000       12.0110           0
     24926 WT11     557      MECN     N3       NG1T1   -0.460000       14.0070           0
     24927 WT11     560      MECN     C1       CG331   -0.170000       12.0110           0
     24928 WT11     560      MECN     H11      HGA3     0.090000        1.0080           0
     24929 WT11     560      MECN     H12      HGA3     0.090000        1.0080           0
     24930 WT11     560      MECN     H13      HGA3     0.090000        1.0080           0
     24931 WT11     560      MECN     C2       CG1N1    0.360000       12.0110           0
     24932 WT11     560      MECN     N3       NG1T1   -0.460000       14.0070           0
     24933 WT11     561      MECN     C1       CG331   -0.170000       12.0110           0
     24934 WT11     561      MECN     H11      HGA3     0.090000        1.0080           0
     24935 WT11     561      MECN     H12      HGA3     0.090000        1.0080           0
     24936 WT11     561      MECN     H13      HGA3     0.090000        1.0080           0
     24937 WT11     561      MECN     C2       CG1N1    0.360000       12.0110           0
     24938 WT11     561      MECN     N3       NG1T1   -0.460000       14.0070           0
     24939 WT11     564      MECN     C1       CG331   -0.170000       12.0110           0
     24940 WT11     564      MECN     H11      HGA3     0.090000        1.0080           0
     24941 WT11     564      MECN     H12      HGA3     0.090000        1.0080           0
     24942 WT11     564      MECN     H13      HGA3     0.090000        1.0080           0
     24943 WT11     564      MECN     C2       CG1N1    0.360000       12.0110           0
     24944 WT11     564      MECN     N3       NG1T1   -0.460000       14.0070           0
     24945 WT11     571      MECN     C1       CG331   -0.170000       12.0110           0
     24946 WT11     571      MECN     H11      HGA3     0.090000        1.0080           0
     24947 WT11     571      MECN     H12      HGA3     0.090000        1.0080           0
     24948 WT11     571      MECN     H13      HGA3     0.090000        1.0080           0
     24949 WT11     571      MECN     C2       CG1N1    0.360000       12.0110           0
     24950 WT11     571      MECN     N3       NG1T1   -0.460000       14.0070           0
     24951 WT11     573      MECN     C1       CG331   -0.170000       12.0110           0
     24952 WT11     573      MECN     H11      HGA3     0.090000        1.0080           0
     24953 WT11     573      MECN     H12      HGA3     0.090000        1.0080           0
     24954 WT11     573      MECN     H13      HGA3     0.090000        1.0080           0
     24955 WT11     573      MECN     C2       CG1N1    0.360000       12.0110           0
     24956 WT11     573      MECN     N3       NG1T1   -0.460000       14.0070           0
     24957 WT11     576      MECN     C1       CG331   -0.170000       12.0110           0
     24958 WT11     576      MECN     H11      HGA3     0.090000        1.0080           0
     24959 WT11     576      MECN     H12      HGA3     0.090000        1.0080           0
     24960 WT11     576      MECN     H13      HGA3     0.090000        1.0080           0
     24961 WT11     576      MECN     C2       CG1N1    0.360000       12.0110           0
     24962 WT11     576      MECN     N3       NG1T1   -0.460000       14.0070           0
     24963 WT11     582      MECN     C1       CG331   -0.170000       12.0110           0
     24964 WT11     582      MECN     H11      HGA3     0.090000        1.0080           0
     24965 WT11     582      MECN     H12      HGA3     0.090000        1.0080           0
     24966 WT11     582      MECN     H13      HGA3     0.090000        1.0080           0
     24967 WT11     582      MECN     C2       CG1N1    0.360000       12.0110           0
     24968 WT11     582      MECN     N3       NG1T1   -0.460000       14.0070           0
     24969 WT11     583      MECN     C1       CG331   -0.170000       12.0110           0
     24970 WT11     583      MECN     H11      HGA3     0.090000        1.0080           0
     24971 WT11     583      MECN     H12      HGA3     0.090000        1.0080           0
     24972 WT11     583      MECN     H13      HGA3     0.090000        1.0080           0
     24973 WT11     583      MECN     C2       CG1N1    0.360000       12.0110           0
     24974 WT11     583      MECN     N3       NG1T1   -0.460000       14.0070           0
     24975 WT11     584      MECN     C1       CG331   -0.170000       12.0110           0
     24976 WT11     584      MECN     H11      HGA3     0.090000        1.0080           0
     24977 WT11     584      MECN     H12      HGA3     0.090000        1.0080           0
     24978 WT11     584      MECN     H13      HGA3     0.090000        1.0080           0
     24979 WT11     584      MECN     C2       CG1N1    0.360000       12.0110           0
     24980 WT11     584      MECN     N3       NG1T1   -0.460000       14.0070           0
     24981 WT11     586      MECN     C1       CG331   -0.170000       12.0110           0
     24982 WT11     586      MECN     H11      HGA3     0.090000        1.0080           0
     24983 WT11     586      MECN     H12      HGA3     0.090000        1.0080           0
     24984 WT11     586      MECN     H13      HGA3     0.090000        1.0080           0
     24985 WT11     586      MECN     C2       CG1N1    0.360000       12.0110           0
     24986 WT11     586      MECN     N3       NG1T1   -0.460000       14.0070           0
     24987 WT11     589      MECN     C1       CG331   -0.170000       12.0110           0
     24988 WT11     589      MECN     H11      HGA3     0.090000        1.0080           0
     24989 WT11     589      MECN     H12      HGA3     0.090000        1.0080           0
     24990 WT11     589      MECN     H13      HGA3     0.090000        1.0080           0
     24991 WT11     589      MECN     C2       CG1N1    0.360000       12.0110           0
     24992 WT11     589      MECN     N3       NG1T1   -0.460000       14.0070           0
     24993 WT11     591      MECN     C1       CG331   -0.170000       12.0110           0
     24994 WT11     591      MECN     H11      HGA3     0.090000        1.0080           0
     24995 WT11     591      MECN     H12      HGA3     0.090000        1.0080           0
     24996 WT11     591      MECN     H13      HGA3     0.090000        1.0080           0
     24997 WT11     591      MECN     C2       CG1N1    0.360000       12.0110           0
     24998 WT11     591      MECN     N3       NG1T1   -0.460000       14.0070           0
     24999 WT11     592      MECN     C1       CG331   -0.170000       12.0110           0
     25000 WT11     592      MECN     H11      HGA3     0.090000        1.0080           0
     25001 WT11     592      MECN     H12      HGA3     0.090000        1.0080           0
     25002 WT11     592      MECN     H13      HGA3     0.090000        1.0080           0
     25003 WT11     592      MECN     C2       CG1N1    0.360000       12.0110           0
     25004 WT11     592      MECN     N3       NG1T1   -0.460000       14.0070           0
     25005 WT11     593      MECN     C1       CG331   -0.170000       12.0110           0
     25006 WT11     593      MECN     H11      HGA3     0.090000        1.0080           0
     25007 WT11     593      MECN     H12      HGA3     0.090000        1.0080           0
     25008 WT11     593      MECN     H13      HGA3     0.090000        1.0080           0
     25009 WT11     593      MECN     C2       CG1N1    0.360000       12.0110           0
     25010 WT11     593      MECN     N3       NG1T1   -0.460000       14.0070           0
     25011 WT11     599      MECN     C1       CG331   -0.170000       12.0110           0
     25012 WT11     599      MECN     H11      HGA3     0.090000        1.0080           0
     25013 WT11     599      MECN     H12      HGA3     0.090000        1.0080           0
     25014 WT11     599      MECN     H13      HGA3     0.090000        1.0080           0
     25015 WT11     599      MECN     C2       CG1N1    0.360000       12.0110           0
     25016 WT11     599      MECN     N3       NG1T1   -0.460000       14.0070           0
     25017 WT11     607      MECN     C1       CG331   -0.170000       12.0110           0
     25018 WT11     607      MECN     H11      HGA3     0.090000        1.0080           0
     25019 WT11     607      MECN     H12      HGA3     0.090000        1.0080           0
     25020 WT11     607      MECN     H13      HGA3     0.090000        1.0080           0
     25021 WT11     607      MECN     C2       CG1N1    0.360000       12.0110           0
     25022 WT11     607      MECN     N3       NG1T1   -0.460000       14.0070           0
     25023 WT11     612      MECN     C1       CG331   -0.170000       12.0110           0
     25024 WT11     612      MECN     H11      HGA3     0.090000        1.0080           0
     25025 WT11     612      MECN     H12      HGA3     0.090000        1.0080           0
     25026 WT11     612      MECN     H13      HGA3     0.090000        1.0080           0
     25027 WT11     612      MECN     C2       CG1N1    0.360000       12.0110           0
     25028 WT11     612      MECN     N3       NG1T1   -0.460000       14.0070           0
     25029 WT11     620      MECN     C1       CG331   -0.170000       12.0110           0
     25030 WT11     620      MECN     H11      HGA3     0.090000        1.0080           0
     25031 WT11     620      MECN     H12      HGA3     0.090000        1.0080           0
     25032 WT11     620      MECN     H13      HGA3     0.090000        1.0080           0
     25033 WT11     620      MECN     C2       CG1N1    0.360000       12.0110           0
     25034 WT11     620      MECN     N3       NG1T1   -0.460000       14.0070           0
     25035 WT11     624      MECN     C1       CG331   -0.170000       12.0110           0
     25036 WT11     624      MECN     H11      HGA3     0.090000        1.0080           0
     25037 WT11     624      MECN     H12      HGA3     0.090000        1.0080           0
     25038 WT11     624      MECN     H13      HGA3     0.090000        1.0080           0
     25039 WT11     624      MECN     C2       CG1N1    0.360000       12.0110           0
     25040 WT11     624      MECN     N3       NG1T1   -0.460000       14.0070           0
     25041 WT11     625      MECN     C1       CG331   -0.170000       12.0110           0
     25042 WT11     625      MECN     H11      HGA3     0.090000        1.0080           0
     25043 WT11     625      MECN     H12      HGA3     0.090000        1.0080           0
     25044 WT11     625      MECN     H13      HGA3     0.090000        1.0080           0
     25045 WT11     625      MECN     C2       CG1N1    0.360000       12.0110           0
     25046 WT11     625      MECN     N3       NG1T1   -0.460000       14.0070           0
     25047 WT11     627      MECN     C1       CG331   -0.170000       12.0110           0
     25048 WT11     627      MECN     H11      HGA3     0.090000        1.0080           0
     25049 WT11     627      MECN     H12      HGA3     0.090000        1.0080           0
     25050 WT11     627      MECN     H13      HGA3     0.090000        1.0080           0
     25051 WT11     627      MECN     C2       CG1N1    0.360000       12.0110           0
     25052 WT11     627      MECN     N3       NG1T1   -0.460000       14.0070           0
     25053 WT11     628      MECN     C1       CG331   -0.170000       12.0110           0
     25054 WT11     628      MECN     H11      HGA3     0.090000        1.0080           0
     25055 WT11     628      MECN     H12      HGA3     0.090000        1.0080           0
     25056 WT11     628      MECN     H13      HGA3     0.090000        1.0080           0
     25057 WT11     628      MECN     C2       CG1N1    0.360000       12.0110           0
     25058 WT11     628      MECN     N3       NG1T1   -0.460000       14.0070           0
     25059 WT11     632      MECN     C1       CG331   -0.170000       12.0110           0
     25060 WT11     632      MECN     H11      HGA3     0.090000        1.0080           0
     25061 WT11     632      MECN     H12      HGA3     0.090000        1.0080           0
     25062 WT11     632      MECN     H13      HGA3     0.090000        1.0080           0
     25063 WT11     632      MECN     C2       CG1N1    0.360000       12.0110           0
     25064 WT11     632      MECN     N3       NG1T1   -0.460000       14.0070           0
     25065 WT11     633      MECN     C1       CG331   -0.170000       12.0110           0
     25066 WT11     633      MECN     H11      HGA3     0.090000        1.0080           0
     25067 WT11     633      MECN     H12      HGA3     0.090000        1.0080           0
     25068 WT11     633      MECN     H13      HGA3     0.090000        1.0080           0
     25069 WT11     633      MECN     C2       CG1N1    0.360000       12.0110           0
     25070 WT11     633      MECN     N3       NG1T1   -0.460000       14.0070           0
     25071 WT11     636      MECN     C1       CG331   -0.170000       12.0110           0
     25072 WT11     636      MECN     H11      HGA3     0.090000        1.0080           0
     25073 WT11     636      MECN     H12      HGA3     0.090000        1.0080           0
     25074 WT11     636      MECN     H13      HGA3     0.090000        1.0080           0
     25075 WT11     636      MECN     C2       CG1N1    0.360000       12.0110           0
     25076 WT11     636      MECN     N3       NG1T1   -0.460000       14.0070           0
     25077 WT11     637      MECN     C1       CG331   -0.170000       12.0110           0
     25078 WT11     637      MECN     H11      HGA3     0.090000        1.0080           0
     25079 WT11     637      MECN     H12      HGA3     0.090000        1.0080           0
     25080 WT11     637      MECN     H13      HGA3     0.090000        1.0080           0
     25081 WT11     637      MECN     C2       CG1N1    0.360000       12.0110           0
     25082 WT11     637      MECN     N3       NG1T1   -0.460000       14.0070           0
     25083 WT11     638      MECN     C1       CG331   -0.170000       12.0110           0
     25084 WT11     638      MECN     H11      HGA3     0.090000        1.0080           0
     25085 WT11     638      MECN     H12      HGA3     0.090000        1.0080           0
     25086 WT11     638      MECN     H13      HGA3     0.090000        1.0080           0
     25087 WT11     638      MECN     C2       CG1N1    0.360000       12.0110           0
     25088 WT11     638      MECN     N3       NG1T1   -0.460000       14.0070           0
     25089 WT11     639      MECN     C1       CG331   -0.170000       12.0110           0
     25090 WT11     639      MECN     H11      HGA3     0.090000        1.0080           0
     25091 WT11     639      MECN     H12      HGA3     0.090000        1.0080           0
     25092 WT11     639      MECN     H13      HGA3     0.090000        1.0080           0
     25093 WT11     639      MECN     C2       CG1N1    0.360000       12.0110           0
     25094 WT11     639      MECN     N3       NG1T1   -0.460000       14.0070           0
     25095 WT11     642      MECN     C1       CG331   -0.170000       12.0110           0
     25096 WT11     642      MECN     H11      HGA3     0.090000        1.0080           0
     25097 WT11     642      MECN     H12      HGA3     0.090000        1.0080           0
     25098 WT11     642      MECN     H13      HGA3     0.090000        1.0080           0
     25099 WT11     642      MECN     C2       CG1N1    0.360000       12.0110           0
     25100 WT11     642      MECN     N3       NG1T1   -0.460000       14.0070           0
     25101 WT11     647      MECN     C1       CG331   -0.170000       12.0110           0
     25102 WT11     647      MECN     H11      HGA3     0.090000        1.0080           0
     25103 WT11     647      MECN     H12      HGA3     0.090000        1.0080           0
     25104 WT11     647      MECN     H13      HGA3     0.090000        1.0080           0
     25105 WT11     647      MECN     C2       CG1N1    0.360000       12.0110           0
     25106 WT11     647      MECN     N3       NG1T1   -0.460000       14.0070           0
     25107 WT11     649      MECN     C1       CG331   -0.170000       12.0110           0
     25108 WT11     649      MECN     H11      HGA3     0.090000        1.0080           0
     25109 WT11     649      MECN     H12      HGA3     0.090000        1.0080           0
     25110 WT11     649      MECN     H13      HGA3     0.090000        1.0080           0
     25111 WT11     649      MECN     C2       CG1N1    0.360000       12.0110           0
     25112 WT11     649      MECN     N3       NG1T1   -0.460000       14.0070           0
     25113 WT11     650      MECN     C1       CG331   -0.170000       12.0110           0
     25114 WT11     650      MECN     H11      HGA3     0.090000        1.0080           0
     25115 WT11     650      MECN     H12      HGA3     0.090000        1.0080           0
     25116 WT11     650      MECN     H13      HGA3     0.090000        1.0080           0
     25117 WT11     650      MECN     C2       CG1N1    0.360000       12.0110           0
     25118 WT11     650      MECN     N3       NG1T1   -0.460000       14.0070           0
     25119 WT11     651      MECN     C1       CG331   -0.170000       12.0110           0
     25120 WT11     651      MECN     H11      HGA3     0.090000        1.0080           0
     25121 WT11     651      MECN     H12      HGA3     0.090000        1.0080           0
     25122 WT11     651      MECN     H13      HGA3     0.090000        1.0080           0
     25123 WT11     651      MECN     C2       CG1N1    0.360000       12.0110           0
     25124 WT11     651      MECN     N3       NG1T1   -0.460000       14.0070           0
     25125 WT11     652      MECN     C1       CG331   -0.170000       12.0110           0
     25126 WT11     652      MECN     H11      HGA3     0.090000        1.0080           0
     25127 WT11     652      MECN     H12      HGA3     0.090000        1.0080           0
     25128 WT11     652      MECN     H13      HGA3     0.090000        1.0080           0
     25129 WT11     652      MECN     C2       CG1N1    0.360000       12.0110           0
     25130 WT11     652      MECN     N3       NG1T1   -0.460000       14.0070           0
     25131 WT11     653      MECN     C1       CG331   -0.170000       12.0110           0
     25132 WT11     653      MECN     H11      HGA3     0.090000        1.0080           0
     25133 WT11     653      MECN     H12      HGA3     0.090000        1.0080           0
     25134 WT11     653      MECN     H13      HGA3     0.090000        1.0080           0
     25135 WT11     653      MECN     C2       CG1N1    0.360000       12.0110           0
     25136 WT11     653      MECN     N3       NG1T1   -0.460000       14.0070           0
     25137 WT11     656      MECN     C1       CG331   -0.170000       12.0110           0
     25138 WT11     656      MECN     H11      HGA3     0.090000        1.0080           0
     25139 WT11     656      MECN     H12      HGA3     0.090000        1.0080           0
     25140 WT11     656      MECN     H13      HGA3     0.090000        1.0080           0
     25141 WT11     656      MECN     C2       CG1N1    0.360000       12.0110           0
     25142 WT11     656      MECN     N3       NG1T1   -0.460000       14.0070           0
     25143 WT11     658      MECN     C1       CG331   -0.170000       12.0110           0
     25144 WT11     658      MECN     H11      HGA3     0.090000        1.0080           0
     25145 WT11     658      MECN     H12      HGA3     0.090000        1.0080           0
     25146 WT11     658      MECN     H13      HGA3     0.090000        1.0080           0
     25147 WT11     658      MECN     C2       CG1N1    0.360000       12.0110           0
     25148 WT11     658      MECN     N3       NG1T1   -0.460000       14.0070           0
     25149 WT11     661      MECN     C1       CG331   -0.170000       12.0110           0
     25150 WT11     661      MECN     H11      HGA3     0.090000        1.0080           0
     25151 WT11     661      MECN     H12      HGA3     0.090000        1.0080           0
     25152 WT11     661      MECN     H13      HGA3     0.090000        1.0080           0
     25153 WT11     661      MECN     C2       CG1N1    0.360000       12.0110           0
     25154 WT11     661      MECN     N3       NG1T1   -0.460000       14.0070           0
     25155 WT11     663      MECN     C1       CG331   -0.170000       12.0110           0
     25156 WT11     663      MECN     H11      HGA3     0.090000        1.0080           0
     25157 WT11     663      MECN     H12      HGA3     0.090000        1.0080           0
     25158 WT11     663      MECN     H13      HGA3     0.090000        1.0080           0
     25159 WT11     663      MECN     C2       CG1N1    0.360000       12.0110           0
     25160 WT11     663      MECN     N3       NG1T1   -0.460000       14.0070           0
     25161 WT11     665      MECN     C1       CG331   -0.170000       12.0110           0
     25162 WT11     665      MECN     H11      HGA3     0.090000        1.0080           0
     25163 WT11     665      MECN     H12      HGA3     0.090000        1.0080           0
     25164 WT11     665      MECN     H13      HGA3     0.090000        1.0080           0
     25165 WT11     665      MECN     C2       CG1N1    0.360000       12.0110           0
     25166 WT11     665      MECN     N3       NG1T1   -0.460000       14.0070           0
     25167 WT11     667      MECN     C1       CG331   -0.170000       12.0110           0
     25168 WT11     667      MECN     H11      HGA3     0.090000        1.0080           0
     25169 WT11     667      MECN     H12      HGA3     0.090000        1.0080           0
     25170 WT11     667      MECN     H13      HGA3     0.090000        1.0080           0
     25171 WT11     667      MECN     C2       CG1N1    0.360000       12.0110           0
     25172 WT11     667      MECN     N3       NG1T1   -0.460000       14.0070           0
     25173 WT11     670      MECN     C1       CG331   -0.170000       12.0110           0
     25174 WT11     670      MECN     H11      HGA3     0.090000        1.0080           0
     25175 WT11     670      MECN     H12      HGA3     0.090000        1.0080           0
     25176 WT11     670      MECN     H13      HGA3     0.090000        1.0080           0
     25177 WT11     670      MECN     C2       CG1N1    0.360000       12.0110           0
     25178 WT11     670      MECN     N3       NG1T1   -0.460000       14.0070           0
     25179 WT11     672      MECN     C1       CG331   -0.170000       12.0110           0
     25180 WT11     672      MECN     H11      HGA3     0.090000        1.0080           0
     25181 WT11     672      MECN     H12      HGA3     0.090000        1.0080           0
     25182 WT11     672      MECN     H13      HGA3     0.090000        1.0080           0
     25183 WT11     672      MECN     C2       CG1N1    0.360000       12.0110           0
     25184 WT11     672      MECN     N3       NG1T1   -0.460000       14.0070           0
     25185 WT11     673      MECN     C1       CG331   -0.170000       12.0110           0
     25186 WT11     673      MECN     H11      HGA3     0.090000        1.0080           0
     25187 WT11     673      MECN     H12      HGA3     0.090000        1.0080           0
     25188 WT11     673      MECN     H13      HGA3     0.090000        1.0080           0
     25189 WT11     673      MECN     C2       CG1N1    0.360000       12.0110           0
     25190 WT11     673      MECN     N3       NG1T1   -0.460000       14.0070           0
     25191 WT11     679      MECN     C1       CG331   -0.170000       12.0110           0
     25192 WT11     679      MECN     H11      HGA3     0.090000        1.0080           0
     25193 WT11     679      MECN     H12      HGA3     0.090000        1.0080           0
     25194 WT11     679      MECN     H13      HGA3     0.090000        1.0080           0
     25195 WT11     679      MECN     C2       CG1N1    0.360000       12.0110           0
     25196 WT11     679      MECN     N3       NG1T1   -0.460000       14.0070           0
     25197 WT11     683      MECN     C1       CG331   -0.170000       12.0110           0
     25198 WT11     683      MECN     H11      HGA3     0.090000        1.0080           0
     25199 WT11     683      MECN     H12      HGA3     0.090000        1.0080           0
     25200 WT11     683      MECN     H13      HGA3     0.090000        1.0080           0
     25201 WT11     683      MECN     C2       CG1N1    0.360000       12.0110           0
     25202 WT11     683      MECN     N3       NG1T1   -0.460000       14.0070           0
     25203 WT11     684      MECN     C1       CG331   -0.170000       12.0110           0
     25204 WT11     684      MECN     H11      HGA3     0.090000        1.0080           0
     25205 WT11     684      MECN     H12      HGA3     0.090000        1.0080           0
     25206 WT11     684      MECN     H13      HGA3     0.090000        1.0080           0
     25207 WT11     684      MECN     C2       CG1N1    0.360000       12.0110           0
     25208 WT11     684      MECN     N3       NG1T1   -0.460000       14.0070           0
     25209 WT11     686      MECN     C1       CG331   -0.170000       12.0110           0
     25210 WT11     686      MECN     H11      HGA3     0.090000        1.0080           0
     25211 WT11     686      MECN     H12      HGA3     0.090000        1.0080           0
     25212 WT11     686      MECN     H13      HGA3     0.090000        1.0080           0
     25213 WT11     686      MECN     C2       CG1N1    0.360000       12.0110           0
     25214 WT11     686      MECN     N3       NG1T1   -0.460000       14.0070           0
     25215 WT11     688      MECN     C1       CG331   -0.170000       12.0110           0
     25216 WT11     688      MECN     H11      HGA3     0.090000        1.0080           0
     25217 WT11     688      MECN     H12      HGA3     0.090000        1.0080           0
     25218 WT11     688      MECN     H13      HGA3     0.090000        1.0080           0
     25219 WT11     688      MECN     C2       CG1N1    0.360000       12.0110           0
     25220 WT11     688      MECN     N3       NG1T1   -0.460000       14.0070           0
     25221 WT11     689      MECN     C1       CG331   -0.170000       12.0110           0
     25222 WT11     689      MECN     H11      HGA3     0.090000        1.0080           0
     25223 WT11     689      MECN     H12      HGA3     0.090000        1.0080           0
     25224 WT11     689      MECN     H13      HGA3     0.090000        1.0080           0
     25225 WT11     689      MECN     C2       CG1N1    0.360000       12.0110           0
     25226 WT11     689      MECN     N3       NG1T1   -0.460000       14.0070           0
     25227 WT11     692      MECN     C1       CG331   -0.170000       12.0110           0
     25228 WT11     692      MECN     H11      HGA3     0.090000        1.0080           0
     25229 WT11     692      MECN     H12      HGA3     0.090000        1.0080           0
     25230 WT11     692      MECN     H13      HGA3     0.090000        1.0080           0
     25231 WT11     692      MECN     C2       CG1N1    0.360000       12.0110           0
     25232 WT11     692      MECN     N3       NG1T1   -0.460000       14.0070           0
     25233 WT11     694      MECN     C1       CG331   -0.170000       12.0110           0
     25234 WT11     694      MECN     H11      HGA3     0.090000        1.0080           0
     25235 WT11     694      MECN     H12      HGA3     0.090000        1.0080           0
     25236 WT11     694      MECN     H13      HGA3     0.090000        1.0080           0
     25237 WT11     694      MECN     C2       CG1N1    0.360000       12.0110           0
     25238 WT11     694      MECN     N3       NG1T1   -0.460000       14.0070           0
     25239 WT11     696      MECN     C1       CG331   -0.170000       12.0110           0
     25240 WT11     696      MECN     H11      HGA3     0.090000        1.0080           0
     25241 WT11     696      MECN     H12      HGA3     0.090000        1.0080           0
     25242 WT11     696      MECN     H13      HGA3     0.090000        1.0080           0
     25243 WT11     696      MECN     C2       CG1N1    0.360000       12.0110           0
     25244 WT11     696      MECN     N3       NG1T1   -0.460000       14.0070           0
     25245 WT11     699      MECN     C1       CG331   -0.170000       12.0110           0
     25246 WT11     699      MECN     H11      HGA3     0.090000        1.0080           0
     25247 WT11     699      MECN     H12      HGA3     0.090000        1.0080           0
     25248 WT11     699      MECN     H13      HGA3     0.090000        1.0080           0
     25249 WT11     699      MECN     C2       CG1N1    0.360000       12.0110           0
     25250 WT11     699      MECN     N3       NG1T1   -0.460000       14.0070           0
     25251 WT11     701      MECN     C1       CG331   -0.170000       12.0110           0
     25252 WT11     701      MECN     H11      HGA3     0.090000        1.0080           0
     25253 WT11     701      MECN     H12      HGA3     0.090000        1.0080           0
     25254 WT11     701      MECN     H13      HGA3     0.090000        1.0080           0
     25255 WT11     701      MECN     C2       CG1N1    0.360000       12.0110           0
     25256 WT11     701      MECN     N3       NG1T1   -0.460000       14.0070           0
     25257 WT11     704      MECN     C1       CG331   -0.170000       12.0110           0
     25258 WT11     704      MECN     H11      HGA3     0.090000        1.0080           0
     25259 WT11     704      MECN     H12      HGA3     0.090000        1.0080           0
     25260 WT11     704      MECN     H13      HGA3     0.090000        1.0080           0
     25261 WT11     704      MECN     C2       CG1N1    0.360000       12.0110           0
     25262 WT11     704      MECN     N3       NG1T1   -0.460000       14.0070           0
     25263 WT11     705      MECN     C1       CG331   -0.170000       12.0110           0
     25264 WT11     705      MECN     H11      HGA3     0.090000        1.0080           0
     25265 WT11     705      MECN     H12      HGA3     0.090000        1.0080           0
     25266 WT11     705      MECN     H13      HGA3     0.090000        1.0080           0
     25267 WT11     705      MECN     C2       CG1N1    0.360000       12.0110           0
     25268 WT11     705      MECN     N3       NG1T1   -0.460000       14.0070           0
     25269 WT11     706      MECN     C1       CG331   -0.170000       12.0110           0
     25270 WT11     706      MECN     H11      HGA3     0.090000        1.0080           0
     25271 WT11     706      MECN     H12      HGA3     0.090000        1.0080           0
     25272 WT11     706      MECN     H13      HGA3     0.090000        1.0080           0
     25273 WT11     706      MECN     C2       CG1N1    0.360000       12.0110           0
     25274 WT11     706      MECN     N3       NG1T1   -0.460000       14.0070           0
     25275 WT11     708      MECN     C1       CG331   -0.170000       12.0110           0
     25276 WT11     708      MECN     H11      HGA3     0.090000        1.0080           0
     25277 WT11     708      MECN     H12      HGA3     0.090000        1.0080           0
     25278 WT11     708      MECN     H13      HGA3     0.090000        1.0080           0
     25279 WT11     708      MECN     C2       CG1N1    0.360000       12.0110           0
     25280 WT11     708      MECN     N3       NG1T1   -0.460000       14.0070           0
     25281 WT11     712      MECN     C1       CG331   -0.170000       12.0110           0
     25282 WT11     712      MECN     H11      HGA3     0.090000        1.0080           0
     25283 WT11     712      MECN     H12      HGA3     0.090000        1.0080           0
     25284 WT11     712      MECN     H13      HGA3     0.090000        1.0080           0
     25285 WT11     712      MECN     C2       CG1N1    0.360000       12.0110           0
     25286 WT11     712      MECN     N3       NG1T1   -0.460000       14.0070           0
     25287 WT11     715      MECN     C1       CG331   -0.170000       12.0110           0
     25288 WT11     715      MECN     H11      HGA3     0.090000        1.0080           0
     25289 WT11     715      MECN     H12      HGA3     0.090000        1.0080           0
     25290 WT11     715      MECN     H13      HGA3     0.090000        1.0080           0
     25291 WT11     715      MECN     C2       CG1N1    0.360000       12.0110           0
     25292 WT11     715      MECN     N3       NG1T1   -0.460000       14.0070           0
     25293 WT11     717      MECN     C1       CG331   -0.170000       12.0110           0
     25294 WT11     717      MECN     H11      HGA3     0.090000        1.0080           0
     25295 WT11     717      MECN     H12      HGA3     0.090000        1.0080           0
     25296 WT11     717      MECN     H13      HGA3     0.090000        1.0080           0
     25297 WT11     717      MECN     C2       CG1N1    0.360000       12.0110           0
     25298 WT11     717      MECN     N3       NG1T1   -0.460000       14.0070           0
     25299 WT11     721      MECN     C1       CG331   -0.170000       12.0110           0
     25300 WT11     721      MECN     H11      HGA3     0.090000        1.0080           0
     25301 WT11     721      MECN     H12      HGA3     0.090000        1.0080           0
     25302 WT11     721      MECN     H13      HGA3     0.090000        1.0080           0
     25303 WT11     721      MECN     C2       CG1N1    0.360000       12.0110           0
     25304 WT11     721      MECN     N3       NG1T1   -0.460000       14.0070           0
     25305 WT11     722      MECN     C1       CG331   -0.170000       12.0110           0
     25306 WT11     722      MECN     H11      HGA3     0.090000        1.0080           0
     25307 WT11     722      MECN     H12      HGA3     0.090000        1.0080           0
     25308 WT11     722      MECN     H13      HGA3     0.090000        1.0080           0
     25309 WT11     722      MECN     C2       CG1N1    0.360000       12.0110           0
     25310 WT11     722      MECN     N3       NG1T1   -0.460000       14.0070           0
     25311 WT11     723      MECN     C1       CG331   -0.170000       12.0110           0
     25312 WT11     723      MECN     H11      HGA3     0.090000        1.0080           0
     25313 WT11     723      MECN     H12      HGA3     0.090000        1.0080           0
     25314 WT11     723      MECN     H13      HGA3     0.090000        1.0080           0
     25315 WT11     723      MECN     C2       CG1N1    0.360000       12.0110           0
     25316 WT11     723      MECN     N3       NG1T1   -0.460000       14.0070           0
     25317 WT11     724      MECN     C1       CG331   -0.170000       12.0110           0
     25318 WT11     724      MECN     H11      HGA3     0.090000        1.0080           0
     25319 WT11     724      MECN     H12      HGA3     0.090000        1.0080           0
     25320 WT11     724      MECN     H13      HGA3     0.090000        1.0080           0
     25321 WT11     724      MECN     C2       CG1N1    0.360000       12.0110           0
     25322 WT11     724      MECN     N3       NG1T1   -0.460000       14.0070           0
     25323 WT11     728      MECN     C1       CG331   -0.170000       12.0110           0
     25324 WT11     728      MECN     H11      HGA3     0.090000        1.0080           0
     25325 WT11     728      MECN     H12      HGA3     0.090000        1.0080           0
     25326 WT11     728      MECN     H13      HGA3     0.090000        1.0080           0
     25327 WT11     728      MECN     C2       CG1N1    0.360000       12.0110           0
     25328 WT11     728      MECN     N3       NG1T1   -0.460000       14.0070           0
     25329 WT11     729      MECN     C1       CG331   -0.170000       12.0110           0
     25330 WT11     729      MECN     H11      HGA3     0.090000        1.0080           0
     25331 WT11     729      MECN     H12      HGA3     0.090000        1.0080           0
     25332 WT11     729      MECN     H13      HGA3     0.090000        1.0080           0
     25333 WT11     729      MECN     C2       CG1N1    0.360000       12.0110           0
     25334 WT11     729      MECN     N3       NG1T1   -0.460000       14.0070           0
     25335 WT11     733      MECN     C1       CG331   -0.170000       12.0110           0
     25336 WT11     733      MECN     H11      HGA3     0.090000        1.0080           0
     25337 WT11     733      MECN     H12      HGA3     0.090000        1.0080           0
     25338 WT11     733      MECN     H13      HGA3     0.090000        1.0080           0
     25339 WT11     733      MECN     C2       CG1N1    0.360000       12.0110           0
     25340 WT11     733      MECN     N3       NG1T1   -0.460000       14.0070           0
     25341 WT11     734      MECN     C1       CG331   -0.170000       12.0110           0
     25342 WT11     734      MECN     H11      HGA3     0.090000        1.0080           0
     25343 WT11     734      MECN     H12      HGA3     0.090000        1.0080           0
     25344 WT11     734      MECN     H13      HGA3     0.090000        1.0080           0
     25345 WT11     734      MECN     C2       CG1N1    0.360000       12.0110           0
     25346 WT11     734      MECN     N3       NG1T1   -0.460000       14.0070           0
     25347 WT11     736      MECN     C1       CG331   -0.170000       12.0110           0
     25348 WT11     736      MECN     H11      HGA3     0.090000        1.0080           0
     25349 WT11     736      MECN     H12      HGA3     0.090000        1.0080           0
     25350 WT11     736      MECN     H13      HGA3     0.090000        1.0080           0
     25351 WT11     736      MECN     C2       CG1N1    0.360000       12.0110           0
     25352 WT11     736      MECN     N3       NG1T1   -0.460000       14.0070           0
     25353 WT11     737      MECN     C1       CG331   -0.170000       12.0110           0
     25354 WT11     737      MECN     H11      HGA3     0.090000        1.0080           0
     25355 WT11     737      MECN     H12      HGA3     0.090000        1.0080           0
     25356 WT11     737      MECN     H13      HGA3     0.090000        1.0080           0
     25357 WT11     737      MECN     C2       CG1N1    0.360000       12.0110           0
     25358 WT11     737      MECN     N3       NG1T1   -0.460000       14.0070           0
     25359 WT11     741      MECN     C1       CG331   -0.170000       12.0110           0
     25360 WT11     741      MECN     H11      HGA3     0.090000        1.0080           0
     25361 WT11     741      MECN     H12      HGA3     0.090000        1.0080           0
     25362 WT11     741      MECN     H13      HGA3     0.090000        1.0080           0
     25363 WT11     741      MECN     C2       CG1N1    0.360000       12.0110           0
     25364 WT11     741      MECN     N3       NG1T1   -0.460000       14.0070           0
     25365 WT11     744      MECN     C1       CG331   -0.170000       12.0110           0
     25366 WT11     744      MECN     H11      HGA3     0.090000        1.0080           0
     25367 WT11     744      MECN     H12      HGA3     0.090000        1.0080           0
     25368 WT11     744      MECN     H13      HGA3     0.090000        1.0080           0
     25369 WT11     744      MECN     C2       CG1N1    0.360000       12.0110           0
     25370 WT11     744      MECN     N3       NG1T1   -0.460000       14.0070           0
     25371 WT11     747      MECN     C1       CG331   -0.170000       12.0110           0
     25372 WT11     747      MECN     H11      HGA3     0.090000        1.0080           0
     25373 WT11     747      MECN     H12      HGA3     0.090000        1.0080           0
     25374 WT11     747      MECN     H13      HGA3     0.090000        1.0080           0
     25375 WT11     747      MECN     C2       CG1N1    0.360000       12.0110           0
     25376 WT11     747      MECN     N3       NG1T1   -0.460000       14.0070           0
     25377 WT11     748      MECN     C1       CG331   -0.170000       12.0110           0
     25378 WT11     748      MECN     H11      HGA3     0.090000        1.0080           0
     25379 WT11     748      MECN     H12      HGA3     0.090000        1.0080           0
     25380 WT11     748      MECN     H13      HGA3     0.090000        1.0080           0
     25381 WT11     748      MECN     C2       CG1N1    0.360000       12.0110           0
     25382 WT11     748      MECN     N3       NG1T1   -0.460000       14.0070           0
     25383 WT11     750      MECN     C1       CG331   -0.170000       12.0110           0
     25384 WT11     750      MECN     H11      HGA3     0.090000        1.0080           0
     25385 WT11     750      MECN     H12      HGA3     0.090000        1.0080           0
     25386 WT11     750      MECN     H13      HGA3     0.090000        1.0080           0
     25387 WT11     750      MECN     C2       CG1N1    0.360000       12.0110           0
     25388 WT11     750      MECN     N3       NG1T1   -0.460000       14.0070           0
     25389 WT11     752      MECN     C1       CG331   -0.170000       12.0110           0
     25390 WT11     752      MECN     H11      HGA3     0.090000        1.0080           0
     25391 WT11     752      MECN     H12      HGA3     0.090000        1.0080           0
     25392 WT11     752      MECN     H13      HGA3     0.090000        1.0080           0
     25393 WT11     752      MECN     C2       CG1N1    0.360000       12.0110           0
     25394 WT11     752      MECN     N3       NG1T1   -0.460000       14.0070           0
     25395 WT11     754      MECN     C1       CG331   -0.170000       12.0110           0
     25396 WT11     754      MECN     H11      HGA3     0.090000        1.0080           0
     25397 WT11     754      MECN     H12      HGA3     0.090000        1.0080           0
     25398 WT11     754      MECN     H13      HGA3     0.090000        1.0080           0
     25399 WT11     754      MECN     C2       CG1N1    0.360000       12.0110           0
     25400 WT11     754      MECN     N3       NG1T1   -0.460000       14.0070           0
     25401 WT11     755      MECN     C1       CG331   -0.170000       12.0110           0
     25402 WT11     755      MECN     H11      HGA3     0.090000        1.0080           0
     25403 WT11     755      MECN     H12      HGA3     0.090000        1.0080           0
     25404 WT11     755      MECN     H13      HGA3     0.090000        1.0080           0
     25405 WT11     755      MECN     C2       CG1N1    0.360000       12.0110           0
     25406 WT11     755      MECN     N3       NG1T1   -0.460000       14.0070           0
     25407 WT11     756      MECN     C1       CG331   -0.170000       12.0110           0
     25408 WT11     756      MECN     H11      HGA3     0.090000        1.0080           0
     25409 WT11     756      MECN     H12      HGA3     0.090000        1.0080           0
     25410 WT11     756      MECN     H13      HGA3     0.090000        1.0080           0
     25411 WT11     756      MECN     C2       CG1N1    0.360000       12.0110           0
     25412 WT11     756      MECN     N3       NG1T1   -0.460000       14.0070           0
     25413 WT11     757      MECN     C1       CG331   -0.170000       12.0110           0
     25414 WT11     757      MECN     H11      HGA3     0.090000        1.0080           0
     25415 WT11     757      MECN     H12      HGA3     0.090000        1.0080           0
     25416 WT11     757      MECN     H13      HGA3     0.090000        1.0080           0
     25417 WT11     757      MECN     C2       CG1N1    0.360000       12.0110           0
     25418 WT11     757      MECN     N3       NG1T1   -0.460000       14.0070           0
     25419 WT11     758      MECN     C1       CG331   -0.170000       12.0110           0
     25420 WT11     758      MECN     H11      HGA3     0.090000        1.0080           0
     25421 WT11     758      MECN     H12      HGA3     0.090000        1.0080           0
     25422 WT11     758      MECN     H13      HGA3     0.090000        1.0080           0
     25423 WT11     758      MECN     C2       CG1N1    0.360000       12.0110           0
     25424 WT11     758      MECN     N3       NG1T1   -0.460000       14.0070           0
     25425 WT11     761      MECN     C1       CG331   -0.170000       12.0110           0
     25426 WT11     761      MECN     H11      HGA3     0.090000        1.0080           0
     25427 WT11     761      MECN     H12      HGA3     0.090000        1.0080           0
     25428 WT11     761      MECN     H13      HGA3     0.090000        1.0080           0
     25429 WT11     761      MECN     C2       CG1N1    0.360000       12.0110           0
     25430 WT11     761      MECN     N3       NG1T1   -0.460000       14.0070           0
     25431 WT11     762      MECN     C1       CG331   -0.170000       12.0110           0
     25432 WT11     762      MECN     H11      HGA3     0.090000        1.0080           0
     25433 WT11     762      MECN     H12      HGA3     0.090000        1.0080           0
     25434 WT11     762      MECN     H13      HGA3     0.090000        1.0080           0
     25435 WT11     762      MECN     C2       CG1N1    0.360000       12.0110           0
     25436 WT11     762      MECN     N3       NG1T1   -0.460000       14.0070           0
     25437 WT11     765      MECN     C1       CG331   -0.170000       12.0110           0
     25438 WT11     765      MECN     H11      HGA3     0.090000        1.0080           0
     25439 WT11     765      MECN     H12      HGA3     0.090000        1.0080           0
     25440 WT11     765      MECN     H13      HGA3     0.090000        1.0080           0
     25441 WT11     765      MECN     C2       CG1N1    0.360000       12.0110           0
     25442 WT11     765      MECN     N3       NG1T1   -0.460000       14.0070           0
     25443 WT11     768      MECN     C1       CG331   -0.170000       12.0110           0
     25444 WT11     768      MECN     H11      HGA3     0.090000        1.0080           0
     25445 WT11     768      MECN     H12      HGA3     0.090000        1.0080           0
     25446 WT11     768      MECN     H13      HGA3     0.090000        1.0080           0
     25447 WT11     768      MECN     C2       CG1N1    0.360000       12.0110           0
     25448 WT11     768      MECN     N3       NG1T1   -0.460000       14.0070           0
     25449 WT11     770      MECN     C1       CG331   -0.170000       12.0110           0
     25450 WT11     770      MECN     H11      HGA3     0.090000        1.0080           0
     25451 WT11     770      MECN     H12      HGA3     0.090000        1.0080           0
     25452 WT11     770      MECN     H13      HGA3     0.090000        1.0080           0
     25453 WT11     770      MECN     C2       CG1N1    0.360000       12.0110           0
     25454 WT11     770      MECN     N3       NG1T1   -0.460000       14.0070           0
     25455 WT11     772      MECN     C1       CG331   -0.170000       12.0110           0
     25456 WT11     772      MECN     H11      HGA3     0.090000        1.0080           0
     25457 WT11     772      MECN     H12      HGA3     0.090000        1.0080           0
     25458 WT11     772      MECN     H13      HGA3     0.090000        1.0080           0
     25459 WT11     772      MECN     C2       CG1N1    0.360000       12.0110           0
     25460 WT11     772      MECN     N3       NG1T1   -0.460000       14.0070           0
     25461 WT11     774      MECN     C1       CG331   -0.170000       12.0110           0
     25462 WT11     774      MECN     H11      HGA3     0.090000        1.0080           0
     25463 WT11     774      MECN     H12      HGA3     0.090000        1.0080           0
     25464 WT11     774      MECN     H13      HGA3     0.090000        1.0080           0
     25465 WT11     774      MECN     C2       CG1N1    0.360000       12.0110           0
     25466 WT11     774      MECN     N3       NG1T1   -0.460000       14.0070           0
     25467 WT11     777      MECN     C1       CG331   -0.170000       12.0110           0
     25468 WT11     777      MECN     H11      HGA3     0.090000        1.0080           0
     25469 WT11     777      MECN     H12      HGA3     0.090000        1.0080           0
     25470 WT11     777      MECN     H13      HGA3     0.090000        1.0080           0
     25471 WT11     777      MECN     C2       CG1N1    0.360000       12.0110           0
     25472 WT11     777      MECN     N3       NG1T1   -0.460000       14.0070           0
     25473 WT11     778      MECN     C1       CG331   -0.170000       12.0110           0
     25474 WT11     778      MECN     H11      HGA3     0.090000        1.0080           0
     25475 WT11     778      MECN     H12      HGA3     0.090000        1.0080           0
     25476 WT11     778      MECN     H13      HGA3     0.090000        1.0080           0
     25477 WT11     778      MECN     C2       CG1N1    0.360000       12.0110           0
     25478 WT11     778      MECN     N3       NG1T1   -0.460000       14.0070           0
     25479 WT11     780      MECN     C1       CG331   -0.170000       12.0110           0
     25480 WT11     780      MECN     H11      HGA3     0.090000        1.0080           0
     25481 WT11     780      MECN     H12      HGA3     0.090000        1.0080           0
     25482 WT11     780      MECN     H13      HGA3     0.090000        1.0080           0
     25483 WT11     780      MECN     C2       CG1N1    0.360000       12.0110           0
     25484 WT11     780      MECN     N3       NG1T1   -0.460000       14.0070           0
     25485 WT11     781      MECN     C1       CG331   -0.170000       12.0110           0
     25486 WT11     781      MECN     H11      HGA3     0.090000        1.0080           0
     25487 WT11     781      MECN     H12      HGA3     0.090000        1.0080           0
     25488 WT11     781      MECN     H13      HGA3     0.090000        1.0080           0
     25489 WT11     781      MECN     C2       CG1N1    0.360000       12.0110           0
     25490 WT11     781      MECN     N3       NG1T1   -0.460000       14.0070           0
     25491 WT11     783      MECN     C1       CG331   -0.170000       12.0110           0
     25492 WT11     783      MECN     H11      HGA3     0.090000        1.0080           0
     25493 WT11     783      MECN     H12      HGA3     0.090000        1.0080           0
     25494 WT11     783      MECN     H13      HGA3     0.090000        1.0080           0
     25495 WT11     783      MECN     C2       CG1N1    0.360000       12.0110           0
     25496 WT11     783      MECN     N3       NG1T1   -0.460000       14.0070           0
     25497 WT11     787      MECN     C1       CG331   -0.170000       12.0110           0
     25498 WT11     787      MECN     H11      HGA3     0.090000        1.0080           0
     25499 WT11     787      MECN     H12      HGA3     0.090000        1.0080           0
     25500 WT11     787      MECN     H13      HGA3     0.090000        1.0080           0
     25501 WT11     787      MECN     C2       CG1N1    0.360000       12.0110           0
     25502 WT11     787      MECN     N3       NG1T1   -0.460000       14.0070           0
     25503 WT11     789      MECN     C1       CG331   -0.170000       12.0110           0
     25504 WT11     789      MECN     H11      HGA3     0.090000        1.0080           0
     25505 WT11     789      MECN     H12      HGA3     0.090000        1.0080           0
     25506 WT11     789      MECN     H13      HGA3     0.090000        1.0080           0
     25507 WT11     789      MECN     C2       CG1N1    0.360000       12.0110           0
     25508 WT11     789      MECN     N3       NG1T1   -0.460000       14.0070           0
     25509 WT11     791      MECN     C1       CG331   -0.170000       12.0110           0
     25510 WT11     791      MECN     H11      HGA3     0.090000        1.0080           0
     25511 WT11     791      MECN     H12      HGA3     0.090000        1.0080           0
     25512 WT11     791      MECN     H13      HGA3     0.090000        1.0080           0
     25513 WT11     791      MECN     C2       CG1N1    0.360000       12.0110           0
     25514 WT11     791      MECN     N3       NG1T1   -0.460000       14.0070           0
     25515 WT11     795      MECN     C1       CG331   -0.170000       12.0110           0
     25516 WT11     795      MECN     H11      HGA3     0.090000        1.0080           0
     25517 WT11     795      MECN     H12      HGA3     0.090000        1.0080           0
     25518 WT11     795      MECN     H13      HGA3     0.090000        1.0080           0
     25519 WT11     795      MECN     C2       CG1N1    0.360000       12.0110           0
     25520 WT11     795      MECN     N3       NG1T1   -0.460000       14.0070           0
     25521 WT11     797      MECN     C1       CG331   -0.170000       12.0110           0
     25522 WT11     797      MECN     H11      HGA3     0.090000        1.0080           0
     25523 WT11     797      MECN     H12      HGA3     0.090000        1.0080           0
     25524 WT11     797      MECN     H13      HGA3     0.090000        1.0080           0
     25525 WT11     797      MECN     C2       CG1N1    0.360000       12.0110           0
     25526 WT11     797      MECN     N3       NG1T1   -0.460000       14.0070           0
     25527 WT11     799      MECN     C1       CG331   -0.170000       12.0110           0
     25528 WT11     799      MECN     H11      HGA3     0.090000        1.0080           0
     25529 WT11     799      MECN     H12      HGA3     0.090000        1.0080           0
     25530 WT11     799      MECN     H13      HGA3     0.090000        1.0080           0
     25531 WT11     799      MECN     C2       CG1N1    0.360000       12.0110           0
     25532 WT11     799      MECN     N3       NG1T1   -0.460000       14.0070           0
     25533 WT11     800      MECN     C1       CG331   -0.170000       12.0110           0
     25534 WT11     800      MECN     H11      HGA3     0.090000        1.0080           0
     25535 WT11     800      MECN     H12      HGA3     0.090000        1.0080           0
     25536 WT11     800      MECN     H13      HGA3     0.090000        1.0080           0
     25537 WT11     800      MECN     C2       CG1N1    0.360000       12.0110           0
     25538 WT11     800      MECN     N3       NG1T1   -0.460000       14.0070           0
     25539 WT11     801      MECN     C1       CG331   -0.170000       12.0110           0
     25540 WT11     801      MECN     H11      HGA3     0.090000        1.0080           0
     25541 WT11     801      MECN     H12      HGA3     0.090000        1.0080           0
     25542 WT11     801      MECN     H13      HGA3     0.090000        1.0080           0
     25543 WT11     801      MECN     C2       CG1N1    0.360000       12.0110           0
     25544 WT11     801      MECN     N3       NG1T1   -0.460000       14.0070           0
     25545 WT11     803      MECN     C1       CG331   -0.170000       12.0110           0
     25546 WT11     803      MECN     H11      HGA3     0.090000        1.0080           0
     25547 WT11     803      MECN     H12      HGA3     0.090000        1.0080           0
     25548 WT11     803      MECN     H13      HGA3     0.090000        1.0080           0
     25549 WT11     803      MECN     C2       CG1N1    0.360000       12.0110           0
     25550 WT11     803      MECN     N3       NG1T1   -0.460000       14.0070           0
     25551 WT11     805      MECN     C1       CG331   -0.170000       12.0110           0
     25552 WT11     805      MECN     H11      HGA3     0.090000        1.0080           0
     25553 WT11     805      MECN     H12      HGA3     0.090000        1.0080           0
     25554 WT11     805      MECN     H13      HGA3     0.090000        1.0080           0
     25555 WT11     805      MECN     C2       CG1N1    0.360000       12.0110           0
     25556 WT11     805      MECN     N3       NG1T1   -0.460000       14.0070           0
     25557 WT11     807      MECN     C1       CG331   -0.170000       12.0110           0
     25558 WT11     807      MECN     H11      HGA3     0.090000        1.0080           0
     25559 WT11     807      MECN     H12      HGA3     0.090000        1.0080           0
     25560 WT11     807      MECN     H13      HGA3     0.090000        1.0080           0
     25561 WT11     807      MECN     C2       CG1N1    0.360000       12.0110           0
     25562 WT11     807      MECN     N3       NG1T1   -0.460000       14.0070           0
     25563 WT11     810      MECN     C1       CG331   -0.170000       12.0110           0
     25564 WT11     810      MECN     H11      HGA3     0.090000        1.0080           0
     25565 WT11     810      MECN     H12      HGA3     0.090000        1.0080           0
     25566 WT11     810      MECN     H13      HGA3     0.090000        1.0080           0
     25567 WT11     810      MECN     C2       CG1N1    0.360000       12.0110           0
     25568 WT11     810      MECN     N3       NG1T1   -0.460000       14.0070           0
     25569 WT11     814      MECN     C1       CG331   -0.170000       12.0110           0
     25570 WT11     814      MECN     H11      HGA3     0.090000        1.0080           0
     25571 WT11     814      MECN     H12      HGA3     0.090000        1.0080           0
     25572 WT11     814      MECN     H13      HGA3     0.090000        1.0080           0
     25573 WT11     814      MECN     C2       CG1N1    0.360000       12.0110           0
     25574 WT11     814      MECN     N3       NG1T1   -0.460000       14.0070           0
     25575 WT11     817      MECN     C1       CG331   -0.170000       12.0110           0
     25576 WT11     817      MECN     H11      HGA3     0.090000        1.0080           0
     25577 WT11     817      MECN     H12      HGA3     0.090000        1.0080           0
     25578 WT11     817      MECN     H13      HGA3     0.090000        1.0080           0
     25579 WT11     817      MECN     C2       CG1N1    0.360000       12.0110           0
     25580 WT11     817      MECN     N3       NG1T1   -0.460000       14.0070           0
     25581 WT11     821      MECN     C1       CG331   -0.170000       12.0110           0
     25582 WT11     821      MECN     H11      HGA3     0.090000        1.0080           0
     25583 WT11     821      MECN     H12      HGA3     0.090000        1.0080           0
     25584 WT11     821      MECN     H13      HGA3     0.090000        1.0080           0
     25585 WT11     821      MECN     C2       CG1N1    0.360000       12.0110           0
     25586 WT11     821      MECN     N3       NG1T1   -0.460000       14.0070           0
     25587 WT11     829      MECN     C1       CG331   -0.170000       12.0110           0
     25588 WT11     829      MECN     H11      HGA3     0.090000        1.0080           0
     25589 WT11     829      MECN     H12      HGA3     0.090000        1.0080           0
     25590 WT11     829      MECN     H13      HGA3     0.090000        1.0080           0
     25591 WT11     829      MECN     C2       CG1N1    0.360000       12.0110           0
     25592 WT11     829      MECN     N3       NG1T1   -0.460000       14.0070           0
     25593 WT11     831      MECN     C1       CG331   -0.170000       12.0110           0
     25594 WT11     831      MECN     H11      HGA3     0.090000        1.0080           0
     25595 WT11     831      MECN     H12      HGA3     0.090000        1.0080           0
     25596 WT11     831      MECN     H13      HGA3     0.090000        1.0080           0
     25597 WT11     831      MECN     C2       CG1N1    0.360000       12.0110           0
     25598 WT11     831      MECN     N3       NG1T1   -0.460000       14.0070           0
     25599 WT11     833      MECN     C1       CG331   -0.170000       12.0110           0
     25600 WT11     833      MECN     H11      HGA3     0.090000        1.0080           0
     25601 WT11     833      MECN     H12      HGA3     0.090000        1.0080           0
     25602 WT11     833      MECN     H13      HGA3     0.090000        1.0080           0
     25603 WT11     833      MECN     C2       CG1N1    0.360000       12.0110           0
     25604 WT11     833      MECN     N3       NG1T1   -0.460000       14.0070           0
     25605 WT11     834      MECN     C1       CG331   -0.170000       12.0110           0
     25606 WT11     834      MECN     H11      HGA3     0.090000        1.0080           0
     25607 WT11     834      MECN     H12      HGA3     0.090000        1.0080           0
     25608 WT11     834      MECN     H13      HGA3     0.090000        1.0080           0
     25609 WT11     834      MECN     C2       CG1N1    0.360000       12.0110           0
     25610 WT11     834      MECN     N3       NG1T1   -0.460000       14.0070           0
     25611 WT11     836      MECN     C1       CG331   -0.170000       12.0110           0
     25612 WT11     836      MECN     H11      HGA3     0.090000        1.0080           0
     25613 WT11     836      MECN     H12      HGA3     0.090000        1.0080           0
     25614 WT11     836      MECN     H13      HGA3     0.090000        1.0080           0
     25615 WT11     836      MECN     C2       CG1N1    0.360000       12.0110           0
     25616 WT11     836      MECN     N3       NG1T1   -0.460000       14.0070           0
     25617 WT11     838      MECN     C1       CG331   -0.170000       12.0110           0
     25618 WT11     838      MECN     H11      HGA3     0.090000        1.0080           0
     25619 WT11     838      MECN     H12      HGA3     0.090000        1.0080           0
     25620 WT11     838      MECN     H13      HGA3     0.090000        1.0080           0
     25621 WT11     838      MECN     C2       CG1N1    0.360000       12.0110           0
     25622 WT11     838      MECN     N3       NG1T1   -0.460000       14.0070           0
     25623 WT11     839      MECN     C1       CG331   -0.170000       12.0110           0
     25624 WT11     839      MECN     H11      HGA3     0.090000        1.0080           0
     25625 WT11     839      MECN     H12      HGA3     0.090000        1.0080           0
     25626 WT11     839      MECN     H13      HGA3     0.090000        1.0080           0
     25627 WT11     839      MECN     C2       CG1N1    0.360000       12.0110           0
     25628 WT11     839      MECN     N3       NG1T1   -0.460000       14.0070           0
     25629 WT11     842      MECN     C1       CG331   -0.170000       12.0110           0
     25630 WT11     842      MECN     H11      HGA3     0.090000        1.0080           0
     25631 WT11     842      MECN     H12      HGA3     0.090000        1.0080           0
     25632 WT11     842      MECN     H13      HGA3     0.090000        1.0080           0
     25633 WT11     842      MECN     C2       CG1N1    0.360000       12.0110           0
     25634 WT11     842      MECN     N3       NG1T1   -0.460000       14.0070           0
     25635 WT11     844      MECN     C1       CG331   -0.170000       12.0110           0
     25636 WT11     844      MECN     H11      HGA3     0.090000        1.0080           0
     25637 WT11     844      MECN     H12      HGA3     0.090000        1.0080           0
     25638 WT11     844      MECN     H13      HGA3     0.090000        1.0080           0
     25639 WT11     844      MECN     C2       CG1N1    0.360000       12.0110           0
     25640 WT11     844      MECN     N3       NG1T1   -0.460000       14.0070           0
     25641 WT11     849      MECN     C1       CG331   -0.170000       12.0110           0
     25642 WT11     849      MECN     H11      HGA3     0.090000        1.0080           0
     25643 WT11     849      MECN     H12      HGA3     0.090000        1.0080           0
     25644 WT11     849      MECN     H13      HGA3     0.090000        1.0080           0
     25645 WT11     849      MECN     C2       CG1N1    0.360000       12.0110           0
     25646 WT11     849      MECN     N3       NG1T1   -0.460000       14.0070           0
     25647 WT11     850      MECN     C1       CG331   -0.170000       12.0110           0
     25648 WT11     850      MECN     H11      HGA3     0.090000        1.0080           0
     25649 WT11     850      MECN     H12      HGA3     0.090000        1.0080           0
     25650 WT11     850      MECN     H13      HGA3     0.090000        1.0080           0
     25651 WT11     850      MECN     C2       CG1N1    0.360000       12.0110           0
     25652 WT11     850      MECN     N3       NG1T1   -0.460000       14.0070           0
     25653 WT11     851      MECN     C1       CG331   -0.170000       12.0110           0
     25654 WT11     851      MECN     H11      HGA3     0.090000        1.0080           0
     25655 WT11     851      MECN     H12      HGA3     0.090000        1.0080           0
     25656 WT11     851      MECN     H13      HGA3     0.090000        1.0080           0
     25657 WT11     851      MECN     C2       CG1N1    0.360000       12.0110           0
     25658 WT11     851      MECN     N3       NG1T1   -0.460000       14.0070           0
     25659 WT11     859      MECN     C1       CG331   -0.170000       12.0110           0
     25660 WT11     859      MECN     H11      HGA3     0.090000        1.0080           0
     25661 WT11     859      MECN     H12      HGA3     0.090000        1.0080           0
     25662 WT11     859      MECN     H13      HGA3     0.090000        1.0080           0
     25663 WT11     859      MECN     C2       CG1N1    0.360000       12.0110           0
     25664 WT11     859      MECN     N3       NG1T1   -0.460000       14.0070           0
     25665 WT11     860      MECN     C1       CG331   -0.170000       12.0110           0
     25666 WT11     860      MECN     H11      HGA3     0.090000        1.0080           0
     25667 WT11     860      MECN     H12      HGA3     0.090000        1.0080           0
     25668 WT11     860      MECN     H13      HGA3     0.090000        1.0080           0
     25669 WT11     860      MECN     C2       CG1N1    0.360000       12.0110           0
     25670 WT11     860      MECN     N3       NG1T1   -0.460000       14.0070           0
     25671 WT11     861      MECN     C1       CG331   -0.170000       12.0110           0
     25672 WT11     861      MECN     H11      HGA3     0.090000        1.0080           0
     25673 WT11     861      MECN     H12      HGA3     0.090000        1.0080           0
     25674 WT11     861      MECN     H13      HGA3     0.090000        1.0080           0
     25675 WT11     861      MECN     C2       CG1N1    0.360000       12.0110           0
     25676 WT11     861      MECN     N3       NG1T1   -0.460000       14.0070           0
     25677 WT11     864      MECN     C1       CG331   -0.170000       12.0110           0
     25678 WT11     864      MECN     H11      HGA3     0.090000        1.0080           0
     25679 WT11     864      MECN     H12      HGA3     0.090000        1.0080           0
     25680 WT11     864      MECN     H13      HGA3     0.090000        1.0080           0
     25681 WT11     864      MECN     C2       CG1N1    0.360000       12.0110           0
     25682 WT11     864      MECN     N3       NG1T1   -0.460000       14.0070           0
     25683 WT11     866      MECN     C1       CG331   -0.170000       12.0110           0
     25684 WT11     866      MECN     H11      HGA3     0.090000        1.0080           0
     25685 WT11     866      MECN     H12      HGA3     0.090000        1.0080           0
     25686 WT11     866      MECN     H13      HGA3     0.090000        1.0080           0
     25687 WT11     866      MECN     C2       CG1N1    0.360000       12.0110           0
     25688 WT11     866      MECN     N3       NG1T1   -0.460000       14.0070           0
     25689 WT11     868      MECN     C1       CG331   -0.170000       12.0110           0
     25690 WT11     868      MECN     H11      HGA3     0.090000        1.0080           0
     25691 WT11     868      MECN     H12      HGA3     0.090000        1.0080           0
     25692 WT11     868      MECN     H13      HGA3     0.090000        1.0080           0
     25693 WT11     868      MECN     C2       CG1N1    0.360000       12.0110           0
     25694 WT11     868      MECN     N3       NG1T1   -0.460000       14.0070           0
     25695 WT11     871      MECN     C1       CG331   -0.170000       12.0110           0
     25696 WT11     871      MECN     H11      HGA3     0.090000        1.0080           0
     25697 WT11     871      MECN     H12      HGA3     0.090000        1.0080           0
     25698 WT11     871      MECN     H13      HGA3     0.090000        1.0080           0
     25699 WT11     871      MECN     C2       CG1N1    0.360000       12.0110           0
     25700 WT11     871      MECN     N3       NG1T1   -0.460000       14.0070           0
     25701 WT11     875      MECN     C1       CG331   -0.170000       12.0110           0
     25702 WT11     875      MECN     H11      HGA3     0.090000        1.0080           0
     25703 WT11     875      MECN     H12      HGA3     0.090000        1.0080           0
     25704 WT11     875      MECN     H13      HGA3     0.090000        1.0080           0
     25705 WT11     875      MECN     C2       CG1N1    0.360000       12.0110           0
     25706 WT11     875      MECN     N3       NG1T1   -0.460000       14.0070           0
     25707 WT11     879      MECN     C1       CG331   -0.170000       12.0110           0
     25708 WT11     879      MECN     H11      HGA3     0.090000        1.0080           0
     25709 WT11     879      MECN     H12      HGA3     0.090000        1.0080           0
     25710 WT11     879      MECN     H13      HGA3     0.090000        1.0080           0
     25711 WT11     879      MECN     C2       CG1N1    0.360000       12.0110           0
     25712 WT11     879      MECN     N3       NG1T1   -0.460000       14.0070           0
     25713 WT11     880      MECN     C1       CG331   -0.170000       12.0110           0
     25714 WT11     880      MECN     H11      HGA3     0.090000        1.0080           0
     25715 WT11     880      MECN     H12      HGA3     0.090000        1.0080           0
     25716 WT11     880      MECN     H13      HGA3     0.090000        1.0080           0
     25717 WT11     880      MECN     C2       CG1N1    0.360000       12.0110           0
     25718 WT11     880      MECN     N3       NG1T1   -0.460000       14.0070           0
     25719 WT11     882      MECN     C1       CG331   -0.170000       12.0110           0
     25720 WT11     882      MECN     H11      HGA3     0.090000        1.0080           0
     25721 WT11     882      MECN     H12      HGA3     0.090000        1.0080           0
     25722 WT11     882      MECN     H13      HGA3     0.090000        1.0080           0
     25723 WT11     882      MECN     C2       CG1N1    0.360000       12.0110           0
     25724 WT11     882      MECN     N3       NG1T1   -0.460000       14.0070           0
     25725 WT11     883      MECN     C1       CG331   -0.170000       12.0110           0
     25726 WT11     883      MECN     H11      HGA3     0.090000        1.0080           0
     25727 WT11     883      MECN     H12      HGA3     0.090000        1.0080           0
     25728 WT11     883      MECN     H13      HGA3     0.090000        1.0080           0
     25729 WT11     883      MECN     C2       CG1N1    0.360000       12.0110           0
     25730 WT11     883      MECN     N3       NG1T1   -0.460000       14.0070           0
     25731 WT11     884      MECN     C1       CG331   -0.170000       12.0110           0
     25732 WT11     884      MECN     H11      HGA3     0.090000        1.0080           0
     25733 WT11     884      MECN     H12      HGA3     0.090000        1.0080           0
     25734 WT11     884      MECN     H13      HGA3     0.090000        1.0080           0
     25735 WT11     884      MECN     C2       CG1N1    0.360000       12.0110           0
     25736 WT11     884      MECN     N3       NG1T1   -0.460000       14.0070           0
     25737 WT11     887      MECN     C1       CG331   -0.170000       12.0110           0
     25738 WT11     887      MECN     H11      HGA3     0.090000        1.0080           0
     25739 WT11     887      MECN     H12      HGA3     0.090000        1.0080           0
     25740 WT11     887      MECN     H13      HGA3     0.090000        1.0080           0
     25741 WT11     887      MECN     C2       CG1N1    0.360000       12.0110           0
     25742 WT11     887      MECN     N3       NG1T1   -0.460000       14.0070           0
     25743 WT11     889      MECN     C1       CG331   -0.170000       12.0110           0
     25744 WT11     889      MECN     H11      HGA3     0.090000        1.0080           0
     25745 WT11     889      MECN     H12      HGA3     0.090000        1.0080           0
     25746 WT11     889      MECN     H13      HGA3     0.090000        1.0080           0
     25747 WT11     889      MECN     C2       CG1N1    0.360000       12.0110           0
     25748 WT11     889      MECN     N3       NG1T1   -0.460000       14.0070           0
     25749 WT11     891      MECN     C1       CG331   -0.170000       12.0110           0
     25750 WT11     891      MECN     H11      HGA3     0.090000        1.0080           0
     25751 WT11     891      MECN     H12      HGA3     0.090000        1.0080           0
     25752 WT11     891      MECN     H13      HGA3     0.090000        1.0080           0
     25753 WT11     891      MECN     C2       CG1N1    0.360000       12.0110           0
     25754 WT11     891      MECN     N3       NG1T1   -0.460000       14.0070           0
     25755 WT11     893      MECN     C1       CG331   -0.170000       12.0110           0
     25756 WT11     893      MECN     H11      HGA3     0.090000        1.0080           0
     25757 WT11     893      MECN     H12      HGA3     0.090000        1.0080           0
     25758 WT11     893      MECN     H13      HGA3     0.090000        1.0080           0
     25759 WT11     893      MECN     C2       CG1N1    0.360000       12.0110           0
     25760 WT11     893      MECN     N3       NG1T1   -0.460000       14.0070           0
     25761 WT11     894      MECN     C1       CG331   -0.170000       12.0110           0
     25762 WT11     894      MECN     H11      HGA3     0.090000        1.0080           0
     25763 WT11     894      MECN     H12      HGA3     0.090000        1.0080           0
     25764 WT11     894      MECN     H13      HGA3     0.090000        1.0080           0
     25765 WT11     894      MECN     C2       CG1N1    0.360000       12.0110           0
     25766 WT11     894      MECN     N3       NG1T1   -0.460000       14.0070           0
     25767 WT11     896      MECN     C1       CG331   -0.170000       12.0110           0
     25768 WT11     896      MECN     H11      HGA3     0.090000        1.0080           0
     25769 WT11     896      MECN     H12      HGA3     0.090000        1.0080           0
     25770 WT11     896      MECN     H13      HGA3     0.090000        1.0080           0
     25771 WT11     896      MECN     C2       CG1N1    0.360000       12.0110           0
     25772 WT11     896      MECN     N3       NG1T1   -0.460000       14.0070           0
     25773 WT11     897      MECN     C1       CG331   -0.170000       12.0110           0
     25774 WT11     897      MECN     H11      HGA3     0.090000        1.0080           0
     25775 WT11     897      MECN     H12      HGA3     0.090000        1.0080           0
     25776 WT11     897      MECN     H13      HGA3     0.090000        1.0080           0
     25777 WT11     897      MECN     C2       CG1N1    0.360000       12.0110           0
     25778 WT11     897      MECN     N3       NG1T1   -0.460000       14.0070           0
     25779 WT11     899      MECN     C1       CG331   -0.170000       12.0110           0
     25780 WT11     899      MECN     H11      HGA3     0.090000        1.0080           0
     25781 WT11     899      MECN     H12      HGA3     0.090000        1.0080           0
     25782 WT11     899      MECN     H13      HGA3     0.090000        1.0080           0
     25783 WT11     899      MECN     C2       CG1N1    0.360000       12.0110           0
     25784 WT11     899      MECN     N3       NG1T1   -0.460000       14.0070           0
     25785 WT11     900      MECN     C1       CG331   -0.170000       12.0110           0
     25786 WT11     900      MECN     H11      HGA3     0.090000        1.0080           0
     25787 WT11     900      MECN     H12      HGA3     0.090000        1.0080           0
     25788 WT11     900      MECN     H13      HGA3     0.090000        1.0080           0
     25789 WT11     900      MECN     C2       CG1N1    0.360000       12.0110           0
     25790 WT11     900      MECN     N3       NG1T1   -0.460000       14.0070           0
     25791 WT11     901      MECN     C1       CG331   -0.170000       12.0110           0
     25792 WT11     901      MECN     H11      HGA3     0.090000        1.0080           0
     25793 WT11     901      MECN     H12      HGA3     0.090000        1.0080           0
     25794 WT11     901      MECN     H13      HGA3     0.090000        1.0080           0
     25795 WT11     901      MECN     C2       CG1N1    0.360000       12.0110           0
     25796 WT11     901      MECN     N3       NG1T1   -0.460000       14.0070           0
     25797 WT11     904      MECN     C1       CG331   -0.170000       12.0110           0
     25798 WT11     904      MECN     H11      HGA3     0.090000        1.0080           0
     25799 WT11     904      MECN     H12      HGA3     0.090000        1.0080           0
     25800 WT11     904      MECN     H13      HGA3     0.090000        1.0080           0
     25801 WT11     904      MECN     C2       CG1N1    0.360000       12.0110           0
     25802 WT11     904      MECN     N3       NG1T1   -0.460000       14.0070           0
     25803 WT11     906      MECN     C1       CG331   -0.170000       12.0110           0
     25804 WT11     906      MECN     H11      HGA3     0.090000        1.0080           0
     25805 WT11     906      MECN     H12      HGA3     0.090000        1.0080           0
     25806 WT11     906      MECN     H13      HGA3     0.090000        1.0080           0
     25807 WT11     906      MECN     C2       CG1N1    0.360000       12.0110           0
     25808 WT11     906      MECN     N3       NG1T1   -0.460000       14.0070           0
     25809 WT11     907      MECN     C1       CG331   -0.170000       12.0110           0
     25810 WT11     907      MECN     H11      HGA3     0.090000        1.0080           0
     25811 WT11     907      MECN     H12      HGA3     0.090000        1.0080           0
     25812 WT11     907      MECN     H13      HGA3     0.090000        1.0080           0
     25813 WT11     907      MECN     C2       CG1N1    0.360000       12.0110           0
     25814 WT11     907      MECN     N3       NG1T1   -0.460000       14.0070           0
     25815 WT11     912      MECN     C1       CG331   -0.170000       12.0110           0
     25816 WT11     912      MECN     H11      HGA3     0.090000        1.0080           0
     25817 WT11     912      MECN     H12      HGA3     0.090000        1.0080           0
     25818 WT11     912      MECN     H13      HGA3     0.090000        1.0080           0
     25819 WT11     912      MECN     C2       CG1N1    0.360000       12.0110           0
     25820 WT11     912      MECN     N3       NG1T1   -0.460000       14.0070           0
     25821 WT11     914      MECN     C1       CG331   -0.170000       12.0110           0
     25822 WT11     914      MECN     H11      HGA3     0.090000        1.0080           0
     25823 WT11     914      MECN     H12      HGA3     0.090000        1.0080           0
     25824 WT11     914      MECN     H13      HGA3     0.090000        1.0080           0
     25825 WT11     914      MECN     C2       CG1N1    0.360000       12.0110           0
     25826 WT11     914      MECN     N3       NG1T1   -0.460000       14.0070           0
     25827 WT11     915      MECN     C1       CG331   -0.170000       12.0110           0
     25828 WT11     915      MECN     H11      HGA3     0.090000        1.0080           0
     25829 WT11     915      MECN     H12      HGA3     0.090000        1.0080           0
     25830 WT11     915      MECN     H13      HGA3     0.090000        1.0080           0
     25831 WT11     915      MECN     C2       CG1N1    0.360000       12.0110           0
     25832 WT11     915      MECN     N3       NG1T1   -0.460000       14.0070           0
     25833 WT11     916      MECN     C1       CG331   -0.170000       12.0110           0
     25834 WT11     916      MECN     H11      HGA3     0.090000        1.0080           0
     25835 WT11     916      MECN     H12      HGA3     0.090000        1.0080           0
     25836 WT11     916      MECN     H13      HGA3     0.090000        1.0080           0
     25837 WT11     916      MECN     C2       CG1N1    0.360000       12.0110           0
     25838 WT11     916      MECN     N3       NG1T1   -0.460000       14.0070           0
     25839 WT11     918      MECN     C1       CG331   -0.170000       12.0110           0
     25840 WT11     918      MECN     H11      HGA3     0.090000        1.0080           0
     25841 WT11     918      MECN     H12      HGA3     0.090000        1.0080           0
     25842 WT11     918      MECN     H13      HGA3     0.090000        1.0080           0
     25843 WT11     918      MECN     C2       CG1N1    0.360000       12.0110           0
     25844 WT11     918      MECN     N3       NG1T1   -0.460000       14.0070           0
     25845 WT11     920      MECN     C1       CG331   -0.170000       12.0110           0
     25846 WT11     920      MECN     H11      HGA3     0.090000        1.0080           0
     25847 WT11     920      MECN     H12      HGA3     0.090000        1.0080           0
     25848 WT11     920      MECN     H13      HGA3     0.090000        1.0080           0
     25849 WT11     920      MECN     C2       CG1N1    0.360000       12.0110           0
     25850 WT11     920      MECN     N3       NG1T1   -0.460000       14.0070           0
     25851 WT11     922      MECN     C1       CG331   -0.170000       12.0110           0
     25852 WT11     922      MECN     H11      HGA3     0.090000        1.0080           0
     25853 WT11     922      MECN     H12      HGA3     0.090000        1.0080           0
     25854 WT11     922      MECN     H13      HGA3     0.090000        1.0080           0
     25855 WT11     922      MECN     C2       CG1N1    0.360000       12.0110           0
     25856 WT11     922      MECN     N3       NG1T1   -0.460000       14.0070           0
     25857 WT11     924      MECN     C1       CG331   -0.170000       12.0110           0
     25858 WT11     924      MECN     H11      HGA3     0.090000        1.0080           0
     25859 WT11     924      MECN     H12      HGA3     0.090000        1.0080           0
     25860 WT11     924      MECN     H13      HGA3     0.090000        1.0080           0
     25861 WT11     924      MECN     C2       CG1N1    0.360000       12.0110           0
     25862 WT11     924      MECN     N3       NG1T1   -0.460000       14.0070           0
     25863 WT11     925      MECN     C1       CG331   -0.170000       12.0110           0
     25864 WT11     925      MECN     H11      HGA3     0.090000        1.0080           0
     25865 WT11     925      MECN     H12      HGA3     0.090000        1.0080           0
     25866 WT11     925      MECN     H13      HGA3     0.090000        1.0080           0
     25867 WT11     925      MECN     C2       CG1N1    0.360000       12.0110           0
     25868 WT11     925      MECN     N3       NG1T1   -0.460000       14.0070           0
     25869 WT11     926      MECN     C1       CG331   -0.170000       12.0110           0
     25870 WT11     926      MECN     H11      HGA3     0.090000        1.0080           0
     25871 WT11     926      MECN     H12      HGA3     0.090000        1.0080           0
     25872 WT11     926      MECN     H13      HGA3     0.090000        1.0080           0
     25873 WT11     926      MECN     C2       CG1N1    0.360000       12.0110           0
     25874 WT11     926      MECN     N3       NG1T1   -0.460000       14.0070           0
     25875 WT11     933      MECN     C1       CG331   -0.170000       12.0110           0
     25876 WT11     933      MECN     H11      HGA3     0.090000        1.0080           0
     25877 WT11     933      MECN     H12      HGA3     0.090000        1.0080           0
     25878 WT11     933      MECN     H13      HGA3     0.090000        1.0080           0
     25879 WT11     933      MECN     C2       CG1N1    0.360000       12.0110           0
     25880 WT11     933      MECN     N3       NG1T1   -0.460000       14.0070           0
     25881 WT11     934      MECN     C1       CG331   -0.170000       12.0110           0
     25882 WT11     934      MECN     H11      HGA3     0.090000        1.0080           0
     25883 WT11     934      MECN     H12      HGA3     0.090000        1.0080           0
     25884 WT11     934      MECN     H13      HGA3     0.090000        1.0080           0
     25885 WT11     934      MECN     C2       CG1N1    0.360000       12.0110           0
     25886 WT11     934      MECN     N3       NG1T1   -0.460000       14.0070           0
     25887 WT11     935      MECN     C1       CG331   -0.170000       12.0110           0
     25888 WT11     935      MECN     H11      HGA3     0.090000        1.0080           0
     25889 WT11     935      MECN     H12      HGA3     0.090000        1.0080           0
     25890 WT11     935      MECN     H13      HGA3     0.090000        1.0080           0
     25891 WT11     935      MECN     C2       CG1N1    0.360000       12.0110           0
     25892 WT11     935      MECN     N3       NG1T1   -0.460000       14.0070           0
     25893 WT11     938      MECN     C1       CG331   -0.170000       12.0110           0
     25894 WT11     938      MECN     H11      HGA3     0.090000        1.0080           0
     25895 WT11     938      MECN     H12      HGA3     0.090000        1.0080           0
     25896 WT11     938      MECN     H13      HGA3     0.090000        1.0080           0
     25897 WT11     938      MECN     C2       CG1N1    0.360000       12.0110           0
     25898 WT11     938      MECN     N3       NG1T1   -0.460000       14.0070           0
     25899 WT11     939      MECN     C1       CG331   -0.170000       12.0110           0
     25900 WT11     939      MECN     H11      HGA3     0.090000        1.0080           0
     25901 WT11     939      MECN     H12      HGA3     0.090000        1.0080           0
     25902 WT11     939      MECN     H13      HGA3     0.090000        1.0080           0
     25903 WT11     939      MECN     C2       CG1N1    0.360000       12.0110           0
     25904 WT11     939      MECN     N3       NG1T1   -0.460000       14.0070           0
     25905 WT11     940      MECN     C1       CG331   -0.170000       12.0110           0
     25906 WT11     940      MECN     H11      HGA3     0.090000        1.0080           0
     25907 WT11     940      MECN     H12      HGA3     0.090000        1.0080           0
     25908 WT11     940      MECN     H13      HGA3     0.090000        1.0080           0
     25909 WT11     940      MECN     C2       CG1N1    0.360000       12.0110           0
     25910 WT11     940      MECN     N3       NG1T1   -0.460000       14.0070           0
     25911 WT11     947      MECN     C1       CG331   -0.170000       12.0110           0
     25912 WT11     947      MECN     H11      HGA3     0.090000        1.0080           0
     25913 WT11     947      MECN     H12      HGA3     0.090000        1.0080           0
     25914 WT11     947      MECN     H13      HGA3     0.090000        1.0080           0
     25915 WT11     947      MECN     C2       CG1N1    0.360000       12.0110           0
     25916 WT11     947      MECN     N3       NG1T1   -0.460000       14.0070           0
     25917 WT11     959      MECN     C1       CG331   -0.170000       12.0110           0
     25918 WT11     959      MECN     H11      HGA3     0.090000        1.0080           0
     25919 WT11     959      MECN     H12      HGA3     0.090000        1.0080           0
     25920 WT11     959      MECN     H13      HGA3     0.090000        1.0080           0
     25921 WT11     959      MECN     C2       CG1N1    0.360000       12.0110           0
     25922 WT11     959      MECN     N3       NG1T1   -0.460000       14.0070           0
     25923 WT11     960      MECN     C1       CG331   -0.170000       12.0110           0
     25924 WT11     960      MECN     H11      HGA3     0.090000        1.0080           0
     25925 WT11     960      MECN     H12      HGA3     0.090000        1.0080           0
     25926 WT11     960      MECN     H13      HGA3     0.090000        1.0080           0
     25927 WT11     960      MECN     C2       CG1N1    0.360000       12.0110           0
     25928 WT11     960      MECN     N3       NG1T1   -0.460000       14.0070           0
     25929 WT11     963      MECN     C1       CG331   -0.170000       12.0110           0
     25930 WT11     963      MECN     H11      HGA3     0.090000        1.0080           0
     25931 WT11     963      MECN     H12      HGA3     0.090000        1.0080           0
     25932 WT11     963      MECN     H13      HGA3     0.090000        1.0080           0
     25933 WT11     963      MECN     C2       CG1N1    0.360000       12.0110           0
     25934 WT11     963      MECN     N3       NG1T1   -0.460000       14.0070           0
     25935 WT11     964      MECN     C1       CG331   -0.170000       12.0110           0
     25936 WT11     964      MECN     H11      HGA3     0.090000        1.0080           0
     25937 WT11     964      MECN     H12      HGA3     0.090000        1.0080           0
     25938 WT11     964      MECN     H13      HGA3     0.090000        1.0080           0
     25939 WT11     964      MECN     C2       CG1N1    0.360000       12.0110           0
     25940 WT11     964      MECN     N3       NG1T1   -0.460000       14.0070           0
     25941 WT11     967      MECN     C1       CG331   -0.170000       12.0110           0
     25942 WT11     967      MECN     H11      HGA3     0.090000        1.0080           0
     25943 WT11     967      MECN     H12      HGA3     0.090000        1.0080           0
     25944 WT11     967      MECN     H13      HGA3     0.090000        1.0080           0
     25945 WT11     967      MECN     C2       CG1N1    0.360000       12.0110           0
     25946 WT11     967      MECN     N3       NG1T1   -0.460000       14.0070           0
     25947 WT11     971      MECN     C1       CG331   -0.170000       12.0110           0
     25948 WT11     971      MECN     H11      HGA3     0.090000        1.0080           0
     25949 WT11     971      MECN     H12      HGA3     0.090000        1.0080           0
     25950 WT11     971      MECN     H13      HGA3     0.090000        1.0080           0
     25951 WT11     971      MECN     C2       CG1N1    0.360000       12.0110           0
     25952 WT11     971      MECN     N3       NG1T1   -0.460000       14.0070           0
     25953 WT11     973      MECN     C1       CG331   -0.170000       12.0110           0
     25954 WT11     973      MECN     H11      HGA3     0.090000        1.0080           0
     25955 WT11     973      MECN     H12      HGA3     0.090000        1.0080           0
     25956 WT11     973      MECN     H13      HGA3     0.090000        1.0080           0
     25957 WT11     973      MECN     C2       CG1N1    0.360000       12.0110           0
     25958 WT11     973      MECN     N3       NG1T1   -0.460000       14.0070           0
     25959 WT11     975      MECN     C1       CG331   -0.170000       12.0110           0
     25960 WT11     975      MECN     H11      HGA3     0.090000        1.0080           0
     25961 WT11     975      MECN     H12      HGA3     0.090000        1.0080           0
     25962 WT11     975      MECN     H13      HGA3     0.090000        1.0080           0
     25963 WT11     975      MECN     C2       CG1N1    0.360000       12.0110           0
     25964 WT11     975      MECN     N3       NG1T1   -0.460000       14.0070           0
     25965 WT11     976      MECN     C1       CG331   -0.170000       12.0110           0
     25966 WT11     976      MECN     H11      HGA3     0.090000        1.0080           0
     25967 WT11     976      MECN     H12      HGA3     0.090000        1.0080           0
     25968 WT11     976      MECN     H13      HGA3     0.090000        1.0080           0
     25969 WT11     976      MECN     C2       CG1N1    0.360000       12.0110           0
     25970 WT11     976      MECN     N3       NG1T1   -0.460000       14.0070           0
     25971 WT11     977      MECN     C1       CG331   -0.170000       12.0110           0
     25972 WT11     977      MECN     H11      HGA3     0.090000        1.0080           0
     25973 WT11     977      MECN     H12      HGA3     0.090000        1.0080           0
     25974 WT11     977      MECN     H13      HGA3     0.090000        1.0080           0
     25975 WT11     977      MECN     C2       CG1N1    0.360000       12.0110           0
     25976 WT11     977      MECN     N3       NG1T1   -0.460000       14.0070           0
     25977 WT11     979      MECN     C1       CG331   -0.170000       12.0110           0
     25978 WT11     979      MECN     H11      HGA3     0.090000        1.0080           0
     25979 WT11     979      MECN     H12      HGA3     0.090000        1.0080           0
     25980 WT11     979      MECN     H13      HGA3     0.090000        1.0080           0
     25981 WT11     979      MECN     C2       CG1N1    0.360000       12.0110           0
     25982 WT11     979      MECN     N3       NG1T1   -0.460000       14.0070           0
     25983 WT11     983      MECN     C1       CG331   -0.170000       12.0110           0
     25984 WT11     983      MECN     H11      HGA3     0.090000        1.0080           0
     25985 WT11     983      MECN     H12      HGA3     0.090000        1.0080           0
     25986 WT11     983      MECN     H13      HGA3     0.090000        1.0080           0
     25987 WT11     983      MECN     C2       CG1N1    0.360000       12.0110           0
     25988 WT11     983      MECN     N3       NG1T1   -0.460000       14.0070           0
     25989 WT11     985      MECN     C1       CG331   -0.170000       12.0110           0
     25990 WT11     985      MECN     H11      HGA3     0.090000        1.0080           0
     25991 WT11     985      MECN     H12      HGA3     0.090000        1.0080           0
     25992 WT11     985      MECN     H13      HGA3     0.090000        1.0080           0
     25993 WT11     985      MECN     C2       CG1N1    0.360000       12.0110           0
     25994 WT11     985      MECN     N3       NG1T1   -0.460000       14.0070           0
     25995 WT11     986      MECN     C1       CG331   -0.170000       12.0110           0
     25996 WT11     986      MECN     H11      HGA3     0.090000        1.0080           0
     25997 WT11     986      MECN     H12      HGA3     0.090000        1.0080           0
     25998 WT11     986      MECN     H13      HGA3     0.090000        1.0080           0
     25999 WT11     986      MECN     C2       CG1N1    0.360000       12.0110           0
     26000 WT11     986      MECN     N3       NG1T1   -0.460000       14.0070           0
     26001 WT11     992      MECN     C1       CG331   -0.170000       12.0110           0
     26002 WT11     992      MECN     H11      HGA3     0.090000        1.0080           0
     26003 WT11     992      MECN     H12      HGA3     0.090000        1.0080           0
     26004 WT11     992      MECN     H13      HGA3     0.090000        1.0080           0
     26005 WT11     992      MECN     C2       CG1N1    0.360000       12.0110           0
     26006 WT11     992      MECN     N3       NG1T1   -0.460000       14.0070           0
     26007 WT11     999      MECN     C1       CG331   -0.170000       12.0110           0
     26008 WT11     999      MECN     H11      HGA3     0.090000        1.0080           0
     26009 WT11     999      MECN     H12      HGA3     0.090000        1.0080           0
     26010 WT11     999      MECN     H13      HGA3     0.090000        1.0080           0
     26011 WT11     999      MECN     C2       CG1N1    0.360000       12.0110           0
     26012 WT11     999      MECN     N3       NG1T1   -0.460000       14.0070           0
     26013 WT11     1000     MECN     C1       CG331   -0.170000       12.0110           0
     26014 WT11     1000     MECN     H11      HGA3     0.090000        1.0080           0
     26015 WT11     1000     MECN     H12      HGA3     0.090000        1.0080           0
     26016 WT11     1000     MECN     H13      HGA3     0.090000        1.0080           0
     26017 WT11     1000     MECN     C2       CG1N1    0.360000       12.0110           0
     26018 WT11     1000     MECN     N3       NG1T1   -0.460000       14.0070           0
     26019 WT11     1001     MECN     C1       CG331   -0.170000       12.0110           0
     26020 WT11     1001     MECN     H11      HGA3     0.090000        1.0080           0
     26021 WT11     1001     MECN     H12      HGA3     0.090000        1.0080           0
     26022 WT11     1001     MECN     H13      HGA3     0.090000        1.0080           0
     26023 WT11     1001     MECN     C2       CG1N1    0.360000       12.0110           0
     26024 WT11     1001     MECN     N3       NG1T1   -0.460000       14.0070           0
     26025 WT11     1002     MECN     C1       CG331   -0.170000       12.0110           0
     26026 WT11     1002     MECN     H11      HGA3     0.090000        1.0080           0
     26027 WT11     1002     MECN     H12      HGA3     0.090000        1.0080           0
     26028 WT11     1002     MECN     H13      HGA3     0.090000        1.0080           0
     26029 WT11     1002     MECN     C2       CG1N1    0.360000       12.0110           0
     26030 WT11     1002     MECN     N3       NG1T1   -0.460000       14.0070           0
     26031 WT11     1003     MECN     C1       CG331   -0.170000       12.0110           0
     26032 WT11     1003     MECN     H11      HGA3     0.090000        1.0080           0
     26033 WT11     1003     MECN     H12      HGA3     0.090000        1.0080           0
     26034 WT11     1003     MECN     H13      HGA3     0.090000        1.0080           0
     26035 WT11     1003     MECN     C2       CG1N1    0.360000       12.0110           0
     26036 WT11     1003     MECN     N3       NG1T1   -0.460000       14.0070           0
     26037 WT11     1005     MECN     C1       CG331   -0.170000       12.0110           0
     26038 WT11     1005     MECN     H11      HGA3     0.090000        1.0080           0
     26039 WT11     1005     MECN     H12      HGA3     0.090000        1.0080           0
     26040 WT11     1005     MECN     H13      HGA3     0.090000        1.0080           0
     26041 WT11     1005     MECN     C2       CG1N1    0.360000       12.0110           0
     26042 WT11     1005     MECN     N3       NG1T1   -0.460000       14.0070           0
     26043 WT11     1016     MECN     C1       CG331   -0.170000       12.0110           0
     26044 WT11     1016     MECN     H11      HGA3     0.090000        1.0080           0
     26045 WT11     1016     MECN     H12      HGA3     0.090000        1.0080           0
     26046 WT11     1016     MECN     H13      HGA3     0.090000        1.0080           0
     26047 WT11     1016     MECN     C2       CG1N1    0.360000       12.0110           0
     26048 WT11     1016     MECN     N3       NG1T1   -0.460000       14.0070           0
     26049 WT11     1017     MECN     C1       CG331   -0.170000       12.0110           0
     26050 WT11     1017     MECN     H11      HGA3     0.090000        1.0080           0
     26051 WT11     1017     MECN     H12      HGA3     0.090000        1.0080           0
     26052 WT11     1017     MECN     H13      HGA3     0.090000        1.0080           0
     26053 WT11     1017     MECN     C2       CG1N1    0.360000       12.0110           0
     26054 WT11     1017     MECN     N3       NG1T1   -0.460000       14.0070           0
     26055 WT11     1020     MECN     C1       CG331   -0.170000       12.0110           0
     26056 WT11     1020     MECN     H11      HGA3     0.090000        1.0080           0
     26057 WT11     1020     MECN     H12      HGA3     0.090000        1.0080           0
     26058 WT11     1020     MECN     H13      HGA3     0.090000        1.0080           0
     26059 WT11     1020     MECN     C2       CG1N1    0.360000       12.0110           0
     26060 WT11     1020     MECN     N3       NG1T1   -0.460000       14.0070           0
     26061 WT11     1021     MECN     C1       CG331   -0.170000       12.0110           0
     26062 WT11     1021     MECN     H11      HGA3     0.090000        1.0080           0
     26063 WT11     1021     MECN     H12      HGA3     0.090000        1.0080           0
     26064 WT11     1021     MECN     H13      HGA3     0.090000        1.0080           0
     26065 WT11     1021     MECN     C2       CG1N1    0.360000       12.0110           0
     26066 WT11     1021     MECN     N3       NG1T1   -0.460000       14.0070           0
     26067 WT11     1022     MECN     C1       CG331   -0.170000       12.0110           0
     26068 WT11     1022     MECN     H11      HGA3     0.090000        1.0080           0
     26069 WT11     1022     MECN     H12      HGA3     0.090000        1.0080           0
     26070 WT11     1022     MECN     H13      HGA3     0.090000        1.0080           0
     26071 WT11     1022     MECN     C2       CG1N1    0.360000       12.0110           0
     26072 WT11     1022     MECN     N3       NG1T1   -0.460000       14.0070           0
     26073 WT11     1025     MECN     C1       CG331   -0.170000       12.0110           0
     26074 WT11     1025     MECN     H11      HGA3     0.090000        1.0080           0
     26075 WT11     1025     MECN     H12      HGA3     0.090000        1.0080           0
     26076 WT11     1025     MECN     H13      HGA3     0.090000        1.0080           0
     26077 WT11     1025     MECN     C2       CG1N1    0.360000       12.0110           0
     26078 WT11     1025     MECN     N3       NG1T1   -0.460000       14.0070           0
     26079 WT11     1026     MECN     C1       CG331   -0.170000       12.0110           0
     26080 WT11     1026     MECN     H11      HGA3     0.090000        1.0080           0
     26081 WT11     1026     MECN     H12      HGA3     0.090000        1.0080           0
     26082 WT11     1026     MECN     H13      HGA3     0.090000        1.0080           0
     26083 WT11     1026     MECN     C2       CG1N1    0.360000       12.0110           0
     26084 WT11     1026     MECN     N3       NG1T1   -0.460000       14.0070           0
     26085 WT11     1027     MECN     C1       CG331   -0.170000       12.0110           0
     26086 WT11     1027     MECN     H11      HGA3     0.090000        1.0080           0
     26087 WT11     1027     MECN     H12      HGA3     0.090000        1.0080           0
     26088 WT11     1027     MECN     H13      HGA3     0.090000        1.0080           0
     26089 WT11     1027     MECN     C2       CG1N1    0.360000       12.0110           0
     26090 WT11     1027     MECN     N3       NG1T1   -0.460000       14.0070           0
     26091 WT11     1028     MECN     C1       CG331   -0.170000       12.0110           0
     26092 WT11     1028     MECN     H11      HGA3     0.090000        1.0080           0
     26093 WT11     1028     MECN     H12      HGA3     0.090000        1.0080           0
     26094 WT11     1028     MECN     H13      HGA3     0.090000        1.0080           0
     26095 WT11     1028     MECN     C2       CG1N1    0.360000       12.0110           0
     26096 WT11     1028     MECN     N3       NG1T1   -0.460000       14.0070           0
     26097 WT11     1029     MECN     C1       CG331   -0.170000       12.0110           0
     26098 WT11     1029     MECN     H11      HGA3     0.090000        1.0080           0
     26099 WT11     1029     MECN     H12      HGA3     0.090000        1.0080           0
     26100 WT11     1029     MECN     H13      HGA3     0.090000        1.0080           0
     26101 WT11     1029     MECN     C2       CG1N1    0.360000       12.0110           0
     26102 WT11     1029     MECN     N3       NG1T1   -0.460000       14.0070           0
     26103 WT11     1030     MECN     C1       CG331   -0.170000       12.0110           0
     26104 WT11     1030     MECN     H11      HGA3     0.090000        1.0080           0
     26105 WT11     1030     MECN     H12      HGA3     0.090000        1.0080           0
     26106 WT11     1030     MECN     H13      HGA3     0.090000        1.0080           0
     26107 WT11     1030     MECN     C2       CG1N1    0.360000       12.0110           0
     26108 WT11     1030     MECN     N3       NG1T1   -0.460000       14.0070           0
     26109 WT11     1038     MECN     C1       CG331   -0.170000       12.0110           0
     26110 WT11     1038     MECN     H11      HGA3     0.090000        1.0080           0
     26111 WT11     1038     MECN     H12      HGA3     0.090000        1.0080           0
     26112 WT11     1038     MECN     H13      HGA3     0.090000        1.0080           0
     26113 WT11     1038     MECN     C2       CG1N1    0.360000       12.0110           0
     26114 WT11     1038     MECN     N3       NG1T1   -0.460000       14.0070           0
     26115 WT11     1040     MECN     C1       CG331   -0.170000       12.0110           0
     26116 WT11     1040     MECN     H11      HGA3     0.090000        1.0080           0
     26117 WT11     1040     MECN     H12      HGA3     0.090000        1.0080           0
     26118 WT11     1040     MECN     H13      HGA3     0.090000        1.0080           0
     26119 WT11     1040     MECN     C2       CG1N1    0.360000       12.0110           0
     26120 WT11     1040     MECN     N3       NG1T1   -0.460000       14.0070           0
     26121 WT11     1042     MECN     C1       CG331   -0.170000       12.0110           0
     26122 WT11     1042     MECN     H11      HGA3     0.090000        1.0080           0
     26123 WT11     1042     MECN     H12      HGA3     0.090000        1.0080           0
     26124 WT11     1042     MECN     H13      HGA3     0.090000        1.0080           0
     26125 WT11     1042     MECN     C2       CG1N1    0.360000       12.0110           0
     26126 WT11     1042     MECN     N3       NG1T1   -0.460000       14.0070           0
     26127 WT11     1043     MECN     C1       CG331   -0.170000       12.0110           0
     26128 WT11     1043     MECN     H11      HGA3     0.090000        1.0080           0
     26129 WT11     1043     MECN     H12      HGA3     0.090000        1.0080           0
     26130 WT11     1043     MECN     H13      HGA3     0.090000        1.0080           0
     26131 WT11     1043     MECN     C2       CG1N1    0.360000       12.0110           0
     26132 WT11     1043     MECN     N3       NG1T1   -0.460000       14.0070           0
     26133 WT11     1045     MECN     C1       CG331   -0.170000       12.0110           0
     26134 WT11     1045     MECN     H11      HGA3     0.090000        1.0080           0
     26135 WT11     1045     MECN     H12      HGA3     0.090000        1.0080           0
     26136 WT11     1045     MECN     H13      HGA3     0.090000        1.0080           0
     26137 WT11     1045     MECN     C2       CG1N1    0.360000       12.0110           0
     26138 WT11     1045     MECN     N3       NG1T1   -0.460000       14.0070           0
     26139 WT11     1049     MECN     C1       CG331   -0.170000       12.0110           0
     26140 WT11     1049     MECN     H11      HGA3     0.090000        1.0080           0
     26141 WT11     1049     MECN     H12      HGA3     0.090000        1.0080           0
     26142 WT11     1049     MECN     H13      HGA3     0.090000        1.0080           0
     26143 WT11     1049     MECN     C2       CG1N1    0.360000       12.0110           0
     26144 WT11     1049     MECN     N3       NG1T1   -0.460000       14.0070           0
     26145 WT11     1050     MECN     C1       CG331   -0.170000       12.0110           0
     26146 WT11     1050     MECN     H11      HGA3     0.090000        1.0080           0
     26147 WT11     1050     MECN     H12      HGA3     0.090000        1.0080           0
     26148 WT11     1050     MECN     H13      HGA3     0.090000        1.0080           0
     26149 WT11     1050     MECN     C2       CG1N1    0.360000       12.0110           0
     26150 WT11     1050     MECN     N3       NG1T1   -0.460000       14.0070           0
     26151 WT11     1052     MECN     C1       CG331   -0.170000       12.0110           0
     26152 WT11     1052     MECN     H11      HGA3     0.090000        1.0080           0
     26153 WT11     1052     MECN     H12      HGA3     0.090000        1.0080           0
     26154 WT11     1052     MECN     H13      HGA3     0.090000        1.0080           0
     26155 WT11     1052     MECN     C2       CG1N1    0.360000       12.0110           0
     26156 WT11     1052     MECN     N3       NG1T1   -0.460000       14.0070           0
     26157 WT11     1060     MECN     C1       CG331   -0.170000       12.0110           0
     26158 WT11     1060     MECN     H11      HGA3     0.090000        1.0080           0
     26159 WT11     1060     MECN     H12      HGA3     0.090000        1.0080           0
     26160 WT11     1060     MECN     H13      HGA3     0.090000        1.0080           0
     26161 WT11     1060     MECN     C2       CG1N1    0.360000       12.0110           0
     26162 WT11     1060     MECN     N3       NG1T1   -0.460000       14.0070           0
     26163 WT11     1070     MECN     C1       CG331   -0.170000       12.0110           0
     26164 WT11     1070     MECN     H11      HGA3     0.090000        1.0080           0
     26165 WT11     1070     MECN     H12      HGA3     0.090000        1.0080           0
     26166 WT11     1070     MECN     H13      HGA3     0.090000        1.0080           0
     26167 WT11     1070     MECN     C2       CG1N1    0.360000       12.0110           0
     26168 WT11     1070     MECN     N3       NG1T1   -0.460000       14.0070           0
     26169 WT11     1075     MECN     C1       CG331   -0.170000       12.0110           0
     26170 WT11     1075     MECN     H11      HGA3     0.090000        1.0080           0
     26171 WT11     1075     MECN     H12      HGA3     0.090000        1.0080           0
     26172 WT11     1075     MECN     H13      HGA3     0.090000        1.0080           0
     26173 WT11     1075     MECN     C2       CG1N1    0.360000       12.0110           0
     26174 WT11     1075     MECN     N3       NG1T1   -0.460000       14.0070           0
     26175 WT11     1077     MECN     C1       CG331   -0.170000       12.0110           0
     26176 WT11     1077     MECN     H11      HGA3     0.090000        1.0080           0
     26177 WT11     1077     MECN     H12      HGA3     0.090000        1.0080           0
     26178 WT11     1077     MECN     H13      HGA3     0.090000        1.0080           0
     26179 WT11     1077     MECN     C2       CG1N1    0.360000       12.0110           0
     26180 WT11     1077     MECN     N3       NG1T1   -0.460000       14.0070           0
     26181 WT11     1087     MECN     C1       CG331   -0.170000       12.0110           0
     26182 WT11     1087     MECN     H11      HGA3     0.090000        1.0080           0
     26183 WT11     1087     MECN     H12      HGA3     0.090000        1.0080           0
     26184 WT11     1087     MECN     H13      HGA3     0.090000        1.0080           0
     26185 WT11     1087     MECN     C2       CG1N1    0.360000       12.0110           0
     26186 WT11     1087     MECN     N3       NG1T1   -0.460000       14.0070           0
     26187 WT11     1088     MECN     C1       CG331   -0.170000       12.0110           0
     26188 WT11     1088     MECN     H11      HGA3     0.090000        1.0080           0
     26189 WT11     1088     MECN     H12      HGA3     0.090000        1.0080           0
     26190 WT11     1088     MECN     H13      HGA3     0.090000        1.0080           0
     26191 WT11     1088     MECN     C2       CG1N1    0.360000       12.0110           0
     26192 WT11     1088     MECN     N3       NG1T1   -0.460000       14.0070           0
     26193 WT11     1096     MECN     C1       CG331   -0.170000       12.0110           0
     26194 WT11     1096     MECN     H11      HGA3     0.090000        1.0080           0
     26195 WT11     1096     MECN     H12      HGA3     0.090000        1.0080           0
     26196 WT11     1096     MECN     H13      HGA3     0.090000        1.0080           0
     26197 WT11     1096     MECN     C2       CG1N1    0.360000       12.0110           0
     26198 WT11     1096     MECN     N3       NG1T1   -0.460000       14.0070           0
     26199 WT11     1098     MECN     C1       CG331   -0.170000       12.0110           0
     26200 WT11     1098     MECN     H11      HGA3     0.090000        1.0080           0
     26201 WT11     1098     MECN     H12      HGA3     0.090000        1.0080           0
     26202 WT11     1098     MECN     H13      HGA3     0.090000        1.0080           0
     26203 WT11     1098     MECN     C2       CG1N1    0.360000       12.0110           0
     26204 WT11     1098     MECN     N3       NG1T1   -0.460000       14.0070           0
     26205 WT11     1099     MECN     C1       CG331   -0.170000       12.0110           0
     26206 WT11     1099     MECN     H11      HGA3     0.090000        1.0080           0
     26207 WT11     1099     MECN     H12      HGA3     0.090000        1.0080           0
     26208 WT11     1099     MECN     H13      HGA3     0.090000        1.0080           0
     26209 WT11     1099     MECN     C2       CG1N1    0.360000       12.0110           0
     26210 WT11     1099     MECN     N3       NG1T1   -0.460000       14.0070           0
     26211 WT11     1100     MECN     C1       CG331   -0.170000       12.0110           0
     26212 WT11     1100     MECN     H11      HGA3     0.090000        1.0080           0
     26213 WT11     1100     MECN     H12      HGA3     0.090000        1.0080           0
     26214 WT11     1100     MECN     H13      HGA3     0.090000        1.0080           0
     26215 WT11     1100     MECN     C2       CG1N1    0.360000       12.0110           0
     26216 WT11     1100     MECN     N3       NG1T1   -0.460000       14.0070           0
     26217 WT11     1101     MECN     C1       CG331   -0.170000       12.0110           0
     26218 WT11     1101     MECN     H11      HGA3     0.090000        1.0080           0
     26219 WT11     1101     MECN     H12      HGA3     0.090000        1.0080           0
     26220 WT11     1101     MECN     H13      HGA3     0.090000        1.0080           0
     26221 WT11     1101     MECN     C2       CG1N1    0.360000       12.0110           0
     26222 WT11     1101     MECN     N3       NG1T1   -0.460000       14.0070           0
     26223 WT11     1105     MECN     C1       CG331   -0.170000       12.0110           0
     26224 WT11     1105     MECN     H11      HGA3     0.090000        1.0080           0
     26225 WT11     1105     MECN     H12      HGA3     0.090000        1.0080           0
     26226 WT11     1105     MECN     H13      HGA3     0.090000        1.0080           0
     26227 WT11     1105     MECN     C2       CG1N1    0.360000       12.0110           0
     26228 WT11     1105     MECN     N3       NG1T1   -0.460000       14.0070           0
     26229 WT11     1110     MECN     C1       CG331   -0.170000       12.0110           0
     26230 WT11     1110     MECN     H11      HGA3     0.090000        1.0080           0
     26231 WT11     1110     MECN     H12      HGA3     0.090000        1.0080           0
     26232 WT11     1110     MECN     H13      HGA3     0.090000        1.0080           0
     26233 WT11     1110     MECN     C2       CG1N1    0.360000       12.0110           0
     26234 WT11     1110     MECN     N3       NG1T1   -0.460000       14.0070           0
     26235 WT11     1112     MECN     C1       CG331   -0.170000       12.0110           0
     26236 WT11     1112     MECN     H11      HGA3     0.090000        1.0080           0
     26237 WT11     1112     MECN     H12      HGA3     0.090000        1.0080           0
     26238 WT11     1112     MECN     H13      HGA3     0.090000        1.0080           0
     26239 WT11     1112     MECN     C2       CG1N1    0.360000       12.0110           0
     26240 WT11     1112     MECN     N3       NG1T1   -0.460000       14.0070           0
     26241 WT11     1115     MECN     C1       CG331   -0.170000       12.0110           0
     26242 WT11     1115     MECN     H11      HGA3     0.090000        1.0080           0
     26243 WT11     1115     MECN     H12      HGA3     0.090000        1.0080           0
     26244 WT11     1115     MECN     H13      HGA3     0.090000        1.0080           0
     26245 WT11     1115     MECN     C2       CG1N1    0.360000       12.0110           0
     26246 WT11     1115     MECN     N3       NG1T1   -0.460000       14.0070           0
     26247 WT11     1123     MECN     C1       CG331   -0.170000       12.0110           0
     26248 WT11     1123     MECN     H11      HGA3     0.090000        1.0080           0
     26249 WT11     1123     MECN     H12      HGA3     0.090000        1.0080           0
     26250 WT11     1123     MECN     H13      HGA3     0.090000        1.0080           0
     26251 WT11     1123     MECN     C2       CG1N1    0.360000       12.0110           0
     26252 WT11     1123     MECN     N3       NG1T1   -0.460000       14.0070           0
     26253 WT11     1127     MECN     C1       CG331   -0.170000       12.0110           0
     26254 WT11     1127     MECN     H11      HGA3     0.090000        1.0080           0
     26255 WT11     1127     MECN     H12      HGA3     0.090000        1.0080           0
     26256 WT11     1127     MECN     H13      HGA3     0.090000        1.0080           0
     26257 WT11     1127     MECN     C2       CG1N1    0.360000       12.0110           0
     26258 WT11     1127     MECN     N3       NG1T1   -0.460000       14.0070           0
     26259 WT11     1129     MECN     C1       CG331   -0.170000       12.0110           0
     26260 WT11     1129     MECN     H11      HGA3     0.090000        1.0080           0
     26261 WT11     1129     MECN     H12      HGA3     0.090000        1.0080           0
     26262 WT11     1129     MECN     H13      HGA3     0.090000        1.0080           0
     26263 WT11     1129     MECN     C2       CG1N1    0.360000       12.0110           0
     26264 WT11     1129     MECN     N3       NG1T1   -0.460000       14.0070           0
     26265 WT11     1130     MECN     C1       CG331   -0.170000       12.0110           0
     26266 WT11     1130     MECN     H11      HGA3     0.090000        1.0080           0
     26267 WT11     1130     MECN     H12      HGA3     0.090000        1.0080           0
     26268 WT11     1130     MECN     H13      HGA3     0.090000        1.0080           0
     26269 WT11     1130     MECN     C2       CG1N1    0.360000       12.0110           0
     26270 WT11     1130     MECN     N3       NG1T1   -0.460000       14.0070           0
     26271 WT11     1134     MECN     C1       CG331   -0.170000       12.0110           0
     26272 WT11     1134     MECN     H11      HGA3     0.090000        1.0080           0
     26273 WT11     1134     MECN     H12      HGA3     0.090000        1.0080           0
     26274 WT11     1134     MECN     H13      HGA3     0.090000        1.0080           0
     26275 WT11     1134     MECN     C2       CG1N1    0.360000       12.0110           0
     26276 WT11     1134     MECN     N3       NG1T1   -0.460000       14.0070           0
     26277 WT11     1138     MECN     C1       CG331   -0.170000       12.0110           0
     26278 WT11     1138     MECN     H11      HGA3     0.090000        1.0080           0
     26279 WT11     1138     MECN     H12      HGA3     0.090000        1.0080           0
     26280 WT11     1138     MECN     H13      HGA3     0.090000        1.0080           0
     26281 WT11     1138     MECN     C2       CG1N1    0.360000       12.0110           0
     26282 WT11     1138     MECN     N3       NG1T1   -0.460000       14.0070           0
     26283 WT11     1139     MECN     C1       CG331   -0.170000       12.0110           0
     26284 WT11     1139     MECN     H11      HGA3     0.090000        1.0080           0
     26285 WT11     1139     MECN     H12      HGA3     0.090000        1.0080           0
     26286 WT11     1139     MECN     H13      HGA3     0.090000        1.0080           0
     26287 WT11     1139     MECN     C2       CG1N1    0.360000       12.0110           0
     26288 WT11     1139     MECN     N3       NG1T1   -0.460000       14.0070           0
     26289 WT11     1140     MECN     C1       CG331   -0.170000       12.0110           0
     26290 WT11     1140     MECN     H11      HGA3     0.090000        1.0080           0
     26291 WT11     1140     MECN     H12      HGA3     0.090000        1.0080           0
     26292 WT11     1140     MECN     H13      HGA3     0.090000        1.0080           0
     26293 WT11     1140     MECN     C2       CG1N1    0.360000       12.0110           0
     26294 WT11     1140     MECN     N3       NG1T1   -0.460000       14.0070           0
     26295 WT11     1141     MECN     C1       CG331   -0.170000       12.0110           0
     26296 WT11     1141     MECN     H11      HGA3     0.090000        1.0080           0
     26297 WT11     1141     MECN     H12      HGA3     0.090000        1.0080           0
     26298 WT11     1141     MECN     H13      HGA3     0.090000        1.0080           0
     26299 WT11     1141     MECN     C2       CG1N1    0.360000       12.0110           0
     26300 WT11     1141     MECN     N3       NG1T1   -0.460000       14.0070           0
     26301 WT11     1142     MECN     C1       CG331   -0.170000       12.0110           0
     26302 WT11     1142     MECN     H11      HGA3     0.090000        1.0080           0
     26303 WT11     1142     MECN     H12      HGA3     0.090000        1.0080           0
     26304 WT11     1142     MECN     H13      HGA3     0.090000        1.0080           0
     26305 WT11     1142     MECN     C2       CG1N1    0.360000       12.0110           0
     26306 WT11     1142     MECN     N3       NG1T1   -0.460000       14.0070           0
     26307 WT11     1143     MECN     C1       CG331   -0.170000       12.0110           0
     26308 WT11     1143     MECN     H11      HGA3     0.090000        1.0080           0
     26309 WT11     1143     MECN     H12      HGA3     0.090000        1.0080           0
     26310 WT11     1143     MECN     H13      HGA3     0.090000        1.0080           0
     26311 WT11     1143     MECN     C2       CG1N1    0.360000       12.0110           0
     26312 WT11     1143     MECN     N3       NG1T1   -0.460000       14.0070           0
     26313 WT11     1144     MECN     C1       CG331   -0.170000       12.0110           0
     26314 WT11     1144     MECN     H11      HGA3     0.090000        1.0080           0
     26315 WT11     1144     MECN     H12      HGA3     0.090000        1.0080           0
     26316 WT11     1144     MECN     H13      HGA3     0.090000        1.0080           0
     26317 WT11     1144     MECN     C2       CG1N1    0.360000       12.0110           0
     26318 WT11     1144     MECN     N3       NG1T1   -0.460000       14.0070           0
     26319 WT11     1153     MECN     C1       CG331   -0.170000       12.0110           0
     26320 WT11     1153     MECN     H11      HGA3     0.090000        1.0080           0
     26321 WT11     1153     MECN     H12      HGA3     0.090000        1.0080           0
     26322 WT11     1153     MECN     H13      HGA3     0.090000        1.0080           0
     26323 WT11     1153     MECN     C2       CG1N1    0.360000       12.0110           0
     26324 WT11     1153     MECN     N3       NG1T1   -0.460000       14.0070           0
     26325 WT11     1154     MECN     C1       CG331   -0.170000       12.0110           0
     26326 WT11     1154     MECN     H11      HGA3     0.090000        1.0080           0
     26327 WT11     1154     MECN     H12      HGA3     0.090000        1.0080           0
     26328 WT11     1154     MECN     H13      HGA3     0.090000        1.0080           0
     26329 WT11     1154     MECN     C2       CG1N1    0.360000       12.0110           0
     26330 WT11     1154     MECN     N3       NG1T1   -0.460000       14.0070           0
     26331 WT11     1157     MECN     C1       CG331   -0.170000       12.0110           0
     26332 WT11     1157     MECN     H11      HGA3     0.090000        1.0080           0
     26333 WT11     1157     MECN     H12      HGA3     0.090000        1.0080           0
     26334 WT11     1157     MECN     H13      HGA3     0.090000        1.0080           0
     26335 WT11     1157     MECN     C2       CG1N1    0.360000       12.0110           0
     26336 WT11     1157     MECN     N3       NG1T1   -0.460000       14.0070           0
     26337 WT11     1164     MECN     C1       CG331   -0.170000       12.0110           0
     26338 WT11     1164     MECN     H11      HGA3     0.090000        1.0080           0
     26339 WT11     1164     MECN     H12      HGA3     0.090000        1.0080           0
     26340 WT11     1164     MECN     H13      HGA3     0.090000        1.0080           0
     26341 WT11     1164     MECN     C2       CG1N1    0.360000       12.0110           0
     26342 WT11     1164     MECN     N3       NG1T1   -0.460000       14.0070           0
     26343 WT11     1165     MECN     C1       CG331   -0.170000       12.0110           0
     26344 WT11     1165     MECN     H11      HGA3     0.090000        1.0080           0
     26345 WT11     1165     MECN     H12      HGA3     0.090000        1.0080           0
     26346 WT11     1165     MECN     H13      HGA3     0.090000        1.0080           0
     26347 WT11     1165     MECN     C2       CG1N1    0.360000       12.0110           0
     26348 WT11     1165     MECN     N3       NG1T1   -0.460000       14.0070           0
     26349 WT11     1166     MECN     C1       CG331   -0.170000       12.0110           0
     26350 WT11     1166     MECN     H11      HGA3     0.090000        1.0080           0
     26351 WT11     1166     MECN     H12      HGA3     0.090000        1.0080           0
     26352 WT11     1166     MECN     H13      HGA3     0.090000        1.0080           0
     26353 WT11     1166     MECN     C2       CG1N1    0.360000       12.0110           0
     26354 WT11     1166     MECN     N3       NG1T1   -0.460000       14.0070           0
     26355 WT11     1167     MECN     C1       CG331   -0.170000       12.0110           0
     26356 WT11     1167     MECN     H11      HGA3     0.090000        1.0080           0
     26357 WT11     1167     MECN     H12      HGA3     0.090000        1.0080           0
     26358 WT11     1167     MECN     H13      HGA3     0.090000        1.0080           0
     26359 WT11     1167     MECN     C2       CG1N1    0.360000       12.0110           0
     26360 WT11     1167     MECN     N3       NG1T1   -0.460000       14.0070           0
     26361 WT11     1169     MECN     C1       CG331   -0.170000       12.0110           0
     26362 WT11     1169     MECN     H11      HGA3     0.090000        1.0080           0
     26363 WT11     1169     MECN     H12      HGA3     0.090000        1.0080           0
     26364 WT11     1169     MECN     H13      HGA3     0.090000        1.0080           0
     26365 WT11     1169     MECN     C2       CG1N1    0.360000       12.0110           0
     26366 WT11     1169     MECN     N3       NG1T1   -0.460000       14.0070           0
     26367 WT11     1172     MECN     C1       CG331   -0.170000       12.0110           0
     26368 WT11     1172     MECN     H11      HGA3     0.090000        1.0080           0
     26369 WT11     1172     MECN     H12      HGA3     0.090000        1.0080           0
     26370 WT11     1172     MECN     H13      HGA3     0.090000        1.0080           0
     26371 WT11     1172     MECN     C2       CG1N1    0.360000       12.0110           0
     26372 WT11     1172     MECN     N3       NG1T1   -0.460000       14.0070           0
     26373 WT11     1173     MECN     C1       CG331   -0.170000       12.0110           0
     26374 WT11     1173     MECN     H11      HGA3     0.090000        1.0080           0
     26375 WT11     1173     MECN     H12      HGA3     0.090000        1.0080           0
     26376 WT11     1173     MECN     H13      HGA3     0.090000        1.0080           0
     26377 WT11     1173     MECN     C2       CG1N1    0.360000       12.0110           0
     26378 WT11     1173     MECN     N3       NG1T1   -0.460000       14.0070           0
     26379 WT11     1174     MECN     C1       CG331   -0.170000       12.0110           0
     26380 WT11     1174     MECN     H11      HGA3     0.090000        1.0080           0
     26381 WT11     1174     MECN     H12      HGA3     0.090000        1.0080           0
     26382 WT11     1174     MECN     H13      HGA3     0.090000        1.0080           0
     26383 WT11     1174     MECN     C2       CG1N1    0.360000       12.0110           0
     26384 WT11     1174     MECN     N3       NG1T1   -0.460000       14.0070           0
     26385 WT11     1178     MECN     C1       CG331   -0.170000       12.0110           0
     26386 WT11     1178     MECN     H11      HGA3     0.090000        1.0080           0
     26387 WT11     1178     MECN     H12      HGA3     0.090000        1.0080           0
     26388 WT11     1178     MECN     H13      HGA3     0.090000        1.0080           0
     26389 WT11     1178     MECN     C2       CG1N1    0.360000       12.0110           0
     26390 WT11     1178     MECN     N3       NG1T1   -0.460000       14.0070           0
     26391 WT11     1180     MECN     C1       CG331   -0.170000       12.0110           0
     26392 WT11     1180     MECN     H11      HGA3     0.090000        1.0080           0
     26393 WT11     1180     MECN     H12      HGA3     0.090000        1.0080           0
     26394 WT11     1180     MECN     H13      HGA3     0.090000        1.0080           0
     26395 WT11     1180     MECN     C2       CG1N1    0.360000       12.0110           0
     26396 WT11     1180     MECN     N3       NG1T1   -0.460000       14.0070           0
     26397 WT11     1181     MECN     C1       CG331   -0.170000       12.0110           0
     26398 WT11     1181     MECN     H11      HGA3     0.090000        1.0080           0
     26399 WT11     1181     MECN     H12      HGA3     0.090000        1.0080           0
     26400 WT11     1181     MECN     H13      HGA3     0.090000        1.0080           0
     26401 WT11     1181     MECN     C2       CG1N1    0.360000       12.0110           0
     26402 WT11     1181     MECN     N3       NG1T1   -0.460000       14.0070           0
     26403 WT11     1186     MECN     C1       CG331   -0.170000       12.0110           0
     26404 WT11     1186     MECN     H11      HGA3     0.090000        1.0080           0
     26405 WT11     1186     MECN     H12      HGA3     0.090000        1.0080           0
     26406 WT11     1186     MECN     H13      HGA3     0.090000        1.0080           0
     26407 WT11     1186     MECN     C2       CG1N1    0.360000       12.0110           0
     26408 WT11     1186     MECN     N3       NG1T1   -0.460000       14.0070           0
     26409 WT11     1187     MECN     C1       CG331   -0.170000       12.0110           0
     26410 WT11     1187     MECN     H11      HGA3     0.090000        1.0080           0
     26411 WT11     1187     MECN     H12      HGA3     0.090000        1.0080           0
     26412 WT11     1187     MECN     H13      HGA3     0.090000        1.0080           0
     26413 WT11     1187     MECN     C2       CG1N1    0.360000       12.0110           0
     26414 WT11     1187     MECN     N3       NG1T1   -0.460000       14.0070           0
     26415 WT11     1189     MECN     C1       CG331   -0.170000       12.0110           0
     26416 WT11     1189     MECN     H11      HGA3     0.090000        1.0080           0
     26417 WT11     1189     MECN     H12      HGA3     0.090000        1.0080           0
     26418 WT11     1189     MECN     H13      HGA3     0.090000        1.0080           0
     26419 WT11     1189     MECN     C2       CG1N1    0.360000       12.0110           0
     26420 WT11     1189     MECN     N3       NG1T1   -0.460000       14.0070           0
     26421 WT11     1190     MECN     C1       CG331   -0.170000       12.0110           0
     26422 WT11     1190     MECN     H11      HGA3     0.090000        1.0080           0
     26423 WT11     1190     MECN     H12      HGA3     0.090000        1.0080           0
     26424 WT11     1190     MECN     H13      HGA3     0.090000        1.0080           0
     26425 WT11     1190     MECN     C2       CG1N1    0.360000       12.0110           0
     26426 WT11     1190     MECN     N3       NG1T1   -0.460000       14.0070           0
     26427 WT11     1191     MECN     C1       CG331   -0.170000       12.0110           0
     26428 WT11     1191     MECN     H11      HGA3     0.090000        1.0080           0
     26429 WT11     1191     MECN     H12      HGA3     0.090000        1.0080           0
     26430 WT11     1191     MECN     H13      HGA3     0.090000        1.0080           0
     26431 WT11     1191     MECN     C2       CG1N1    0.360000       12.0110           0
     26432 WT11     1191     MECN     N3       NG1T1   -0.460000       14.0070           0
     26433 WT11     1192     MECN     C1       CG331   -0.170000       12.0110           0
     26434 WT11     1192     MECN     H11      HGA3     0.090000        1.0080           0
     26435 WT11     1192     MECN     H12      HGA3     0.090000        1.0080           0
     26436 WT11     1192     MECN     H13      HGA3     0.090000        1.0080           0
     26437 WT11     1192     MECN     C2       CG1N1    0.360000       12.0110           0
     26438 WT11     1192     MECN     N3       NG1T1   -0.460000       14.0070           0
     26439 WT11     1194     MECN     C1       CG331   -0.170000       12.0110           0
     26440 WT11     1194     MECN     H11      HGA3     0.090000        1.0080           0
     26441 WT11     1194     MECN     H12      HGA3     0.090000        1.0080           0
     26442 WT11     1194     MECN     H13      HGA3     0.090000        1.0080           0
     26443 WT11     1194     MECN     C2       CG1N1    0.360000       12.0110           0
     26444 WT11     1194     MECN     N3       NG1T1   -0.460000       14.0070           0
     26445 WT11     1195     MECN     C1       CG331   -0.170000       12.0110           0
     26446 WT11     1195     MECN     H11      HGA3     0.090000        1.0080           0
     26447 WT11     1195     MECN     H12      HGA3     0.090000        1.0080           0
     26448 WT11     1195     MECN     H13      HGA3     0.090000        1.0080           0
     26449 WT11     1195     MECN     C2       CG1N1    0.360000       12.0110           0
     26450 WT11     1195     MECN     N3       NG1T1   -0.460000       14.0070           0
     26451 WT11     1198     MECN     C1       CG331   -0.170000       12.0110           0
     26452 WT11     1198     MECN     H11      HGA3     0.090000        1.0080           0
     26453 WT11     1198     MECN     H12      HGA3     0.090000        1.0080           0
     26454 WT11     1198     MECN     H13      HGA3     0.090000        1.0080           0
     26455 WT11     1198     MECN     C2       CG1N1    0.360000       12.0110           0
     26456 WT11     1198     MECN     N3       NG1T1   -0.460000       14.0070           0
     26457 WT11     1199     MECN     C1       CG331   -0.170000       12.0110           0
     26458 WT11     1199     MECN     H11      HGA3     0.090000        1.0080           0
     26459 WT11     1199     MECN     H12      HGA3     0.090000        1.0080           0
     26460 WT11     1199     MECN     H13      HGA3     0.090000        1.0080           0
     26461 WT11     1199     MECN     C2       CG1N1    0.360000       12.0110           0
     26462 WT11     1199     MECN     N3       NG1T1   -0.460000       14.0070           0
     26463 WT11     1201     MECN     C1       CG331   -0.170000       12.0110           0
     26464 WT11     1201     MECN     H11      HGA3     0.090000        1.0080           0
     26465 WT11     1201     MECN     H12      HGA3     0.090000        1.0080           0
     26466 WT11     1201     MECN     H13      HGA3     0.090000        1.0080           0
     26467 WT11     1201     MECN     C2       CG1N1    0.360000       12.0110           0
     26468 WT11     1201     MECN     N3       NG1T1   -0.460000       14.0070           0
     26469 WT11     1202     MECN     C1       CG331   -0.170000       12.0110           0
     26470 WT11     1202     MECN     H11      HGA3     0.090000        1.0080           0
     26471 WT11     1202     MECN     H12      HGA3     0.090000        1.0080           0
     26472 WT11     1202     MECN     H13      HGA3     0.090000        1.0080           0
     26473 WT11     1202     MECN     C2       CG1N1    0.360000       12.0110           0
     26474 WT11     1202     MECN     N3       NG1T1   -0.460000       14.0070           0
     26475 WT11     1207     MECN     C1       CG331   -0.170000       12.0110           0
     26476 WT11     1207     MECN     H11      HGA3     0.090000        1.0080           0
     26477 WT11     1207     MECN     H12      HGA3     0.090000        1.0080           0
     26478 WT11     1207     MECN     H13      HGA3     0.090000        1.0080           0
     26479 WT11     1207     MECN     C2       CG1N1    0.360000       12.0110           0
     26480 WT11     1207     MECN     N3       NG1T1   -0.460000       14.0070           0
     26481 WT11     1212     MECN     C1       CG331   -0.170000       12.0110           0
     26482 WT11     1212     MECN     H11      HGA3     0.090000        1.0080           0
     26483 WT11     1212     MECN     H12      HGA3     0.090000        1.0080           0
     26484 WT11     1212     MECN     H13      HGA3     0.090000        1.0080           0
     26485 WT11     1212     MECN     C2       CG1N1    0.360000       12.0110           0
     26486 WT11     1212     MECN     N3       NG1T1   -0.460000       14.0070           0
     26487 WT11     1214     MECN     C1       CG331   -0.170000       12.0110           0
     26488 WT11     1214     MECN     H11      HGA3     0.090000        1.0080           0
     26489 WT11     1214     MECN     H12      HGA3     0.090000        1.0080           0
     26490 WT11     1214     MECN     H13      HGA3     0.090000        1.0080           0
     26491 WT11     1214     MECN     C2       CG1N1    0.360000       12.0110           0
     26492 WT11     1214     MECN     N3       NG1T1   -0.460000       14.0070           0
     26493 WT11     1215     MECN     C1       CG331   -0.170000       12.0110           0
     26494 WT11     1215     MECN     H11      HGA3     0.090000        1.0080           0
     26495 WT11     1215     MECN     H12      HGA3     0.090000        1.0080           0
     26496 WT11     1215     MECN     H13      HGA3     0.090000        1.0080           0
     26497 WT11     1215     MECN     C2       CG1N1    0.360000       12.0110           0
     26498 WT11     1215     MECN     N3       NG1T1   -0.460000       14.0070           0
     26499 WT11     1220     MECN     C1       CG331   -0.170000       12.0110           0
     26500 WT11     1220     MECN     H11      HGA3     0.090000        1.0080           0
     26501 WT11     1220     MECN     H12      HGA3     0.090000        1.0080           0
     26502 WT11     1220     MECN     H13      HGA3     0.090000        1.0080           0
     26503 WT11     1220     MECN     C2       CG1N1    0.360000       12.0110           0
     26504 WT11     1220     MECN     N3       NG1T1   -0.460000       14.0070           0
     26505 WT11     1223     MECN     C1       CG331   -0.170000       12.0110           0
     26506 WT11     1223     MECN     H11      HGA3     0.090000        1.0080           0
     26507 WT11     1223     MECN     H12      HGA3     0.090000        1.0080           0
     26508 WT11     1223     MECN     H13      HGA3     0.090000        1.0080           0
     26509 WT11     1223     MECN     C2       CG1N1    0.360000       12.0110           0
     26510 WT11     1223     MECN     N3       NG1T1   -0.460000       14.0070           0
     26511 WT11     1225     MECN     C1       CG331   -0.170000       12.0110           0
     26512 WT11     1225     MECN     H11      HGA3     0.090000        1.0080           0
     26513 WT11     1225     MECN     H12      HGA3     0.090000        1.0080           0
     26514 WT11     1225     MECN     H13      HGA3     0.090000        1.0080           0
     26515 WT11     1225     MECN     C2       CG1N1    0.360000       12.0110           0
     26516 WT11     1225     MECN     N3       NG1T1   -0.460000       14.0070           0
     26517 WT11     1226     MECN     C1       CG331   -0.170000       12.0110           0
     26518 WT11     1226     MECN     H11      HGA3     0.090000        1.0080           0
     26519 WT11     1226     MECN     H12      HGA3     0.090000        1.0080           0
     26520 WT11     1226     MECN     H13      HGA3     0.090000        1.0080           0
     26521 WT11     1226     MECN     C2       CG1N1    0.360000       12.0110           0
     26522 WT11     1226     MECN     N3       NG1T1   -0.460000       14.0070           0
     26523 WT11     1231     MECN     C1       CG331   -0.170000       12.0110           0
     26524 WT11     1231     MECN     H11      HGA3     0.090000        1.0080           0
     26525 WT11     1231     MECN     H12      HGA3     0.090000        1.0080           0
     26526 WT11     1231     MECN     H13      HGA3     0.090000        1.0080           0
     26527 WT11     1231     MECN     C2       CG1N1    0.360000       12.0110           0
     26528 WT11     1231     MECN     N3       NG1T1   -0.460000       14.0070           0
     26529 WT11     1232     MECN     C1       CG331   -0.170000       12.0110           0
     26530 WT11     1232     MECN     H11      HGA3     0.090000        1.0080           0
     26531 WT11     1232     MECN     H12      HGA3     0.090000        1.0080           0
     26532 WT11     1232     MECN     H13      HGA3     0.090000        1.0080           0
     26533 WT11     1232     MECN     C2       CG1N1    0.360000       12.0110           0
     26534 WT11     1232     MECN     N3       NG1T1   -0.460000       14.0070           0
     26535 WT11     1233     MECN     C1       CG331   -0.170000       12.0110           0
     26536 WT11     1233     MECN     H11      HGA3     0.090000        1.0080           0
     26537 WT11     1233     MECN     H12      HGA3     0.090000        1.0080           0
     26538 WT11     1233     MECN     H13      HGA3     0.090000        1.0080           0
     26539 WT11     1233     MECN     C2       CG1N1    0.360000       12.0110           0
     26540 WT11     1233     MECN     N3       NG1T1   -0.460000       14.0070           0
     26541 WT11     1236     MECN     C1       CG331   -0.170000       12.0110           0
     26542 WT11     1236     MECN     H11      HGA3     0.090000        1.0080           0
     26543 WT11     1236     MECN     H12      HGA3     0.090000        1.0080           0
     26544 WT11     1236     MECN     H13      HGA3     0.090000        1.0080           0
     26545 WT11     1236     MECN     C2       CG1N1    0.360000       12.0110           0
     26546 WT11     1236     MECN     N3       NG1T1   -0.460000       14.0070           0
     26547 WT11     1238     MECN     C1       CG331   -0.170000       12.0110           0
     26548 WT11     1238     MECN     H11      HGA3     0.090000        1.0080           0
     26549 WT11     1238     MECN     H12      HGA3     0.090000        1.0080           0
     26550 WT11     1238     MECN     H13      HGA3     0.090000        1.0080           0
     26551 WT11     1238     MECN     C2       CG1N1    0.360000       12.0110           0
     26552 WT11     1238     MECN     N3       NG1T1   -0.460000       14.0070           0
     26553 WT11     1245     MECN     C1       CG331   -0.170000       12.0110           0
     26554 WT11     1245     MECN     H11      HGA3     0.090000        1.0080           0
     26555 WT11     1245     MECN     H12      HGA3     0.090000        1.0080           0
     26556 WT11     1245     MECN     H13      HGA3     0.090000        1.0080           0
     26557 WT11     1245     MECN     C2       CG1N1    0.360000       12.0110           0
     26558 WT11     1245     MECN     N3       NG1T1   -0.460000       14.0070           0
     26559 WT11     1246     MECN     C1       CG331   -0.170000       12.0110           0
     26560 WT11     1246     MECN     H11      HGA3     0.090000        1.0080           0
     26561 WT11     1246     MECN     H12      HGA3     0.090000        1.0080           0
     26562 WT11     1246     MECN     H13      HGA3     0.090000        1.0080           0
     26563 WT11     1246     MECN     C2       CG1N1    0.360000       12.0110           0
     26564 WT11     1246     MECN     N3       NG1T1   -0.460000       14.0070           0
     26565 WT11     1249     MECN     C1       CG331   -0.170000       12.0110           0
     26566 WT11     1249     MECN     H11      HGA3     0.090000        1.0080           0
     26567 WT11     1249     MECN     H12      HGA3     0.090000        1.0080           0
     26568 WT11     1249     MECN     H13      HGA3     0.090000        1.0080           0
     26569 WT11     1249     MECN     C2       CG1N1    0.360000       12.0110           0
     26570 WT11     1249     MECN     N3       NG1T1   -0.460000       14.0070           0
     26571 WT11     1252     MECN     C1       CG331   -0.170000       12.0110           0
     26572 WT11     1252     MECN     H11      HGA3     0.090000        1.0080           0
     26573 WT11     1252     MECN     H12      HGA3     0.090000        1.0080           0
     26574 WT11     1252     MECN     H13      HGA3     0.090000        1.0080           0
     26575 WT11     1252     MECN     C2       CG1N1    0.360000       12.0110           0
     26576 WT11     1252     MECN     N3       NG1T1   -0.460000       14.0070           0
     26577 WT11     1255     MECN     C1       CG331   -0.170000       12.0110           0
     26578 WT11     1255     MECN     H11      HGA3     0.090000        1.0080           0
     26579 WT11     1255     MECN     H12      HGA3     0.090000        1.0080           0
     26580 WT11     1255     MECN     H13      HGA3     0.090000        1.0080           0
     26581 WT11     1255     MECN     C2       CG1N1    0.360000       12.0110           0
     26582 WT11     1255     MECN     N3       NG1T1   -0.460000       14.0070           0
     26583 WT11     1256     MECN     C1       CG331   -0.170000       12.0110           0
     26584 WT11     1256     MECN     H11      HGA3     0.090000        1.0080           0
     26585 WT11     1256     MECN     H12      HGA3     0.090000        1.0080           0
     26586 WT11     1256     MECN     H13      HGA3     0.090000        1.0080           0
     26587 WT11     1256     MECN     C2       CG1N1    0.360000       12.0110           0
     26588 WT11     1256     MECN     N3       NG1T1   -0.460000       14.0070           0
     26589 WT11     1257     MECN     C1       CG331   -0.170000       12.0110           0
     26590 WT11     1257     MECN     H11      HGA3     0.090000        1.0080           0
     26591 WT11     1257     MECN     H12      HGA3     0.090000        1.0080           0
     26592 WT11     1257     MECN     H13      HGA3     0.090000        1.0080           0
     26593 WT11     1257     MECN     C2       CG1N1    0.360000       12.0110           0
     26594 WT11     1257     MECN     N3       NG1T1   -0.460000       14.0070           0
     26595 WT11     1259     MECN     C1       CG331   -0.170000       12.0110           0
     26596 WT11     1259     MECN     H11      HGA3     0.090000        1.0080           0
     26597 WT11     1259     MECN     H12      HGA3     0.090000        1.0080           0
     26598 WT11     1259     MECN     H13      HGA3     0.090000        1.0080           0
     26599 WT11     1259     MECN     C2       CG1N1    0.360000       12.0110           0
     26600 WT11     1259     MECN     N3       NG1T1   -0.460000       14.0070           0
     26601 WT11     1266     MECN     C1       CG331   -0.170000       12.0110           0
     26602 WT11     1266     MECN     H11      HGA3     0.090000        1.0080           0
     26603 WT11     1266     MECN     H12      HGA3     0.090000        1.0080           0
     26604 WT11     1266     MECN     H13      HGA3     0.090000        1.0080           0
     26605 WT11     1266     MECN     C2       CG1N1    0.360000       12.0110           0
     26606 WT11     1266     MECN     N3       NG1T1   -0.460000       14.0070           0
     26607 WT11     1267     MECN     C1       CG331   -0.170000       12.0110           0
     26608 WT11     1267     MECN     H11      HGA3     0.090000        1.0080           0
     26609 WT11     1267     MECN     H12      HGA3     0.090000        1.0080           0
     26610 WT11     1267     MECN     H13      HGA3     0.090000        1.0080           0
     26611 WT11     1267     MECN     C2       CG1N1    0.360000       12.0110           0
     26612 WT11     1267     MECN     N3       NG1T1   -0.460000       14.0070           0
     26613 WT11     1270     MECN     C1       CG331   -0.170000       12.0110           0
     26614 WT11     1270     MECN     H11      HGA3     0.090000        1.0080           0
     26615 WT11     1270     MECN     H12      HGA3     0.090000        1.0080           0
     26616 WT11     1270     MECN     H13      HGA3     0.090000        1.0080           0
     26617 WT11     1270     MECN     C2       CG1N1    0.360000       12.0110           0
     26618 WT11     1270     MECN     N3       NG1T1   -0.460000       14.0070           0
     26619 WT11     1272     MECN     C1       CG331   -0.170000       12.0110           0
     26620 WT11     1272     MECN     H11      HGA3     0.090000        1.0080           0
     26621 WT11     1272     MECN     H12      HGA3     0.090000        1.0080           0
     26622 WT11     1272     MECN     H13      HGA3     0.090000        1.0080           0
     26623 WT11     1272     MECN     C2       CG1N1    0.360000       12.0110           0
     26624 WT11     1272     MECN     N3       NG1T1   -0.460000       14.0070           0
     26625 WT11     1275     MECN     C1       CG331   -0.170000       12.0110           0
     26626 WT11     1275     MECN     H11      HGA3     0.090000        1.0080           0
     26627 WT11     1275     MECN     H12      HGA3     0.090000        1.0080           0
     26628 WT11     1275     MECN     H13      HGA3     0.090000        1.0080           0
     26629 WT11     1275     MECN     C2       CG1N1    0.360000       12.0110           0
     26630 WT11     1275     MECN     N3       NG1T1   -0.460000       14.0070           0
     26631 WT11     1276     MECN     C1       CG331   -0.170000       12.0110           0
     26632 WT11     1276     MECN     H11      HGA3     0.090000        1.0080           0
     26633 WT11     1276     MECN     H12      HGA3     0.090000        1.0080           0
     26634 WT11     1276     MECN     H13      HGA3     0.090000        1.0080           0
     26635 WT11     1276     MECN     C2       CG1N1    0.360000       12.0110           0
     26636 WT11     1276     MECN     N3       NG1T1   -0.460000       14.0070           0
     26637 WT11     1278     MECN     C1       CG331   -0.170000       12.0110           0
     26638 WT11     1278     MECN     H11      HGA3     0.090000        1.0080           0
     26639 WT11     1278     MECN     H12      HGA3     0.090000        1.0080           0
     26640 WT11     1278     MECN     H13      HGA3     0.090000        1.0080           0
     26641 WT11     1278     MECN     C2       CG1N1    0.360000       12.0110           0
     26642 WT11     1278     MECN     N3       NG1T1   -0.460000       14.0070           0
     26643 WT11     1279     MECN     C1       CG331   -0.170000       12.0110           0
     26644 WT11     1279     MECN     H11      HGA3     0.090000        1.0080           0
     26645 WT11     1279     MECN     H12      HGA3     0.090000        1.0080           0
     26646 WT11     1279     MECN     H13      HGA3     0.090000        1.0080           0
     26647 WT11     1279     MECN     C2       CG1N1    0.360000       12.0110           0
     26648 WT11     1279     MECN     N3       NG1T1   -0.460000       14.0070           0
     26649 WT11     1280     MECN     C1       CG331   -0.170000       12.0110           0
     26650 WT11     1280     MECN     H11      HGA3     0.090000        1.0080           0
     26651 WT11     1280     MECN     H12      HGA3     0.090000        1.0080           0
     26652 WT11     1280     MECN     H13      HGA3     0.090000        1.0080           0
     26653 WT11     1280     MECN     C2       CG1N1    0.360000       12.0110           0
     26654 WT11     1280     MECN     N3       NG1T1   -0.460000       14.0070           0
     26655 WT11     1281     MECN     C1       CG331   -0.170000       12.0110           0
     26656 WT11     1281     MECN     H11      HGA3     0.090000        1.0080           0
     26657 WT11     1281     MECN     H12      HGA3     0.090000        1.0080           0
     26658 WT11     1281     MECN     H13      HGA3     0.090000        1.0080           0
     26659 WT11     1281     MECN     C2       CG1N1    0.360000       12.0110           0
     26660 WT11     1281     MECN     N3       NG1T1   -0.460000       14.0070           0
     26661 WT11     1282     MECN     C1       CG331   -0.170000       12.0110           0
     26662 WT11     1282     MECN     H11      HGA3     0.090000        1.0080           0
     26663 WT11     1282     MECN     H12      HGA3     0.090000        1.0080           0
     26664 WT11     1282     MECN     H13      HGA3     0.090000        1.0080           0
     26665 WT11     1282     MECN     C2       CG1N1    0.360000       12.0110           0
     26666 WT11     1282     MECN     N3       NG1T1   -0.460000       14.0070           0
     26667 WT11     1285     MECN     C1       CG331   -0.170000       12.0110           0
     26668 WT11     1285     MECN     H11      HGA3     0.090000        1.0080           0
     26669 WT11     1285     MECN     H12      HGA3     0.090000        1.0080           0
     26670 WT11     1285     MECN     H13      HGA3     0.090000        1.0080           0
     26671 WT11     1285     MECN     C2       CG1N1    0.360000       12.0110           0
     26672 WT11     1285     MECN     N3       NG1T1   -0.460000       14.0070           0
     26673 WT11     1287     MECN     C1       CG331   -0.170000       12.0110           0
     26674 WT11     1287     MECN     H11      HGA3     0.090000        1.0080           0
     26675 WT11     1287     MECN     H12      HGA3     0.090000        1.0080           0
     26676 WT11     1287     MECN     H13      HGA3     0.090000        1.0080           0
     26677 WT11     1287     MECN     C2       CG1N1    0.360000       12.0110           0
     26678 WT11     1287     MECN     N3       NG1T1   -0.460000       14.0070           0
     26679 WT11     1289     MECN     C1       CG331   -0.170000       12.0110           0
     26680 WT11     1289     MECN     H11      HGA3     0.090000        1.0080           0
     26681 WT11     1289     MECN     H12      HGA3     0.090000        1.0080           0
     26682 WT11     1289     MECN     H13      HGA3     0.090000        1.0080           0
     26683 WT11     1289     MECN     C2       CG1N1    0.360000       12.0110           0
     26684 WT11     1289     MECN     N3       NG1T1   -0.460000       14.0070           0
     26685 WT11     1290     MECN     C1       CG331   -0.170000       12.0110           0
     26686 WT11     1290     MECN     H11      HGA3     0.090000        1.0080           0
     26687 WT11     1290     MECN     H12      HGA3     0.090000        1.0080           0
     26688 WT11     1290     MECN     H13      HGA3     0.090000        1.0080           0
     26689 WT11     1290     MECN     C2       CG1N1    0.360000       12.0110           0
     26690 WT11     1290     MECN     N3       NG1T1   -0.460000       14.0070           0
     26691 WT11     1294     MECN     C1       CG331   -0.170000       12.0110           0
     26692 WT11     1294     MECN     H11      HGA3     0.090000        1.0080           0
     26693 WT11     1294     MECN     H12      HGA3     0.090000        1.0080           0
     26694 WT11     1294     MECN     H13      HGA3     0.090000        1.0080           0
     26695 WT11     1294     MECN     C2       CG1N1    0.360000       12.0110           0
     26696 WT11     1294     MECN     N3       NG1T1   -0.460000       14.0070           0
     26697 WT11     1295     MECN     C1       CG331   -0.170000       12.0110           0
     26698 WT11     1295     MECN     H11      HGA3     0.090000        1.0080           0
     26699 WT11     1295     MECN     H12      HGA3     0.090000        1.0080           0
     26700 WT11     1295     MECN     H13      HGA3     0.090000        1.0080           0
     26701 WT11     1295     MECN     C2       CG1N1    0.360000       12.0110           0
     26702 WT11     1295     MECN     N3       NG1T1   -0.460000       14.0070           0
     26703 WT11     1299     MECN     C1       CG331   -0.170000       12.0110           0
     26704 WT11     1299     MECN     H11      HGA3     0.090000        1.0080           0
     26705 WT11     1299     MECN     H12      HGA3     0.090000        1.0080           0
     26706 WT11     1299     MECN     H13      HGA3     0.090000        1.0080           0
     26707 WT11     1299     MECN     C2       CG1N1    0.360000       12.0110           0
     26708 WT11     1299     MECN     N3       NG1T1   -0.460000       14.0070           0
     26709 WT11     1302     MECN     C1       CG331   -0.170000       12.0110           0
     26710 WT11     1302     MECN     H11      HGA3     0.090000        1.0080           0
     26711 WT11     1302     MECN     H12      HGA3     0.090000        1.0080           0
     26712 WT11     1302     MECN     H13      HGA3     0.090000        1.0080           0
     26713 WT11     1302     MECN     C2       CG1N1    0.360000       12.0110           0
     26714 WT11     1302     MECN     N3       NG1T1   -0.460000       14.0070           0
     26715 WT11     1304     MECN     C1       CG331   -0.170000       12.0110           0
     26716 WT11     1304     MECN     H11      HGA3     0.090000        1.0080           0
     26717 WT11     1304     MECN     H12      HGA3     0.090000        1.0080           0
     26718 WT11     1304     MECN     H13      HGA3     0.090000        1.0080           0
     26719 WT11     1304     MECN     C2       CG1N1    0.360000       12.0110           0
     26720 WT11     1304     MECN     N3       NG1T1   -0.460000       14.0070           0
     26721 WT11     1308     MECN     C1       CG331   -0.170000       12.0110           0
     26722 WT11     1308     MECN     H11      HGA3     0.090000        1.0080           0
     26723 WT11     1308     MECN     H12      HGA3     0.090000        1.0080           0
     26724 WT11     1308     MECN     H13      HGA3     0.090000        1.0080           0
     26725 WT11     1308     MECN     C2       CG1N1    0.360000       12.0110           0
     26726 WT11     1308     MECN     N3       NG1T1   -0.460000       14.0070           0
     26727 WT11     1310     MECN     C1       CG331   -0.170000       12.0110           0
     26728 WT11     1310     MECN     H11      HGA3     0.090000        1.0080           0
     26729 WT11     1310     MECN     H12      HGA3     0.090000        1.0080           0
     26730 WT11     1310     MECN     H13      HGA3     0.090000        1.0080           0
     26731 WT11     1310     MECN     C2       CG1N1    0.360000       12.0110           0
     26732 WT11     1310     MECN     N3       NG1T1   -0.460000       14.0070           0
     26733 WT11     1311     MECN     C1       CG331   -0.170000       12.0110           0
     26734 WT11     1311     MECN     H11      HGA3     0.090000        1.0080           0
     26735 WT11     1311     MECN     H12      HGA3     0.090000        1.0080           0
     26736 WT11     1311     MECN     H13      HGA3     0.090000        1.0080           0
     26737 WT11     1311     MECN     C2       CG1N1    0.360000       12.0110           0
     26738 WT11     1311     MECN     N3       NG1T1   -0.460000       14.0070           0
     26739 WT11     1312     MECN     C1       CG331   -0.170000       12.0110           0
     26740 WT11     1312     MECN     H11      HGA3     0.090000        1.0080           0
     26741 WT11     1312     MECN     H12      HGA3     0.090000        1.0080           0
     26742 WT11     1312     MECN     H13      HGA3     0.090000        1.0080           0
     26743 WT11     1312     MECN     C2       CG1N1    0.360000       12.0110           0
     26744 WT11     1312     MECN     N3       NG1T1   -0.460000       14.0070           0
     26745 WT11     1316     MECN     C1       CG331   -0.170000       12.0110           0
     26746 WT11     1316     MECN     H11      HGA3     0.090000        1.0080           0
     26747 WT11     1316     MECN     H12      HGA3     0.090000        1.0080           0
     26748 WT11     1316     MECN     H13      HGA3     0.090000        1.0080           0
     26749 WT11     1316     MECN     C2       CG1N1    0.360000       12.0110           0
     26750 WT11     1316     MECN     N3       NG1T1   -0.460000       14.0070           0
     26751 WT11     1320     MECN     C1       CG331   -0.170000       12.0110           0
     26752 WT11     1320     MECN     H11      HGA3     0.090000        1.0080           0
     26753 WT11     1320     MECN     H12      HGA3     0.090000        1.0080           0
     26754 WT11     1320     MECN     H13      HGA3     0.090000        1.0080           0
     26755 WT11     1320     MECN     C2       CG1N1    0.360000       12.0110           0
     26756 WT11     1320     MECN     N3       NG1T1   -0.460000       14.0070           0
     26757 WT11     1323     MECN     C1       CG331   -0.170000       12.0110           0
     26758 WT11     1323     MECN     H11      HGA3     0.090000        1.0080           0
     26759 WT11     1323     MECN     H12      HGA3     0.090000        1.0080           0
     26760 WT11     1323     MECN     H13      HGA3     0.090000        1.0080           0
     26761 WT11     1323     MECN     C2       CG1N1    0.360000       12.0110           0
     26762 WT11     1323     MECN     N3       NG1T1   -0.460000       14.0070           0
     26763 WT11     1326     MECN     C1       CG331   -0.170000       12.0110           0
     26764 WT11     1326     MECN     H11      HGA3     0.090000        1.0080           0
     26765 WT11     1326     MECN     H12      HGA3     0.090000        1.0080           0
     26766 WT11     1326     MECN     H13      HGA3     0.090000        1.0080           0
     26767 WT11     1326     MECN     C2       CG1N1    0.360000       12.0110           0
     26768 WT11     1326     MECN     N3       NG1T1   -0.460000       14.0070           0
     26769 WT11     1327     MECN     C1       CG331   -0.170000       12.0110           0
     26770 WT11     1327     MECN     H11      HGA3     0.090000        1.0080           0
     26771 WT11     1327     MECN     H12      HGA3     0.090000        1.0080           0
     26772 WT11     1327     MECN     H13      HGA3     0.090000        1.0080           0
     26773 WT11     1327     MECN     C2       CG1N1    0.360000       12.0110           0
     26774 WT11     1327     MECN     N3       NG1T1   -0.460000       14.0070           0
     26775 WT11     1330     MECN     C1       CG331   -0.170000       12.0110           0
     26776 WT11     1330     MECN     H11      HGA3     0.090000        1.0080           0
     26777 WT11     1330     MECN     H12      HGA3     0.090000        1.0080           0
     26778 WT11     1330     MECN     H13      HGA3     0.090000        1.0080           0
     26779 WT11     1330     MECN     C2       CG1N1    0.360000       12.0110           0
     26780 WT11     1330     MECN     N3       NG1T1   -0.460000       14.0070           0
     26781 WT12     3        MECN     C1       CG331   -0.170000       12.0110           0
     26782 WT12     3        MECN     H11      HGA3     0.090000        1.0080           0
     26783 WT12     3        MECN     H12      HGA3     0.090000        1.0080           0
     26784 WT12     3        MECN     H13      HGA3     0.090000        1.0080           0
     26785 WT12     3        MECN     C2       CG1N1    0.360000       12.0110           0
     26786 WT12     3        MECN     N3       NG1T1   -0.460000       14.0070           0
     26787 WT12     6        MECN     C1       CG331   -0.170000       12.0110           0
     26788 WT12     6        MECN     H11      HGA3     0.090000        1.0080           0
     26789 WT12     6        MECN     H12      HGA3     0.090000        1.0080           0
     26790 WT12     6        MECN     H13      HGA3     0.090000        1.0080           0
     26791 WT12     6        MECN     C2       CG1N1    0.360000       12.0110           0
     26792 WT12     6        MECN     N3       NG1T1   -0.460000       14.0070           0
     26793 WT12     10       MECN     C1       CG331   -0.170000       12.0110           0
     26794 WT12     10       MECN     H11      HGA3     0.090000        1.0080           0
     26795 WT12     10       MECN     H12      HGA3     0.090000        1.0080           0
     26796 WT12     10       MECN     H13      HGA3     0.090000        1.0080           0
     26797 WT12     10       MECN     C2       CG1N1    0.360000       12.0110           0
     26798 WT12     10       MECN     N3       NG1T1   -0.460000       14.0070           0
     26799 WT12     12       MECN     C1       CG331   -0.170000       12.0110           0
     26800 WT12     12       MECN     H11      HGA3     0.090000        1.0080           0
     26801 WT12     12       MECN     H12      HGA3     0.090000        1.0080           0
     26802 WT12     12       MECN     H13      HGA3     0.090000        1.0080           0
     26803 WT12     12       MECN     C2       CG1N1    0.360000       12.0110           0
     26804 WT12     12       MECN     N3       NG1T1   -0.460000       14.0070           0
     26805 WT12     14       MECN     C1       CG331   -0.170000       12.0110           0
     26806 WT12     14       MECN     H11      HGA3     0.090000        1.0080           0
     26807 WT12     14       MECN     H12      HGA3     0.090000        1.0080           0
     26808 WT12     14       MECN     H13      HGA3     0.090000        1.0080           0
     26809 WT12     14       MECN     C2       CG1N1    0.360000       12.0110           0
     26810 WT12     14       MECN     N3       NG1T1   -0.460000       14.0070           0
     26811 WT12     18       MECN     C1       CG331   -0.170000       12.0110           0
     26812 WT12     18       MECN     H11      HGA3     0.090000        1.0080           0
     26813 WT12     18       MECN     H12      HGA3     0.090000        1.0080           0
     26814 WT12     18       MECN     H13      HGA3     0.090000        1.0080           0
     26815 WT12     18       MECN     C2       CG1N1    0.360000       12.0110           0
     26816 WT12     18       MECN     N3       NG1T1   -0.460000       14.0070           0
     26817 WT12     21       MECN     C1       CG331   -0.170000       12.0110           0
     26818 WT12     21       MECN     H11      HGA3     0.090000        1.0080           0
     26819 WT12     21       MECN     H12      HGA3     0.090000        1.0080           0
     26820 WT12     21       MECN     H13      HGA3     0.090000        1.0080           0
     26821 WT12     21       MECN     C2       CG1N1    0.360000       12.0110           0
     26822 WT12     21       MECN     N3       NG1T1   -0.460000       14.0070           0
     26823 WT12     22       MECN     C1       CG331   -0.170000       12.0110           0
     26824 WT12     22       MECN     H11      HGA3     0.090000        1.0080           0
     26825 WT12     22       MECN     H12      HGA3     0.090000        1.0080           0
     26826 WT12     22       MECN     H13      HGA3     0.090000        1.0080           0
     26827 WT12     22       MECN     C2       CG1N1    0.360000       12.0110           0
     26828 WT12     22       MECN     N3       NG1T1   -0.460000       14.0070           0
     26829 WT12     27       MECN     C1       CG331   -0.170000       12.0110           0
     26830 WT12     27       MECN     H11      HGA3     0.090000        1.0080           0
     26831 WT12     27       MECN     H12      HGA3     0.090000        1.0080           0
     26832 WT12     27       MECN     H13      HGA3     0.090000        1.0080           0
     26833 WT12     27       MECN     C2       CG1N1    0.360000       12.0110           0
     26834 WT12     27       MECN     N3       NG1T1   -0.460000       14.0070           0
     26835 WT12     28       MECN     C1       CG331   -0.170000       12.0110           0
     26836 WT12     28       MECN     H11      HGA3     0.090000        1.0080           0
     26837 WT12     28       MECN     H12      HGA3     0.090000        1.0080           0
     26838 WT12     28       MECN     H13      HGA3     0.090000        1.0080           0
     26839 WT12     28       MECN     C2       CG1N1    0.360000       12.0110           0
     26840 WT12     28       MECN     N3       NG1T1   -0.460000       14.0070           0
     26841 WT12     29       MECN     C1       CG331   -0.170000       12.0110           0
     26842 WT12     29       MECN     H11      HGA3     0.090000        1.0080           0
     26843 WT12     29       MECN     H12      HGA3     0.090000        1.0080           0
     26844 WT12     29       MECN     H13      HGA3     0.090000        1.0080           0
     26845 WT12     29       MECN     C2       CG1N1    0.360000       12.0110           0
     26846 WT12     29       MECN     N3       NG1T1   -0.460000       14.0070           0
     26847 WT12     32       MECN     C1       CG331   -0.170000       12.0110           0
     26848 WT12     32       MECN     H11      HGA3     0.090000        1.0080           0
     26849 WT12     32       MECN     H12      HGA3     0.090000        1.0080           0
     26850 WT12     32       MECN     H13      HGA3     0.090000        1.0080           0
     26851 WT12     32       MECN     C2       CG1N1    0.360000       12.0110           0
     26852 WT12     32       MECN     N3       NG1T1   -0.460000       14.0070           0
     26853 WT12     38       MECN     C1       CG331   -0.170000       12.0110           0
     26854 WT12     38       MECN     H11      HGA3     0.090000        1.0080           0
     26855 WT12     38       MECN     H12      HGA3     0.090000        1.0080           0
     26856 WT12     38       MECN     H13      HGA3     0.090000        1.0080           0
     26857 WT12     38       MECN     C2       CG1N1    0.360000       12.0110           0
     26858 WT12     38       MECN     N3       NG1T1   -0.460000       14.0070           0
     26859 WT12     44       MECN     C1       CG331   -0.170000       12.0110           0
     26860 WT12     44       MECN     H11      HGA3     0.090000        1.0080           0
     26861 WT12     44       MECN     H12      HGA3     0.090000        1.0080           0
     26862 WT12     44       MECN     H13      HGA3     0.090000        1.0080           0
     26863 WT12     44       MECN     C2       CG1N1    0.360000       12.0110           0
     26864 WT12     44       MECN     N3       NG1T1   -0.460000       14.0070           0
     26865 WT12     47       MECN     C1       CG331   -0.170000       12.0110           0
     26866 WT12     47       MECN     H11      HGA3     0.090000        1.0080           0
     26867 WT12     47       MECN     H12      HGA3     0.090000        1.0080           0
     26868 WT12     47       MECN     H13      HGA3     0.090000        1.0080           0
     26869 WT12     47       MECN     C2       CG1N1    0.360000       12.0110           0
     26870 WT12     47       MECN     N3       NG1T1   -0.460000       14.0070           0
     26871 WT12     49       MECN     C1       CG331   -0.170000       12.0110           0
     26872 WT12     49       MECN     H11      HGA3     0.090000        1.0080           0
     26873 WT12     49       MECN     H12      HGA3     0.090000        1.0080           0
     26874 WT12     49       MECN     H13      HGA3     0.090000        1.0080           0
     26875 WT12     49       MECN     C2       CG1N1    0.360000       12.0110           0
     26876 WT12     49       MECN     N3       NG1T1   -0.460000       14.0070           0
     26877 WT12     55       MECN     C1       CG331   -0.170000       12.0110           0
     26878 WT12     55       MECN     H11      HGA3     0.090000        1.0080           0
     26879 WT12     55       MECN     H12      HGA3     0.090000        1.0080           0
     26880 WT12     55       MECN     H13      HGA3     0.090000        1.0080           0
     26881 WT12     55       MECN     C2       CG1N1    0.360000       12.0110           0
     26882 WT12     55       MECN     N3       NG1T1   -0.460000       14.0070           0
     26883 WT12     61       MECN     C1       CG331   -0.170000       12.0110           0
     26884 WT12     61       MECN     H11      HGA3     0.090000        1.0080           0
     26885 WT12     61       MECN     H12      HGA3     0.090000        1.0080           0
     26886 WT12     61       MECN     H13      HGA3     0.090000        1.0080           0
     26887 WT12     61       MECN     C2       CG1N1    0.360000       12.0110           0
     26888 WT12     61       MECN     N3       NG1T1   -0.460000       14.0070           0
     26889 WT12     64       MECN     C1       CG331   -0.170000       12.0110           0
     26890 WT12     64       MECN     H11      HGA3     0.090000        1.0080           0
     26891 WT12     64       MECN     H12      HGA3     0.090000        1.0080           0
     26892 WT12     64       MECN     H13      HGA3     0.090000        1.0080           0
     26893 WT12     64       MECN     C2       CG1N1    0.360000       12.0110           0
     26894 WT12     64       MECN     N3       NG1T1   -0.460000       14.0070           0
     26895 WT12     65       MECN     C1       CG331   -0.170000       12.0110           0
     26896 WT12     65       MECN     H11      HGA3     0.090000        1.0080           0
     26897 WT12     65       MECN     H12      HGA3     0.090000        1.0080           0
     26898 WT12     65       MECN     H13      HGA3     0.090000        1.0080           0
     26899 WT12     65       MECN     C2       CG1N1    0.360000       12.0110           0
     26900 WT12     65       MECN     N3       NG1T1   -0.460000       14.0070           0
     26901 WT12     66       MECN     C1       CG331   -0.170000       12.0110           0
     26902 WT12     66       MECN     H11      HGA3     0.090000        1.0080           0
     26903 WT12     66       MECN     H12      HGA3     0.090000        1.0080           0
     26904 WT12     66       MECN     H13      HGA3     0.090000        1.0080           0
     26905 WT12     66       MECN     C2       CG1N1    0.360000       12.0110           0
     26906 WT12     66       MECN     N3       NG1T1   -0.460000       14.0070           0
     26907 WT12     70       MECN     C1       CG331   -0.170000       12.0110           0
     26908 WT12     70       MECN     H11      HGA3     0.090000        1.0080           0
     26909 WT12     70       MECN     H12      HGA3     0.090000        1.0080           0
     26910 WT12     70       MECN     H13      HGA3     0.090000        1.0080           0
     26911 WT12     70       MECN     C2       CG1N1    0.360000       12.0110           0
     26912 WT12     70       MECN     N3       NG1T1   -0.460000       14.0070           0
     26913 WT12     74       MECN     C1       CG331   -0.170000       12.0110           0
     26914 WT12     74       MECN     H11      HGA3     0.090000        1.0080           0
     26915 WT12     74       MECN     H12      HGA3     0.090000        1.0080           0
     26916 WT12     74       MECN     H13      HGA3     0.090000        1.0080           0
     26917 WT12     74       MECN     C2       CG1N1    0.360000       12.0110           0
     26918 WT12     74       MECN     N3       NG1T1   -0.460000       14.0070           0
     26919 WT12     76       MECN     C1       CG331   -0.170000       12.0110           0
     26920 WT12     76       MECN     H11      HGA3     0.090000        1.0080           0
     26921 WT12     76       MECN     H12      HGA3     0.090000        1.0080           0
     26922 WT12     76       MECN     H13      HGA3     0.090000        1.0080           0
     26923 WT12     76       MECN     C2       CG1N1    0.360000       12.0110           0
     26924 WT12     76       MECN     N3       NG1T1   -0.460000       14.0070           0
     26925 WT12     83       MECN     C1       CG331   -0.170000       12.0110           0
     26926 WT12     83       MECN     H11      HGA3     0.090000        1.0080           0
     26927 WT12     83       MECN     H12      HGA3     0.090000        1.0080           0
     26928 WT12     83       MECN     H13      HGA3     0.090000        1.0080           0
     26929 WT12     83       MECN     C2       CG1N1    0.360000       12.0110           0
     26930 WT12     83       MECN     N3       NG1T1   -0.460000       14.0070           0
     26931 WT12     85       MECN     C1       CG331   -0.170000       12.0110           0
     26932 WT12     85       MECN     H11      HGA3     0.090000        1.0080           0
     26933 WT12     85       MECN     H12      HGA3     0.090000        1.0080           0
     26934 WT12     85       MECN     H13      HGA3     0.090000        1.0080           0
     26935 WT12     85       MECN     C2       CG1N1    0.360000       12.0110           0
     26936 WT12     85       MECN     N3       NG1T1   -0.460000       14.0070           0
     26937 WT12     87       MECN     C1       CG331   -0.170000       12.0110           0
     26938 WT12     87       MECN     H11      HGA3     0.090000        1.0080           0
     26939 WT12     87       MECN     H12      HGA3     0.090000        1.0080           0
     26940 WT12     87       MECN     H13      HGA3     0.090000        1.0080           0
     26941 WT12     87       MECN     C2       CG1N1    0.360000       12.0110           0
     26942 WT12     87       MECN     N3       NG1T1   -0.460000       14.0070           0
     26943 WT12     88       MECN     C1       CG331   -0.170000       12.0110           0
     26944 WT12     88       MECN     H11      HGA3     0.090000        1.0080           0
     26945 WT12     88       MECN     H12      HGA3     0.090000        1.0080           0
     26946 WT12     88       MECN     H13      HGA3     0.090000        1.0080           0
     26947 WT12     88       MECN     C2       CG1N1    0.360000       12.0110           0
     26948 WT12     88       MECN     N3       NG1T1   -0.460000       14.0070           0
     26949 WT12     89       MECN     C1       CG331   -0.170000       12.0110           0
     26950 WT12     89       MECN     H11      HGA3     0.090000        1.0080           0
     26951 WT12     89       MECN     H12      HGA3     0.090000        1.0080           0
     26952 WT12     89       MECN     H13      HGA3     0.090000        1.0080           0
     26953 WT12     89       MECN     C2       CG1N1    0.360000       12.0110           0
     26954 WT12     89       MECN     N3       NG1T1   -0.460000       14.0070           0
     26955 WT12     96       MECN     C1       CG331   -0.170000       12.0110           0
     26956 WT12     96       MECN     H11      HGA3     0.090000        1.0080           0
     26957 WT12     96       MECN     H12      HGA3     0.090000        1.0080           0
     26958 WT12     96       MECN     H13      HGA3     0.090000        1.0080           0
     26959 WT12     96       MECN     C2       CG1N1    0.360000       12.0110           0
     26960 WT12     96       MECN     N3       NG1T1   -0.460000       14.0070           0
     26961 WT12     98       MECN     C1       CG331   -0.170000       12.0110           0
     26962 WT12     98       MECN     H11      HGA3     0.090000        1.0080           0
     26963 WT12     98       MECN     H12      HGA3     0.090000        1.0080           0
     26964 WT12     98       MECN     H13      HGA3     0.090000        1.0080           0
     26965 WT12     98       MECN     C2       CG1N1    0.360000       12.0110           0
     26966 WT12     98       MECN     N3       NG1T1   -0.460000       14.0070           0
     26967 WT12     106      MECN     C1       CG331   -0.170000       12.0110           0
     26968 WT12     106      MECN     H11      HGA3     0.090000        1.0080           0
     26969 WT12     106      MECN     H12      HGA3     0.090000        1.0080           0
     26970 WT12     106      MECN     H13      HGA3     0.090000        1.0080           0
     26971 WT12     106      MECN     C2       CG1N1    0.360000       12.0110           0
     26972 WT12     106      MECN     N3       NG1T1   -0.460000       14.0070           0
     26973 WT12     108      MECN     C1       CG331   -0.170000       12.0110           0
     26974 WT12     108      MECN     H11      HGA3     0.090000        1.0080           0
     26975 WT12     108      MECN     H12      HGA3     0.090000        1.0080           0
     26976 WT12     108      MECN     H13      HGA3     0.090000        1.0080           0
     26977 WT12     108      MECN     C2       CG1N1    0.360000       12.0110           0
     26978 WT12     108      MECN     N3       NG1T1   -0.460000       14.0070           0
     26979 WT12     109      MECN     C1       CG331   -0.170000       12.0110           0
     26980 WT12     109      MECN     H11      HGA3     0.090000        1.0080           0
     26981 WT12     109      MECN     H12      HGA3     0.090000        1.0080           0
     26982 WT12     109      MECN     H13      HGA3     0.090000        1.0080           0
     26983 WT12     109      MECN     C2       CG1N1    0.360000       12.0110           0
     26984 WT12     109      MECN     N3       NG1T1   -0.460000       14.0070           0
     26985 WT12     110      MECN     C1       CG331   -0.170000       12.0110           0
     26986 WT12     110      MECN     H11      HGA3     0.090000        1.0080           0
     26987 WT12     110      MECN     H12      HGA3     0.090000        1.0080           0
     26988 WT12     110      MECN     H13      HGA3     0.090000        1.0080           0
     26989 WT12     110      MECN     C2       CG1N1    0.360000       12.0110           0
     26990 WT12     110      MECN     N3       NG1T1   -0.460000       14.0070           0
     26991 WT12     112      MECN     C1       CG331   -0.170000       12.0110           0
     26992 WT12     112      MECN     H11      HGA3     0.090000        1.0080           0
     26993 WT12     112      MECN     H12      HGA3     0.090000        1.0080           0
     26994 WT12     112      MECN     H13      HGA3     0.090000        1.0080           0
     26995 WT12     112      MECN     C2       CG1N1    0.360000       12.0110           0
     26996 WT12     112      MECN     N3       NG1T1   -0.460000       14.0070           0
     26997 WT12     113      MECN     C1       CG331   -0.170000       12.0110           0
     26998 WT12     113      MECN     H11      HGA3     0.090000        1.0080           0
     26999 WT12     113      MECN     H12      HGA3     0.090000        1.0080           0
     27000 WT12     113      MECN     H13      HGA3     0.090000        1.0080           0
     27001 WT12     113      MECN     C2       CG1N1    0.360000       12.0110           0
     27002 WT12     113      MECN     N3       NG1T1   -0.460000       14.0070           0
     27003 WT12     117      MECN     C1       CG331   -0.170000       12.0110           0
     27004 WT12     117      MECN     H11      HGA3     0.090000        1.0080           0
     27005 WT12     117      MECN     H12      HGA3     0.090000        1.0080           0
     27006 WT12     117      MECN     H13      HGA3     0.090000        1.0080           0
     27007 WT12     117      MECN     C2       CG1N1    0.360000       12.0110           0
     27008 WT12     117      MECN     N3       NG1T1   -0.460000       14.0070           0
     27009 WT12     118      MECN     C1       CG331   -0.170000       12.0110           0
     27010 WT12     118      MECN     H11      HGA3     0.090000        1.0080           0
     27011 WT12     118      MECN     H12      HGA3     0.090000        1.0080           0
     27012 WT12     118      MECN     H13      HGA3     0.090000        1.0080           0
     27013 WT12     118      MECN     C2       CG1N1    0.360000       12.0110           0
     27014 WT12     118      MECN     N3       NG1T1   -0.460000       14.0070           0
     27015 WT12     119      MECN     C1       CG331   -0.170000       12.0110           0
     27016 WT12     119      MECN     H11      HGA3     0.090000        1.0080           0
     27017 WT12     119      MECN     H12      HGA3     0.090000        1.0080           0
     27018 WT12     119      MECN     H13      HGA3     0.090000        1.0080           0
     27019 WT12     119      MECN     C2       CG1N1    0.360000       12.0110           0
     27020 WT12     119      MECN     N3       NG1T1   -0.460000       14.0070           0
     27021 WT12     122      MECN     C1       CG331   -0.170000       12.0110           0
     27022 WT12     122      MECN     H11      HGA3     0.090000        1.0080           0
     27023 WT12     122      MECN     H12      HGA3     0.090000        1.0080           0
     27024 WT12     122      MECN     H13      HGA3     0.090000        1.0080           0
     27025 WT12     122      MECN     C2       CG1N1    0.360000       12.0110           0
     27026 WT12     122      MECN     N3       NG1T1   -0.460000       14.0070           0
     27027 WT12     123      MECN     C1       CG331   -0.170000       12.0110           0
     27028 WT12     123      MECN     H11      HGA3     0.090000        1.0080           0
     27029 WT12     123      MECN     H12      HGA3     0.090000        1.0080           0
     27030 WT12     123      MECN     H13      HGA3     0.090000        1.0080           0
     27031 WT12     123      MECN     C2       CG1N1    0.360000       12.0110           0
     27032 WT12     123      MECN     N3       NG1T1   -0.460000       14.0070           0
     27033 WT12     124      MECN     C1       CG331   -0.170000       12.0110           0
     27034 WT12     124      MECN     H11      HGA3     0.090000        1.0080           0
     27035 WT12     124      MECN     H12      HGA3     0.090000        1.0080           0
     27036 WT12     124      MECN     H13      HGA3     0.090000        1.0080           0
     27037 WT12     124      MECN     C2       CG1N1    0.360000       12.0110           0
     27038 WT12     124      MECN     N3       NG1T1   -0.460000       14.0070           0
     27039 WT12     125      MECN     C1       CG331   -0.170000       12.0110           0
     27040 WT12     125      MECN     H11      HGA3     0.090000        1.0080           0
     27041 WT12     125      MECN     H12      HGA3     0.090000        1.0080           0
     27042 WT12     125      MECN     H13      HGA3     0.090000        1.0080           0
     27043 WT12     125      MECN     C2       CG1N1    0.360000       12.0110           0
     27044 WT12     125      MECN     N3       NG1T1   -0.460000       14.0070           0
     27045 WT12     127      MECN     C1       CG331   -0.170000       12.0110           0
     27046 WT12     127      MECN     H11      HGA3     0.090000        1.0080           0
     27047 WT12     127      MECN     H12      HGA3     0.090000        1.0080           0
     27048 WT12     127      MECN     H13      HGA3     0.090000        1.0080           0
     27049 WT12     127      MECN     C2       CG1N1    0.360000       12.0110           0
     27050 WT12     127      MECN     N3       NG1T1   -0.460000       14.0070           0
     27051 WT12     132      MECN     C1       CG331   -0.170000       12.0110           0
     27052 WT12     132      MECN     H11      HGA3     0.090000        1.0080           0
     27053 WT12     132      MECN     H12      HGA3     0.090000        1.0080           0
     27054 WT12     132      MECN     H13      HGA3     0.090000        1.0080           0
     27055 WT12     132      MECN     C2       CG1N1    0.360000       12.0110           0
     27056 WT12     132      MECN     N3       NG1T1   -0.460000       14.0070           0
     27057 WT12     135      MECN     C1       CG331   -0.170000       12.0110           0
     27058 WT12     135      MECN     H11      HGA3     0.090000        1.0080           0
     27059 WT12     135      MECN     H12      HGA3     0.090000        1.0080           0
     27060 WT12     135      MECN     H13      HGA3     0.090000        1.0080           0
     27061 WT12     135      MECN     C2       CG1N1    0.360000       12.0110           0
     27062 WT12     135      MECN     N3       NG1T1   -0.460000       14.0070           0
     27063 WT12     143      MECN     C1       CG331   -0.170000       12.0110           0
     27064 WT12     143      MECN     H11      HGA3     0.090000        1.0080           0
     27065 WT12     143      MECN     H12      HGA3     0.090000        1.0080           0
     27066 WT12     143      MECN     H13      HGA3     0.090000        1.0080           0
     27067 WT12     143      MECN     C2       CG1N1    0.360000       12.0110           0
     27068 WT12     143      MECN     N3       NG1T1   -0.460000       14.0070           0
     27069 WT12     145      MECN     C1       CG331   -0.170000       12.0110           0
     27070 WT12     145      MECN     H11      HGA3     0.090000        1.0080           0
     27071 WT12     145      MECN     H12      HGA3     0.090000        1.0080           0
     27072 WT12     145      MECN     H13      HGA3     0.090000        1.0080           0
     27073 WT12     145      MECN     C2       CG1N1    0.360000       12.0110           0
     27074 WT12     145      MECN     N3       NG1T1   -0.460000       14.0070           0
     27075 WT12     150      MECN     C1       CG331   -0.170000       12.0110           0
     27076 WT12     150      MECN     H11      HGA3     0.090000        1.0080           0
     27077 WT12     150      MECN     H12      HGA3     0.090000        1.0080           0
     27078 WT12     150      MECN     H13      HGA3     0.090000        1.0080           0
     27079 WT12     150      MECN     C2       CG1N1    0.360000       12.0110           0
     27080 WT12     150      MECN     N3       NG1T1   -0.460000       14.0070           0
     27081 WT12     151      MECN     C1       CG331   -0.170000       12.0110           0
     27082 WT12     151      MECN     H11      HGA3     0.090000        1.0080           0
     27083 WT12     151      MECN     H12      HGA3     0.090000        1.0080           0
     27084 WT12     151      MECN     H13      HGA3     0.090000        1.0080           0
     27085 WT12     151      MECN     C2       CG1N1    0.360000       12.0110           0
     27086 WT12     151      MECN     N3       NG1T1   -0.460000       14.0070           0
     27087 WT12     154      MECN     C1       CG331   -0.170000       12.0110           0
     27088 WT12     154      MECN     H11      HGA3     0.090000        1.0080           0
     27089 WT12     154      MECN     H12      HGA3     0.090000        1.0080           0
     27090 WT12     154      MECN     H13      HGA3     0.090000        1.0080           0
     27091 WT12     154      MECN     C2       CG1N1    0.360000       12.0110           0
     27092 WT12     154      MECN     N3       NG1T1   -0.460000       14.0070           0
     27093 WT12     155      MECN     C1       CG331   -0.170000       12.0110           0
     27094 WT12     155      MECN     H11      HGA3     0.090000        1.0080           0
     27095 WT12     155      MECN     H12      HGA3     0.090000        1.0080           0
     27096 WT12     155      MECN     H13      HGA3     0.090000        1.0080           0
     27097 WT12     155      MECN     C2       CG1N1    0.360000       12.0110           0
     27098 WT12     155      MECN     N3       NG1T1   -0.460000       14.0070           0
     27099 WT12     168      MECN     C1       CG331   -0.170000       12.0110           0
     27100 WT12     168      MECN     H11      HGA3     0.090000        1.0080           0
     27101 WT12     168      MECN     H12      HGA3     0.090000        1.0080           0
     27102 WT12     168      MECN     H13      HGA3     0.090000        1.0080           0
     27103 WT12     168      MECN     C2       CG1N1    0.360000       12.0110           0
     27104 WT12     168      MECN     N3       NG1T1   -0.460000       14.0070           0
     27105 WT12     169      MECN     C1       CG331   -0.170000       12.0110           0
     27106 WT12     169      MECN     H11      HGA3     0.090000        1.0080           0
     27107 WT12     169      MECN     H12      HGA3     0.090000        1.0080           0
     27108 WT12     169      MECN     H13      HGA3     0.090000        1.0080           0
     27109 WT12     169      MECN     C2       CG1N1    0.360000       12.0110           0
     27110 WT12     169      MECN     N3       NG1T1   -0.460000       14.0070           0
     27111 WT12     172      MECN     C1       CG331   -0.170000       12.0110           0
     27112 WT12     172      MECN     H11      HGA3     0.090000        1.0080           0
     27113 WT12     172      MECN     H12      HGA3     0.090000        1.0080           0
     27114 WT12     172      MECN     H13      HGA3     0.090000        1.0080           0
     27115 WT12     172      MECN     C2       CG1N1    0.360000       12.0110           0
     27116 WT12     172      MECN     N3       NG1T1   -0.460000       14.0070           0
     27117 WT12     174      MECN     C1       CG331   -0.170000       12.0110           0
     27118 WT12     174      MECN     H11      HGA3     0.090000        1.0080           0
     27119 WT12     174      MECN     H12      HGA3     0.090000        1.0080           0
     27120 WT12     174      MECN     H13      HGA3     0.090000        1.0080           0
     27121 WT12     174      MECN     C2       CG1N1    0.360000       12.0110           0
     27122 WT12     174      MECN     N3       NG1T1   -0.460000       14.0070           0
     27123 WT12     175      MECN     C1       CG331   -0.170000       12.0110           0
     27124 WT12     175      MECN     H11      HGA3     0.090000        1.0080           0
     27125 WT12     175      MECN     H12      HGA3     0.090000        1.0080           0
     27126 WT12     175      MECN     H13      HGA3     0.090000        1.0080           0
     27127 WT12     175      MECN     C2       CG1N1    0.360000       12.0110           0
     27128 WT12     175      MECN     N3       NG1T1   -0.460000       14.0070           0
     27129 WT12     181      MECN     C1       CG331   -0.170000       12.0110           0
     27130 WT12     181      MECN     H11      HGA3     0.090000        1.0080           0
     27131 WT12     181      MECN     H12      HGA3     0.090000        1.0080           0
     27132 WT12     181      MECN     H13      HGA3     0.090000        1.0080           0
     27133 WT12     181      MECN     C2       CG1N1    0.360000       12.0110           0
     27134 WT12     181      MECN     N3       NG1T1   -0.460000       14.0070           0
     27135 WT12     182      MECN     C1       CG331   -0.170000       12.0110           0
     27136 WT12     182      MECN     H11      HGA3     0.090000        1.0080           0
     27137 WT12     182      MECN     H12      HGA3     0.090000        1.0080           0
     27138 WT12     182      MECN     H13      HGA3     0.090000        1.0080           0
     27139 WT12     182      MECN     C2       CG1N1    0.360000       12.0110           0
     27140 WT12     182      MECN     N3       NG1T1   -0.460000       14.0070           0
     27141 WT12     183      MECN     C1       CG331   -0.170000       12.0110           0
     27142 WT12     183      MECN     H11      HGA3     0.090000        1.0080           0
     27143 WT12     183      MECN     H12      HGA3     0.090000        1.0080           0
     27144 WT12     183      MECN     H13      HGA3     0.090000        1.0080           0
     27145 WT12     183      MECN     C2       CG1N1    0.360000       12.0110           0
     27146 WT12     183      MECN     N3       NG1T1   -0.460000       14.0070           0
     27147 WT12     184      MECN     C1       CG331   -0.170000       12.0110           0
     27148 WT12     184      MECN     H11      HGA3     0.090000        1.0080           0
     27149 WT12     184      MECN     H12      HGA3     0.090000        1.0080           0
     27150 WT12     184      MECN     H13      HGA3     0.090000        1.0080           0
     27151 WT12     184      MECN     C2       CG1N1    0.360000       12.0110           0
     27152 WT12     184      MECN     N3       NG1T1   -0.460000       14.0070           0
     27153 WT12     185      MECN     C1       CG331   -0.170000       12.0110           0
     27154 WT12     185      MECN     H11      HGA3     0.090000        1.0080           0
     27155 WT12     185      MECN     H12      HGA3     0.090000        1.0080           0
     27156 WT12     185      MECN     H13      HGA3     0.090000        1.0080           0
     27157 WT12     185      MECN     C2       CG1N1    0.360000       12.0110           0
     27158 WT12     185      MECN     N3       NG1T1   -0.460000       14.0070           0
     27159 WT12     186      MECN     C1       CG331   -0.170000       12.0110           0
     27160 WT12     186      MECN     H11      HGA3     0.090000        1.0080           0
     27161 WT12     186      MECN     H12      HGA3     0.090000        1.0080           0
     27162 WT12     186      MECN     H13      HGA3     0.090000        1.0080           0
     27163 WT12     186      MECN     C2       CG1N1    0.360000       12.0110           0
     27164 WT12     186      MECN     N3       NG1T1   -0.460000       14.0070           0
     27165 WT12     190      MECN     C1       CG331   -0.170000       12.0110           0
     27166 WT12     190      MECN     H11      HGA3     0.090000        1.0080           0
     27167 WT12     190      MECN     H12      HGA3     0.090000        1.0080           0
     27168 WT12     190      MECN     H13      HGA3     0.090000        1.0080           0
     27169 WT12     190      MECN     C2       CG1N1    0.360000       12.0110           0
     27170 WT12     190      MECN     N3       NG1T1   -0.460000       14.0070           0
     27171 WT12     199      MECN     C1       CG331   -0.170000       12.0110           0
     27172 WT12     199      MECN     H11      HGA3     0.090000        1.0080           0
     27173 WT12     199      MECN     H12      HGA3     0.090000        1.0080           0
     27174 WT12     199      MECN     H13      HGA3     0.090000        1.0080           0
     27175 WT12     199      MECN     C2       CG1N1    0.360000       12.0110           0
     27176 WT12     199      MECN     N3       NG1T1   -0.460000       14.0070           0
     27177 WT12     201      MECN     C1       CG331   -0.170000       12.0110           0
     27178 WT12     201      MECN     H11      HGA3     0.090000        1.0080           0
     27179 WT12     201      MECN     H12      HGA3     0.090000        1.0080           0
     27180 WT12     201      MECN     H13      HGA3     0.090000        1.0080           0
     27181 WT12     201      MECN     C2       CG1N1    0.360000       12.0110           0
     27182 WT12     201      MECN     N3       NG1T1   -0.460000       14.0070           0
     27183 WT12     203      MECN     C1       CG331   -0.170000       12.0110           0
     27184 WT12     203      MECN     H11      HGA3     0.090000        1.0080           0
     27185 WT12     203      MECN     H12      HGA3     0.090000        1.0080           0
     27186 WT12     203      MECN     H13      HGA3     0.090000        1.0080           0
     27187 WT12     203      MECN     C2       CG1N1    0.360000       12.0110           0
     27188 WT12     203      MECN     N3       NG1T1   -0.460000       14.0070           0
     27189 WT12     205      MECN     C1       CG331   -0.170000       12.0110           0
     27190 WT12     205      MECN     H11      HGA3     0.090000        1.0080           0
     27191 WT12     205      MECN     H12      HGA3     0.090000        1.0080           0
     27192 WT12     205      MECN     H13      HGA3     0.090000        1.0080           0
     27193 WT12     205      MECN     C2       CG1N1    0.360000       12.0110           0
     27194 WT12     205      MECN     N3       NG1T1   -0.460000       14.0070           0
     27195 WT12     211      MECN     C1       CG331   -0.170000       12.0110           0
     27196 WT12     211      MECN     H11      HGA3     0.090000        1.0080           0
     27197 WT12     211      MECN     H12      HGA3     0.090000        1.0080           0
     27198 WT12     211      MECN     H13      HGA3     0.090000        1.0080           0
     27199 WT12     211      MECN     C2       CG1N1    0.360000       12.0110           0
     27200 WT12     211      MECN     N3       NG1T1   -0.460000       14.0070           0
     27201 WT12     212      MECN     C1       CG331   -0.170000       12.0110           0
     27202 WT12     212      MECN     H11      HGA3     0.090000        1.0080           0
     27203 WT12     212      MECN     H12      HGA3     0.090000        1.0080           0
     27204 WT12     212      MECN     H13      HGA3     0.090000        1.0080           0
     27205 WT12     212      MECN     C2       CG1N1    0.360000       12.0110           0
     27206 WT12     212      MECN     N3       NG1T1   -0.460000       14.0070           0
     27207 WT12     220      MECN     C1       CG331   -0.170000       12.0110           0
     27208 WT12     220      MECN     H11      HGA3     0.090000        1.0080           0
     27209 WT12     220      MECN     H12      HGA3     0.090000        1.0080           0
     27210 WT12     220      MECN     H13      HGA3     0.090000        1.0080           0
     27211 WT12     220      MECN     C2       CG1N1    0.360000       12.0110           0
     27212 WT12     220      MECN     N3       NG1T1   -0.460000       14.0070           0
     27213 WT12     224      MECN     C1       CG331   -0.170000       12.0110           0
     27214 WT12     224      MECN     H11      HGA3     0.090000        1.0080           0
     27215 WT12     224      MECN     H12      HGA3     0.090000        1.0080           0
     27216 WT12     224      MECN     H13      HGA3     0.090000        1.0080           0
     27217 WT12     224      MECN     C2       CG1N1    0.360000       12.0110           0
     27218 WT12     224      MECN     N3       NG1T1   -0.460000       14.0070           0
     27219 WT12     225      MECN     C1       CG331   -0.170000       12.0110           0
     27220 WT12     225      MECN     H11      HGA3     0.090000        1.0080           0
     27221 WT12     225      MECN     H12      HGA3     0.090000        1.0080           0
     27222 WT12     225      MECN     H13      HGA3     0.090000        1.0080           0
     27223 WT12     225      MECN     C2       CG1N1    0.360000       12.0110           0
     27224 WT12     225      MECN     N3       NG1T1   -0.460000       14.0070           0
     27225 WT12     227      MECN     C1       CG331   -0.170000       12.0110           0
     27226 WT12     227      MECN     H11      HGA3     0.090000        1.0080           0
     27227 WT12     227      MECN     H12      HGA3     0.090000        1.0080           0
     27228 WT12     227      MECN     H13      HGA3     0.090000        1.0080           0
     27229 WT12     227      MECN     C2       CG1N1    0.360000       12.0110           0
     27230 WT12     227      MECN     N3       NG1T1   -0.460000       14.0070           0
     27231 WT12     229      MECN     C1       CG331   -0.170000       12.0110           0
     27232 WT12     229      MECN     H11      HGA3     0.090000        1.0080           0
     27233 WT12     229      MECN     H12      HGA3     0.090000        1.0080           0
     27234 WT12     229      MECN     H13      HGA3     0.090000        1.0080           0
     27235 WT12     229      MECN     C2       CG1N1    0.360000       12.0110           0
     27236 WT12     229      MECN     N3       NG1T1   -0.460000       14.0070           0
     27237 WT12     231      MECN     C1       CG331   -0.170000       12.0110           0
     27238 WT12     231      MECN     H11      HGA3     0.090000        1.0080           0
     27239 WT12     231      MECN     H12      HGA3     0.090000        1.0080           0
     27240 WT12     231      MECN     H13      HGA3     0.090000        1.0080           0
     27241 WT12     231      MECN     C2       CG1N1    0.360000       12.0110           0
     27242 WT12     231      MECN     N3       NG1T1   -0.460000       14.0070           0
     27243 WT12     236      MECN     C1       CG331   -0.170000       12.0110           0
     27244 WT12     236      MECN     H11      HGA3     0.090000        1.0080           0
     27245 WT12     236      MECN     H12      HGA3     0.090000        1.0080           0
     27246 WT12     236      MECN     H13      HGA3     0.090000        1.0080           0
     27247 WT12     236      MECN     C2       CG1N1    0.360000       12.0110           0
     27248 WT12     236      MECN     N3       NG1T1   -0.460000       14.0070           0
     27249 WT12     237      MECN     C1       CG331   -0.170000       12.0110           0
     27250 WT12     237      MECN     H11      HGA3     0.090000        1.0080           0
     27251 WT12     237      MECN     H12      HGA3     0.090000        1.0080           0
     27252 WT12     237      MECN     H13      HGA3     0.090000        1.0080           0
     27253 WT12     237      MECN     C2       CG1N1    0.360000       12.0110           0
     27254 WT12     237      MECN     N3       NG1T1   -0.460000       14.0070           0
     27255 WT12     238      MECN     C1       CG331   -0.170000       12.0110           0
     27256 WT12     238      MECN     H11      HGA3     0.090000        1.0080           0
     27257 WT12     238      MECN     H12      HGA3     0.090000        1.0080           0
     27258 WT12     238      MECN     H13      HGA3     0.090000        1.0080           0
     27259 WT12     238      MECN     C2       CG1N1    0.360000       12.0110           0
     27260 WT12     238      MECN     N3       NG1T1   -0.460000       14.0070           0
     27261 WT12     242      MECN     C1       CG331   -0.170000       12.0110           0
     27262 WT12     242      MECN     H11      HGA3     0.090000        1.0080           0
     27263 WT12     242      MECN     H12      HGA3     0.090000        1.0080           0
     27264 WT12     242      MECN     H13      HGA3     0.090000        1.0080           0
     27265 WT12     242      MECN     C2       CG1N1    0.360000       12.0110           0
     27266 WT12     242      MECN     N3       NG1T1   -0.460000       14.0070           0
     27267 WT12     246      MECN     C1       CG331   -0.170000       12.0110           0
     27268 WT12     246      MECN     H11      HGA3     0.090000        1.0080           0
     27269 WT12     246      MECN     H12      HGA3     0.090000        1.0080           0
     27270 WT12     246      MECN     H13      HGA3     0.090000        1.0080           0
     27271 WT12     246      MECN     C2       CG1N1    0.360000       12.0110           0
     27272 WT12     246      MECN     N3       NG1T1   -0.460000       14.0070           0
     27273 WT12     251      MECN     C1       CG331   -0.170000       12.0110           0
     27274 WT12     251      MECN     H11      HGA3     0.090000        1.0080           0
     27275 WT12     251      MECN     H12      HGA3     0.090000        1.0080           0
     27276 WT12     251      MECN     H13      HGA3     0.090000        1.0080           0
     27277 WT12     251      MECN     C2       CG1N1    0.360000       12.0110           0
     27278 WT12     251      MECN     N3       NG1T1   -0.460000       14.0070           0
     27279 WT12     252      MECN     C1       CG331   -0.170000       12.0110           0
     27280 WT12     252      MECN     H11      HGA3     0.090000        1.0080           0
     27281 WT12     252      MECN     H12      HGA3     0.090000        1.0080           0
     27282 WT12     252      MECN     H13      HGA3     0.090000        1.0080           0
     27283 WT12     252      MECN     C2       CG1N1    0.360000       12.0110           0
     27284 WT12     252      MECN     N3       NG1T1   -0.460000       14.0070           0
     27285 WT12     255      MECN     C1       CG331   -0.170000       12.0110           0
     27286 WT12     255      MECN     H11      HGA3     0.090000        1.0080           0
     27287 WT12     255      MECN     H12      HGA3     0.090000        1.0080           0
     27288 WT12     255      MECN     H13      HGA3     0.090000        1.0080           0
     27289 WT12     255      MECN     C2       CG1N1    0.360000       12.0110           0
     27290 WT12     255      MECN     N3       NG1T1   -0.460000       14.0070           0
     27291 WT12     268      MECN     C1       CG331   -0.170000       12.0110           0
     27292 WT12     268      MECN     H11      HGA3     0.090000        1.0080           0
     27293 WT12     268      MECN     H12      HGA3     0.090000        1.0080           0
     27294 WT12     268      MECN     H13      HGA3     0.090000        1.0080           0
     27295 WT12     268      MECN     C2       CG1N1    0.360000       12.0110           0
     27296 WT12     268      MECN     N3       NG1T1   -0.460000       14.0070           0
     27297 WT12     279      MECN     C1       CG331   -0.170000       12.0110           0
     27298 WT12     279      MECN     H11      HGA3     0.090000        1.0080           0
     27299 WT12     279      MECN     H12      HGA3     0.090000        1.0080           0
     27300 WT12     279      MECN     H13      HGA3     0.090000        1.0080           0
     27301 WT12     279      MECN     C2       CG1N1    0.360000       12.0110           0
     27302 WT12     279      MECN     N3       NG1T1   -0.460000       14.0070           0
     27303 WT12     280      MECN     C1       CG331   -0.170000       12.0110           0
     27304 WT12     280      MECN     H11      HGA3     0.090000        1.0080           0
     27305 WT12     280      MECN     H12      HGA3     0.090000        1.0080           0
     27306 WT12     280      MECN     H13      HGA3     0.090000        1.0080           0
     27307 WT12     280      MECN     C2       CG1N1    0.360000       12.0110           0
     27308 WT12     280      MECN     N3       NG1T1   -0.460000       14.0070           0
     27309 WT12     285      MECN     C1       CG331   -0.170000       12.0110           0
     27310 WT12     285      MECN     H11      HGA3     0.090000        1.0080           0
     27311 WT12     285      MECN     H12      HGA3     0.090000        1.0080           0
     27312 WT12     285      MECN     H13      HGA3     0.090000        1.0080           0
     27313 WT12     285      MECN     C2       CG1N1    0.360000       12.0110           0
     27314 WT12     285      MECN     N3       NG1T1   -0.460000       14.0070           0
     27315 WT12     286      MECN     C1       CG331   -0.170000       12.0110           0
     27316 WT12     286      MECN     H11      HGA3     0.090000        1.0080           0
     27317 WT12     286      MECN     H12      HGA3     0.090000        1.0080           0
     27318 WT12     286      MECN     H13      HGA3     0.090000        1.0080           0
     27319 WT12     286      MECN     C2       CG1N1    0.360000       12.0110           0
     27320 WT12     286      MECN     N3       NG1T1   -0.460000       14.0070           0
     27321 WT12     288      MECN     C1       CG331   -0.170000       12.0110           0
     27322 WT12     288      MECN     H11      HGA3     0.090000        1.0080           0
     27323 WT12     288      MECN     H12      HGA3     0.090000        1.0080           0
     27324 WT12     288      MECN     H13      HGA3     0.090000        1.0080           0
     27325 WT12     288      MECN     C2       CG1N1    0.360000       12.0110           0
     27326 WT12     288      MECN     N3       NG1T1   -0.460000       14.0070           0
     27327 WT12     294      MECN     C1       CG331   -0.170000       12.0110           0
     27328 WT12     294      MECN     H11      HGA3     0.090000        1.0080           0
     27329 WT12     294      MECN     H12      HGA3     0.090000        1.0080           0
     27330 WT12     294      MECN     H13      HGA3     0.090000        1.0080           0
     27331 WT12     294      MECN     C2       CG1N1    0.360000       12.0110           0
     27332 WT12     294      MECN     N3       NG1T1   -0.460000       14.0070           0
     27333 WT12     296      MECN     C1       CG331   -0.170000       12.0110           0
     27334 WT12     296      MECN     H11      HGA3     0.090000        1.0080           0
     27335 WT12     296      MECN     H12      HGA3     0.090000        1.0080           0
     27336 WT12     296      MECN     H13      HGA3     0.090000        1.0080           0
     27337 WT12     296      MECN     C2       CG1N1    0.360000       12.0110           0
     27338 WT12     296      MECN     N3       NG1T1   -0.460000       14.0070           0
     27339 WT12     304      MECN     C1       CG331   -0.170000       12.0110           0
     27340 WT12     304      MECN     H11      HGA3     0.090000        1.0080           0
     27341 WT12     304      MECN     H12      HGA3     0.090000        1.0080           0
     27342 WT12     304      MECN     H13      HGA3     0.090000        1.0080           0
     27343 WT12     304      MECN     C2       CG1N1    0.360000       12.0110           0
     27344 WT12     304      MECN     N3       NG1T1   -0.460000       14.0070           0
     27345 WT12     306      MECN     C1       CG331   -0.170000       12.0110           0
     27346 WT12     306      MECN     H11      HGA3     0.090000        1.0080           0
     27347 WT12     306      MECN     H12      HGA3     0.090000        1.0080           0
     27348 WT12     306      MECN     H13      HGA3     0.090000        1.0080           0
     27349 WT12     306      MECN     C2       CG1N1    0.360000       12.0110           0
     27350 WT12     306      MECN     N3       NG1T1   -0.460000       14.0070           0
     27351 WT12     308      MECN     C1       CG331   -0.170000       12.0110           0
     27352 WT12     308      MECN     H11      HGA3     0.090000        1.0080           0
     27353 WT12     308      MECN     H12      HGA3     0.090000        1.0080           0
     27354 WT12     308      MECN     H13      HGA3     0.090000        1.0080           0
     27355 WT12     308      MECN     C2       CG1N1    0.360000       12.0110           0
     27356 WT12     308      MECN     N3       NG1T1   -0.460000       14.0070           0
     27357 WT12     316      MECN     C1       CG331   -0.170000       12.0110           0
     27358 WT12     316      MECN     H11      HGA3     0.090000        1.0080           0
     27359 WT12     316      MECN     H12      HGA3     0.090000        1.0080           0
     27360 WT12     316      MECN     H13      HGA3     0.090000        1.0080           0
     27361 WT12     316      MECN     C2       CG1N1    0.360000       12.0110           0
     27362 WT12     316      MECN     N3       NG1T1   -0.460000       14.0070           0
     27363 WT12     318      MECN     C1       CG331   -0.170000       12.0110           0
     27364 WT12     318      MECN     H11      HGA3     0.090000        1.0080           0
     27365 WT12     318      MECN     H12      HGA3     0.090000        1.0080           0
     27366 WT12     318      MECN     H13      HGA3     0.090000        1.0080           0
     27367 WT12     318      MECN     C2       CG1N1    0.360000       12.0110           0
     27368 WT12     318      MECN     N3       NG1T1   -0.460000       14.0070           0
     27369 WT12     319      MECN     C1       CG331   -0.170000       12.0110           0
     27370 WT12     319      MECN     H11      HGA3     0.090000        1.0080           0
     27371 WT12     319      MECN     H12      HGA3     0.090000        1.0080           0
     27372 WT12     319      MECN     H13      HGA3     0.090000        1.0080           0
     27373 WT12     319      MECN     C2       CG1N1    0.360000       12.0110           0
     27374 WT12     319      MECN     N3       NG1T1   -0.460000       14.0070           0
     27375 WT12     321      MECN     C1       CG331   -0.170000       12.0110           0
     27376 WT12     321      MECN     H11      HGA3     0.090000        1.0080           0
     27377 WT12     321      MECN     H12      HGA3     0.090000        1.0080           0
     27378 WT12     321      MECN     H13      HGA3     0.090000        1.0080           0
     27379 WT12     321      MECN     C2       CG1N1    0.360000       12.0110           0
     27380 WT12     321      MECN     N3       NG1T1   -0.460000       14.0070           0
     27381 WT12     323      MECN     C1       CG331   -0.170000       12.0110           0
     27382 WT12     323      MECN     H11      HGA3     0.090000        1.0080           0
     27383 WT12     323      MECN     H12      HGA3     0.090000        1.0080           0
     27384 WT12     323      MECN     H13      HGA3     0.090000        1.0080           0
     27385 WT12     323      MECN     C2       CG1N1    0.360000       12.0110           0
     27386 WT12     323      MECN     N3       NG1T1   -0.460000       14.0070           0
     27387 WT12     329      MECN     C1       CG331   -0.170000       12.0110           0
     27388 WT12     329      MECN     H11      HGA3     0.090000        1.0080           0
     27389 WT12     329      MECN     H12      HGA3     0.090000        1.0080           0
     27390 WT12     329      MECN     H13      HGA3     0.090000        1.0080           0
     27391 WT12     329      MECN     C2       CG1N1    0.360000       12.0110           0
     27392 WT12     329      MECN     N3       NG1T1   -0.460000       14.0070           0
     27393 WT12     331      MECN     C1       CG331   -0.170000       12.0110           0
     27394 WT12     331      MECN     H11      HGA3     0.090000        1.0080           0
     27395 WT12     331      MECN     H12      HGA3     0.090000        1.0080           0
     27396 WT12     331      MECN     H13      HGA3     0.090000        1.0080           0
     27397 WT12     331      MECN     C2       CG1N1    0.360000       12.0110           0
     27398 WT12     331      MECN     N3       NG1T1   -0.460000       14.0070           0
     27399 WT12     333      MECN     C1       CG331   -0.170000       12.0110           0
     27400 WT12     333      MECN     H11      HGA3     0.090000        1.0080           0
     27401 WT12     333      MECN     H12      HGA3     0.090000        1.0080           0
     27402 WT12     333      MECN     H13      HGA3     0.090000        1.0080           0
     27403 WT12     333      MECN     C2       CG1N1    0.360000       12.0110           0
     27404 WT12     333      MECN     N3       NG1T1   -0.460000       14.0070           0
     27405 WT12     337      MECN     C1       CG331   -0.170000       12.0110           0
     27406 WT12     337      MECN     H11      HGA3     0.090000        1.0080           0
     27407 WT12     337      MECN     H12      HGA3     0.090000        1.0080           0
     27408 WT12     337      MECN     H13      HGA3     0.090000        1.0080           0
     27409 WT12     337      MECN     C2       CG1N1    0.360000       12.0110           0
     27410 WT12     337      MECN     N3       NG1T1   -0.460000       14.0070           0
     27411 WT12     341      MECN     C1       CG331   -0.170000       12.0110           0
     27412 WT12     341      MECN     H11      HGA3     0.090000        1.0080           0
     27413 WT12     341      MECN     H12      HGA3     0.090000        1.0080           0
     27414 WT12     341      MECN     H13      HGA3     0.090000        1.0080           0
     27415 WT12     341      MECN     C2       CG1N1    0.360000       12.0110           0
     27416 WT12     341      MECN     N3       NG1T1   -0.460000       14.0070           0
     27417 WT12     343      MECN     C1       CG331   -0.170000       12.0110           0
     27418 WT12     343      MECN     H11      HGA3     0.090000        1.0080           0
     27419 WT12     343      MECN     H12      HGA3     0.090000        1.0080           0
     27420 WT12     343      MECN     H13      HGA3     0.090000        1.0080           0
     27421 WT12     343      MECN     C2       CG1N1    0.360000       12.0110           0
     27422 WT12     343      MECN     N3       NG1T1   -0.460000       14.0070           0
     27423 WT12     346      MECN     C1       CG331   -0.170000       12.0110           0
     27424 WT12     346      MECN     H11      HGA3     0.090000        1.0080           0
     27425 WT12     346      MECN     H12      HGA3     0.090000        1.0080           0
     27426 WT12     346      MECN     H13      HGA3     0.090000        1.0080           0
     27427 WT12     346      MECN     C2       CG1N1    0.360000       12.0110           0
     27428 WT12     346      MECN     N3       NG1T1   -0.460000       14.0070           0
     27429 WT12     351      MECN     C1       CG331   -0.170000       12.0110           0
     27430 WT12     351      MECN     H11      HGA3     0.090000        1.0080           0
     27431 WT12     351      MECN     H12      HGA3     0.090000        1.0080           0
     27432 WT12     351      MECN     H13      HGA3     0.090000        1.0080           0
     27433 WT12     351      MECN     C2       CG1N1    0.360000       12.0110           0
     27434 WT12     351      MECN     N3       NG1T1   -0.460000       14.0070           0
     27435 WT12     358      MECN     C1       CG331   -0.170000       12.0110           0
     27436 WT12     358      MECN     H11      HGA3     0.090000        1.0080           0
     27437 WT12     358      MECN     H12      HGA3     0.090000        1.0080           0
     27438 WT12     358      MECN     H13      HGA3     0.090000        1.0080           0
     27439 WT12     358      MECN     C2       CG1N1    0.360000       12.0110           0
     27440 WT12     358      MECN     N3       NG1T1   -0.460000       14.0070           0
     27441 WT12     359      MECN     C1       CG331   -0.170000       12.0110           0
     27442 WT12     359      MECN     H11      HGA3     0.090000        1.0080           0
     27443 WT12     359      MECN     H12      HGA3     0.090000        1.0080           0
     27444 WT12     359      MECN     H13      HGA3     0.090000        1.0080           0
     27445 WT12     359      MECN     C2       CG1N1    0.360000       12.0110           0
     27446 WT12     359      MECN     N3       NG1T1   -0.460000       14.0070           0
     27447 WT12     361      MECN     C1       CG331   -0.170000       12.0110           0
     27448 WT12     361      MECN     H11      HGA3     0.090000        1.0080           0
     27449 WT12     361      MECN     H12      HGA3     0.090000        1.0080           0
     27450 WT12     361      MECN     H13      HGA3     0.090000        1.0080           0
     27451 WT12     361      MECN     C2       CG1N1    0.360000       12.0110           0
     27452 WT12     361      MECN     N3       NG1T1   -0.460000       14.0070           0
     27453 WT12     369      MECN     C1       CG331   -0.170000       12.0110           0
     27454 WT12     369      MECN     H11      HGA3     0.090000        1.0080           0
     27455 WT12     369      MECN     H12      HGA3     0.090000        1.0080           0
     27456 WT12     369      MECN     H13      HGA3     0.090000        1.0080           0
     27457 WT12     369      MECN     C2       CG1N1    0.360000       12.0110           0
     27458 WT12     369      MECN     N3       NG1T1   -0.460000       14.0070           0
     27459 WT12     373      MECN     C1       CG331   -0.170000       12.0110           0
     27460 WT12     373      MECN     H11      HGA3     0.090000        1.0080           0
     27461 WT12     373      MECN     H12      HGA3     0.090000        1.0080           0
     27462 WT12     373      MECN     H13      HGA3     0.090000        1.0080           0
     27463 WT12     373      MECN     C2       CG1N1    0.360000       12.0110           0
     27464 WT12     373      MECN     N3       NG1T1   -0.460000       14.0070           0
     27465 WT12     382      MECN     C1       CG331   -0.170000       12.0110           0
     27466 WT12     382      MECN     H11      HGA3     0.090000        1.0080           0
     27467 WT12     382      MECN     H12      HGA3     0.090000        1.0080           0
     27468 WT12     382      MECN     H13      HGA3     0.090000        1.0080           0
     27469 WT12     382      MECN     C2       CG1N1    0.360000       12.0110           0
     27470 WT12     382      MECN     N3       NG1T1   -0.460000       14.0070           0
     27471 WT12     385      MECN     C1       CG331   -0.170000       12.0110           0
     27472 WT12     385      MECN     H11      HGA3     0.090000        1.0080           0
     27473 WT12     385      MECN     H12      HGA3     0.090000        1.0080           0
     27474 WT12     385      MECN     H13      HGA3     0.090000        1.0080           0
     27475 WT12     385      MECN     C2       CG1N1    0.360000       12.0110           0
     27476 WT12     385      MECN     N3       NG1T1   -0.460000       14.0070           0
     27477 WT12     387      MECN     C1       CG331   -0.170000       12.0110           0
     27478 WT12     387      MECN     H11      HGA3     0.090000        1.0080           0
     27479 WT12     387      MECN     H12      HGA3     0.090000        1.0080           0
     27480 WT12     387      MECN     H13      HGA3     0.090000        1.0080           0
     27481 WT12     387      MECN     C2       CG1N1    0.360000       12.0110           0
     27482 WT12     387      MECN     N3       NG1T1   -0.460000       14.0070           0
     27483 WT12     388      MECN     C1       CG331   -0.170000       12.0110           0
     27484 WT12     388      MECN     H11      HGA3     0.090000        1.0080           0
     27485 WT12     388      MECN     H12      HGA3     0.090000        1.0080           0
     27486 WT12     388      MECN     H13      HGA3     0.090000        1.0080           0
     27487 WT12     388      MECN     C2       CG1N1    0.360000       12.0110           0
     27488 WT12     388      MECN     N3       NG1T1   -0.460000       14.0070           0
     27489 WT12     393      MECN     C1       CG331   -0.170000       12.0110           0
     27490 WT12     393      MECN     H11      HGA3     0.090000        1.0080           0
     27491 WT12     393      MECN     H12      HGA3     0.090000        1.0080           0
     27492 WT12     393      MECN     H13      HGA3     0.090000        1.0080           0
     27493 WT12     393      MECN     C2       CG1N1    0.360000       12.0110           0
     27494 WT12     393      MECN     N3       NG1T1   -0.460000       14.0070           0
     27495 WT12     395      MECN     C1       CG331   -0.170000       12.0110           0
     27496 WT12     395      MECN     H11      HGA3     0.090000        1.0080           0
     27497 WT12     395      MECN     H12      HGA3     0.090000        1.0080           0
     27498 WT12     395      MECN     H13      HGA3     0.090000        1.0080           0
     27499 WT12     395      MECN     C2       CG1N1    0.360000       12.0110           0
     27500 WT12     395      MECN     N3       NG1T1   -0.460000       14.0070           0
     27501 WT12     396      MECN     C1       CG331   -0.170000       12.0110           0
     27502 WT12     396      MECN     H11      HGA3     0.090000        1.0080           0
     27503 WT12     396      MECN     H12      HGA3     0.090000        1.0080           0
     27504 WT12     396      MECN     H13      HGA3     0.090000        1.0080           0
     27505 WT12     396      MECN     C2       CG1N1    0.360000       12.0110           0
     27506 WT12     396      MECN     N3       NG1T1   -0.460000       14.0070           0
     27507 WT12     401      MECN     C1       CG331   -0.170000       12.0110           0
     27508 WT12     401      MECN     H11      HGA3     0.090000        1.0080           0
     27509 WT12     401      MECN     H12      HGA3     0.090000        1.0080           0
     27510 WT12     401      MECN     H13      HGA3     0.090000        1.0080           0
     27511 WT12     401      MECN     C2       CG1N1    0.360000       12.0110           0
     27512 WT12     401      MECN     N3       NG1T1   -0.460000       14.0070           0
     27513 WT12     406      MECN     C1       CG331   -0.170000       12.0110           0
     27514 WT12     406      MECN     H11      HGA3     0.090000        1.0080           0
     27515 WT12     406      MECN     H12      HGA3     0.090000        1.0080           0
     27516 WT12     406      MECN     H13      HGA3     0.090000        1.0080           0
     27517 WT12     406      MECN     C2       CG1N1    0.360000       12.0110           0
     27518 WT12     406      MECN     N3       NG1T1   -0.460000       14.0070           0
     27519 WT12     411      MECN     C1       CG331   -0.170000       12.0110           0
     27520 WT12     411      MECN     H11      HGA3     0.090000        1.0080           0
     27521 WT12     411      MECN     H12      HGA3     0.090000        1.0080           0
     27522 WT12     411      MECN     H13      HGA3     0.090000        1.0080           0
     27523 WT12     411      MECN     C2       CG1N1    0.360000       12.0110           0
     27524 WT12     411      MECN     N3       NG1T1   -0.460000       14.0070           0
     27525 WT12     418      MECN     C1       CG331   -0.170000       12.0110           0
     27526 WT12     418      MECN     H11      HGA3     0.090000        1.0080           0
     27527 WT12     418      MECN     H12      HGA3     0.090000        1.0080           0
     27528 WT12     418      MECN     H13      HGA3     0.090000        1.0080           0
     27529 WT12     418      MECN     C2       CG1N1    0.360000       12.0110           0
     27530 WT12     418      MECN     N3       NG1T1   -0.460000       14.0070           0
     27531 WT12     419      MECN     C1       CG331   -0.170000       12.0110           0
     27532 WT12     419      MECN     H11      HGA3     0.090000        1.0080           0
     27533 WT12     419      MECN     H12      HGA3     0.090000        1.0080           0
     27534 WT12     419      MECN     H13      HGA3     0.090000        1.0080           0
     27535 WT12     419      MECN     C2       CG1N1    0.360000       12.0110           0
     27536 WT12     419      MECN     N3       NG1T1   -0.460000       14.0070           0
     27537 WT12     420      MECN     C1       CG331   -0.170000       12.0110           0
     27538 WT12     420      MECN     H11      HGA3     0.090000        1.0080           0
     27539 WT12     420      MECN     H12      HGA3     0.090000        1.0080           0
     27540 WT12     420      MECN     H13      HGA3     0.090000        1.0080           0
     27541 WT12     420      MECN     C2       CG1N1    0.360000       12.0110           0
     27542 WT12     420      MECN     N3       NG1T1   -0.460000       14.0070           0
     27543 WT12     422      MECN     C1       CG331   -0.170000       12.0110           0
     27544 WT12     422      MECN     H11      HGA3     0.090000        1.0080           0
     27545 WT12     422      MECN     H12      HGA3     0.090000        1.0080           0
     27546 WT12     422      MECN     H13      HGA3     0.090000        1.0080           0
     27547 WT12     422      MECN     C2       CG1N1    0.360000       12.0110           0
     27548 WT12     422      MECN     N3       NG1T1   -0.460000       14.0070           0
     27549 WT12     427      MECN     C1       CG331   -0.170000       12.0110           0
     27550 WT12     427      MECN     H11      HGA3     0.090000        1.0080           0
     27551 WT12     427      MECN     H12      HGA3     0.090000        1.0080           0
     27552 WT12     427      MECN     H13      HGA3     0.090000        1.0080           0
     27553 WT12     427      MECN     C2       CG1N1    0.360000       12.0110           0
     27554 WT12     427      MECN     N3       NG1T1   -0.460000       14.0070           0
     27555 WT12     430      MECN     C1       CG331   -0.170000       12.0110           0
     27556 WT12     430      MECN     H11      HGA3     0.090000        1.0080           0
     27557 WT12     430      MECN     H12      HGA3     0.090000        1.0080           0
     27558 WT12     430      MECN     H13      HGA3     0.090000        1.0080           0
     27559 WT12     430      MECN     C2       CG1N1    0.360000       12.0110           0
     27560 WT12     430      MECN     N3       NG1T1   -0.460000       14.0070           0
     27561 WT12     435      MECN     C1       CG331   -0.170000       12.0110           0
     27562 WT12     435      MECN     H11      HGA3     0.090000        1.0080           0
     27563 WT12     435      MECN     H12      HGA3     0.090000        1.0080           0
     27564 WT12     435      MECN     H13      HGA3     0.090000        1.0080           0
     27565 WT12     435      MECN     C2       CG1N1    0.360000       12.0110           0
     27566 WT12     435      MECN     N3       NG1T1   -0.460000       14.0070           0
     27567 WT12     436      MECN     C1       CG331   -0.170000       12.0110           0
     27568 WT12     436      MECN     H11      HGA3     0.090000        1.0080           0
     27569 WT12     436      MECN     H12      HGA3     0.090000        1.0080           0
     27570 WT12     436      MECN     H13      HGA3     0.090000        1.0080           0
     27571 WT12     436      MECN     C2       CG1N1    0.360000       12.0110           0
     27572 WT12     436      MECN     N3       NG1T1   -0.460000       14.0070           0
     27573 WT12     440      MECN     C1       CG331   -0.170000       12.0110           0
     27574 WT12     440      MECN     H11      HGA3     0.090000        1.0080           0
     27575 WT12     440      MECN     H12      HGA3     0.090000        1.0080           0
     27576 WT12     440      MECN     H13      HGA3     0.090000        1.0080           0
     27577 WT12     440      MECN     C2       CG1N1    0.360000       12.0110           0
     27578 WT12     440      MECN     N3       NG1T1   -0.460000       14.0070           0
     27579 WT12     441      MECN     C1       CG331   -0.170000       12.0110           0
     27580 WT12     441      MECN     H11      HGA3     0.090000        1.0080           0
     27581 WT12     441      MECN     H12      HGA3     0.090000        1.0080           0
     27582 WT12     441      MECN     H13      HGA3     0.090000        1.0080           0
     27583 WT12     441      MECN     C2       CG1N1    0.360000       12.0110           0
     27584 WT12     441      MECN     N3       NG1T1   -0.460000       14.0070           0
     27585 WT12     445      MECN     C1       CG331   -0.170000       12.0110           0
     27586 WT12     445      MECN     H11      HGA3     0.090000        1.0080           0
     27587 WT12     445      MECN     H12      HGA3     0.090000        1.0080           0
     27588 WT12     445      MECN     H13      HGA3     0.090000        1.0080           0
     27589 WT12     445      MECN     C2       CG1N1    0.360000       12.0110           0
     27590 WT12     445      MECN     N3       NG1T1   -0.460000       14.0070           0
     27591 WT12     448      MECN     C1       CG331   -0.170000       12.0110           0
     27592 WT12     448      MECN     H11      HGA3     0.090000        1.0080           0
     27593 WT12     448      MECN     H12      HGA3     0.090000        1.0080           0
     27594 WT12     448      MECN     H13      HGA3     0.090000        1.0080           0
     27595 WT12     448      MECN     C2       CG1N1    0.360000       12.0110           0
     27596 WT12     448      MECN     N3       NG1T1   -0.460000       14.0070           0
     27597 WT12     449      MECN     C1       CG331   -0.170000       12.0110           0
     27598 WT12     449      MECN     H11      HGA3     0.090000        1.0080           0
     27599 WT12     449      MECN     H12      HGA3     0.090000        1.0080           0
     27600 WT12     449      MECN     H13      HGA3     0.090000        1.0080           0
     27601 WT12     449      MECN     C2       CG1N1    0.360000       12.0110           0
     27602 WT12     449      MECN     N3       NG1T1   -0.460000       14.0070           0
     27603 WT12     450      MECN     C1       CG331   -0.170000       12.0110           0
     27604 WT12     450      MECN     H11      HGA3     0.090000        1.0080           0
     27605 WT12     450      MECN     H12      HGA3     0.090000        1.0080           0
     27606 WT12     450      MECN     H13      HGA3     0.090000        1.0080           0
     27607 WT12     450      MECN     C2       CG1N1    0.360000       12.0110           0
     27608 WT12     450      MECN     N3       NG1T1   -0.460000       14.0070           0
     27609 WT12     451      MECN     C1       CG331   -0.170000       12.0110           0
     27610 WT12     451      MECN     H11      HGA3     0.090000        1.0080           0
     27611 WT12     451      MECN     H12      HGA3     0.090000        1.0080           0
     27612 WT12     451      MECN     H13      HGA3     0.090000        1.0080           0
     27613 WT12     451      MECN     C2       CG1N1    0.360000       12.0110           0
     27614 WT12     451      MECN     N3       NG1T1   -0.460000       14.0070           0
     27615 WT12     452      MECN     C1       CG331   -0.170000       12.0110           0
     27616 WT12     452      MECN     H11      HGA3     0.090000        1.0080           0
     27617 WT12     452      MECN     H12      HGA3     0.090000        1.0080           0
     27618 WT12     452      MECN     H13      HGA3     0.090000        1.0080           0
     27619 WT12     452      MECN     C2       CG1N1    0.360000       12.0110           0
     27620 WT12     452      MECN     N3       NG1T1   -0.460000       14.0070           0
     27621 WT12     454      MECN     C1       CG331   -0.170000       12.0110           0
     27622 WT12     454      MECN     H11      HGA3     0.090000        1.0080           0
     27623 WT12     454      MECN     H12      HGA3     0.090000        1.0080           0
     27624 WT12     454      MECN     H13      HGA3     0.090000        1.0080           0
     27625 WT12     454      MECN     C2       CG1N1    0.360000       12.0110           0
     27626 WT12     454      MECN     N3       NG1T1   -0.460000       14.0070           0
     27627 WT12     457      MECN     C1       CG331   -0.170000       12.0110           0
     27628 WT12     457      MECN     H11      HGA3     0.090000        1.0080           0
     27629 WT12     457      MECN     H12      HGA3     0.090000        1.0080           0
     27630 WT12     457      MECN     H13      HGA3     0.090000        1.0080           0
     27631 WT12     457      MECN     C2       CG1N1    0.360000       12.0110           0
     27632 WT12     457      MECN     N3       NG1T1   -0.460000       14.0070           0
     27633 WT12     460      MECN     C1       CG331   -0.170000       12.0110           0
     27634 WT12     460      MECN     H11      HGA3     0.090000        1.0080           0
     27635 WT12     460      MECN     H12      HGA3     0.090000        1.0080           0
     27636 WT12     460      MECN     H13      HGA3     0.090000        1.0080           0
     27637 WT12     460      MECN     C2       CG1N1    0.360000       12.0110           0
     27638 WT12     460      MECN     N3       NG1T1   -0.460000       14.0070           0
     27639 WT12     461      MECN     C1       CG331   -0.170000       12.0110           0
     27640 WT12     461      MECN     H11      HGA3     0.090000        1.0080           0
     27641 WT12     461      MECN     H12      HGA3     0.090000        1.0080           0
     27642 WT12     461      MECN     H13      HGA3     0.090000        1.0080           0
     27643 WT12     461      MECN     C2       CG1N1    0.360000       12.0110           0
     27644 WT12     461      MECN     N3       NG1T1   -0.460000       14.0070           0
     27645 WT12     464      MECN     C1       CG331   -0.170000       12.0110           0
     27646 WT12     464      MECN     H11      HGA3     0.090000        1.0080           0
     27647 WT12     464      MECN     H12      HGA3     0.090000        1.0080           0
     27648 WT12     464      MECN     H13      HGA3     0.090000        1.0080           0
     27649 WT12     464      MECN     C2       CG1N1    0.360000       12.0110           0
     27650 WT12     464      MECN     N3       NG1T1   -0.460000       14.0070           0
     27651 WT12     468      MECN     C1       CG331   -0.170000       12.0110           0
     27652 WT12     468      MECN     H11      HGA3     0.090000        1.0080           0
     27653 WT12     468      MECN     H12      HGA3     0.090000        1.0080           0
     27654 WT12     468      MECN     H13      HGA3     0.090000        1.0080           0
     27655 WT12     468      MECN     C2       CG1N1    0.360000       12.0110           0
     27656 WT12     468      MECN     N3       NG1T1   -0.460000       14.0070           0
     27657 WT12     470      MECN     C1       CG331   -0.170000       12.0110           0
     27658 WT12     470      MECN     H11      HGA3     0.090000        1.0080           0
     27659 WT12     470      MECN     H12      HGA3     0.090000        1.0080           0
     27660 WT12     470      MECN     H13      HGA3     0.090000        1.0080           0
     27661 WT12     470      MECN     C2       CG1N1    0.360000       12.0110           0
     27662 WT12     470      MECN     N3       NG1T1   -0.460000       14.0070           0
     27663 WT12     475      MECN     C1       CG331   -0.170000       12.0110           0
     27664 WT12     475      MECN     H11      HGA3     0.090000        1.0080           0
     27665 WT12     475      MECN     H12      HGA3     0.090000        1.0080           0
     27666 WT12     475      MECN     H13      HGA3     0.090000        1.0080           0
     27667 WT12     475      MECN     C2       CG1N1    0.360000       12.0110           0
     27668 WT12     475      MECN     N3       NG1T1   -0.460000       14.0070           0
     27669 WT12     476      MECN     C1       CG331   -0.170000       12.0110           0
     27670 WT12     476      MECN     H11      HGA3     0.090000        1.0080           0
     27671 WT12     476      MECN     H12      HGA3     0.090000        1.0080           0
     27672 WT12     476      MECN     H13      HGA3     0.090000        1.0080           0
     27673 WT12     476      MECN     C2       CG1N1    0.360000       12.0110           0
     27674 WT12     476      MECN     N3       NG1T1   -0.460000       14.0070           0
     27675 WT12     477      MECN     C1       CG331   -0.170000       12.0110           0
     27676 WT12     477      MECN     H11      HGA3     0.090000        1.0080           0
     27677 WT12     477      MECN     H12      HGA3     0.090000        1.0080           0
     27678 WT12     477      MECN     H13      HGA3     0.090000        1.0080           0
     27679 WT12     477      MECN     C2       CG1N1    0.360000       12.0110           0
     27680 WT12     477      MECN     N3       NG1T1   -0.460000       14.0070           0
     27681 WT12     480      MECN     C1       CG331   -0.170000       12.0110           0
     27682 WT12     480      MECN     H11      HGA3     0.090000        1.0080           0
     27683 WT12     480      MECN     H12      HGA3     0.090000        1.0080           0
     27684 WT12     480      MECN     H13      HGA3     0.090000        1.0080           0
     27685 WT12     480      MECN     C2       CG1N1    0.360000       12.0110           0
     27686 WT12     480      MECN     N3       NG1T1   -0.460000       14.0070           0
     27687 WT12     482      MECN     C1       CG331   -0.170000       12.0110           0
     27688 WT12     482      MECN     H11      HGA3     0.090000        1.0080           0
     27689 WT12     482      MECN     H12      HGA3     0.090000        1.0080           0
     27690 WT12     482      MECN     H13      HGA3     0.090000        1.0080           0
     27691 WT12     482      MECN     C2       CG1N1    0.360000       12.0110           0
     27692 WT12     482      MECN     N3       NG1T1   -0.460000       14.0070           0
     27693 WT12     485      MECN     C1       CG331   -0.170000       12.0110           0
     27694 WT12     485      MECN     H11      HGA3     0.090000        1.0080           0
     27695 WT12     485      MECN     H12      HGA3     0.090000        1.0080           0
     27696 WT12     485      MECN     H13      HGA3     0.090000        1.0080           0
     27697 WT12     485      MECN     C2       CG1N1    0.360000       12.0110           0
     27698 WT12     485      MECN     N3       NG1T1   -0.460000       14.0070           0
     27699 WT12     486      MECN     C1       CG331   -0.170000       12.0110           0
     27700 WT12     486      MECN     H11      HGA3     0.090000        1.0080           0
     27701 WT12     486      MECN     H12      HGA3     0.090000        1.0080           0
     27702 WT12     486      MECN     H13      HGA3     0.090000        1.0080           0
     27703 WT12     486      MECN     C2       CG1N1    0.360000       12.0110           0
     27704 WT12     486      MECN     N3       NG1T1   -0.460000       14.0070           0
     27705 WT12     488      MECN     C1       CG331   -0.170000       12.0110           0
     27706 WT12     488      MECN     H11      HGA3     0.090000        1.0080           0
     27707 WT12     488      MECN     H12      HGA3     0.090000        1.0080           0
     27708 WT12     488      MECN     H13      HGA3     0.090000        1.0080           0
     27709 WT12     488      MECN     C2       CG1N1    0.360000       12.0110           0
     27710 WT12     488      MECN     N3       NG1T1   -0.460000       14.0070           0
     27711 WT12     489      MECN     C1       CG331   -0.170000       12.0110           0
     27712 WT12     489      MECN     H11      HGA3     0.090000        1.0080           0
     27713 WT12     489      MECN     H12      HGA3     0.090000        1.0080           0
     27714 WT12     489      MECN     H13      HGA3     0.090000        1.0080           0
     27715 WT12     489      MECN     C2       CG1N1    0.360000       12.0110           0
     27716 WT12     489      MECN     N3       NG1T1   -0.460000       14.0070           0
     27717 WT12     490      MECN     C1       CG331   -0.170000       12.0110           0
     27718 WT12     490      MECN     H11      HGA3     0.090000        1.0080           0
     27719 WT12     490      MECN     H12      HGA3     0.090000        1.0080           0
     27720 WT12     490      MECN     H13      HGA3     0.090000        1.0080           0
     27721 WT12     490      MECN     C2       CG1N1    0.360000       12.0110           0
     27722 WT12     490      MECN     N3       NG1T1   -0.460000       14.0070           0
     27723 WT12     493      MECN     C1       CG331   -0.170000       12.0110           0
     27724 WT12     493      MECN     H11      HGA3     0.090000        1.0080           0
     27725 WT12     493      MECN     H12      HGA3     0.090000        1.0080           0
     27726 WT12     493      MECN     H13      HGA3     0.090000        1.0080           0
     27727 WT12     493      MECN     C2       CG1N1    0.360000       12.0110           0
     27728 WT12     493      MECN     N3       NG1T1   -0.460000       14.0070           0
     27729 WT12     494      MECN     C1       CG331   -0.170000       12.0110           0
     27730 WT12     494      MECN     H11      HGA3     0.090000        1.0080           0
     27731 WT12     494      MECN     H12      HGA3     0.090000        1.0080           0
     27732 WT12     494      MECN     H13      HGA3     0.090000        1.0080           0
     27733 WT12     494      MECN     C2       CG1N1    0.360000       12.0110           0
     27734 WT12     494      MECN     N3       NG1T1   -0.460000       14.0070           0
     27735 WT12     497      MECN     C1       CG331   -0.170000       12.0110           0
     27736 WT12     497      MECN     H11      HGA3     0.090000        1.0080           0
     27737 WT12     497      MECN     H12      HGA3     0.090000        1.0080           0
     27738 WT12     497      MECN     H13      HGA3     0.090000        1.0080           0
     27739 WT12     497      MECN     C2       CG1N1    0.360000       12.0110           0
     27740 WT12     497      MECN     N3       NG1T1   -0.460000       14.0070           0
     27741 WT12     498      MECN     C1       CG331   -0.170000       12.0110           0
     27742 WT12     498      MECN     H11      HGA3     0.090000        1.0080           0
     27743 WT12     498      MECN     H12      HGA3     0.090000        1.0080           0
     27744 WT12     498      MECN     H13      HGA3     0.090000        1.0080           0
     27745 WT12     498      MECN     C2       CG1N1    0.360000       12.0110           0
     27746 WT12     498      MECN     N3       NG1T1   -0.460000       14.0070           0
     27747 WT12     499      MECN     C1       CG331   -0.170000       12.0110           0
     27748 WT12     499      MECN     H11      HGA3     0.090000        1.0080           0
     27749 WT12     499      MECN     H12      HGA3     0.090000        1.0080           0
     27750 WT12     499      MECN     H13      HGA3     0.090000        1.0080           0
     27751 WT12     499      MECN     C2       CG1N1    0.360000       12.0110           0
     27752 WT12     499      MECN     N3       NG1T1   -0.460000       14.0070           0
     27753 WT12     501      MECN     C1       CG331   -0.170000       12.0110           0
     27754 WT12     501      MECN     H11      HGA3     0.090000        1.0080           0
     27755 WT12     501      MECN     H12      HGA3     0.090000        1.0080           0
     27756 WT12     501      MECN     H13      HGA3     0.090000        1.0080           0
     27757 WT12     501      MECN     C2       CG1N1    0.360000       12.0110           0
     27758 WT12     501      MECN     N3       NG1T1   -0.460000       14.0070           0
     27759 WT12     504      MECN     C1       CG331   -0.170000       12.0110           0
     27760 WT12     504      MECN     H11      HGA3     0.090000        1.0080           0
     27761 WT12     504      MECN     H12      HGA3     0.090000        1.0080           0
     27762 WT12     504      MECN     H13      HGA3     0.090000        1.0080           0
     27763 WT12     504      MECN     C2       CG1N1    0.360000       12.0110           0
     27764 WT12     504      MECN     N3       NG1T1   -0.460000       14.0070           0
     27765 WT12     506      MECN     C1       CG331   -0.170000       12.0110           0
     27766 WT12     506      MECN     H11      HGA3     0.090000        1.0080           0
     27767 WT12     506      MECN     H12      HGA3     0.090000        1.0080           0
     27768 WT12     506      MECN     H13      HGA3     0.090000        1.0080           0
     27769 WT12     506      MECN     C2       CG1N1    0.360000       12.0110           0
     27770 WT12     506      MECN     N3       NG1T1   -0.460000       14.0070           0
     27771 WT12     507      MECN     C1       CG331   -0.170000       12.0110           0
     27772 WT12     507      MECN     H11      HGA3     0.090000        1.0080           0
     27773 WT12     507      MECN     H12      HGA3     0.090000        1.0080           0
     27774 WT12     507      MECN     H13      HGA3     0.090000        1.0080           0
     27775 WT12     507      MECN     C2       CG1N1    0.360000       12.0110           0
     27776 WT12     507      MECN     N3       NG1T1   -0.460000       14.0070           0
     27777 WT12     509      MECN     C1       CG331   -0.170000       12.0110           0
     27778 WT12     509      MECN     H11      HGA3     0.090000        1.0080           0
     27779 WT12     509      MECN     H12      HGA3     0.090000        1.0080           0
     27780 WT12     509      MECN     H13      HGA3     0.090000        1.0080           0
     27781 WT12     509      MECN     C2       CG1N1    0.360000       12.0110           0
     27782 WT12     509      MECN     N3       NG1T1   -0.460000       14.0070           0
     27783 WT12     513      MECN     C1       CG331   -0.170000       12.0110           0
     27784 WT12     513      MECN     H11      HGA3     0.090000        1.0080           0
     27785 WT12     513      MECN     H12      HGA3     0.090000        1.0080           0
     27786 WT12     513      MECN     H13      HGA3     0.090000        1.0080           0
     27787 WT12     513      MECN     C2       CG1N1    0.360000       12.0110           0
     27788 WT12     513      MECN     N3       NG1T1   -0.460000       14.0070           0
     27789 WT12     519      MECN     C1       CG331   -0.170000       12.0110           0
     27790 WT12     519      MECN     H11      HGA3     0.090000        1.0080           0
     27791 WT12     519      MECN     H12      HGA3     0.090000        1.0080           0
     27792 WT12     519      MECN     H13      HGA3     0.090000        1.0080           0
     27793 WT12     519      MECN     C2       CG1N1    0.360000       12.0110           0
     27794 WT12     519      MECN     N3       NG1T1   -0.460000       14.0070           0
     27795 WT12     521      MECN     C1       CG331   -0.170000       12.0110           0
     27796 WT12     521      MECN     H11      HGA3     0.090000        1.0080           0
     27797 WT12     521      MECN     H12      HGA3     0.090000        1.0080           0
     27798 WT12     521      MECN     H13      HGA3     0.090000        1.0080           0
     27799 WT12     521      MECN     C2       CG1N1    0.360000       12.0110           0
     27800 WT12     521      MECN     N3       NG1T1   -0.460000       14.0070           0
     27801 WT12     522      MECN     C1       CG331   -0.170000       12.0110           0
     27802 WT12     522      MECN     H11      HGA3     0.090000        1.0080           0
     27803 WT12     522      MECN     H12      HGA3     0.090000        1.0080           0
     27804 WT12     522      MECN     H13      HGA3     0.090000        1.0080           0
     27805 WT12     522      MECN     C2       CG1N1    0.360000       12.0110           0
     27806 WT12     522      MECN     N3       NG1T1   -0.460000       14.0070           0
     27807 WT12     523      MECN     C1       CG331   -0.170000       12.0110           0
     27808 WT12     523      MECN     H11      HGA3     0.090000        1.0080           0
     27809 WT12     523      MECN     H12      HGA3     0.090000        1.0080           0
     27810 WT12     523      MECN     H13      HGA3     0.090000        1.0080           0
     27811 WT12     523      MECN     C2       CG1N1    0.360000       12.0110           0
     27812 WT12     523      MECN     N3       NG1T1   -0.460000       14.0070           0
     27813 WT12     529      MECN     C1       CG331   -0.170000       12.0110           0
     27814 WT12     529      MECN     H11      HGA3     0.090000        1.0080           0
     27815 WT12     529      MECN     H12      HGA3     0.090000        1.0080           0
     27816 WT12     529      MECN     H13      HGA3     0.090000        1.0080           0
     27817 WT12     529      MECN     C2       CG1N1    0.360000       12.0110           0
     27818 WT12     529      MECN     N3       NG1T1   -0.460000       14.0070           0
     27819 WT12     530      MECN     C1       CG331   -0.170000       12.0110           0
     27820 WT12     530      MECN     H11      HGA3     0.090000        1.0080           0
     27821 WT12     530      MECN     H12      HGA3     0.090000        1.0080           0
     27822 WT12     530      MECN     H13      HGA3     0.090000        1.0080           0
     27823 WT12     530      MECN     C2       CG1N1    0.360000       12.0110           0
     27824 WT12     530      MECN     N3       NG1T1   -0.460000       14.0070           0
     27825 WT12     532      MECN     C1       CG331   -0.170000       12.0110           0
     27826 WT12     532      MECN     H11      HGA3     0.090000        1.0080           0
     27827 WT12     532      MECN     H12      HGA3     0.090000        1.0080           0
     27828 WT12     532      MECN     H13      HGA3     0.090000        1.0080           0
     27829 WT12     532      MECN     C2       CG1N1    0.360000       12.0110           0
     27830 WT12     532      MECN     N3       NG1T1   -0.460000       14.0070           0
     27831 WT12     537      MECN     C1       CG331   -0.170000       12.0110           0
     27832 WT12     537      MECN     H11      HGA3     0.090000        1.0080           0
     27833 WT12     537      MECN     H12      HGA3     0.090000        1.0080           0
     27834 WT12     537      MECN     H13      HGA3     0.090000        1.0080           0
     27835 WT12     537      MECN     C2       CG1N1    0.360000       12.0110           0
     27836 WT12     537      MECN     N3       NG1T1   -0.460000       14.0070           0
     27837 WT12     545      MECN     C1       CG331   -0.170000       12.0110           0
     27838 WT12     545      MECN     H11      HGA3     0.090000        1.0080           0
     27839 WT12     545      MECN     H12      HGA3     0.090000        1.0080           0
     27840 WT12     545      MECN     H13      HGA3     0.090000        1.0080           0
     27841 WT12     545      MECN     C2       CG1N1    0.360000       12.0110           0
     27842 WT12     545      MECN     N3       NG1T1   -0.460000       14.0070           0
     27843 WT12     546      MECN     C1       CG331   -0.170000       12.0110           0
     27844 WT12     546      MECN     H11      HGA3     0.090000        1.0080           0
     27845 WT12     546      MECN     H12      HGA3     0.090000        1.0080           0
     27846 WT12     546      MECN     H13      HGA3     0.090000        1.0080           0
     27847 WT12     546      MECN     C2       CG1N1    0.360000       12.0110           0
     27848 WT12     546      MECN     N3       NG1T1   -0.460000       14.0070           0
     27849 WT12     547      MECN     C1       CG331   -0.170000       12.0110           0
     27850 WT12     547      MECN     H11      HGA3     0.090000        1.0080           0
     27851 WT12     547      MECN     H12      HGA3     0.090000        1.0080           0
     27852 WT12     547      MECN     H13      HGA3     0.090000        1.0080           0
     27853 WT12     547      MECN     C2       CG1N1    0.360000       12.0110           0
     27854 WT12     547      MECN     N3       NG1T1   -0.460000       14.0070           0
     27855 WT12     555      MECN     C1       CG331   -0.170000       12.0110           0
     27856 WT12     555      MECN     H11      HGA3     0.090000        1.0080           0
     27857 WT12     555      MECN     H12      HGA3     0.090000        1.0080           0
     27858 WT12     555      MECN     H13      HGA3     0.090000        1.0080           0
     27859 WT12     555      MECN     C2       CG1N1    0.360000       12.0110           0
     27860 WT12     555      MECN     N3       NG1T1   -0.460000       14.0070           0
     27861 WT12     557      MECN     C1       CG331   -0.170000       12.0110           0
     27862 WT12     557      MECN     H11      HGA3     0.090000        1.0080           0
     27863 WT12     557      MECN     H12      HGA3     0.090000        1.0080           0
     27864 WT12     557      MECN     H13      HGA3     0.090000        1.0080           0
     27865 WT12     557      MECN     C2       CG1N1    0.360000       12.0110           0
     27866 WT12     557      MECN     N3       NG1T1   -0.460000       14.0070           0
     27867 WT12     560      MECN     C1       CG331   -0.170000       12.0110           0
     27868 WT12     560      MECN     H11      HGA3     0.090000        1.0080           0
     27869 WT12     560      MECN     H12      HGA3     0.090000        1.0080           0
     27870 WT12     560      MECN     H13      HGA3     0.090000        1.0080           0
     27871 WT12     560      MECN     C2       CG1N1    0.360000       12.0110           0
     27872 WT12     560      MECN     N3       NG1T1   -0.460000       14.0070           0
     27873 WT12     561      MECN     C1       CG331   -0.170000       12.0110           0
     27874 WT12     561      MECN     H11      HGA3     0.090000        1.0080           0
     27875 WT12     561      MECN     H12      HGA3     0.090000        1.0080           0
     27876 WT12     561      MECN     H13      HGA3     0.090000        1.0080           0
     27877 WT12     561      MECN     C2       CG1N1    0.360000       12.0110           0
     27878 WT12     561      MECN     N3       NG1T1   -0.460000       14.0070           0
     27879 WT12     564      MECN     C1       CG331   -0.170000       12.0110           0
     27880 WT12     564      MECN     H11      HGA3     0.090000        1.0080           0
     27881 WT12     564      MECN     H12      HGA3     0.090000        1.0080           0
     27882 WT12     564      MECN     H13      HGA3     0.090000        1.0080           0
     27883 WT12     564      MECN     C2       CG1N1    0.360000       12.0110           0
     27884 WT12     564      MECN     N3       NG1T1   -0.460000       14.0070           0
     27885 WT12     571      MECN     C1       CG331   -0.170000       12.0110           0
     27886 WT12     571      MECN     H11      HGA3     0.090000        1.0080           0
     27887 WT12     571      MECN     H12      HGA3     0.090000        1.0080           0
     27888 WT12     571      MECN     H13      HGA3     0.090000        1.0080           0
     27889 WT12     571      MECN     C2       CG1N1    0.360000       12.0110           0
     27890 WT12     571      MECN     N3       NG1T1   -0.460000       14.0070           0
     27891 WT12     573      MECN     C1       CG331   -0.170000       12.0110           0
     27892 WT12     573      MECN     H11      HGA3     0.090000        1.0080           0
     27893 WT12     573      MECN     H12      HGA3     0.090000        1.0080           0
     27894 WT12     573      MECN     H13      HGA3     0.090000        1.0080           0
     27895 WT12     573      MECN     C2       CG1N1    0.360000       12.0110           0
     27896 WT12     573      MECN     N3       NG1T1   -0.460000       14.0070           0
     27897 WT12     576      MECN     C1       CG331   -0.170000       12.0110           0
     27898 WT12     576      MECN     H11      HGA3     0.090000        1.0080           0
     27899 WT12     576      MECN     H12      HGA3     0.090000        1.0080           0
     27900 WT12     576      MECN     H13      HGA3     0.090000        1.0080           0
     27901 WT12     576      MECN     C2       CG1N1    0.360000       12.0110           0
     27902 WT12     576      MECN     N3       NG1T1   -0.460000       14.0070           0
     27903 WT12     578      MECN     C1       CG331   -0.170000       12.0110           0
     27904 WT12     578      MECN     H11      HGA3     0.090000        1.0080           0
     27905 WT12     578      MECN     H12      HGA3     0.090000        1.0080           0
     27906 WT12     578      MECN     H13      HGA3     0.090000        1.0080           0
     27907 WT12     578      MECN     C2       CG1N1    0.360000       12.0110           0
     27908 WT12     578      MECN     N3       NG1T1   -0.460000       14.0070           0
     27909 WT12     579      MECN     C1       CG331   -0.170000       12.0110           0
     27910 WT12     579      MECN     H11      HGA3     0.090000        1.0080           0
     27911 WT12     579      MECN     H12      HGA3     0.090000        1.0080           0
     27912 WT12     579      MECN     H13      HGA3     0.090000        1.0080           0
     27913 WT12     579      MECN     C2       CG1N1    0.360000       12.0110           0
     27914 WT12     579      MECN     N3       NG1T1   -0.460000       14.0070           0
     27915 WT12     580      MECN     C1       CG331   -0.170000       12.0110           0
     27916 WT12     580      MECN     H11      HGA3     0.090000        1.0080           0
     27917 WT12     580      MECN     H12      HGA3     0.090000        1.0080           0
     27918 WT12     580      MECN     H13      HGA3     0.090000        1.0080           0
     27919 WT12     580      MECN     C2       CG1N1    0.360000       12.0110           0
     27920 WT12     580      MECN     N3       NG1T1   -0.460000       14.0070           0
     27921 WT12     582      MECN     C1       CG331   -0.170000       12.0110           0
     27922 WT12     582      MECN     H11      HGA3     0.090000        1.0080           0
     27923 WT12     582      MECN     H12      HGA3     0.090000        1.0080           0
     27924 WT12     582      MECN     H13      HGA3     0.090000        1.0080           0
     27925 WT12     582      MECN     C2       CG1N1    0.360000       12.0110           0
     27926 WT12     582      MECN     N3       NG1T1   -0.460000       14.0070           0
     27927 WT12     583      MECN     C1       CG331   -0.170000       12.0110           0
     27928 WT12     583      MECN     H11      HGA3     0.090000        1.0080           0
     27929 WT12     583      MECN     H12      HGA3     0.090000        1.0080           0
     27930 WT12     583      MECN     H13      HGA3     0.090000        1.0080           0
     27931 WT12     583      MECN     C2       CG1N1    0.360000       12.0110           0
     27932 WT12     583      MECN     N3       NG1T1   -0.460000       14.0070           0
     27933 WT12     584      MECN     C1       CG331   -0.170000       12.0110           0
     27934 WT12     584      MECN     H11      HGA3     0.090000        1.0080           0
     27935 WT12     584      MECN     H12      HGA3     0.090000        1.0080           0
     27936 WT12     584      MECN     H13      HGA3     0.090000        1.0080           0
     27937 WT12     584      MECN     C2       CG1N1    0.360000       12.0110           0
     27938 WT12     584      MECN     N3       NG1T1   -0.460000       14.0070           0
     27939 WT12     585      MECN     C1       CG331   -0.170000       12.0110           0
     27940 WT12     585      MECN     H11      HGA3     0.090000        1.0080           0
     27941 WT12     585      MECN     H12      HGA3     0.090000        1.0080           0
     27942 WT12     585      MECN     H13      HGA3     0.090000        1.0080           0
     27943 WT12     585      MECN     C2       CG1N1    0.360000       12.0110           0
     27944 WT12     585      MECN     N3       NG1T1   -0.460000       14.0070           0
     27945 WT12     587      MECN     C1       CG331   -0.170000       12.0110           0
     27946 WT12     587      MECN     H11      HGA3     0.090000        1.0080           0
     27947 WT12     587      MECN     H12      HGA3     0.090000        1.0080           0
     27948 WT12     587      MECN     H13      HGA3     0.090000        1.0080           0
     27949 WT12     587      MECN     C2       CG1N1    0.360000       12.0110           0
     27950 WT12     587      MECN     N3       NG1T1   -0.460000       14.0070           0
     27951 WT12     590      MECN     C1       CG331   -0.170000       12.0110           0
     27952 WT12     590      MECN     H11      HGA3     0.090000        1.0080           0
     27953 WT12     590      MECN     H12      HGA3     0.090000        1.0080           0
     27954 WT12     590      MECN     H13      HGA3     0.090000        1.0080           0
     27955 WT12     590      MECN     C2       CG1N1    0.360000       12.0110           0
     27956 WT12     590      MECN     N3       NG1T1   -0.460000       14.0070           0
     27957 WT12     591      MECN     C1       CG331   -0.170000       12.0110           0
     27958 WT12     591      MECN     H11      HGA3     0.090000        1.0080           0
     27959 WT12     591      MECN     H12      HGA3     0.090000        1.0080           0
     27960 WT12     591      MECN     H13      HGA3     0.090000        1.0080           0
     27961 WT12     591      MECN     C2       CG1N1    0.360000       12.0110           0
     27962 WT12     591      MECN     N3       NG1T1   -0.460000       14.0070           0
     27963 WT12     592      MECN     C1       CG331   -0.170000       12.0110           0
     27964 WT12     592      MECN     H11      HGA3     0.090000        1.0080           0
     27965 WT12     592      MECN     H12      HGA3     0.090000        1.0080           0
     27966 WT12     592      MECN     H13      HGA3     0.090000        1.0080           0
     27967 WT12     592      MECN     C2       CG1N1    0.360000       12.0110           0
     27968 WT12     592      MECN     N3       NG1T1   -0.460000       14.0070           0
     27969 WT12     593      MECN     C1       CG331   -0.170000       12.0110           0
     27970 WT12     593      MECN     H11      HGA3     0.090000        1.0080           0
     27971 WT12     593      MECN     H12      HGA3     0.090000        1.0080           0
     27972 WT12     593      MECN     H13      HGA3     0.090000        1.0080           0
     27973 WT12     593      MECN     C2       CG1N1    0.360000       12.0110           0
     27974 WT12     593      MECN     N3       NG1T1   -0.460000       14.0070           0
     27975 WT12     595      MECN     C1       CG331   -0.170000       12.0110           0
     27976 WT12     595      MECN     H11      HGA3     0.090000        1.0080           0
     27977 WT12     595      MECN     H12      HGA3     0.090000        1.0080           0
     27978 WT12     595      MECN     H13      HGA3     0.090000        1.0080           0
     27979 WT12     595      MECN     C2       CG1N1    0.360000       12.0110           0
     27980 WT12     595      MECN     N3       NG1T1   -0.460000       14.0070           0
     27981 WT12     598      MECN     C1       CG331   -0.170000       12.0110           0
     27982 WT12     598      MECN     H11      HGA3     0.090000        1.0080           0
     27983 WT12     598      MECN     H12      HGA3     0.090000        1.0080           0
     27984 WT12     598      MECN     H13      HGA3     0.090000        1.0080           0
     27985 WT12     598      MECN     C2       CG1N1    0.360000       12.0110           0
     27986 WT12     598      MECN     N3       NG1T1   -0.460000       14.0070           0
     27987 WT12     607      MECN     C1       CG331   -0.170000       12.0110           0
     27988 WT12     607      MECN     H11      HGA3     0.090000        1.0080           0
     27989 WT12     607      MECN     H12      HGA3     0.090000        1.0080           0
     27990 WT12     607      MECN     H13      HGA3     0.090000        1.0080           0
     27991 WT12     607      MECN     C2       CG1N1    0.360000       12.0110           0
     27992 WT12     607      MECN     N3       NG1T1   -0.460000       14.0070           0
     27993 WT12     612      MECN     C1       CG331   -0.170000       12.0110           0
     27994 WT12     612      MECN     H11      HGA3     0.090000        1.0080           0
     27995 WT12     612      MECN     H12      HGA3     0.090000        1.0080           0
     27996 WT12     612      MECN     H13      HGA3     0.090000        1.0080           0
     27997 WT12     612      MECN     C2       CG1N1    0.360000       12.0110           0
     27998 WT12     612      MECN     N3       NG1T1   -0.460000       14.0070           0
     27999 WT12     613      MECN     C1       CG331   -0.170000       12.0110           0
     28000 WT12     613      MECN     H11      HGA3     0.090000        1.0080           0
     28001 WT12     613      MECN     H12      HGA3     0.090000        1.0080           0
     28002 WT12     613      MECN     H13      HGA3     0.090000        1.0080           0
     28003 WT12     613      MECN     C2       CG1N1    0.360000       12.0110           0
     28004 WT12     613      MECN     N3       NG1T1   -0.460000       14.0070           0
     28005 WT12     623      MECN     C1       CG331   -0.170000       12.0110           0
     28006 WT12     623      MECN     H11      HGA3     0.090000        1.0080           0
     28007 WT12     623      MECN     H12      HGA3     0.090000        1.0080           0
     28008 WT12     623      MECN     H13      HGA3     0.090000        1.0080           0
     28009 WT12     623      MECN     C2       CG1N1    0.360000       12.0110           0
     28010 WT12     623      MECN     N3       NG1T1   -0.460000       14.0070           0
     28011 WT12     624      MECN     C1       CG331   -0.170000       12.0110           0
     28012 WT12     624      MECN     H11      HGA3     0.090000        1.0080           0
     28013 WT12     624      MECN     H12      HGA3     0.090000        1.0080           0
     28014 WT12     624      MECN     H13      HGA3     0.090000        1.0080           0
     28015 WT12     624      MECN     C2       CG1N1    0.360000       12.0110           0
     28016 WT12     624      MECN     N3       NG1T1   -0.460000       14.0070           0
     28017 WT12     628      MECN     C1       CG331   -0.170000       12.0110           0
     28018 WT12     628      MECN     H11      HGA3     0.090000        1.0080           0
     28019 WT12     628      MECN     H12      HGA3     0.090000        1.0080           0
     28020 WT12     628      MECN     H13      HGA3     0.090000        1.0080           0
     28021 WT12     628      MECN     C2       CG1N1    0.360000       12.0110           0
     28022 WT12     628      MECN     N3       NG1T1   -0.460000       14.0070           0
     28023 WT12     632      MECN     C1       CG331   -0.170000       12.0110           0
     28024 WT12     632      MECN     H11      HGA3     0.090000        1.0080           0
     28025 WT12     632      MECN     H12      HGA3     0.090000        1.0080           0
     28026 WT12     632      MECN     H13      HGA3     0.090000        1.0080           0
     28027 WT12     632      MECN     C2       CG1N1    0.360000       12.0110           0
     28028 WT12     632      MECN     N3       NG1T1   -0.460000       14.0070           0
     28029 WT12     637      MECN     C1       CG331   -0.170000       12.0110           0
     28030 WT12     637      MECN     H11      HGA3     0.090000        1.0080           0
     28031 WT12     637      MECN     H12      HGA3     0.090000        1.0080           0
     28032 WT12     637      MECN     H13      HGA3     0.090000        1.0080           0
     28033 WT12     637      MECN     C2       CG1N1    0.360000       12.0110           0
     28034 WT12     637      MECN     N3       NG1T1   -0.460000       14.0070           0
     28035 WT12     638      MECN     C1       CG331   -0.170000       12.0110           0
     28036 WT12     638      MECN     H11      HGA3     0.090000        1.0080           0
     28037 WT12     638      MECN     H12      HGA3     0.090000        1.0080           0
     28038 WT12     638      MECN     H13      HGA3     0.090000        1.0080           0
     28039 WT12     638      MECN     C2       CG1N1    0.360000       12.0110           0
     28040 WT12     638      MECN     N3       NG1T1   -0.460000       14.0070           0
     28041 WT12     642      MECN     C1       CG331   -0.170000       12.0110           0
     28042 WT12     642      MECN     H11      HGA3     0.090000        1.0080           0
     28043 WT12     642      MECN     H12      HGA3     0.090000        1.0080           0
     28044 WT12     642      MECN     H13      HGA3     0.090000        1.0080           0
     28045 WT12     642      MECN     C2       CG1N1    0.360000       12.0110           0
     28046 WT12     642      MECN     N3       NG1T1   -0.460000       14.0070           0
     28047 WT12     647      MECN     C1       CG331   -0.170000       12.0110           0
     28048 WT12     647      MECN     H11      HGA3     0.090000        1.0080           0
     28049 WT12     647      MECN     H12      HGA3     0.090000        1.0080           0
     28050 WT12     647      MECN     H13      HGA3     0.090000        1.0080           0
     28051 WT12     647      MECN     C2       CG1N1    0.360000       12.0110           0
     28052 WT12     647      MECN     N3       NG1T1   -0.460000       14.0070           0
     28053 WT12     650      MECN     C1       CG331   -0.170000       12.0110           0
     28054 WT12     650      MECN     H11      HGA3     0.090000        1.0080           0
     28055 WT12     650      MECN     H12      HGA3     0.090000        1.0080           0
     28056 WT12     650      MECN     H13      HGA3     0.090000        1.0080           0
     28057 WT12     650      MECN     C2       CG1N1    0.360000       12.0110           0
     28058 WT12     650      MECN     N3       NG1T1   -0.460000       14.0070           0
     28059 WT12     652      MECN     C1       CG331   -0.170000       12.0110           0
     28060 WT12     652      MECN     H11      HGA3     0.090000        1.0080           0
     28061 WT12     652      MECN     H12      HGA3     0.090000        1.0080           0
     28062 WT12     652      MECN     H13      HGA3     0.090000        1.0080           0
     28063 WT12     652      MECN     C2       CG1N1    0.360000       12.0110           0
     28064 WT12     652      MECN     N3       NG1T1   -0.460000       14.0070           0
     28065 WT12     653      MECN     C1       CG331   -0.170000       12.0110           0
     28066 WT12     653      MECN     H11      HGA3     0.090000        1.0080           0
     28067 WT12     653      MECN     H12      HGA3     0.090000        1.0080           0
     28068 WT12     653      MECN     H13      HGA3     0.090000        1.0080           0
     28069 WT12     653      MECN     C2       CG1N1    0.360000       12.0110           0
     28070 WT12     653      MECN     N3       NG1T1   -0.460000       14.0070           0
     28071 WT12     658      MECN     C1       CG331   -0.170000       12.0110           0
     28072 WT12     658      MECN     H11      HGA3     0.090000        1.0080           0
     28073 WT12     658      MECN     H12      HGA3     0.090000        1.0080           0
     28074 WT12     658      MECN     H13      HGA3     0.090000        1.0080           0
     28075 WT12     658      MECN     C2       CG1N1    0.360000       12.0110           0
     28076 WT12     658      MECN     N3       NG1T1   -0.460000       14.0070           0
     28077 WT12     659      MECN     C1       CG331   -0.170000       12.0110           0
     28078 WT12     659      MECN     H11      HGA3     0.090000        1.0080           0
     28079 WT12     659      MECN     H12      HGA3     0.090000        1.0080           0
     28080 WT12     659      MECN     H13      HGA3     0.090000        1.0080           0
     28081 WT12     659      MECN     C2       CG1N1    0.360000       12.0110           0
     28082 WT12     659      MECN     N3       NG1T1   -0.460000       14.0070           0
     28083 WT12     670      MECN     C1       CG331   -0.170000       12.0110           0
     28084 WT12     670      MECN     H11      HGA3     0.090000        1.0080           0
     28085 WT12     670      MECN     H12      HGA3     0.090000        1.0080           0
     28086 WT12     670      MECN     H13      HGA3     0.090000        1.0080           0
     28087 WT12     670      MECN     C2       CG1N1    0.360000       12.0110           0
     28088 WT12     670      MECN     N3       NG1T1   -0.460000       14.0070           0
     28089 WT12     679      MECN     C1       CG331   -0.170000       12.0110           0
     28090 WT12     679      MECN     H11      HGA3     0.090000        1.0080           0
     28091 WT12     679      MECN     H12      HGA3     0.090000        1.0080           0
     28092 WT12     679      MECN     H13      HGA3     0.090000        1.0080           0
     28093 WT12     679      MECN     C2       CG1N1    0.360000       12.0110           0
     28094 WT12     679      MECN     N3       NG1T1   -0.460000       14.0070           0
     28095 WT12     680      MECN     C1       CG331   -0.170000       12.0110           0
     28096 WT12     680      MECN     H11      HGA3     0.090000        1.0080           0
     28097 WT12     680      MECN     H12      HGA3     0.090000        1.0080           0
     28098 WT12     680      MECN     H13      HGA3     0.090000        1.0080           0
     28099 WT12     680      MECN     C2       CG1N1    0.360000       12.0110           0
     28100 WT12     680      MECN     N3       NG1T1   -0.460000       14.0070           0
     28101 WT12     682      MECN     C1       CG331   -0.170000       12.0110           0
     28102 WT12     682      MECN     H11      HGA3     0.090000        1.0080           0
     28103 WT12     682      MECN     H12      HGA3     0.090000        1.0080           0
     28104 WT12     682      MECN     H13      HGA3     0.090000        1.0080           0
     28105 WT12     682      MECN     C2       CG1N1    0.360000       12.0110           0
     28106 WT12     682      MECN     N3       NG1T1   -0.460000       14.0070           0
     28107 WT12     684      MECN     C1       CG331   -0.170000       12.0110           0
     28108 WT12     684      MECN     H11      HGA3     0.090000        1.0080           0
     28109 WT12     684      MECN     H12      HGA3     0.090000        1.0080           0
     28110 WT12     684      MECN     H13      HGA3     0.090000        1.0080           0
     28111 WT12     684      MECN     C2       CG1N1    0.360000       12.0110           0
     28112 WT12     684      MECN     N3       NG1T1   -0.460000       14.0070           0
     28113 WT12     686      MECN     C1       CG331   -0.170000       12.0110           0
     28114 WT12     686      MECN     H11      HGA3     0.090000        1.0080           0
     28115 WT12     686      MECN     H12      HGA3     0.090000        1.0080           0
     28116 WT12     686      MECN     H13      HGA3     0.090000        1.0080           0
     28117 WT12     686      MECN     C2       CG1N1    0.360000       12.0110           0
     28118 WT12     686      MECN     N3       NG1T1   -0.460000       14.0070           0
     28119 WT12     688      MECN     C1       CG331   -0.170000       12.0110           0
     28120 WT12     688      MECN     H11      HGA3     0.090000        1.0080           0
     28121 WT12     688      MECN     H12      HGA3     0.090000        1.0080           0
     28122 WT12     688      MECN     H13      HGA3     0.090000        1.0080           0
     28123 WT12     688      MECN     C2       CG1N1    0.360000       12.0110           0
     28124 WT12     688      MECN     N3       NG1T1   -0.460000       14.0070           0
     28125 WT12     689      MECN     C1       CG331   -0.170000       12.0110           0
     28126 WT12     689      MECN     H11      HGA3     0.090000        1.0080           0
     28127 WT12     689      MECN     H12      HGA3     0.090000        1.0080           0
     28128 WT12     689      MECN     H13      HGA3     0.090000        1.0080           0
     28129 WT12     689      MECN     C2       CG1N1    0.360000       12.0110           0
     28130 WT12     689      MECN     N3       NG1T1   -0.460000       14.0070           0
     28131 WT12     692      MECN     C1       CG331   -0.170000       12.0110           0
     28132 WT12     692      MECN     H11      HGA3     0.090000        1.0080           0
     28133 WT12     692      MECN     H12      HGA3     0.090000        1.0080           0
     28134 WT12     692      MECN     H13      HGA3     0.090000        1.0080           0
     28135 WT12     692      MECN     C2       CG1N1    0.360000       12.0110           0
     28136 WT12     692      MECN     N3       NG1T1   -0.460000       14.0070           0
     28137 WT12     696      MECN     C1       CG331   -0.170000       12.0110           0
     28138 WT12     696      MECN     H11      HGA3     0.090000        1.0080           0
     28139 WT12     696      MECN     H12      HGA3     0.090000        1.0080           0
     28140 WT12     696      MECN     H13      HGA3     0.090000        1.0080           0
     28141 WT12     696      MECN     C2       CG1N1    0.360000       12.0110           0
     28142 WT12     696      MECN     N3       NG1T1   -0.460000       14.0070           0
     28143 WT12     701      MECN     C1       CG331   -0.170000       12.0110           0
     28144 WT12     701      MECN     H11      HGA3     0.090000        1.0080           0
     28145 WT12     701      MECN     H12      HGA3     0.090000        1.0080           0
     28146 WT12     701      MECN     H13      HGA3     0.090000        1.0080           0
     28147 WT12     701      MECN     C2       CG1N1    0.360000       12.0110           0
     28148 WT12     701      MECN     N3       NG1T1   -0.460000       14.0070           0
     28149 WT12     705      MECN     C1       CG331   -0.170000       12.0110           0
     28150 WT12     705      MECN     H11      HGA3     0.090000        1.0080           0
     28151 WT12     705      MECN     H12      HGA3     0.090000        1.0080           0
     28152 WT12     705      MECN     H13      HGA3     0.090000        1.0080           0
     28153 WT12     705      MECN     C2       CG1N1    0.360000       12.0110           0
     28154 WT12     705      MECN     N3       NG1T1   -0.460000       14.0070           0
     28155 WT12     706      MECN     C1       CG331   -0.170000       12.0110           0
     28156 WT12     706      MECN     H11      HGA3     0.090000        1.0080           0
     28157 WT12     706      MECN     H12      HGA3     0.090000        1.0080           0
     28158 WT12     706      MECN     H13      HGA3     0.090000        1.0080           0
     28159 WT12     706      MECN     C2       CG1N1    0.360000       12.0110           0
     28160 WT12     706      MECN     N3       NG1T1   -0.460000       14.0070           0
     28161 WT12     708      MECN     C1       CG331   -0.170000       12.0110           0
     28162 WT12     708      MECN     H11      HGA3     0.090000        1.0080           0
     28163 WT12     708      MECN     H12      HGA3     0.090000        1.0080           0
     28164 WT12     708      MECN     H13      HGA3     0.090000        1.0080           0
     28165 WT12     708      MECN     C2       CG1N1    0.360000       12.0110           0
     28166 WT12     708      MECN     N3       NG1T1   -0.460000       14.0070           0
     28167 WT12     712      MECN     C1       CG331   -0.170000       12.0110           0
     28168 WT12     712      MECN     H11      HGA3     0.090000        1.0080           0
     28169 WT12     712      MECN     H12      HGA3     0.090000        1.0080           0
     28170 WT12     712      MECN     H13      HGA3     0.090000        1.0080           0
     28171 WT12     712      MECN     C2       CG1N1    0.360000       12.0110           0
     28172 WT12     712      MECN     N3       NG1T1   -0.460000       14.0070           0
     28173 WT12     715      MECN     C1       CG331   -0.170000       12.0110           0
     28174 WT12     715      MECN     H11      HGA3     0.090000        1.0080           0
     28175 WT12     715      MECN     H12      HGA3     0.090000        1.0080           0
     28176 WT12     715      MECN     H13      HGA3     0.090000        1.0080           0
     28177 WT12     715      MECN     C2       CG1N1    0.360000       12.0110           0
     28178 WT12     715      MECN     N3       NG1T1   -0.460000       14.0070           0
     28179 WT12     717      MECN     C1       CG331   -0.170000       12.0110           0
     28180 WT12     717      MECN     H11      HGA3     0.090000        1.0080           0
     28181 WT12     717      MECN     H12      HGA3     0.090000        1.0080           0
     28182 WT12     717      MECN     H13      HGA3     0.090000        1.0080           0
     28183 WT12     717      MECN     C2       CG1N1    0.360000       12.0110           0
     28184 WT12     717      MECN     N3       NG1T1   -0.460000       14.0070           0
     28185 WT12     726      MECN     C1       CG331   -0.170000       12.0110           0
     28186 WT12     726      MECN     H11      HGA3     0.090000        1.0080           0
     28187 WT12     726      MECN     H12      HGA3     0.090000        1.0080           0
     28188 WT12     726      MECN     H13      HGA3     0.090000        1.0080           0
     28189 WT12     726      MECN     C2       CG1N1    0.360000       12.0110           0
     28190 WT12     726      MECN     N3       NG1T1   -0.460000       14.0070           0
     28191 WT12     728      MECN     C1       CG331   -0.170000       12.0110           0
     28192 WT12     728      MECN     H11      HGA3     0.090000        1.0080           0
     28193 WT12     728      MECN     H12      HGA3     0.090000        1.0080           0
     28194 WT12     728      MECN     H13      HGA3     0.090000        1.0080           0
     28195 WT12     728      MECN     C2       CG1N1    0.360000       12.0110           0
     28196 WT12     728      MECN     N3       NG1T1   -0.460000       14.0070           0
     28197 WT12     729      MECN     C1       CG331   -0.170000       12.0110           0
     28198 WT12     729      MECN     H11      HGA3     0.090000        1.0080           0
     28199 WT12     729      MECN     H12      HGA3     0.090000        1.0080           0
     28200 WT12     729      MECN     H13      HGA3     0.090000        1.0080           0
     28201 WT12     729      MECN     C2       CG1N1    0.360000       12.0110           0
     28202 WT12     729      MECN     N3       NG1T1   -0.460000       14.0070           0
     28203 WT12     731      MECN     C1       CG331   -0.170000       12.0110           0
     28204 WT12     731      MECN     H11      HGA3     0.090000        1.0080           0
     28205 WT12     731      MECN     H12      HGA3     0.090000        1.0080           0
     28206 WT12     731      MECN     H13      HGA3     0.090000        1.0080           0
     28207 WT12     731      MECN     C2       CG1N1    0.360000       12.0110           0
     28208 WT12     731      MECN     N3       NG1T1   -0.460000       14.0070           0
     28209 WT12     733      MECN     C1       CG331   -0.170000       12.0110           0
     28210 WT12     733      MECN     H11      HGA3     0.090000        1.0080           0
     28211 WT12     733      MECN     H12      HGA3     0.090000        1.0080           0
     28212 WT12     733      MECN     H13      HGA3     0.090000        1.0080           0
     28213 WT12     733      MECN     C2       CG1N1    0.360000       12.0110           0
     28214 WT12     733      MECN     N3       NG1T1   -0.460000       14.0070           0
     28215 WT12     734      MECN     C1       CG331   -0.170000       12.0110           0
     28216 WT12     734      MECN     H11      HGA3     0.090000        1.0080           0
     28217 WT12     734      MECN     H12      HGA3     0.090000        1.0080           0
     28218 WT12     734      MECN     H13      HGA3     0.090000        1.0080           0
     28219 WT12     734      MECN     C2       CG1N1    0.360000       12.0110           0
     28220 WT12     734      MECN     N3       NG1T1   -0.460000       14.0070           0
     28221 WT12     736      MECN     C1       CG331   -0.170000       12.0110           0
     28222 WT12     736      MECN     H11      HGA3     0.090000        1.0080           0
     28223 WT12     736      MECN     H12      HGA3     0.090000        1.0080           0
     28224 WT12     736      MECN     H13      HGA3     0.090000        1.0080           0
     28225 WT12     736      MECN     C2       CG1N1    0.360000       12.0110           0
     28226 WT12     736      MECN     N3       NG1T1   -0.460000       14.0070           0
     28227 WT12     737      MECN     C1       CG331   -0.170000       12.0110           0
     28228 WT12     737      MECN     H11      HGA3     0.090000        1.0080           0
     28229 WT12     737      MECN     H12      HGA3     0.090000        1.0080           0
     28230 WT12     737      MECN     H13      HGA3     0.090000        1.0080           0
     28231 WT12     737      MECN     C2       CG1N1    0.360000       12.0110           0
     28232 WT12     737      MECN     N3       NG1T1   -0.460000       14.0070           0
     28233 WT12     741      MECN     C1       CG331   -0.170000       12.0110           0
     28234 WT12     741      MECN     H11      HGA3     0.090000        1.0080           0
     28235 WT12     741      MECN     H12      HGA3     0.090000        1.0080           0
     28236 WT12     741      MECN     H13      HGA3     0.090000        1.0080           0
     28237 WT12     741      MECN     C2       CG1N1    0.360000       12.0110           0
     28238 WT12     741      MECN     N3       NG1T1   -0.460000       14.0070           0
     28239 WT12     743      MECN     C1       CG331   -0.170000       12.0110           0
     28240 WT12     743      MECN     H11      HGA3     0.090000        1.0080           0
     28241 WT12     743      MECN     H12      HGA3     0.090000        1.0080           0
     28242 WT12     743      MECN     H13      HGA3     0.090000        1.0080           0
     28243 WT12     743      MECN     C2       CG1N1    0.360000       12.0110           0
     28244 WT12     743      MECN     N3       NG1T1   -0.460000       14.0070           0
     28245 WT12     744      MECN     C1       CG331   -0.170000       12.0110           0
     28246 WT12     744      MECN     H11      HGA3     0.090000        1.0080           0
     28247 WT12     744      MECN     H12      HGA3     0.090000        1.0080           0
     28248 WT12     744      MECN     H13      HGA3     0.090000        1.0080           0
     28249 WT12     744      MECN     C2       CG1N1    0.360000       12.0110           0
     28250 WT12     744      MECN     N3       NG1T1   -0.460000       14.0070           0
     28251 WT12     747      MECN     C1       CG331   -0.170000       12.0110           0
     28252 WT12     747      MECN     H11      HGA3     0.090000        1.0080           0
     28253 WT12     747      MECN     H12      HGA3     0.090000        1.0080           0
     28254 WT12     747      MECN     H13      HGA3     0.090000        1.0080           0
     28255 WT12     747      MECN     C2       CG1N1    0.360000       12.0110           0
     28256 WT12     747      MECN     N3       NG1T1   -0.460000       14.0070           0
     28257 WT12     749      MECN     C1       CG331   -0.170000       12.0110           0
     28258 WT12     749      MECN     H11      HGA3     0.090000        1.0080           0
     28259 WT12     749      MECN     H12      HGA3     0.090000        1.0080           0
     28260 WT12     749      MECN     H13      HGA3     0.090000        1.0080           0
     28261 WT12     749      MECN     C2       CG1N1    0.360000       12.0110           0
     28262 WT12     749      MECN     N3       NG1T1   -0.460000       14.0070           0
     28263 WT12     750      MECN     C1       CG331   -0.170000       12.0110           0
     28264 WT12     750      MECN     H11      HGA3     0.090000        1.0080           0
     28265 WT12     750      MECN     H12      HGA3     0.090000        1.0080           0
     28266 WT12     750      MECN     H13      HGA3     0.090000        1.0080           0
     28267 WT12     750      MECN     C2       CG1N1    0.360000       12.0110           0
     28268 WT12     750      MECN     N3       NG1T1   -0.460000       14.0070           0
     28269 WT12     752      MECN     C1       CG331   -0.170000       12.0110           0
     28270 WT12     752      MECN     H11      HGA3     0.090000        1.0080           0
     28271 WT12     752      MECN     H12      HGA3     0.090000        1.0080           0
     28272 WT12     752      MECN     H13      HGA3     0.090000        1.0080           0
     28273 WT12     752      MECN     C2       CG1N1    0.360000       12.0110           0
     28274 WT12     752      MECN     N3       NG1T1   -0.460000       14.0070           0
     28275 WT12     754      MECN     C1       CG331   -0.170000       12.0110           0
     28276 WT12     754      MECN     H11      HGA3     0.090000        1.0080           0
     28277 WT12     754      MECN     H12      HGA3     0.090000        1.0080           0
     28278 WT12     754      MECN     H13      HGA3     0.090000        1.0080           0
     28279 WT12     754      MECN     C2       CG1N1    0.360000       12.0110           0
     28280 WT12     754      MECN     N3       NG1T1   -0.460000       14.0070           0
     28281 WT12     755      MECN     C1       CG331   -0.170000       12.0110           0
     28282 WT12     755      MECN     H11      HGA3     0.090000        1.0080           0
     28283 WT12     755      MECN     H12      HGA3     0.090000        1.0080           0
     28284 WT12     755      MECN     H13      HGA3     0.090000        1.0080           0
     28285 WT12     755      MECN     C2       CG1N1    0.360000       12.0110           0
     28286 WT12     755      MECN     N3       NG1T1   -0.460000       14.0070           0
     28287 WT12     756      MECN     C1       CG331   -0.170000       12.0110           0
     28288 WT12     756      MECN     H11      HGA3     0.090000        1.0080           0
     28289 WT12     756      MECN     H12      HGA3     0.090000        1.0080           0
     28290 WT12     756      MECN     H13      HGA3     0.090000        1.0080           0
     28291 WT12     756      MECN     C2       CG1N1    0.360000       12.0110           0
     28292 WT12     756      MECN     N3       NG1T1   -0.460000       14.0070           0
     28293 WT12     757      MECN     C1       CG331   -0.170000       12.0110           0
     28294 WT12     757      MECN     H11      HGA3     0.090000        1.0080           0
     28295 WT12     757      MECN     H12      HGA3     0.090000        1.0080           0
     28296 WT12     757      MECN     H13      HGA3     0.090000        1.0080           0
     28297 WT12     757      MECN     C2       CG1N1    0.360000       12.0110           0
     28298 WT12     757      MECN     N3       NG1T1   -0.460000       14.0070           0
     28299 WT12     758      MECN     C1       CG331   -0.170000       12.0110           0
     28300 WT12     758      MECN     H11      HGA3     0.090000        1.0080           0
     28301 WT12     758      MECN     H12      HGA3     0.090000        1.0080           0
     28302 WT12     758      MECN     H13      HGA3     0.090000        1.0080           0
     28303 WT12     758      MECN     C2       CG1N1    0.360000       12.0110           0
     28304 WT12     758      MECN     N3       NG1T1   -0.460000       14.0070           0
     28305 WT12     761      MECN     C1       CG331   -0.170000       12.0110           0
     28306 WT12     761      MECN     H11      HGA3     0.090000        1.0080           0
     28307 WT12     761      MECN     H12      HGA3     0.090000        1.0080           0
     28308 WT12     761      MECN     H13      HGA3     0.090000        1.0080           0
     28309 WT12     761      MECN     C2       CG1N1    0.360000       12.0110           0
     28310 WT12     761      MECN     N3       NG1T1   -0.460000       14.0070           0
     28311 WT12     762      MECN     C1       CG331   -0.170000       12.0110           0
     28312 WT12     762      MECN     H11      HGA3     0.090000        1.0080           0
     28313 WT12     762      MECN     H12      HGA3     0.090000        1.0080           0
     28314 WT12     762      MECN     H13      HGA3     0.090000        1.0080           0
     28315 WT12     762      MECN     C2       CG1N1    0.360000       12.0110           0
     28316 WT12     762      MECN     N3       NG1T1   -0.460000       14.0070           0
     28317 WT12     763      MECN     C1       CG331   -0.170000       12.0110           0
     28318 WT12     763      MECN     H11      HGA3     0.090000        1.0080           0
     28319 WT12     763      MECN     H12      HGA3     0.090000        1.0080           0
     28320 WT12     763      MECN     H13      HGA3     0.090000        1.0080           0
     28321 WT12     763      MECN     C2       CG1N1    0.360000       12.0110           0
     28322 WT12     763      MECN     N3       NG1T1   -0.460000       14.0070           0
     28323 WT12     775      MECN     C1       CG331   -0.170000       12.0110           0
     28324 WT12     775      MECN     H11      HGA3     0.090000        1.0080           0
     28325 WT12     775      MECN     H12      HGA3     0.090000        1.0080           0
     28326 WT12     775      MECN     H13      HGA3     0.090000        1.0080           0
     28327 WT12     775      MECN     C2       CG1N1    0.360000       12.0110           0
     28328 WT12     775      MECN     N3       NG1T1   -0.460000       14.0070           0
     28329 WT12     777      MECN     C1       CG331   -0.170000       12.0110           0
     28330 WT12     777      MECN     H11      HGA3     0.090000        1.0080           0
     28331 WT12     777      MECN     H12      HGA3     0.090000        1.0080           0
     28332 WT12     777      MECN     H13      HGA3     0.090000        1.0080           0
     28333 WT12     777      MECN     C2       CG1N1    0.360000       12.0110           0
     28334 WT12     777      MECN     N3       NG1T1   -0.460000       14.0070           0
     28335 WT12     780      MECN     C1       CG331   -0.170000       12.0110           0
     28336 WT12     780      MECN     H11      HGA3     0.090000        1.0080           0
     28337 WT12     780      MECN     H12      HGA3     0.090000        1.0080           0
     28338 WT12     780      MECN     H13      HGA3     0.090000        1.0080           0
     28339 WT12     780      MECN     C2       CG1N1    0.360000       12.0110           0
     28340 WT12     780      MECN     N3       NG1T1   -0.460000       14.0070           0
     28341 WT12     781      MECN     C1       CG331   -0.170000       12.0110           0
     28342 WT12     781      MECN     H11      HGA3     0.090000        1.0080           0
     28343 WT12     781      MECN     H12      HGA3     0.090000        1.0080           0
     28344 WT12     781      MECN     H13      HGA3     0.090000        1.0080           0
     28345 WT12     781      MECN     C2       CG1N1    0.360000       12.0110           0
     28346 WT12     781      MECN     N3       NG1T1   -0.460000       14.0070           0
     28347 WT12     782      MECN     C1       CG331   -0.170000       12.0110           0
     28348 WT12     782      MECN     H11      HGA3     0.090000        1.0080           0
     28349 WT12     782      MECN     H12      HGA3     0.090000        1.0080           0
     28350 WT12     782      MECN     H13      HGA3     0.090000        1.0080           0
     28351 WT12     782      MECN     C2       CG1N1    0.360000       12.0110           0
     28352 WT12     782      MECN     N3       NG1T1   -0.460000       14.0070           0
     28353 WT12     787      MECN     C1       CG331   -0.170000       12.0110           0
     28354 WT12     787      MECN     H11      HGA3     0.090000        1.0080           0
     28355 WT12     787      MECN     H12      HGA3     0.090000        1.0080           0
     28356 WT12     787      MECN     H13      HGA3     0.090000        1.0080           0
     28357 WT12     787      MECN     C2       CG1N1    0.360000       12.0110           0
     28358 WT12     787      MECN     N3       NG1T1   -0.460000       14.0070           0
     28359 WT12     789      MECN     C1       CG331   -0.170000       12.0110           0
     28360 WT12     789      MECN     H11      HGA3     0.090000        1.0080           0
     28361 WT12     789      MECN     H12      HGA3     0.090000        1.0080           0
     28362 WT12     789      MECN     H13      HGA3     0.090000        1.0080           0
     28363 WT12     789      MECN     C2       CG1N1    0.360000       12.0110           0
     28364 WT12     789      MECN     N3       NG1T1   -0.460000       14.0070           0
     28365 WT12     795      MECN     C1       CG331   -0.170000       12.0110           0
     28366 WT12     795      MECN     H11      HGA3     0.090000        1.0080           0
     28367 WT12     795      MECN     H12      HGA3     0.090000        1.0080           0
     28368 WT12     795      MECN     H13      HGA3     0.090000        1.0080           0
     28369 WT12     795      MECN     C2       CG1N1    0.360000       12.0110           0
     28370 WT12     795      MECN     N3       NG1T1   -0.460000       14.0070           0
     28371 WT12     800      MECN     C1       CG331   -0.170000       12.0110           0
     28372 WT12     800      MECN     H11      HGA3     0.090000        1.0080           0
     28373 WT12     800      MECN     H12      HGA3     0.090000        1.0080           0
     28374 WT12     800      MECN     H13      HGA3     0.090000        1.0080           0
     28375 WT12     800      MECN     C2       CG1N1    0.360000       12.0110           0
     28376 WT12     800      MECN     N3       NG1T1   -0.460000       14.0070           0
     28377 WT12     801      MECN     C1       CG331   -0.170000       12.0110           0
     28378 WT12     801      MECN     H11      HGA3     0.090000        1.0080           0
     28379 WT12     801      MECN     H12      HGA3     0.090000        1.0080           0
     28380 WT12     801      MECN     H13      HGA3     0.090000        1.0080           0
     28381 WT12     801      MECN     C2       CG1N1    0.360000       12.0110           0
     28382 WT12     801      MECN     N3       NG1T1   -0.460000       14.0070           0
     28383 WT12     803      MECN     C1       CG331   -0.170000       12.0110           0
     28384 WT12     803      MECN     H11      HGA3     0.090000        1.0080           0
     28385 WT12     803      MECN     H12      HGA3     0.090000        1.0080           0
     28386 WT12     803      MECN     H13      HGA3     0.090000        1.0080           0
     28387 WT12     803      MECN     C2       CG1N1    0.360000       12.0110           0
     28388 WT12     803      MECN     N3       NG1T1   -0.460000       14.0070           0
     28389 WT12     805      MECN     C1       CG331   -0.170000       12.0110           0
     28390 WT12     805      MECN     H11      HGA3     0.090000        1.0080           0
     28391 WT12     805      MECN     H12      HGA3     0.090000        1.0080           0
     28392 WT12     805      MECN     H13      HGA3     0.090000        1.0080           0
     28393 WT12     805      MECN     C2       CG1N1    0.360000       12.0110           0
     28394 WT12     805      MECN     N3       NG1T1   -0.460000       14.0070           0
     28395 WT12     810      MECN     C1       CG331   -0.170000       12.0110           0
     28396 WT12     810      MECN     H11      HGA3     0.090000        1.0080           0
     28397 WT12     810      MECN     H12      HGA3     0.090000        1.0080           0
     28398 WT12     810      MECN     H13      HGA3     0.090000        1.0080           0
     28399 WT12     810      MECN     C2       CG1N1    0.360000       12.0110           0
     28400 WT12     810      MECN     N3       NG1T1   -0.460000       14.0070           0
     28401 WT12     814      MECN     C1       CG331   -0.170000       12.0110           0
     28402 WT12     814      MECN     H11      HGA3     0.090000        1.0080           0
     28403 WT12     814      MECN     H12      HGA3     0.090000        1.0080           0
     28404 WT12     814      MECN     H13      HGA3     0.090000        1.0080           0
     28405 WT12     814      MECN     C2       CG1N1    0.360000       12.0110           0
     28406 WT12     814      MECN     N3       NG1T1   -0.460000       14.0070           0
     28407 WT12     818      MECN     C1       CG331   -0.170000       12.0110           0
     28408 WT12     818      MECN     H11      HGA3     0.090000        1.0080           0
     28409 WT12     818      MECN     H12      HGA3     0.090000        1.0080           0
     28410 WT12     818      MECN     H13      HGA3     0.090000        1.0080           0
     28411 WT12     818      MECN     C2       CG1N1    0.360000       12.0110           0
     28412 WT12     818      MECN     N3       NG1T1   -0.460000       14.0070           0
     28413 WT12     822      MECN     C1       CG331   -0.170000       12.0110           0
     28414 WT12     822      MECN     H11      HGA3     0.090000        1.0080           0
     28415 WT12     822      MECN     H12      HGA3     0.090000        1.0080           0
     28416 WT12     822      MECN     H13      HGA3     0.090000        1.0080           0
     28417 WT12     822      MECN     C2       CG1N1    0.360000       12.0110           0
     28418 WT12     822      MECN     N3       NG1T1   -0.460000       14.0070           0
     28419 WT12     829      MECN     C1       CG331   -0.170000       12.0110           0
     28420 WT12     829      MECN     H11      HGA3     0.090000        1.0080           0
     28421 WT12     829      MECN     H12      HGA3     0.090000        1.0080           0
     28422 WT12     829      MECN     H13      HGA3     0.090000        1.0080           0
     28423 WT12     829      MECN     C2       CG1N1    0.360000       12.0110           0
     28424 WT12     829      MECN     N3       NG1T1   -0.460000       14.0070           0
     28425 WT12     831      MECN     C1       CG331   -0.170000       12.0110           0
     28426 WT12     831      MECN     H11      HGA3     0.090000        1.0080           0
     28427 WT12     831      MECN     H12      HGA3     0.090000        1.0080           0
     28428 WT12     831      MECN     H13      HGA3     0.090000        1.0080           0
     28429 WT12     831      MECN     C2       CG1N1    0.360000       12.0110           0
     28430 WT12     831      MECN     N3       NG1T1   -0.460000       14.0070           0
     28431 WT12     836      MECN     C1       CG331   -0.170000       12.0110           0
     28432 WT12     836      MECN     H11      HGA3     0.090000        1.0080           0
     28433 WT12     836      MECN     H12      HGA3     0.090000        1.0080           0
     28434 WT12     836      MECN     H13      HGA3     0.090000        1.0080           0
     28435 WT12     836      MECN     C2       CG1N1    0.360000       12.0110           0
     28436 WT12     836      MECN     N3       NG1T1   -0.460000       14.0070           0
     28437 WT12     838      MECN     C1       CG331   -0.170000       12.0110           0
     28438 WT12     838      MECN     H11      HGA3     0.090000        1.0080           0
     28439 WT12     838      MECN     H12      HGA3     0.090000        1.0080           0
     28440 WT12     838      MECN     H13      HGA3     0.090000        1.0080           0
     28441 WT12     838      MECN     C2       CG1N1    0.360000       12.0110           0
     28442 WT12     838      MECN     N3       NG1T1   -0.460000       14.0070           0
     28443 WT12     839      MECN     C1       CG331   -0.170000       12.0110           0
     28444 WT12     839      MECN     H11      HGA3     0.090000        1.0080           0
     28445 WT12     839      MECN     H12      HGA3     0.090000        1.0080           0
     28446 WT12     839      MECN     H13      HGA3     0.090000        1.0080           0
     28447 WT12     839      MECN     C2       CG1N1    0.360000       12.0110           0
     28448 WT12     839      MECN     N3       NG1T1   -0.460000       14.0070           0
     28449 WT12     842      MECN     C1       CG331   -0.170000       12.0110           0
     28450 WT12     842      MECN     H11      HGA3     0.090000        1.0080           0
     28451 WT12     842      MECN     H12      HGA3     0.090000        1.0080           0
     28452 WT12     842      MECN     H13      HGA3     0.090000        1.0080           0
     28453 WT12     842      MECN     C2       CG1N1    0.360000       12.0110           0
     28454 WT12     842      MECN     N3       NG1T1   -0.460000       14.0070           0
     28455 WT12     844      MECN     C1       CG331   -0.170000       12.0110           0
     28456 WT12     844      MECN     H11      HGA3     0.090000        1.0080           0
     28457 WT12     844      MECN     H12      HGA3     0.090000        1.0080           0
     28458 WT12     844      MECN     H13      HGA3     0.090000        1.0080           0
     28459 WT12     844      MECN     C2       CG1N1    0.360000       12.0110           0
     28460 WT12     844      MECN     N3       NG1T1   -0.460000       14.0070           0
     28461 WT12     850      MECN     C1       CG331   -0.170000       12.0110           0
     28462 WT12     850      MECN     H11      HGA3     0.090000        1.0080           0
     28463 WT12     850      MECN     H12      HGA3     0.090000        1.0080           0
     28464 WT12     850      MECN     H13      HGA3     0.090000        1.0080           0
     28465 WT12     850      MECN     C2       CG1N1    0.360000       12.0110           0
     28466 WT12     850      MECN     N3       NG1T1   -0.460000       14.0070           0
     28467 WT12     851      MECN     C1       CG331   -0.170000       12.0110           0
     28468 WT12     851      MECN     H11      HGA3     0.090000        1.0080           0
     28469 WT12     851      MECN     H12      HGA3     0.090000        1.0080           0
     28470 WT12     851      MECN     H13      HGA3     0.090000        1.0080           0
     28471 WT12     851      MECN     C2       CG1N1    0.360000       12.0110           0
     28472 WT12     851      MECN     N3       NG1T1   -0.460000       14.0070           0
     28473 WT12     859      MECN     C1       CG331   -0.170000       12.0110           0
     28474 WT12     859      MECN     H11      HGA3     0.090000        1.0080           0
     28475 WT12     859      MECN     H12      HGA3     0.090000        1.0080           0
     28476 WT12     859      MECN     H13      HGA3     0.090000        1.0080           0
     28477 WT12     859      MECN     C2       CG1N1    0.360000       12.0110           0
     28478 WT12     859      MECN     N3       NG1T1   -0.460000       14.0070           0
     28479 WT12     861      MECN     C1       CG331   -0.170000       12.0110           0
     28480 WT12     861      MECN     H11      HGA3     0.090000        1.0080           0
     28481 WT12     861      MECN     H12      HGA3     0.090000        1.0080           0
     28482 WT12     861      MECN     H13      HGA3     0.090000        1.0080           0
     28483 WT12     861      MECN     C2       CG1N1    0.360000       12.0110           0
     28484 WT12     861      MECN     N3       NG1T1   -0.460000       14.0070           0
     28485 WT12     862      MECN     C1       CG331   -0.170000       12.0110           0
     28486 WT12     862      MECN     H11      HGA3     0.090000        1.0080           0
     28487 WT12     862      MECN     H12      HGA3     0.090000        1.0080           0
     28488 WT12     862      MECN     H13      HGA3     0.090000        1.0080           0
     28489 WT12     862      MECN     C2       CG1N1    0.360000       12.0110           0
     28490 WT12     862      MECN     N3       NG1T1   -0.460000       14.0070           0
     28491 WT12     866      MECN     C1       CG331   -0.170000       12.0110           0
     28492 WT12     866      MECN     H11      HGA3     0.090000        1.0080           0
     28493 WT12     866      MECN     H12      HGA3     0.090000        1.0080           0
     28494 WT12     866      MECN     H13      HGA3     0.090000        1.0080           0
     28495 WT12     866      MECN     C2       CG1N1    0.360000       12.0110           0
     28496 WT12     866      MECN     N3       NG1T1   -0.460000       14.0070           0
     28497 WT12     867      MECN     C1       CG331   -0.170000       12.0110           0
     28498 WT12     867      MECN     H11      HGA3     0.090000        1.0080           0
     28499 WT12     867      MECN     H12      HGA3     0.090000        1.0080           0
     28500 WT12     867      MECN     H13      HGA3     0.090000        1.0080           0
     28501 WT12     867      MECN     C2       CG1N1    0.360000       12.0110           0
     28502 WT12     867      MECN     N3       NG1T1   -0.460000       14.0070           0
     28503 WT12     868      MECN     C1       CG331   -0.170000       12.0110           0
     28504 WT12     868      MECN     H11      HGA3     0.090000        1.0080           0
     28505 WT12     868      MECN     H12      HGA3     0.090000        1.0080           0
     28506 WT12     868      MECN     H13      HGA3     0.090000        1.0080           0
     28507 WT12     868      MECN     C2       CG1N1    0.360000       12.0110           0
     28508 WT12     868      MECN     N3       NG1T1   -0.460000       14.0070           0
     28509 WT12     871      MECN     C1       CG331   -0.170000       12.0110           0
     28510 WT12     871      MECN     H11      HGA3     0.090000        1.0080           0
     28511 WT12     871      MECN     H12      HGA3     0.090000        1.0080           0
     28512 WT12     871      MECN     H13      HGA3     0.090000        1.0080           0
     28513 WT12     871      MECN     C2       CG1N1    0.360000       12.0110           0
     28514 WT12     871      MECN     N3       NG1T1   -0.460000       14.0070           0
     28515 WT12     873      MECN     C1       CG331   -0.170000       12.0110           0
     28516 WT12     873      MECN     H11      HGA3     0.090000        1.0080           0
     28517 WT12     873      MECN     H12      HGA3     0.090000        1.0080           0
     28518 WT12     873      MECN     H13      HGA3     0.090000        1.0080           0
     28519 WT12     873      MECN     C2       CG1N1    0.360000       12.0110           0
     28520 WT12     873      MECN     N3       NG1T1   -0.460000       14.0070           0
     28521 WT12     879      MECN     C1       CG331   -0.170000       12.0110           0
     28522 WT12     879      MECN     H11      HGA3     0.090000        1.0080           0
     28523 WT12     879      MECN     H12      HGA3     0.090000        1.0080           0
     28524 WT12     879      MECN     H13      HGA3     0.090000        1.0080           0
     28525 WT12     879      MECN     C2       CG1N1    0.360000       12.0110           0
     28526 WT12     879      MECN     N3       NG1T1   -0.460000       14.0070           0
     28527 WT12     880      MECN     C1       CG331   -0.170000       12.0110           0
     28528 WT12     880      MECN     H11      HGA3     0.090000        1.0080           0
     28529 WT12     880      MECN     H12      HGA3     0.090000        1.0080           0
     28530 WT12     880      MECN     H13      HGA3     0.090000        1.0080           0
     28531 WT12     880      MECN     C2       CG1N1    0.360000       12.0110           0
     28532 WT12     880      MECN     N3       NG1T1   -0.460000       14.0070           0
     28533 WT12     882      MECN     C1       CG331   -0.170000       12.0110           0
     28534 WT12     882      MECN     H11      HGA3     0.090000        1.0080           0
     28535 WT12     882      MECN     H12      HGA3     0.090000        1.0080           0
     28536 WT12     882      MECN     H13      HGA3     0.090000        1.0080           0
     28537 WT12     882      MECN     C2       CG1N1    0.360000       12.0110           0
     28538 WT12     882      MECN     N3       NG1T1   -0.460000       14.0070           0
     28539 WT12     883      MECN     C1       CG331   -0.170000       12.0110           0
     28540 WT12     883      MECN     H11      HGA3     0.090000        1.0080           0
     28541 WT12     883      MECN     H12      HGA3     0.090000        1.0080           0
     28542 WT12     883      MECN     H13      HGA3     0.090000        1.0080           0
     28543 WT12     883      MECN     C2       CG1N1    0.360000       12.0110           0
     28544 WT12     883      MECN     N3       NG1T1   -0.460000       14.0070           0
     28545 WT12     884      MECN     C1       CG331   -0.170000       12.0110           0
     28546 WT12     884      MECN     H11      HGA3     0.090000        1.0080           0
     28547 WT12     884      MECN     H12      HGA3     0.090000        1.0080           0
     28548 WT12     884      MECN     H13      HGA3     0.090000        1.0080           0
     28549 WT12     884      MECN     C2       CG1N1    0.360000       12.0110           0
     28550 WT12     884      MECN     N3       NG1T1   -0.460000       14.0070           0
     28551 WT12     887      MECN     C1       CG331   -0.170000       12.0110           0
     28552 WT12     887      MECN     H11      HGA3     0.090000        1.0080           0
     28553 WT12     887      MECN     H12      HGA3     0.090000        1.0080           0
     28554 WT12     887      MECN     H13      HGA3     0.090000        1.0080           0
     28555 WT12     887      MECN     C2       CG1N1    0.360000       12.0110           0
     28556 WT12     887      MECN     N3       NG1T1   -0.460000       14.0070           0
     28557 WT12     889      MECN     C1       CG331   -0.170000       12.0110           0
     28558 WT12     889      MECN     H11      HGA3     0.090000        1.0080           0
     28559 WT12     889      MECN     H12      HGA3     0.090000        1.0080           0
     28560 WT12     889      MECN     H13      HGA3     0.090000        1.0080           0
     28561 WT12     889      MECN     C2       CG1N1    0.360000       12.0110           0
     28562 WT12     889      MECN     N3       NG1T1   -0.460000       14.0070           0
     28563 WT12     890      MECN     C1       CG331   -0.170000       12.0110           0
     28564 WT12     890      MECN     H11      HGA3     0.090000        1.0080           0
     28565 WT12     890      MECN     H12      HGA3     0.090000        1.0080           0
     28566 WT12     890      MECN     H13      HGA3     0.090000        1.0080           0
     28567 WT12     890      MECN     C2       CG1N1    0.360000       12.0110           0
     28568 WT12     890      MECN     N3       NG1T1   -0.460000       14.0070           0
     28569 WT12     893      MECN     C1       CG331   -0.170000       12.0110           0
     28570 WT12     893      MECN     H11      HGA3     0.090000        1.0080           0
     28571 WT12     893      MECN     H12      HGA3     0.090000        1.0080           0
     28572 WT12     893      MECN     H13      HGA3     0.090000        1.0080           0
     28573 WT12     893      MECN     C2       CG1N1    0.360000       12.0110           0
     28574 WT12     893      MECN     N3       NG1T1   -0.460000       14.0070           0
     28575 WT12     894      MECN     C1       CG331   -0.170000       12.0110           0
     28576 WT12     894      MECN     H11      HGA3     0.090000        1.0080           0
     28577 WT12     894      MECN     H12      HGA3     0.090000        1.0080           0
     28578 WT12     894      MECN     H13      HGA3     0.090000        1.0080           0
     28579 WT12     894      MECN     C2       CG1N1    0.360000       12.0110           0
     28580 WT12     894      MECN     N3       NG1T1   -0.460000       14.0070           0
     28581 WT12     896      MECN     C1       CG331   -0.170000       12.0110           0
     28582 WT12     896      MECN     H11      HGA3     0.090000        1.0080           0
     28583 WT12     896      MECN     H12      HGA3     0.090000        1.0080           0
     28584 WT12     896      MECN     H13      HGA3     0.090000        1.0080           0
     28585 WT12     896      MECN     C2       CG1N1    0.360000       12.0110           0
     28586 WT12     896      MECN     N3       NG1T1   -0.460000       14.0070           0
     28587 WT12     900      MECN     C1       CG331   -0.170000       12.0110           0
     28588 WT12     900      MECN     H11      HGA3     0.090000        1.0080           0
     28589 WT12     900      MECN     H12      HGA3     0.090000        1.0080           0
     28590 WT12     900      MECN     H13      HGA3     0.090000        1.0080           0
     28591 WT12     900      MECN     C2       CG1N1    0.360000       12.0110           0
     28592 WT12     900      MECN     N3       NG1T1   -0.460000       14.0070           0
     28593 WT12     901      MECN     C1       CG331   -0.170000       12.0110           0
     28594 WT12     901      MECN     H11      HGA3     0.090000        1.0080           0
     28595 WT12     901      MECN     H12      HGA3     0.090000        1.0080           0
     28596 WT12     901      MECN     H13      HGA3     0.090000        1.0080           0
     28597 WT12     901      MECN     C2       CG1N1    0.360000       12.0110           0
     28598 WT12     901      MECN     N3       NG1T1   -0.460000       14.0070           0
     28599 WT12     902      MECN     C1       CG331   -0.170000       12.0110           0
     28600 WT12     902      MECN     H11      HGA3     0.090000        1.0080           0
     28601 WT12     902      MECN     H12      HGA3     0.090000        1.0080           0
     28602 WT12     902      MECN     H13      HGA3     0.090000        1.0080           0
     28603 WT12     902      MECN     C2       CG1N1    0.360000       12.0110           0
     28604 WT12     902      MECN     N3       NG1T1   -0.460000       14.0070           0
     28605 WT12     904      MECN     C1       CG331   -0.170000       12.0110           0
     28606 WT12     904      MECN     H11      HGA3     0.090000        1.0080           0
     28607 WT12     904      MECN     H12      HGA3     0.090000        1.0080           0
     28608 WT12     904      MECN     H13      HGA3     0.090000        1.0080           0
     28609 WT12     904      MECN     C2       CG1N1    0.360000       12.0110           0
     28610 WT12     904      MECN     N3       NG1T1   -0.460000       14.0070           0
     28611 WT12     906      MECN     C1       CG331   -0.170000       12.0110           0
     28612 WT12     906      MECN     H11      HGA3     0.090000        1.0080           0
     28613 WT12     906      MECN     H12      HGA3     0.090000        1.0080           0
     28614 WT12     906      MECN     H13      HGA3     0.090000        1.0080           0
     28615 WT12     906      MECN     C2       CG1N1    0.360000       12.0110           0
     28616 WT12     906      MECN     N3       NG1T1   -0.460000       14.0070           0
     28617 WT12     907      MECN     C1       CG331   -0.170000       12.0110           0
     28618 WT12     907      MECN     H11      HGA3     0.090000        1.0080           0
     28619 WT12     907      MECN     H12      HGA3     0.090000        1.0080           0
     28620 WT12     907      MECN     H13      HGA3     0.090000        1.0080           0
     28621 WT12     907      MECN     C2       CG1N1    0.360000       12.0110           0
     28622 WT12     907      MECN     N3       NG1T1   -0.460000       14.0070           0
     28623 WT12     912      MECN     C1       CG331   -0.170000       12.0110           0
     28624 WT12     912      MECN     H11      HGA3     0.090000        1.0080           0
     28625 WT12     912      MECN     H12      HGA3     0.090000        1.0080           0
     28626 WT12     912      MECN     H13      HGA3     0.090000        1.0080           0
     28627 WT12     912      MECN     C2       CG1N1    0.360000       12.0110           0
     28628 WT12     912      MECN     N3       NG1T1   -0.460000       14.0070           0
     28629 WT12     925      MECN     C1       CG331   -0.170000       12.0110           0
     28630 WT12     925      MECN     H11      HGA3     0.090000        1.0080           0
     28631 WT12     925      MECN     H12      HGA3     0.090000        1.0080           0
     28632 WT12     925      MECN     H13      HGA3     0.090000        1.0080           0
     28633 WT12     925      MECN     C2       CG1N1    0.360000       12.0110           0
     28634 WT12     925      MECN     N3       NG1T1   -0.460000       14.0070           0
     28635 WT12     934      MECN     C1       CG331   -0.170000       12.0110           0
     28636 WT12     934      MECN     H11      HGA3     0.090000        1.0080           0
     28637 WT12     934      MECN     H12      HGA3     0.090000        1.0080           0
     28638 WT12     934      MECN     H13      HGA3     0.090000        1.0080           0
     28639 WT12     934      MECN     C2       CG1N1    0.360000       12.0110           0
     28640 WT12     934      MECN     N3       NG1T1   -0.460000       14.0070           0
     28641 WT12     938      MECN     C1       CG331   -0.170000       12.0110           0
     28642 WT12     938      MECN     H11      HGA3     0.090000        1.0080           0
     28643 WT12     938      MECN     H12      HGA3     0.090000        1.0080           0
     28644 WT12     938      MECN     H13      HGA3     0.090000        1.0080           0
     28645 WT12     938      MECN     C2       CG1N1    0.360000       12.0110           0
     28646 WT12     938      MECN     N3       NG1T1   -0.460000       14.0070           0
     28647 WT12     940      MECN     C1       CG331   -0.170000       12.0110           0
     28648 WT12     940      MECN     H11      HGA3     0.090000        1.0080           0
     28649 WT12     940      MECN     H12      HGA3     0.090000        1.0080           0
     28650 WT12     940      MECN     H13      HGA3     0.090000        1.0080           0
     28651 WT12     940      MECN     C2       CG1N1    0.360000       12.0110           0
     28652 WT12     940      MECN     N3       NG1T1   -0.460000       14.0070           0
     28653 WT12     943      MECN     C1       CG331   -0.170000       12.0110           0
     28654 WT12     943      MECN     H11      HGA3     0.090000        1.0080           0
     28655 WT12     943      MECN     H12      HGA3     0.090000        1.0080           0
     28656 WT12     943      MECN     H13      HGA3     0.090000        1.0080           0
     28657 WT12     943      MECN     C2       CG1N1    0.360000       12.0110           0
     28658 WT12     943      MECN     N3       NG1T1   -0.460000       14.0070           0
     28659 WT12     947      MECN     C1       CG331   -0.170000       12.0110           0
     28660 WT12     947      MECN     H11      HGA3     0.090000        1.0080           0
     28661 WT12     947      MECN     H12      HGA3     0.090000        1.0080           0
     28662 WT12     947      MECN     H13      HGA3     0.090000        1.0080           0
     28663 WT12     947      MECN     C2       CG1N1    0.360000       12.0110           0
     28664 WT12     947      MECN     N3       NG1T1   -0.460000       14.0070           0
     28665 WT12     959      MECN     C1       CG331   -0.170000       12.0110           0
     28666 WT12     959      MECN     H11      HGA3     0.090000        1.0080           0
     28667 WT12     959      MECN     H12      HGA3     0.090000        1.0080           0
     28668 WT12     959      MECN     H13      HGA3     0.090000        1.0080           0
     28669 WT12     959      MECN     C2       CG1N1    0.360000       12.0110           0
     28670 WT12     959      MECN     N3       NG1T1   -0.460000       14.0070           0
     28671 WT12     960      MECN     C1       CG331   -0.170000       12.0110           0
     28672 WT12     960      MECN     H11      HGA3     0.090000        1.0080           0
     28673 WT12     960      MECN     H12      HGA3     0.090000        1.0080           0
     28674 WT12     960      MECN     H13      HGA3     0.090000        1.0080           0
     28675 WT12     960      MECN     C2       CG1N1    0.360000       12.0110           0
     28676 WT12     960      MECN     N3       NG1T1   -0.460000       14.0070           0
     28677 WT12     963      MECN     C1       CG331   -0.170000       12.0110           0
     28678 WT12     963      MECN     H11      HGA3     0.090000        1.0080           0
     28679 WT12     963      MECN     H12      HGA3     0.090000        1.0080           0
     28680 WT12     963      MECN     H13      HGA3     0.090000        1.0080           0
     28681 WT12     963      MECN     C2       CG1N1    0.360000       12.0110           0
     28682 WT12     963      MECN     N3       NG1T1   -0.460000       14.0070           0
     28683 WT12     964      MECN     C1       CG331   -0.170000       12.0110           0
     28684 WT12     964      MECN     H11      HGA3     0.090000        1.0080           0
     28685 WT12     964      MECN     H12      HGA3     0.090000        1.0080           0
     28686 WT12     964      MECN     H13      HGA3     0.090000        1.0080           0
     28687 WT12     964      MECN     C2       CG1N1    0.360000       12.0110           0
     28688 WT12     964      MECN     N3       NG1T1   -0.460000       14.0070           0
     28689 WT12     967      MECN     C1       CG331   -0.170000       12.0110           0
     28690 WT12     967      MECN     H11      HGA3     0.090000        1.0080           0
     28691 WT12     967      MECN     H12      HGA3     0.090000        1.0080           0
     28692 WT12     967      MECN     H13      HGA3     0.090000        1.0080           0
     28693 WT12     967      MECN     C2       CG1N1    0.360000       12.0110           0
     28694 WT12     967      MECN     N3       NG1T1   -0.460000       14.0070           0
     28695 WT12     971      MECN     C1       CG331   -0.170000       12.0110           0
     28696 WT12     971      MECN     H11      HGA3     0.090000        1.0080           0
     28697 WT12     971      MECN     H12      HGA3     0.090000        1.0080           0
     28698 WT12     971      MECN     H13      HGA3     0.090000        1.0080           0
     28699 WT12     971      MECN     C2       CG1N1    0.360000       12.0110           0
     28700 WT12     971      MECN     N3       NG1T1   -0.460000       14.0070           0
     28701 WT12     973      MECN     C1       CG331   -0.170000       12.0110           0
     28702 WT12     973      MECN     H11      HGA3     0.090000        1.0080           0
     28703 WT12     973      MECN     H12      HGA3     0.090000        1.0080           0
     28704 WT12     973      MECN     H13      HGA3     0.090000        1.0080           0
     28705 WT12     973      MECN     C2       CG1N1    0.360000       12.0110           0
     28706 WT12     973      MECN     N3       NG1T1   -0.460000       14.0070           0
     28707 WT12     975      MECN     C1       CG331   -0.170000       12.0110           0
     28708 WT12     975      MECN     H11      HGA3     0.090000        1.0080           0
     28709 WT12     975      MECN     H12      HGA3     0.090000        1.0080           0
     28710 WT12     975      MECN     H13      HGA3     0.090000        1.0080           0
     28711 WT12     975      MECN     C2       CG1N1    0.360000       12.0110           0
     28712 WT12     975      MECN     N3       NG1T1   -0.460000       14.0070           0
     28713 WT12     976      MECN     C1       CG331   -0.170000       12.0110           0
     28714 WT12     976      MECN     H11      HGA3     0.090000        1.0080           0
     28715 WT12     976      MECN     H12      HGA3     0.090000        1.0080           0
     28716 WT12     976      MECN     H13      HGA3     0.090000        1.0080           0
     28717 WT12     976      MECN     C2       CG1N1    0.360000       12.0110           0
     28718 WT12     976      MECN     N3       NG1T1   -0.460000       14.0070           0
     28719 WT12     979      MECN     C1       CG331   -0.170000       12.0110           0
     28720 WT12     979      MECN     H11      HGA3     0.090000        1.0080           0
     28721 WT12     979      MECN     H12      HGA3     0.090000        1.0080           0
     28722 WT12     979      MECN     H13      HGA3     0.090000        1.0080           0
     28723 WT12     979      MECN     C2       CG1N1    0.360000       12.0110           0
     28724 WT12     979      MECN     N3       NG1T1   -0.460000       14.0070           0
     28725 WT12     988      MECN     C1       CG331   -0.170000       12.0110           0
     28726 WT12     988      MECN     H11      HGA3     0.090000        1.0080           0
     28727 WT12     988      MECN     H12      HGA3     0.090000        1.0080           0
     28728 WT12     988      MECN     H13      HGA3     0.090000        1.0080           0
     28729 WT12     988      MECN     C2       CG1N1    0.360000       12.0110           0
     28730 WT12     988      MECN     N3       NG1T1   -0.460000       14.0070           0
     28731 WT12     999      MECN     C1       CG331   -0.170000       12.0110           0
     28732 WT12     999      MECN     H11      HGA3     0.090000        1.0080           0
     28733 WT12     999      MECN     H12      HGA3     0.090000        1.0080           0
     28734 WT12     999      MECN     H13      HGA3     0.090000        1.0080           0
     28735 WT12     999      MECN     C2       CG1N1    0.360000       12.0110           0
     28736 WT12     999      MECN     N3       NG1T1   -0.460000       14.0070           0
     28737 WT12     1000     MECN     C1       CG331   -0.170000       12.0110           0
     28738 WT12     1000     MECN     H11      HGA3     0.090000        1.0080           0
     28739 WT12     1000     MECN     H12      HGA3     0.090000        1.0080           0
     28740 WT12     1000     MECN     H13      HGA3     0.090000        1.0080           0
     28741 WT12     1000     MECN     C2       CG1N1    0.360000       12.0110           0
     28742 WT12     1000     MECN     N3       NG1T1   -0.460000       14.0070           0
     28743 WT12     1001     MECN     C1       CG331   -0.170000       12.0110           0
     28744 WT12     1001     MECN     H11      HGA3     0.090000        1.0080           0
     28745 WT12     1001     MECN     H12      HGA3     0.090000        1.0080           0
     28746 WT12     1001     MECN     H13      HGA3     0.090000        1.0080           0
     28747 WT12     1001     MECN     C2       CG1N1    0.360000       12.0110           0
     28748 WT12     1001     MECN     N3       NG1T1   -0.460000       14.0070           0
     28749 WT12     1002     MECN     C1       CG331   -0.170000       12.0110           0
     28750 WT12     1002     MECN     H11      HGA3     0.090000        1.0080           0
     28751 WT12     1002     MECN     H12      HGA3     0.090000        1.0080           0
     28752 WT12     1002     MECN     H13      HGA3     0.090000        1.0080           0
     28753 WT12     1002     MECN     C2       CG1N1    0.360000       12.0110           0
     28754 WT12     1002     MECN     N3       NG1T1   -0.460000       14.0070           0
     28755 WT12     1003     MECN     C1       CG331   -0.170000       12.0110           0
     28756 WT12     1003     MECN     H11      HGA3     0.090000        1.0080           0
     28757 WT12     1003     MECN     H12      HGA3     0.090000        1.0080           0
     28758 WT12     1003     MECN     H13      HGA3     0.090000        1.0080           0
     28759 WT12     1003     MECN     C2       CG1N1    0.360000       12.0110           0
     28760 WT12     1003     MECN     N3       NG1T1   -0.460000       14.0070           0
     28761 WT12     1005     MECN     C1       CG331   -0.170000       12.0110           0
     28762 WT12     1005     MECN     H11      HGA3     0.090000        1.0080           0
     28763 WT12     1005     MECN     H12      HGA3     0.090000        1.0080           0
     28764 WT12     1005     MECN     H13      HGA3     0.090000        1.0080           0
     28765 WT12     1005     MECN     C2       CG1N1    0.360000       12.0110           0
     28766 WT12     1005     MECN     N3       NG1T1   -0.460000       14.0070           0
     28767 WT12     1006     MECN     C1       CG331   -0.170000       12.0110           0
     28768 WT12     1006     MECN     H11      HGA3     0.090000        1.0080           0
     28769 WT12     1006     MECN     H12      HGA3     0.090000        1.0080           0
     28770 WT12     1006     MECN     H13      HGA3     0.090000        1.0080           0
     28771 WT12     1006     MECN     C2       CG1N1    0.360000       12.0110           0
     28772 WT12     1006     MECN     N3       NG1T1   -0.460000       14.0070           0
     28773 WT12     1016     MECN     C1       CG331   -0.170000       12.0110           0
     28774 WT12     1016     MECN     H11      HGA3     0.090000        1.0080           0
     28775 WT12     1016     MECN     H12      HGA3     0.090000        1.0080           0
     28776 WT12     1016     MECN     H13      HGA3     0.090000        1.0080           0
     28777 WT12     1016     MECN     C2       CG1N1    0.360000       12.0110           0
     28778 WT12     1016     MECN     N3       NG1T1   -0.460000       14.0070           0
     28779 WT12     1017     MECN     C1       CG331   -0.170000       12.0110           0
     28780 WT12     1017     MECN     H11      HGA3     0.090000        1.0080           0
     28781 WT12     1017     MECN     H12      HGA3     0.090000        1.0080           0
     28782 WT12     1017     MECN     H13      HGA3     0.090000        1.0080           0
     28783 WT12     1017     MECN     C2       CG1N1    0.360000       12.0110           0
     28784 WT12     1017     MECN     N3       NG1T1   -0.460000       14.0070           0
     28785 WT12     1022     MECN     C1       CG331   -0.170000       12.0110           0
     28786 WT12     1022     MECN     H11      HGA3     0.090000        1.0080           0
     28787 WT12     1022     MECN     H12      HGA3     0.090000        1.0080           0
     28788 WT12     1022     MECN     H13      HGA3     0.090000        1.0080           0
     28789 WT12     1022     MECN     C2       CG1N1    0.360000       12.0110           0
     28790 WT12     1022     MECN     N3       NG1T1   -0.460000       14.0070           0
     28791 WT12     1025     MECN     C1       CG331   -0.170000       12.0110           0
     28792 WT12     1025     MECN     H11      HGA3     0.090000        1.0080           0
     28793 WT12     1025     MECN     H12      HGA3     0.090000        1.0080           0
     28794 WT12     1025     MECN     H13      HGA3     0.090000        1.0080           0
     28795 WT12     1025     MECN     C2       CG1N1    0.360000       12.0110           0
     28796 WT12     1025     MECN     N3       NG1T1   -0.460000       14.0070           0
     28797 WT12     1026     MECN     C1       CG331   -0.170000       12.0110           0
     28798 WT12     1026     MECN     H11      HGA3     0.090000        1.0080           0
     28799 WT12     1026     MECN     H12      HGA3     0.090000        1.0080           0
     28800 WT12     1026     MECN     H13      HGA3     0.090000        1.0080           0
     28801 WT12     1026     MECN     C2       CG1N1    0.360000       12.0110           0
     28802 WT12     1026     MECN     N3       NG1T1   -0.460000       14.0070           0
     28803 WT12     1027     MECN     C1       CG331   -0.170000       12.0110           0
     28804 WT12     1027     MECN     H11      HGA3     0.090000        1.0080           0
     28805 WT12     1027     MECN     H12      HGA3     0.090000        1.0080           0
     28806 WT12     1027     MECN     H13      HGA3     0.090000        1.0080           0
     28807 WT12     1027     MECN     C2       CG1N1    0.360000       12.0110           0
     28808 WT12     1027     MECN     N3       NG1T1   -0.460000       14.0070           0
     28809 WT12     1028     MECN     C1       CG331   -0.170000       12.0110           0
     28810 WT12     1028     MECN     H11      HGA3     0.090000        1.0080           0
     28811 WT12     1028     MECN     H12      HGA3     0.090000        1.0080           0
     28812 WT12     1028     MECN     H13      HGA3     0.090000        1.0080           0
     28813 WT12     1028     MECN     C2       CG1N1    0.360000       12.0110           0
     28814 WT12     1028     MECN     N3       NG1T1   -0.460000       14.0070           0
     28815 WT12     1038     MECN     C1       CG331   -0.170000       12.0110           0
     28816 WT12     1038     MECN     H11      HGA3     0.090000        1.0080           0
     28817 WT12     1038     MECN     H12      HGA3     0.090000        1.0080           0
     28818 WT12     1038     MECN     H13      HGA3     0.090000        1.0080           0
     28819 WT12     1038     MECN     C2       CG1N1    0.360000       12.0110           0
     28820 WT12     1038     MECN     N3       NG1T1   -0.460000       14.0070           0
     28821 WT12     1042     MECN     C1       CG331   -0.170000       12.0110           0
     28822 WT12     1042     MECN     H11      HGA3     0.090000        1.0080           0
     28823 WT12     1042     MECN     H12      HGA3     0.090000        1.0080           0
     28824 WT12     1042     MECN     H13      HGA3     0.090000        1.0080           0
     28825 WT12     1042     MECN     C2       CG1N1    0.360000       12.0110           0
     28826 WT12     1042     MECN     N3       NG1T1   -0.460000       14.0070           0
     28827 WT12     1045     MECN     C1       CG331   -0.170000       12.0110           0
     28828 WT12     1045     MECN     H11      HGA3     0.090000        1.0080           0
     28829 WT12     1045     MECN     H12      HGA3     0.090000        1.0080           0
     28830 WT12     1045     MECN     H13      HGA3     0.090000        1.0080           0
     28831 WT12     1045     MECN     C2       CG1N1    0.360000       12.0110           0
     28832 WT12     1045     MECN     N3       NG1T1   -0.460000       14.0070           0
     28833 WT12     1049     MECN     C1       CG331   -0.170000       12.0110           0
     28834 WT12     1049     MECN     H11      HGA3     0.090000        1.0080           0
     28835 WT12     1049     MECN     H12      HGA3     0.090000        1.0080           0
     28836 WT12     1049     MECN     H13      HGA3     0.090000        1.0080           0
     28837 WT12     1049     MECN     C2       CG1N1    0.360000       12.0110           0
     28838 WT12     1049     MECN     N3       NG1T1   -0.460000       14.0070           0
     28839 WT12     1054     MECN     C1       CG331   -0.170000       12.0110           0
     28840 WT12     1054     MECN     H11      HGA3     0.090000        1.0080           0
     28841 WT12     1054     MECN     H12      HGA3     0.090000        1.0080           0
     28842 WT12     1054     MECN     H13      HGA3     0.090000        1.0080           0
     28843 WT12     1054     MECN     C2       CG1N1    0.360000       12.0110           0
     28844 WT12     1054     MECN     N3       NG1T1   -0.460000       14.0070           0
     28845 WT12     1059     MECN     C1       CG331   -0.170000       12.0110           0
     28846 WT12     1059     MECN     H11      HGA3     0.090000        1.0080           0
     28847 WT12     1059     MECN     H12      HGA3     0.090000        1.0080           0
     28848 WT12     1059     MECN     H13      HGA3     0.090000        1.0080           0
     28849 WT12     1059     MECN     C2       CG1N1    0.360000       12.0110           0
     28850 WT12     1059     MECN     N3       NG1T1   -0.460000       14.0070           0
     28851 WT12     1061     MECN     C1       CG331   -0.170000       12.0110           0
     28852 WT12     1061     MECN     H11      HGA3     0.090000        1.0080           0
     28853 WT12     1061     MECN     H12      HGA3     0.090000        1.0080           0
     28854 WT12     1061     MECN     H13      HGA3     0.090000        1.0080           0
     28855 WT12     1061     MECN     C2       CG1N1    0.360000       12.0110           0
     28856 WT12     1061     MECN     N3       NG1T1   -0.460000       14.0070           0
     28857 WT12     1070     MECN     C1       CG331   -0.170000       12.0110           0
     28858 WT12     1070     MECN     H11      HGA3     0.090000        1.0080           0
     28859 WT12     1070     MECN     H12      HGA3     0.090000        1.0080           0
     28860 WT12     1070     MECN     H13      HGA3     0.090000        1.0080           0
     28861 WT12     1070     MECN     C2       CG1N1    0.360000       12.0110           0
     28862 WT12     1070     MECN     N3       NG1T1   -0.460000       14.0070           0
     28863 WT12     1073     MECN     C1       CG331   -0.170000       12.0110           0
     28864 WT12     1073     MECN     H11      HGA3     0.090000        1.0080           0
     28865 WT12     1073     MECN     H12      HGA3     0.090000        1.0080           0
     28866 WT12     1073     MECN     H13      HGA3     0.090000        1.0080           0
     28867 WT12     1073     MECN     C2       CG1N1    0.360000       12.0110           0
     28868 WT12     1073     MECN     N3       NG1T1   -0.460000       14.0070           0
     28869 WT12     1077     MECN     C1       CG331   -0.170000       12.0110           0
     28870 WT12     1077     MECN     H11      HGA3     0.090000        1.0080           0
     28871 WT12     1077     MECN     H12      HGA3     0.090000        1.0080           0
     28872 WT12     1077     MECN     H13      HGA3     0.090000        1.0080           0
     28873 WT12     1077     MECN     C2       CG1N1    0.360000       12.0110           0
     28874 WT12     1077     MECN     N3       NG1T1   -0.460000       14.0070           0
     28875 WT12     1083     MECN     C1       CG331   -0.170000       12.0110           0
     28876 WT12     1083     MECN     H11      HGA3     0.090000        1.0080           0
     28877 WT12     1083     MECN     H12      HGA3     0.090000        1.0080           0
     28878 WT12     1083     MECN     H13      HGA3     0.090000        1.0080           0
     28879 WT12     1083     MECN     C2       CG1N1    0.360000       12.0110           0
     28880 WT12     1083     MECN     N3       NG1T1   -0.460000       14.0070           0
     28881 WT12     1088     MECN     C1       CG331   -0.170000       12.0110           0
     28882 WT12     1088     MECN     H11      HGA3     0.090000        1.0080           0
     28883 WT12     1088     MECN     H12      HGA3     0.090000        1.0080           0
     28884 WT12     1088     MECN     H13      HGA3     0.090000        1.0080           0
     28885 WT12     1088     MECN     C2       CG1N1    0.360000       12.0110           0
     28886 WT12     1088     MECN     N3       NG1T1   -0.460000       14.0070           0
     28887 WT12     1096     MECN     C1       CG331   -0.170000       12.0110           0
     28888 WT12     1096     MECN     H11      HGA3     0.090000        1.0080           0
     28889 WT12     1096     MECN     H12      HGA3     0.090000        1.0080           0
     28890 WT12     1096     MECN     H13      HGA3     0.090000        1.0080           0
     28891 WT12     1096     MECN     C2       CG1N1    0.360000       12.0110           0
     28892 WT12     1096     MECN     N3       NG1T1   -0.460000       14.0070           0
     28893 WT12     1099     MECN     C1       CG331   -0.170000       12.0110           0
     28894 WT12     1099     MECN     H11      HGA3     0.090000        1.0080           0
     28895 WT12     1099     MECN     H12      HGA3     0.090000        1.0080           0
     28896 WT12     1099     MECN     H13      HGA3     0.090000        1.0080           0
     28897 WT12     1099     MECN     C2       CG1N1    0.360000       12.0110           0
     28898 WT12     1099     MECN     N3       NG1T1   -0.460000       14.0070           0
     28899 WT12     1100     MECN     C1       CG331   -0.170000       12.0110           0
     28900 WT12     1100     MECN     H11      HGA3     0.090000        1.0080           0
     28901 WT12     1100     MECN     H12      HGA3     0.090000        1.0080           0
     28902 WT12     1100     MECN     H13      HGA3     0.090000        1.0080           0
     28903 WT12     1100     MECN     C2       CG1N1    0.360000       12.0110           0
     28904 WT12     1100     MECN     N3       NG1T1   -0.460000       14.0070           0
     28905 WT12     1101     MECN     C1       CG331   -0.170000       12.0110           0
     28906 WT12     1101     MECN     H11      HGA3     0.090000        1.0080           0
     28907 WT12     1101     MECN     H12      HGA3     0.090000        1.0080           0
     28908 WT12     1101     MECN     H13      HGA3     0.090000        1.0080           0
     28909 WT12     1101     MECN     C2       CG1N1    0.360000       12.0110           0
     28910 WT12     1101     MECN     N3       NG1T1   -0.460000       14.0070           0
     28911 WT12     1105     MECN     C1       CG331   -0.170000       12.0110           0
     28912 WT12     1105     MECN     H11      HGA3     0.090000        1.0080           0
     28913 WT12     1105     MECN     H12      HGA3     0.090000        1.0080           0
     28914 WT12     1105     MECN     H13      HGA3     0.090000        1.0080           0
     28915 WT12     1105     MECN     C2       CG1N1    0.360000       12.0110           0
     28916 WT12     1105     MECN     N3       NG1T1   -0.460000       14.0070           0
     28917 WT12     1110     MECN     C1       CG331   -0.170000       12.0110           0
     28918 WT12     1110     MECN     H11      HGA3     0.090000        1.0080           0
     28919 WT12     1110     MECN     H12      HGA3     0.090000        1.0080           0
     28920 WT12     1110     MECN     H13      HGA3     0.090000        1.0080           0
     28921 WT12     1110     MECN     C2       CG1N1    0.360000       12.0110           0
     28922 WT12     1110     MECN     N3       NG1T1   -0.460000       14.0070           0
     28923 WT12     1112     MECN     C1       CG331   -0.170000       12.0110           0
     28924 WT12     1112     MECN     H11      HGA3     0.090000        1.0080           0
     28925 WT12     1112     MECN     H12      HGA3     0.090000        1.0080           0
     28926 WT12     1112     MECN     H13      HGA3     0.090000        1.0080           0
     28927 WT12     1112     MECN     C2       CG1N1    0.360000       12.0110           0
     28928 WT12     1112     MECN     N3       NG1T1   -0.460000       14.0070           0
     28929 WT12     1113     MECN     C1       CG331   -0.170000       12.0110           0
     28930 WT12     1113     MECN     H11      HGA3     0.090000        1.0080           0
     28931 WT12     1113     MECN     H12      HGA3     0.090000        1.0080           0
     28932 WT12     1113     MECN     H13      HGA3     0.090000        1.0080           0
     28933 WT12     1113     MECN     C2       CG1N1    0.360000       12.0110           0
     28934 WT12     1113     MECN     N3       NG1T1   -0.460000       14.0070           0
     28935 WT12     1121     MECN     C1       CG331   -0.170000       12.0110           0
     28936 WT12     1121     MECN     H11      HGA3     0.090000        1.0080           0
     28937 WT12     1121     MECN     H12      HGA3     0.090000        1.0080           0
     28938 WT12     1121     MECN     H13      HGA3     0.090000        1.0080           0
     28939 WT12     1121     MECN     C2       CG1N1    0.360000       12.0110           0
     28940 WT12     1121     MECN     N3       NG1T1   -0.460000       14.0070           0
     28941 WT12     1123     MECN     C1       CG331   -0.170000       12.0110           0
     28942 WT12     1123     MECN     H11      HGA3     0.090000        1.0080           0
     28943 WT12     1123     MECN     H12      HGA3     0.090000        1.0080           0
     28944 WT12     1123     MECN     H13      HGA3     0.090000        1.0080           0
     28945 WT12     1123     MECN     C2       CG1N1    0.360000       12.0110           0
     28946 WT12     1123     MECN     N3       NG1T1   -0.460000       14.0070           0
     28947 WT12     1127     MECN     C1       CG331   -0.170000       12.0110           0
     28948 WT12     1127     MECN     H11      HGA3     0.090000        1.0080           0
     28949 WT12     1127     MECN     H12      HGA3     0.090000        1.0080           0
     28950 WT12     1127     MECN     H13      HGA3     0.090000        1.0080           0
     28951 WT12     1127     MECN     C2       CG1N1    0.360000       12.0110           0
     28952 WT12     1127     MECN     N3       NG1T1   -0.460000       14.0070           0
     28953 WT12     1129     MECN     C1       CG331   -0.170000       12.0110           0
     28954 WT12     1129     MECN     H11      HGA3     0.090000        1.0080           0
     28955 WT12     1129     MECN     H12      HGA3     0.090000        1.0080           0
     28956 WT12     1129     MECN     H13      HGA3     0.090000        1.0080           0
     28957 WT12     1129     MECN     C2       CG1N1    0.360000       12.0110           0
     28958 WT12     1129     MECN     N3       NG1T1   -0.460000       14.0070           0
     28959 WT12     1136     MECN     C1       CG331   -0.170000       12.0110           0
     28960 WT12     1136     MECN     H11      HGA3     0.090000        1.0080           0
     28961 WT12     1136     MECN     H12      HGA3     0.090000        1.0080           0
     28962 WT12     1136     MECN     H13      HGA3     0.090000        1.0080           0
     28963 WT12     1136     MECN     C2       CG1N1    0.360000       12.0110           0
     28964 WT12     1136     MECN     N3       NG1T1   -0.460000       14.0070           0
     28965 WT12     1138     MECN     C1       CG331   -0.170000       12.0110           0
     28966 WT12     1138     MECN     H11      HGA3     0.090000        1.0080           0
     28967 WT12     1138     MECN     H12      HGA3     0.090000        1.0080           0
     28968 WT12     1138     MECN     H13      HGA3     0.090000        1.0080           0
     28969 WT12     1138     MECN     C2       CG1N1    0.360000       12.0110           0
     28970 WT12     1138     MECN     N3       NG1T1   -0.460000       14.0070           0
     28971 WT12     1139     MECN     C1       CG331   -0.170000       12.0110           0
     28972 WT12     1139     MECN     H11      HGA3     0.090000        1.0080           0
     28973 WT12     1139     MECN     H12      HGA3     0.090000        1.0080           0
     28974 WT12     1139     MECN     H13      HGA3     0.090000        1.0080           0
     28975 WT12     1139     MECN     C2       CG1N1    0.360000       12.0110           0
     28976 WT12     1139     MECN     N3       NG1T1   -0.460000       14.0070           0
     28977 WT12     1140     MECN     C1       CG331   -0.170000       12.0110           0
     28978 WT12     1140     MECN     H11      HGA3     0.090000        1.0080           0
     28979 WT12     1140     MECN     H12      HGA3     0.090000        1.0080           0
     28980 WT12     1140     MECN     H13      HGA3     0.090000        1.0080           0
     28981 WT12     1140     MECN     C2       CG1N1    0.360000       12.0110           0
     28982 WT12     1140     MECN     N3       NG1T1   -0.460000       14.0070           0
     28983 WT12     1141     MECN     C1       CG331   -0.170000       12.0110           0
     28984 WT12     1141     MECN     H11      HGA3     0.090000        1.0080           0
     28985 WT12     1141     MECN     H12      HGA3     0.090000        1.0080           0
     28986 WT12     1141     MECN     H13      HGA3     0.090000        1.0080           0
     28987 WT12     1141     MECN     C2       CG1N1    0.360000       12.0110           0
     28988 WT12     1141     MECN     N3       NG1T1   -0.460000       14.0070           0
     28989 WT12     1142     MECN     C1       CG331   -0.170000       12.0110           0
     28990 WT12     1142     MECN     H11      HGA3     0.090000        1.0080           0
     28991 WT12     1142     MECN     H12      HGA3     0.090000        1.0080           0
     28992 WT12     1142     MECN     H13      HGA3     0.090000        1.0080           0
     28993 WT12     1142     MECN     C2       CG1N1    0.360000       12.0110           0
     28994 WT12     1142     MECN     N3       NG1T1   -0.460000       14.0070           0
     28995 WT12     1144     MECN     C1       CG331   -0.170000       12.0110           0
     28996 WT12     1144     MECN     H11      HGA3     0.090000        1.0080           0
     28997 WT12     1144     MECN     H12      HGA3     0.090000        1.0080           0
     28998 WT12     1144     MECN     H13      HGA3     0.090000        1.0080           0
     28999 WT12     1144     MECN     C2       CG1N1    0.360000       12.0110           0
     29000 WT12     1144     MECN     N3       NG1T1   -0.460000       14.0070           0
     29001 WT12     1153     MECN     C1       CG331   -0.170000       12.0110           0
     29002 WT12     1153     MECN     H11      HGA3     0.090000        1.0080           0
     29003 WT12     1153     MECN     H12      HGA3     0.090000        1.0080           0
     29004 WT12     1153     MECN     H13      HGA3     0.090000        1.0080           0
     29005 WT12     1153     MECN     C2       CG1N1    0.360000       12.0110           0
     29006 WT12     1153     MECN     N3       NG1T1   -0.460000       14.0070           0
     29007 WT12     1154     MECN     C1       CG331   -0.170000       12.0110           0
     29008 WT12     1154     MECN     H11      HGA3     0.090000        1.0080           0
     29009 WT12     1154     MECN     H12      HGA3     0.090000        1.0080           0
     29010 WT12     1154     MECN     H13      HGA3     0.090000        1.0080           0
     29011 WT12     1154     MECN     C2       CG1N1    0.360000       12.0110           0
     29012 WT12     1154     MECN     N3       NG1T1   -0.460000       14.0070           0
     29013 WT12     1157     MECN     C1       CG331   -0.170000       12.0110           0
     29014 WT12     1157     MECN     H11      HGA3     0.090000        1.0080           0
     29015 WT12     1157     MECN     H12      HGA3     0.090000        1.0080           0
     29016 WT12     1157     MECN     H13      HGA3     0.090000        1.0080           0
     29017 WT12     1157     MECN     C2       CG1N1    0.360000       12.0110           0
     29018 WT12     1157     MECN     N3       NG1T1   -0.460000       14.0070           0
     29019 WT12     1164     MECN     C1       CG331   -0.170000       12.0110           0
     29020 WT12     1164     MECN     H11      HGA3     0.090000        1.0080           0
     29021 WT12     1164     MECN     H12      HGA3     0.090000        1.0080           0
     29022 WT12     1164     MECN     H13      HGA3     0.090000        1.0080           0
     29023 WT12     1164     MECN     C2       CG1N1    0.360000       12.0110           0
     29024 WT12     1164     MECN     N3       NG1T1   -0.460000       14.0070           0
     29025 WT12     1165     MECN     C1       CG331   -0.170000       12.0110           0
     29026 WT12     1165     MECN     H11      HGA3     0.090000        1.0080           0
     29027 WT12     1165     MECN     H12      HGA3     0.090000        1.0080           0
     29028 WT12     1165     MECN     H13      HGA3     0.090000        1.0080           0
     29029 WT12     1165     MECN     C2       CG1N1    0.360000       12.0110           0
     29030 WT12     1165     MECN     N3       NG1T1   -0.460000       14.0070           0
     29031 WT12     1166     MECN     C1       CG331   -0.170000       12.0110           0
     29032 WT12     1166     MECN     H11      HGA3     0.090000        1.0080           0
     29033 WT12     1166     MECN     H12      HGA3     0.090000        1.0080           0
     29034 WT12     1166     MECN     H13      HGA3     0.090000        1.0080           0
     29035 WT12     1166     MECN     C2       CG1N1    0.360000       12.0110           0
     29036 WT12     1166     MECN     N3       NG1T1   -0.460000       14.0070           0
     29037 WT12     1167     MECN     C1       CG331   -0.170000       12.0110           0
     29038 WT12     1167     MECN     H11      HGA3     0.090000        1.0080           0
     29039 WT12     1167     MECN     H12      HGA3     0.090000        1.0080           0
     29040 WT12     1167     MECN     H13      HGA3     0.090000        1.0080           0
     29041 WT12     1167     MECN     C2       CG1N1    0.360000       12.0110           0
     29042 WT12     1167     MECN     N3       NG1T1   -0.460000       14.0070           0
     29043 WT12     1169     MECN     C1       CG331   -0.170000       12.0110           0
     29044 WT12     1169     MECN     H11      HGA3     0.090000        1.0080           0
     29045 WT12     1169     MECN     H12      HGA3     0.090000        1.0080           0
     29046 WT12     1169     MECN     H13      HGA3     0.090000        1.0080           0
     29047 WT12     1169     MECN     C2       CG1N1    0.360000       12.0110           0
     29048 WT12     1169     MECN     N3       NG1T1   -0.460000       14.0070           0
     29049 WT12     1172     MECN     C1       CG331   -0.170000       12.0110           0
     29050 WT12     1172     MECN     H11      HGA3     0.090000        1.0080           0
     29051 WT12     1172     MECN     H12      HGA3     0.090000        1.0080           0
     29052 WT12     1172     MECN     H13      HGA3     0.090000        1.0080           0
     29053 WT12     1172     MECN     C2       CG1N1    0.360000       12.0110           0
     29054 WT12     1172     MECN     N3       NG1T1   -0.460000       14.0070           0
     29055 WT12     1173     MECN     C1       CG331   -0.170000       12.0110           0
     29056 WT12     1173     MECN     H11      HGA3     0.090000        1.0080           0
     29057 WT12     1173     MECN     H12      HGA3     0.090000        1.0080           0
     29058 WT12     1173     MECN     H13      HGA3     0.090000        1.0080           0
     29059 WT12     1173     MECN     C2       CG1N1    0.360000       12.0110           0
     29060 WT12     1173     MECN     N3       NG1T1   -0.460000       14.0070           0
     29061 WT12     1180     MECN     C1       CG331   -0.170000       12.0110           0
     29062 WT12     1180     MECN     H11      HGA3     0.090000        1.0080           0
     29063 WT12     1180     MECN     H12      HGA3     0.090000        1.0080           0
     29064 WT12     1180     MECN     H13      HGA3     0.090000        1.0080           0
     29065 WT12     1180     MECN     C2       CG1N1    0.360000       12.0110           0
     29066 WT12     1180     MECN     N3       NG1T1   -0.460000       14.0070           0
     29067 WT12     1186     MECN     C1       CG331   -0.170000       12.0110           0
     29068 WT12     1186     MECN     H11      HGA3     0.090000        1.0080           0
     29069 WT12     1186     MECN     H12      HGA3     0.090000        1.0080           0
     29070 WT12     1186     MECN     H13      HGA3     0.090000        1.0080           0
     29071 WT12     1186     MECN     C2       CG1N1    0.360000       12.0110           0
     29072 WT12     1186     MECN     N3       NG1T1   -0.460000       14.0070           0
     29073 WT12     1187     MECN     C1       CG331   -0.170000       12.0110           0
     29074 WT12     1187     MECN     H11      HGA3     0.090000        1.0080           0
     29075 WT12     1187     MECN     H12      HGA3     0.090000        1.0080           0
     29076 WT12     1187     MECN     H13      HGA3     0.090000        1.0080           0
     29077 WT12     1187     MECN     C2       CG1N1    0.360000       12.0110           0
     29078 WT12     1187     MECN     N3       NG1T1   -0.460000       14.0070           0
     29079 WT12     1189     MECN     C1       CG331   -0.170000       12.0110           0
     29080 WT12     1189     MECN     H11      HGA3     0.090000        1.0080           0
     29081 WT12     1189     MECN     H12      HGA3     0.090000        1.0080           0
     29082 WT12     1189     MECN     H13      HGA3     0.090000        1.0080           0
     29083 WT12     1189     MECN     C2       CG1N1    0.360000       12.0110           0
     29084 WT12     1189     MECN     N3       NG1T1   -0.460000       14.0070           0
     29085 WT12     1190     MECN     C1       CG331   -0.170000       12.0110           0
     29086 WT12     1190     MECN     H11      HGA3     0.090000        1.0080           0
     29087 WT12     1190     MECN     H12      HGA3     0.090000        1.0080           0
     29088 WT12     1190     MECN     H13      HGA3     0.090000        1.0080           0
     29089 WT12     1190     MECN     C2       CG1N1    0.360000       12.0110           0
     29090 WT12     1190     MECN     N3       NG1T1   -0.460000       14.0070           0
     29091 WT12     1192     MECN     C1       CG331   -0.170000       12.0110           0
     29092 WT12     1192     MECN     H11      HGA3     0.090000        1.0080           0
     29093 WT12     1192     MECN     H12      HGA3     0.090000        1.0080           0
     29094 WT12     1192     MECN     H13      HGA3     0.090000        1.0080           0
     29095 WT12     1192     MECN     C2       CG1N1    0.360000       12.0110           0
     29096 WT12     1192     MECN     N3       NG1T1   -0.460000       14.0070           0
     29097 WT12     1194     MECN     C1       CG331   -0.170000       12.0110           0
     29098 WT12     1194     MECN     H11      HGA3     0.090000        1.0080           0
     29099 WT12     1194     MECN     H12      HGA3     0.090000        1.0080           0
     29100 WT12     1194     MECN     H13      HGA3     0.090000        1.0080           0
     29101 WT12     1194     MECN     C2       CG1N1    0.360000       12.0110           0
     29102 WT12     1194     MECN     N3       NG1T1   -0.460000       14.0070           0
     29103 WT12     1198     MECN     C1       CG331   -0.170000       12.0110           0
     29104 WT12     1198     MECN     H11      HGA3     0.090000        1.0080           0
     29105 WT12     1198     MECN     H12      HGA3     0.090000        1.0080           0
     29106 WT12     1198     MECN     H13      HGA3     0.090000        1.0080           0
     29107 WT12     1198     MECN     C2       CG1N1    0.360000       12.0110           0
     29108 WT12     1198     MECN     N3       NG1T1   -0.460000       14.0070           0
     29109 WT12     1201     MECN     C1       CG331   -0.170000       12.0110           0
     29110 WT12     1201     MECN     H11      HGA3     0.090000        1.0080           0
     29111 WT12     1201     MECN     H12      HGA3     0.090000        1.0080           0
     29112 WT12     1201     MECN     H13      HGA3     0.090000        1.0080           0
     29113 WT12     1201     MECN     C2       CG1N1    0.360000       12.0110           0
     29114 WT12     1201     MECN     N3       NG1T1   -0.460000       14.0070           0
     29115 WT12     1202     MECN     C1       CG331   -0.170000       12.0110           0
     29116 WT12     1202     MECN     H11      HGA3     0.090000        1.0080           0
     29117 WT12     1202     MECN     H12      HGA3     0.090000        1.0080           0
     29118 WT12     1202     MECN     H13      HGA3     0.090000        1.0080           0
     29119 WT12     1202     MECN     C2       CG1N1    0.360000       12.0110           0
     29120 WT12     1202     MECN     N3       NG1T1   -0.460000       14.0070           0
     29121 WT12     1205     MECN     C1       CG331   -0.170000       12.0110           0
     29122 WT12     1205     MECN     H11      HGA3     0.090000        1.0080           0
     29123 WT12     1205     MECN     H12      HGA3     0.090000        1.0080           0
     29124 WT12     1205     MECN     H13      HGA3     0.090000        1.0080           0
     29125 WT12     1205     MECN     C2       CG1N1    0.360000       12.0110           0
     29126 WT12     1205     MECN     N3       NG1T1   -0.460000       14.0070           0
     29127 WT12     1207     MECN     C1       CG331   -0.170000       12.0110           0
     29128 WT12     1207     MECN     H11      HGA3     0.090000        1.0080           0
     29129 WT12     1207     MECN     H12      HGA3     0.090000        1.0080           0
     29130 WT12     1207     MECN     H13      HGA3     0.090000        1.0080           0
     29131 WT12     1207     MECN     C2       CG1N1    0.360000       12.0110           0
     29132 WT12     1207     MECN     N3       NG1T1   -0.460000       14.0070           0
     29133 WT12     1211     MECN     C1       CG331   -0.170000       12.0110           0
     29134 WT12     1211     MECN     H11      HGA3     0.090000        1.0080           0
     29135 WT12     1211     MECN     H12      HGA3     0.090000        1.0080           0
     29136 WT12     1211     MECN     H13      HGA3     0.090000        1.0080           0
     29137 WT12     1211     MECN     C2       CG1N1    0.360000       12.0110           0
     29138 WT12     1211     MECN     N3       NG1T1   -0.460000       14.0070           0
     29139 WT12     1212     MECN     C1       CG331   -0.170000       12.0110           0
     29140 WT12     1212     MECN     H11      HGA3     0.090000        1.0080           0
     29141 WT12     1212     MECN     H12      HGA3     0.090000        1.0080           0
     29142 WT12     1212     MECN     H13      HGA3     0.090000        1.0080           0
     29143 WT12     1212     MECN     C2       CG1N1    0.360000       12.0110           0
     29144 WT12     1212     MECN     N3       NG1T1   -0.460000       14.0070           0
     29145 WT12     1214     MECN     C1       CG331   -0.170000       12.0110           0
     29146 WT12     1214     MECN     H11      HGA3     0.090000        1.0080           0
     29147 WT12     1214     MECN     H12      HGA3     0.090000        1.0080           0
     29148 WT12     1214     MECN     H13      HGA3     0.090000        1.0080           0
     29149 WT12     1214     MECN     C2       CG1N1    0.360000       12.0110           0
     29150 WT12     1214     MECN     N3       NG1T1   -0.460000       14.0070           0
     29151 WT12     1215     MECN     C1       CG331   -0.170000       12.0110           0
     29152 WT12     1215     MECN     H11      HGA3     0.090000        1.0080           0
     29153 WT12     1215     MECN     H12      HGA3     0.090000        1.0080           0
     29154 WT12     1215     MECN     H13      HGA3     0.090000        1.0080           0
     29155 WT12     1215     MECN     C2       CG1N1    0.360000       12.0110           0
     29156 WT12     1215     MECN     N3       NG1T1   -0.460000       14.0070           0
     29157 WT12     1219     MECN     C1       CG331   -0.170000       12.0110           0
     29158 WT12     1219     MECN     H11      HGA3     0.090000        1.0080           0
     29159 WT12     1219     MECN     H12      HGA3     0.090000        1.0080           0
     29160 WT12     1219     MECN     H13      HGA3     0.090000        1.0080           0
     29161 WT12     1219     MECN     C2       CG1N1    0.360000       12.0110           0
     29162 WT12     1219     MECN     N3       NG1T1   -0.460000       14.0070           0
     29163 WT12     1225     MECN     C1       CG331   -0.170000       12.0110           0
     29164 WT12     1225     MECN     H11      HGA3     0.090000        1.0080           0
     29165 WT12     1225     MECN     H12      HGA3     0.090000        1.0080           0
     29166 WT12     1225     MECN     H13      HGA3     0.090000        1.0080           0
     29167 WT12     1225     MECN     C2       CG1N1    0.360000       12.0110           0
     29168 WT12     1225     MECN     N3       NG1T1   -0.460000       14.0070           0
     29169 WT12     1226     MECN     C1       CG331   -0.170000       12.0110           0
     29170 WT12     1226     MECN     H11      HGA3     0.090000        1.0080           0
     29171 WT12     1226     MECN     H12      HGA3     0.090000        1.0080           0
     29172 WT12     1226     MECN     H13      HGA3     0.090000        1.0080           0
     29173 WT12     1226     MECN     C2       CG1N1    0.360000       12.0110           0
     29174 WT12     1226     MECN     N3       NG1T1   -0.460000       14.0070           0
     29175 WT12     1231     MECN     C1       CG331   -0.170000       12.0110           0
     29176 WT12     1231     MECN     H11      HGA3     0.090000        1.0080           0
     29177 WT12     1231     MECN     H12      HGA3     0.090000        1.0080           0
     29178 WT12     1231     MECN     H13      HGA3     0.090000        1.0080           0
     29179 WT12     1231     MECN     C2       CG1N1    0.360000       12.0110           0
     29180 WT12     1231     MECN     N3       NG1T1   -0.460000       14.0070           0
     29181 WT12     1232     MECN     C1       CG331   -0.170000       12.0110           0
     29182 WT12     1232     MECN     H11      HGA3     0.090000        1.0080           0
     29183 WT12     1232     MECN     H12      HGA3     0.090000        1.0080           0
     29184 WT12     1232     MECN     H13      HGA3     0.090000        1.0080           0
     29185 WT12     1232     MECN     C2       CG1N1    0.360000       12.0110           0
     29186 WT12     1232     MECN     N3       NG1T1   -0.460000       14.0070           0
     29187 WT12     1233     MECN     C1       CG331   -0.170000       12.0110           0
     29188 WT12     1233     MECN     H11      HGA3     0.090000        1.0080           0
     29189 WT12     1233     MECN     H12      HGA3     0.090000        1.0080           0
     29190 WT12     1233     MECN     H13      HGA3     0.090000        1.0080           0
     29191 WT12     1233     MECN     C2       CG1N1    0.360000       12.0110           0
     29192 WT12     1233     MECN     N3       NG1T1   -0.460000       14.0070           0
     29193 WT12     1236     MECN     C1       CG331   -0.170000       12.0110           0
     29194 WT12     1236     MECN     H11      HGA3     0.090000        1.0080           0
     29195 WT12     1236     MECN     H12      HGA3     0.090000        1.0080           0
     29196 WT12     1236     MECN     H13      HGA3     0.090000        1.0080           0
     29197 WT12     1236     MECN     C2       CG1N1    0.360000       12.0110           0
     29198 WT12     1236     MECN     N3       NG1T1   -0.460000       14.0070           0
     29199 WT12     1238     MECN     C1       CG331   -0.170000       12.0110           0
     29200 WT12     1238     MECN     H11      HGA3     0.090000        1.0080           0
     29201 WT12     1238     MECN     H12      HGA3     0.090000        1.0080           0
     29202 WT12     1238     MECN     H13      HGA3     0.090000        1.0080           0
     29203 WT12     1238     MECN     C2       CG1N1    0.360000       12.0110           0
     29204 WT12     1238     MECN     N3       NG1T1   -0.460000       14.0070           0
     29205 WT12     1242     MECN     C1       CG331   -0.170000       12.0110           0
     29206 WT12     1242     MECN     H11      HGA3     0.090000        1.0080           0
     29207 WT12     1242     MECN     H12      HGA3     0.090000        1.0080           0
     29208 WT12     1242     MECN     H13      HGA3     0.090000        1.0080           0
     29209 WT12     1242     MECN     C2       CG1N1    0.360000       12.0110           0
     29210 WT12     1242     MECN     N3       NG1T1   -0.460000       14.0070           0
     29211 WT12     1245     MECN     C1       CG331   -0.170000       12.0110           0
     29212 WT12     1245     MECN     H11      HGA3     0.090000        1.0080           0
     29213 WT12     1245     MECN     H12      HGA3     0.090000        1.0080           0
     29214 WT12     1245     MECN     H13      HGA3     0.090000        1.0080           0
     29215 WT12     1245     MECN     C2       CG1N1    0.360000       12.0110           0
     29216 WT12     1245     MECN     N3       NG1T1   -0.460000       14.0070           0
     29217 WT12     1246     MECN     C1       CG331   -0.170000       12.0110           0
     29218 WT12     1246     MECN     H11      HGA3     0.090000        1.0080           0
     29219 WT12     1246     MECN     H12      HGA3     0.090000        1.0080           0
     29220 WT12     1246     MECN     H13      HGA3     0.090000        1.0080           0
     29221 WT12     1246     MECN     C2       CG1N1    0.360000       12.0110           0
     29222 WT12     1246     MECN     N3       NG1T1   -0.460000       14.0070           0
     29223 WT12     1247     MECN     C1       CG331   -0.170000       12.0110           0
     29224 WT12     1247     MECN     H11      HGA3     0.090000        1.0080           0
     29225 WT12     1247     MECN     H12      HGA3     0.090000        1.0080           0
     29226 WT12     1247     MECN     H13      HGA3     0.090000        1.0080           0
     29227 WT12     1247     MECN     C2       CG1N1    0.360000       12.0110           0
     29228 WT12     1247     MECN     N3       NG1T1   -0.460000       14.0070           0
     29229 WT12     1252     MECN     C1       CG331   -0.170000       12.0110           0
     29230 WT12     1252     MECN     H11      HGA3     0.090000        1.0080           0
     29231 WT12     1252     MECN     H12      HGA3     0.090000        1.0080           0
     29232 WT12     1252     MECN     H13      HGA3     0.090000        1.0080           0
     29233 WT12     1252     MECN     C2       CG1N1    0.360000       12.0110           0
     29234 WT12     1252     MECN     N3       NG1T1   -0.460000       14.0070           0
     29235 WT12     1255     MECN     C1       CG331   -0.170000       12.0110           0
     29236 WT12     1255     MECN     H11      HGA3     0.090000        1.0080           0
     29237 WT12     1255     MECN     H12      HGA3     0.090000        1.0080           0
     29238 WT12     1255     MECN     H13      HGA3     0.090000        1.0080           0
     29239 WT12     1255     MECN     C2       CG1N1    0.360000       12.0110           0
     29240 WT12     1255     MECN     N3       NG1T1   -0.460000       14.0070           0
     29241 WT12     1256     MECN     C1       CG331   -0.170000       12.0110           0
     29242 WT12     1256     MECN     H11      HGA3     0.090000        1.0080           0
     29243 WT12     1256     MECN     H12      HGA3     0.090000        1.0080           0
     29244 WT12     1256     MECN     H13      HGA3     0.090000        1.0080           0
     29245 WT12     1256     MECN     C2       CG1N1    0.360000       12.0110           0
     29246 WT12     1256     MECN     N3       NG1T1   -0.460000       14.0070           0
     29247 WT12     1259     MECN     C1       CG331   -0.170000       12.0110           0
     29248 WT12     1259     MECN     H11      HGA3     0.090000        1.0080           0
     29249 WT12     1259     MECN     H12      HGA3     0.090000        1.0080           0
     29250 WT12     1259     MECN     H13      HGA3     0.090000        1.0080           0
     29251 WT12     1259     MECN     C2       CG1N1    0.360000       12.0110           0
     29252 WT12     1259     MECN     N3       NG1T1   -0.460000       14.0070           0
     29253 WT12     1266     MECN     C1       CG331   -0.170000       12.0110           0
     29254 WT12     1266     MECN     H11      HGA3     0.090000        1.0080           0
     29255 WT12     1266     MECN     H12      HGA3     0.090000        1.0080           0
     29256 WT12     1266     MECN     H13      HGA3     0.090000        1.0080           0
     29257 WT12     1266     MECN     C2       CG1N1    0.360000       12.0110           0
     29258 WT12     1266     MECN     N3       NG1T1   -0.460000       14.0070           0
     29259 WT12     1269     MECN     C1       CG331   -0.170000       12.0110           0
     29260 WT12     1269     MECN     H11      HGA3     0.090000        1.0080           0
     29261 WT12     1269     MECN     H12      HGA3     0.090000        1.0080           0
     29262 WT12     1269     MECN     H13      HGA3     0.090000        1.0080           0
     29263 WT12     1269     MECN     C2       CG1N1    0.360000       12.0110           0
     29264 WT12     1269     MECN     N3       NG1T1   -0.460000       14.0070           0
     29265 WT12     1272     MECN     C1       CG331   -0.170000       12.0110           0
     29266 WT12     1272     MECN     H11      HGA3     0.090000        1.0080           0
     29267 WT12     1272     MECN     H12      HGA3     0.090000        1.0080           0
     29268 WT12     1272     MECN     H13      HGA3     0.090000        1.0080           0
     29269 WT12     1272     MECN     C2       CG1N1    0.360000       12.0110           0
     29270 WT12     1272     MECN     N3       NG1T1   -0.460000       14.0070           0
     29271 WT12     1275     MECN     C1       CG331   -0.170000       12.0110           0
     29272 WT12     1275     MECN     H11      HGA3     0.090000        1.0080           0
     29273 WT12     1275     MECN     H12      HGA3     0.090000        1.0080           0
     29274 WT12     1275     MECN     H13      HGA3     0.090000        1.0080           0
     29275 WT12     1275     MECN     C2       CG1N1    0.360000       12.0110           0
     29276 WT12     1275     MECN     N3       NG1T1   -0.460000       14.0070           0
     29277 WT12     1278     MECN     C1       CG331   -0.170000       12.0110           0
     29278 WT12     1278     MECN     H11      HGA3     0.090000        1.0080           0
     29279 WT12     1278     MECN     H12      HGA3     0.090000        1.0080           0
     29280 WT12     1278     MECN     H13      HGA3     0.090000        1.0080           0
     29281 WT12     1278     MECN     C2       CG1N1    0.360000       12.0110           0
     29282 WT12     1278     MECN     N3       NG1T1   -0.460000       14.0070           0
     29283 WT12     1279     MECN     C1       CG331   -0.170000       12.0110           0
     29284 WT12     1279     MECN     H11      HGA3     0.090000        1.0080           0
     29285 WT12     1279     MECN     H12      HGA3     0.090000        1.0080           0
     29286 WT12     1279     MECN     H13      HGA3     0.090000        1.0080           0
     29287 WT12     1279     MECN     C2       CG1N1    0.360000       12.0110           0
     29288 WT12     1279     MECN     N3       NG1T1   -0.460000       14.0070           0
     29289 WT12     1280     MECN     C1       CG331   -0.170000       12.0110           0
     29290 WT12     1280     MECN     H11      HGA3     0.090000        1.0080           0
     29291 WT12     1280     MECN     H12      HGA3     0.090000        1.0080           0
     29292 WT12     1280     MECN     H13      HGA3     0.090000        1.0080           0
     29293 WT12     1280     MECN     C2       CG1N1    0.360000       12.0110           0
     29294 WT12     1280     MECN     N3       NG1T1   -0.460000       14.0070           0
     29295 WT12     1282     MECN     C1       CG331   -0.170000       12.0110           0
     29296 WT12     1282     MECN     H11      HGA3     0.090000        1.0080           0
     29297 WT12     1282     MECN     H12      HGA3     0.090000        1.0080           0
     29298 WT12     1282     MECN     H13      HGA3     0.090000        1.0080           0
     29299 WT12     1282     MECN     C2       CG1N1    0.360000       12.0110           0
     29300 WT12     1282     MECN     N3       NG1T1   -0.460000       14.0070           0
     29301 WT12     1285     MECN     C1       CG331   -0.170000       12.0110           0
     29302 WT12     1285     MECN     H11      HGA3     0.090000        1.0080           0
     29303 WT12     1285     MECN     H12      HGA3     0.090000        1.0080           0
     29304 WT12     1285     MECN     H13      HGA3     0.090000        1.0080           0
     29305 WT12     1285     MECN     C2       CG1N1    0.360000       12.0110           0
     29306 WT12     1285     MECN     N3       NG1T1   -0.460000       14.0070           0
     29307 WT12     1288     MECN     C1       CG331   -0.170000       12.0110           0
     29308 WT12     1288     MECN     H11      HGA3     0.090000        1.0080           0
     29309 WT12     1288     MECN     H12      HGA3     0.090000        1.0080           0
     29310 WT12     1288     MECN     H13      HGA3     0.090000        1.0080           0
     29311 WT12     1288     MECN     C2       CG1N1    0.360000       12.0110           0
     29312 WT12     1288     MECN     N3       NG1T1   -0.460000       14.0070           0
     29313 WT12     1290     MECN     C1       CG331   -0.170000       12.0110           0
     29314 WT12     1290     MECN     H11      HGA3     0.090000        1.0080           0
     29315 WT12     1290     MECN     H12      HGA3     0.090000        1.0080           0
     29316 WT12     1290     MECN     H13      HGA3     0.090000        1.0080           0
     29317 WT12     1290     MECN     C2       CG1N1    0.360000       12.0110           0
     29318 WT12     1290     MECN     N3       NG1T1   -0.460000       14.0070           0
     29319 WT12     1291     MECN     C1       CG331   -0.170000       12.0110           0
     29320 WT12     1291     MECN     H11      HGA3     0.090000        1.0080           0
     29321 WT12     1291     MECN     H12      HGA3     0.090000        1.0080           0
     29322 WT12     1291     MECN     H13      HGA3     0.090000        1.0080           0
     29323 WT12     1291     MECN     C2       CG1N1    0.360000       12.0110           0
     29324 WT12     1291     MECN     N3       NG1T1   -0.460000       14.0070           0
     29325 WT12     1296     MECN     C1       CG331   -0.170000       12.0110           0
     29326 WT12     1296     MECN     H11      HGA3     0.090000        1.0080           0
     29327 WT12     1296     MECN     H12      HGA3     0.090000        1.0080           0
     29328 WT12     1296     MECN     H13      HGA3     0.090000        1.0080           0
     29329 WT12     1296     MECN     C2       CG1N1    0.360000       12.0110           0
     29330 WT12     1296     MECN     N3       NG1T1   -0.460000       14.0070           0
     29331 WT12     1299     MECN     C1       CG331   -0.170000       12.0110           0
     29332 WT12     1299     MECN     H11      HGA3     0.090000        1.0080           0
     29333 WT12     1299     MECN     H12      HGA3     0.090000        1.0080           0
     29334 WT12     1299     MECN     H13      HGA3     0.090000        1.0080           0
     29335 WT12     1299     MECN     C2       CG1N1    0.360000       12.0110           0
     29336 WT12     1299     MECN     N3       NG1T1   -0.460000       14.0070           0
     29337 WT12     1302     MECN     C1       CG331   -0.170000       12.0110           0
     29338 WT12     1302     MECN     H11      HGA3     0.090000        1.0080           0
     29339 WT12     1302     MECN     H12      HGA3     0.090000        1.0080           0
     29340 WT12     1302     MECN     H13      HGA3     0.090000        1.0080           0
     29341 WT12     1302     MECN     C2       CG1N1    0.360000       12.0110           0
     29342 WT12     1302     MECN     N3       NG1T1   -0.460000       14.0070           0
     29343 WT12     1308     MECN     C1       CG331   -0.170000       12.0110           0
     29344 WT12     1308     MECN     H11      HGA3     0.090000        1.0080           0
     29345 WT12     1308     MECN     H12      HGA3     0.090000        1.0080           0
     29346 WT12     1308     MECN     H13      HGA3     0.090000        1.0080           0
     29347 WT12     1308     MECN     C2       CG1N1    0.360000       12.0110           0
     29348 WT12     1308     MECN     N3       NG1T1   -0.460000       14.0070           0
     29349 WT12     1311     MECN     C1       CG331   -0.170000       12.0110           0
     29350 WT12     1311     MECN     H11      HGA3     0.090000        1.0080           0
     29351 WT12     1311     MECN     H12      HGA3     0.090000        1.0080           0
     29352 WT12     1311     MECN     H13      HGA3     0.090000        1.0080           0
     29353 WT12     1311     MECN     C2       CG1N1    0.360000       12.0110           0
     29354 WT12     1311     MECN     N3       NG1T1   -0.460000       14.0070           0
     29355 WT12     1312     MECN     C1       CG331   -0.170000       12.0110           0
     29356 WT12     1312     MECN     H11      HGA3     0.090000        1.0080           0
     29357 WT12     1312     MECN     H12      HGA3     0.090000        1.0080           0
     29358 WT12     1312     MECN     H13      HGA3     0.090000        1.0080           0
     29359 WT12     1312     MECN     C2       CG1N1    0.360000       12.0110           0
     29360 WT12     1312     MECN     N3       NG1T1   -0.460000       14.0070           0
     29361 WT12     1313     MECN     C1       CG331   -0.170000       12.0110           0
     29362 WT12     1313     MECN     H11      HGA3     0.090000        1.0080           0
     29363 WT12     1313     MECN     H12      HGA3     0.090000        1.0080           0
     29364 WT12     1313     MECN     H13      HGA3     0.090000        1.0080           0
     29365 WT12     1313     MECN     C2       CG1N1    0.360000       12.0110           0
     29366 WT12     1313     MECN     N3       NG1T1   -0.460000       14.0070           0
     29367 WT12     1316     MECN     C1       CG331   -0.170000       12.0110           0
     29368 WT12     1316     MECN     H11      HGA3     0.090000        1.0080           0
     29369 WT12     1316     MECN     H12      HGA3     0.090000        1.0080           0
     29370 WT12     1316     MECN     H13      HGA3     0.090000        1.0080           0
     29371 WT12     1316     MECN     C2       CG1N1    0.360000       12.0110           0
     29372 WT12     1316     MECN     N3       NG1T1   -0.460000       14.0070           0
     29373 WT12     1320     MECN     C1       CG331   -0.170000       12.0110           0
     29374 WT12     1320     MECN     H11      HGA3     0.090000        1.0080           0
     29375 WT12     1320     MECN     H12      HGA3     0.090000        1.0080           0
     29376 WT12     1320     MECN     H13      HGA3     0.090000        1.0080           0
     29377 WT12     1320     MECN     C2       CG1N1    0.360000       12.0110           0
     29378 WT12     1320     MECN     N3       NG1T1   -0.460000       14.0070           0
     29379 WT12     1321     MECN     C1       CG331   -0.170000       12.0110           0
     29380 WT12     1321     MECN     H11      HGA3     0.090000        1.0080           0
     29381 WT12     1321     MECN     H12      HGA3     0.090000        1.0080           0
     29382 WT12     1321     MECN     H13      HGA3     0.090000        1.0080           0
     29383 WT12     1321     MECN     C2       CG1N1    0.360000       12.0110           0
     29384 WT12     1321     MECN     N3       NG1T1   -0.460000       14.0070           0
     29385 WT12     1322     MECN     C1       CG331   -0.170000       12.0110           0
     29386 WT12     1322     MECN     H11      HGA3     0.090000        1.0080           0
     29387 WT12     1322     MECN     H12      HGA3     0.090000        1.0080           0
     29388 WT12     1322     MECN     H13      HGA3     0.090000        1.0080           0
     29389 WT12     1322     MECN     C2       CG1N1    0.360000       12.0110           0
     29390 WT12     1322     MECN     N3       NG1T1   -0.460000       14.0070           0
     29391 WT12     1323     MECN     C1       CG331   -0.170000       12.0110           0
     29392 WT12     1323     MECN     H11      HGA3     0.090000        1.0080           0
     29393 WT12     1323     MECN     H12      HGA3     0.090000        1.0080           0
     29394 WT12     1323     MECN     H13      HGA3     0.090000        1.0080           0
     29395 WT12     1323     MECN     C2       CG1N1    0.360000       12.0110           0
     29396 WT12     1323     MECN     N3       NG1T1   -0.460000       14.0070           0
     29397 WT12     1327     MECN     C1       CG331   -0.170000       12.0110           0
     29398 WT12     1327     MECN     H11      HGA3     0.090000        1.0080           0
     29399 WT12     1327     MECN     H12      HGA3     0.090000        1.0080           0
     29400 WT12     1327     MECN     H13      HGA3     0.090000        1.0080           0
     29401 WT12     1327     MECN     C2       CG1N1    0.360000       12.0110           0
     29402 WT12     1327     MECN     N3       NG1T1   -0.460000       14.0070           0
     29403 WT12     1330     MECN     C1       CG331   -0.170000       12.0110           0
     29404 WT12     1330     MECN     H11      HGA3     0.090000        1.0080           0
     29405 WT12     1330     MECN     H12      HGA3     0.090000        1.0080           0
     29406 WT12     1330     MECN     H13      HGA3     0.090000        1.0080           0
     29407 WT12     1330     MECN     C2       CG1N1    0.360000       12.0110           0
     29408 WT12     1330     MECN     N3       NG1T1   -0.460000       14.0070           0
     29409 WT13     1        MECN     C1       CG331   -0.170000       12.0110           0
     29410 WT13     1        MECN     H11      HGA3     0.090000        1.0080           0
     29411 WT13     1        MECN     H12      HGA3     0.090000        1.0080           0
     29412 WT13     1        MECN     H13      HGA3     0.090000        1.0080           0
     29413 WT13     1        MECN     C2       CG1N1    0.360000       12.0110           0
     29414 WT13     1        MECN     N3       NG1T1   -0.460000       14.0070           0
     29415 WT13     4        MECN     C1       CG331   -0.170000       12.0110           0
     29416 WT13     4        MECN     H11      HGA3     0.090000        1.0080           0
     29417 WT13     4        MECN     H12      HGA3     0.090000        1.0080           0
     29418 WT13     4        MECN     H13      HGA3     0.090000        1.0080           0
     29419 WT13     4        MECN     C2       CG1N1    0.360000       12.0110           0
     29420 WT13     4        MECN     N3       NG1T1   -0.460000       14.0070           0
     29421 WT13     7        MECN     C1       CG331   -0.170000       12.0110           0
     29422 WT13     7        MECN     H11      HGA3     0.090000        1.0080           0
     29423 WT13     7        MECN     H12      HGA3     0.090000        1.0080           0
     29424 WT13     7        MECN     H13      HGA3     0.090000        1.0080           0
     29425 WT13     7        MECN     C2       CG1N1    0.360000       12.0110           0
     29426 WT13     7        MECN     N3       NG1T1   -0.460000       14.0070           0
     29427 WT13     8        MECN     C1       CG331   -0.170000       12.0110           0
     29428 WT13     8        MECN     H11      HGA3     0.090000        1.0080           0
     29429 WT13     8        MECN     H12      HGA3     0.090000        1.0080           0
     29430 WT13     8        MECN     H13      HGA3     0.090000        1.0080           0
     29431 WT13     8        MECN     C2       CG1N1    0.360000       12.0110           0
     29432 WT13     8        MECN     N3       NG1T1   -0.460000       14.0070           0
     29433 WT13     9        MECN     C1       CG331   -0.170000       12.0110           0
     29434 WT13     9        MECN     H11      HGA3     0.090000        1.0080           0
     29435 WT13     9        MECN     H12      HGA3     0.090000        1.0080           0
     29436 WT13     9        MECN     H13      HGA3     0.090000        1.0080           0
     29437 WT13     9        MECN     C2       CG1N1    0.360000       12.0110           0
     29438 WT13     9        MECN     N3       NG1T1   -0.460000       14.0070           0
     29439 WT13     16       MECN     C1       CG331   -0.170000       12.0110           0
     29440 WT13     16       MECN     H11      HGA3     0.090000        1.0080           0
     29441 WT13     16       MECN     H12      HGA3     0.090000        1.0080           0
     29442 WT13     16       MECN     H13      HGA3     0.090000        1.0080           0
     29443 WT13     16       MECN     C2       CG1N1    0.360000       12.0110           0
     29444 WT13     16       MECN     N3       NG1T1   -0.460000       14.0070           0
     29445 WT13     17       MECN     C1       CG331   -0.170000       12.0110           0
     29446 WT13     17       MECN     H11      HGA3     0.090000        1.0080           0
     29447 WT13     17       MECN     H12      HGA3     0.090000        1.0080           0
     29448 WT13     17       MECN     H13      HGA3     0.090000        1.0080           0
     29449 WT13     17       MECN     C2       CG1N1    0.360000       12.0110           0
     29450 WT13     17       MECN     N3       NG1T1   -0.460000       14.0070           0
     29451 WT13     23       MECN     C1       CG331   -0.170000       12.0110           0
     29452 WT13     23       MECN     H11      HGA3     0.090000        1.0080           0
     29453 WT13     23       MECN     H12      HGA3     0.090000        1.0080           0
     29454 WT13     23       MECN     H13      HGA3     0.090000        1.0080           0
     29455 WT13     23       MECN     C2       CG1N1    0.360000       12.0110           0
     29456 WT13     23       MECN     N3       NG1T1   -0.460000       14.0070           0
     29457 WT13     25       MECN     C1       CG331   -0.170000       12.0110           0
     29458 WT13     25       MECN     H11      HGA3     0.090000        1.0080           0
     29459 WT13     25       MECN     H12      HGA3     0.090000        1.0080           0
     29460 WT13     25       MECN     H13      HGA3     0.090000        1.0080           0
     29461 WT13     25       MECN     C2       CG1N1    0.360000       12.0110           0
     29462 WT13     25       MECN     N3       NG1T1   -0.460000       14.0070           0
     29463 WT13     31       MECN     C1       CG331   -0.170000       12.0110           0
     29464 WT13     31       MECN     H11      HGA3     0.090000        1.0080           0
     29465 WT13     31       MECN     H12      HGA3     0.090000        1.0080           0
     29466 WT13     31       MECN     H13      HGA3     0.090000        1.0080           0
     29467 WT13     31       MECN     C2       CG1N1    0.360000       12.0110           0
     29468 WT13     31       MECN     N3       NG1T1   -0.460000       14.0070           0
     29469 WT13     33       MECN     C1       CG331   -0.170000       12.0110           0
     29470 WT13     33       MECN     H11      HGA3     0.090000        1.0080           0
     29471 WT13     33       MECN     H12      HGA3     0.090000        1.0080           0
     29472 WT13     33       MECN     H13      HGA3     0.090000        1.0080           0
     29473 WT13     33       MECN     C2       CG1N1    0.360000       12.0110           0
     29474 WT13     33       MECN     N3       NG1T1   -0.460000       14.0070           0
     29475 WT13     34       MECN     C1       CG331   -0.170000       12.0110           0
     29476 WT13     34       MECN     H11      HGA3     0.090000        1.0080           0
     29477 WT13     34       MECN     H12      HGA3     0.090000        1.0080           0
     29478 WT13     34       MECN     H13      HGA3     0.090000        1.0080           0
     29479 WT13     34       MECN     C2       CG1N1    0.360000       12.0110           0
     29480 WT13     34       MECN     N3       NG1T1   -0.460000       14.0070           0
     29481 WT13     36       MECN     C1       CG331   -0.170000       12.0110           0
     29482 WT13     36       MECN     H11      HGA3     0.090000        1.0080           0
     29483 WT13     36       MECN     H12      HGA3     0.090000        1.0080           0
     29484 WT13     36       MECN     H13      HGA3     0.090000        1.0080           0
     29485 WT13     36       MECN     C2       CG1N1    0.360000       12.0110           0
     29486 WT13     36       MECN     N3       NG1T1   -0.460000       14.0070           0
     29487 WT13     37       MECN     C1       CG331   -0.170000       12.0110           0
     29488 WT13     37       MECN     H11      HGA3     0.090000        1.0080           0
     29489 WT13     37       MECN     H12      HGA3     0.090000        1.0080           0
     29490 WT13     37       MECN     H13      HGA3     0.090000        1.0080           0
     29491 WT13     37       MECN     C2       CG1N1    0.360000       12.0110           0
     29492 WT13     37       MECN     N3       NG1T1   -0.460000       14.0070           0
     29493 WT13     38       MECN     C1       CG331   -0.170000       12.0110           0
     29494 WT13     38       MECN     H11      HGA3     0.090000        1.0080           0
     29495 WT13     38       MECN     H12      HGA3     0.090000        1.0080           0
     29496 WT13     38       MECN     H13      HGA3     0.090000        1.0080           0
     29497 WT13     38       MECN     C2       CG1N1    0.360000       12.0110           0
     29498 WT13     38       MECN     N3       NG1T1   -0.460000       14.0070           0
     29499 WT13     39       MECN     C1       CG331   -0.170000       12.0110           0
     29500 WT13     39       MECN     H11      HGA3     0.090000        1.0080           0
     29501 WT13     39       MECN     H12      HGA3     0.090000        1.0080           0
     29502 WT13     39       MECN     H13      HGA3     0.090000        1.0080           0
     29503 WT13     39       MECN     C2       CG1N1    0.360000       12.0110           0
     29504 WT13     39       MECN     N3       NG1T1   -0.460000       14.0070           0
     29505 WT13     42       MECN     C1       CG331   -0.170000       12.0110           0
     29506 WT13     42       MECN     H11      HGA3     0.090000        1.0080           0
     29507 WT13     42       MECN     H12      HGA3     0.090000        1.0080           0
     29508 WT13     42       MECN     H13      HGA3     0.090000        1.0080           0
     29509 WT13     42       MECN     C2       CG1N1    0.360000       12.0110           0
     29510 WT13     42       MECN     N3       NG1T1   -0.460000       14.0070           0
     29511 WT13     43       MECN     C1       CG331   -0.170000       12.0110           0
     29512 WT13     43       MECN     H11      HGA3     0.090000        1.0080           0
     29513 WT13     43       MECN     H12      HGA3     0.090000        1.0080           0
     29514 WT13     43       MECN     H13      HGA3     0.090000        1.0080           0
     29515 WT13     43       MECN     C2       CG1N1    0.360000       12.0110           0
     29516 WT13     43       MECN     N3       NG1T1   -0.460000       14.0070           0
     29517 WT13     45       MECN     C1       CG331   -0.170000       12.0110           0
     29518 WT13     45       MECN     H11      HGA3     0.090000        1.0080           0
     29519 WT13     45       MECN     H12      HGA3     0.090000        1.0080           0
     29520 WT13     45       MECN     H13      HGA3     0.090000        1.0080           0
     29521 WT13     45       MECN     C2       CG1N1    0.360000       12.0110           0
     29522 WT13     45       MECN     N3       NG1T1   -0.460000       14.0070           0
     29523 WT13     46       MECN     C1       CG331   -0.170000       12.0110           0
     29524 WT13     46       MECN     H11      HGA3     0.090000        1.0080           0
     29525 WT13     46       MECN     H12      HGA3     0.090000        1.0080           0
     29526 WT13     46       MECN     H13      HGA3     0.090000        1.0080           0
     29527 WT13     46       MECN     C2       CG1N1    0.360000       12.0110           0
     29528 WT13     46       MECN     N3       NG1T1   -0.460000       14.0070           0
     29529 WT13     50       MECN     C1       CG331   -0.170000       12.0110           0
     29530 WT13     50       MECN     H11      HGA3     0.090000        1.0080           0
     29531 WT13     50       MECN     H12      HGA3     0.090000        1.0080           0
     29532 WT13     50       MECN     H13      HGA3     0.090000        1.0080           0
     29533 WT13     50       MECN     C2       CG1N1    0.360000       12.0110           0
     29534 WT13     50       MECN     N3       NG1T1   -0.460000       14.0070           0
     29535 WT13     52       MECN     C1       CG331   -0.170000       12.0110           0
     29536 WT13     52       MECN     H11      HGA3     0.090000        1.0080           0
     29537 WT13     52       MECN     H12      HGA3     0.090000        1.0080           0
     29538 WT13     52       MECN     H13      HGA3     0.090000        1.0080           0
     29539 WT13     52       MECN     C2       CG1N1    0.360000       12.0110           0
     29540 WT13     52       MECN     N3       NG1T1   -0.460000       14.0070           0
     29541 WT13     54       MECN     C1       CG331   -0.170000       12.0110           0
     29542 WT13     54       MECN     H11      HGA3     0.090000        1.0080           0
     29543 WT13     54       MECN     H12      HGA3     0.090000        1.0080           0
     29544 WT13     54       MECN     H13      HGA3     0.090000        1.0080           0
     29545 WT13     54       MECN     C2       CG1N1    0.360000       12.0110           0
     29546 WT13     54       MECN     N3       NG1T1   -0.460000       14.0070           0
     29547 WT13     56       MECN     C1       CG331   -0.170000       12.0110           0
     29548 WT13     56       MECN     H11      HGA3     0.090000        1.0080           0
     29549 WT13     56       MECN     H12      HGA3     0.090000        1.0080           0
     29550 WT13     56       MECN     H13      HGA3     0.090000        1.0080           0
     29551 WT13     56       MECN     C2       CG1N1    0.360000       12.0110           0
     29552 WT13     56       MECN     N3       NG1T1   -0.460000       14.0070           0
     29553 WT13     57       MECN     C1       CG331   -0.170000       12.0110           0
     29554 WT13     57       MECN     H11      HGA3     0.090000        1.0080           0
     29555 WT13     57       MECN     H12      HGA3     0.090000        1.0080           0
     29556 WT13     57       MECN     H13      HGA3     0.090000        1.0080           0
     29557 WT13     57       MECN     C2       CG1N1    0.360000       12.0110           0
     29558 WT13     57       MECN     N3       NG1T1   -0.460000       14.0070           0
     29559 WT13     58       MECN     C1       CG331   -0.170000       12.0110           0
     29560 WT13     58       MECN     H11      HGA3     0.090000        1.0080           0
     29561 WT13     58       MECN     H12      HGA3     0.090000        1.0080           0
     29562 WT13     58       MECN     H13      HGA3     0.090000        1.0080           0
     29563 WT13     58       MECN     C2       CG1N1    0.360000       12.0110           0
     29564 WT13     58       MECN     N3       NG1T1   -0.460000       14.0070           0
     29565 WT13     59       MECN     C1       CG331   -0.170000       12.0110           0
     29566 WT13     59       MECN     H11      HGA3     0.090000        1.0080           0
     29567 WT13     59       MECN     H12      HGA3     0.090000        1.0080           0
     29568 WT13     59       MECN     H13      HGA3     0.090000        1.0080           0
     29569 WT13     59       MECN     C2       CG1N1    0.360000       12.0110           0
     29570 WT13     59       MECN     N3       NG1T1   -0.460000       14.0070           0
     29571 WT13     60       MECN     C1       CG331   -0.170000       12.0110           0
     29572 WT13     60       MECN     H11      HGA3     0.090000        1.0080           0
     29573 WT13     60       MECN     H12      HGA3     0.090000        1.0080           0
     29574 WT13     60       MECN     H13      HGA3     0.090000        1.0080           0
     29575 WT13     60       MECN     C2       CG1N1    0.360000       12.0110           0
     29576 WT13     60       MECN     N3       NG1T1   -0.460000       14.0070           0
     29577 WT13     62       MECN     C1       CG331   -0.170000       12.0110           0
     29578 WT13     62       MECN     H11      HGA3     0.090000        1.0080           0
     29579 WT13     62       MECN     H12      HGA3     0.090000        1.0080           0
     29580 WT13     62       MECN     H13      HGA3     0.090000        1.0080           0
     29581 WT13     62       MECN     C2       CG1N1    0.360000       12.0110           0
     29582 WT13     62       MECN     N3       NG1T1   -0.460000       14.0070           0
     29583 WT13     63       MECN     C1       CG331   -0.170000       12.0110           0
     29584 WT13     63       MECN     H11      HGA3     0.090000        1.0080           0
     29585 WT13     63       MECN     H12      HGA3     0.090000        1.0080           0
     29586 WT13     63       MECN     H13      HGA3     0.090000        1.0080           0
     29587 WT13     63       MECN     C2       CG1N1    0.360000       12.0110           0
     29588 WT13     63       MECN     N3       NG1T1   -0.460000       14.0070           0
     29589 WT13     71       MECN     C1       CG331   -0.170000       12.0110           0
     29590 WT13     71       MECN     H11      HGA3     0.090000        1.0080           0
     29591 WT13     71       MECN     H12      HGA3     0.090000        1.0080           0
     29592 WT13     71       MECN     H13      HGA3     0.090000        1.0080           0
     29593 WT13     71       MECN     C2       CG1N1    0.360000       12.0110           0
     29594 WT13     71       MECN     N3       NG1T1   -0.460000       14.0070           0
     29595 WT13     72       MECN     C1       CG331   -0.170000       12.0110           0
     29596 WT13     72       MECN     H11      HGA3     0.090000        1.0080           0
     29597 WT13     72       MECN     H12      HGA3     0.090000        1.0080           0
     29598 WT13     72       MECN     H13      HGA3     0.090000        1.0080           0
     29599 WT13     72       MECN     C2       CG1N1    0.360000       12.0110           0
     29600 WT13     72       MECN     N3       NG1T1   -0.460000       14.0070           0
     29601 WT13     73       MECN     C1       CG331   -0.170000       12.0110           0
     29602 WT13     73       MECN     H11      HGA3     0.090000        1.0080           0
     29603 WT13     73       MECN     H12      HGA3     0.090000        1.0080           0
     29604 WT13     73       MECN     H13      HGA3     0.090000        1.0080           0
     29605 WT13     73       MECN     C2       CG1N1    0.360000       12.0110           0
     29606 WT13     73       MECN     N3       NG1T1   -0.460000       14.0070           0
     29607 WT13     75       MECN     C1       CG331   -0.170000       12.0110           0
     29608 WT13     75       MECN     H11      HGA3     0.090000        1.0080           0
     29609 WT13     75       MECN     H12      HGA3     0.090000        1.0080           0
     29610 WT13     75       MECN     H13      HGA3     0.090000        1.0080           0
     29611 WT13     75       MECN     C2       CG1N1    0.360000       12.0110           0
     29612 WT13     75       MECN     N3       NG1T1   -0.460000       14.0070           0
     29613 WT13     76       MECN     C1       CG331   -0.170000       12.0110           0
     29614 WT13     76       MECN     H11      HGA3     0.090000        1.0080           0
     29615 WT13     76       MECN     H12      HGA3     0.090000        1.0080           0
     29616 WT13     76       MECN     H13      HGA3     0.090000        1.0080           0
     29617 WT13     76       MECN     C2       CG1N1    0.360000       12.0110           0
     29618 WT13     76       MECN     N3       NG1T1   -0.460000       14.0070           0
     29619 WT13     78       MECN     C1       CG331   -0.170000       12.0110           0
     29620 WT13     78       MECN     H11      HGA3     0.090000        1.0080           0
     29621 WT13     78       MECN     H12      HGA3     0.090000        1.0080           0
     29622 WT13     78       MECN     H13      HGA3     0.090000        1.0080           0
     29623 WT13     78       MECN     C2       CG1N1    0.360000       12.0110           0
     29624 WT13     78       MECN     N3       NG1T1   -0.460000       14.0070           0
     29625 WT13     79       MECN     C1       CG331   -0.170000       12.0110           0
     29626 WT13     79       MECN     H11      HGA3     0.090000        1.0080           0
     29627 WT13     79       MECN     H12      HGA3     0.090000        1.0080           0
     29628 WT13     79       MECN     H13      HGA3     0.090000        1.0080           0
     29629 WT13     79       MECN     C2       CG1N1    0.360000       12.0110           0
     29630 WT13     79       MECN     N3       NG1T1   -0.460000       14.0070           0
     29631 WT13     80       MECN     C1       CG331   -0.170000       12.0110           0
     29632 WT13     80       MECN     H11      HGA3     0.090000        1.0080           0
     29633 WT13     80       MECN     H12      HGA3     0.090000        1.0080           0
     29634 WT13     80       MECN     H13      HGA3     0.090000        1.0080           0
     29635 WT13     80       MECN     C2       CG1N1    0.360000       12.0110           0
     29636 WT13     80       MECN     N3       NG1T1   -0.460000       14.0070           0
     29637 WT13     81       MECN     C1       CG331   -0.170000       12.0110           0
     29638 WT13     81       MECN     H11      HGA3     0.090000        1.0080           0
     29639 WT13     81       MECN     H12      HGA3     0.090000        1.0080           0
     29640 WT13     81       MECN     H13      HGA3     0.090000        1.0080           0
     29641 WT13     81       MECN     C2       CG1N1    0.360000       12.0110           0
     29642 WT13     81       MECN     N3       NG1T1   -0.460000       14.0070           0
     29643 WT13     83       MECN     C1       CG331   -0.170000       12.0110           0
     29644 WT13     83       MECN     H11      HGA3     0.090000        1.0080           0
     29645 WT13     83       MECN     H12      HGA3     0.090000        1.0080           0
     29646 WT13     83       MECN     H13      HGA3     0.090000        1.0080           0
     29647 WT13     83       MECN     C2       CG1N1    0.360000       12.0110           0
     29648 WT13     83       MECN     N3       NG1T1   -0.460000       14.0070           0
     29649 WT13     84       MECN     C1       CG331   -0.170000       12.0110           0
     29650 WT13     84       MECN     H11      HGA3     0.090000        1.0080           0
     29651 WT13     84       MECN     H12      HGA3     0.090000        1.0080           0
     29652 WT13     84       MECN     H13      HGA3     0.090000        1.0080           0
     29653 WT13     84       MECN     C2       CG1N1    0.360000       12.0110           0
     29654 WT13     84       MECN     N3       NG1T1   -0.460000       14.0070           0
     29655 WT13     86       MECN     C1       CG331   -0.170000       12.0110           0
     29656 WT13     86       MECN     H11      HGA3     0.090000        1.0080           0
     29657 WT13     86       MECN     H12      HGA3     0.090000        1.0080           0
     29658 WT13     86       MECN     H13      HGA3     0.090000        1.0080           0
     29659 WT13     86       MECN     C2       CG1N1    0.360000       12.0110           0
     29660 WT13     86       MECN     N3       NG1T1   -0.460000       14.0070           0
     29661 WT13     90       MECN     C1       CG331   -0.170000       12.0110           0
     29662 WT13     90       MECN     H11      HGA3     0.090000        1.0080           0
     29663 WT13     90       MECN     H12      HGA3     0.090000        1.0080           0
     29664 WT13     90       MECN     H13      HGA3     0.090000        1.0080           0
     29665 WT13     90       MECN     C2       CG1N1    0.360000       12.0110           0
     29666 WT13     90       MECN     N3       NG1T1   -0.460000       14.0070           0
     29667 WT13     91       MECN     C1       CG331   -0.170000       12.0110           0
     29668 WT13     91       MECN     H11      HGA3     0.090000        1.0080           0
     29669 WT13     91       MECN     H12      HGA3     0.090000        1.0080           0
     29670 WT13     91       MECN     H13      HGA3     0.090000        1.0080           0
     29671 WT13     91       MECN     C2       CG1N1    0.360000       12.0110           0
     29672 WT13     91       MECN     N3       NG1T1   -0.460000       14.0070           0
     29673 WT13     92       MECN     C1       CG331   -0.170000       12.0110           0
     29674 WT13     92       MECN     H11      HGA3     0.090000        1.0080           0
     29675 WT13     92       MECN     H12      HGA3     0.090000        1.0080           0
     29676 WT13     92       MECN     H13      HGA3     0.090000        1.0080           0
     29677 WT13     92       MECN     C2       CG1N1    0.360000       12.0110           0
     29678 WT13     92       MECN     N3       NG1T1   -0.460000       14.0070           0
     29679 WT13     94       MECN     C1       CG331   -0.170000       12.0110           0
     29680 WT13     94       MECN     H11      HGA3     0.090000        1.0080           0
     29681 WT13     94       MECN     H12      HGA3     0.090000        1.0080           0
     29682 WT13     94       MECN     H13      HGA3     0.090000        1.0080           0
     29683 WT13     94       MECN     C2       CG1N1    0.360000       12.0110           0
     29684 WT13     94       MECN     N3       NG1T1   -0.460000       14.0070           0
     29685 WT13     95       MECN     C1       CG331   -0.170000       12.0110           0
     29686 WT13     95       MECN     H11      HGA3     0.090000        1.0080           0
     29687 WT13     95       MECN     H12      HGA3     0.090000        1.0080           0
     29688 WT13     95       MECN     H13      HGA3     0.090000        1.0080           0
     29689 WT13     95       MECN     C2       CG1N1    0.360000       12.0110           0
     29690 WT13     95       MECN     N3       NG1T1   -0.460000       14.0070           0
     29691 WT13     96       MECN     C1       CG331   -0.170000       12.0110           0
     29692 WT13     96       MECN     H11      HGA3     0.090000        1.0080           0
     29693 WT13     96       MECN     H12      HGA3     0.090000        1.0080           0
     29694 WT13     96       MECN     H13      HGA3     0.090000        1.0080           0
     29695 WT13     96       MECN     C2       CG1N1    0.360000       12.0110           0
     29696 WT13     96       MECN     N3       NG1T1   -0.460000       14.0070           0
     29697 WT13     100      MECN     C1       CG331   -0.170000       12.0110           0
     29698 WT13     100      MECN     H11      HGA3     0.090000        1.0080           0
     29699 WT13     100      MECN     H12      HGA3     0.090000        1.0080           0
     29700 WT13     100      MECN     H13      HGA3     0.090000        1.0080           0
     29701 WT13     100      MECN     C2       CG1N1    0.360000       12.0110           0
     29702 WT13     100      MECN     N3       NG1T1   -0.460000       14.0070           0
     29703 WT13     102      MECN     C1       CG331   -0.170000       12.0110           0
     29704 WT13     102      MECN     H11      HGA3     0.090000        1.0080           0
     29705 WT13     102      MECN     H12      HGA3     0.090000        1.0080           0
     29706 WT13     102      MECN     H13      HGA3     0.090000        1.0080           0
     29707 WT13     102      MECN     C2       CG1N1    0.360000       12.0110           0
     29708 WT13     102      MECN     N3       NG1T1   -0.460000       14.0070           0
     29709 WT13     104      MECN     C1       CG331   -0.170000       12.0110           0
     29710 WT13     104      MECN     H11      HGA3     0.090000        1.0080           0
     29711 WT13     104      MECN     H12      HGA3     0.090000        1.0080           0
     29712 WT13     104      MECN     H13      HGA3     0.090000        1.0080           0
     29713 WT13     104      MECN     C2       CG1N1    0.360000       12.0110           0
     29714 WT13     104      MECN     N3       NG1T1   -0.460000       14.0070           0
     29715 WT13     105      MECN     C1       CG331   -0.170000       12.0110           0
     29716 WT13     105      MECN     H11      HGA3     0.090000        1.0080           0
     29717 WT13     105      MECN     H12      HGA3     0.090000        1.0080           0
     29718 WT13     105      MECN     H13      HGA3     0.090000        1.0080           0
     29719 WT13     105      MECN     C2       CG1N1    0.360000       12.0110           0
     29720 WT13     105      MECN     N3       NG1T1   -0.460000       14.0070           0
     29721 WT13     108      MECN     C1       CG331   -0.170000       12.0110           0
     29722 WT13     108      MECN     H11      HGA3     0.090000        1.0080           0
     29723 WT13     108      MECN     H12      HGA3     0.090000        1.0080           0
     29724 WT13     108      MECN     H13      HGA3     0.090000        1.0080           0
     29725 WT13     108      MECN     C2       CG1N1    0.360000       12.0110           0
     29726 WT13     108      MECN     N3       NG1T1   -0.460000       14.0070           0
     29727 WT13     111      MECN     C1       CG331   -0.170000       12.0110           0
     29728 WT13     111      MECN     H11      HGA3     0.090000        1.0080           0
     29729 WT13     111      MECN     H12      HGA3     0.090000        1.0080           0
     29730 WT13     111      MECN     H13      HGA3     0.090000        1.0080           0
     29731 WT13     111      MECN     C2       CG1N1    0.360000       12.0110           0
     29732 WT13     111      MECN     N3       NG1T1   -0.460000       14.0070           0
     29733 WT13     112      MECN     C1       CG331   -0.170000       12.0110           0
     29734 WT13     112      MECN     H11      HGA3     0.090000        1.0080           0
     29735 WT13     112      MECN     H12      HGA3     0.090000        1.0080           0
     29736 WT13     112      MECN     H13      HGA3     0.090000        1.0080           0
     29737 WT13     112      MECN     C2       CG1N1    0.360000       12.0110           0
     29738 WT13     112      MECN     N3       NG1T1   -0.460000       14.0070           0
     29739 WT13     115      MECN     C1       CG331   -0.170000       12.0110           0
     29740 WT13     115      MECN     H11      HGA3     0.090000        1.0080           0
     29741 WT13     115      MECN     H12      HGA3     0.090000        1.0080           0
     29742 WT13     115      MECN     H13      HGA3     0.090000        1.0080           0
     29743 WT13     115      MECN     C2       CG1N1    0.360000       12.0110           0
     29744 WT13     115      MECN     N3       NG1T1   -0.460000       14.0070           0
     29745 WT13     117      MECN     C1       CG331   -0.170000       12.0110           0
     29746 WT13     117      MECN     H11      HGA3     0.090000        1.0080           0
     29747 WT13     117      MECN     H12      HGA3     0.090000        1.0080           0
     29748 WT13     117      MECN     H13      HGA3     0.090000        1.0080           0
     29749 WT13     117      MECN     C2       CG1N1    0.360000       12.0110           0
     29750 WT13     117      MECN     N3       NG1T1   -0.460000       14.0070           0
     29751 WT13     118      MECN     C1       CG331   -0.170000       12.0110           0
     29752 WT13     118      MECN     H11      HGA3     0.090000        1.0080           0
     29753 WT13     118      MECN     H12      HGA3     0.090000        1.0080           0
     29754 WT13     118      MECN     H13      HGA3     0.090000        1.0080           0
     29755 WT13     118      MECN     C2       CG1N1    0.360000       12.0110           0
     29756 WT13     118      MECN     N3       NG1T1   -0.460000       14.0070           0
     29757 WT13     120      MECN     C1       CG331   -0.170000       12.0110           0
     29758 WT13     120      MECN     H11      HGA3     0.090000        1.0080           0
     29759 WT13     120      MECN     H12      HGA3     0.090000        1.0080           0
     29760 WT13     120      MECN     H13      HGA3     0.090000        1.0080           0
     29761 WT13     120      MECN     C2       CG1N1    0.360000       12.0110           0
     29762 WT13     120      MECN     N3       NG1T1   -0.460000       14.0070           0
     29763 WT13     121      MECN     C1       CG331   -0.170000       12.0110           0
     29764 WT13     121      MECN     H11      HGA3     0.090000        1.0080           0
     29765 WT13     121      MECN     H12      HGA3     0.090000        1.0080           0
     29766 WT13     121      MECN     H13      HGA3     0.090000        1.0080           0
     29767 WT13     121      MECN     C2       CG1N1    0.360000       12.0110           0
     29768 WT13     121      MECN     N3       NG1T1   -0.460000       14.0070           0
     29769 WT13     126      MECN     C1       CG331   -0.170000       12.0110           0
     29770 WT13     126      MECN     H11      HGA3     0.090000        1.0080           0
     29771 WT13     126      MECN     H12      HGA3     0.090000        1.0080           0
     29772 WT13     126      MECN     H13      HGA3     0.090000        1.0080           0
     29773 WT13     126      MECN     C2       CG1N1    0.360000       12.0110           0
     29774 WT13     126      MECN     N3       NG1T1   -0.460000       14.0070           0
     29775 WT13     129      MECN     C1       CG331   -0.170000       12.0110           0
     29776 WT13     129      MECN     H11      HGA3     0.090000        1.0080           0
     29777 WT13     129      MECN     H12      HGA3     0.090000        1.0080           0
     29778 WT13     129      MECN     H13      HGA3     0.090000        1.0080           0
     29779 WT13     129      MECN     C2       CG1N1    0.360000       12.0110           0
     29780 WT13     129      MECN     N3       NG1T1   -0.460000       14.0070           0
     29781 WT13     133      MECN     C1       CG331   -0.170000       12.0110           0
     29782 WT13     133      MECN     H11      HGA3     0.090000        1.0080           0
     29783 WT13     133      MECN     H12      HGA3     0.090000        1.0080           0
     29784 WT13     133      MECN     H13      HGA3     0.090000        1.0080           0
     29785 WT13     133      MECN     C2       CG1N1    0.360000       12.0110           0
     29786 WT13     133      MECN     N3       NG1T1   -0.460000       14.0070           0
     29787 WT13     134      MECN     C1       CG331   -0.170000       12.0110           0
     29788 WT13     134      MECN     H11      HGA3     0.090000        1.0080           0
     29789 WT13     134      MECN     H12      HGA3     0.090000        1.0080           0
     29790 WT13     134      MECN     H13      HGA3     0.090000        1.0080           0
     29791 WT13     134      MECN     C2       CG1N1    0.360000       12.0110           0
     29792 WT13     134      MECN     N3       NG1T1   -0.460000       14.0070           0
     29793 WT13     138      MECN     C1       CG331   -0.170000       12.0110           0
     29794 WT13     138      MECN     H11      HGA3     0.090000        1.0080           0
     29795 WT13     138      MECN     H12      HGA3     0.090000        1.0080           0
     29796 WT13     138      MECN     H13      HGA3     0.090000        1.0080           0
     29797 WT13     138      MECN     C2       CG1N1    0.360000       12.0110           0
     29798 WT13     138      MECN     N3       NG1T1   -0.460000       14.0070           0
     29799 WT13     141      MECN     C1       CG331   -0.170000       12.0110           0
     29800 WT13     141      MECN     H11      HGA3     0.090000        1.0080           0
     29801 WT13     141      MECN     H12      HGA3     0.090000        1.0080           0
     29802 WT13     141      MECN     H13      HGA3     0.090000        1.0080           0
     29803 WT13     141      MECN     C2       CG1N1    0.360000       12.0110           0
     29804 WT13     141      MECN     N3       NG1T1   -0.460000       14.0070           0
     29805 WT13     146      MECN     C1       CG331   -0.170000       12.0110           0
     29806 WT13     146      MECN     H11      HGA3     0.090000        1.0080           0
     29807 WT13     146      MECN     H12      HGA3     0.090000        1.0080           0
     29808 WT13     146      MECN     H13      HGA3     0.090000        1.0080           0
     29809 WT13     146      MECN     C2       CG1N1    0.360000       12.0110           0
     29810 WT13     146      MECN     N3       NG1T1   -0.460000       14.0070           0
     29811 WT13     147      MECN     C1       CG331   -0.170000       12.0110           0
     29812 WT13     147      MECN     H11      HGA3     0.090000        1.0080           0
     29813 WT13     147      MECN     H12      HGA3     0.090000        1.0080           0
     29814 WT13     147      MECN     H13      HGA3     0.090000        1.0080           0
     29815 WT13     147      MECN     C2       CG1N1    0.360000       12.0110           0
     29816 WT13     147      MECN     N3       NG1T1   -0.460000       14.0070           0
     29817 WT13     148      MECN     C1       CG331   -0.170000       12.0110           0
     29818 WT13     148      MECN     H11      HGA3     0.090000        1.0080           0
     29819 WT13     148      MECN     H12      HGA3     0.090000        1.0080           0
     29820 WT13     148      MECN     H13      HGA3     0.090000        1.0080           0
     29821 WT13     148      MECN     C2       CG1N1    0.360000       12.0110           0
     29822 WT13     148      MECN     N3       NG1T1   -0.460000       14.0070           0
     29823 WT13     149      MECN     C1       CG331   -0.170000       12.0110           0
     29824 WT13     149      MECN     H11      HGA3     0.090000        1.0080           0
     29825 WT13     149      MECN     H12      HGA3     0.090000        1.0080           0
     29826 WT13     149      MECN     H13      HGA3     0.090000        1.0080           0
     29827 WT13     149      MECN     C2       CG1N1    0.360000       12.0110           0
     29828 WT13     149      MECN     N3       NG1T1   -0.460000       14.0070           0
     29829 WT13     151      MECN     C1       CG331   -0.170000       12.0110           0
     29830 WT13     151      MECN     H11      HGA3     0.090000        1.0080           0
     29831 WT13     151      MECN     H12      HGA3     0.090000        1.0080           0
     29832 WT13     151      MECN     H13      HGA3     0.090000        1.0080           0
     29833 WT13     151      MECN     C2       CG1N1    0.360000       12.0110           0
     29834 WT13     151      MECN     N3       NG1T1   -0.460000       14.0070           0
     29835 WT13     158      MECN     C1       CG331   -0.170000       12.0110           0
     29836 WT13     158      MECN     H11      HGA3     0.090000        1.0080           0
     29837 WT13     158      MECN     H12      HGA3     0.090000        1.0080           0
     29838 WT13     158      MECN     H13      HGA3     0.090000        1.0080           0
     29839 WT13     158      MECN     C2       CG1N1    0.360000       12.0110           0
     29840 WT13     158      MECN     N3       NG1T1   -0.460000       14.0070           0
     29841 WT13     159      MECN     C1       CG331   -0.170000       12.0110           0
     29842 WT13     159      MECN     H11      HGA3     0.090000        1.0080           0
     29843 WT13     159      MECN     H12      HGA3     0.090000        1.0080           0
     29844 WT13     159      MECN     H13      HGA3     0.090000        1.0080           0
     29845 WT13     159      MECN     C2       CG1N1    0.360000       12.0110           0
     29846 WT13     159      MECN     N3       NG1T1   -0.460000       14.0070           0
     29847 WT13     161      MECN     C1       CG331   -0.170000       12.0110           0
     29848 WT13     161      MECN     H11      HGA3     0.090000        1.0080           0
     29849 WT13     161      MECN     H12      HGA3     0.090000        1.0080           0
     29850 WT13     161      MECN     H13      HGA3     0.090000        1.0080           0
     29851 WT13     161      MECN     C2       CG1N1    0.360000       12.0110           0
     29852 WT13     161      MECN     N3       NG1T1   -0.460000       14.0070           0
     29853 WT13     162      MECN     C1       CG331   -0.170000       12.0110           0
     29854 WT13     162      MECN     H11      HGA3     0.090000        1.0080           0
     29855 WT13     162      MECN     H12      HGA3     0.090000        1.0080           0
     29856 WT13     162      MECN     H13      HGA3     0.090000        1.0080           0
     29857 WT13     162      MECN     C2       CG1N1    0.360000       12.0110           0
     29858 WT13     162      MECN     N3       NG1T1   -0.460000       14.0070           0
     29859 WT13     171      MECN     C1       CG331   -0.170000       12.0110           0
     29860 WT13     171      MECN     H11      HGA3     0.090000        1.0080           0
     29861 WT13     171      MECN     H12      HGA3     0.090000        1.0080           0
     29862 WT13     171      MECN     H13      HGA3     0.090000        1.0080           0
     29863 WT13     171      MECN     C2       CG1N1    0.360000       12.0110           0
     29864 WT13     171      MECN     N3       NG1T1   -0.460000       14.0070           0
     29865 WT13     173      MECN     C1       CG331   -0.170000       12.0110           0
     29866 WT13     173      MECN     H11      HGA3     0.090000        1.0080           0
     29867 WT13     173      MECN     H12      HGA3     0.090000        1.0080           0
     29868 WT13     173      MECN     H13      HGA3     0.090000        1.0080           0
     29869 WT13     173      MECN     C2       CG1N1    0.360000       12.0110           0
     29870 WT13     173      MECN     N3       NG1T1   -0.460000       14.0070           0
     29871 WT13     176      MECN     C1       CG331   -0.170000       12.0110           0
     29872 WT13     176      MECN     H11      HGA3     0.090000        1.0080           0
     29873 WT13     176      MECN     H12      HGA3     0.090000        1.0080           0
     29874 WT13     176      MECN     H13      HGA3     0.090000        1.0080           0
     29875 WT13     176      MECN     C2       CG1N1    0.360000       12.0110           0
     29876 WT13     176      MECN     N3       NG1T1   -0.460000       14.0070           0
     29877 WT13     177      MECN     C1       CG331   -0.170000       12.0110           0
     29878 WT13     177      MECN     H11      HGA3     0.090000        1.0080           0
     29879 WT13     177      MECN     H12      HGA3     0.090000        1.0080           0
     29880 WT13     177      MECN     H13      HGA3     0.090000        1.0080           0
     29881 WT13     177      MECN     C2       CG1N1    0.360000       12.0110           0
     29882 WT13     177      MECN     N3       NG1T1   -0.460000       14.0070           0
     29883 WT13     179      MECN     C1       CG331   -0.170000       12.0110           0
     29884 WT13     179      MECN     H11      HGA3     0.090000        1.0080           0
     29885 WT13     179      MECN     H12      HGA3     0.090000        1.0080           0
     29886 WT13     179      MECN     H13      HGA3     0.090000        1.0080           0
     29887 WT13     179      MECN     C2       CG1N1    0.360000       12.0110           0
     29888 WT13     179      MECN     N3       NG1T1   -0.460000       14.0070           0
     29889 WT13     182      MECN     C1       CG331   -0.170000       12.0110           0
     29890 WT13     182      MECN     H11      HGA3     0.090000        1.0080           0
     29891 WT13     182      MECN     H12      HGA3     0.090000        1.0080           0
     29892 WT13     182      MECN     H13      HGA3     0.090000        1.0080           0
     29893 WT13     182      MECN     C2       CG1N1    0.360000       12.0110           0
     29894 WT13     182      MECN     N3       NG1T1   -0.460000       14.0070           0
     29895 WT13     183      MECN     C1       CG331   -0.170000       12.0110           0
     29896 WT13     183      MECN     H11      HGA3     0.090000        1.0080           0
     29897 WT13     183      MECN     H12      HGA3     0.090000        1.0080           0
     29898 WT13     183      MECN     H13      HGA3     0.090000        1.0080           0
     29899 WT13     183      MECN     C2       CG1N1    0.360000       12.0110           0
     29900 WT13     183      MECN     N3       NG1T1   -0.460000       14.0070           0
     29901 WT13     189      MECN     C1       CG331   -0.170000       12.0110           0
     29902 WT13     189      MECN     H11      HGA3     0.090000        1.0080           0
     29903 WT13     189      MECN     H12      HGA3     0.090000        1.0080           0
     29904 WT13     189      MECN     H13      HGA3     0.090000        1.0080           0
     29905 WT13     189      MECN     C2       CG1N1    0.360000       12.0110           0
     29906 WT13     189      MECN     N3       NG1T1   -0.460000       14.0070           0
     29907 WT13     191      MECN     C1       CG331   -0.170000       12.0110           0
     29908 WT13     191      MECN     H11      HGA3     0.090000        1.0080           0
     29909 WT13     191      MECN     H12      HGA3     0.090000        1.0080           0
     29910 WT13     191      MECN     H13      HGA3     0.090000        1.0080           0
     29911 WT13     191      MECN     C2       CG1N1    0.360000       12.0110           0
     29912 WT13     191      MECN     N3       NG1T1   -0.460000       14.0070           0
     29913 WT13     193      MECN     C1       CG331   -0.170000       12.0110           0
     29914 WT13     193      MECN     H11      HGA3     0.090000        1.0080           0
     29915 WT13     193      MECN     H12      HGA3     0.090000        1.0080           0
     29916 WT13     193      MECN     H13      HGA3     0.090000        1.0080           0
     29917 WT13     193      MECN     C2       CG1N1    0.360000       12.0110           0
     29918 WT13     193      MECN     N3       NG1T1   -0.460000       14.0070           0
     29919 WT13     194      MECN     C1       CG331   -0.170000       12.0110           0
     29920 WT13     194      MECN     H11      HGA3     0.090000        1.0080           0
     29921 WT13     194      MECN     H12      HGA3     0.090000        1.0080           0
     29922 WT13     194      MECN     H13      HGA3     0.090000        1.0080           0
     29923 WT13     194      MECN     C2       CG1N1    0.360000       12.0110           0
     29924 WT13     194      MECN     N3       NG1T1   -0.460000       14.0070           0
     29925 WT13     195      MECN     C1       CG331   -0.170000       12.0110           0
     29926 WT13     195      MECN     H11      HGA3     0.090000        1.0080           0
     29927 WT13     195      MECN     H12      HGA3     0.090000        1.0080           0
     29928 WT13     195      MECN     H13      HGA3     0.090000        1.0080           0
     29929 WT13     195      MECN     C2       CG1N1    0.360000       12.0110           0
     29930 WT13     195      MECN     N3       NG1T1   -0.460000       14.0070           0
     29931 WT13     198      MECN     C1       CG331   -0.170000       12.0110           0
     29932 WT13     198      MECN     H11      HGA3     0.090000        1.0080           0
     29933 WT13     198      MECN     H12      HGA3     0.090000        1.0080           0
     29934 WT13     198      MECN     H13      HGA3     0.090000        1.0080           0
     29935 WT13     198      MECN     C2       CG1N1    0.360000       12.0110           0
     29936 WT13     198      MECN     N3       NG1T1   -0.460000       14.0070           0
     29937 WT13     200      MECN     C1       CG331   -0.170000       12.0110           0
     29938 WT13     200      MECN     H11      HGA3     0.090000        1.0080           0
     29939 WT13     200      MECN     H12      HGA3     0.090000        1.0080           0
     29940 WT13     200      MECN     H13      HGA3     0.090000        1.0080           0
     29941 WT13     200      MECN     C2       CG1N1    0.360000       12.0110           0
     29942 WT13     200      MECN     N3       NG1T1   -0.460000       14.0070           0
     29943 WT13     201      MECN     C1       CG331   -0.170000       12.0110           0
     29944 WT13     201      MECN     H11      HGA3     0.090000        1.0080           0
     29945 WT13     201      MECN     H12      HGA3     0.090000        1.0080           0
     29946 WT13     201      MECN     H13      HGA3     0.090000        1.0080           0
     29947 WT13     201      MECN     C2       CG1N1    0.360000       12.0110           0
     29948 WT13     201      MECN     N3       NG1T1   -0.460000       14.0070           0
     29949 WT13     202      MECN     C1       CG331   -0.170000       12.0110           0
     29950 WT13     202      MECN     H11      HGA3     0.090000        1.0080           0
     29951 WT13     202      MECN     H12      HGA3     0.090000        1.0080           0
     29952 WT13     202      MECN     H13      HGA3     0.090000        1.0080           0
     29953 WT13     202      MECN     C2       CG1N1    0.360000       12.0110           0
     29954 WT13     202      MECN     N3       NG1T1   -0.460000       14.0070           0
     29955 WT13     204      MECN     C1       CG331   -0.170000       12.0110           0
     29956 WT13     204      MECN     H11      HGA3     0.090000        1.0080           0
     29957 WT13     204      MECN     H12      HGA3     0.090000        1.0080           0
     29958 WT13     204      MECN     H13      HGA3     0.090000        1.0080           0
     29959 WT13     204      MECN     C2       CG1N1    0.360000       12.0110           0
     29960 WT13     204      MECN     N3       NG1T1   -0.460000       14.0070           0
     29961 WT13     207      MECN     C1       CG331   -0.170000       12.0110           0
     29962 WT13     207      MECN     H11      HGA3     0.090000        1.0080           0
     29963 WT13     207      MECN     H12      HGA3     0.090000        1.0080           0
     29964 WT13     207      MECN     H13      HGA3     0.090000        1.0080           0
     29965 WT13     207      MECN     C2       CG1N1    0.360000       12.0110           0
     29966 WT13     207      MECN     N3       NG1T1   -0.460000       14.0070           0
     29967 WT13     208      MECN     C1       CG331   -0.170000       12.0110           0
     29968 WT13     208      MECN     H11      HGA3     0.090000        1.0080           0
     29969 WT13     208      MECN     H12      HGA3     0.090000        1.0080           0
     29970 WT13     208      MECN     H13      HGA3     0.090000        1.0080           0
     29971 WT13     208      MECN     C2       CG1N1    0.360000       12.0110           0
     29972 WT13     208      MECN     N3       NG1T1   -0.460000       14.0070           0
     29973 WT13     209      MECN     C1       CG331   -0.170000       12.0110           0
     29974 WT13     209      MECN     H11      HGA3     0.090000        1.0080           0
     29975 WT13     209      MECN     H12      HGA3     0.090000        1.0080           0
     29976 WT13     209      MECN     H13      HGA3     0.090000        1.0080           0
     29977 WT13     209      MECN     C2       CG1N1    0.360000       12.0110           0
     29978 WT13     209      MECN     N3       NG1T1   -0.460000       14.0070           0
     29979 WT13     210      MECN     C1       CG331   -0.170000       12.0110           0
     29980 WT13     210      MECN     H11      HGA3     0.090000        1.0080           0
     29981 WT13     210      MECN     H12      HGA3     0.090000        1.0080           0
     29982 WT13     210      MECN     H13      HGA3     0.090000        1.0080           0
     29983 WT13     210      MECN     C2       CG1N1    0.360000       12.0110           0
     29984 WT13     210      MECN     N3       NG1T1   -0.460000       14.0070           0
     29985 WT13     211      MECN     C1       CG331   -0.170000       12.0110           0
     29986 WT13     211      MECN     H11      HGA3     0.090000        1.0080           0
     29987 WT13     211      MECN     H12      HGA3     0.090000        1.0080           0
     29988 WT13     211      MECN     H13      HGA3     0.090000        1.0080           0
     29989 WT13     211      MECN     C2       CG1N1    0.360000       12.0110           0
     29990 WT13     211      MECN     N3       NG1T1   -0.460000       14.0070           0
     29991 WT13     215      MECN     C1       CG331   -0.170000       12.0110           0
     29992 WT13     215      MECN     H11      HGA3     0.090000        1.0080           0
     29993 WT13     215      MECN     H12      HGA3     0.090000        1.0080           0
     29994 WT13     215      MECN     H13      HGA3     0.090000        1.0080           0
     29995 WT13     215      MECN     C2       CG1N1    0.360000       12.0110           0
     29996 WT13     215      MECN     N3       NG1T1   -0.460000       14.0070           0
     29997 WT13     216      MECN     C1       CG331   -0.170000       12.0110           0
     29998 WT13     216      MECN     H11      HGA3     0.090000        1.0080           0
     29999 WT13     216      MECN     H12      HGA3     0.090000        1.0080           0
     30000 WT13     216      MECN     H13      HGA3     0.090000        1.0080           0
     30001 WT13     216      MECN     C2       CG1N1    0.360000       12.0110           0
     30002 WT13     216      MECN     N3       NG1T1   -0.460000       14.0070           0
     30003 WT13     219      MECN     C1       CG331   -0.170000       12.0110           0
     30004 WT13     219      MECN     H11      HGA3     0.090000        1.0080           0
     30005 WT13     219      MECN     H12      HGA3     0.090000        1.0080           0
     30006 WT13     219      MECN     H13      HGA3     0.090000        1.0080           0
     30007 WT13     219      MECN     C2       CG1N1    0.360000       12.0110           0
     30008 WT13     219      MECN     N3       NG1T1   -0.460000       14.0070           0
     30009 WT13     221      MECN     C1       CG331   -0.170000       12.0110           0
     30010 WT13     221      MECN     H11      HGA3     0.090000        1.0080           0
     30011 WT13     221      MECN     H12      HGA3     0.090000        1.0080           0
     30012 WT13     221      MECN     H13      HGA3     0.090000        1.0080           0
     30013 WT13     221      MECN     C2       CG1N1    0.360000       12.0110           0
     30014 WT13     221      MECN     N3       NG1T1   -0.460000       14.0070           0
     30015 WT13     225      MECN     C1       CG331   -0.170000       12.0110           0
     30016 WT13     225      MECN     H11      HGA3     0.090000        1.0080           0
     30017 WT13     225      MECN     H12      HGA3     0.090000        1.0080           0
     30018 WT13     225      MECN     H13      HGA3     0.090000        1.0080           0
     30019 WT13     225      MECN     C2       CG1N1    0.360000       12.0110           0
     30020 WT13     225      MECN     N3       NG1T1   -0.460000       14.0070           0
     30021 WT13     228      MECN     C1       CG331   -0.170000       12.0110           0
     30022 WT13     228      MECN     H11      HGA3     0.090000        1.0080           0
     30023 WT13     228      MECN     H12      HGA3     0.090000        1.0080           0
     30024 WT13     228      MECN     H13      HGA3     0.090000        1.0080           0
     30025 WT13     228      MECN     C2       CG1N1    0.360000       12.0110           0
     30026 WT13     228      MECN     N3       NG1T1   -0.460000       14.0070           0
     30027 WT13     230      MECN     C1       CG331   -0.170000       12.0110           0
     30028 WT13     230      MECN     H11      HGA3     0.090000        1.0080           0
     30029 WT13     230      MECN     H12      HGA3     0.090000        1.0080           0
     30030 WT13     230      MECN     H13      HGA3     0.090000        1.0080           0
     30031 WT13     230      MECN     C2       CG1N1    0.360000       12.0110           0
     30032 WT13     230      MECN     N3       NG1T1   -0.460000       14.0070           0
     30033 WT13     233      MECN     C1       CG331   -0.170000       12.0110           0
     30034 WT13     233      MECN     H11      HGA3     0.090000        1.0080           0
     30035 WT13     233      MECN     H12      HGA3     0.090000        1.0080           0
     30036 WT13     233      MECN     H13      HGA3     0.090000        1.0080           0
     30037 WT13     233      MECN     C2       CG1N1    0.360000       12.0110           0
     30038 WT13     233      MECN     N3       NG1T1   -0.460000       14.0070           0
     30039 WT13     241      MECN     C1       CG331   -0.170000       12.0110           0
     30040 WT13     241      MECN     H11      HGA3     0.090000        1.0080           0
     30041 WT13     241      MECN     H12      HGA3     0.090000        1.0080           0
     30042 WT13     241      MECN     H13      HGA3     0.090000        1.0080           0
     30043 WT13     241      MECN     C2       CG1N1    0.360000       12.0110           0
     30044 WT13     241      MECN     N3       NG1T1   -0.460000       14.0070           0
     30045 WT13     245      MECN     C1       CG331   -0.170000       12.0110           0
     30046 WT13     245      MECN     H11      HGA3     0.090000        1.0080           0
     30047 WT13     245      MECN     H12      HGA3     0.090000        1.0080           0
     30048 WT13     245      MECN     H13      HGA3     0.090000        1.0080           0
     30049 WT13     245      MECN     C2       CG1N1    0.360000       12.0110           0
     30050 WT13     245      MECN     N3       NG1T1   -0.460000       14.0070           0
     30051 WT13     246      MECN     C1       CG331   -0.170000       12.0110           0
     30052 WT13     246      MECN     H11      HGA3     0.090000        1.0080           0
     30053 WT13     246      MECN     H12      HGA3     0.090000        1.0080           0
     30054 WT13     246      MECN     H13      HGA3     0.090000        1.0080           0
     30055 WT13     246      MECN     C2       CG1N1    0.360000       12.0110           0
     30056 WT13     246      MECN     N3       NG1T1   -0.460000       14.0070           0
     30057 WT13     247      MECN     C1       CG331   -0.170000       12.0110           0
     30058 WT13     247      MECN     H11      HGA3     0.090000        1.0080           0
     30059 WT13     247      MECN     H12      HGA3     0.090000        1.0080           0
     30060 WT13     247      MECN     H13      HGA3     0.090000        1.0080           0
     30061 WT13     247      MECN     C2       CG1N1    0.360000       12.0110           0
     30062 WT13     247      MECN     N3       NG1T1   -0.460000       14.0070           0
     30063 WT13     248      MECN     C1       CG331   -0.170000       12.0110           0
     30064 WT13     248      MECN     H11      HGA3     0.090000        1.0080           0
     30065 WT13     248      MECN     H12      HGA3     0.090000        1.0080           0
     30066 WT13     248      MECN     H13      HGA3     0.090000        1.0080           0
     30067 WT13     248      MECN     C2       CG1N1    0.360000       12.0110           0
     30068 WT13     248      MECN     N3       NG1T1   -0.460000       14.0070           0
     30069 WT13     251      MECN     C1       CG331   -0.170000       12.0110           0
     30070 WT13     251      MECN     H11      HGA3     0.090000        1.0080           0
     30071 WT13     251      MECN     H12      HGA3     0.090000        1.0080           0
     30072 WT13     251      MECN     H13      HGA3     0.090000        1.0080           0
     30073 WT13     251      MECN     C2       CG1N1    0.360000       12.0110           0
     30074 WT13     251      MECN     N3       NG1T1   -0.460000       14.0070           0
     30075 WT13     253      MECN     C1       CG331   -0.170000       12.0110           0
     30076 WT13     253      MECN     H11      HGA3     0.090000        1.0080           0
     30077 WT13     253      MECN     H12      HGA3     0.090000        1.0080           0
     30078 WT13     253      MECN     H13      HGA3     0.090000        1.0080           0
     30079 WT13     253      MECN     C2       CG1N1    0.360000       12.0110           0
     30080 WT13     253      MECN     N3       NG1T1   -0.460000       14.0070           0
     30081 WT13     255      MECN     C1       CG331   -0.170000       12.0110           0
     30082 WT13     255      MECN     H11      HGA3     0.090000        1.0080           0
     30083 WT13     255      MECN     H12      HGA3     0.090000        1.0080           0
     30084 WT13     255      MECN     H13      HGA3     0.090000        1.0080           0
     30085 WT13     255      MECN     C2       CG1N1    0.360000       12.0110           0
     30086 WT13     255      MECN     N3       NG1T1   -0.460000       14.0070           0
     30087 WT13     256      MECN     C1       CG331   -0.170000       12.0110           0
     30088 WT13     256      MECN     H11      HGA3     0.090000        1.0080           0
     30089 WT13     256      MECN     H12      HGA3     0.090000        1.0080           0
     30090 WT13     256      MECN     H13      HGA3     0.090000        1.0080           0
     30091 WT13     256      MECN     C2       CG1N1    0.360000       12.0110           0
     30092 WT13     256      MECN     N3       NG1T1   -0.460000       14.0070           0
     30093 WT13     257      MECN     C1       CG331   -0.170000       12.0110           0
     30094 WT13     257      MECN     H11      HGA3     0.090000        1.0080           0
     30095 WT13     257      MECN     H12      HGA3     0.090000        1.0080           0
     30096 WT13     257      MECN     H13      HGA3     0.090000        1.0080           0
     30097 WT13     257      MECN     C2       CG1N1    0.360000       12.0110           0
     30098 WT13     257      MECN     N3       NG1T1   -0.460000       14.0070           0
     30099 WT13     259      MECN     C1       CG331   -0.170000       12.0110           0
     30100 WT13     259      MECN     H11      HGA3     0.090000        1.0080           0
     30101 WT13     259      MECN     H12      HGA3     0.090000        1.0080           0
     30102 WT13     259      MECN     H13      HGA3     0.090000        1.0080           0
     30103 WT13     259      MECN     C2       CG1N1    0.360000       12.0110           0
     30104 WT13     259      MECN     N3       NG1T1   -0.460000       14.0070           0
     30105 WT13     260      MECN     C1       CG331   -0.170000       12.0110           0
     30106 WT13     260      MECN     H11      HGA3     0.090000        1.0080           0
     30107 WT13     260      MECN     H12      HGA3     0.090000        1.0080           0
     30108 WT13     260      MECN     H13      HGA3     0.090000        1.0080           0
     30109 WT13     260      MECN     C2       CG1N1    0.360000       12.0110           0
     30110 WT13     260      MECN     N3       NG1T1   -0.460000       14.0070           0
     30111 WT13     262      MECN     C1       CG331   -0.170000       12.0110           0
     30112 WT13     262      MECN     H11      HGA3     0.090000        1.0080           0
     30113 WT13     262      MECN     H12      HGA3     0.090000        1.0080           0
     30114 WT13     262      MECN     H13      HGA3     0.090000        1.0080           0
     30115 WT13     262      MECN     C2       CG1N1    0.360000       12.0110           0
     30116 WT13     262      MECN     N3       NG1T1   -0.460000       14.0070           0
     30117 WT13     265      MECN     C1       CG331   -0.170000       12.0110           0
     30118 WT13     265      MECN     H11      HGA3     0.090000        1.0080           0
     30119 WT13     265      MECN     H12      HGA3     0.090000        1.0080           0
     30120 WT13     265      MECN     H13      HGA3     0.090000        1.0080           0
     30121 WT13     265      MECN     C2       CG1N1    0.360000       12.0110           0
     30122 WT13     265      MECN     N3       NG1T1   -0.460000       14.0070           0
     30123 WT13     266      MECN     C1       CG331   -0.170000       12.0110           0
     30124 WT13     266      MECN     H11      HGA3     0.090000        1.0080           0
     30125 WT13     266      MECN     H12      HGA3     0.090000        1.0080           0
     30126 WT13     266      MECN     H13      HGA3     0.090000        1.0080           0
     30127 WT13     266      MECN     C2       CG1N1    0.360000       12.0110           0
     30128 WT13     266      MECN     N3       NG1T1   -0.460000       14.0070           0
     30129 WT13     270      MECN     C1       CG331   -0.170000       12.0110           0
     30130 WT13     270      MECN     H11      HGA3     0.090000        1.0080           0
     30131 WT13     270      MECN     H12      HGA3     0.090000        1.0080           0
     30132 WT13     270      MECN     H13      HGA3     0.090000        1.0080           0
     30133 WT13     270      MECN     C2       CG1N1    0.360000       12.0110           0
     30134 WT13     270      MECN     N3       NG1T1   -0.460000       14.0070           0
     30135 WT13     271      MECN     C1       CG331   -0.170000       12.0110           0
     30136 WT13     271      MECN     H11      HGA3     0.090000        1.0080           0
     30137 WT13     271      MECN     H12      HGA3     0.090000        1.0080           0
     30138 WT13     271      MECN     H13      HGA3     0.090000        1.0080           0
     30139 WT13     271      MECN     C2       CG1N1    0.360000       12.0110           0
     30140 WT13     271      MECN     N3       NG1T1   -0.460000       14.0070           0
     30141 WT13     272      MECN     C1       CG331   -0.170000       12.0110           0
     30142 WT13     272      MECN     H11      HGA3     0.090000        1.0080           0
     30143 WT13     272      MECN     H12      HGA3     0.090000        1.0080           0
     30144 WT13     272      MECN     H13      HGA3     0.090000        1.0080           0
     30145 WT13     272      MECN     C2       CG1N1    0.360000       12.0110           0
     30146 WT13     272      MECN     N3       NG1T1   -0.460000       14.0070           0
     30147 WT13     273      MECN     C1       CG331   -0.170000       12.0110           0
     30148 WT13     273      MECN     H11      HGA3     0.090000        1.0080           0
     30149 WT13     273      MECN     H12      HGA3     0.090000        1.0080           0
     30150 WT13     273      MECN     H13      HGA3     0.090000        1.0080           0
     30151 WT13     273      MECN     C2       CG1N1    0.360000       12.0110           0
     30152 WT13     273      MECN     N3       NG1T1   -0.460000       14.0070           0
     30153 WT13     274      MECN     C1       CG331   -0.170000       12.0110           0
     30154 WT13     274      MECN     H11      HGA3     0.090000        1.0080           0
     30155 WT13     274      MECN     H12      HGA3     0.090000        1.0080           0
     30156 WT13     274      MECN     H13      HGA3     0.090000        1.0080           0
     30157 WT13     274      MECN     C2       CG1N1    0.360000       12.0110           0
     30158 WT13     274      MECN     N3       NG1T1   -0.460000       14.0070           0
     30159 WT13     275      MECN     C1       CG331   -0.170000       12.0110           0
     30160 WT13     275      MECN     H11      HGA3     0.090000        1.0080           0
     30161 WT13     275      MECN     H12      HGA3     0.090000        1.0080           0
     30162 WT13     275      MECN     H13      HGA3     0.090000        1.0080           0
     30163 WT13     275      MECN     C2       CG1N1    0.360000       12.0110           0
     30164 WT13     275      MECN     N3       NG1T1   -0.460000       14.0070           0
     30165 WT13     282      MECN     C1       CG331   -0.170000       12.0110           0
     30166 WT13     282      MECN     H11      HGA3     0.090000        1.0080           0
     30167 WT13     282      MECN     H12      HGA3     0.090000        1.0080           0
     30168 WT13     282      MECN     H13      HGA3     0.090000        1.0080           0
     30169 WT13     282      MECN     C2       CG1N1    0.360000       12.0110           0
     30170 WT13     282      MECN     N3       NG1T1   -0.460000       14.0070           0
     30171 WT13     285      MECN     C1       CG331   -0.170000       12.0110           0
     30172 WT13     285      MECN     H11      HGA3     0.090000        1.0080           0
     30173 WT13     285      MECN     H12      HGA3     0.090000        1.0080           0
     30174 WT13     285      MECN     H13      HGA3     0.090000        1.0080           0
     30175 WT13     285      MECN     C2       CG1N1    0.360000       12.0110           0
     30176 WT13     285      MECN     N3       NG1T1   -0.460000       14.0070           0
     30177 WT13     287      MECN     C1       CG331   -0.170000       12.0110           0
     30178 WT13     287      MECN     H11      HGA3     0.090000        1.0080           0
     30179 WT13     287      MECN     H12      HGA3     0.090000        1.0080           0
     30180 WT13     287      MECN     H13      HGA3     0.090000        1.0080           0
     30181 WT13     287      MECN     C2       CG1N1    0.360000       12.0110           0
     30182 WT13     287      MECN     N3       NG1T1   -0.460000       14.0070           0
     30183 WT13     289      MECN     C1       CG331   -0.170000       12.0110           0
     30184 WT13     289      MECN     H11      HGA3     0.090000        1.0080           0
     30185 WT13     289      MECN     H12      HGA3     0.090000        1.0080           0
     30186 WT13     289      MECN     H13      HGA3     0.090000        1.0080           0
     30187 WT13     289      MECN     C2       CG1N1    0.360000       12.0110           0
     30188 WT13     289      MECN     N3       NG1T1   -0.460000       14.0070           0
     30189 WT13     290      MECN     C1       CG331   -0.170000       12.0110           0
     30190 WT13     290      MECN     H11      HGA3     0.090000        1.0080           0
     30191 WT13     290      MECN     H12      HGA3     0.090000        1.0080           0
     30192 WT13     290      MECN     H13      HGA3     0.090000        1.0080           0
     30193 WT13     290      MECN     C2       CG1N1    0.360000       12.0110           0
     30194 WT13     290      MECN     N3       NG1T1   -0.460000       14.0070           0
     30195 WT13     292      MECN     C1       CG331   -0.170000       12.0110           0
     30196 WT13     292      MECN     H11      HGA3     0.090000        1.0080           0
     30197 WT13     292      MECN     H12      HGA3     0.090000        1.0080           0
     30198 WT13     292      MECN     H13      HGA3     0.090000        1.0080           0
     30199 WT13     292      MECN     C2       CG1N1    0.360000       12.0110           0
     30200 WT13     292      MECN     N3       NG1T1   -0.460000       14.0070           0
     30201 WT13     295      MECN     C1       CG331   -0.170000       12.0110           0
     30202 WT13     295      MECN     H11      HGA3     0.090000        1.0080           0
     30203 WT13     295      MECN     H12      HGA3     0.090000        1.0080           0
     30204 WT13     295      MECN     H13      HGA3     0.090000        1.0080           0
     30205 WT13     295      MECN     C2       CG1N1    0.360000       12.0110           0
     30206 WT13     295      MECN     N3       NG1T1   -0.460000       14.0070           0
     30207 WT13     296      MECN     C1       CG331   -0.170000       12.0110           0
     30208 WT13     296      MECN     H11      HGA3     0.090000        1.0080           0
     30209 WT13     296      MECN     H12      HGA3     0.090000        1.0080           0
     30210 WT13     296      MECN     H13      HGA3     0.090000        1.0080           0
     30211 WT13     296      MECN     C2       CG1N1    0.360000       12.0110           0
     30212 WT13     296      MECN     N3       NG1T1   -0.460000       14.0070           0
     30213 WT13     297      MECN     C1       CG331   -0.170000       12.0110           0
     30214 WT13     297      MECN     H11      HGA3     0.090000        1.0080           0
     30215 WT13     297      MECN     H12      HGA3     0.090000        1.0080           0
     30216 WT13     297      MECN     H13      HGA3     0.090000        1.0080           0
     30217 WT13     297      MECN     C2       CG1N1    0.360000       12.0110           0
     30218 WT13     297      MECN     N3       NG1T1   -0.460000       14.0070           0
     30219 WT13     298      MECN     C1       CG331   -0.170000       12.0110           0
     30220 WT13     298      MECN     H11      HGA3     0.090000        1.0080           0
     30221 WT13     298      MECN     H12      HGA3     0.090000        1.0080           0
     30222 WT13     298      MECN     H13      HGA3     0.090000        1.0080           0
     30223 WT13     298      MECN     C2       CG1N1    0.360000       12.0110           0
     30224 WT13     298      MECN     N3       NG1T1   -0.460000       14.0070           0
     30225 WT13     299      MECN     C1       CG331   -0.170000       12.0110           0
     30226 WT13     299      MECN     H11      HGA3     0.090000        1.0080           0
     30227 WT13     299      MECN     H12      HGA3     0.090000        1.0080           0
     30228 WT13     299      MECN     H13      HGA3     0.090000        1.0080           0
     30229 WT13     299      MECN     C2       CG1N1    0.360000       12.0110           0
     30230 WT13     299      MECN     N3       NG1T1   -0.460000       14.0070           0
     30231 WT13     300      MECN     C1       CG331   -0.170000       12.0110           0
     30232 WT13     300      MECN     H11      HGA3     0.090000        1.0080           0
     30233 WT13     300      MECN     H12      HGA3     0.090000        1.0080           0
     30234 WT13     300      MECN     H13      HGA3     0.090000        1.0080           0
     30235 WT13     300      MECN     C2       CG1N1    0.360000       12.0110           0
     30236 WT13     300      MECN     N3       NG1T1   -0.460000       14.0070           0
     30237 WT13     301      MECN     C1       CG331   -0.170000       12.0110           0
     30238 WT13     301      MECN     H11      HGA3     0.090000        1.0080           0
     30239 WT13     301      MECN     H12      HGA3     0.090000        1.0080           0
     30240 WT13     301      MECN     H13      HGA3     0.090000        1.0080           0
     30241 WT13     301      MECN     C2       CG1N1    0.360000       12.0110           0
     30242 WT13     301      MECN     N3       NG1T1   -0.460000       14.0070           0
     30243 WT13     302      MECN     C1       CG331   -0.170000       12.0110           0
     30244 WT13     302      MECN     H11      HGA3     0.090000        1.0080           0
     30245 WT13     302      MECN     H12      HGA3     0.090000        1.0080           0
     30246 WT13     302      MECN     H13      HGA3     0.090000        1.0080           0
     30247 WT13     302      MECN     C2       CG1N1    0.360000       12.0110           0
     30248 WT13     302      MECN     N3       NG1T1   -0.460000       14.0070           0
     30249 WT13     303      MECN     C1       CG331   -0.170000       12.0110           0
     30250 WT13     303      MECN     H11      HGA3     0.090000        1.0080           0
     30251 WT13     303      MECN     H12      HGA3     0.090000        1.0080           0
     30252 WT13     303      MECN     H13      HGA3     0.090000        1.0080           0
     30253 WT13     303      MECN     C2       CG1N1    0.360000       12.0110           0
     30254 WT13     303      MECN     N3       NG1T1   -0.460000       14.0070           0
     30255 WT13     304      MECN     C1       CG331   -0.170000       12.0110           0
     30256 WT13     304      MECN     H11      HGA3     0.090000        1.0080           0
     30257 WT13     304      MECN     H12      HGA3     0.090000        1.0080           0
     30258 WT13     304      MECN     H13      HGA3     0.090000        1.0080           0
     30259 WT13     304      MECN     C2       CG1N1    0.360000       12.0110           0
     30260 WT13     304      MECN     N3       NG1T1   -0.460000       14.0070           0
     30261 WT13     308      MECN     C1       CG331   -0.170000       12.0110           0
     30262 WT13     308      MECN     H11      HGA3     0.090000        1.0080           0
     30263 WT13     308      MECN     H12      HGA3     0.090000        1.0080           0
     30264 WT13     308      MECN     H13      HGA3     0.090000        1.0080           0
     30265 WT13     308      MECN     C2       CG1N1    0.360000       12.0110           0
     30266 WT13     308      MECN     N3       NG1T1   -0.460000       14.0070           0
     30267 WT13     310      MECN     C1       CG331   -0.170000       12.0110           0
     30268 WT13     310      MECN     H11      HGA3     0.090000        1.0080           0
     30269 WT13     310      MECN     H12      HGA3     0.090000        1.0080           0
     30270 WT13     310      MECN     H13      HGA3     0.090000        1.0080           0
     30271 WT13     310      MECN     C2       CG1N1    0.360000       12.0110           0
     30272 WT13     310      MECN     N3       NG1T1   -0.460000       14.0070           0
     30273 WT13     311      MECN     C1       CG331   -0.170000       12.0110           0
     30274 WT13     311      MECN     H11      HGA3     0.090000        1.0080           0
     30275 WT13     311      MECN     H12      HGA3     0.090000        1.0080           0
     30276 WT13     311      MECN     H13      HGA3     0.090000        1.0080           0
     30277 WT13     311      MECN     C2       CG1N1    0.360000       12.0110           0
     30278 WT13     311      MECN     N3       NG1T1   -0.460000       14.0070           0
     30279 WT13     312      MECN     C1       CG331   -0.170000       12.0110           0
     30280 WT13     312      MECN     H11      HGA3     0.090000        1.0080           0
     30281 WT13     312      MECN     H12      HGA3     0.090000        1.0080           0
     30282 WT13     312      MECN     H13      HGA3     0.090000        1.0080           0
     30283 WT13     312      MECN     C2       CG1N1    0.360000       12.0110           0
     30284 WT13     312      MECN     N3       NG1T1   -0.460000       14.0070           0
     30285 WT13     313      MECN     C1       CG331   -0.170000       12.0110           0
     30286 WT13     313      MECN     H11      HGA3     0.090000        1.0080           0
     30287 WT13     313      MECN     H12      HGA3     0.090000        1.0080           0
     30288 WT13     313      MECN     H13      HGA3     0.090000        1.0080           0
     30289 WT13     313      MECN     C2       CG1N1    0.360000       12.0110           0
     30290 WT13     313      MECN     N3       NG1T1   -0.460000       14.0070           0
     30291 WT13     315      MECN     C1       CG331   -0.170000       12.0110           0
     30292 WT13     315      MECN     H11      HGA3     0.090000        1.0080           0
     30293 WT13     315      MECN     H12      HGA3     0.090000        1.0080           0
     30294 WT13     315      MECN     H13      HGA3     0.090000        1.0080           0
     30295 WT13     315      MECN     C2       CG1N1    0.360000       12.0110           0
     30296 WT13     315      MECN     N3       NG1T1   -0.460000       14.0070           0
     30297 WT13     317      MECN     C1       CG331   -0.170000       12.0110           0
     30298 WT13     317      MECN     H11      HGA3     0.090000        1.0080           0
     30299 WT13     317      MECN     H12      HGA3     0.090000        1.0080           0
     30300 WT13     317      MECN     H13      HGA3     0.090000        1.0080           0
     30301 WT13     317      MECN     C2       CG1N1    0.360000       12.0110           0
     30302 WT13     317      MECN     N3       NG1T1   -0.460000       14.0070           0
     30303 WT13     322      MECN     C1       CG331   -0.170000       12.0110           0
     30304 WT13     322      MECN     H11      HGA3     0.090000        1.0080           0
     30305 WT13     322      MECN     H12      HGA3     0.090000        1.0080           0
     30306 WT13     322      MECN     H13      HGA3     0.090000        1.0080           0
     30307 WT13     322      MECN     C2       CG1N1    0.360000       12.0110           0
     30308 WT13     322      MECN     N3       NG1T1   -0.460000       14.0070           0
     30309 WT13     323      MECN     C1       CG331   -0.170000       12.0110           0
     30310 WT13     323      MECN     H11      HGA3     0.090000        1.0080           0
     30311 WT13     323      MECN     H12      HGA3     0.090000        1.0080           0
     30312 WT13     323      MECN     H13      HGA3     0.090000        1.0080           0
     30313 WT13     323      MECN     C2       CG1N1    0.360000       12.0110           0
     30314 WT13     323      MECN     N3       NG1T1   -0.460000       14.0070           0
     30315 WT13     325      MECN     C1       CG331   -0.170000       12.0110           0
     30316 WT13     325      MECN     H11      HGA3     0.090000        1.0080           0
     30317 WT13     325      MECN     H12      HGA3     0.090000        1.0080           0
     30318 WT13     325      MECN     H13      HGA3     0.090000        1.0080           0
     30319 WT13     325      MECN     C2       CG1N1    0.360000       12.0110           0
     30320 WT13     325      MECN     N3       NG1T1   -0.460000       14.0070           0
     30321 WT13     326      MECN     C1       CG331   -0.170000       12.0110           0
     30322 WT13     326      MECN     H11      HGA3     0.090000        1.0080           0
     30323 WT13     326      MECN     H12      HGA3     0.090000        1.0080           0
     30324 WT13     326      MECN     H13      HGA3     0.090000        1.0080           0
     30325 WT13     326      MECN     C2       CG1N1    0.360000       12.0110           0
     30326 WT13     326      MECN     N3       NG1T1   -0.460000       14.0070           0
     30327 WT13     327      MECN     C1       CG331   -0.170000       12.0110           0
     30328 WT13     327      MECN     H11      HGA3     0.090000        1.0080           0
     30329 WT13     327      MECN     H12      HGA3     0.090000        1.0080           0
     30330 WT13     327      MECN     H13      HGA3     0.090000        1.0080           0
     30331 WT13     327      MECN     C2       CG1N1    0.360000       12.0110           0
     30332 WT13     327      MECN     N3       NG1T1   -0.460000       14.0070           0
     30333 WT13     328      MECN     C1       CG331   -0.170000       12.0110           0
     30334 WT13     328      MECN     H11      HGA3     0.090000        1.0080           0
     30335 WT13     328      MECN     H12      HGA3     0.090000        1.0080           0
     30336 WT13     328      MECN     H13      HGA3     0.090000        1.0080           0
     30337 WT13     328      MECN     C2       CG1N1    0.360000       12.0110           0
     30338 WT13     328      MECN     N3       NG1T1   -0.460000       14.0070           0
     30339 WT13     332      MECN     C1       CG331   -0.170000       12.0110           0
     30340 WT13     332      MECN     H11      HGA3     0.090000        1.0080           0
     30341 WT13     332      MECN     H12      HGA3     0.090000        1.0080           0
     30342 WT13     332      MECN     H13      HGA3     0.090000        1.0080           0
     30343 WT13     332      MECN     C2       CG1N1    0.360000       12.0110           0
     30344 WT13     332      MECN     N3       NG1T1   -0.460000       14.0070           0
     30345 WT13     333      MECN     C1       CG331   -0.170000       12.0110           0
     30346 WT13     333      MECN     H11      HGA3     0.090000        1.0080           0
     30347 WT13     333      MECN     H12      HGA3     0.090000        1.0080           0
     30348 WT13     333      MECN     H13      HGA3     0.090000        1.0080           0
     30349 WT13     333      MECN     C2       CG1N1    0.360000       12.0110           0
     30350 WT13     333      MECN     N3       NG1T1   -0.460000       14.0070           0
     30351 WT13     335      MECN     C1       CG331   -0.170000       12.0110           0
     30352 WT13     335      MECN     H11      HGA3     0.090000        1.0080           0
     30353 WT13     335      MECN     H12      HGA3     0.090000        1.0080           0
     30354 WT13     335      MECN     H13      HGA3     0.090000        1.0080           0
     30355 WT13     335      MECN     C2       CG1N1    0.360000       12.0110           0
     30356 WT13     335      MECN     N3       NG1T1   -0.460000       14.0070           0
     30357 WT13     336      MECN     C1       CG331   -0.170000       12.0110           0
     30358 WT13     336      MECN     H11      HGA3     0.090000        1.0080           0
     30359 WT13     336      MECN     H12      HGA3     0.090000        1.0080           0
     30360 WT13     336      MECN     H13      HGA3     0.090000        1.0080           0
     30361 WT13     336      MECN     C2       CG1N1    0.360000       12.0110           0
     30362 WT13     336      MECN     N3       NG1T1   -0.460000       14.0070           0
     30363 WT13     338      MECN     C1       CG331   -0.170000       12.0110           0
     30364 WT13     338      MECN     H11      HGA3     0.090000        1.0080           0
     30365 WT13     338      MECN     H12      HGA3     0.090000        1.0080           0
     30366 WT13     338      MECN     H13      HGA3     0.090000        1.0080           0
     30367 WT13     338      MECN     C2       CG1N1    0.360000       12.0110           0
     30368 WT13     338      MECN     N3       NG1T1   -0.460000       14.0070           0
     30369 WT13     339      MECN     C1       CG331   -0.170000       12.0110           0
     30370 WT13     339      MECN     H11      HGA3     0.090000        1.0080           0
     30371 WT13     339      MECN     H12      HGA3     0.090000        1.0080           0
     30372 WT13     339      MECN     H13      HGA3     0.090000        1.0080           0
     30373 WT13     339      MECN     C2       CG1N1    0.360000       12.0110           0
     30374 WT13     339      MECN     N3       NG1T1   -0.460000       14.0070           0
     30375 WT13     340      MECN     C1       CG331   -0.170000       12.0110           0
     30376 WT13     340      MECN     H11      HGA3     0.090000        1.0080           0
     30377 WT13     340      MECN     H12      HGA3     0.090000        1.0080           0
     30378 WT13     340      MECN     H13      HGA3     0.090000        1.0080           0
     30379 WT13     340      MECN     C2       CG1N1    0.360000       12.0110           0
     30380 WT13     340      MECN     N3       NG1T1   -0.460000       14.0070           0
     30381 WT13     341      MECN     C1       CG331   -0.170000       12.0110           0
     30382 WT13     341      MECN     H11      HGA3     0.090000        1.0080           0
     30383 WT13     341      MECN     H12      HGA3     0.090000        1.0080           0
     30384 WT13     341      MECN     H13      HGA3     0.090000        1.0080           0
     30385 WT13     341      MECN     C2       CG1N1    0.360000       12.0110           0
     30386 WT13     341      MECN     N3       NG1T1   -0.460000       14.0070           0
     30387 WT13     342      MECN     C1       CG331   -0.170000       12.0110           0
     30388 WT13     342      MECN     H11      HGA3     0.090000        1.0080           0
     30389 WT13     342      MECN     H12      HGA3     0.090000        1.0080           0
     30390 WT13     342      MECN     H13      HGA3     0.090000        1.0080           0
     30391 WT13     342      MECN     C2       CG1N1    0.360000       12.0110           0
     30392 WT13     342      MECN     N3       NG1T1   -0.460000       14.0070           0
     30393 WT13     343      MECN     C1       CG331   -0.170000       12.0110           0
     30394 WT13     343      MECN     H11      HGA3     0.090000        1.0080           0
     30395 WT13     343      MECN     H12      HGA3     0.090000        1.0080           0
     30396 WT13     343      MECN     H13      HGA3     0.090000        1.0080           0
     30397 WT13     343      MECN     C2       CG1N1    0.360000       12.0110           0
     30398 WT13     343      MECN     N3       NG1T1   -0.460000       14.0070           0
     30399 WT13     344      MECN     C1       CG331   -0.170000       12.0110           0
     30400 WT13     344      MECN     H11      HGA3     0.090000        1.0080           0
     30401 WT13     344      MECN     H12      HGA3     0.090000        1.0080           0
     30402 WT13     344      MECN     H13      HGA3     0.090000        1.0080           0
     30403 WT13     344      MECN     C2       CG1N1    0.360000       12.0110           0
     30404 WT13     344      MECN     N3       NG1T1   -0.460000       14.0070           0
     30405 WT13     346      MECN     C1       CG331   -0.170000       12.0110           0
     30406 WT13     346      MECN     H11      HGA3     0.090000        1.0080           0
     30407 WT13     346      MECN     H12      HGA3     0.090000        1.0080           0
     30408 WT13     346      MECN     H13      HGA3     0.090000        1.0080           0
     30409 WT13     346      MECN     C2       CG1N1    0.360000       12.0110           0
     30410 WT13     346      MECN     N3       NG1T1   -0.460000       14.0070           0
     30411 WT13     348      MECN     C1       CG331   -0.170000       12.0110           0
     30412 WT13     348      MECN     H11      HGA3     0.090000        1.0080           0
     30413 WT13     348      MECN     H12      HGA3     0.090000        1.0080           0
     30414 WT13     348      MECN     H13      HGA3     0.090000        1.0080           0
     30415 WT13     348      MECN     C2       CG1N1    0.360000       12.0110           0
     30416 WT13     348      MECN     N3       NG1T1   -0.460000       14.0070           0
     30417 WT13     349      MECN     C1       CG331   -0.170000       12.0110           0
     30418 WT13     349      MECN     H11      HGA3     0.090000        1.0080           0
     30419 WT13     349      MECN     H12      HGA3     0.090000        1.0080           0
     30420 WT13     349      MECN     H13      HGA3     0.090000        1.0080           0
     30421 WT13     349      MECN     C2       CG1N1    0.360000       12.0110           0
     30422 WT13     349      MECN     N3       NG1T1   -0.460000       14.0070           0
     30423 WT13     356      MECN     C1       CG331   -0.170000       12.0110           0
     30424 WT13     356      MECN     H11      HGA3     0.090000        1.0080           0
     30425 WT13     356      MECN     H12      HGA3     0.090000        1.0080           0
     30426 WT13     356      MECN     H13      HGA3     0.090000        1.0080           0
     30427 WT13     356      MECN     C2       CG1N1    0.360000       12.0110           0
     30428 WT13     356      MECN     N3       NG1T1   -0.460000       14.0070           0
     30429 WT13     360      MECN     C1       CG331   -0.170000       12.0110           0
     30430 WT13     360      MECN     H11      HGA3     0.090000        1.0080           0
     30431 WT13     360      MECN     H12      HGA3     0.090000        1.0080           0
     30432 WT13     360      MECN     H13      HGA3     0.090000        1.0080           0
     30433 WT13     360      MECN     C2       CG1N1    0.360000       12.0110           0
     30434 WT13     360      MECN     N3       NG1T1   -0.460000       14.0070           0
     30435 WT13     366      MECN     C1       CG331   -0.170000       12.0110           0
     30436 WT13     366      MECN     H11      HGA3     0.090000        1.0080           0
     30437 WT13     366      MECN     H12      HGA3     0.090000        1.0080           0
     30438 WT13     366      MECN     H13      HGA3     0.090000        1.0080           0
     30439 WT13     366      MECN     C2       CG1N1    0.360000       12.0110           0
     30440 WT13     366      MECN     N3       NG1T1   -0.460000       14.0070           0
     30441 WT13     367      MECN     C1       CG331   -0.170000       12.0110           0
     30442 WT13     367      MECN     H11      HGA3     0.090000        1.0080           0
     30443 WT13     367      MECN     H12      HGA3     0.090000        1.0080           0
     30444 WT13     367      MECN     H13      HGA3     0.090000        1.0080           0
     30445 WT13     367      MECN     C2       CG1N1    0.360000       12.0110           0
     30446 WT13     367      MECN     N3       NG1T1   -0.460000       14.0070           0
     30447 WT13     369      MECN     C1       CG331   -0.170000       12.0110           0
     30448 WT13     369      MECN     H11      HGA3     0.090000        1.0080           0
     30449 WT13     369      MECN     H12      HGA3     0.090000        1.0080           0
     30450 WT13     369      MECN     H13      HGA3     0.090000        1.0080           0
     30451 WT13     369      MECN     C2       CG1N1    0.360000       12.0110           0
     30452 WT13     369      MECN     N3       NG1T1   -0.460000       14.0070           0
     30453 WT13     371      MECN     C1       CG331   -0.170000       12.0110           0
     30454 WT13     371      MECN     H11      HGA3     0.090000        1.0080           0
     30455 WT13     371      MECN     H12      HGA3     0.090000        1.0080           0
     30456 WT13     371      MECN     H13      HGA3     0.090000        1.0080           0
     30457 WT13     371      MECN     C2       CG1N1    0.360000       12.0110           0
     30458 WT13     371      MECN     N3       NG1T1   -0.460000       14.0070           0
     30459 WT13     374      MECN     C1       CG331   -0.170000       12.0110           0
     30460 WT13     374      MECN     H11      HGA3     0.090000        1.0080           0
     30461 WT13     374      MECN     H12      HGA3     0.090000        1.0080           0
     30462 WT13     374      MECN     H13      HGA3     0.090000        1.0080           0
     30463 WT13     374      MECN     C2       CG1N1    0.360000       12.0110           0
     30464 WT13     374      MECN     N3       NG1T1   -0.460000       14.0070           0
     30465 WT13     376      MECN     C1       CG331   -0.170000       12.0110           0
     30466 WT13     376      MECN     H11      HGA3     0.090000        1.0080           0
     30467 WT13     376      MECN     H12      HGA3     0.090000        1.0080           0
     30468 WT13     376      MECN     H13      HGA3     0.090000        1.0080           0
     30469 WT13     376      MECN     C2       CG1N1    0.360000       12.0110           0
     30470 WT13     376      MECN     N3       NG1T1   -0.460000       14.0070           0
     30471 WT13     378      MECN     C1       CG331   -0.170000       12.0110           0
     30472 WT13     378      MECN     H11      HGA3     0.090000        1.0080           0
     30473 WT13     378      MECN     H12      HGA3     0.090000        1.0080           0
     30474 WT13     378      MECN     H13      HGA3     0.090000        1.0080           0
     30475 WT13     378      MECN     C2       CG1N1    0.360000       12.0110           0
     30476 WT13     378      MECN     N3       NG1T1   -0.460000       14.0070           0
     30477 WT13     381      MECN     C1       CG331   -0.170000       12.0110           0
     30478 WT13     381      MECN     H11      HGA3     0.090000        1.0080           0
     30479 WT13     381      MECN     H12      HGA3     0.090000        1.0080           0
     30480 WT13     381      MECN     H13      HGA3     0.090000        1.0080           0
     30481 WT13     381      MECN     C2       CG1N1    0.360000       12.0110           0
     30482 WT13     381      MECN     N3       NG1T1   -0.460000       14.0070           0
     30483 WT13     383      MECN     C1       CG331   -0.170000       12.0110           0
     30484 WT13     383      MECN     H11      HGA3     0.090000        1.0080           0
     30485 WT13     383      MECN     H12      HGA3     0.090000        1.0080           0
     30486 WT13     383      MECN     H13      HGA3     0.090000        1.0080           0
     30487 WT13     383      MECN     C2       CG1N1    0.360000       12.0110           0
     30488 WT13     383      MECN     N3       NG1T1   -0.460000       14.0070           0
     30489 WT13     384      MECN     C1       CG331   -0.170000       12.0110           0
     30490 WT13     384      MECN     H11      HGA3     0.090000        1.0080           0
     30491 WT13     384      MECN     H12      HGA3     0.090000        1.0080           0
     30492 WT13     384      MECN     H13      HGA3     0.090000        1.0080           0
     30493 WT13     384      MECN     C2       CG1N1    0.360000       12.0110           0
     30494 WT13     384      MECN     N3       NG1T1   -0.460000       14.0070           0
     30495 WT13     386      MECN     C1       CG331   -0.170000       12.0110           0
     30496 WT13     386      MECN     H11      HGA3     0.090000        1.0080           0
     30497 WT13     386      MECN     H12      HGA3     0.090000        1.0080           0
     30498 WT13     386      MECN     H13      HGA3     0.090000        1.0080           0
     30499 WT13     386      MECN     C2       CG1N1    0.360000       12.0110           0
     30500 WT13     386      MECN     N3       NG1T1   -0.460000       14.0070           0
     30501 WT13     388      MECN     C1       CG331   -0.170000       12.0110           0
     30502 WT13     388      MECN     H11      HGA3     0.090000        1.0080           0
     30503 WT13     388      MECN     H12      HGA3     0.090000        1.0080           0
     30504 WT13     388      MECN     H13      HGA3     0.090000        1.0080           0
     30505 WT13     388      MECN     C2       CG1N1    0.360000       12.0110           0
     30506 WT13     388      MECN     N3       NG1T1   -0.460000       14.0070           0
     30507 WT13     391      MECN     C1       CG331   -0.170000       12.0110           0
     30508 WT13     391      MECN     H11      HGA3     0.090000        1.0080           0
     30509 WT13     391      MECN     H12      HGA3     0.090000        1.0080           0
     30510 WT13     391      MECN     H13      HGA3     0.090000        1.0080           0
     30511 WT13     391      MECN     C2       CG1N1    0.360000       12.0110           0
     30512 WT13     391      MECN     N3       NG1T1   -0.460000       14.0070           0
     30513 WT13     392      MECN     C1       CG331   -0.170000       12.0110           0
     30514 WT13     392      MECN     H11      HGA3     0.090000        1.0080           0
     30515 WT13     392      MECN     H12      HGA3     0.090000        1.0080           0
     30516 WT13     392      MECN     H13      HGA3     0.090000        1.0080           0
     30517 WT13     392      MECN     C2       CG1N1    0.360000       12.0110           0
     30518 WT13     392      MECN     N3       NG1T1   -0.460000       14.0070           0
     30519 WT13     395      MECN     C1       CG331   -0.170000       12.0110           0
     30520 WT13     395      MECN     H11      HGA3     0.090000        1.0080           0
     30521 WT13     395      MECN     H12      HGA3     0.090000        1.0080           0
     30522 WT13     395      MECN     H13      HGA3     0.090000        1.0080           0
     30523 WT13     395      MECN     C2       CG1N1    0.360000       12.0110           0
     30524 WT13     395      MECN     N3       NG1T1   -0.460000       14.0070           0
     30525 WT13     400      MECN     C1       CG331   -0.170000       12.0110           0
     30526 WT13     400      MECN     H11      HGA3     0.090000        1.0080           0
     30527 WT13     400      MECN     H12      HGA3     0.090000        1.0080           0
     30528 WT13     400      MECN     H13      HGA3     0.090000        1.0080           0
     30529 WT13     400      MECN     C2       CG1N1    0.360000       12.0110           0
     30530 WT13     400      MECN     N3       NG1T1   -0.460000       14.0070           0
     30531 WT13     401      MECN     C1       CG331   -0.170000       12.0110           0
     30532 WT13     401      MECN     H11      HGA3     0.090000        1.0080           0
     30533 WT13     401      MECN     H12      HGA3     0.090000        1.0080           0
     30534 WT13     401      MECN     H13      HGA3     0.090000        1.0080           0
     30535 WT13     401      MECN     C2       CG1N1    0.360000       12.0110           0
     30536 WT13     401      MECN     N3       NG1T1   -0.460000       14.0070           0
     30537 WT13     402      MECN     C1       CG331   -0.170000       12.0110           0
     30538 WT13     402      MECN     H11      HGA3     0.090000        1.0080           0
     30539 WT13     402      MECN     H12      HGA3     0.090000        1.0080           0
     30540 WT13     402      MECN     H13      HGA3     0.090000        1.0080           0
     30541 WT13     402      MECN     C2       CG1N1    0.360000       12.0110           0
     30542 WT13     402      MECN     N3       NG1T1   -0.460000       14.0070           0
     30543 WT13     403      MECN     C1       CG331   -0.170000       12.0110           0
     30544 WT13     403      MECN     H11      HGA3     0.090000        1.0080           0
     30545 WT13     403      MECN     H12      HGA3     0.090000        1.0080           0
     30546 WT13     403      MECN     H13      HGA3     0.090000        1.0080           0
     30547 WT13     403      MECN     C2       CG1N1    0.360000       12.0110           0
     30548 WT13     403      MECN     N3       NG1T1   -0.460000       14.0070           0
     30549 WT13     404      MECN     C1       CG331   -0.170000       12.0110           0
     30550 WT13     404      MECN     H11      HGA3     0.090000        1.0080           0
     30551 WT13     404      MECN     H12      HGA3     0.090000        1.0080           0
     30552 WT13     404      MECN     H13      HGA3     0.090000        1.0080           0
     30553 WT13     404      MECN     C2       CG1N1    0.360000       12.0110           0
     30554 WT13     404      MECN     N3       NG1T1   -0.460000       14.0070           0
     30555 WT13     406      MECN     C1       CG331   -0.170000       12.0110           0
     30556 WT13     406      MECN     H11      HGA3     0.090000        1.0080           0
     30557 WT13     406      MECN     H12      HGA3     0.090000        1.0080           0
     30558 WT13     406      MECN     H13      HGA3     0.090000        1.0080           0
     30559 WT13     406      MECN     C2       CG1N1    0.360000       12.0110           0
     30560 WT13     406      MECN     N3       NG1T1   -0.460000       14.0070           0
     30561 WT13     407      MECN     C1       CG331   -0.170000       12.0110           0
     30562 WT13     407      MECN     H11      HGA3     0.090000        1.0080           0
     30563 WT13     407      MECN     H12      HGA3     0.090000        1.0080           0
     30564 WT13     407      MECN     H13      HGA3     0.090000        1.0080           0
     30565 WT13     407      MECN     C2       CG1N1    0.360000       12.0110           0
     30566 WT13     407      MECN     N3       NG1T1   -0.460000       14.0070           0
     30567 WT13     408      MECN     C1       CG331   -0.170000       12.0110           0
     30568 WT13     408      MECN     H11      HGA3     0.090000        1.0080           0
     30569 WT13     408      MECN     H12      HGA3     0.090000        1.0080           0
     30570 WT13     408      MECN     H13      HGA3     0.090000        1.0080           0
     30571 WT13     408      MECN     C2       CG1N1    0.360000       12.0110           0
     30572 WT13     408      MECN     N3       NG1T1   -0.460000       14.0070           0
     30573 WT13     412      MECN     C1       CG331   -0.170000       12.0110           0
     30574 WT13     412      MECN     H11      HGA3     0.090000        1.0080           0
     30575 WT13     412      MECN     H12      HGA3     0.090000        1.0080           0
     30576 WT13     412      MECN     H13      HGA3     0.090000        1.0080           0
     30577 WT13     412      MECN     C2       CG1N1    0.360000       12.0110           0
     30578 WT13     412      MECN     N3       NG1T1   -0.460000       14.0070           0
     30579 WT13     414      MECN     C1       CG331   -0.170000       12.0110           0
     30580 WT13     414      MECN     H11      HGA3     0.090000        1.0080           0
     30581 WT13     414      MECN     H12      HGA3     0.090000        1.0080           0
     30582 WT13     414      MECN     H13      HGA3     0.090000        1.0080           0
     30583 WT13     414      MECN     C2       CG1N1    0.360000       12.0110           0
     30584 WT13     414      MECN     N3       NG1T1   -0.460000       14.0070           0
     30585 WT13     415      MECN     C1       CG331   -0.170000       12.0110           0
     30586 WT13     415      MECN     H11      HGA3     0.090000        1.0080           0
     30587 WT13     415      MECN     H12      HGA3     0.090000        1.0080           0
     30588 WT13     415      MECN     H13      HGA3     0.090000        1.0080           0
     30589 WT13     415      MECN     C2       CG1N1    0.360000       12.0110           0
     30590 WT13     415      MECN     N3       NG1T1   -0.460000       14.0070           0
     30591 WT13     416      MECN     C1       CG331   -0.170000       12.0110           0
     30592 WT13     416      MECN     H11      HGA3     0.090000        1.0080           0
     30593 WT13     416      MECN     H12      HGA3     0.090000        1.0080           0
     30594 WT13     416      MECN     H13      HGA3     0.090000        1.0080           0
     30595 WT13     416      MECN     C2       CG1N1    0.360000       12.0110           0
     30596 WT13     416      MECN     N3       NG1T1   -0.460000       14.0070           0
     30597 WT13     421      MECN     C1       CG331   -0.170000       12.0110           0
     30598 WT13     421      MECN     H11      HGA3     0.090000        1.0080           0
     30599 WT13     421      MECN     H12      HGA3     0.090000        1.0080           0
     30600 WT13     421      MECN     H13      HGA3     0.090000        1.0080           0
     30601 WT13     421      MECN     C2       CG1N1    0.360000       12.0110           0
     30602 WT13     421      MECN     N3       NG1T1   -0.460000       14.0070           0
     30603 WT13     423      MECN     C1       CG331   -0.170000       12.0110           0
     30604 WT13     423      MECN     H11      HGA3     0.090000        1.0080           0
     30605 WT13     423      MECN     H12      HGA3     0.090000        1.0080           0
     30606 WT13     423      MECN     H13      HGA3     0.090000        1.0080           0
     30607 WT13     423      MECN     C2       CG1N1    0.360000       12.0110           0
     30608 WT13     423      MECN     N3       NG1T1   -0.460000       14.0070           0
     30609 WT13     430      MECN     C1       CG331   -0.170000       12.0110           0
     30610 WT13     430      MECN     H11      HGA3     0.090000        1.0080           0
     30611 WT13     430      MECN     H12      HGA3     0.090000        1.0080           0
     30612 WT13     430      MECN     H13      HGA3     0.090000        1.0080           0
     30613 WT13     430      MECN     C2       CG1N1    0.360000       12.0110           0
     30614 WT13     430      MECN     N3       NG1T1   -0.460000       14.0070           0
     30615 WT13     432      MECN     C1       CG331   -0.170000       12.0110           0
     30616 WT13     432      MECN     H11      HGA3     0.090000        1.0080           0
     30617 WT13     432      MECN     H12      HGA3     0.090000        1.0080           0
     30618 WT13     432      MECN     H13      HGA3     0.090000        1.0080           0
     30619 WT13     432      MECN     C2       CG1N1    0.360000       12.0110           0
     30620 WT13     432      MECN     N3       NG1T1   -0.460000       14.0070           0
     30621 WT13     433      MECN     C1       CG331   -0.170000       12.0110           0
     30622 WT13     433      MECN     H11      HGA3     0.090000        1.0080           0
     30623 WT13     433      MECN     H12      HGA3     0.090000        1.0080           0
     30624 WT13     433      MECN     H13      HGA3     0.090000        1.0080           0
     30625 WT13     433      MECN     C2       CG1N1    0.360000       12.0110           0
     30626 WT13     433      MECN     N3       NG1T1   -0.460000       14.0070           0
     30627 WT13     436      MECN     C1       CG331   -0.170000       12.0110           0
     30628 WT13     436      MECN     H11      HGA3     0.090000        1.0080           0
     30629 WT13     436      MECN     H12      HGA3     0.090000        1.0080           0
     30630 WT13     436      MECN     H13      HGA3     0.090000        1.0080           0
     30631 WT13     436      MECN     C2       CG1N1    0.360000       12.0110           0
     30632 WT13     436      MECN     N3       NG1T1   -0.460000       14.0070           0
     30633 WT13     437      MECN     C1       CG331   -0.170000       12.0110           0
     30634 WT13     437      MECN     H11      HGA3     0.090000        1.0080           0
     30635 WT13     437      MECN     H12      HGA3     0.090000        1.0080           0
     30636 WT13     437      MECN     H13      HGA3     0.090000        1.0080           0
     30637 WT13     437      MECN     C2       CG1N1    0.360000       12.0110           0
     30638 WT13     437      MECN     N3       NG1T1   -0.460000       14.0070           0
     30639 WT13     438      MECN     C1       CG331   -0.170000       12.0110           0
     30640 WT13     438      MECN     H11      HGA3     0.090000        1.0080           0
     30641 WT13     438      MECN     H12      HGA3     0.090000        1.0080           0
     30642 WT13     438      MECN     H13      HGA3     0.090000        1.0080           0
     30643 WT13     438      MECN     C2       CG1N1    0.360000       12.0110           0
     30644 WT13     438      MECN     N3       NG1T1   -0.460000       14.0070           0
     30645 WT13     439      MECN     C1       CG331   -0.170000       12.0110           0
     30646 WT13     439      MECN     H11      HGA3     0.090000        1.0080           0
     30647 WT13     439      MECN     H12      HGA3     0.090000        1.0080           0
     30648 WT13     439      MECN     H13      HGA3     0.090000        1.0080           0
     30649 WT13     439      MECN     C2       CG1N1    0.360000       12.0110           0
     30650 WT13     439      MECN     N3       NG1T1   -0.460000       14.0070           0
     30651 WT13     440      MECN     C1       CG331   -0.170000       12.0110           0
     30652 WT13     440      MECN     H11      HGA3     0.090000        1.0080           0
     30653 WT13     440      MECN     H12      HGA3     0.090000        1.0080           0
     30654 WT13     440      MECN     H13      HGA3     0.090000        1.0080           0
     30655 WT13     440      MECN     C2       CG1N1    0.360000       12.0110           0
     30656 WT13     440      MECN     N3       NG1T1   -0.460000       14.0070           0
     30657 WT13     442      MECN     C1       CG331   -0.170000       12.0110           0
     30658 WT13     442      MECN     H11      HGA3     0.090000        1.0080           0
     30659 WT13     442      MECN     H12      HGA3     0.090000        1.0080           0
     30660 WT13     442      MECN     H13      HGA3     0.090000        1.0080           0
     30661 WT13     442      MECN     C2       CG1N1    0.360000       12.0110           0
     30662 WT13     442      MECN     N3       NG1T1   -0.460000       14.0070           0
     30663 WT13     443      MECN     C1       CG331   -0.170000       12.0110           0
     30664 WT13     443      MECN     H11      HGA3     0.090000        1.0080           0
     30665 WT13     443      MECN     H12      HGA3     0.090000        1.0080           0
     30666 WT13     443      MECN     H13      HGA3     0.090000        1.0080           0
     30667 WT13     443      MECN     C2       CG1N1    0.360000       12.0110           0
     30668 WT13     443      MECN     N3       NG1T1   -0.460000       14.0070           0
     30669 WT13     444      MECN     C1       CG331   -0.170000       12.0110           0
     30670 WT13     444      MECN     H11      HGA3     0.090000        1.0080           0
     30671 WT13     444      MECN     H12      HGA3     0.090000        1.0080           0
     30672 WT13     444      MECN     H13      HGA3     0.090000        1.0080           0
     30673 WT13     444      MECN     C2       CG1N1    0.360000       12.0110           0
     30674 WT13     444      MECN     N3       NG1T1   -0.460000       14.0070           0
     30675 WT13     446      MECN     C1       CG331   -0.170000       12.0110           0
     30676 WT13     446      MECN     H11      HGA3     0.090000        1.0080           0
     30677 WT13     446      MECN     H12      HGA3     0.090000        1.0080           0
     30678 WT13     446      MECN     H13      HGA3     0.090000        1.0080           0
     30679 WT13     446      MECN     C2       CG1N1    0.360000       12.0110           0
     30680 WT13     446      MECN     N3       NG1T1   -0.460000       14.0070           0
     30681 WT13     449      MECN     C1       CG331   -0.170000       12.0110           0
     30682 WT13     449      MECN     H11      HGA3     0.090000        1.0080           0
     30683 WT13     449      MECN     H12      HGA3     0.090000        1.0080           0
     30684 WT13     449      MECN     H13      HGA3     0.090000        1.0080           0
     30685 WT13     449      MECN     C2       CG1N1    0.360000       12.0110           0
     30686 WT13     449      MECN     N3       NG1T1   -0.460000       14.0070           0
     30687 WT13     451      MECN     C1       CG331   -0.170000       12.0110           0
     30688 WT13     451      MECN     H11      HGA3     0.090000        1.0080           0
     30689 WT13     451      MECN     H12      HGA3     0.090000        1.0080           0
     30690 WT13     451      MECN     H13      HGA3     0.090000        1.0080           0
     30691 WT13     451      MECN     C2       CG1N1    0.360000       12.0110           0
     30692 WT13     451      MECN     N3       NG1T1   -0.460000       14.0070           0
     30693 WT13     452      MECN     C1       CG331   -0.170000       12.0110           0
     30694 WT13     452      MECN     H11      HGA3     0.090000        1.0080           0
     30695 WT13     452      MECN     H12      HGA3     0.090000        1.0080           0
     30696 WT13     452      MECN     H13      HGA3     0.090000        1.0080           0
     30697 WT13     452      MECN     C2       CG1N1    0.360000       12.0110           0
     30698 WT13     452      MECN     N3       NG1T1   -0.460000       14.0070           0
     30699 WT13     453      MECN     C1       CG331   -0.170000       12.0110           0
     30700 WT13     453      MECN     H11      HGA3     0.090000        1.0080           0
     30701 WT13     453      MECN     H12      HGA3     0.090000        1.0080           0
     30702 WT13     453      MECN     H13      HGA3     0.090000        1.0080           0
     30703 WT13     453      MECN     C2       CG1N1    0.360000       12.0110           0
     30704 WT13     453      MECN     N3       NG1T1   -0.460000       14.0070           0
     30705 WT13     454      MECN     C1       CG331   -0.170000       12.0110           0
     30706 WT13     454      MECN     H11      HGA3     0.090000        1.0080           0
     30707 WT13     454      MECN     H12      HGA3     0.090000        1.0080           0
     30708 WT13     454      MECN     H13      HGA3     0.090000        1.0080           0
     30709 WT13     454      MECN     C2       CG1N1    0.360000       12.0110           0
     30710 WT13     454      MECN     N3       NG1T1   -0.460000       14.0070           0
     30711 WT13     456      MECN     C1       CG331   -0.170000       12.0110           0
     30712 WT13     456      MECN     H11      HGA3     0.090000        1.0080           0
     30713 WT13     456      MECN     H12      HGA3     0.090000        1.0080           0
     30714 WT13     456      MECN     H13      HGA3     0.090000        1.0080           0
     30715 WT13     456      MECN     C2       CG1N1    0.360000       12.0110           0
     30716 WT13     456      MECN     N3       NG1T1   -0.460000       14.0070           0
     30717 WT13     458      MECN     C1       CG331   -0.170000       12.0110           0
     30718 WT13     458      MECN     H11      HGA3     0.090000        1.0080           0
     30719 WT13     458      MECN     H12      HGA3     0.090000        1.0080           0
     30720 WT13     458      MECN     H13      HGA3     0.090000        1.0080           0
     30721 WT13     458      MECN     C2       CG1N1    0.360000       12.0110           0
     30722 WT13     458      MECN     N3       NG1T1   -0.460000       14.0070           0
     30723 WT13     464      MECN     C1       CG331   -0.170000       12.0110           0
     30724 WT13     464      MECN     H11      HGA3     0.090000        1.0080           0
     30725 WT13     464      MECN     H12      HGA3     0.090000        1.0080           0
     30726 WT13     464      MECN     H13      HGA3     0.090000        1.0080           0
     30727 WT13     464      MECN     C2       CG1N1    0.360000       12.0110           0
     30728 WT13     464      MECN     N3       NG1T1   -0.460000       14.0070           0
     30729 WT13     465      MECN     C1       CG331   -0.170000       12.0110           0
     30730 WT13     465      MECN     H11      HGA3     0.090000        1.0080           0
     30731 WT13     465      MECN     H12      HGA3     0.090000        1.0080           0
     30732 WT13     465      MECN     H13      HGA3     0.090000        1.0080           0
     30733 WT13     465      MECN     C2       CG1N1    0.360000       12.0110           0
     30734 WT13     465      MECN     N3       NG1T1   -0.460000       14.0070           0
     30735 WT13     467      MECN     C1       CG331   -0.170000       12.0110           0
     30736 WT13     467      MECN     H11      HGA3     0.090000        1.0080           0
     30737 WT13     467      MECN     H12      HGA3     0.090000        1.0080           0
     30738 WT13     467      MECN     H13      HGA3     0.090000        1.0080           0
     30739 WT13     467      MECN     C2       CG1N1    0.360000       12.0110           0
     30740 WT13     467      MECN     N3       NG1T1   -0.460000       14.0070           0
     30741 WT13     469      MECN     C1       CG331   -0.170000       12.0110           0
     30742 WT13     469      MECN     H11      HGA3     0.090000        1.0080           0
     30743 WT13     469      MECN     H12      HGA3     0.090000        1.0080           0
     30744 WT13     469      MECN     H13      HGA3     0.090000        1.0080           0
     30745 WT13     469      MECN     C2       CG1N1    0.360000       12.0110           0
     30746 WT13     469      MECN     N3       NG1T1   -0.460000       14.0070           0
     30747 WT13     471      MECN     C1       CG331   -0.170000       12.0110           0
     30748 WT13     471      MECN     H11      HGA3     0.090000        1.0080           0
     30749 WT13     471      MECN     H12      HGA3     0.090000        1.0080           0
     30750 WT13     471      MECN     H13      HGA3     0.090000        1.0080           0
     30751 WT13     471      MECN     C2       CG1N1    0.360000       12.0110           0
     30752 WT13     471      MECN     N3       NG1T1   -0.460000       14.0070           0
     30753 WT13     472      MECN     C1       CG331   -0.170000       12.0110           0
     30754 WT13     472      MECN     H11      HGA3     0.090000        1.0080           0
     30755 WT13     472      MECN     H12      HGA3     0.090000        1.0080           0
     30756 WT13     472      MECN     H13      HGA3     0.090000        1.0080           0
     30757 WT13     472      MECN     C2       CG1N1    0.360000       12.0110           0
     30758 WT13     472      MECN     N3       NG1T1   -0.460000       14.0070           0
     30759 WT13     477      MECN     C1       CG331   -0.170000       12.0110           0
     30760 WT13     477      MECN     H11      HGA3     0.090000        1.0080           0
     30761 WT13     477      MECN     H12      HGA3     0.090000        1.0080           0
     30762 WT13     477      MECN     H13      HGA3     0.090000        1.0080           0
     30763 WT13     477      MECN     C2       CG1N1    0.360000       12.0110           0
     30764 WT13     477      MECN     N3       NG1T1   -0.460000       14.0070           0
     30765 WT13     478      MECN     C1       CG331   -0.170000       12.0110           0
     30766 WT13     478      MECN     H11      HGA3     0.090000        1.0080           0
     30767 WT13     478      MECN     H12      HGA3     0.090000        1.0080           0
     30768 WT13     478      MECN     H13      HGA3     0.090000        1.0080           0
     30769 WT13     478      MECN     C2       CG1N1    0.360000       12.0110           0
     30770 WT13     478      MECN     N3       NG1T1   -0.460000       14.0070           0
     30771 WT13     479      MECN     C1       CG331   -0.170000       12.0110           0
     30772 WT13     479      MECN     H11      HGA3     0.090000        1.0080           0
     30773 WT13     479      MECN     H12      HGA3     0.090000        1.0080           0
     30774 WT13     479      MECN     H13      HGA3     0.090000        1.0080           0
     30775 WT13     479      MECN     C2       CG1N1    0.360000       12.0110           0
     30776 WT13     479      MECN     N3       NG1T1   -0.460000       14.0070           0
     30777 WT13     480      MECN     C1       CG331   -0.170000       12.0110           0
     30778 WT13     480      MECN     H11      HGA3     0.090000        1.0080           0
     30779 WT13     480      MECN     H12      HGA3     0.090000        1.0080           0
     30780 WT13     480      MECN     H13      HGA3     0.090000        1.0080           0
     30781 WT13     480      MECN     C2       CG1N1    0.360000       12.0110           0
     30782 WT13     480      MECN     N3       NG1T1   -0.460000       14.0070           0
     30783 WT13     481      MECN     C1       CG331   -0.170000       12.0110           0
     30784 WT13     481      MECN     H11      HGA3     0.090000        1.0080           0
     30785 WT13     481      MECN     H12      HGA3     0.090000        1.0080           0
     30786 WT13     481      MECN     H13      HGA3     0.090000        1.0080           0
     30787 WT13     481      MECN     C2       CG1N1    0.360000       12.0110           0
     30788 WT13     481      MECN     N3       NG1T1   -0.460000       14.0070           0
     30789 WT13     484      MECN     C1       CG331   -0.170000       12.0110           0
     30790 WT13     484      MECN     H11      HGA3     0.090000        1.0080           0
     30791 WT13     484      MECN     H12      HGA3     0.090000        1.0080           0
     30792 WT13     484      MECN     H13      HGA3     0.090000        1.0080           0
     30793 WT13     484      MECN     C2       CG1N1    0.360000       12.0110           0
     30794 WT13     484      MECN     N3       NG1T1   -0.460000       14.0070           0
     30795 WT13     485      MECN     C1       CG331   -0.170000       12.0110           0
     30796 WT13     485      MECN     H11      HGA3     0.090000        1.0080           0
     30797 WT13     485      MECN     H12      HGA3     0.090000        1.0080           0
     30798 WT13     485      MECN     H13      HGA3     0.090000        1.0080           0
     30799 WT13     485      MECN     C2       CG1N1    0.360000       12.0110           0
     30800 WT13     485      MECN     N3       NG1T1   -0.460000       14.0070           0
     30801 WT13     492      MECN     C1       CG331   -0.170000       12.0110           0
     30802 WT13     492      MECN     H11      HGA3     0.090000        1.0080           0
     30803 WT13     492      MECN     H12      HGA3     0.090000        1.0080           0
     30804 WT13     492      MECN     H13      HGA3     0.090000        1.0080           0
     30805 WT13     492      MECN     C2       CG1N1    0.360000       12.0110           0
     30806 WT13     492      MECN     N3       NG1T1   -0.460000       14.0070           0
     30807 WT13     494      MECN     C1       CG331   -0.170000       12.0110           0
     30808 WT13     494      MECN     H11      HGA3     0.090000        1.0080           0
     30809 WT13     494      MECN     H12      HGA3     0.090000        1.0080           0
     30810 WT13     494      MECN     H13      HGA3     0.090000        1.0080           0
     30811 WT13     494      MECN     C2       CG1N1    0.360000       12.0110           0
     30812 WT13     494      MECN     N3       NG1T1   -0.460000       14.0070           0
     30813 WT13     495      MECN     C1       CG331   -0.170000       12.0110           0
     30814 WT13     495      MECN     H11      HGA3     0.090000        1.0080           0
     30815 WT13     495      MECN     H12      HGA3     0.090000        1.0080           0
     30816 WT13     495      MECN     H13      HGA3     0.090000        1.0080           0
     30817 WT13     495      MECN     C2       CG1N1    0.360000       12.0110           0
     30818 WT13     495      MECN     N3       NG1T1   -0.460000       14.0070           0
     30819 WT13     497      MECN     C1       CG331   -0.170000       12.0110           0
     30820 WT13     497      MECN     H11      HGA3     0.090000        1.0080           0
     30821 WT13     497      MECN     H12      HGA3     0.090000        1.0080           0
     30822 WT13     497      MECN     H13      HGA3     0.090000        1.0080           0
     30823 WT13     497      MECN     C2       CG1N1    0.360000       12.0110           0
     30824 WT13     497      MECN     N3       NG1T1   -0.460000       14.0070           0
     30825 WT13     508      MECN     C1       CG331   -0.170000       12.0110           0
     30826 WT13     508      MECN     H11      HGA3     0.090000        1.0080           0
     30827 WT13     508      MECN     H12      HGA3     0.090000        1.0080           0
     30828 WT13     508      MECN     H13      HGA3     0.090000        1.0080           0
     30829 WT13     508      MECN     C2       CG1N1    0.360000       12.0110           0
     30830 WT13     508      MECN     N3       NG1T1   -0.460000       14.0070           0
     30831 WT13     511      MECN     C1       CG331   -0.170000       12.0110           0
     30832 WT13     511      MECN     H11      HGA3     0.090000        1.0080           0
     30833 WT13     511      MECN     H12      HGA3     0.090000        1.0080           0
     30834 WT13     511      MECN     H13      HGA3     0.090000        1.0080           0
     30835 WT13     511      MECN     C2       CG1N1    0.360000       12.0110           0
     30836 WT13     511      MECN     N3       NG1T1   -0.460000       14.0070           0
     30837 WT13     512      MECN     C1       CG331   -0.170000       12.0110           0
     30838 WT13     512      MECN     H11      HGA3     0.090000        1.0080           0
     30839 WT13     512      MECN     H12      HGA3     0.090000        1.0080           0
     30840 WT13     512      MECN     H13      HGA3     0.090000        1.0080           0
     30841 WT13     512      MECN     C2       CG1N1    0.360000       12.0110           0
     30842 WT13     512      MECN     N3       NG1T1   -0.460000       14.0070           0
     30843 WT13     517      MECN     C1       CG331   -0.170000       12.0110           0
     30844 WT13     517      MECN     H11      HGA3     0.090000        1.0080           0
     30845 WT13     517      MECN     H12      HGA3     0.090000        1.0080           0
     30846 WT13     517      MECN     H13      HGA3     0.090000        1.0080           0
     30847 WT13     517      MECN     C2       CG1N1    0.360000       12.0110           0
     30848 WT13     517      MECN     N3       NG1T1   -0.460000       14.0070           0
     30849 WT13     518      MECN     C1       CG331   -0.170000       12.0110           0
     30850 WT13     518      MECN     H11      HGA3     0.090000        1.0080           0
     30851 WT13     518      MECN     H12      HGA3     0.090000        1.0080           0
     30852 WT13     518      MECN     H13      HGA3     0.090000        1.0080           0
     30853 WT13     518      MECN     C2       CG1N1    0.360000       12.0110           0
     30854 WT13     518      MECN     N3       NG1T1   -0.460000       14.0070           0
     30855 WT13     519      MECN     C1       CG331   -0.170000       12.0110           0
     30856 WT13     519      MECN     H11      HGA3     0.090000        1.0080           0
     30857 WT13     519      MECN     H12      HGA3     0.090000        1.0080           0
     30858 WT13     519      MECN     H13      HGA3     0.090000        1.0080           0
     30859 WT13     519      MECN     C2       CG1N1    0.360000       12.0110           0
     30860 WT13     519      MECN     N3       NG1T1   -0.460000       14.0070           0
     30861 WT13     520      MECN     C1       CG331   -0.170000       12.0110           0
     30862 WT13     520      MECN     H11      HGA3     0.090000        1.0080           0
     30863 WT13     520      MECN     H12      HGA3     0.090000        1.0080           0
     30864 WT13     520      MECN     H13      HGA3     0.090000        1.0080           0
     30865 WT13     520      MECN     C2       CG1N1    0.360000       12.0110           0
     30866 WT13     520      MECN     N3       NG1T1   -0.460000       14.0070           0
     30867 WT13     525      MECN     C1       CG331   -0.170000       12.0110           0
     30868 WT13     525      MECN     H11      HGA3     0.090000        1.0080           0
     30869 WT13     525      MECN     H12      HGA3     0.090000        1.0080           0
     30870 WT13     525      MECN     H13      HGA3     0.090000        1.0080           0
     30871 WT13     525      MECN     C2       CG1N1    0.360000       12.0110           0
     30872 WT13     525      MECN     N3       NG1T1   -0.460000       14.0070           0
     30873 WT13     526      MECN     C1       CG331   -0.170000       12.0110           0
     30874 WT13     526      MECN     H11      HGA3     0.090000        1.0080           0
     30875 WT13     526      MECN     H12      HGA3     0.090000        1.0080           0
     30876 WT13     526      MECN     H13      HGA3     0.090000        1.0080           0
     30877 WT13     526      MECN     C2       CG1N1    0.360000       12.0110           0
     30878 WT13     526      MECN     N3       NG1T1   -0.460000       14.0070           0
     30879 WT13     527      MECN     C1       CG331   -0.170000       12.0110           0
     30880 WT13     527      MECN     H11      HGA3     0.090000        1.0080           0
     30881 WT13     527      MECN     H12      HGA3     0.090000        1.0080           0
     30882 WT13     527      MECN     H13      HGA3     0.090000        1.0080           0
     30883 WT13     527      MECN     C2       CG1N1    0.360000       12.0110           0
     30884 WT13     527      MECN     N3       NG1T1   -0.460000       14.0070           0
     30885 WT13     528      MECN     C1       CG331   -0.170000       12.0110           0
     30886 WT13     528      MECN     H11      HGA3     0.090000        1.0080           0
     30887 WT13     528      MECN     H12      HGA3     0.090000        1.0080           0
     30888 WT13     528      MECN     H13      HGA3     0.090000        1.0080           0
     30889 WT13     528      MECN     C2       CG1N1    0.360000       12.0110           0
     30890 WT13     528      MECN     N3       NG1T1   -0.460000       14.0070           0
     30891 WT13     531      MECN     C1       CG331   -0.170000       12.0110           0
     30892 WT13     531      MECN     H11      HGA3     0.090000        1.0080           0
     30893 WT13     531      MECN     H12      HGA3     0.090000        1.0080           0
     30894 WT13     531      MECN     H13      HGA3     0.090000        1.0080           0
     30895 WT13     531      MECN     C2       CG1N1    0.360000       12.0110           0
     30896 WT13     531      MECN     N3       NG1T1   -0.460000       14.0070           0
     30897 WT13     535      MECN     C1       CG331   -0.170000       12.0110           0
     30898 WT13     535      MECN     H11      HGA3     0.090000        1.0080           0
     30899 WT13     535      MECN     H12      HGA3     0.090000        1.0080           0
     30900 WT13     535      MECN     H13      HGA3     0.090000        1.0080           0
     30901 WT13     535      MECN     C2       CG1N1    0.360000       12.0110           0
     30902 WT13     535      MECN     N3       NG1T1   -0.460000       14.0070           0
     30903 WT13     541      MECN     C1       CG331   -0.170000       12.0110           0
     30904 WT13     541      MECN     H11      HGA3     0.090000        1.0080           0
     30905 WT13     541      MECN     H12      HGA3     0.090000        1.0080           0
     30906 WT13     541      MECN     H13      HGA3     0.090000        1.0080           0
     30907 WT13     541      MECN     C2       CG1N1    0.360000       12.0110           0
     30908 WT13     541      MECN     N3       NG1T1   -0.460000       14.0070           0
     30909 WT13     542      MECN     C1       CG331   -0.170000       12.0110           0
     30910 WT13     542      MECN     H11      HGA3     0.090000        1.0080           0
     30911 WT13     542      MECN     H12      HGA3     0.090000        1.0080           0
     30912 WT13     542      MECN     H13      HGA3     0.090000        1.0080           0
     30913 WT13     542      MECN     C2       CG1N1    0.360000       12.0110           0
     30914 WT13     542      MECN     N3       NG1T1   -0.460000       14.0070           0
     30915 WT13     543      MECN     C1       CG331   -0.170000       12.0110           0
     30916 WT13     543      MECN     H11      HGA3     0.090000        1.0080           0
     30917 WT13     543      MECN     H12      HGA3     0.090000        1.0080           0
     30918 WT13     543      MECN     H13      HGA3     0.090000        1.0080           0
     30919 WT13     543      MECN     C2       CG1N1    0.360000       12.0110           0
     30920 WT13     543      MECN     N3       NG1T1   -0.460000       14.0070           0
     30921 WT13     544      MECN     C1       CG331   -0.170000       12.0110           0
     30922 WT13     544      MECN     H11      HGA3     0.090000        1.0080           0
     30923 WT13     544      MECN     H12      HGA3     0.090000        1.0080           0
     30924 WT13     544      MECN     H13      HGA3     0.090000        1.0080           0
     30925 WT13     544      MECN     C2       CG1N1    0.360000       12.0110           0
     30926 WT13     544      MECN     N3       NG1T1   -0.460000       14.0070           0
     30927 WT13     546      MECN     C1       CG331   -0.170000       12.0110           0
     30928 WT13     546      MECN     H11      HGA3     0.090000        1.0080           0
     30929 WT13     546      MECN     H12      HGA3     0.090000        1.0080           0
     30930 WT13     546      MECN     H13      HGA3     0.090000        1.0080           0
     30931 WT13     546      MECN     C2       CG1N1    0.360000       12.0110           0
     30932 WT13     546      MECN     N3       NG1T1   -0.460000       14.0070           0
     30933 WT13     553      MECN     C1       CG331   -0.170000       12.0110           0
     30934 WT13     553      MECN     H11      HGA3     0.090000        1.0080           0
     30935 WT13     553      MECN     H12      HGA3     0.090000        1.0080           0
     30936 WT13     553      MECN     H13      HGA3     0.090000        1.0080           0
     30937 WT13     553      MECN     C2       CG1N1    0.360000       12.0110           0
     30938 WT13     553      MECN     N3       NG1T1   -0.460000       14.0070           0
     30939 WT13     554      MECN     C1       CG331   -0.170000       12.0110           0
     30940 WT13     554      MECN     H11      HGA3     0.090000        1.0080           0
     30941 WT13     554      MECN     H12      HGA3     0.090000        1.0080           0
     30942 WT13     554      MECN     H13      HGA3     0.090000        1.0080           0
     30943 WT13     554      MECN     C2       CG1N1    0.360000       12.0110           0
     30944 WT13     554      MECN     N3       NG1T1   -0.460000       14.0070           0
     30945 WT13     555      MECN     C1       CG331   -0.170000       12.0110           0
     30946 WT13     555      MECN     H11      HGA3     0.090000        1.0080           0
     30947 WT13     555      MECN     H12      HGA3     0.090000        1.0080           0
     30948 WT13     555      MECN     H13      HGA3     0.090000        1.0080           0
     30949 WT13     555      MECN     C2       CG1N1    0.360000       12.0110           0
     30950 WT13     555      MECN     N3       NG1T1   -0.460000       14.0070           0
     30951 WT13     556      MECN     C1       CG331   -0.170000       12.0110           0
     30952 WT13     556      MECN     H11      HGA3     0.090000        1.0080           0
     30953 WT13     556      MECN     H12      HGA3     0.090000        1.0080           0
     30954 WT13     556      MECN     H13      HGA3     0.090000        1.0080           0
     30955 WT13     556      MECN     C2       CG1N1    0.360000       12.0110           0
     30956 WT13     556      MECN     N3       NG1T1   -0.460000       14.0070           0
     30957 WT13     558      MECN     C1       CG331   -0.170000       12.0110           0
     30958 WT13     558      MECN     H11      HGA3     0.090000        1.0080           0
     30959 WT13     558      MECN     H12      HGA3     0.090000        1.0080           0
     30960 WT13     558      MECN     H13      HGA3     0.090000        1.0080           0
     30961 WT13     558      MECN     C2       CG1N1    0.360000       12.0110           0
     30962 WT13     558      MECN     N3       NG1T1   -0.460000       14.0070           0
     30963 WT13     559      MECN     C1       CG331   -0.170000       12.0110           0
     30964 WT13     559      MECN     H11      HGA3     0.090000        1.0080           0
     30965 WT13     559      MECN     H12      HGA3     0.090000        1.0080           0
     30966 WT13     559      MECN     H13      HGA3     0.090000        1.0080           0
     30967 WT13     559      MECN     C2       CG1N1    0.360000       12.0110           0
     30968 WT13     559      MECN     N3       NG1T1   -0.460000       14.0070           0
     30969 WT13     560      MECN     C1       CG331   -0.170000       12.0110           0
     30970 WT13     560      MECN     H11      HGA3     0.090000        1.0080           0
     30971 WT13     560      MECN     H12      HGA3     0.090000        1.0080           0
     30972 WT13     560      MECN     H13      HGA3     0.090000        1.0080           0
     30973 WT13     560      MECN     C2       CG1N1    0.360000       12.0110           0
     30974 WT13     560      MECN     N3       NG1T1   -0.460000       14.0070           0
     30975 WT13     562      MECN     C1       CG331   -0.170000       12.0110           0
     30976 WT13     562      MECN     H11      HGA3     0.090000        1.0080           0
     30977 WT13     562      MECN     H12      HGA3     0.090000        1.0080           0
     30978 WT13     562      MECN     H13      HGA3     0.090000        1.0080           0
     30979 WT13     562      MECN     C2       CG1N1    0.360000       12.0110           0
     30980 WT13     562      MECN     N3       NG1T1   -0.460000       14.0070           0
     30981 WT13     566      MECN     C1       CG331   -0.170000       12.0110           0
     30982 WT13     566      MECN     H11      HGA3     0.090000        1.0080           0
     30983 WT13     566      MECN     H12      HGA3     0.090000        1.0080           0
     30984 WT13     566      MECN     H13      HGA3     0.090000        1.0080           0
     30985 WT13     566      MECN     C2       CG1N1    0.360000       12.0110           0
     30986 WT13     566      MECN     N3       NG1T1   -0.460000       14.0070           0
     30987 WT13     569      MECN     C1       CG331   -0.170000       12.0110           0
     30988 WT13     569      MECN     H11      HGA3     0.090000        1.0080           0
     30989 WT13     569      MECN     H12      HGA3     0.090000        1.0080           0
     30990 WT13     569      MECN     H13      HGA3     0.090000        1.0080           0
     30991 WT13     569      MECN     C2       CG1N1    0.360000       12.0110           0
     30992 WT13     569      MECN     N3       NG1T1   -0.460000       14.0070           0
     30993 WT13     578      MECN     C1       CG331   -0.170000       12.0110           0
     30994 WT13     578      MECN     H11      HGA3     0.090000        1.0080           0
     30995 WT13     578      MECN     H12      HGA3     0.090000        1.0080           0
     30996 WT13     578      MECN     H13      HGA3     0.090000        1.0080           0
     30997 WT13     578      MECN     C2       CG1N1    0.360000       12.0110           0
     30998 WT13     578      MECN     N3       NG1T1   -0.460000       14.0070           0
     30999 WT13     579      MECN     C1       CG331   -0.170000       12.0110           0
     31000 WT13     579      MECN     H11      HGA3     0.090000        1.0080           0
     31001 WT13     579      MECN     H12      HGA3     0.090000        1.0080           0
     31002 WT13     579      MECN     H13      HGA3     0.090000        1.0080           0
     31003 WT13     579      MECN     C2       CG1N1    0.360000       12.0110           0
     31004 WT13     579      MECN     N3       NG1T1   -0.460000       14.0070           0
     31005 WT13     580      MECN     C1       CG331   -0.170000       12.0110           0
     31006 WT13     580      MECN     H11      HGA3     0.090000        1.0080           0
     31007 WT13     580      MECN     H12      HGA3     0.090000        1.0080           0
     31008 WT13     580      MECN     H13      HGA3     0.090000        1.0080           0
     31009 WT13     580      MECN     C2       CG1N1    0.360000       12.0110           0
     31010 WT13     580      MECN     N3       NG1T1   -0.460000       14.0070           0
     31011 WT13     584      MECN     C1       CG331   -0.170000       12.0110           0
     31012 WT13     584      MECN     H11      HGA3     0.090000        1.0080           0
     31013 WT13     584      MECN     H12      HGA3     0.090000        1.0080           0
     31014 WT13     584      MECN     H13      HGA3     0.090000        1.0080           0
     31015 WT13     584      MECN     C2       CG1N1    0.360000       12.0110           0
     31016 WT13     584      MECN     N3       NG1T1   -0.460000       14.0070           0
     31017 WT13     585      MECN     C1       CG331   -0.170000       12.0110           0
     31018 WT13     585      MECN     H11      HGA3     0.090000        1.0080           0
     31019 WT13     585      MECN     H12      HGA3     0.090000        1.0080           0
     31020 WT13     585      MECN     H13      HGA3     0.090000        1.0080           0
     31021 WT13     585      MECN     C2       CG1N1    0.360000       12.0110           0
     31022 WT13     585      MECN     N3       NG1T1   -0.460000       14.0070           0
     31023 WT13     586      MECN     C1       CG331   -0.170000       12.0110           0
     31024 WT13     586      MECN     H11      HGA3     0.090000        1.0080           0
     31025 WT13     586      MECN     H12      HGA3     0.090000        1.0080           0
     31026 WT13     586      MECN     H13      HGA3     0.090000        1.0080           0
     31027 WT13     586      MECN     C2       CG1N1    0.360000       12.0110           0
     31028 WT13     586      MECN     N3       NG1T1   -0.460000       14.0070           0
     31029 WT13     587      MECN     C1       CG331   -0.170000       12.0110           0
     31030 WT13     587      MECN     H11      HGA3     0.090000        1.0080           0
     31031 WT13     587      MECN     H12      HGA3     0.090000        1.0080           0
     31032 WT13     587      MECN     H13      HGA3     0.090000        1.0080           0
     31033 WT13     587      MECN     C2       CG1N1    0.360000       12.0110           0
     31034 WT13     587      MECN     N3       NG1T1   -0.460000       14.0070           0
     31035 WT13     588      MECN     C1       CG331   -0.170000       12.0110           0
     31036 WT13     588      MECN     H11      HGA3     0.090000        1.0080           0
     31037 WT13     588      MECN     H12      HGA3     0.090000        1.0080           0
     31038 WT13     588      MECN     H13      HGA3     0.090000        1.0080           0
     31039 WT13     588      MECN     C2       CG1N1    0.360000       12.0110           0
     31040 WT13     588      MECN     N3       NG1T1   -0.460000       14.0070           0
     31041 WT13     589      MECN     C1       CG331   -0.170000       12.0110           0
     31042 WT13     589      MECN     H11      HGA3     0.090000        1.0080           0
     31043 WT13     589      MECN     H12      HGA3     0.090000        1.0080           0
     31044 WT13     589      MECN     H13      HGA3     0.090000        1.0080           0
     31045 WT13     589      MECN     C2       CG1N1    0.360000       12.0110           0
     31046 WT13     589      MECN     N3       NG1T1   -0.460000       14.0070           0
     31047 WT13     590      MECN     C1       CG331   -0.170000       12.0110           0
     31048 WT13     590      MECN     H11      HGA3     0.090000        1.0080           0
     31049 WT13     590      MECN     H12      HGA3     0.090000        1.0080           0
     31050 WT13     590      MECN     H13      HGA3     0.090000        1.0080           0
     31051 WT13     590      MECN     C2       CG1N1    0.360000       12.0110           0
     31052 WT13     590      MECN     N3       NG1T1   -0.460000       14.0070           0
     31053 WT13     594      MECN     C1       CG331   -0.170000       12.0110           0
     31054 WT13     594      MECN     H11      HGA3     0.090000        1.0080           0
     31055 WT13     594      MECN     H12      HGA3     0.090000        1.0080           0
     31056 WT13     594      MECN     H13      HGA3     0.090000        1.0080           0
     31057 WT13     594      MECN     C2       CG1N1    0.360000       12.0110           0
     31058 WT13     594      MECN     N3       NG1T1   -0.460000       14.0070           0
     31059 WT13     595      MECN     C1       CG331   -0.170000       12.0110           0
     31060 WT13     595      MECN     H11      HGA3     0.090000        1.0080           0
     31061 WT13     595      MECN     H12      HGA3     0.090000        1.0080           0
     31062 WT13     595      MECN     H13      HGA3     0.090000        1.0080           0
     31063 WT13     595      MECN     C2       CG1N1    0.360000       12.0110           0
     31064 WT13     595      MECN     N3       NG1T1   -0.460000       14.0070           0
     31065 WT13     599      MECN     C1       CG331   -0.170000       12.0110           0
     31066 WT13     599      MECN     H11      HGA3     0.090000        1.0080           0
     31067 WT13     599      MECN     H12      HGA3     0.090000        1.0080           0
     31068 WT13     599      MECN     H13      HGA3     0.090000        1.0080           0
     31069 WT13     599      MECN     C2       CG1N1    0.360000       12.0110           0
     31070 WT13     599      MECN     N3       NG1T1   -0.460000       14.0070           0
     31071 WT13     601      MECN     C1       CG331   -0.170000       12.0110           0
     31072 WT13     601      MECN     H11      HGA3     0.090000        1.0080           0
     31073 WT13     601      MECN     H12      HGA3     0.090000        1.0080           0
     31074 WT13     601      MECN     H13      HGA3     0.090000        1.0080           0
     31075 WT13     601      MECN     C2       CG1N1    0.360000       12.0110           0
     31076 WT13     601      MECN     N3       NG1T1   -0.460000       14.0070           0
     31077 WT13     602      MECN     C1       CG331   -0.170000       12.0110           0
     31078 WT13     602      MECN     H11      HGA3     0.090000        1.0080           0
     31079 WT13     602      MECN     H12      HGA3     0.090000        1.0080           0
     31080 WT13     602      MECN     H13      HGA3     0.090000        1.0080           0
     31081 WT13     602      MECN     C2       CG1N1    0.360000       12.0110           0
     31082 WT13     602      MECN     N3       NG1T1   -0.460000       14.0070           0
     31083 WT13     605      MECN     C1       CG331   -0.170000       12.0110           0
     31084 WT13     605      MECN     H11      HGA3     0.090000        1.0080           0
     31085 WT13     605      MECN     H12      HGA3     0.090000        1.0080           0
     31086 WT13     605      MECN     H13      HGA3     0.090000        1.0080           0
     31087 WT13     605      MECN     C2       CG1N1    0.360000       12.0110           0
     31088 WT13     605      MECN     N3       NG1T1   -0.460000       14.0070           0
     31089 WT13     608      MECN     C1       CG331   -0.170000       12.0110           0
     31090 WT13     608      MECN     H11      HGA3     0.090000        1.0080           0
     31091 WT13     608      MECN     H12      HGA3     0.090000        1.0080           0
     31092 WT13     608      MECN     H13      HGA3     0.090000        1.0080           0
     31093 WT13     608      MECN     C2       CG1N1    0.360000       12.0110           0
     31094 WT13     608      MECN     N3       NG1T1   -0.460000       14.0070           0
     31095 WT13     613      MECN     C1       CG331   -0.170000       12.0110           0
     31096 WT13     613      MECN     H11      HGA3     0.090000        1.0080           0
     31097 WT13     613      MECN     H12      HGA3     0.090000        1.0080           0
     31098 WT13     613      MECN     H13      HGA3     0.090000        1.0080           0
     31099 WT13     613      MECN     C2       CG1N1    0.360000       12.0110           0
     31100 WT13     613      MECN     N3       NG1T1   -0.460000       14.0070           0
     31101 WT13     615      MECN     C1       CG331   -0.170000       12.0110           0
     31102 WT13     615      MECN     H11      HGA3     0.090000        1.0080           0
     31103 WT13     615      MECN     H12      HGA3     0.090000        1.0080           0
     31104 WT13     615      MECN     H13      HGA3     0.090000        1.0080           0
     31105 WT13     615      MECN     C2       CG1N1    0.360000       12.0110           0
     31106 WT13     615      MECN     N3       NG1T1   -0.460000       14.0070           0
     31107 WT13     617      MECN     C1       CG331   -0.170000       12.0110           0
     31108 WT13     617      MECN     H11      HGA3     0.090000        1.0080           0
     31109 WT13     617      MECN     H12      HGA3     0.090000        1.0080           0
     31110 WT13     617      MECN     H13      HGA3     0.090000        1.0080           0
     31111 WT13     617      MECN     C2       CG1N1    0.360000       12.0110           0
     31112 WT13     617      MECN     N3       NG1T1   -0.460000       14.0070           0
     31113 WT13     618      MECN     C1       CG331   -0.170000       12.0110           0
     31114 WT13     618      MECN     H11      HGA3     0.090000        1.0080           0
     31115 WT13     618      MECN     H12      HGA3     0.090000        1.0080           0
     31116 WT13     618      MECN     H13      HGA3     0.090000        1.0080           0
     31117 WT13     618      MECN     C2       CG1N1    0.360000       12.0110           0
     31118 WT13     618      MECN     N3       NG1T1   -0.460000       14.0070           0
     31119 WT13     619      MECN     C1       CG331   -0.170000       12.0110           0
     31120 WT13     619      MECN     H11      HGA3     0.090000        1.0080           0
     31121 WT13     619      MECN     H12      HGA3     0.090000        1.0080           0
     31122 WT13     619      MECN     H13      HGA3     0.090000        1.0080           0
     31123 WT13     619      MECN     C2       CG1N1    0.360000       12.0110           0
     31124 WT13     619      MECN     N3       NG1T1   -0.460000       14.0070           0
     31125 WT13     620      MECN     C1       CG331   -0.170000       12.0110           0
     31126 WT13     620      MECN     H11      HGA3     0.090000        1.0080           0
     31127 WT13     620      MECN     H12      HGA3     0.090000        1.0080           0
     31128 WT13     620      MECN     H13      HGA3     0.090000        1.0080           0
     31129 WT13     620      MECN     C2       CG1N1    0.360000       12.0110           0
     31130 WT13     620      MECN     N3       NG1T1   -0.460000       14.0070           0
     31131 WT13     621      MECN     C1       CG331   -0.170000       12.0110           0
     31132 WT13     621      MECN     H11      HGA3     0.090000        1.0080           0
     31133 WT13     621      MECN     H12      HGA3     0.090000        1.0080           0
     31134 WT13     621      MECN     H13      HGA3     0.090000        1.0080           0
     31135 WT13     621      MECN     C2       CG1N1    0.360000       12.0110           0
     31136 WT13     621      MECN     N3       NG1T1   -0.460000       14.0070           0
     31137 WT13     622      MECN     C1       CG331   -0.170000       12.0110           0
     31138 WT13     622      MECN     H11      HGA3     0.090000        1.0080           0
     31139 WT13     622      MECN     H12      HGA3     0.090000        1.0080           0
     31140 WT13     622      MECN     H13      HGA3     0.090000        1.0080           0
     31141 WT13     622      MECN     C2       CG1N1    0.360000       12.0110           0
     31142 WT13     622      MECN     N3       NG1T1   -0.460000       14.0070           0
     31143 WT13     623      MECN     C1       CG331   -0.170000       12.0110           0
     31144 WT13     623      MECN     H11      HGA3     0.090000        1.0080           0
     31145 WT13     623      MECN     H12      HGA3     0.090000        1.0080           0
     31146 WT13     623      MECN     H13      HGA3     0.090000        1.0080           0
     31147 WT13     623      MECN     C2       CG1N1    0.360000       12.0110           0
     31148 WT13     623      MECN     N3       NG1T1   -0.460000       14.0070           0
     31149 WT13     627      MECN     C1       CG331   -0.170000       12.0110           0
     31150 WT13     627      MECN     H11      HGA3     0.090000        1.0080           0
     31151 WT13     627      MECN     H12      HGA3     0.090000        1.0080           0
     31152 WT13     627      MECN     H13      HGA3     0.090000        1.0080           0
     31153 WT13     627      MECN     C2       CG1N1    0.360000       12.0110           0
     31154 WT13     627      MECN     N3       NG1T1   -0.460000       14.0070           0
     31155 WT13     633      MECN     C1       CG331   -0.170000       12.0110           0
     31156 WT13     633      MECN     H11      HGA3     0.090000        1.0080           0
     31157 WT13     633      MECN     H12      HGA3     0.090000        1.0080           0
     31158 WT13     633      MECN     H13      HGA3     0.090000        1.0080           0
     31159 WT13     633      MECN     C2       CG1N1    0.360000       12.0110           0
     31160 WT13     633      MECN     N3       NG1T1   -0.460000       14.0070           0
     31161 WT13     634      MECN     C1       CG331   -0.170000       12.0110           0
     31162 WT13     634      MECN     H11      HGA3     0.090000        1.0080           0
     31163 WT13     634      MECN     H12      HGA3     0.090000        1.0080           0
     31164 WT13     634      MECN     H13      HGA3     0.090000        1.0080           0
     31165 WT13     634      MECN     C2       CG1N1    0.360000       12.0110           0
     31166 WT13     634      MECN     N3       NG1T1   -0.460000       14.0070           0
     31167 WT13     636      MECN     C1       CG331   -0.170000       12.0110           0
     31168 WT13     636      MECN     H11      HGA3     0.090000        1.0080           0
     31169 WT13     636      MECN     H12      HGA3     0.090000        1.0080           0
     31170 WT13     636      MECN     H13      HGA3     0.090000        1.0080           0
     31171 WT13     636      MECN     C2       CG1N1    0.360000       12.0110           0
     31172 WT13     636      MECN     N3       NG1T1   -0.460000       14.0070           0
     31173 WT13     637      MECN     C1       CG331   -0.170000       12.0110           0
     31174 WT13     637      MECN     H11      HGA3     0.090000        1.0080           0
     31175 WT13     637      MECN     H12      HGA3     0.090000        1.0080           0
     31176 WT13     637      MECN     H13      HGA3     0.090000        1.0080           0
     31177 WT13     637      MECN     C2       CG1N1    0.360000       12.0110           0
     31178 WT13     637      MECN     N3       NG1T1   -0.460000       14.0070           0
     31179 WT13     639      MECN     C1       CG331   -0.170000       12.0110           0
     31180 WT13     639      MECN     H11      HGA3     0.090000        1.0080           0
     31181 WT13     639      MECN     H12      HGA3     0.090000        1.0080           0
     31182 WT13     639      MECN     H13      HGA3     0.090000        1.0080           0
     31183 WT13     639      MECN     C2       CG1N1    0.360000       12.0110           0
     31184 WT13     639      MECN     N3       NG1T1   -0.460000       14.0070           0
     31185 WT13     640      MECN     C1       CG331   -0.170000       12.0110           0
     31186 WT13     640      MECN     H11      HGA3     0.090000        1.0080           0
     31187 WT13     640      MECN     H12      HGA3     0.090000        1.0080           0
     31188 WT13     640      MECN     H13      HGA3     0.090000        1.0080           0
     31189 WT13     640      MECN     C2       CG1N1    0.360000       12.0110           0
     31190 WT13     640      MECN     N3       NG1T1   -0.460000       14.0070           0
     31191 WT13     641      MECN     C1       CG331   -0.170000       12.0110           0
     31192 WT13     641      MECN     H11      HGA3     0.090000        1.0080           0
     31193 WT13     641      MECN     H12      HGA3     0.090000        1.0080           0
     31194 WT13     641      MECN     H13      HGA3     0.090000        1.0080           0
     31195 WT13     641      MECN     C2       CG1N1    0.360000       12.0110           0
     31196 WT13     641      MECN     N3       NG1T1   -0.460000       14.0070           0
     31197 WT13     644      MECN     C1       CG331   -0.170000       12.0110           0
     31198 WT13     644      MECN     H11      HGA3     0.090000        1.0080           0
     31199 WT13     644      MECN     H12      HGA3     0.090000        1.0080           0
     31200 WT13     644      MECN     H13      HGA3     0.090000        1.0080           0
     31201 WT13     644      MECN     C2       CG1N1    0.360000       12.0110           0
     31202 WT13     644      MECN     N3       NG1T1   -0.460000       14.0070           0
     31203 WT13     645      MECN     C1       CG331   -0.170000       12.0110           0
     31204 WT13     645      MECN     H11      HGA3     0.090000        1.0080           0
     31205 WT13     645      MECN     H12      HGA3     0.090000        1.0080           0
     31206 WT13     645      MECN     H13      HGA3     0.090000        1.0080           0
     31207 WT13     645      MECN     C2       CG1N1    0.360000       12.0110           0
     31208 WT13     645      MECN     N3       NG1T1   -0.460000       14.0070           0
     31209 WT13     648      MECN     C1       CG331   -0.170000       12.0110           0
     31210 WT13     648      MECN     H11      HGA3     0.090000        1.0080           0
     31211 WT13     648      MECN     H12      HGA3     0.090000        1.0080           0
     31212 WT13     648      MECN     H13      HGA3     0.090000        1.0080           0
     31213 WT13     648      MECN     C2       CG1N1    0.360000       12.0110           0
     31214 WT13     648      MECN     N3       NG1T1   -0.460000       14.0070           0
     31215 WT13     649      MECN     C1       CG331   -0.170000       12.0110           0
     31216 WT13     649      MECN     H11      HGA3     0.090000        1.0080           0
     31217 WT13     649      MECN     H12      HGA3     0.090000        1.0080           0
     31218 WT13     649      MECN     H13      HGA3     0.090000        1.0080           0
     31219 WT13     649      MECN     C2       CG1N1    0.360000       12.0110           0
     31220 WT13     649      MECN     N3       NG1T1   -0.460000       14.0070           0
     31221 WT13     650      MECN     C1       CG331   -0.170000       12.0110           0
     31222 WT13     650      MECN     H11      HGA3     0.090000        1.0080           0
     31223 WT13     650      MECN     H12      HGA3     0.090000        1.0080           0
     31224 WT13     650      MECN     H13      HGA3     0.090000        1.0080           0
     31225 WT13     650      MECN     C2       CG1N1    0.360000       12.0110           0
     31226 WT13     650      MECN     N3       NG1T1   -0.460000       14.0070           0
     31227 WT13     651      MECN     C1       CG331   -0.170000       12.0110           0
     31228 WT13     651      MECN     H11      HGA3     0.090000        1.0080           0
     31229 WT13     651      MECN     H12      HGA3     0.090000        1.0080           0
     31230 WT13     651      MECN     H13      HGA3     0.090000        1.0080           0
     31231 WT13     651      MECN     C2       CG1N1    0.360000       12.0110           0
     31232 WT13     651      MECN     N3       NG1T1   -0.460000       14.0070           0
     31233 WT13     655      MECN     C1       CG331   -0.170000       12.0110           0
     31234 WT13     655      MECN     H11      HGA3     0.090000        1.0080           0
     31235 WT13     655      MECN     H12      HGA3     0.090000        1.0080           0
     31236 WT13     655      MECN     H13      HGA3     0.090000        1.0080           0
     31237 WT13     655      MECN     C2       CG1N1    0.360000       12.0110           0
     31238 WT13     655      MECN     N3       NG1T1   -0.460000       14.0070           0
     31239 WT13     656      MECN     C1       CG331   -0.170000       12.0110           0
     31240 WT13     656      MECN     H11      HGA3     0.090000        1.0080           0
     31241 WT13     656      MECN     H12      HGA3     0.090000        1.0080           0
     31242 WT13     656      MECN     H13      HGA3     0.090000        1.0080           0
     31243 WT13     656      MECN     C2       CG1N1    0.360000       12.0110           0
     31244 WT13     656      MECN     N3       NG1T1   -0.460000       14.0070           0
     31245 WT13     657      MECN     C1       CG331   -0.170000       12.0110           0
     31246 WT13     657      MECN     H11      HGA3     0.090000        1.0080           0
     31247 WT13     657      MECN     H12      HGA3     0.090000        1.0080           0
     31248 WT13     657      MECN     H13      HGA3     0.090000        1.0080           0
     31249 WT13     657      MECN     C2       CG1N1    0.360000       12.0110           0
     31250 WT13     657      MECN     N3       NG1T1   -0.460000       14.0070           0
     31251 WT13     658      MECN     C1       CG331   -0.170000       12.0110           0
     31252 WT13     658      MECN     H11      HGA3     0.090000        1.0080           0
     31253 WT13     658      MECN     H12      HGA3     0.090000        1.0080           0
     31254 WT13     658      MECN     H13      HGA3     0.090000        1.0080           0
     31255 WT13     658      MECN     C2       CG1N1    0.360000       12.0110           0
     31256 WT13     658      MECN     N3       NG1T1   -0.460000       14.0070           0
     31257 WT13     659      MECN     C1       CG331   -0.170000       12.0110           0
     31258 WT13     659      MECN     H11      HGA3     0.090000        1.0080           0
     31259 WT13     659      MECN     H12      HGA3     0.090000        1.0080           0
     31260 WT13     659      MECN     H13      HGA3     0.090000        1.0080           0
     31261 WT13     659      MECN     C2       CG1N1    0.360000       12.0110           0
     31262 WT13     659      MECN     N3       NG1T1   -0.460000       14.0070           0
     31263 WT13     661      MECN     C1       CG331   -0.170000       12.0110           0
     31264 WT13     661      MECN     H11      HGA3     0.090000        1.0080           0
     31265 WT13     661      MECN     H12      HGA3     0.090000        1.0080           0
     31266 WT13     661      MECN     H13      HGA3     0.090000        1.0080           0
     31267 WT13     661      MECN     C2       CG1N1    0.360000       12.0110           0
     31268 WT13     661      MECN     N3       NG1T1   -0.460000       14.0070           0
     31269 WT13     664      MECN     C1       CG331   -0.170000       12.0110           0
     31270 WT13     664      MECN     H11      HGA3     0.090000        1.0080           0
     31271 WT13     664      MECN     H12      HGA3     0.090000        1.0080           0
     31272 WT13     664      MECN     H13      HGA3     0.090000        1.0080           0
     31273 WT13     664      MECN     C2       CG1N1    0.360000       12.0110           0
     31274 WT13     664      MECN     N3       NG1T1   -0.460000       14.0070           0
     31275 WT13     665      MECN     C1       CG331   -0.170000       12.0110           0
     31276 WT13     665      MECN     H11      HGA3     0.090000        1.0080           0
     31277 WT13     665      MECN     H12      HGA3     0.090000        1.0080           0
     31278 WT13     665      MECN     H13      HGA3     0.090000        1.0080           0
     31279 WT13     665      MECN     C2       CG1N1    0.360000       12.0110           0
     31280 WT13     665      MECN     N3       NG1T1   -0.460000       14.0070           0
     31281 WT13     666      MECN     C1       CG331   -0.170000       12.0110           0
     31282 WT13     666      MECN     H11      HGA3     0.090000        1.0080           0
     31283 WT13     666      MECN     H12      HGA3     0.090000        1.0080           0
     31284 WT13     666      MECN     H13      HGA3     0.090000        1.0080           0
     31285 WT13     666      MECN     C2       CG1N1    0.360000       12.0110           0
     31286 WT13     666      MECN     N3       NG1T1   -0.460000       14.0070           0
     31287 WT13     667      MECN     C1       CG331   -0.170000       12.0110           0
     31288 WT13     667      MECN     H11      HGA3     0.090000        1.0080           0
     31289 WT13     667      MECN     H12      HGA3     0.090000        1.0080           0
     31290 WT13     667      MECN     H13      HGA3     0.090000        1.0080           0
     31291 WT13     667      MECN     C2       CG1N1    0.360000       12.0110           0
     31292 WT13     667      MECN     N3       NG1T1   -0.460000       14.0070           0
     31293 WT13     672      MECN     C1       CG331   -0.170000       12.0110           0
     31294 WT13     672      MECN     H11      HGA3     0.090000        1.0080           0
     31295 WT13     672      MECN     H12      HGA3     0.090000        1.0080           0
     31296 WT13     672      MECN     H13      HGA3     0.090000        1.0080           0
     31297 WT13     672      MECN     C2       CG1N1    0.360000       12.0110           0
     31298 WT13     672      MECN     N3       NG1T1   -0.460000       14.0070           0
     31299 WT13     673      MECN     C1       CG331   -0.170000       12.0110           0
     31300 WT13     673      MECN     H11      HGA3     0.090000        1.0080           0
     31301 WT13     673      MECN     H12      HGA3     0.090000        1.0080           0
     31302 WT13     673      MECN     H13      HGA3     0.090000        1.0080           0
     31303 WT13     673      MECN     C2       CG1N1    0.360000       12.0110           0
     31304 WT13     673      MECN     N3       NG1T1   -0.460000       14.0070           0
     31305 WT13     674      MECN     C1       CG331   -0.170000       12.0110           0
     31306 WT13     674      MECN     H11      HGA3     0.090000        1.0080           0
     31307 WT13     674      MECN     H12      HGA3     0.090000        1.0080           0
     31308 WT13     674      MECN     H13      HGA3     0.090000        1.0080           0
     31309 WT13     674      MECN     C2       CG1N1    0.360000       12.0110           0
     31310 WT13     674      MECN     N3       NG1T1   -0.460000       14.0070           0
     31311 WT13     678      MECN     C1       CG331   -0.170000       12.0110           0
     31312 WT13     678      MECN     H11      HGA3     0.090000        1.0080           0
     31313 WT13     678      MECN     H12      HGA3     0.090000        1.0080           0
     31314 WT13     678      MECN     H13      HGA3     0.090000        1.0080           0
     31315 WT13     678      MECN     C2       CG1N1    0.360000       12.0110           0
     31316 WT13     678      MECN     N3       NG1T1   -0.460000       14.0070           0
     31317 WT13     680      MECN     C1       CG331   -0.170000       12.0110           0
     31318 WT13     680      MECN     H11      HGA3     0.090000        1.0080           0
     31319 WT13     680      MECN     H12      HGA3     0.090000        1.0080           0
     31320 WT13     680      MECN     H13      HGA3     0.090000        1.0080           0
     31321 WT13     680      MECN     C2       CG1N1    0.360000       12.0110           0
     31322 WT13     680      MECN     N3       NG1T1   -0.460000       14.0070           0
     31323 WT13     681      MECN     C1       CG331   -0.170000       12.0110           0
     31324 WT13     681      MECN     H11      HGA3     0.090000        1.0080           0
     31325 WT13     681      MECN     H12      HGA3     0.090000        1.0080           0
     31326 WT13     681      MECN     H13      HGA3     0.090000        1.0080           0
     31327 WT13     681      MECN     C2       CG1N1    0.360000       12.0110           0
     31328 WT13     681      MECN     N3       NG1T1   -0.460000       14.0070           0
     31329 WT13     682      MECN     C1       CG331   -0.170000       12.0110           0
     31330 WT13     682      MECN     H11      HGA3     0.090000        1.0080           0
     31331 WT13     682      MECN     H12      HGA3     0.090000        1.0080           0
     31332 WT13     682      MECN     H13      HGA3     0.090000        1.0080           0
     31333 WT13     682      MECN     C2       CG1N1    0.360000       12.0110           0
     31334 WT13     682      MECN     N3       NG1T1   -0.460000       14.0070           0
     31335 WT13     691      MECN     C1       CG331   -0.170000       12.0110           0
     31336 WT13     691      MECN     H11      HGA3     0.090000        1.0080           0
     31337 WT13     691      MECN     H12      HGA3     0.090000        1.0080           0
     31338 WT13     691      MECN     H13      HGA3     0.090000        1.0080           0
     31339 WT13     691      MECN     C2       CG1N1    0.360000       12.0110           0
     31340 WT13     691      MECN     N3       NG1T1   -0.460000       14.0070           0
     31341 WT13     694      MECN     C1       CG331   -0.170000       12.0110           0
     31342 WT13     694      MECN     H11      HGA3     0.090000        1.0080           0
     31343 WT13     694      MECN     H12      HGA3     0.090000        1.0080           0
     31344 WT13     694      MECN     H13      HGA3     0.090000        1.0080           0
     31345 WT13     694      MECN     C2       CG1N1    0.360000       12.0110           0
     31346 WT13     694      MECN     N3       NG1T1   -0.460000       14.0070           0
     31347 WT13     696      MECN     C1       CG331   -0.170000       12.0110           0
     31348 WT13     696      MECN     H11      HGA3     0.090000        1.0080           0
     31349 WT13     696      MECN     H12      HGA3     0.090000        1.0080           0
     31350 WT13     696      MECN     H13      HGA3     0.090000        1.0080           0
     31351 WT13     696      MECN     C2       CG1N1    0.360000       12.0110           0
     31352 WT13     696      MECN     N3       NG1T1   -0.460000       14.0070           0
     31353 WT13     698      MECN     C1       CG331   -0.170000       12.0110           0
     31354 WT13     698      MECN     H11      HGA3     0.090000        1.0080           0
     31355 WT13     698      MECN     H12      HGA3     0.090000        1.0080           0
     31356 WT13     698      MECN     H13      HGA3     0.090000        1.0080           0
     31357 WT13     698      MECN     C2       CG1N1    0.360000       12.0110           0
     31358 WT13     698      MECN     N3       NG1T1   -0.460000       14.0070           0
     31359 WT13     699      MECN     C1       CG331   -0.170000       12.0110           0
     31360 WT13     699      MECN     H11      HGA3     0.090000        1.0080           0
     31361 WT13     699      MECN     H12      HGA3     0.090000        1.0080           0
     31362 WT13     699      MECN     H13      HGA3     0.090000        1.0080           0
     31363 WT13     699      MECN     C2       CG1N1    0.360000       12.0110           0
     31364 WT13     699      MECN     N3       NG1T1   -0.460000       14.0070           0
     31365 WT13     700      MECN     C1       CG331   -0.170000       12.0110           0
     31366 WT13     700      MECN     H11      HGA3     0.090000        1.0080           0
     31367 WT13     700      MECN     H12      HGA3     0.090000        1.0080           0
     31368 WT13     700      MECN     H13      HGA3     0.090000        1.0080           0
     31369 WT13     700      MECN     C2       CG1N1    0.360000       12.0110           0
     31370 WT13     700      MECN     N3       NG1T1   -0.460000       14.0070           0
     31371 WT13     704      MECN     C1       CG331   -0.170000       12.0110           0
     31372 WT13     704      MECN     H11      HGA3     0.090000        1.0080           0
     31373 WT13     704      MECN     H12      HGA3     0.090000        1.0080           0
     31374 WT13     704      MECN     H13      HGA3     0.090000        1.0080           0
     31375 WT13     704      MECN     C2       CG1N1    0.360000       12.0110           0
     31376 WT13     704      MECN     N3       NG1T1   -0.460000       14.0070           0
     31377 WT13     709      MECN     C1       CG331   -0.170000       12.0110           0
     31378 WT13     709      MECN     H11      HGA3     0.090000        1.0080           0
     31379 WT13     709      MECN     H12      HGA3     0.090000        1.0080           0
     31380 WT13     709      MECN     H13      HGA3     0.090000        1.0080           0
     31381 WT13     709      MECN     C2       CG1N1    0.360000       12.0110           0
     31382 WT13     709      MECN     N3       NG1T1   -0.460000       14.0070           0
     31383 WT13     710      MECN     C1       CG331   -0.170000       12.0110           0
     31384 WT13     710      MECN     H11      HGA3     0.090000        1.0080           0
     31385 WT13     710      MECN     H12      HGA3     0.090000        1.0080           0
     31386 WT13     710      MECN     H13      HGA3     0.090000        1.0080           0
     31387 WT13     710      MECN     C2       CG1N1    0.360000       12.0110           0
     31388 WT13     710      MECN     N3       NG1T1   -0.460000       14.0070           0
     31389 WT13     711      MECN     C1       CG331   -0.170000       12.0110           0
     31390 WT13     711      MECN     H11      HGA3     0.090000        1.0080           0
     31391 WT13     711      MECN     H12      HGA3     0.090000        1.0080           0
     31392 WT13     711      MECN     H13      HGA3     0.090000        1.0080           0
     31393 WT13     711      MECN     C2       CG1N1    0.360000       12.0110           0
     31394 WT13     711      MECN     N3       NG1T1   -0.460000       14.0070           0
     31395 WT13     714      MECN     C1       CG331   -0.170000       12.0110           0
     31396 WT13     714      MECN     H11      HGA3     0.090000        1.0080           0
     31397 WT13     714      MECN     H12      HGA3     0.090000        1.0080           0
     31398 WT13     714      MECN     H13      HGA3     0.090000        1.0080           0
     31399 WT13     714      MECN     C2       CG1N1    0.360000       12.0110           0
     31400 WT13     714      MECN     N3       NG1T1   -0.460000       14.0070           0
     31401 WT13     717      MECN     C1       CG331   -0.170000       12.0110           0
     31402 WT13     717      MECN     H11      HGA3     0.090000        1.0080           0
     31403 WT13     717      MECN     H12      HGA3     0.090000        1.0080           0
     31404 WT13     717      MECN     H13      HGA3     0.090000        1.0080           0
     31405 WT13     717      MECN     C2       CG1N1    0.360000       12.0110           0
     31406 WT13     717      MECN     N3       NG1T1   -0.460000       14.0070           0
     31407 WT13     721      MECN     C1       CG331   -0.170000       12.0110           0
     31408 WT13     721      MECN     H11      HGA3     0.090000        1.0080           0
     31409 WT13     721      MECN     H12      HGA3     0.090000        1.0080           0
     31410 WT13     721      MECN     H13      HGA3     0.090000        1.0080           0
     31411 WT13     721      MECN     C2       CG1N1    0.360000       12.0110           0
     31412 WT13     721      MECN     N3       NG1T1   -0.460000       14.0070           0
     31413 WT13     722      MECN     C1       CG331   -0.170000       12.0110           0
     31414 WT13     722      MECN     H11      HGA3     0.090000        1.0080           0
     31415 WT13     722      MECN     H12      HGA3     0.090000        1.0080           0
     31416 WT13     722      MECN     H13      HGA3     0.090000        1.0080           0
     31417 WT13     722      MECN     C2       CG1N1    0.360000       12.0110           0
     31418 WT13     722      MECN     N3       NG1T1   -0.460000       14.0070           0
     31419 WT13     723      MECN     C1       CG331   -0.170000       12.0110           0
     31420 WT13     723      MECN     H11      HGA3     0.090000        1.0080           0
     31421 WT13     723      MECN     H12      HGA3     0.090000        1.0080           0
     31422 WT13     723      MECN     H13      HGA3     0.090000        1.0080           0
     31423 WT13     723      MECN     C2       CG1N1    0.360000       12.0110           0
     31424 WT13     723      MECN     N3       NG1T1   -0.460000       14.0070           0
     31425 WT13     725      MECN     C1       CG331   -0.170000       12.0110           0
     31426 WT13     725      MECN     H11      HGA3     0.090000        1.0080           0
     31427 WT13     725      MECN     H12      HGA3     0.090000        1.0080           0
     31428 WT13     725      MECN     H13      HGA3     0.090000        1.0080           0
     31429 WT13     725      MECN     C2       CG1N1    0.360000       12.0110           0
     31430 WT13     725      MECN     N3       NG1T1   -0.460000       14.0070           0
     31431 WT13     727      MECN     C1       CG331   -0.170000       12.0110           0
     31432 WT13     727      MECN     H11      HGA3     0.090000        1.0080           0
     31433 WT13     727      MECN     H12      HGA3     0.090000        1.0080           0
     31434 WT13     727      MECN     H13      HGA3     0.090000        1.0080           0
     31435 WT13     727      MECN     C2       CG1N1    0.360000       12.0110           0
     31436 WT13     727      MECN     N3       NG1T1   -0.460000       14.0070           0
     31437 WT13     731      MECN     C1       CG331   -0.170000       12.0110           0
     31438 WT13     731      MECN     H11      HGA3     0.090000        1.0080           0
     31439 WT13     731      MECN     H12      HGA3     0.090000        1.0080           0
     31440 WT13     731      MECN     H13      HGA3     0.090000        1.0080           0
     31441 WT13     731      MECN     C2       CG1N1    0.360000       12.0110           0
     31442 WT13     731      MECN     N3       NG1T1   -0.460000       14.0070           0
     31443 WT13     735      MECN     C1       CG331   -0.170000       12.0110           0
     31444 WT13     735      MECN     H11      HGA3     0.090000        1.0080           0
     31445 WT13     735      MECN     H12      HGA3     0.090000        1.0080           0
     31446 WT13     735      MECN     H13      HGA3     0.090000        1.0080           0
     31447 WT13     735      MECN     C2       CG1N1    0.360000       12.0110           0
     31448 WT13     735      MECN     N3       NG1T1   -0.460000       14.0070           0
     31449 WT13     743      MECN     C1       CG331   -0.170000       12.0110           0
     31450 WT13     743      MECN     H11      HGA3     0.090000        1.0080           0
     31451 WT13     743      MECN     H12      HGA3     0.090000        1.0080           0
     31452 WT13     743      MECN     H13      HGA3     0.090000        1.0080           0
     31453 WT13     743      MECN     C2       CG1N1    0.360000       12.0110           0
     31454 WT13     743      MECN     N3       NG1T1   -0.460000       14.0070           0
     31455 WT13     748      MECN     C1       CG331   -0.170000       12.0110           0
     31456 WT13     748      MECN     H11      HGA3     0.090000        1.0080           0
     31457 WT13     748      MECN     H12      HGA3     0.090000        1.0080           0
     31458 WT13     748      MECN     H13      HGA3     0.090000        1.0080           0
     31459 WT13     748      MECN     C2       CG1N1    0.360000       12.0110           0
     31460 WT13     748      MECN     N3       NG1T1   -0.460000       14.0070           0
     31461 WT13     751      MECN     C1       CG331   -0.170000       12.0110           0
     31462 WT13     751      MECN     H11      HGA3     0.090000        1.0080           0
     31463 WT13     751      MECN     H12      HGA3     0.090000        1.0080           0
     31464 WT13     751      MECN     H13      HGA3     0.090000        1.0080           0
     31465 WT13     751      MECN     C2       CG1N1    0.360000       12.0110           0
     31466 WT13     751      MECN     N3       NG1T1   -0.460000       14.0070           0
     31467 WT13     760      MECN     C1       CG331   -0.170000       12.0110           0
     31468 WT13     760      MECN     H11      HGA3     0.090000        1.0080           0
     31469 WT13     760      MECN     H12      HGA3     0.090000        1.0080           0
     31470 WT13     760      MECN     H13      HGA3     0.090000        1.0080           0
     31471 WT13     760      MECN     C2       CG1N1    0.360000       12.0110           0
     31472 WT13     760      MECN     N3       NG1T1   -0.460000       14.0070           0
     31473 WT13     761      MECN     C1       CG331   -0.170000       12.0110           0
     31474 WT13     761      MECN     H11      HGA3     0.090000        1.0080           0
     31475 WT13     761      MECN     H12      HGA3     0.090000        1.0080           0
     31476 WT13     761      MECN     H13      HGA3     0.090000        1.0080           0
     31477 WT13     761      MECN     C2       CG1N1    0.360000       12.0110           0
     31478 WT13     761      MECN     N3       NG1T1   -0.460000       14.0070           0
     31479 WT13     762      MECN     C1       CG331   -0.170000       12.0110           0
     31480 WT13     762      MECN     H11      HGA3     0.090000        1.0080           0
     31481 WT13     762      MECN     H12      HGA3     0.090000        1.0080           0
     31482 WT13     762      MECN     H13      HGA3     0.090000        1.0080           0
     31483 WT13     762      MECN     C2       CG1N1    0.360000       12.0110           0
     31484 WT13     762      MECN     N3       NG1T1   -0.460000       14.0070           0
     31485 WT13     763      MECN     C1       CG331   -0.170000       12.0110           0
     31486 WT13     763      MECN     H11      HGA3     0.090000        1.0080           0
     31487 WT13     763      MECN     H12      HGA3     0.090000        1.0080           0
     31488 WT13     763      MECN     H13      HGA3     0.090000        1.0080           0
     31489 WT13     763      MECN     C2       CG1N1    0.360000       12.0110           0
     31490 WT13     763      MECN     N3       NG1T1   -0.460000       14.0070           0
     31491 WT13     765      MECN     C1       CG331   -0.170000       12.0110           0
     31492 WT13     765      MECN     H11      HGA3     0.090000        1.0080           0
     31493 WT13     765      MECN     H12      HGA3     0.090000        1.0080           0
     31494 WT13     765      MECN     H13      HGA3     0.090000        1.0080           0
     31495 WT13     765      MECN     C2       CG1N1    0.360000       12.0110           0
     31496 WT13     765      MECN     N3       NG1T1   -0.460000       14.0070           0
     31497 WT13     766      MECN     C1       CG331   -0.170000       12.0110           0
     31498 WT13     766      MECN     H11      HGA3     0.090000        1.0080           0
     31499 WT13     766      MECN     H12      HGA3     0.090000        1.0080           0
     31500 WT13     766      MECN     H13      HGA3     0.090000        1.0080           0
     31501 WT13     766      MECN     C2       CG1N1    0.360000       12.0110           0
     31502 WT13     766      MECN     N3       NG1T1   -0.460000       14.0070           0
     31503 WT13     767      MECN     C1       CG331   -0.170000       12.0110           0
     31504 WT13     767      MECN     H11      HGA3     0.090000        1.0080           0
     31505 WT13     767      MECN     H12      HGA3     0.090000        1.0080           0
     31506 WT13     767      MECN     H13      HGA3     0.090000        1.0080           0
     31507 WT13     767      MECN     C2       CG1N1    0.360000       12.0110           0
     31508 WT13     767      MECN     N3       NG1T1   -0.460000       14.0070           0
     31509 WT13     768      MECN     C1       CG331   -0.170000       12.0110           0
     31510 WT13     768      MECN     H11      HGA3     0.090000        1.0080           0
     31511 WT13     768      MECN     H12      HGA3     0.090000        1.0080           0
     31512 WT13     768      MECN     H13      HGA3     0.090000        1.0080           0
     31513 WT13     768      MECN     C2       CG1N1    0.360000       12.0110           0
     31514 WT13     768      MECN     N3       NG1T1   -0.460000       14.0070           0
     31515 WT13     769      MECN     C1       CG331   -0.170000       12.0110           0
     31516 WT13     769      MECN     H11      HGA3     0.090000        1.0080           0
     31517 WT13     769      MECN     H12      HGA3     0.090000        1.0080           0
     31518 WT13     769      MECN     H13      HGA3     0.090000        1.0080           0
     31519 WT13     769      MECN     C2       CG1N1    0.360000       12.0110           0
     31520 WT13     769      MECN     N3       NG1T1   -0.460000       14.0070           0
     31521 WT13     770      MECN     C1       CG331   -0.170000       12.0110           0
     31522 WT13     770      MECN     H11      HGA3     0.090000        1.0080           0
     31523 WT13     770      MECN     H12      HGA3     0.090000        1.0080           0
     31524 WT13     770      MECN     H13      HGA3     0.090000        1.0080           0
     31525 WT13     770      MECN     C2       CG1N1    0.360000       12.0110           0
     31526 WT13     770      MECN     N3       NG1T1   -0.460000       14.0070           0
     31527 WT13     771      MECN     C1       CG331   -0.170000       12.0110           0
     31528 WT13     771      MECN     H11      HGA3     0.090000        1.0080           0
     31529 WT13     771      MECN     H12      HGA3     0.090000        1.0080           0
     31530 WT13     771      MECN     H13      HGA3     0.090000        1.0080           0
     31531 WT13     771      MECN     C2       CG1N1    0.360000       12.0110           0
     31532 WT13     771      MECN     N3       NG1T1   -0.460000       14.0070           0
     31533 WT13     772      MECN     C1       CG331   -0.170000       12.0110           0
     31534 WT13     772      MECN     H11      HGA3     0.090000        1.0080           0
     31535 WT13     772      MECN     H12      HGA3     0.090000        1.0080           0
     31536 WT13     772      MECN     H13      HGA3     0.090000        1.0080           0
     31537 WT13     772      MECN     C2       CG1N1    0.360000       12.0110           0
     31538 WT13     772      MECN     N3       NG1T1   -0.460000       14.0070           0
     31539 WT13     773      MECN     C1       CG331   -0.170000       12.0110           0
     31540 WT13     773      MECN     H11      HGA3     0.090000        1.0080           0
     31541 WT13     773      MECN     H12      HGA3     0.090000        1.0080           0
     31542 WT13     773      MECN     H13      HGA3     0.090000        1.0080           0
     31543 WT13     773      MECN     C2       CG1N1    0.360000       12.0110           0
     31544 WT13     773      MECN     N3       NG1T1   -0.460000       14.0070           0
     31545 WT13     774      MECN     C1       CG331   -0.170000       12.0110           0
     31546 WT13     774      MECN     H11      HGA3     0.090000        1.0080           0
     31547 WT13     774      MECN     H12      HGA3     0.090000        1.0080           0
     31548 WT13     774      MECN     H13      HGA3     0.090000        1.0080           0
     31549 WT13     774      MECN     C2       CG1N1    0.360000       12.0110           0
     31550 WT13     774      MECN     N3       NG1T1   -0.460000       14.0070           0
     31551 WT13     775      MECN     C1       CG331   -0.170000       12.0110           0
     31552 WT13     775      MECN     H11      HGA3     0.090000        1.0080           0
     31553 WT13     775      MECN     H12      HGA3     0.090000        1.0080           0
     31554 WT13     775      MECN     H13      HGA3     0.090000        1.0080           0
     31555 WT13     775      MECN     C2       CG1N1    0.360000       12.0110           0
     31556 WT13     775      MECN     N3       NG1T1   -0.460000       14.0070           0
     31557 WT13     776      MECN     C1       CG331   -0.170000       12.0110           0
     31558 WT13     776      MECN     H11      HGA3     0.090000        1.0080           0
     31559 WT13     776      MECN     H12      HGA3     0.090000        1.0080           0
     31560 WT13     776      MECN     H13      HGA3     0.090000        1.0080           0
     31561 WT13     776      MECN     C2       CG1N1    0.360000       12.0110           0
     31562 WT13     776      MECN     N3       NG1T1   -0.460000       14.0070           0
     31563 WT13     778      MECN     C1       CG331   -0.170000       12.0110           0
     31564 WT13     778      MECN     H11      HGA3     0.090000        1.0080           0
     31565 WT13     778      MECN     H12      HGA3     0.090000        1.0080           0
     31566 WT13     778      MECN     H13      HGA3     0.090000        1.0080           0
     31567 WT13     778      MECN     C2       CG1N1    0.360000       12.0110           0
     31568 WT13     778      MECN     N3       NG1T1   -0.460000       14.0070           0
     31569 WT13     782      MECN     C1       CG331   -0.170000       12.0110           0
     31570 WT13     782      MECN     H11      HGA3     0.090000        1.0080           0
     31571 WT13     782      MECN     H12      HGA3     0.090000        1.0080           0
     31572 WT13     782      MECN     H13      HGA3     0.090000        1.0080           0
     31573 WT13     782      MECN     C2       CG1N1    0.360000       12.0110           0
     31574 WT13     782      MECN     N3       NG1T1   -0.460000       14.0070           0
     31575 WT13     783      MECN     C1       CG331   -0.170000       12.0110           0
     31576 WT13     783      MECN     H11      HGA3     0.090000        1.0080           0
     31577 WT13     783      MECN     H12      HGA3     0.090000        1.0080           0
     31578 WT13     783      MECN     H13      HGA3     0.090000        1.0080           0
     31579 WT13     783      MECN     C2       CG1N1    0.360000       12.0110           0
     31580 WT13     783      MECN     N3       NG1T1   -0.460000       14.0070           0
     31581 WT13     786      MECN     C1       CG331   -0.170000       12.0110           0
     31582 WT13     786      MECN     H11      HGA3     0.090000        1.0080           0
     31583 WT13     786      MECN     H12      HGA3     0.090000        1.0080           0
     31584 WT13     786      MECN     H13      HGA3     0.090000        1.0080           0
     31585 WT13     786      MECN     C2       CG1N1    0.360000       12.0110           0
     31586 WT13     786      MECN     N3       NG1T1   -0.460000       14.0070           0
     31587 WT13     788      MECN     C1       CG331   -0.170000       12.0110           0
     31588 WT13     788      MECN     H11      HGA3     0.090000        1.0080           0
     31589 WT13     788      MECN     H12      HGA3     0.090000        1.0080           0
     31590 WT13     788      MECN     H13      HGA3     0.090000        1.0080           0
     31591 WT13     788      MECN     C2       CG1N1    0.360000       12.0110           0
     31592 WT13     788      MECN     N3       NG1T1   -0.460000       14.0070           0
     31593 WT13     791      MECN     C1       CG331   -0.170000       12.0110           0
     31594 WT13     791      MECN     H11      HGA3     0.090000        1.0080           0
     31595 WT13     791      MECN     H12      HGA3     0.090000        1.0080           0
     31596 WT13     791      MECN     H13      HGA3     0.090000        1.0080           0
     31597 WT13     791      MECN     C2       CG1N1    0.360000       12.0110           0
     31598 WT13     791      MECN     N3       NG1T1   -0.460000       14.0070           0
     31599 WT13     793      MECN     C1       CG331   -0.170000       12.0110           0
     31600 WT13     793      MECN     H11      HGA3     0.090000        1.0080           0
     31601 WT13     793      MECN     H12      HGA3     0.090000        1.0080           0
     31602 WT13     793      MECN     H13      HGA3     0.090000        1.0080           0
     31603 WT13     793      MECN     C2       CG1N1    0.360000       12.0110           0
     31604 WT13     793      MECN     N3       NG1T1   -0.460000       14.0070           0
     31605 WT13     794      MECN     C1       CG331   -0.170000       12.0110           0
     31606 WT13     794      MECN     H11      HGA3     0.090000        1.0080           0
     31607 WT13     794      MECN     H12      HGA3     0.090000        1.0080           0
     31608 WT13     794      MECN     H13      HGA3     0.090000        1.0080           0
     31609 WT13     794      MECN     C2       CG1N1    0.360000       12.0110           0
     31610 WT13     794      MECN     N3       NG1T1   -0.460000       14.0070           0
     31611 WT13     797      MECN     C1       CG331   -0.170000       12.0110           0
     31612 WT13     797      MECN     H11      HGA3     0.090000        1.0080           0
     31613 WT13     797      MECN     H12      HGA3     0.090000        1.0080           0
     31614 WT13     797      MECN     H13      HGA3     0.090000        1.0080           0
     31615 WT13     797      MECN     C2       CG1N1    0.360000       12.0110           0
     31616 WT13     797      MECN     N3       NG1T1   -0.460000       14.0070           0
     31617 WT13     799      MECN     C1       CG331   -0.170000       12.0110           0
     31618 WT13     799      MECN     H11      HGA3     0.090000        1.0080           0
     31619 WT13     799      MECN     H12      HGA3     0.090000        1.0080           0
     31620 WT13     799      MECN     H13      HGA3     0.090000        1.0080           0
     31621 WT13     799      MECN     C2       CG1N1    0.360000       12.0110           0
     31622 WT13     799      MECN     N3       NG1T1   -0.460000       14.0070           0
     31623 WT13     805      MECN     C1       CG331   -0.170000       12.0110           0
     31624 WT13     805      MECN     H11      HGA3     0.090000        1.0080           0
     31625 WT13     805      MECN     H12      HGA3     0.090000        1.0080           0
     31626 WT13     805      MECN     H13      HGA3     0.090000        1.0080           0
     31627 WT13     805      MECN     C2       CG1N1    0.360000       12.0110           0
     31628 WT13     805      MECN     N3       NG1T1   -0.460000       14.0070           0
     31629 WT13     806      MECN     C1       CG331   -0.170000       12.0110           0
     31630 WT13     806      MECN     H11      HGA3     0.090000        1.0080           0
     31631 WT13     806      MECN     H12      HGA3     0.090000        1.0080           0
     31632 WT13     806      MECN     H13      HGA3     0.090000        1.0080           0
     31633 WT13     806      MECN     C2       CG1N1    0.360000       12.0110           0
     31634 WT13     806      MECN     N3       NG1T1   -0.460000       14.0070           0
     31635 WT13     807      MECN     C1       CG331   -0.170000       12.0110           0
     31636 WT13     807      MECN     H11      HGA3     0.090000        1.0080           0
     31637 WT13     807      MECN     H12      HGA3     0.090000        1.0080           0
     31638 WT13     807      MECN     H13      HGA3     0.090000        1.0080           0
     31639 WT13     807      MECN     C2       CG1N1    0.360000       12.0110           0
     31640 WT13     807      MECN     N3       NG1T1   -0.460000       14.0070           0
     31641 WT13     808      MECN     C1       CG331   -0.170000       12.0110           0
     31642 WT13     808      MECN     H11      HGA3     0.090000        1.0080           0
     31643 WT13     808      MECN     H12      HGA3     0.090000        1.0080           0
     31644 WT13     808      MECN     H13      HGA3     0.090000        1.0080           0
     31645 WT13     808      MECN     C2       CG1N1    0.360000       12.0110           0
     31646 WT13     808      MECN     N3       NG1T1   -0.460000       14.0070           0
     31647 WT13     809      MECN     C1       CG331   -0.170000       12.0110           0
     31648 WT13     809      MECN     H11      HGA3     0.090000        1.0080           0
     31649 WT13     809      MECN     H12      HGA3     0.090000        1.0080           0
     31650 WT13     809      MECN     H13      HGA3     0.090000        1.0080           0
     31651 WT13     809      MECN     C2       CG1N1    0.360000       12.0110           0
     31652 WT13     809      MECN     N3       NG1T1   -0.460000       14.0070           0
     31653 WT13     815      MECN     C1       CG331   -0.170000       12.0110           0
     31654 WT13     815      MECN     H11      HGA3     0.090000        1.0080           0
     31655 WT13     815      MECN     H12      HGA3     0.090000        1.0080           0
     31656 WT13     815      MECN     H13      HGA3     0.090000        1.0080           0
     31657 WT13     815      MECN     C2       CG1N1    0.360000       12.0110           0
     31658 WT13     815      MECN     N3       NG1T1   -0.460000       14.0070           0
     31659 WT13     817      MECN     C1       CG331   -0.170000       12.0110           0
     31660 WT13     817      MECN     H11      HGA3     0.090000        1.0080           0
     31661 WT13     817      MECN     H12      HGA3     0.090000        1.0080           0
     31662 WT13     817      MECN     H13      HGA3     0.090000        1.0080           0
     31663 WT13     817      MECN     C2       CG1N1    0.360000       12.0110           0
     31664 WT13     817      MECN     N3       NG1T1   -0.460000       14.0070           0
     31665 WT13     818      MECN     C1       CG331   -0.170000       12.0110           0
     31666 WT13     818      MECN     H11      HGA3     0.090000        1.0080           0
     31667 WT13     818      MECN     H12      HGA3     0.090000        1.0080           0
     31668 WT13     818      MECN     H13      HGA3     0.090000        1.0080           0
     31669 WT13     818      MECN     C2       CG1N1    0.360000       12.0110           0
     31670 WT13     818      MECN     N3       NG1T1   -0.460000       14.0070           0
     31671 WT13     821      MECN     C1       CG331   -0.170000       12.0110           0
     31672 WT13     821      MECN     H11      HGA3     0.090000        1.0080           0
     31673 WT13     821      MECN     H12      HGA3     0.090000        1.0080           0
     31674 WT13     821      MECN     H13      HGA3     0.090000        1.0080           0
     31675 WT13     821      MECN     C2       CG1N1    0.360000       12.0110           0
     31676 WT13     821      MECN     N3       NG1T1   -0.460000       14.0070           0
     31677 WT13     822      MECN     C1       CG331   -0.170000       12.0110           0
     31678 WT13     822      MECN     H11      HGA3     0.090000        1.0080           0
     31679 WT13     822      MECN     H12      HGA3     0.090000        1.0080           0
     31680 WT13     822      MECN     H13      HGA3     0.090000        1.0080           0
     31681 WT13     822      MECN     C2       CG1N1    0.360000       12.0110           0
     31682 WT13     822      MECN     N3       NG1T1   -0.460000       14.0070           0
     31683 WT13     823      MECN     C1       CG331   -0.170000       12.0110           0
     31684 WT13     823      MECN     H11      HGA3     0.090000        1.0080           0
     31685 WT13     823      MECN     H12      HGA3     0.090000        1.0080           0
     31686 WT13     823      MECN     H13      HGA3     0.090000        1.0080           0
     31687 WT13     823      MECN     C2       CG1N1    0.360000       12.0110           0
     31688 WT13     823      MECN     N3       NG1T1   -0.460000       14.0070           0
     31689 WT13     827      MECN     C1       CG331   -0.170000       12.0110           0
     31690 WT13     827      MECN     H11      HGA3     0.090000        1.0080           0
     31691 WT13     827      MECN     H12      HGA3     0.090000        1.0080           0
     31692 WT13     827      MECN     H13      HGA3     0.090000        1.0080           0
     31693 WT13     827      MECN     C2       CG1N1    0.360000       12.0110           0
     31694 WT13     827      MECN     N3       NG1T1   -0.460000       14.0070           0
     31695 WT13     828      MECN     C1       CG331   -0.170000       12.0110           0
     31696 WT13     828      MECN     H11      HGA3     0.090000        1.0080           0
     31697 WT13     828      MECN     H12      HGA3     0.090000        1.0080           0
     31698 WT13     828      MECN     H13      HGA3     0.090000        1.0080           0
     31699 WT13     828      MECN     C2       CG1N1    0.360000       12.0110           0
     31700 WT13     828      MECN     N3       NG1T1   -0.460000       14.0070           0
     31701 WT13     832      MECN     C1       CG331   -0.170000       12.0110           0
     31702 WT13     832      MECN     H11      HGA3     0.090000        1.0080           0
     31703 WT13     832      MECN     H12      HGA3     0.090000        1.0080           0
     31704 WT13     832      MECN     H13      HGA3     0.090000        1.0080           0
     31705 WT13     832      MECN     C2       CG1N1    0.360000       12.0110           0
     31706 WT13     832      MECN     N3       NG1T1   -0.460000       14.0070           0
     31707 WT13     833      MECN     C1       CG331   -0.170000       12.0110           0
     31708 WT13     833      MECN     H11      HGA3     0.090000        1.0080           0
     31709 WT13     833      MECN     H12      HGA3     0.090000        1.0080           0
     31710 WT13     833      MECN     H13      HGA3     0.090000        1.0080           0
     31711 WT13     833      MECN     C2       CG1N1    0.360000       12.0110           0
     31712 WT13     833      MECN     N3       NG1T1   -0.460000       14.0070           0
     31713 WT13     834      MECN     C1       CG331   -0.170000       12.0110           0
     31714 WT13     834      MECN     H11      HGA3     0.090000        1.0080           0
     31715 WT13     834      MECN     H12      HGA3     0.090000        1.0080           0
     31716 WT13     834      MECN     H13      HGA3     0.090000        1.0080           0
     31717 WT13     834      MECN     C2       CG1N1    0.360000       12.0110           0
     31718 WT13     834      MECN     N3       NG1T1   -0.460000       14.0070           0
     31719 WT13     835      MECN     C1       CG331   -0.170000       12.0110           0
     31720 WT13     835      MECN     H11      HGA3     0.090000        1.0080           0
     31721 WT13     835      MECN     H12      HGA3     0.090000        1.0080           0
     31722 WT13     835      MECN     H13      HGA3     0.090000        1.0080           0
     31723 WT13     835      MECN     C2       CG1N1    0.360000       12.0110           0
     31724 WT13     835      MECN     N3       NG1T1   -0.460000       14.0070           0
     31725 WT13     839      MECN     C1       CG331   -0.170000       12.0110           0
     31726 WT13     839      MECN     H11      HGA3     0.090000        1.0080           0
     31727 WT13     839      MECN     H12      HGA3     0.090000        1.0080           0
     31728 WT13     839      MECN     H13      HGA3     0.090000        1.0080           0
     31729 WT13     839      MECN     C2       CG1N1    0.360000       12.0110           0
     31730 WT13     839      MECN     N3       NG1T1   -0.460000       14.0070           0
     31731 WT13     840      MECN     C1       CG331   -0.170000       12.0110           0
     31732 WT13     840      MECN     H11      HGA3     0.090000        1.0080           0
     31733 WT13     840      MECN     H12      HGA3     0.090000        1.0080           0
     31734 WT13     840      MECN     H13      HGA3     0.090000        1.0080           0
     31735 WT13     840      MECN     C2       CG1N1    0.360000       12.0110           0
     31736 WT13     840      MECN     N3       NG1T1   -0.460000       14.0070           0
     31737 WT13     841      MECN     C1       CG331   -0.170000       12.0110           0
     31738 WT13     841      MECN     H11      HGA3     0.090000        1.0080           0
     31739 WT13     841      MECN     H12      HGA3     0.090000        1.0080           0
     31740 WT13     841      MECN     H13      HGA3     0.090000        1.0080           0
     31741 WT13     841      MECN     C2       CG1N1    0.360000       12.0110           0
     31742 WT13     841      MECN     N3       NG1T1   -0.460000       14.0070           0
     31743 WT13     846      MECN     C1       CG331   -0.170000       12.0110           0
     31744 WT13     846      MECN     H11      HGA3     0.090000        1.0080           0
     31745 WT13     846      MECN     H12      HGA3     0.090000        1.0080           0
     31746 WT13     846      MECN     H13      HGA3     0.090000        1.0080           0
     31747 WT13     846      MECN     C2       CG1N1    0.360000       12.0110           0
     31748 WT13     846      MECN     N3       NG1T1   -0.460000       14.0070           0
     31749 WT13     848      MECN     C1       CG331   -0.170000       12.0110           0
     31750 WT13     848      MECN     H11      HGA3     0.090000        1.0080           0
     31751 WT13     848      MECN     H12      HGA3     0.090000        1.0080           0
     31752 WT13     848      MECN     H13      HGA3     0.090000        1.0080           0
     31753 WT13     848      MECN     C2       CG1N1    0.360000       12.0110           0
     31754 WT13     848      MECN     N3       NG1T1   -0.460000       14.0070           0
     31755 WT13     849      MECN     C1       CG331   -0.170000       12.0110           0
     31756 WT13     849      MECN     H11      HGA3     0.090000        1.0080           0
     31757 WT13     849      MECN     H12      HGA3     0.090000        1.0080           0
     31758 WT13     849      MECN     H13      HGA3     0.090000        1.0080           0
     31759 WT13     849      MECN     C2       CG1N1    0.360000       12.0110           0
     31760 WT13     849      MECN     N3       NG1T1   -0.460000       14.0070           0
     31761 WT13     856      MECN     C1       CG331   -0.170000       12.0110           0
     31762 WT13     856      MECN     H11      HGA3     0.090000        1.0080           0
     31763 WT13     856      MECN     H12      HGA3     0.090000        1.0080           0
     31764 WT13     856      MECN     H13      HGA3     0.090000        1.0080           0
     31765 WT13     856      MECN     C2       CG1N1    0.360000       12.0110           0
     31766 WT13     856      MECN     N3       NG1T1   -0.460000       14.0070           0
     31767 WT13     859      MECN     C1       CG331   -0.170000       12.0110           0
     31768 WT13     859      MECN     H11      HGA3     0.090000        1.0080           0
     31769 WT13     859      MECN     H12      HGA3     0.090000        1.0080           0
     31770 WT13     859      MECN     H13      HGA3     0.090000        1.0080           0
     31771 WT13     859      MECN     C2       CG1N1    0.360000       12.0110           0
     31772 WT13     859      MECN     N3       NG1T1   -0.460000       14.0070           0
     31773 WT13     860      MECN     C1       CG331   -0.170000       12.0110           0
     31774 WT13     860      MECN     H11      HGA3     0.090000        1.0080           0
     31775 WT13     860      MECN     H12      HGA3     0.090000        1.0080           0
     31776 WT13     860      MECN     H13      HGA3     0.090000        1.0080           0
     31777 WT13     860      MECN     C2       CG1N1    0.360000       12.0110           0
     31778 WT13     860      MECN     N3       NG1T1   -0.460000       14.0070           0
     31779 WT13     862      MECN     C1       CG331   -0.170000       12.0110           0
     31780 WT13     862      MECN     H11      HGA3     0.090000        1.0080           0
     31781 WT13     862      MECN     H12      HGA3     0.090000        1.0080           0
     31782 WT13     862      MECN     H13      HGA3     0.090000        1.0080           0
     31783 WT13     862      MECN     C2       CG1N1    0.360000       12.0110           0
     31784 WT13     862      MECN     N3       NG1T1   -0.460000       14.0070           0
     31785 WT13     863      MECN     C1       CG331   -0.170000       12.0110           0
     31786 WT13     863      MECN     H11      HGA3     0.090000        1.0080           0
     31787 WT13     863      MECN     H12      HGA3     0.090000        1.0080           0
     31788 WT13     863      MECN     H13      HGA3     0.090000        1.0080           0
     31789 WT13     863      MECN     C2       CG1N1    0.360000       12.0110           0
     31790 WT13     863      MECN     N3       NG1T1   -0.460000       14.0070           0
     31791 WT13     864      MECN     C1       CG331   -0.170000       12.0110           0
     31792 WT13     864      MECN     H11      HGA3     0.090000        1.0080           0
     31793 WT13     864      MECN     H12      HGA3     0.090000        1.0080           0
     31794 WT13     864      MECN     H13      HGA3     0.090000        1.0080           0
     31795 WT13     864      MECN     C2       CG1N1    0.360000       12.0110           0
     31796 WT13     864      MECN     N3       NG1T1   -0.460000       14.0070           0
     31797 WT13     866      MECN     C1       CG331   -0.170000       12.0110           0
     31798 WT13     866      MECN     H11      HGA3     0.090000        1.0080           0
     31799 WT13     866      MECN     H12      HGA3     0.090000        1.0080           0
     31800 WT13     866      MECN     H13      HGA3     0.090000        1.0080           0
     31801 WT13     866      MECN     C2       CG1N1    0.360000       12.0110           0
     31802 WT13     866      MECN     N3       NG1T1   -0.460000       14.0070           0
     31803 WT13     867      MECN     C1       CG331   -0.170000       12.0110           0
     31804 WT13     867      MECN     H11      HGA3     0.090000        1.0080           0
     31805 WT13     867      MECN     H12      HGA3     0.090000        1.0080           0
     31806 WT13     867      MECN     H13      HGA3     0.090000        1.0080           0
     31807 WT13     867      MECN     C2       CG1N1    0.360000       12.0110           0
     31808 WT13     867      MECN     N3       NG1T1   -0.460000       14.0070           0
     31809 WT13     873      MECN     C1       CG331   -0.170000       12.0110           0
     31810 WT13     873      MECN     H11      HGA3     0.090000        1.0080           0
     31811 WT13     873      MECN     H12      HGA3     0.090000        1.0080           0
     31812 WT13     873      MECN     H13      HGA3     0.090000        1.0080           0
     31813 WT13     873      MECN     C2       CG1N1    0.360000       12.0110           0
     31814 WT13     873      MECN     N3       NG1T1   -0.460000       14.0070           0
     31815 WT13     875      MECN     C1       CG331   -0.170000       12.0110           0
     31816 WT13     875      MECN     H11      HGA3     0.090000        1.0080           0
     31817 WT13     875      MECN     H12      HGA3     0.090000        1.0080           0
     31818 WT13     875      MECN     H13      HGA3     0.090000        1.0080           0
     31819 WT13     875      MECN     C2       CG1N1    0.360000       12.0110           0
     31820 WT13     875      MECN     N3       NG1T1   -0.460000       14.0070           0
     31821 WT13     876      MECN     C1       CG331   -0.170000       12.0110           0
     31822 WT13     876      MECN     H11      HGA3     0.090000        1.0080           0
     31823 WT13     876      MECN     H12      HGA3     0.090000        1.0080           0
     31824 WT13     876      MECN     H13      HGA3     0.090000        1.0080           0
     31825 WT13     876      MECN     C2       CG1N1    0.360000       12.0110           0
     31826 WT13     876      MECN     N3       NG1T1   -0.460000       14.0070           0
     31827 WT13     878      MECN     C1       CG331   -0.170000       12.0110           0
     31828 WT13     878      MECN     H11      HGA3     0.090000        1.0080           0
     31829 WT13     878      MECN     H12      HGA3     0.090000        1.0080           0
     31830 WT13     878      MECN     H13      HGA3     0.090000        1.0080           0
     31831 WT13     878      MECN     C2       CG1N1    0.360000       12.0110           0
     31832 WT13     878      MECN     N3       NG1T1   -0.460000       14.0070           0
     31833 WT13     882      MECN     C1       CG331   -0.170000       12.0110           0
     31834 WT13     882      MECN     H11      HGA3     0.090000        1.0080           0
     31835 WT13     882      MECN     H12      HGA3     0.090000        1.0080           0
     31836 WT13     882      MECN     H13      HGA3     0.090000        1.0080           0
     31837 WT13     882      MECN     C2       CG1N1    0.360000       12.0110           0
     31838 WT13     882      MECN     N3       NG1T1   -0.460000       14.0070           0
     31839 WT13     886      MECN     C1       CG331   -0.170000       12.0110           0
     31840 WT13     886      MECN     H11      HGA3     0.090000        1.0080           0
     31841 WT13     886      MECN     H12      HGA3     0.090000        1.0080           0
     31842 WT13     886      MECN     H13      HGA3     0.090000        1.0080           0
     31843 WT13     886      MECN     C2       CG1N1    0.360000       12.0110           0
     31844 WT13     886      MECN     N3       NG1T1   -0.460000       14.0070           0
     31845 WT13     888      MECN     C1       CG331   -0.170000       12.0110           0
     31846 WT13     888      MECN     H11      HGA3     0.090000        1.0080           0
     31847 WT13     888      MECN     H12      HGA3     0.090000        1.0080           0
     31848 WT13     888      MECN     H13      HGA3     0.090000        1.0080           0
     31849 WT13     888      MECN     C2       CG1N1    0.360000       12.0110           0
     31850 WT13     888      MECN     N3       NG1T1   -0.460000       14.0070           0
     31851 WT13     890      MECN     C1       CG331   -0.170000       12.0110           0
     31852 WT13     890      MECN     H11      HGA3     0.090000        1.0080           0
     31853 WT13     890      MECN     H12      HGA3     0.090000        1.0080           0
     31854 WT13     890      MECN     H13      HGA3     0.090000        1.0080           0
     31855 WT13     890      MECN     C2       CG1N1    0.360000       12.0110           0
     31856 WT13     890      MECN     N3       NG1T1   -0.460000       14.0070           0
     31857 WT13     891      MECN     C1       CG331   -0.170000       12.0110           0
     31858 WT13     891      MECN     H11      HGA3     0.090000        1.0080           0
     31859 WT13     891      MECN     H12      HGA3     0.090000        1.0080           0
     31860 WT13     891      MECN     H13      HGA3     0.090000        1.0080           0
     31861 WT13     891      MECN     C2       CG1N1    0.360000       12.0110           0
     31862 WT13     891      MECN     N3       NG1T1   -0.460000       14.0070           0
     31863 WT13     892      MECN     C1       CG331   -0.170000       12.0110           0
     31864 WT13     892      MECN     H11      HGA3     0.090000        1.0080           0
     31865 WT13     892      MECN     H12      HGA3     0.090000        1.0080           0
     31866 WT13     892      MECN     H13      HGA3     0.090000        1.0080           0
     31867 WT13     892      MECN     C2       CG1N1    0.360000       12.0110           0
     31868 WT13     892      MECN     N3       NG1T1   -0.460000       14.0070           0
     31869 WT13     895      MECN     C1       CG331   -0.170000       12.0110           0
     31870 WT13     895      MECN     H11      HGA3     0.090000        1.0080           0
     31871 WT13     895      MECN     H12      HGA3     0.090000        1.0080           0
     31872 WT13     895      MECN     H13      HGA3     0.090000        1.0080           0
     31873 WT13     895      MECN     C2       CG1N1    0.360000       12.0110           0
     31874 WT13     895      MECN     N3       NG1T1   -0.460000       14.0070           0
     31875 WT13     897      MECN     C1       CG331   -0.170000       12.0110           0
     31876 WT13     897      MECN     H11      HGA3     0.090000        1.0080           0
     31877 WT13     897      MECN     H12      HGA3     0.090000        1.0080           0
     31878 WT13     897      MECN     H13      HGA3     0.090000        1.0080           0
     31879 WT13     897      MECN     C2       CG1N1    0.360000       12.0110           0
     31880 WT13     897      MECN     N3       NG1T1   -0.460000       14.0070           0
     31881 WT13     898      MECN     C1       CG331   -0.170000       12.0110           0
     31882 WT13     898      MECN     H11      HGA3     0.090000        1.0080           0
     31883 WT13     898      MECN     H12      HGA3     0.090000        1.0080           0
     31884 WT13     898      MECN     H13      HGA3     0.090000        1.0080           0
     31885 WT13     898      MECN     C2       CG1N1    0.360000       12.0110           0
     31886 WT13     898      MECN     N3       NG1T1   -0.460000       14.0070           0
     31887 WT13     899      MECN     C1       CG331   -0.170000       12.0110           0
     31888 WT13     899      MECN     H11      HGA3     0.090000        1.0080           0
     31889 WT13     899      MECN     H12      HGA3     0.090000        1.0080           0
     31890 WT13     899      MECN     H13      HGA3     0.090000        1.0080           0
     31891 WT13     899      MECN     C2       CG1N1    0.360000       12.0110           0
     31892 WT13     899      MECN     N3       NG1T1   -0.460000       14.0070           0
     31893 WT13     902      MECN     C1       CG331   -0.170000       12.0110           0
     31894 WT13     902      MECN     H11      HGA3     0.090000        1.0080           0
     31895 WT13     902      MECN     H12      HGA3     0.090000        1.0080           0
     31896 WT13     902      MECN     H13      HGA3     0.090000        1.0080           0
     31897 WT13     902      MECN     C2       CG1N1    0.360000       12.0110           0
     31898 WT13     902      MECN     N3       NG1T1   -0.460000       14.0070           0
     31899 WT13     904      MECN     C1       CG331   -0.170000       12.0110           0
     31900 WT13     904      MECN     H11      HGA3     0.090000        1.0080           0
     31901 WT13     904      MECN     H12      HGA3     0.090000        1.0080           0
     31902 WT13     904      MECN     H13      HGA3     0.090000        1.0080           0
     31903 WT13     904      MECN     C2       CG1N1    0.360000       12.0110           0
     31904 WT13     904      MECN     N3       NG1T1   -0.460000       14.0070           0
     31905 WT13     905      MECN     C1       CG331   -0.170000       12.0110           0
     31906 WT13     905      MECN     H11      HGA3     0.090000        1.0080           0
     31907 WT13     905      MECN     H12      HGA3     0.090000        1.0080           0
     31908 WT13     905      MECN     H13      HGA3     0.090000        1.0080           0
     31909 WT13     905      MECN     C2       CG1N1    0.360000       12.0110           0
     31910 WT13     905      MECN     N3       NG1T1   -0.460000       14.0070           0
     31911 WT13     908      MECN     C1       CG331   -0.170000       12.0110           0
     31912 WT13     908      MECN     H11      HGA3     0.090000        1.0080           0
     31913 WT13     908      MECN     H12      HGA3     0.090000        1.0080           0
     31914 WT13     908      MECN     H13      HGA3     0.090000        1.0080           0
     31915 WT13     908      MECN     C2       CG1N1    0.360000       12.0110           0
     31916 WT13     908      MECN     N3       NG1T1   -0.460000       14.0070           0
     31917 WT13     909      MECN     C1       CG331   -0.170000       12.0110           0
     31918 WT13     909      MECN     H11      HGA3     0.090000        1.0080           0
     31919 WT13     909      MECN     H12      HGA3     0.090000        1.0080           0
     31920 WT13     909      MECN     H13      HGA3     0.090000        1.0080           0
     31921 WT13     909      MECN     C2       CG1N1    0.360000       12.0110           0
     31922 WT13     909      MECN     N3       NG1T1   -0.460000       14.0070           0
     31923 WT13     910      MECN     C1       CG331   -0.170000       12.0110           0
     31924 WT13     910      MECN     H11      HGA3     0.090000        1.0080           0
     31925 WT13     910      MECN     H12      HGA3     0.090000        1.0080           0
     31926 WT13     910      MECN     H13      HGA3     0.090000        1.0080           0
     31927 WT13     910      MECN     C2       CG1N1    0.360000       12.0110           0
     31928 WT13     910      MECN     N3       NG1T1   -0.460000       14.0070           0
     31929 WT13     911      MECN     C1       CG331   -0.170000       12.0110           0
     31930 WT13     911      MECN     H11      HGA3     0.090000        1.0080           0
     31931 WT13     911      MECN     H12      HGA3     0.090000        1.0080           0
     31932 WT13     911      MECN     H13      HGA3     0.090000        1.0080           0
     31933 WT13     911      MECN     C2       CG1N1    0.360000       12.0110           0
     31934 WT13     911      MECN     N3       NG1T1   -0.460000       14.0070           0
     31935 WT13     913      MECN     C1       CG331   -0.170000       12.0110           0
     31936 WT13     913      MECN     H11      HGA3     0.090000        1.0080           0
     31937 WT13     913      MECN     H12      HGA3     0.090000        1.0080           0
     31938 WT13     913      MECN     H13      HGA3     0.090000        1.0080           0
     31939 WT13     913      MECN     C2       CG1N1    0.360000       12.0110           0
     31940 WT13     913      MECN     N3       NG1T1   -0.460000       14.0070           0
     31941 WT13     914      MECN     C1       CG331   -0.170000       12.0110           0
     31942 WT13     914      MECN     H11      HGA3     0.090000        1.0080           0
     31943 WT13     914      MECN     H12      HGA3     0.090000        1.0080           0
     31944 WT13     914      MECN     H13      HGA3     0.090000        1.0080           0
     31945 WT13     914      MECN     C2       CG1N1    0.360000       12.0110           0
     31946 WT13     914      MECN     N3       NG1T1   -0.460000       14.0070           0
     31947 WT13     915      MECN     C1       CG331   -0.170000       12.0110           0
     31948 WT13     915      MECN     H11      HGA3     0.090000        1.0080           0
     31949 WT13     915      MECN     H12      HGA3     0.090000        1.0080           0
     31950 WT13     915      MECN     H13      HGA3     0.090000        1.0080           0
     31951 WT13     915      MECN     C2       CG1N1    0.360000       12.0110           0
     31952 WT13     915      MECN     N3       NG1T1   -0.460000       14.0070           0
     31953 WT13     916      MECN     C1       CG331   -0.170000       12.0110           0
     31954 WT13     916      MECN     H11      HGA3     0.090000        1.0080           0
     31955 WT13     916      MECN     H12      HGA3     0.090000        1.0080           0
     31956 WT13     916      MECN     H13      HGA3     0.090000        1.0080           0
     31957 WT13     916      MECN     C2       CG1N1    0.360000       12.0110           0
     31958 WT13     916      MECN     N3       NG1T1   -0.460000       14.0070           0
     31959 WT13     917      MECN     C1       CG331   -0.170000       12.0110           0
     31960 WT13     917      MECN     H11      HGA3     0.090000        1.0080           0
     31961 WT13     917      MECN     H12      HGA3     0.090000        1.0080           0
     31962 WT13     917      MECN     H13      HGA3     0.090000        1.0080           0
     31963 WT13     917      MECN     C2       CG1N1    0.360000       12.0110           0
     31964 WT13     917      MECN     N3       NG1T1   -0.460000       14.0070           0
     31965 WT13     918      MECN     C1       CG331   -0.170000       12.0110           0
     31966 WT13     918      MECN     H11      HGA3     0.090000        1.0080           0
     31967 WT13     918      MECN     H12      HGA3     0.090000        1.0080           0
     31968 WT13     918      MECN     H13      HGA3     0.090000        1.0080           0
     31969 WT13     918      MECN     C2       CG1N1    0.360000       12.0110           0
     31970 WT13     918      MECN     N3       NG1T1   -0.460000       14.0070           0
     31971 WT13     919      MECN     C1       CG331   -0.170000       12.0110           0
     31972 WT13     919      MECN     H11      HGA3     0.090000        1.0080           0
     31973 WT13     919      MECN     H12      HGA3     0.090000        1.0080           0
     31974 WT13     919      MECN     H13      HGA3     0.090000        1.0080           0
     31975 WT13     919      MECN     C2       CG1N1    0.360000       12.0110           0
     31976 WT13     919      MECN     N3       NG1T1   -0.460000       14.0070           0
     31977 WT13     920      MECN     C1       CG331   -0.170000       12.0110           0
     31978 WT13     920      MECN     H11      HGA3     0.090000        1.0080           0
     31979 WT13     920      MECN     H12      HGA3     0.090000        1.0080           0
     31980 WT13     920      MECN     H13      HGA3     0.090000        1.0080           0
     31981 WT13     920      MECN     C2       CG1N1    0.360000       12.0110           0
     31982 WT13     920      MECN     N3       NG1T1   -0.460000       14.0070           0
     31983 WT13     922      MECN     C1       CG331   -0.170000       12.0110           0
     31984 WT13     922      MECN     H11      HGA3     0.090000        1.0080           0
     31985 WT13     922      MECN     H12      HGA3     0.090000        1.0080           0
     31986 WT13     922      MECN     H13      HGA3     0.090000        1.0080           0
     31987 WT13     922      MECN     C2       CG1N1    0.360000       12.0110           0
     31988 WT13     922      MECN     N3       NG1T1   -0.460000       14.0070           0
     31989 WT13     923      MECN     C1       CG331   -0.170000       12.0110           0
     31990 WT13     923      MECN     H11      HGA3     0.090000        1.0080           0
     31991 WT13     923      MECN     H12      HGA3     0.090000        1.0080           0
     31992 WT13     923      MECN     H13      HGA3     0.090000        1.0080           0
     31993 WT13     923      MECN     C2       CG1N1    0.360000       12.0110           0
     31994 WT13     923      MECN     N3       NG1T1   -0.460000       14.0070           0
     31995 WT13     924      MECN     C1       CG331   -0.170000       12.0110           0
     31996 WT13     924      MECN     H11      HGA3     0.090000        1.0080           0
     31997 WT13     924      MECN     H12      HGA3     0.090000        1.0080           0
     31998 WT13     924      MECN     H13      HGA3     0.090000        1.0080           0
     31999 WT13     924      MECN     C2       CG1N1    0.360000       12.0110           0
     32000 WT13     924      MECN     N3       NG1T1   -0.460000       14.0070           0
     32001 WT13     926      MECN     C1       CG331   -0.170000       12.0110           0
     32002 WT13     926      MECN     H11      HGA3     0.090000        1.0080           0
     32003 WT13     926      MECN     H12      HGA3     0.090000        1.0080           0
     32004 WT13     926      MECN     H13      HGA3     0.090000        1.0080           0
     32005 WT13     926      MECN     C2       CG1N1    0.360000       12.0110           0
     32006 WT13     926      MECN     N3       NG1T1   -0.460000       14.0070           0
     32007 WT13     928      MECN     C1       CG331   -0.170000       12.0110           0
     32008 WT13     928      MECN     H11      HGA3     0.090000        1.0080           0
     32009 WT13     928      MECN     H12      HGA3     0.090000        1.0080           0
     32010 WT13     928      MECN     H13      HGA3     0.090000        1.0080           0
     32011 WT13     928      MECN     C2       CG1N1    0.360000       12.0110           0
     32012 WT13     928      MECN     N3       NG1T1   -0.460000       14.0070           0
     32013 WT13     933      MECN     C1       CG331   -0.170000       12.0110           0
     32014 WT13     933      MECN     H11      HGA3     0.090000        1.0080           0
     32015 WT13     933      MECN     H12      HGA3     0.090000        1.0080           0
     32016 WT13     933      MECN     H13      HGA3     0.090000        1.0080           0
     32017 WT13     933      MECN     C2       CG1N1    0.360000       12.0110           0
     32018 WT13     933      MECN     N3       NG1T1   -0.460000       14.0070           0
     32019 WT13     934      MECN     C1       CG331   -0.170000       12.0110           0
     32020 WT13     934      MECN     H11      HGA3     0.090000        1.0080           0
     32021 WT13     934      MECN     H12      HGA3     0.090000        1.0080           0
     32022 WT13     934      MECN     H13      HGA3     0.090000        1.0080           0
     32023 WT13     934      MECN     C2       CG1N1    0.360000       12.0110           0
     32024 WT13     934      MECN     N3       NG1T1   -0.460000       14.0070           0
     32025 WT13     935      MECN     C1       CG331   -0.170000       12.0110           0
     32026 WT13     935      MECN     H11      HGA3     0.090000        1.0080           0
     32027 WT13     935      MECN     H12      HGA3     0.090000        1.0080           0
     32028 WT13     935      MECN     H13      HGA3     0.090000        1.0080           0
     32029 WT13     935      MECN     C2       CG1N1    0.360000       12.0110           0
     32030 WT13     935      MECN     N3       NG1T1   -0.460000       14.0070           0
     32031 WT13     938      MECN     C1       CG331   -0.170000       12.0110           0
     32032 WT13     938      MECN     H11      HGA3     0.090000        1.0080           0
     32033 WT13     938      MECN     H12      HGA3     0.090000        1.0080           0
     32034 WT13     938      MECN     H13      HGA3     0.090000        1.0080           0
     32035 WT13     938      MECN     C2       CG1N1    0.360000       12.0110           0
     32036 WT13     938      MECN     N3       NG1T1   -0.460000       14.0070           0
     32037 WT13     939      MECN     C1       CG331   -0.170000       12.0110           0
     32038 WT13     939      MECN     H11      HGA3     0.090000        1.0080           0
     32039 WT13     939      MECN     H12      HGA3     0.090000        1.0080           0
     32040 WT13     939      MECN     H13      HGA3     0.090000        1.0080           0
     32041 WT13     939      MECN     C2       CG1N1    0.360000       12.0110           0
     32042 WT13     939      MECN     N3       NG1T1   -0.460000       14.0070           0
     32043 WT13     941      MECN     C1       CG331   -0.170000       12.0110           0
     32044 WT13     941      MECN     H11      HGA3     0.090000        1.0080           0
     32045 WT13     941      MECN     H12      HGA3     0.090000        1.0080           0
     32046 WT13     941      MECN     H13      HGA3     0.090000        1.0080           0
     32047 WT13     941      MECN     C2       CG1N1    0.360000       12.0110           0
     32048 WT13     941      MECN     N3       NG1T1   -0.460000       14.0070           0
     32049 WT13     943      MECN     C1       CG331   -0.170000       12.0110           0
     32050 WT13     943      MECN     H11      HGA3     0.090000        1.0080           0
     32051 WT13     943      MECN     H12      HGA3     0.090000        1.0080           0
     32052 WT13     943      MECN     H13      HGA3     0.090000        1.0080           0
     32053 WT13     943      MECN     C2       CG1N1    0.360000       12.0110           0
     32054 WT13     943      MECN     N3       NG1T1   -0.460000       14.0070           0
     32055 WT13     945      MECN     C1       CG331   -0.170000       12.0110           0
     32056 WT13     945      MECN     H11      HGA3     0.090000        1.0080           0
     32057 WT13     945      MECN     H12      HGA3     0.090000        1.0080           0
     32058 WT13     945      MECN     H13      HGA3     0.090000        1.0080           0
     32059 WT13     945      MECN     C2       CG1N1    0.360000       12.0110           0
     32060 WT13     945      MECN     N3       NG1T1   -0.460000       14.0070           0
     32061 WT13     949      MECN     C1       CG331   -0.170000       12.0110           0
     32062 WT13     949      MECN     H11      HGA3     0.090000        1.0080           0
     32063 WT13     949      MECN     H12      HGA3     0.090000        1.0080           0
     32064 WT13     949      MECN     H13      HGA3     0.090000        1.0080           0
     32065 WT13     949      MECN     C2       CG1N1    0.360000       12.0110           0
     32066 WT13     949      MECN     N3       NG1T1   -0.460000       14.0070           0
     32067 WT13     951      MECN     C1       CG331   -0.170000       12.0110           0
     32068 WT13     951      MECN     H11      HGA3     0.090000        1.0080           0
     32069 WT13     951      MECN     H12      HGA3     0.090000        1.0080           0
     32070 WT13     951      MECN     H13      HGA3     0.090000        1.0080           0
     32071 WT13     951      MECN     C2       CG1N1    0.360000       12.0110           0
     32072 WT13     951      MECN     N3       NG1T1   -0.460000       14.0070           0
     32073 WT13     956      MECN     C1       CG331   -0.170000       12.0110           0
     32074 WT13     956      MECN     H11      HGA3     0.090000        1.0080           0
     32075 WT13     956      MECN     H12      HGA3     0.090000        1.0080           0
     32076 WT13     956      MECN     H13      HGA3     0.090000        1.0080           0
     32077 WT13     956      MECN     C2       CG1N1    0.360000       12.0110           0
     32078 WT13     956      MECN     N3       NG1T1   -0.460000       14.0070           0
     32079 WT13     957      MECN     C1       CG331   -0.170000       12.0110           0
     32080 WT13     957      MECN     H11      HGA3     0.090000        1.0080           0
     32081 WT13     957      MECN     H12      HGA3     0.090000        1.0080           0
     32082 WT13     957      MECN     H13      HGA3     0.090000        1.0080           0
     32083 WT13     957      MECN     C2       CG1N1    0.360000       12.0110           0
     32084 WT13     957      MECN     N3       NG1T1   -0.460000       14.0070           0
     32085 WT13     961      MECN     C1       CG331   -0.170000       12.0110           0
     32086 WT13     961      MECN     H11      HGA3     0.090000        1.0080           0
     32087 WT13     961      MECN     H12      HGA3     0.090000        1.0080           0
     32088 WT13     961      MECN     H13      HGA3     0.090000        1.0080           0
     32089 WT13     961      MECN     C2       CG1N1    0.360000       12.0110           0
     32090 WT13     961      MECN     N3       NG1T1   -0.460000       14.0070           0
     32091 WT13     965      MECN     C1       CG331   -0.170000       12.0110           0
     32092 WT13     965      MECN     H11      HGA3     0.090000        1.0080           0
     32093 WT13     965      MECN     H12      HGA3     0.090000        1.0080           0
     32094 WT13     965      MECN     H13      HGA3     0.090000        1.0080           0
     32095 WT13     965      MECN     C2       CG1N1    0.360000       12.0110           0
     32096 WT13     965      MECN     N3       NG1T1   -0.460000       14.0070           0
     32097 WT13     966      MECN     C1       CG331   -0.170000       12.0110           0
     32098 WT13     966      MECN     H11      HGA3     0.090000        1.0080           0
     32099 WT13     966      MECN     H12      HGA3     0.090000        1.0080           0
     32100 WT13     966      MECN     H13      HGA3     0.090000        1.0080           0
     32101 WT13     966      MECN     C2       CG1N1    0.360000       12.0110           0
     32102 WT13     966      MECN     N3       NG1T1   -0.460000       14.0070           0
     32103 WT13     968      MECN     C1       CG331   -0.170000       12.0110           0
     32104 WT13     968      MECN     H11      HGA3     0.090000        1.0080           0
     32105 WT13     968      MECN     H12      HGA3     0.090000        1.0080           0
     32106 WT13     968      MECN     H13      HGA3     0.090000        1.0080           0
     32107 WT13     968      MECN     C2       CG1N1    0.360000       12.0110           0
     32108 WT13     968      MECN     N3       NG1T1   -0.460000       14.0070           0
     32109 WT13     977      MECN     C1       CG331   -0.170000       12.0110           0
     32110 WT13     977      MECN     H11      HGA3     0.090000        1.0080           0
     32111 WT13     977      MECN     H12      HGA3     0.090000        1.0080           0
     32112 WT13     977      MECN     H13      HGA3     0.090000        1.0080           0
     32113 WT13     977      MECN     C2       CG1N1    0.360000       12.0110           0
     32114 WT13     977      MECN     N3       NG1T1   -0.460000       14.0070           0
     32115 WT13     978      MECN     C1       CG331   -0.170000       12.0110           0
     32116 WT13     978      MECN     H11      HGA3     0.090000        1.0080           0
     32117 WT13     978      MECN     H12      HGA3     0.090000        1.0080           0
     32118 WT13     978      MECN     H13      HGA3     0.090000        1.0080           0
     32119 WT13     978      MECN     C2       CG1N1    0.360000       12.0110           0
     32120 WT13     978      MECN     N3       NG1T1   -0.460000       14.0070           0
     32121 WT13     983      MECN     C1       CG331   -0.170000       12.0110           0
     32122 WT13     983      MECN     H11      HGA3     0.090000        1.0080           0
     32123 WT13     983      MECN     H12      HGA3     0.090000        1.0080           0
     32124 WT13     983      MECN     H13      HGA3     0.090000        1.0080           0
     32125 WT13     983      MECN     C2       CG1N1    0.360000       12.0110           0
     32126 WT13     983      MECN     N3       NG1T1   -0.460000       14.0070           0
     32127 WT13     984      MECN     C1       CG331   -0.170000       12.0110           0
     32128 WT13     984      MECN     H11      HGA3     0.090000        1.0080           0
     32129 WT13     984      MECN     H12      HGA3     0.090000        1.0080           0
     32130 WT13     984      MECN     H13      HGA3     0.090000        1.0080           0
     32131 WT13     984      MECN     C2       CG1N1    0.360000       12.0110           0
     32132 WT13     984      MECN     N3       NG1T1   -0.460000       14.0070           0
     32133 WT13     985      MECN     C1       CG331   -0.170000       12.0110           0
     32134 WT13     985      MECN     H11      HGA3     0.090000        1.0080           0
     32135 WT13     985      MECN     H12      HGA3     0.090000        1.0080           0
     32136 WT13     985      MECN     H13      HGA3     0.090000        1.0080           0
     32137 WT13     985      MECN     C2       CG1N1    0.360000       12.0110           0
     32138 WT13     985      MECN     N3       NG1T1   -0.460000       14.0070           0
     32139 WT13     986      MECN     C1       CG331   -0.170000       12.0110           0
     32140 WT13     986      MECN     H11      HGA3     0.090000        1.0080           0
     32141 WT13     986      MECN     H12      HGA3     0.090000        1.0080           0
     32142 WT13     986      MECN     H13      HGA3     0.090000        1.0080           0
     32143 WT13     986      MECN     C2       CG1N1    0.360000       12.0110           0
     32144 WT13     986      MECN     N3       NG1T1   -0.460000       14.0070           0
     32145 WT13     987      MECN     C1       CG331   -0.170000       12.0110           0
     32146 WT13     987      MECN     H11      HGA3     0.090000        1.0080           0
     32147 WT13     987      MECN     H12      HGA3     0.090000        1.0080           0
     32148 WT13     987      MECN     H13      HGA3     0.090000        1.0080           0
     32149 WT13     987      MECN     C2       CG1N1    0.360000       12.0110           0
     32150 WT13     987      MECN     N3       NG1T1   -0.460000       14.0070           0
     32151 WT13     988      MECN     C1       CG331   -0.170000       12.0110           0
     32152 WT13     988      MECN     H11      HGA3     0.090000        1.0080           0
     32153 WT13     988      MECN     H12      HGA3     0.090000        1.0080           0
     32154 WT13     988      MECN     H13      HGA3     0.090000        1.0080           0
     32155 WT13     988      MECN     C2       CG1N1    0.360000       12.0110           0
     32156 WT13     988      MECN     N3       NG1T1   -0.460000       14.0070           0
     32157 WT13     989      MECN     C1       CG331   -0.170000       12.0110           0
     32158 WT13     989      MECN     H11      HGA3     0.090000        1.0080           0
     32159 WT13     989      MECN     H12      HGA3     0.090000        1.0080           0
     32160 WT13     989      MECN     H13      HGA3     0.090000        1.0080           0
     32161 WT13     989      MECN     C2       CG1N1    0.360000       12.0110           0
     32162 WT13     989      MECN     N3       NG1T1   -0.460000       14.0070           0
     32163 WT13     990      MECN     C1       CG331   -0.170000       12.0110           0
     32164 WT13     990      MECN     H11      HGA3     0.090000        1.0080           0
     32165 WT13     990      MECN     H12      HGA3     0.090000        1.0080           0
     32166 WT13     990      MECN     H13      HGA3     0.090000        1.0080           0
     32167 WT13     990      MECN     C2       CG1N1    0.360000       12.0110           0
     32168 WT13     990      MECN     N3       NG1T1   -0.460000       14.0070           0
     32169 WT13     991      MECN     C1       CG331   -0.170000       12.0110           0
     32170 WT13     991      MECN     H11      HGA3     0.090000        1.0080           0
     32171 WT13     991      MECN     H12      HGA3     0.090000        1.0080           0
     32172 WT13     991      MECN     H13      HGA3     0.090000        1.0080           0
     32173 WT13     991      MECN     C2       CG1N1    0.360000       12.0110           0
     32174 WT13     991      MECN     N3       NG1T1   -0.460000       14.0070           0
     32175 WT13     992      MECN     C1       CG331   -0.170000       12.0110           0
     32176 WT13     992      MECN     H11      HGA3     0.090000        1.0080           0
     32177 WT13     992      MECN     H12      HGA3     0.090000        1.0080           0
     32178 WT13     992      MECN     H13      HGA3     0.090000        1.0080           0
     32179 WT13     992      MECN     C2       CG1N1    0.360000       12.0110           0
     32180 WT13     992      MECN     N3       NG1T1   -0.460000       14.0070           0
     32181 WT13     993      MECN     C1       CG331   -0.170000       12.0110           0
     32182 WT13     993      MECN     H11      HGA3     0.090000        1.0080           0
     32183 WT13     993      MECN     H12      HGA3     0.090000        1.0080           0
     32184 WT13     993      MECN     H13      HGA3     0.090000        1.0080           0
     32185 WT13     993      MECN     C2       CG1N1    0.360000       12.0110           0
     32186 WT13     993      MECN     N3       NG1T1   -0.460000       14.0070           0
     32187 WT13     994      MECN     C1       CG331   -0.170000       12.0110           0
     32188 WT13     994      MECN     H11      HGA3     0.090000        1.0080           0
     32189 WT13     994      MECN     H12      HGA3     0.090000        1.0080           0
     32190 WT13     994      MECN     H13      HGA3     0.090000        1.0080           0
     32191 WT13     994      MECN     C2       CG1N1    0.360000       12.0110           0
     32192 WT13     994      MECN     N3       NG1T1   -0.460000       14.0070           0
     32193 WT13     999      MECN     C1       CG331   -0.170000       12.0110           0
     32194 WT13     999      MECN     H11      HGA3     0.090000        1.0080           0
     32195 WT13     999      MECN     H12      HGA3     0.090000        1.0080           0
     32196 WT13     999      MECN     H13      HGA3     0.090000        1.0080           0
     32197 WT13     999      MECN     C2       CG1N1    0.360000       12.0110           0
     32198 WT13     999      MECN     N3       NG1T1   -0.460000       14.0070           0
     32199 WT13     1004     MECN     C1       CG331   -0.170000       12.0110           0
     32200 WT13     1004     MECN     H11      HGA3     0.090000        1.0080           0
     32201 WT13     1004     MECN     H12      HGA3     0.090000        1.0080           0
     32202 WT13     1004     MECN     H13      HGA3     0.090000        1.0080           0
     32203 WT13     1004     MECN     C2       CG1N1    0.360000       12.0110           0
     32204 WT13     1004     MECN     N3       NG1T1   -0.460000       14.0070           0
     32205 WT13     1006     MECN     C1       CG331   -0.170000       12.0110           0
     32206 WT13     1006     MECN     H11      HGA3     0.090000        1.0080           0
     32207 WT13     1006     MECN     H12      HGA3     0.090000        1.0080           0
     32208 WT13     1006     MECN     H13      HGA3     0.090000        1.0080           0
     32209 WT13     1006     MECN     C2       CG1N1    0.360000       12.0110           0
     32210 WT13     1006     MECN     N3       NG1T1   -0.460000       14.0070           0
     32211 WT13     1008     MECN     C1       CG331   -0.170000       12.0110           0
     32212 WT13     1008     MECN     H11      HGA3     0.090000        1.0080           0
     32213 WT13     1008     MECN     H12      HGA3     0.090000        1.0080           0
     32214 WT13     1008     MECN     H13      HGA3     0.090000        1.0080           0
     32215 WT13     1008     MECN     C2       CG1N1    0.360000       12.0110           0
     32216 WT13     1008     MECN     N3       NG1T1   -0.460000       14.0070           0
     32217 WT13     1009     MECN     C1       CG331   -0.170000       12.0110           0
     32218 WT13     1009     MECN     H11      HGA3     0.090000        1.0080           0
     32219 WT13     1009     MECN     H12      HGA3     0.090000        1.0080           0
     32220 WT13     1009     MECN     H13      HGA3     0.090000        1.0080           0
     32221 WT13     1009     MECN     C2       CG1N1    0.360000       12.0110           0
     32222 WT13     1009     MECN     N3       NG1T1   -0.460000       14.0070           0
     32223 WT13     1010     MECN     C1       CG331   -0.170000       12.0110           0
     32224 WT13     1010     MECN     H11      HGA3     0.090000        1.0080           0
     32225 WT13     1010     MECN     H12      HGA3     0.090000        1.0080           0
     32226 WT13     1010     MECN     H13      HGA3     0.090000        1.0080           0
     32227 WT13     1010     MECN     C2       CG1N1    0.360000       12.0110           0
     32228 WT13     1010     MECN     N3       NG1T1   -0.460000       14.0070           0
     32229 WT13     1011     MECN     C1       CG331   -0.170000       12.0110           0
     32230 WT13     1011     MECN     H11      HGA3     0.090000        1.0080           0
     32231 WT13     1011     MECN     H12      HGA3     0.090000        1.0080           0
     32232 WT13     1011     MECN     H13      HGA3     0.090000        1.0080           0
     32233 WT13     1011     MECN     C2       CG1N1    0.360000       12.0110           0
     32234 WT13     1011     MECN     N3       NG1T1   -0.460000       14.0070           0
     32235 WT13     1012     MECN     C1       CG331   -0.170000       12.0110           0
     32236 WT13     1012     MECN     H11      HGA3     0.090000        1.0080           0
     32237 WT13     1012     MECN     H12      HGA3     0.090000        1.0080           0
     32238 WT13     1012     MECN     H13      HGA3     0.090000        1.0080           0
     32239 WT13     1012     MECN     C2       CG1N1    0.360000       12.0110           0
     32240 WT13     1012     MECN     N3       NG1T1   -0.460000       14.0070           0
     32241 WT13     1014     MECN     C1       CG331   -0.170000       12.0110           0
     32242 WT13     1014     MECN     H11      HGA3     0.090000        1.0080           0
     32243 WT13     1014     MECN     H12      HGA3     0.090000        1.0080           0
     32244 WT13     1014     MECN     H13      HGA3     0.090000        1.0080           0
     32245 WT13     1014     MECN     C2       CG1N1    0.360000       12.0110           0
     32246 WT13     1014     MECN     N3       NG1T1   -0.460000       14.0070           0
     32247 WT13     1015     MECN     C1       CG331   -0.170000       12.0110           0
     32248 WT13     1015     MECN     H11      HGA3     0.090000        1.0080           0
     32249 WT13     1015     MECN     H12      HGA3     0.090000        1.0080           0
     32250 WT13     1015     MECN     H13      HGA3     0.090000        1.0080           0
     32251 WT13     1015     MECN     C2       CG1N1    0.360000       12.0110           0
     32252 WT13     1015     MECN     N3       NG1T1   -0.460000       14.0070           0
     32253 WT13     1019     MECN     C1       CG331   -0.170000       12.0110           0
     32254 WT13     1019     MECN     H11      HGA3     0.090000        1.0080           0
     32255 WT13     1019     MECN     H12      HGA3     0.090000        1.0080           0
     32256 WT13     1019     MECN     H13      HGA3     0.090000        1.0080           0
     32257 WT13     1019     MECN     C2       CG1N1    0.360000       12.0110           0
     32258 WT13     1019     MECN     N3       NG1T1   -0.460000       14.0070           0
     32259 WT13     1020     MECN     C1       CG331   -0.170000       12.0110           0
     32260 WT13     1020     MECN     H11      HGA3     0.090000        1.0080           0
     32261 WT13     1020     MECN     H12      HGA3     0.090000        1.0080           0
     32262 WT13     1020     MECN     H13      HGA3     0.090000        1.0080           0
     32263 WT13     1020     MECN     C2       CG1N1    0.360000       12.0110           0
     32264 WT13     1020     MECN     N3       NG1T1   -0.460000       14.0070           0
     32265 WT13     1021     MECN     C1       CG331   -0.170000       12.0110           0
     32266 WT13     1021     MECN     H11      HGA3     0.090000        1.0080           0
     32267 WT13     1021     MECN     H12      HGA3     0.090000        1.0080           0
     32268 WT13     1021     MECN     H13      HGA3     0.090000        1.0080           0
     32269 WT13     1021     MECN     C2       CG1N1    0.360000       12.0110           0
     32270 WT13     1021     MECN     N3       NG1T1   -0.460000       14.0070           0
     32271 WT13     1023     MECN     C1       CG331   -0.170000       12.0110           0
     32272 WT13     1023     MECN     H11      HGA3     0.090000        1.0080           0
     32273 WT13     1023     MECN     H12      HGA3     0.090000        1.0080           0
     32274 WT13     1023     MECN     H13      HGA3     0.090000        1.0080           0
     32275 WT13     1023     MECN     C2       CG1N1    0.360000       12.0110           0
     32276 WT13     1023     MECN     N3       NG1T1   -0.460000       14.0070           0
     32277 WT13     1029     MECN     C1       CG331   -0.170000       12.0110           0
     32278 WT13     1029     MECN     H11      HGA3     0.090000        1.0080           0
     32279 WT13     1029     MECN     H12      HGA3     0.090000        1.0080           0
     32280 WT13     1029     MECN     H13      HGA3     0.090000        1.0080           0
     32281 WT13     1029     MECN     C2       CG1N1    0.360000       12.0110           0
     32282 WT13     1029     MECN     N3       NG1T1   -0.460000       14.0070           0
     32283 WT13     1030     MECN     C1       CG331   -0.170000       12.0110           0
     32284 WT13     1030     MECN     H11      HGA3     0.090000        1.0080           0
     32285 WT13     1030     MECN     H12      HGA3     0.090000        1.0080           0
     32286 WT13     1030     MECN     H13      HGA3     0.090000        1.0080           0
     32287 WT13     1030     MECN     C2       CG1N1    0.360000       12.0110           0
     32288 WT13     1030     MECN     N3       NG1T1   -0.460000       14.0070           0
     32289 WT13     1033     MECN     C1       CG331   -0.170000       12.0110           0
     32290 WT13     1033     MECN     H11      HGA3     0.090000        1.0080           0
     32291 WT13     1033     MECN     H12      HGA3     0.090000        1.0080           0
     32292 WT13     1033     MECN     H13      HGA3     0.090000        1.0080           0
     32293 WT13     1033     MECN     C2       CG1N1    0.360000       12.0110           0
     32294 WT13     1033     MECN     N3       NG1T1   -0.460000       14.0070           0
     32295 WT13     1034     MECN     C1       CG331   -0.170000       12.0110           0
     32296 WT13     1034     MECN     H11      HGA3     0.090000        1.0080           0
     32297 WT13     1034     MECN     H12      HGA3     0.090000        1.0080           0
     32298 WT13     1034     MECN     H13      HGA3     0.090000        1.0080           0
     32299 WT13     1034     MECN     C2       CG1N1    0.360000       12.0110           0
     32300 WT13     1034     MECN     N3       NG1T1   -0.460000       14.0070           0
     32301 WT13     1035     MECN     C1       CG331   -0.170000       12.0110           0
     32302 WT13     1035     MECN     H11      HGA3     0.090000        1.0080           0
     32303 WT13     1035     MECN     H12      HGA3     0.090000        1.0080           0
     32304 WT13     1035     MECN     H13      HGA3     0.090000        1.0080           0
     32305 WT13     1035     MECN     C2       CG1N1    0.360000       12.0110           0
     32306 WT13     1035     MECN     N3       NG1T1   -0.460000       14.0070           0
     32307 WT13     1036     MECN     C1       CG331   -0.170000       12.0110           0
     32308 WT13     1036     MECN     H11      HGA3     0.090000        1.0080           0
     32309 WT13     1036     MECN     H12      HGA3     0.090000        1.0080           0
     32310 WT13     1036     MECN     H13      HGA3     0.090000        1.0080           0
     32311 WT13     1036     MECN     C2       CG1N1    0.360000       12.0110           0
     32312 WT13     1036     MECN     N3       NG1T1   -0.460000       14.0070           0
     32313 WT13     1039     MECN     C1       CG331   -0.170000       12.0110           0
     32314 WT13     1039     MECN     H11      HGA3     0.090000        1.0080           0
     32315 WT13     1039     MECN     H12      HGA3     0.090000        1.0080           0
     32316 WT13     1039     MECN     H13      HGA3     0.090000        1.0080           0
     32317 WT13     1039     MECN     C2       CG1N1    0.360000       12.0110           0
     32318 WT13     1039     MECN     N3       NG1T1   -0.460000       14.0070           0
     32319 WT13     1040     MECN     C1       CG331   -0.170000       12.0110           0
     32320 WT13     1040     MECN     H11      HGA3     0.090000        1.0080           0
     32321 WT13     1040     MECN     H12      HGA3     0.090000        1.0080           0
     32322 WT13     1040     MECN     H13      HGA3     0.090000        1.0080           0
     32323 WT13     1040     MECN     C2       CG1N1    0.360000       12.0110           0
     32324 WT13     1040     MECN     N3       NG1T1   -0.460000       14.0070           0
     32325 WT13     1043     MECN     C1       CG331   -0.170000       12.0110           0
     32326 WT13     1043     MECN     H11      HGA3     0.090000        1.0080           0
     32327 WT13     1043     MECN     H12      HGA3     0.090000        1.0080           0
     32328 WT13     1043     MECN     H13      HGA3     0.090000        1.0080           0
     32329 WT13     1043     MECN     C2       CG1N1    0.360000       12.0110           0
     32330 WT13     1043     MECN     N3       NG1T1   -0.460000       14.0070           0
     32331 WT13     1044     MECN     C1       CG331   -0.170000       12.0110           0
     32332 WT13     1044     MECN     H11      HGA3     0.090000        1.0080           0
     32333 WT13     1044     MECN     H12      HGA3     0.090000        1.0080           0
     32334 WT13     1044     MECN     H13      HGA3     0.090000        1.0080           0
     32335 WT13     1044     MECN     C2       CG1N1    0.360000       12.0110           0
     32336 WT13     1044     MECN     N3       NG1T1   -0.460000       14.0070           0
     32337 WT13     1048     MECN     C1       CG331   -0.170000       12.0110           0
     32338 WT13     1048     MECN     H11      HGA3     0.090000        1.0080           0
     32339 WT13     1048     MECN     H12      HGA3     0.090000        1.0080           0
     32340 WT13     1048     MECN     H13      HGA3     0.090000        1.0080           0
     32341 WT13     1048     MECN     C2       CG1N1    0.360000       12.0110           0
     32342 WT13     1048     MECN     N3       NG1T1   -0.460000       14.0070           0
     32343 WT13     1050     MECN     C1       CG331   -0.170000       12.0110           0
     32344 WT13     1050     MECN     H11      HGA3     0.090000        1.0080           0
     32345 WT13     1050     MECN     H12      HGA3     0.090000        1.0080           0
     32346 WT13     1050     MECN     H13      HGA3     0.090000        1.0080           0
     32347 WT13     1050     MECN     C2       CG1N1    0.360000       12.0110           0
     32348 WT13     1050     MECN     N3       NG1T1   -0.460000       14.0070           0
     32349 WT13     1051     MECN     C1       CG331   -0.170000       12.0110           0
     32350 WT13     1051     MECN     H11      HGA3     0.090000        1.0080           0
     32351 WT13     1051     MECN     H12      HGA3     0.090000        1.0080           0
     32352 WT13     1051     MECN     H13      HGA3     0.090000        1.0080           0
     32353 WT13     1051     MECN     C2       CG1N1    0.360000       12.0110           0
     32354 WT13     1051     MECN     N3       NG1T1   -0.460000       14.0070           0
     32355 WT13     1052     MECN     C1       CG331   -0.170000       12.0110           0
     32356 WT13     1052     MECN     H11      HGA3     0.090000        1.0080           0
     32357 WT13     1052     MECN     H12      HGA3     0.090000        1.0080           0
     32358 WT13     1052     MECN     H13      HGA3     0.090000        1.0080           0
     32359 WT13     1052     MECN     C2       CG1N1    0.360000       12.0110           0
     32360 WT13     1052     MECN     N3       NG1T1   -0.460000       14.0070           0
     32361 WT13     1053     MECN     C1       CG331   -0.170000       12.0110           0
     32362 WT13     1053     MECN     H11      HGA3     0.090000        1.0080           0
     32363 WT13     1053     MECN     H12      HGA3     0.090000        1.0080           0
     32364 WT13     1053     MECN     H13      HGA3     0.090000        1.0080           0
     32365 WT13     1053     MECN     C2       CG1N1    0.360000       12.0110           0
     32366 WT13     1053     MECN     N3       NG1T1   -0.460000       14.0070           0
     32367 WT13     1054     MECN     C1       CG331   -0.170000       12.0110           0
     32368 WT13     1054     MECN     H11      HGA3     0.090000        1.0080           0
     32369 WT13     1054     MECN     H12      HGA3     0.090000        1.0080           0
     32370 WT13     1054     MECN     H13      HGA3     0.090000        1.0080           0
     32371 WT13     1054     MECN     C2       CG1N1    0.360000       12.0110           0
     32372 WT13     1054     MECN     N3       NG1T1   -0.460000       14.0070           0
     32373 WT13     1057     MECN     C1       CG331   -0.170000       12.0110           0
     32374 WT13     1057     MECN     H11      HGA3     0.090000        1.0080           0
     32375 WT13     1057     MECN     H12      HGA3     0.090000        1.0080           0
     32376 WT13     1057     MECN     H13      HGA3     0.090000        1.0080           0
     32377 WT13     1057     MECN     C2       CG1N1    0.360000       12.0110           0
     32378 WT13     1057     MECN     N3       NG1T1   -0.460000       14.0070           0
     32379 WT13     1058     MECN     C1       CG331   -0.170000       12.0110           0
     32380 WT13     1058     MECN     H11      HGA3     0.090000        1.0080           0
     32381 WT13     1058     MECN     H12      HGA3     0.090000        1.0080           0
     32382 WT13     1058     MECN     H13      HGA3     0.090000        1.0080           0
     32383 WT13     1058     MECN     C2       CG1N1    0.360000       12.0110           0
     32384 WT13     1058     MECN     N3       NG1T1   -0.460000       14.0070           0
     32385 WT13     1059     MECN     C1       CG331   -0.170000       12.0110           0
     32386 WT13     1059     MECN     H11      HGA3     0.090000        1.0080           0
     32387 WT13     1059     MECN     H12      HGA3     0.090000        1.0080           0
     32388 WT13     1059     MECN     H13      HGA3     0.090000        1.0080           0
     32389 WT13     1059     MECN     C2       CG1N1    0.360000       12.0110           0
     32390 WT13     1059     MECN     N3       NG1T1   -0.460000       14.0070           0
     32391 WT13     1061     MECN     C1       CG331   -0.170000       12.0110           0
     32392 WT13     1061     MECN     H11      HGA3     0.090000        1.0080           0
     32393 WT13     1061     MECN     H12      HGA3     0.090000        1.0080           0
     32394 WT13     1061     MECN     H13      HGA3     0.090000        1.0080           0
     32395 WT13     1061     MECN     C2       CG1N1    0.360000       12.0110           0
     32396 WT13     1061     MECN     N3       NG1T1   -0.460000       14.0070           0
     32397 WT13     1062     MECN     C1       CG331   -0.170000       12.0110           0
     32398 WT13     1062     MECN     H11      HGA3     0.090000        1.0080           0
     32399 WT13     1062     MECN     H12      HGA3     0.090000        1.0080           0
     32400 WT13     1062     MECN     H13      HGA3     0.090000        1.0080           0
     32401 WT13     1062     MECN     C2       CG1N1    0.360000       12.0110           0
     32402 WT13     1062     MECN     N3       NG1T1   -0.460000       14.0070           0
     32403 WT13     1063     MECN     C1       CG331   -0.170000       12.0110           0
     32404 WT13     1063     MECN     H11      HGA3     0.090000        1.0080           0
     32405 WT13     1063     MECN     H12      HGA3     0.090000        1.0080           0
     32406 WT13     1063     MECN     H13      HGA3     0.090000        1.0080           0
     32407 WT13     1063     MECN     C2       CG1N1    0.360000       12.0110           0
     32408 WT13     1063     MECN     N3       NG1T1   -0.460000       14.0070           0
     32409 WT13     1068     MECN     C1       CG331   -0.170000       12.0110           0
     32410 WT13     1068     MECN     H11      HGA3     0.090000        1.0080           0
     32411 WT13     1068     MECN     H12      HGA3     0.090000        1.0080           0
     32412 WT13     1068     MECN     H13      HGA3     0.090000        1.0080           0
     32413 WT13     1068     MECN     C2       CG1N1    0.360000       12.0110           0
     32414 WT13     1068     MECN     N3       NG1T1   -0.460000       14.0070           0
     32415 WT13     1071     MECN     C1       CG331   -0.170000       12.0110           0
     32416 WT13     1071     MECN     H11      HGA3     0.090000        1.0080           0
     32417 WT13     1071     MECN     H12      HGA3     0.090000        1.0080           0
     32418 WT13     1071     MECN     H13      HGA3     0.090000        1.0080           0
     32419 WT13     1071     MECN     C2       CG1N1    0.360000       12.0110           0
     32420 WT13     1071     MECN     N3       NG1T1   -0.460000       14.0070           0
     32421 WT13     1072     MECN     C1       CG331   -0.170000       12.0110           0
     32422 WT13     1072     MECN     H11      HGA3     0.090000        1.0080           0
     32423 WT13     1072     MECN     H12      HGA3     0.090000        1.0080           0
     32424 WT13     1072     MECN     H13      HGA3     0.090000        1.0080           0
     32425 WT13     1072     MECN     C2       CG1N1    0.360000       12.0110           0
     32426 WT13     1072     MECN     N3       NG1T1   -0.460000       14.0070           0
     32427 WT13     1075     MECN     C1       CG331   -0.170000       12.0110           0
     32428 WT13     1075     MECN     H11      HGA3     0.090000        1.0080           0
     32429 WT13     1075     MECN     H12      HGA3     0.090000        1.0080           0
     32430 WT13     1075     MECN     H13      HGA3     0.090000        1.0080           0
     32431 WT13     1075     MECN     C2       CG1N1    0.360000       12.0110           0
     32432 WT13     1075     MECN     N3       NG1T1   -0.460000       14.0070           0
     32433 WT13     1076     MECN     C1       CG331   -0.170000       12.0110           0
     32434 WT13     1076     MECN     H11      HGA3     0.090000        1.0080           0
     32435 WT13     1076     MECN     H12      HGA3     0.090000        1.0080           0
     32436 WT13     1076     MECN     H13      HGA3     0.090000        1.0080           0
     32437 WT13     1076     MECN     C2       CG1N1    0.360000       12.0110           0
     32438 WT13     1076     MECN     N3       NG1T1   -0.460000       14.0070           0
     32439 WT13     1080     MECN     C1       CG331   -0.170000       12.0110           0
     32440 WT13     1080     MECN     H11      HGA3     0.090000        1.0080           0
     32441 WT13     1080     MECN     H12      HGA3     0.090000        1.0080           0
     32442 WT13     1080     MECN     H13      HGA3     0.090000        1.0080           0
     32443 WT13     1080     MECN     C2       CG1N1    0.360000       12.0110           0
     32444 WT13     1080     MECN     N3       NG1T1   -0.460000       14.0070           0
     32445 WT13     1081     MECN     C1       CG331   -0.170000       12.0110           0
     32446 WT13     1081     MECN     H11      HGA3     0.090000        1.0080           0
     32447 WT13     1081     MECN     H12      HGA3     0.090000        1.0080           0
     32448 WT13     1081     MECN     H13      HGA3     0.090000        1.0080           0
     32449 WT13     1081     MECN     C2       CG1N1    0.360000       12.0110           0
     32450 WT13     1081     MECN     N3       NG1T1   -0.460000       14.0070           0
     32451 WT13     1084     MECN     C1       CG331   -0.170000       12.0110           0
     32452 WT13     1084     MECN     H11      HGA3     0.090000        1.0080           0
     32453 WT13     1084     MECN     H12      HGA3     0.090000        1.0080           0
     32454 WT13     1084     MECN     H13      HGA3     0.090000        1.0080           0
     32455 WT13     1084     MECN     C2       CG1N1    0.360000       12.0110           0
     32456 WT13     1084     MECN     N3       NG1T1   -0.460000       14.0070           0
     32457 WT13     1085     MECN     C1       CG331   -0.170000       12.0110           0
     32458 WT13     1085     MECN     H11      HGA3     0.090000        1.0080           0
     32459 WT13     1085     MECN     H12      HGA3     0.090000        1.0080           0
     32460 WT13     1085     MECN     H13      HGA3     0.090000        1.0080           0
     32461 WT13     1085     MECN     C2       CG1N1    0.360000       12.0110           0
     32462 WT13     1085     MECN     N3       NG1T1   -0.460000       14.0070           0
     32463 WT13     1087     MECN     C1       CG331   -0.170000       12.0110           0
     32464 WT13     1087     MECN     H11      HGA3     0.090000        1.0080           0
     32465 WT13     1087     MECN     H12      HGA3     0.090000        1.0080           0
     32466 WT13     1087     MECN     H13      HGA3     0.090000        1.0080           0
     32467 WT13     1087     MECN     C2       CG1N1    0.360000       12.0110           0
     32468 WT13     1087     MECN     N3       NG1T1   -0.460000       14.0070           0
     32469 WT13     1089     MECN     C1       CG331   -0.170000       12.0110           0
     32470 WT13     1089     MECN     H11      HGA3     0.090000        1.0080           0
     32471 WT13     1089     MECN     H12      HGA3     0.090000        1.0080           0
     32472 WT13     1089     MECN     H13      HGA3     0.090000        1.0080           0
     32473 WT13     1089     MECN     C2       CG1N1    0.360000       12.0110           0
     32474 WT13     1089     MECN     N3       NG1T1   -0.460000       14.0070           0
     32475 WT13     1091     MECN     C1       CG331   -0.170000       12.0110           0
     32476 WT13     1091     MECN     H11      HGA3     0.090000        1.0080           0
     32477 WT13     1091     MECN     H12      HGA3     0.090000        1.0080           0
     32478 WT13     1091     MECN     H13      HGA3     0.090000        1.0080           0
     32479 WT13     1091     MECN     C2       CG1N1    0.360000       12.0110           0
     32480 WT13     1091     MECN     N3       NG1T1   -0.460000       14.0070           0
     32481 WT13     1093     MECN     C1       CG331   -0.170000       12.0110           0
     32482 WT13     1093     MECN     H11      HGA3     0.090000        1.0080           0
     32483 WT13     1093     MECN     H12      HGA3     0.090000        1.0080           0
     32484 WT13     1093     MECN     H13      HGA3     0.090000        1.0080           0
     32485 WT13     1093     MECN     C2       CG1N1    0.360000       12.0110           0
     32486 WT13     1093     MECN     N3       NG1T1   -0.460000       14.0070           0
     32487 WT13     1094     MECN     C1       CG331   -0.170000       12.0110           0
     32488 WT13     1094     MECN     H11      HGA3     0.090000        1.0080           0
     32489 WT13     1094     MECN     H12      HGA3     0.090000        1.0080           0
     32490 WT13     1094     MECN     H13      HGA3     0.090000        1.0080           0
     32491 WT13     1094     MECN     C2       CG1N1    0.360000       12.0110           0
     32492 WT13     1094     MECN     N3       NG1T1   -0.460000       14.0070           0
     32493 WT13     1095     MECN     C1       CG331   -0.170000       12.0110           0
     32494 WT13     1095     MECN     H11      HGA3     0.090000        1.0080           0
     32495 WT13     1095     MECN     H12      HGA3     0.090000        1.0080           0
     32496 WT13     1095     MECN     H13      HGA3     0.090000        1.0080           0
     32497 WT13     1095     MECN     C2       CG1N1    0.360000       12.0110           0
     32498 WT13     1095     MECN     N3       NG1T1   -0.460000       14.0070           0
     32499 WT13     1098     MECN     C1       CG331   -0.170000       12.0110           0
     32500 WT13     1098     MECN     H11      HGA3     0.090000        1.0080           0
     32501 WT13     1098     MECN     H12      HGA3     0.090000        1.0080           0
     32502 WT13     1098     MECN     H13      HGA3     0.090000        1.0080           0
     32503 WT13     1098     MECN     C2       CG1N1    0.360000       12.0110           0
     32504 WT13     1098     MECN     N3       NG1T1   -0.460000       14.0070           0
     32505 WT13     1099     MECN     C1       CG331   -0.170000       12.0110           0
     32506 WT13     1099     MECN     H11      HGA3     0.090000        1.0080           0
     32507 WT13     1099     MECN     H12      HGA3     0.090000        1.0080           0
     32508 WT13     1099     MECN     H13      HGA3     0.090000        1.0080           0
     32509 WT13     1099     MECN     C2       CG1N1    0.360000       12.0110           0
     32510 WT13     1099     MECN     N3       NG1T1   -0.460000       14.0070           0
     32511 WT13     1102     MECN     C1       CG331   -0.170000       12.0110           0
     32512 WT13     1102     MECN     H11      HGA3     0.090000        1.0080           0
     32513 WT13     1102     MECN     H12      HGA3     0.090000        1.0080           0
     32514 WT13     1102     MECN     H13      HGA3     0.090000        1.0080           0
     32515 WT13     1102     MECN     C2       CG1N1    0.360000       12.0110           0
     32516 WT13     1102     MECN     N3       NG1T1   -0.460000       14.0070           0
     32517 WT13     1106     MECN     C1       CG331   -0.170000       12.0110           0
     32518 WT13     1106     MECN     H11      HGA3     0.090000        1.0080           0
     32519 WT13     1106     MECN     H12      HGA3     0.090000        1.0080           0
     32520 WT13     1106     MECN     H13      HGA3     0.090000        1.0080           0
     32521 WT13     1106     MECN     C2       CG1N1    0.360000       12.0110           0
     32522 WT13     1106     MECN     N3       NG1T1   -0.460000       14.0070           0
     32523 WT13     1107     MECN     C1       CG331   -0.170000       12.0110           0
     32524 WT13     1107     MECN     H11      HGA3     0.090000        1.0080           0
     32525 WT13     1107     MECN     H12      HGA3     0.090000        1.0080           0
     32526 WT13     1107     MECN     H13      HGA3     0.090000        1.0080           0
     32527 WT13     1107     MECN     C2       CG1N1    0.360000       12.0110           0
     32528 WT13     1107     MECN     N3       NG1T1   -0.460000       14.0070           0
     32529 WT13     1109     MECN     C1       CG331   -0.170000       12.0110           0
     32530 WT13     1109     MECN     H11      HGA3     0.090000        1.0080           0
     32531 WT13     1109     MECN     H12      HGA3     0.090000        1.0080           0
     32532 WT13     1109     MECN     H13      HGA3     0.090000        1.0080           0
     32533 WT13     1109     MECN     C2       CG1N1    0.360000       12.0110           0
     32534 WT13     1109     MECN     N3       NG1T1   -0.460000       14.0070           0
     32535 WT13     1113     MECN     C1       CG331   -0.170000       12.0110           0
     32536 WT13     1113     MECN     H11      HGA3     0.090000        1.0080           0
     32537 WT13     1113     MECN     H12      HGA3     0.090000        1.0080           0
     32538 WT13     1113     MECN     H13      HGA3     0.090000        1.0080           0
     32539 WT13     1113     MECN     C2       CG1N1    0.360000       12.0110           0
     32540 WT13     1113     MECN     N3       NG1T1   -0.460000       14.0070           0
     32541 WT13     1115     MECN     C1       CG331   -0.170000       12.0110           0
     32542 WT13     1115     MECN     H11      HGA3     0.090000        1.0080           0
     32543 WT13     1115     MECN     H12      HGA3     0.090000        1.0080           0
     32544 WT13     1115     MECN     H13      HGA3     0.090000        1.0080           0
     32545 WT13     1115     MECN     C2       CG1N1    0.360000       12.0110           0
     32546 WT13     1115     MECN     N3       NG1T1   -0.460000       14.0070           0
     32547 WT13     1117     MECN     C1       CG331   -0.170000       12.0110           0
     32548 WT13     1117     MECN     H11      HGA3     0.090000        1.0080           0
     32549 WT13     1117     MECN     H12      HGA3     0.090000        1.0080           0
     32550 WT13     1117     MECN     H13      HGA3     0.090000        1.0080           0
     32551 WT13     1117     MECN     C2       CG1N1    0.360000       12.0110           0
     32552 WT13     1117     MECN     N3       NG1T1   -0.460000       14.0070           0
     32553 WT13     1120     MECN     C1       CG331   -0.170000       12.0110           0
     32554 WT13     1120     MECN     H11      HGA3     0.090000        1.0080           0
     32555 WT13     1120     MECN     H12      HGA3     0.090000        1.0080           0
     32556 WT13     1120     MECN     H13      HGA3     0.090000        1.0080           0
     32557 WT13     1120     MECN     C2       CG1N1    0.360000       12.0110           0
     32558 WT13     1120     MECN     N3       NG1T1   -0.460000       14.0070           0
     32559 WT13     1121     MECN     C1       CG331   -0.170000       12.0110           0
     32560 WT13     1121     MECN     H11      HGA3     0.090000        1.0080           0
     32561 WT13     1121     MECN     H12      HGA3     0.090000        1.0080           0
     32562 WT13     1121     MECN     H13      HGA3     0.090000        1.0080           0
     32563 WT13     1121     MECN     C2       CG1N1    0.360000       12.0110           0
     32564 WT13     1121     MECN     N3       NG1T1   -0.460000       14.0070           0
     32565 WT13     1122     MECN     C1       CG331   -0.170000       12.0110           0
     32566 WT13     1122     MECN     H11      HGA3     0.090000        1.0080           0
     32567 WT13     1122     MECN     H12      HGA3     0.090000        1.0080           0
     32568 WT13     1122     MECN     H13      HGA3     0.090000        1.0080           0
     32569 WT13     1122     MECN     C2       CG1N1    0.360000       12.0110           0
     32570 WT13     1122     MECN     N3       NG1T1   -0.460000       14.0070           0
     32571 WT13     1124     MECN     C1       CG331   -0.170000       12.0110           0
     32572 WT13     1124     MECN     H11      HGA3     0.090000        1.0080           0
     32573 WT13     1124     MECN     H12      HGA3     0.090000        1.0080           0
     32574 WT13     1124     MECN     H13      HGA3     0.090000        1.0080           0
     32575 WT13     1124     MECN     C2       CG1N1    0.360000       12.0110           0
     32576 WT13     1124     MECN     N3       NG1T1   -0.460000       14.0070           0
     32577 WT13     1125     MECN     C1       CG331   -0.170000       12.0110           0
     32578 WT13     1125     MECN     H11      HGA3     0.090000        1.0080           0
     32579 WT13     1125     MECN     H12      HGA3     0.090000        1.0080           0
     32580 WT13     1125     MECN     H13      HGA3     0.090000        1.0080           0
     32581 WT13     1125     MECN     C2       CG1N1    0.360000       12.0110           0
     32582 WT13     1125     MECN     N3       NG1T1   -0.460000       14.0070           0
     32583 WT13     1126     MECN     C1       CG331   -0.170000       12.0110           0
     32584 WT13     1126     MECN     H11      HGA3     0.090000        1.0080           0
     32585 WT13     1126     MECN     H12      HGA3     0.090000        1.0080           0
     32586 WT13     1126     MECN     H13      HGA3     0.090000        1.0080           0
     32587 WT13     1126     MECN     C2       CG1N1    0.360000       12.0110           0
     32588 WT13     1126     MECN     N3       NG1T1   -0.460000       14.0070           0
     32589 WT13     1130     MECN     C1       CG331   -0.170000       12.0110           0
     32590 WT13     1130     MECN     H11      HGA3     0.090000        1.0080           0
     32591 WT13     1130     MECN     H12      HGA3     0.090000        1.0080           0
     32592 WT13     1130     MECN     H13      HGA3     0.090000        1.0080           0
     32593 WT13     1130     MECN     C2       CG1N1    0.360000       12.0110           0
     32594 WT13     1130     MECN     N3       NG1T1   -0.460000       14.0070           0
     32595 WT13     1131     MECN     C1       CG331   -0.170000       12.0110           0
     32596 WT13     1131     MECN     H11      HGA3     0.090000        1.0080           0
     32597 WT13     1131     MECN     H12      HGA3     0.090000        1.0080           0
     32598 WT13     1131     MECN     H13      HGA3     0.090000        1.0080           0
     32599 WT13     1131     MECN     C2       CG1N1    0.360000       12.0110           0
     32600 WT13     1131     MECN     N3       NG1T1   -0.460000       14.0070           0
     32601 WT13     1132     MECN     C1       CG331   -0.170000       12.0110           0
     32602 WT13     1132     MECN     H11      HGA3     0.090000        1.0080           0
     32603 WT13     1132     MECN     H12      HGA3     0.090000        1.0080           0
     32604 WT13     1132     MECN     H13      HGA3     0.090000        1.0080           0
     32605 WT13     1132     MECN     C2       CG1N1    0.360000       12.0110           0
     32606 WT13     1132     MECN     N3       NG1T1   -0.460000       14.0070           0
     32607 WT13     1134     MECN     C1       CG331   -0.170000       12.0110           0
     32608 WT13     1134     MECN     H11      HGA3     0.090000        1.0080           0
     32609 WT13     1134     MECN     H12      HGA3     0.090000        1.0080           0
     32610 WT13     1134     MECN     H13      HGA3     0.090000        1.0080           0
     32611 WT13     1134     MECN     C2       CG1N1    0.360000       12.0110           0
     32612 WT13     1134     MECN     N3       NG1T1   -0.460000       14.0070           0
     32613 WT13     1136     MECN     C1       CG331   -0.170000       12.0110           0
     32614 WT13     1136     MECN     H11      HGA3     0.090000        1.0080           0
     32615 WT13     1136     MECN     H12      HGA3     0.090000        1.0080           0
     32616 WT13     1136     MECN     H13      HGA3     0.090000        1.0080           0
     32617 WT13     1136     MECN     C2       CG1N1    0.360000       12.0110           0
     32618 WT13     1136     MECN     N3       NG1T1   -0.460000       14.0070           0
     32619 WT13     1137     MECN     C1       CG331   -0.170000       12.0110           0
     32620 WT13     1137     MECN     H11      HGA3     0.090000        1.0080           0
     32621 WT13     1137     MECN     H12      HGA3     0.090000        1.0080           0
     32622 WT13     1137     MECN     H13      HGA3     0.090000        1.0080           0
     32623 WT13     1137     MECN     C2       CG1N1    0.360000       12.0110           0
     32624 WT13     1137     MECN     N3       NG1T1   -0.460000       14.0070           0
     32625 WT13     1143     MECN     C1       CG331   -0.170000       12.0110           0
     32626 WT13     1143     MECN     H11      HGA3     0.090000        1.0080           0
     32627 WT13     1143     MECN     H12      HGA3     0.090000        1.0080           0
     32628 WT13     1143     MECN     H13      HGA3     0.090000        1.0080           0
     32629 WT13     1143     MECN     C2       CG1N1    0.360000       12.0110           0
     32630 WT13     1143     MECN     N3       NG1T1   -0.460000       14.0070           0
     32631 WT13     1146     MECN     C1       CG331   -0.170000       12.0110           0
     32632 WT13     1146     MECN     H11      HGA3     0.090000        1.0080           0
     32633 WT13     1146     MECN     H12      HGA3     0.090000        1.0080           0
     32634 WT13     1146     MECN     H13      HGA3     0.090000        1.0080           0
     32635 WT13     1146     MECN     C2       CG1N1    0.360000       12.0110           0
     32636 WT13     1146     MECN     N3       NG1T1   -0.460000       14.0070           0
     32637 WT13     1147     MECN     C1       CG331   -0.170000       12.0110           0
     32638 WT13     1147     MECN     H11      HGA3     0.090000        1.0080           0
     32639 WT13     1147     MECN     H12      HGA3     0.090000        1.0080           0
     32640 WT13     1147     MECN     H13      HGA3     0.090000        1.0080           0
     32641 WT13     1147     MECN     C2       CG1N1    0.360000       12.0110           0
     32642 WT13     1147     MECN     N3       NG1T1   -0.460000       14.0070           0
     32643 WT13     1148     MECN     C1       CG331   -0.170000       12.0110           0
     32644 WT13     1148     MECN     H11      HGA3     0.090000        1.0080           0
     32645 WT13     1148     MECN     H12      HGA3     0.090000        1.0080           0
     32646 WT13     1148     MECN     H13      HGA3     0.090000        1.0080           0
     32647 WT13     1148     MECN     C2       CG1N1    0.360000       12.0110           0
     32648 WT13     1148     MECN     N3       NG1T1   -0.460000       14.0070           0
     32649 WT13     1155     MECN     C1       CG331   -0.170000       12.0110           0
     32650 WT13     1155     MECN     H11      HGA3     0.090000        1.0080           0
     32651 WT13     1155     MECN     H12      HGA3     0.090000        1.0080           0
     32652 WT13     1155     MECN     H13      HGA3     0.090000        1.0080           0
     32653 WT13     1155     MECN     C2       CG1N1    0.360000       12.0110           0
     32654 WT13     1155     MECN     N3       NG1T1   -0.460000       14.0070           0
     32655 WT13     1156     MECN     C1       CG331   -0.170000       12.0110           0
     32656 WT13     1156     MECN     H11      HGA3     0.090000        1.0080           0
     32657 WT13     1156     MECN     H12      HGA3     0.090000        1.0080           0
     32658 WT13     1156     MECN     H13      HGA3     0.090000        1.0080           0
     32659 WT13     1156     MECN     C2       CG1N1    0.360000       12.0110           0
     32660 WT13     1156     MECN     N3       NG1T1   -0.460000       14.0070           0
     32661 WT13     1158     MECN     C1       CG331   -0.170000       12.0110           0
     32662 WT13     1158     MECN     H11      HGA3     0.090000        1.0080           0
     32663 WT13     1158     MECN     H12      HGA3     0.090000        1.0080           0
     32664 WT13     1158     MECN     H13      HGA3     0.090000        1.0080           0
     32665 WT13     1158     MECN     C2       CG1N1    0.360000       12.0110           0
     32666 WT13     1158     MECN     N3       NG1T1   -0.460000       14.0070           0
     32667 WT13     1161     MECN     C1       CG331   -0.170000       12.0110           0
     32668 WT13     1161     MECN     H11      HGA3     0.090000        1.0080           0
     32669 WT13     1161     MECN     H12      HGA3     0.090000        1.0080           0
     32670 WT13     1161     MECN     H13      HGA3     0.090000        1.0080           0
     32671 WT13     1161     MECN     C2       CG1N1    0.360000       12.0110           0
     32672 WT13     1161     MECN     N3       NG1T1   -0.460000       14.0070           0
     32673 WT13     1163     MECN     C1       CG331   -0.170000       12.0110           0
     32674 WT13     1163     MECN     H11      HGA3     0.090000        1.0080           0
     32675 WT13     1163     MECN     H12      HGA3     0.090000        1.0080           0
     32676 WT13     1163     MECN     H13      HGA3     0.090000        1.0080           0
     32677 WT13     1163     MECN     C2       CG1N1    0.360000       12.0110           0
     32678 WT13     1163     MECN     N3       NG1T1   -0.460000       14.0070           0
     32679 WT13     1166     MECN     C1       CG331   -0.170000       12.0110           0
     32680 WT13     1166     MECN     H11      HGA3     0.090000        1.0080           0
     32681 WT13     1166     MECN     H12      HGA3     0.090000        1.0080           0
     32682 WT13     1166     MECN     H13      HGA3     0.090000        1.0080           0
     32683 WT13     1166     MECN     C2       CG1N1    0.360000       12.0110           0
     32684 WT13     1166     MECN     N3       NG1T1   -0.460000       14.0070           0
     32685 WT13     1168     MECN     C1       CG331   -0.170000       12.0110           0
     32686 WT13     1168     MECN     H11      HGA3     0.090000        1.0080           0
     32687 WT13     1168     MECN     H12      HGA3     0.090000        1.0080           0
     32688 WT13     1168     MECN     H13      HGA3     0.090000        1.0080           0
     32689 WT13     1168     MECN     C2       CG1N1    0.360000       12.0110           0
     32690 WT13     1168     MECN     N3       NG1T1   -0.460000       14.0070           0
     32691 WT13     1171     MECN     C1       CG331   -0.170000       12.0110           0
     32692 WT13     1171     MECN     H11      HGA3     0.090000        1.0080           0
     32693 WT13     1171     MECN     H12      HGA3     0.090000        1.0080           0
     32694 WT13     1171     MECN     H13      HGA3     0.090000        1.0080           0
     32695 WT13     1171     MECN     C2       CG1N1    0.360000       12.0110           0
     32696 WT13     1171     MECN     N3       NG1T1   -0.460000       14.0070           0
     32697 WT13     1174     MECN     C1       CG331   -0.170000       12.0110           0
     32698 WT13     1174     MECN     H11      HGA3     0.090000        1.0080           0
     32699 WT13     1174     MECN     H12      HGA3     0.090000        1.0080           0
     32700 WT13     1174     MECN     H13      HGA3     0.090000        1.0080           0
     32701 WT13     1174     MECN     C2       CG1N1    0.360000       12.0110           0
     32702 WT13     1174     MECN     N3       NG1T1   -0.460000       14.0070           0
     32703 WT13     1178     MECN     C1       CG331   -0.170000       12.0110           0
     32704 WT13     1178     MECN     H11      HGA3     0.090000        1.0080           0
     32705 WT13     1178     MECN     H12      HGA3     0.090000        1.0080           0
     32706 WT13     1178     MECN     H13      HGA3     0.090000        1.0080           0
     32707 WT13     1178     MECN     C2       CG1N1    0.360000       12.0110           0
     32708 WT13     1178     MECN     N3       NG1T1   -0.460000       14.0070           0
     32709 WT13     1181     MECN     C1       CG331   -0.170000       12.0110           0
     32710 WT13     1181     MECN     H11      HGA3     0.090000        1.0080           0
     32711 WT13     1181     MECN     H12      HGA3     0.090000        1.0080           0
     32712 WT13     1181     MECN     H13      HGA3     0.090000        1.0080           0
     32713 WT13     1181     MECN     C2       CG1N1    0.360000       12.0110           0
     32714 WT13     1181     MECN     N3       NG1T1   -0.460000       14.0070           0
     32715 WT13     1184     MECN     C1       CG331   -0.170000       12.0110           0
     32716 WT13     1184     MECN     H11      HGA3     0.090000        1.0080           0
     32717 WT13     1184     MECN     H12      HGA3     0.090000        1.0080           0
     32718 WT13     1184     MECN     H13      HGA3     0.090000        1.0080           0
     32719 WT13     1184     MECN     C2       CG1N1    0.360000       12.0110           0
     32720 WT13     1184     MECN     N3       NG1T1   -0.460000       14.0070           0
     32721 WT13     1188     MECN     C1       CG331   -0.170000       12.0110           0
     32722 WT13     1188     MECN     H11      HGA3     0.090000        1.0080           0
     32723 WT13     1188     MECN     H12      HGA3     0.090000        1.0080           0
     32724 WT13     1188     MECN     H13      HGA3     0.090000        1.0080           0
     32725 WT13     1188     MECN     C2       CG1N1    0.360000       12.0110           0
     32726 WT13     1188     MECN     N3       NG1T1   -0.460000       14.0070           0
     32727 WT13     1191     MECN     C1       CG331   -0.170000       12.0110           0
     32728 WT13     1191     MECN     H11      HGA3     0.090000        1.0080           0
     32729 WT13     1191     MECN     H12      HGA3     0.090000        1.0080           0
     32730 WT13     1191     MECN     H13      HGA3     0.090000        1.0080           0
     32731 WT13     1191     MECN     C2       CG1N1    0.360000       12.0110           0
     32732 WT13     1191     MECN     N3       NG1T1   -0.460000       14.0070           0
     32733 WT13     1193     MECN     C1       CG331   -0.170000       12.0110           0
     32734 WT13     1193     MECN     H11      HGA3     0.090000        1.0080           0
     32735 WT13     1193     MECN     H12      HGA3     0.090000        1.0080           0
     32736 WT13     1193     MECN     H13      HGA3     0.090000        1.0080           0
     32737 WT13     1193     MECN     C2       CG1N1    0.360000       12.0110           0
     32738 WT13     1193     MECN     N3       NG1T1   -0.460000       14.0070           0
     32739 WT13     1195     MECN     C1       CG331   -0.170000       12.0110           0
     32740 WT13     1195     MECN     H11      HGA3     0.090000        1.0080           0
     32741 WT13     1195     MECN     H12      HGA3     0.090000        1.0080           0
     32742 WT13     1195     MECN     H13      HGA3     0.090000        1.0080           0
     32743 WT13     1195     MECN     C2       CG1N1    0.360000       12.0110           0
     32744 WT13     1195     MECN     N3       NG1T1   -0.460000       14.0070           0
     32745 WT13     1196     MECN     C1       CG331   -0.170000       12.0110           0
     32746 WT13     1196     MECN     H11      HGA3     0.090000        1.0080           0
     32747 WT13     1196     MECN     H12      HGA3     0.090000        1.0080           0
     32748 WT13     1196     MECN     H13      HGA3     0.090000        1.0080           0
     32749 WT13     1196     MECN     C2       CG1N1    0.360000       12.0110           0
     32750 WT13     1196     MECN     N3       NG1T1   -0.460000       14.0070           0
     32751 WT13     1197     MECN     C1       CG331   -0.170000       12.0110           0
     32752 WT13     1197     MECN     H11      HGA3     0.090000        1.0080           0
     32753 WT13     1197     MECN     H12      HGA3     0.090000        1.0080           0
     32754 WT13     1197     MECN     H13      HGA3     0.090000        1.0080           0
     32755 WT13     1197     MECN     C2       CG1N1    0.360000       12.0110           0
     32756 WT13     1197     MECN     N3       NG1T1   -0.460000       14.0070           0
     32757 WT13     1199     MECN     C1       CG331   -0.170000       12.0110           0
     32758 WT13     1199     MECN     H11      HGA3     0.090000        1.0080           0
     32759 WT13     1199     MECN     H12      HGA3     0.090000        1.0080           0
     32760 WT13     1199     MECN     H13      HGA3     0.090000        1.0080           0
     32761 WT13     1199     MECN     C2       CG1N1    0.360000       12.0110           0
     32762 WT13     1199     MECN     N3       NG1T1   -0.460000       14.0070           0
     32763 WT13     1200     MECN     C1       CG331   -0.170000       12.0110           0
     32764 WT13     1200     MECN     H11      HGA3     0.090000        1.0080           0
     32765 WT13     1200     MECN     H12      HGA3     0.090000        1.0080           0
     32766 WT13     1200     MECN     H13      HGA3     0.090000        1.0080           0
     32767 WT13     1200     MECN     C2       CG1N1    0.360000       12.0110           0
     32768 WT13     1200     MECN     N3       NG1T1   -0.460000       14.0070           0
     32769 WT13     1205     MECN     C1       CG331   -0.170000       12.0110           0
     32770 WT13     1205     MECN     H11      HGA3     0.090000        1.0080           0
     32771 WT13     1205     MECN     H12      HGA3     0.090000        1.0080           0
     32772 WT13     1205     MECN     H13      HGA3     0.090000        1.0080           0
     32773 WT13     1205     MECN     C2       CG1N1    0.360000       12.0110           0
     32774 WT13     1205     MECN     N3       NG1T1   -0.460000       14.0070           0
     32775 WT13     1207     MECN     C1       CG331   -0.170000       12.0110           0
     32776 WT13     1207     MECN     H11      HGA3     0.090000        1.0080           0
     32777 WT13     1207     MECN     H12      HGA3     0.090000        1.0080           0
     32778 WT13     1207     MECN     H13      HGA3     0.090000        1.0080           0
     32779 WT13     1207     MECN     C2       CG1N1    0.360000       12.0110           0
     32780 WT13     1207     MECN     N3       NG1T1   -0.460000       14.0070           0
     32781 WT13     1210     MECN     C1       CG331   -0.170000       12.0110           0
     32782 WT13     1210     MECN     H11      HGA3     0.090000        1.0080           0
     32783 WT13     1210     MECN     H12      HGA3     0.090000        1.0080           0
     32784 WT13     1210     MECN     H13      HGA3     0.090000        1.0080           0
     32785 WT13     1210     MECN     C2       CG1N1    0.360000       12.0110           0
     32786 WT13     1210     MECN     N3       NG1T1   -0.460000       14.0070           0
     32787 WT13     1211     MECN     C1       CG331   -0.170000       12.0110           0
     32788 WT13     1211     MECN     H11      HGA3     0.090000        1.0080           0
     32789 WT13     1211     MECN     H12      HGA3     0.090000        1.0080           0
     32790 WT13     1211     MECN     H13      HGA3     0.090000        1.0080           0
     32791 WT13     1211     MECN     C2       CG1N1    0.360000       12.0110           0
     32792 WT13     1211     MECN     N3       NG1T1   -0.460000       14.0070           0
     32793 WT13     1215     MECN     C1       CG331   -0.170000       12.0110           0
     32794 WT13     1215     MECN     H11      HGA3     0.090000        1.0080           0
     32795 WT13     1215     MECN     H12      HGA3     0.090000        1.0080           0
     32796 WT13     1215     MECN     H13      HGA3     0.090000        1.0080           0
     32797 WT13     1215     MECN     C2       CG1N1    0.360000       12.0110           0
     32798 WT13     1215     MECN     N3       NG1T1   -0.460000       14.0070           0
     32799 WT13     1218     MECN     C1       CG331   -0.170000       12.0110           0
     32800 WT13     1218     MECN     H11      HGA3     0.090000        1.0080           0
     32801 WT13     1218     MECN     H12      HGA3     0.090000        1.0080           0
     32802 WT13     1218     MECN     H13      HGA3     0.090000        1.0080           0
     32803 WT13     1218     MECN     C2       CG1N1    0.360000       12.0110           0
     32804 WT13     1218     MECN     N3       NG1T1   -0.460000       14.0070           0
     32805 WT13     1220     MECN     C1       CG331   -0.170000       12.0110           0
     32806 WT13     1220     MECN     H11      HGA3     0.090000        1.0080           0
     32807 WT13     1220     MECN     H12      HGA3     0.090000        1.0080           0
     32808 WT13     1220     MECN     H13      HGA3     0.090000        1.0080           0
     32809 WT13     1220     MECN     C2       CG1N1    0.360000       12.0110           0
     32810 WT13     1220     MECN     N3       NG1T1   -0.460000       14.0070           0
     32811 WT13     1222     MECN     C1       CG331   -0.170000       12.0110           0
     32812 WT13     1222     MECN     H11      HGA3     0.090000        1.0080           0
     32813 WT13     1222     MECN     H12      HGA3     0.090000        1.0080           0
     32814 WT13     1222     MECN     H13      HGA3     0.090000        1.0080           0
     32815 WT13     1222     MECN     C2       CG1N1    0.360000       12.0110           0
     32816 WT13     1222     MECN     N3       NG1T1   -0.460000       14.0070           0
     32817 WT13     1223     MECN     C1       CG331   -0.170000       12.0110           0
     32818 WT13     1223     MECN     H11      HGA3     0.090000        1.0080           0
     32819 WT13     1223     MECN     H12      HGA3     0.090000        1.0080           0
     32820 WT13     1223     MECN     H13      HGA3     0.090000        1.0080           0
     32821 WT13     1223     MECN     C2       CG1N1    0.360000       12.0110           0
     32822 WT13     1223     MECN     N3       NG1T1   -0.460000       14.0070           0
     32823 WT13     1228     MECN     C1       CG331   -0.170000       12.0110           0
     32824 WT13     1228     MECN     H11      HGA3     0.090000        1.0080           0
     32825 WT13     1228     MECN     H12      HGA3     0.090000        1.0080           0
     32826 WT13     1228     MECN     H13      HGA3     0.090000        1.0080           0
     32827 WT13     1228     MECN     C2       CG1N1    0.360000       12.0110           0
     32828 WT13     1228     MECN     N3       NG1T1   -0.460000       14.0070           0
     32829 WT13     1229     MECN     C1       CG331   -0.170000       12.0110           0
     32830 WT13     1229     MECN     H11      HGA3     0.090000        1.0080           0
     32831 WT13     1229     MECN     H12      HGA3     0.090000        1.0080           0
     32832 WT13     1229     MECN     H13      HGA3     0.090000        1.0080           0
     32833 WT13     1229     MECN     C2       CG1N1    0.360000       12.0110           0
     32834 WT13     1229     MECN     N3       NG1T1   -0.460000       14.0070           0
     32835 WT13     1230     MECN     C1       CG331   -0.170000       12.0110           0
     32836 WT13     1230     MECN     H11      HGA3     0.090000        1.0080           0
     32837 WT13     1230     MECN     H12      HGA3     0.090000        1.0080           0
     32838 WT13     1230     MECN     H13      HGA3     0.090000        1.0080           0
     32839 WT13     1230     MECN     C2       CG1N1    0.360000       12.0110           0
     32840 WT13     1230     MECN     N3       NG1T1   -0.460000       14.0070           0
     32841 WT13     1234     MECN     C1       CG331   -0.170000       12.0110           0
     32842 WT13     1234     MECN     H11      HGA3     0.090000        1.0080           0
     32843 WT13     1234     MECN     H12      HGA3     0.090000        1.0080           0
     32844 WT13     1234     MECN     H13      HGA3     0.090000        1.0080           0
     32845 WT13     1234     MECN     C2       CG1N1    0.360000       12.0110           0
     32846 WT13     1234     MECN     N3       NG1T1   -0.460000       14.0070           0
     32847 WT13     1236     MECN     C1       CG331   -0.170000       12.0110           0
     32848 WT13     1236     MECN     H11      HGA3     0.090000        1.0080           0
     32849 WT13     1236     MECN     H12      HGA3     0.090000        1.0080           0
     32850 WT13     1236     MECN     H13      HGA3     0.090000        1.0080           0
     32851 WT13     1236     MECN     C2       CG1N1    0.360000       12.0110           0
     32852 WT13     1236     MECN     N3       NG1T1   -0.460000       14.0070           0
     32853 WT13     1239     MECN     C1       CG331   -0.170000       12.0110           0
     32854 WT13     1239     MECN     H11      HGA3     0.090000        1.0080           0
     32855 WT13     1239     MECN     H12      HGA3     0.090000        1.0080           0
     32856 WT13     1239     MECN     H13      HGA3     0.090000        1.0080           0
     32857 WT13     1239     MECN     C2       CG1N1    0.360000       12.0110           0
     32858 WT13     1239     MECN     N3       NG1T1   -0.460000       14.0070           0
     32859 WT13     1242     MECN     C1       CG331   -0.170000       12.0110           0
     32860 WT13     1242     MECN     H11      HGA3     0.090000        1.0080           0
     32861 WT13     1242     MECN     H12      HGA3     0.090000        1.0080           0
     32862 WT13     1242     MECN     H13      HGA3     0.090000        1.0080           0
     32863 WT13     1242     MECN     C2       CG1N1    0.360000       12.0110           0
     32864 WT13     1242     MECN     N3       NG1T1   -0.460000       14.0070           0
     32865 WT13     1245     MECN     C1       CG331   -0.170000       12.0110           0
     32866 WT13     1245     MECN     H11      HGA3     0.090000        1.0080           0
     32867 WT13     1245     MECN     H12      HGA3     0.090000        1.0080           0
     32868 WT13     1245     MECN     H13      HGA3     0.090000        1.0080           0
     32869 WT13     1245     MECN     C2       CG1N1    0.360000       12.0110           0
     32870 WT13     1245     MECN     N3       NG1T1   -0.460000       14.0070           0
     32871 WT13     1246     MECN     C1       CG331   -0.170000       12.0110           0
     32872 WT13     1246     MECN     H11      HGA3     0.090000        1.0080           0
     32873 WT13     1246     MECN     H12      HGA3     0.090000        1.0080           0
     32874 WT13     1246     MECN     H13      HGA3     0.090000        1.0080           0
     32875 WT13     1246     MECN     C2       CG1N1    0.360000       12.0110           0
     32876 WT13     1246     MECN     N3       NG1T1   -0.460000       14.0070           0
     32877 WT13     1248     MECN     C1       CG331   -0.170000       12.0110           0
     32878 WT13     1248     MECN     H11      HGA3     0.090000        1.0080           0
     32879 WT13     1248     MECN     H12      HGA3     0.090000        1.0080           0
     32880 WT13     1248     MECN     H13      HGA3     0.090000        1.0080           0
     32881 WT13     1248     MECN     C2       CG1N1    0.360000       12.0110           0
     32882 WT13     1248     MECN     N3       NG1T1   -0.460000       14.0070           0
     32883 WT13     1249     MECN     C1       CG331   -0.170000       12.0110           0
     32884 WT13     1249     MECN     H11      HGA3     0.090000        1.0080           0
     32885 WT13     1249     MECN     H12      HGA3     0.090000        1.0080           0
     32886 WT13     1249     MECN     H13      HGA3     0.090000        1.0080           0
     32887 WT13     1249     MECN     C2       CG1N1    0.360000       12.0110           0
     32888 WT13     1249     MECN     N3       NG1T1   -0.460000       14.0070           0
     32889 WT13     1252     MECN     C1       CG331   -0.170000       12.0110           0
     32890 WT13     1252     MECN     H11      HGA3     0.090000        1.0080           0
     32891 WT13     1252     MECN     H12      HGA3     0.090000        1.0080           0
     32892 WT13     1252     MECN     H13      HGA3     0.090000        1.0080           0
     32893 WT13     1252     MECN     C2       CG1N1    0.360000       12.0110           0
     32894 WT13     1252     MECN     N3       NG1T1   -0.460000       14.0070           0
     32895 WT13     1253     MECN     C1       CG331   -0.170000       12.0110           0
     32896 WT13     1253     MECN     H11      HGA3     0.090000        1.0080           0
     32897 WT13     1253     MECN     H12      HGA3     0.090000        1.0080           0
     32898 WT13     1253     MECN     H13      HGA3     0.090000        1.0080           0
     32899 WT13     1253     MECN     C2       CG1N1    0.360000       12.0110           0
     32900 WT13     1253     MECN     N3       NG1T1   -0.460000       14.0070           0
     32901 WT13     1256     MECN     C1       CG331   -0.170000       12.0110           0
     32902 WT13     1256     MECN     H11      HGA3     0.090000        1.0080           0
     32903 WT13     1256     MECN     H12      HGA3     0.090000        1.0080           0
     32904 WT13     1256     MECN     H13      HGA3     0.090000        1.0080           0
     32905 WT13     1256     MECN     C2       CG1N1    0.360000       12.0110           0
     32906 WT13     1256     MECN     N3       NG1T1   -0.460000       14.0070           0
     32907 WT13     1257     MECN     C1       CG331   -0.170000       12.0110           0
     32908 WT13     1257     MECN     H11      HGA3     0.090000        1.0080           0
     32909 WT13     1257     MECN     H12      HGA3     0.090000        1.0080           0
     32910 WT13     1257     MECN     H13      HGA3     0.090000        1.0080           0
     32911 WT13     1257     MECN     C2       CG1N1    0.360000       12.0110           0
     32912 WT13     1257     MECN     N3       NG1T1   -0.460000       14.0070           0
     32913 WT13     1261     MECN     C1       CG331   -0.170000       12.0110           0
     32914 WT13     1261     MECN     H11      HGA3     0.090000        1.0080           0
     32915 WT13     1261     MECN     H12      HGA3     0.090000        1.0080           0
     32916 WT13     1261     MECN     H13      HGA3     0.090000        1.0080           0
     32917 WT13     1261     MECN     C2       CG1N1    0.360000       12.0110           0
     32918 WT13     1261     MECN     N3       NG1T1   -0.460000       14.0070           0
     32919 WT13     1264     MECN     C1       CG331   -0.170000       12.0110           0
     32920 WT13     1264     MECN     H11      HGA3     0.090000        1.0080           0
     32921 WT13     1264     MECN     H12      HGA3     0.090000        1.0080           0
     32922 WT13     1264     MECN     H13      HGA3     0.090000        1.0080           0
     32923 WT13     1264     MECN     C2       CG1N1    0.360000       12.0110           0
     32924 WT13     1264     MECN     N3       NG1T1   -0.460000       14.0070           0
     32925 WT13     1265     MECN     C1       CG331   -0.170000       12.0110           0
     32926 WT13     1265     MECN     H11      HGA3     0.090000        1.0080           0
     32927 WT13     1265     MECN     H12      HGA3     0.090000        1.0080           0
     32928 WT13     1265     MECN     H13      HGA3     0.090000        1.0080           0
     32929 WT13     1265     MECN     C2       CG1N1    0.360000       12.0110           0
     32930 WT13     1265     MECN     N3       NG1T1   -0.460000       14.0070           0
     32931 WT13     1267     MECN     C1       CG331   -0.170000       12.0110           0
     32932 WT13     1267     MECN     H11      HGA3     0.090000        1.0080           0
     32933 WT13     1267     MECN     H12      HGA3     0.090000        1.0080           0
     32934 WT13     1267     MECN     H13      HGA3     0.090000        1.0080           0
     32935 WT13     1267     MECN     C2       CG1N1    0.360000       12.0110           0
     32936 WT13     1267     MECN     N3       NG1T1   -0.460000       14.0070           0
     32937 WT13     1269     MECN     C1       CG331   -0.170000       12.0110           0
     32938 WT13     1269     MECN     H11      HGA3     0.090000        1.0080           0
     32939 WT13     1269     MECN     H12      HGA3     0.090000        1.0080           0
     32940 WT13     1269     MECN     H13      HGA3     0.090000        1.0080           0
     32941 WT13     1269     MECN     C2       CG1N1    0.360000       12.0110           0
     32942 WT13     1269     MECN     N3       NG1T1   -0.460000       14.0070           0
     32943 WT13     1270     MECN     C1       CG331   -0.170000       12.0110           0
     32944 WT13     1270     MECN     H11      HGA3     0.090000        1.0080           0
     32945 WT13     1270     MECN     H12      HGA3     0.090000        1.0080           0
     32946 WT13     1270     MECN     H13      HGA3     0.090000        1.0080           0
     32947 WT13     1270     MECN     C2       CG1N1    0.360000       12.0110           0
     32948 WT13     1270     MECN     N3       NG1T1   -0.460000       14.0070           0
     32949 WT13     1271     MECN     C1       CG331   -0.170000       12.0110           0
     32950 WT13     1271     MECN     H11      HGA3     0.090000        1.0080           0
     32951 WT13     1271     MECN     H12      HGA3     0.090000        1.0080           0
     32952 WT13     1271     MECN     H13      HGA3     0.090000        1.0080           0
     32953 WT13     1271     MECN     C2       CG1N1    0.360000       12.0110           0
     32954 WT13     1271     MECN     N3       NG1T1   -0.460000       14.0070           0
     32955 WT13     1273     MECN     C1       CG331   -0.170000       12.0110           0
     32956 WT13     1273     MECN     H11      HGA3     0.090000        1.0080           0
     32957 WT13     1273     MECN     H12      HGA3     0.090000        1.0080           0
     32958 WT13     1273     MECN     H13      HGA3     0.090000        1.0080           0
     32959 WT13     1273     MECN     C2       CG1N1    0.360000       12.0110           0
     32960 WT13     1273     MECN     N3       NG1T1   -0.460000       14.0070           0
     32961 WT13     1274     MECN     C1       CG331   -0.170000       12.0110           0
     32962 WT13     1274     MECN     H11      HGA3     0.090000        1.0080           0
     32963 WT13     1274     MECN     H12      HGA3     0.090000        1.0080           0
     32964 WT13     1274     MECN     H13      HGA3     0.090000        1.0080           0
     32965 WT13     1274     MECN     C2       CG1N1    0.360000       12.0110           0
     32966 WT13     1274     MECN     N3       NG1T1   -0.460000       14.0070           0
     32967 WT13     1276     MECN     C1       CG331   -0.170000       12.0110           0
     32968 WT13     1276     MECN     H11      HGA3     0.090000        1.0080           0
     32969 WT13     1276     MECN     H12      HGA3     0.090000        1.0080           0
     32970 WT13     1276     MECN     H13      HGA3     0.090000        1.0080           0
     32971 WT13     1276     MECN     C2       CG1N1    0.360000       12.0110           0
     32972 WT13     1276     MECN     N3       NG1T1   -0.460000       14.0070           0
     32973 WT13     1281     MECN     C1       CG331   -0.170000       12.0110           0
     32974 WT13     1281     MECN     H11      HGA3     0.090000        1.0080           0
     32975 WT13     1281     MECN     H12      HGA3     0.090000        1.0080           0
     32976 WT13     1281     MECN     H13      HGA3     0.090000        1.0080           0
     32977 WT13     1281     MECN     C2       CG1N1    0.360000       12.0110           0
     32978 WT13     1281     MECN     N3       NG1T1   -0.460000       14.0070           0
     32979 WT13     1284     MECN     C1       CG331   -0.170000       12.0110           0
     32980 WT13     1284     MECN     H11      HGA3     0.090000        1.0080           0
     32981 WT13     1284     MECN     H12      HGA3     0.090000        1.0080           0
     32982 WT13     1284     MECN     H13      HGA3     0.090000        1.0080           0
     32983 WT13     1284     MECN     C2       CG1N1    0.360000       12.0110           0
     32984 WT13     1284     MECN     N3       NG1T1   -0.460000       14.0070           0
     32985 WT13     1288     MECN     C1       CG331   -0.170000       12.0110           0
     32986 WT13     1288     MECN     H11      HGA3     0.090000        1.0080           0
     32987 WT13     1288     MECN     H12      HGA3     0.090000        1.0080           0
     32988 WT13     1288     MECN     H13      HGA3     0.090000        1.0080           0
     32989 WT13     1288     MECN     C2       CG1N1    0.360000       12.0110           0
     32990 WT13     1288     MECN     N3       NG1T1   -0.460000       14.0070           0
     32991 WT13     1289     MECN     C1       CG331   -0.170000       12.0110           0
     32992 WT13     1289     MECN     H11      HGA3     0.090000        1.0080           0
     32993 WT13     1289     MECN     H12      HGA3     0.090000        1.0080           0
     32994 WT13     1289     MECN     H13      HGA3     0.090000        1.0080           0
     32995 WT13     1289     MECN     C2       CG1N1    0.360000       12.0110           0
     32996 WT13     1289     MECN     N3       NG1T1   -0.460000       14.0070           0
     32997 WT13     1291     MECN     C1       CG331   -0.170000       12.0110           0
     32998 WT13     1291     MECN     H11      HGA3     0.090000        1.0080           0
     32999 WT13     1291     MECN     H12      HGA3     0.090000        1.0080           0
     33000 WT13     1291     MECN     H13      HGA3     0.090000        1.0080           0
     33001 WT13     1291     MECN     C2       CG1N1    0.360000       12.0110           0
     33002 WT13     1291     MECN     N3       NG1T1   -0.460000       14.0070           0
     33003 WT13     1293     MECN     C1       CG331   -0.170000       12.0110           0
     33004 WT13     1293     MECN     H11      HGA3     0.090000        1.0080           0
     33005 WT13     1293     MECN     H12      HGA3     0.090000        1.0080           0
     33006 WT13     1293     MECN     H13      HGA3     0.090000        1.0080           0
     33007 WT13     1293     MECN     C2       CG1N1    0.360000       12.0110           0
     33008 WT13     1293     MECN     N3       NG1T1   -0.460000       14.0070           0
     33009 WT13     1294     MECN     C1       CG331   -0.170000       12.0110           0
     33010 WT13     1294     MECN     H11      HGA3     0.090000        1.0080           0
     33011 WT13     1294     MECN     H12      HGA3     0.090000        1.0080           0
     33012 WT13     1294     MECN     H13      HGA3     0.090000        1.0080           0
     33013 WT13     1294     MECN     C2       CG1N1    0.360000       12.0110           0
     33014 WT13     1294     MECN     N3       NG1T1   -0.460000       14.0070           0
     33015 WT13     1295     MECN     C1       CG331   -0.170000       12.0110           0
     33016 WT13     1295     MECN     H11      HGA3     0.090000        1.0080           0
     33017 WT13     1295     MECN     H12      HGA3     0.090000        1.0080           0
     33018 WT13     1295     MECN     H13      HGA3     0.090000        1.0080           0
     33019 WT13     1295     MECN     C2       CG1N1    0.360000       12.0110           0
     33020 WT13     1295     MECN     N3       NG1T1   -0.460000       14.0070           0
     33021 WT13     1296     MECN     C1       CG331   -0.170000       12.0110           0
     33022 WT13     1296     MECN     H11      HGA3     0.090000        1.0080           0
     33023 WT13     1296     MECN     H12      HGA3     0.090000        1.0080           0
     33024 WT13     1296     MECN     H13      HGA3     0.090000        1.0080           0
     33025 WT13     1296     MECN     C2       CG1N1    0.360000       12.0110           0
     33026 WT13     1296     MECN     N3       NG1T1   -0.460000       14.0070           0
     33027 WT13     1298     MECN     C1       CG331   -0.170000       12.0110           0
     33028 WT13     1298     MECN     H11      HGA3     0.090000        1.0080           0
     33029 WT13     1298     MECN     H12      HGA3     0.090000        1.0080           0
     33030 WT13     1298     MECN     H13      HGA3     0.090000        1.0080           0
     33031 WT13     1298     MECN     C2       CG1N1    0.360000       12.0110           0
     33032 WT13     1298     MECN     N3       NG1T1   -0.460000       14.0070           0
     33033 WT13     1300     MECN     C1       CG331   -0.170000       12.0110           0
     33034 WT13     1300     MECN     H11      HGA3     0.090000        1.0080           0
     33035 WT13     1300     MECN     H12      HGA3     0.090000        1.0080           0
     33036 WT13     1300     MECN     H13      HGA3     0.090000        1.0080           0
     33037 WT13     1300     MECN     C2       CG1N1    0.360000       12.0110           0
     33038 WT13     1300     MECN     N3       NG1T1   -0.460000       14.0070           0
     33039 WT13     1303     MECN     C1       CG331   -0.170000       12.0110           0
     33040 WT13     1303     MECN     H11      HGA3     0.090000        1.0080           0
     33041 WT13     1303     MECN     H12      HGA3     0.090000        1.0080           0
     33042 WT13     1303     MECN     H13      HGA3     0.090000        1.0080           0
     33043 WT13     1303     MECN     C2       CG1N1    0.360000       12.0110           0
     33044 WT13     1303     MECN     N3       NG1T1   -0.460000       14.0070           0
     33045 WT13     1304     MECN     C1       CG331   -0.170000       12.0110           0
     33046 WT13     1304     MECN     H11      HGA3     0.090000        1.0080           0
     33047 WT13     1304     MECN     H12      HGA3     0.090000        1.0080           0
     33048 WT13     1304     MECN     H13      HGA3     0.090000        1.0080           0
     33049 WT13     1304     MECN     C2       CG1N1    0.360000       12.0110           0
     33050 WT13     1304     MECN     N3       NG1T1   -0.460000       14.0070           0
     33051 WT13     1305     MECN     C1       CG331   -0.170000       12.0110           0
     33052 WT13     1305     MECN     H11      HGA3     0.090000        1.0080           0
     33053 WT13     1305     MECN     H12      HGA3     0.090000        1.0080           0
     33054 WT13     1305     MECN     H13      HGA3     0.090000        1.0080           0
     33055 WT13     1305     MECN     C2       CG1N1    0.360000       12.0110           0
     33056 WT13     1305     MECN     N3       NG1T1   -0.460000       14.0070           0
     33057 WT13     1306     MECN     C1       CG331   -0.170000       12.0110           0
     33058 WT13     1306     MECN     H11      HGA3     0.090000        1.0080           0
     33059 WT13     1306     MECN     H12      HGA3     0.090000        1.0080           0
     33060 WT13     1306     MECN     H13      HGA3     0.090000        1.0080           0
     33061 WT13     1306     MECN     C2       CG1N1    0.360000       12.0110           0
     33062 WT13     1306     MECN     N3       NG1T1   -0.460000       14.0070           0
     33063 WT13     1307     MECN     C1       CG331   -0.170000       12.0110           0
     33064 WT13     1307     MECN     H11      HGA3     0.090000        1.0080           0
     33065 WT13     1307     MECN     H12      HGA3     0.090000        1.0080           0
     33066 WT13     1307     MECN     H13      HGA3     0.090000        1.0080           0
     33067 WT13     1307     MECN     C2       CG1N1    0.360000       12.0110           0
     33068 WT13     1307     MECN     N3       NG1T1   -0.460000       14.0070           0
     33069 WT13     1310     MECN     C1       CG331   -0.170000       12.0110           0
     33070 WT13     1310     MECN     H11      HGA3     0.090000        1.0080           0
     33071 WT13     1310     MECN     H12      HGA3     0.090000        1.0080           0
     33072 WT13     1310     MECN     H13      HGA3     0.090000        1.0080           0
     33073 WT13     1310     MECN     C2       CG1N1    0.360000       12.0110           0
     33074 WT13     1310     MECN     N3       NG1T1   -0.460000       14.0070           0
     33075 WT13     1315     MECN     C1       CG331   -0.170000       12.0110           0
     33076 WT13     1315     MECN     H11      HGA3     0.090000        1.0080           0
     33077 WT13     1315     MECN     H12      HGA3     0.090000        1.0080           0
     33078 WT13     1315     MECN     H13      HGA3     0.090000        1.0080           0
     33079 WT13     1315     MECN     C2       CG1N1    0.360000       12.0110           0
     33080 WT13     1315     MECN     N3       NG1T1   -0.460000       14.0070           0
     33081 WT13     1317     MECN     C1       CG331   -0.170000       12.0110           0
     33082 WT13     1317     MECN     H11      HGA3     0.090000        1.0080           0
     33083 WT13     1317     MECN     H12      HGA3     0.090000        1.0080           0
     33084 WT13     1317     MECN     H13      HGA3     0.090000        1.0080           0
     33085 WT13     1317     MECN     C2       CG1N1    0.360000       12.0110           0
     33086 WT13     1317     MECN     N3       NG1T1   -0.460000       14.0070           0
     33087 WT13     1321     MECN     C1       CG331   -0.170000       12.0110           0
     33088 WT13     1321     MECN     H11      HGA3     0.090000        1.0080           0
     33089 WT13     1321     MECN     H12      HGA3     0.090000        1.0080           0
     33090 WT13     1321     MECN     H13      HGA3     0.090000        1.0080           0
     33091 WT13     1321     MECN     C2       CG1N1    0.360000       12.0110           0
     33092 WT13     1321     MECN     N3       NG1T1   -0.460000       14.0070           0
     33093 WT13     1322     MECN     C1       CG331   -0.170000       12.0110           0
     33094 WT13     1322     MECN     H11      HGA3     0.090000        1.0080           0
     33095 WT13     1322     MECN     H12      HGA3     0.090000        1.0080           0
     33096 WT13     1322     MECN     H13      HGA3     0.090000        1.0080           0
     33097 WT13     1322     MECN     C2       CG1N1    0.360000       12.0110           0
     33098 WT13     1322     MECN     N3       NG1T1   -0.460000       14.0070           0
     33099 WT13     1325     MECN     C1       CG331   -0.170000       12.0110           0
     33100 WT13     1325     MECN     H11      HGA3     0.090000        1.0080           0
     33101 WT13     1325     MECN     H12      HGA3     0.090000        1.0080           0
     33102 WT13     1325     MECN     H13      HGA3     0.090000        1.0080           0
     33103 WT13     1325     MECN     C2       CG1N1    0.360000       12.0110           0
     33104 WT13     1325     MECN     N3       NG1T1   -0.460000       14.0070           0
     33105 WT13     1326     MECN     C1       CG331   -0.170000       12.0110           0
     33106 WT13     1326     MECN     H11      HGA3     0.090000        1.0080           0
     33107 WT13     1326     MECN     H12      HGA3     0.090000        1.0080           0
     33108 WT13     1326     MECN     H13      HGA3     0.090000        1.0080           0
     33109 WT13     1326     MECN     C2       CG1N1    0.360000       12.0110           0
     33110 WT13     1326     MECN     N3       NG1T1   -0.460000       14.0070           0
     33111 WT13     1328     MECN     C1       CG331   -0.170000       12.0110           0
     33112 WT13     1328     MECN     H11      HGA3     0.090000        1.0080           0
     33113 WT13     1328     MECN     H12      HGA3     0.090000        1.0080           0
     33114 WT13     1328     MECN     H13      HGA3     0.090000        1.0080           0
     33115 WT13     1328     MECN     C2       CG1N1    0.360000       12.0110           0
     33116 WT13     1328     MECN     N3       NG1T1   -0.460000       14.0070           0
     33117 WT13     1329     MECN     C1       CG331   -0.170000       12.0110           0
     33118 WT13     1329     MECN     H11      HGA3     0.090000        1.0080           0
     33119 WT13     1329     MECN     H12      HGA3     0.090000        1.0080           0
     33120 WT13     1329     MECN     H13      HGA3     0.090000        1.0080           0
     33121 WT13     1329     MECN     C2       CG1N1    0.360000       12.0110           0
     33122 WT13     1329     MECN     N3       NG1T1   -0.460000       14.0070           0
     33123 WT14     1        MECN     C1       CG331   -0.170000       12.0110           0
     33124 WT14     1        MECN     H11      HGA3     0.090000        1.0080           0
     33125 WT14     1        MECN     H12      HGA3     0.090000        1.0080           0
     33126 WT14     1        MECN     H13      HGA3     0.090000        1.0080           0
     33127 WT14     1        MECN     C2       CG1N1    0.360000       12.0110           0
     33128 WT14     1        MECN     N3       NG1T1   -0.460000       14.0070           0
     33129 WT14     2        MECN     C1       CG331   -0.170000       12.0110           0
     33130 WT14     2        MECN     H11      HGA3     0.090000        1.0080           0
     33131 WT14     2        MECN     H12      HGA3     0.090000        1.0080           0
     33132 WT14     2        MECN     H13      HGA3     0.090000        1.0080           0
     33133 WT14     2        MECN     C2       CG1N1    0.360000       12.0110           0
     33134 WT14     2        MECN     N3       NG1T1   -0.460000       14.0070           0
     33135 WT14     3        MECN     C1       CG331   -0.170000       12.0110           0
     33136 WT14     3        MECN     H11      HGA3     0.090000        1.0080           0
     33137 WT14     3        MECN     H12      HGA3     0.090000        1.0080           0
     33138 WT14     3        MECN     H13      HGA3     0.090000        1.0080           0
     33139 WT14     3        MECN     C2       CG1N1    0.360000       12.0110           0
     33140 WT14     3        MECN     N3       NG1T1   -0.460000       14.0070           0
     33141 WT14     4        MECN     C1       CG331   -0.170000       12.0110           0
     33142 WT14     4        MECN     H11      HGA3     0.090000        1.0080           0
     33143 WT14     4        MECN     H12      HGA3     0.090000        1.0080           0
     33144 WT14     4        MECN     H13      HGA3     0.090000        1.0080           0
     33145 WT14     4        MECN     C2       CG1N1    0.360000       12.0110           0
     33146 WT14     4        MECN     N3       NG1T1   -0.460000       14.0070           0
     33147 WT14     5        MECN     C1       CG331   -0.170000       12.0110           0
     33148 WT14     5        MECN     H11      HGA3     0.090000        1.0080           0
     33149 WT14     5        MECN     H12      HGA3     0.090000        1.0080           0
     33150 WT14     5        MECN     H13      HGA3     0.090000        1.0080           0
     33151 WT14     5        MECN     C2       CG1N1    0.360000       12.0110           0
     33152 WT14     5        MECN     N3       NG1T1   -0.460000       14.0070           0
     33153 WT14     6        MECN     C1       CG331   -0.170000       12.0110           0
     33154 WT14     6        MECN     H11      HGA3     0.090000        1.0080           0
     33155 WT14     6        MECN     H12      HGA3     0.090000        1.0080           0
     33156 WT14     6        MECN     H13      HGA3     0.090000        1.0080           0
     33157 WT14     6        MECN     C2       CG1N1    0.360000       12.0110           0
     33158 WT14     6        MECN     N3       NG1T1   -0.460000       14.0070           0
     33159 WT14     7        MECN     C1       CG331   -0.170000       12.0110           0
     33160 WT14     7        MECN     H11      HGA3     0.090000        1.0080           0
     33161 WT14     7        MECN     H12      HGA3     0.090000        1.0080           0
     33162 WT14     7        MECN     H13      HGA3     0.090000        1.0080           0
     33163 WT14     7        MECN     C2       CG1N1    0.360000       12.0110           0
     33164 WT14     7        MECN     N3       NG1T1   -0.460000       14.0070           0
     33165 WT14     9        MECN     C1       CG331   -0.170000       12.0110           0
     33166 WT14     9        MECN     H11      HGA3     0.090000        1.0080           0
     33167 WT14     9        MECN     H12      HGA3     0.090000        1.0080           0
     33168 WT14     9        MECN     H13      HGA3     0.090000        1.0080           0
     33169 WT14     9        MECN     C2       CG1N1    0.360000       12.0110           0
     33170 WT14     9        MECN     N3       NG1T1   -0.460000       14.0070           0
     33171 WT14     10       MECN     C1       CG331   -0.170000       12.0110           0
     33172 WT14     10       MECN     H11      HGA3     0.090000        1.0080           0
     33173 WT14     10       MECN     H12      HGA3     0.090000        1.0080           0
     33174 WT14     10       MECN     H13      HGA3     0.090000        1.0080           0
     33175 WT14     10       MECN     C2       CG1N1    0.360000       12.0110           0
     33176 WT14     10       MECN     N3       NG1T1   -0.460000       14.0070           0
     33177 WT14     11       MECN     C1       CG331   -0.170000       12.0110           0
     33178 WT14     11       MECN     H11      HGA3     0.090000        1.0080           0
     33179 WT14     11       MECN     H12      HGA3     0.090000        1.0080           0
     33180 WT14     11       MECN     H13      HGA3     0.090000        1.0080           0
     33181 WT14     11       MECN     C2       CG1N1    0.360000       12.0110           0
     33182 WT14     11       MECN     N3       NG1T1   -0.460000       14.0070           0
     33183 WT14     12       MECN     C1       CG331   -0.170000       12.0110           0
     33184 WT14     12       MECN     H11      HGA3     0.090000        1.0080           0
     33185 WT14     12       MECN     H12      HGA3     0.090000        1.0080           0
     33186 WT14     12       MECN     H13      HGA3     0.090000        1.0080           0
     33187 WT14     12       MECN     C2       CG1N1    0.360000       12.0110           0
     33188 WT14     12       MECN     N3       NG1T1   -0.460000       14.0070           0
     33189 WT14     13       MECN     C1       CG331   -0.170000       12.0110           0
     33190 WT14     13       MECN     H11      HGA3     0.090000        1.0080           0
     33191 WT14     13       MECN     H12      HGA3     0.090000        1.0080           0
     33192 WT14     13       MECN     H13      HGA3     0.090000        1.0080           0
     33193 WT14     13       MECN     C2       CG1N1    0.360000       12.0110           0
     33194 WT14     13       MECN     N3       NG1T1   -0.460000       14.0070           0
     33195 WT14     14       MECN     C1       CG331   -0.170000       12.0110           0
     33196 WT14     14       MECN     H11      HGA3     0.090000        1.0080           0
     33197 WT14     14       MECN     H12      HGA3     0.090000        1.0080           0
     33198 WT14     14       MECN     H13      HGA3     0.090000        1.0080           0
     33199 WT14     14       MECN     C2       CG1N1    0.360000       12.0110           0
     33200 WT14     14       MECN     N3       NG1T1   -0.460000       14.0070           0
     33201 WT14     16       MECN     C1       CG331   -0.170000       12.0110           0
     33202 WT14     16       MECN     H11      HGA3     0.090000        1.0080           0
     33203 WT14     16       MECN     H12      HGA3     0.090000        1.0080           0
     33204 WT14     16       MECN     H13      HGA3     0.090000        1.0080           0
     33205 WT14     16       MECN     C2       CG1N1    0.360000       12.0110           0
     33206 WT14     16       MECN     N3       NG1T1   -0.460000       14.0070           0
     33207 WT14     17       MECN     C1       CG331   -0.170000       12.0110           0
     33208 WT14     17       MECN     H11      HGA3     0.090000        1.0080           0
     33209 WT14     17       MECN     H12      HGA3     0.090000        1.0080           0
     33210 WT14     17       MECN     H13      HGA3     0.090000        1.0080           0
     33211 WT14     17       MECN     C2       CG1N1    0.360000       12.0110           0
     33212 WT14     17       MECN     N3       NG1T1   -0.460000       14.0070           0
     33213 WT14     18       MECN     C1       CG331   -0.170000       12.0110           0
     33214 WT14     18       MECN     H11      HGA3     0.090000        1.0080           0
     33215 WT14     18       MECN     H12      HGA3     0.090000        1.0080           0
     33216 WT14     18       MECN     H13      HGA3     0.090000        1.0080           0
     33217 WT14     18       MECN     C2       CG1N1    0.360000       12.0110           0
     33218 WT14     18       MECN     N3       NG1T1   -0.460000       14.0070           0
     33219 WT14     19       MECN     C1       CG331   -0.170000       12.0110           0
     33220 WT14     19       MECN     H11      HGA3     0.090000        1.0080           0
     33221 WT14     19       MECN     H12      HGA3     0.090000        1.0080           0
     33222 WT14     19       MECN     H13      HGA3     0.090000        1.0080           0
     33223 WT14     19       MECN     C2       CG1N1    0.360000       12.0110           0
     33224 WT14     19       MECN     N3       NG1T1   -0.460000       14.0070           0
     33225 WT14     20       MECN     C1       CG331   -0.170000       12.0110           0
     33226 WT14     20       MECN     H11      HGA3     0.090000        1.0080           0
     33227 WT14     20       MECN     H12      HGA3     0.090000        1.0080           0
     33228 WT14     20       MECN     H13      HGA3     0.090000        1.0080           0
     33229 WT14     20       MECN     C2       CG1N1    0.360000       12.0110           0
     33230 WT14     20       MECN     N3       NG1T1   -0.460000       14.0070           0
     33231 WT14     21       MECN     C1       CG331   -0.170000       12.0110           0
     33232 WT14     21       MECN     H11      HGA3     0.090000        1.0080           0
     33233 WT14     21       MECN     H12      HGA3     0.090000        1.0080           0
     33234 WT14     21       MECN     H13      HGA3     0.090000        1.0080           0
     33235 WT14     21       MECN     C2       CG1N1    0.360000       12.0110           0
     33236 WT14     21       MECN     N3       NG1T1   -0.460000       14.0070           0
     33237 WT14     22       MECN     C1       CG331   -0.170000       12.0110           0
     33238 WT14     22       MECN     H11      HGA3     0.090000        1.0080           0
     33239 WT14     22       MECN     H12      HGA3     0.090000        1.0080           0
     33240 WT14     22       MECN     H13      HGA3     0.090000        1.0080           0
     33241 WT14     22       MECN     C2       CG1N1    0.360000       12.0110           0
     33242 WT14     22       MECN     N3       NG1T1   -0.460000       14.0070           0
     33243 WT14     23       MECN     C1       CG331   -0.170000       12.0110           0
     33244 WT14     23       MECN     H11      HGA3     0.090000        1.0080           0
     33245 WT14     23       MECN     H12      HGA3     0.090000        1.0080           0
     33246 WT14     23       MECN     H13      HGA3     0.090000        1.0080           0
     33247 WT14     23       MECN     C2       CG1N1    0.360000       12.0110           0
     33248 WT14     23       MECN     N3       NG1T1   -0.460000       14.0070           0
     33249 WT14     24       MECN     C1       CG331   -0.170000       12.0110           0
     33250 WT14     24       MECN     H11      HGA3     0.090000        1.0080           0
     33251 WT14     24       MECN     H12      HGA3     0.090000        1.0080           0
     33252 WT14     24       MECN     H13      HGA3     0.090000        1.0080           0
     33253 WT14     24       MECN     C2       CG1N1    0.360000       12.0110           0
     33254 WT14     24       MECN     N3       NG1T1   -0.460000       14.0070           0
     33255 WT14     26       MECN     C1       CG331   -0.170000       12.0110           0
     33256 WT14     26       MECN     H11      HGA3     0.090000        1.0080           0
     33257 WT14     26       MECN     H12      HGA3     0.090000        1.0080           0
     33258 WT14     26       MECN     H13      HGA3     0.090000        1.0080           0
     33259 WT14     26       MECN     C2       CG1N1    0.360000       12.0110           0
     33260 WT14     26       MECN     N3       NG1T1   -0.460000       14.0070           0
     33261 WT14     27       MECN     C1       CG331   -0.170000       12.0110           0
     33262 WT14     27       MECN     H11      HGA3     0.090000        1.0080           0
     33263 WT14     27       MECN     H12      HGA3     0.090000        1.0080           0
     33264 WT14     27       MECN     H13      HGA3     0.090000        1.0080           0
     33265 WT14     27       MECN     C2       CG1N1    0.360000       12.0110           0
     33266 WT14     27       MECN     N3       NG1T1   -0.460000       14.0070           0
     33267 WT14     28       MECN     C1       CG331   -0.170000       12.0110           0
     33268 WT14     28       MECN     H11      HGA3     0.090000        1.0080           0
     33269 WT14     28       MECN     H12      HGA3     0.090000        1.0080           0
     33270 WT14     28       MECN     H13      HGA3     0.090000        1.0080           0
     33271 WT14     28       MECN     C2       CG1N1    0.360000       12.0110           0
     33272 WT14     28       MECN     N3       NG1T1   -0.460000       14.0070           0
     33273 WT14     29       MECN     C1       CG331   -0.170000       12.0110           0
     33274 WT14     29       MECN     H11      HGA3     0.090000        1.0080           0
     33275 WT14     29       MECN     H12      HGA3     0.090000        1.0080           0
     33276 WT14     29       MECN     H13      HGA3     0.090000        1.0080           0
     33277 WT14     29       MECN     C2       CG1N1    0.360000       12.0110           0
     33278 WT14     29       MECN     N3       NG1T1   -0.460000       14.0070           0
     33279 WT14     30       MECN     C1       CG331   -0.170000       12.0110           0
     33280 WT14     30       MECN     H11      HGA3     0.090000        1.0080           0
     33281 WT14     30       MECN     H12      HGA3     0.090000        1.0080           0
     33282 WT14     30       MECN     H13      HGA3     0.090000        1.0080           0
     33283 WT14     30       MECN     C2       CG1N1    0.360000       12.0110           0
     33284 WT14     30       MECN     N3       NG1T1   -0.460000       14.0070           0
     33285 WT14     32       MECN     C1       CG331   -0.170000       12.0110           0
     33286 WT14     32       MECN     H11      HGA3     0.090000        1.0080           0
     33287 WT14     32       MECN     H12      HGA3     0.090000        1.0080           0
     33288 WT14     32       MECN     H13      HGA3     0.090000        1.0080           0
     33289 WT14     32       MECN     C2       CG1N1    0.360000       12.0110           0
     33290 WT14     32       MECN     N3       NG1T1   -0.460000       14.0070           0
     33291 WT14     33       MECN     C1       CG331   -0.170000       12.0110           0
     33292 WT14     33       MECN     H11      HGA3     0.090000        1.0080           0
     33293 WT14     33       MECN     H12      HGA3     0.090000        1.0080           0
     33294 WT14     33       MECN     H13      HGA3     0.090000        1.0080           0
     33295 WT14     33       MECN     C2       CG1N1    0.360000       12.0110           0
     33296 WT14     33       MECN     N3       NG1T1   -0.460000       14.0070           0
     33297 WT14     34       MECN     C1       CG331   -0.170000       12.0110           0
     33298 WT14     34       MECN     H11      HGA3     0.090000        1.0080           0
     33299 WT14     34       MECN     H12      HGA3     0.090000        1.0080           0
     33300 WT14     34       MECN     H13      HGA3     0.090000        1.0080           0
     33301 WT14     34       MECN     C2       CG1N1    0.360000       12.0110           0
     33302 WT14     34       MECN     N3       NG1T1   -0.460000       14.0070           0
     33303 WT14     35       MECN     C1       CG331   -0.170000       12.0110           0
     33304 WT14     35       MECN     H11      HGA3     0.090000        1.0080           0
     33305 WT14     35       MECN     H12      HGA3     0.090000        1.0080           0
     33306 WT14     35       MECN     H13      HGA3     0.090000        1.0080           0
     33307 WT14     35       MECN     C2       CG1N1    0.360000       12.0110           0
     33308 WT14     35       MECN     N3       NG1T1   -0.460000       14.0070           0
     33309 WT14     36       MECN     C1       CG331   -0.170000       12.0110           0
     33310 WT14     36       MECN     H11      HGA3     0.090000        1.0080           0
     33311 WT14     36       MECN     H12      HGA3     0.090000        1.0080           0
     33312 WT14     36       MECN     H13      HGA3     0.090000        1.0080           0
     33313 WT14     36       MECN     C2       CG1N1    0.360000       12.0110           0
     33314 WT14     36       MECN     N3       NG1T1   -0.460000       14.0070           0
     33315 WT14     37       MECN     C1       CG331   -0.170000       12.0110           0
     33316 WT14     37       MECN     H11      HGA3     0.090000        1.0080           0
     33317 WT14     37       MECN     H12      HGA3     0.090000        1.0080           0
     33318 WT14     37       MECN     H13      HGA3     0.090000        1.0080           0
     33319 WT14     37       MECN     C2       CG1N1    0.360000       12.0110           0
     33320 WT14     37       MECN     N3       NG1T1   -0.460000       14.0070           0
     33321 WT14     40       MECN     C1       CG331   -0.170000       12.0110           0
     33322 WT14     40       MECN     H11      HGA3     0.090000        1.0080           0
     33323 WT14     40       MECN     H12      HGA3     0.090000        1.0080           0
     33324 WT14     40       MECN     H13      HGA3     0.090000        1.0080           0
     33325 WT14     40       MECN     C2       CG1N1    0.360000       12.0110           0
     33326 WT14     40       MECN     N3       NG1T1   -0.460000       14.0070           0
     33327 WT14     41       MECN     C1       CG331   -0.170000       12.0110           0
     33328 WT14     41       MECN     H11      HGA3     0.090000        1.0080           0
     33329 WT14     41       MECN     H12      HGA3     0.090000        1.0080           0
     33330 WT14     41       MECN     H13      HGA3     0.090000        1.0080           0
     33331 WT14     41       MECN     C2       CG1N1    0.360000       12.0110           0
     33332 WT14     41       MECN     N3       NG1T1   -0.460000       14.0070           0
     33333 WT14     42       MECN     C1       CG331   -0.170000       12.0110           0
     33334 WT14     42       MECN     H11      HGA3     0.090000        1.0080           0
     33335 WT14     42       MECN     H12      HGA3     0.090000        1.0080           0
     33336 WT14     42       MECN     H13      HGA3     0.090000        1.0080           0
     33337 WT14     42       MECN     C2       CG1N1    0.360000       12.0110           0
     33338 WT14     42       MECN     N3       NG1T1   -0.460000       14.0070           0
     33339 WT14     43       MECN     C1       CG331   -0.170000       12.0110           0
     33340 WT14     43       MECN     H11      HGA3     0.090000        1.0080           0
     33341 WT14     43       MECN     H12      HGA3     0.090000        1.0080           0
     33342 WT14     43       MECN     H13      HGA3     0.090000        1.0080           0
     33343 WT14     43       MECN     C2       CG1N1    0.360000       12.0110           0
     33344 WT14     43       MECN     N3       NG1T1   -0.460000       14.0070           0
     33345 WT14     44       MECN     C1       CG331   -0.170000       12.0110           0
     33346 WT14     44       MECN     H11      HGA3     0.090000        1.0080           0
     33347 WT14     44       MECN     H12      HGA3     0.090000        1.0080           0
     33348 WT14     44       MECN     H13      HGA3     0.090000        1.0080           0
     33349 WT14     44       MECN     C2       CG1N1    0.360000       12.0110           0
     33350 WT14     44       MECN     N3       NG1T1   -0.460000       14.0070           0
     33351 WT14     45       MECN     C1       CG331   -0.170000       12.0110           0
     33352 WT14     45       MECN     H11      HGA3     0.090000        1.0080           0
     33353 WT14     45       MECN     H12      HGA3     0.090000        1.0080           0
     33354 WT14     45       MECN     H13      HGA3     0.090000        1.0080           0
     33355 WT14     45       MECN     C2       CG1N1    0.360000       12.0110           0
     33356 WT14     45       MECN     N3       NG1T1   -0.460000       14.0070           0
     33357 WT14     46       MECN     C1       CG331   -0.170000       12.0110           0
     33358 WT14     46       MECN     H11      HGA3     0.090000        1.0080           0
     33359 WT14     46       MECN     H12      HGA3     0.090000        1.0080           0
     33360 WT14     46       MECN     H13      HGA3     0.090000        1.0080           0
     33361 WT14     46       MECN     C2       CG1N1    0.360000       12.0110           0
     33362 WT14     46       MECN     N3       NG1T1   -0.460000       14.0070           0
     33363 WT14     47       MECN     C1       CG331   -0.170000       12.0110           0
     33364 WT14     47       MECN     H11      HGA3     0.090000        1.0080           0
     33365 WT14     47       MECN     H12      HGA3     0.090000        1.0080           0
     33366 WT14     47       MECN     H13      HGA3     0.090000        1.0080           0
     33367 WT14     47       MECN     C2       CG1N1    0.360000       12.0110           0
     33368 WT14     47       MECN     N3       NG1T1   -0.460000       14.0070           0
     33369 WT14     48       MECN     C1       CG331   -0.170000       12.0110           0
     33370 WT14     48       MECN     H11      HGA3     0.090000        1.0080           0
     33371 WT14     48       MECN     H12      HGA3     0.090000        1.0080           0
     33372 WT14     48       MECN     H13      HGA3     0.090000        1.0080           0
     33373 WT14     48       MECN     C2       CG1N1    0.360000       12.0110           0
     33374 WT14     48       MECN     N3       NG1T1   -0.460000       14.0070           0
     33375 WT14     49       MECN     C1       CG331   -0.170000       12.0110           0
     33376 WT14     49       MECN     H11      HGA3     0.090000        1.0080           0
     33377 WT14     49       MECN     H12      HGA3     0.090000        1.0080           0
     33378 WT14     49       MECN     H13      HGA3     0.090000        1.0080           0
     33379 WT14     49       MECN     C2       CG1N1    0.360000       12.0110           0
     33380 WT14     49       MECN     N3       NG1T1   -0.460000       14.0070           0
     33381 WT14     50       MECN     C1       CG331   -0.170000       12.0110           0
     33382 WT14     50       MECN     H11      HGA3     0.090000        1.0080           0
     33383 WT14     50       MECN     H12      HGA3     0.090000        1.0080           0
     33384 WT14     50       MECN     H13      HGA3     0.090000        1.0080           0
     33385 WT14     50       MECN     C2       CG1N1    0.360000       12.0110           0
     33386 WT14     50       MECN     N3       NG1T1   -0.460000       14.0070           0
     33387 WT14     51       MECN     C1       CG331   -0.170000       12.0110           0
     33388 WT14     51       MECN     H11      HGA3     0.090000        1.0080           0
     33389 WT14     51       MECN     H12      HGA3     0.090000        1.0080           0
     33390 WT14     51       MECN     H13      HGA3     0.090000        1.0080           0
     33391 WT14     51       MECN     C2       CG1N1    0.360000       12.0110           0
     33392 WT14     51       MECN     N3       NG1T1   -0.460000       14.0070           0
     33393 WT14     52       MECN     C1       CG331   -0.170000       12.0110           0
     33394 WT14     52       MECN     H11      HGA3     0.090000        1.0080           0
     33395 WT14     52       MECN     H12      HGA3     0.090000        1.0080           0
     33396 WT14     52       MECN     H13      HGA3     0.090000        1.0080           0
     33397 WT14     52       MECN     C2       CG1N1    0.360000       12.0110           0
     33398 WT14     52       MECN     N3       NG1T1   -0.460000       14.0070           0
     33399 WT14     53       MECN     C1       CG331   -0.170000       12.0110           0
     33400 WT14     53       MECN     H11      HGA3     0.090000        1.0080           0
     33401 WT14     53       MECN     H12      HGA3     0.090000        1.0080           0
     33402 WT14     53       MECN     H13      HGA3     0.090000        1.0080           0
     33403 WT14     53       MECN     C2       CG1N1    0.360000       12.0110           0
     33404 WT14     53       MECN     N3       NG1T1   -0.460000       14.0070           0
     33405 WT14     54       MECN     C1       CG331   -0.170000       12.0110           0
     33406 WT14     54       MECN     H11      HGA3     0.090000        1.0080           0
     33407 WT14     54       MECN     H12      HGA3     0.090000        1.0080           0
     33408 WT14     54       MECN     H13      HGA3     0.090000        1.0080           0
     33409 WT14     54       MECN     C2       CG1N1    0.360000       12.0110           0
     33410 WT14     54       MECN     N3       NG1T1   -0.460000       14.0070           0
     33411 WT14     55       MECN     C1       CG331   -0.170000       12.0110           0
     33412 WT14     55       MECN     H11      HGA3     0.090000        1.0080           0
     33413 WT14     55       MECN     H12      HGA3     0.090000        1.0080           0
     33414 WT14     55       MECN     H13      HGA3     0.090000        1.0080           0
     33415 WT14     55       MECN     C2       CG1N1    0.360000       12.0110           0
     33416 WT14     55       MECN     N3       NG1T1   -0.460000       14.0070           0
     33417 WT14     56       MECN     C1       CG331   -0.170000       12.0110           0
     33418 WT14     56       MECN     H11      HGA3     0.090000        1.0080           0
     33419 WT14     56       MECN     H12      HGA3     0.090000        1.0080           0
     33420 WT14     56       MECN     H13      HGA3     0.090000        1.0080           0
     33421 WT14     56       MECN     C2       CG1N1    0.360000       12.0110           0
     33422 WT14     56       MECN     N3       NG1T1   -0.460000       14.0070           0
     33423 WT14     57       MECN     C1       CG331   -0.170000       12.0110           0
     33424 WT14     57       MECN     H11      HGA3     0.090000        1.0080           0
     33425 WT14     57       MECN     H12      HGA3     0.090000        1.0080           0
     33426 WT14     57       MECN     H13      HGA3     0.090000        1.0080           0
     33427 WT14     57       MECN     C2       CG1N1    0.360000       12.0110           0
     33428 WT14     57       MECN     N3       NG1T1   -0.460000       14.0070           0
     33429 WT14     58       MECN     C1       CG331   -0.170000       12.0110           0
     33430 WT14     58       MECN     H11      HGA3     0.090000        1.0080           0
     33431 WT14     58       MECN     H12      HGA3     0.090000        1.0080           0
     33432 WT14     58       MECN     H13      HGA3     0.090000        1.0080           0
     33433 WT14     58       MECN     C2       CG1N1    0.360000       12.0110           0
     33434 WT14     58       MECN     N3       NG1T1   -0.460000       14.0070           0
     33435 WT14     59       MECN     C1       CG331   -0.170000       12.0110           0
     33436 WT14     59       MECN     H11      HGA3     0.090000        1.0080           0
     33437 WT14     59       MECN     H12      HGA3     0.090000        1.0080           0
     33438 WT14     59       MECN     H13      HGA3     0.090000        1.0080           0
     33439 WT14     59       MECN     C2       CG1N1    0.360000       12.0110           0
     33440 WT14     59       MECN     N3       NG1T1   -0.460000       14.0070           0
     33441 WT14     60       MECN     C1       CG331   -0.170000       12.0110           0
     33442 WT14     60       MECN     H11      HGA3     0.090000        1.0080           0
     33443 WT14     60       MECN     H12      HGA3     0.090000        1.0080           0
     33444 WT14     60       MECN     H13      HGA3     0.090000        1.0080           0
     33445 WT14     60       MECN     C2       CG1N1    0.360000       12.0110           0
     33446 WT14     60       MECN     N3       NG1T1   -0.460000       14.0070           0
     33447 WT14     61       MECN     C1       CG331   -0.170000       12.0110           0
     33448 WT14     61       MECN     H11      HGA3     0.090000        1.0080           0
     33449 WT14     61       MECN     H12      HGA3     0.090000        1.0080           0
     33450 WT14     61       MECN     H13      HGA3     0.090000        1.0080           0
     33451 WT14     61       MECN     C2       CG1N1    0.360000       12.0110           0
     33452 WT14     61       MECN     N3       NG1T1   -0.460000       14.0070           0
     33453 WT14     63       MECN     C1       CG331   -0.170000       12.0110           0
     33454 WT14     63       MECN     H11      HGA3     0.090000        1.0080           0
     33455 WT14     63       MECN     H12      HGA3     0.090000        1.0080           0
     33456 WT14     63       MECN     H13      HGA3     0.090000        1.0080           0
     33457 WT14     63       MECN     C2       CG1N1    0.360000       12.0110           0
     33458 WT14     63       MECN     N3       NG1T1   -0.460000       14.0070           0
     33459 WT14     64       MECN     C1       CG331   -0.170000       12.0110           0
     33460 WT14     64       MECN     H11      HGA3     0.090000        1.0080           0
     33461 WT14     64       MECN     H12      HGA3     0.090000        1.0080           0
     33462 WT14     64       MECN     H13      HGA3     0.090000        1.0080           0
     33463 WT14     64       MECN     C2       CG1N1    0.360000       12.0110           0
     33464 WT14     64       MECN     N3       NG1T1   -0.460000       14.0070           0
     33465 WT14     65       MECN     C1       CG331   -0.170000       12.0110           0
     33466 WT14     65       MECN     H11      HGA3     0.090000        1.0080           0
     33467 WT14     65       MECN     H12      HGA3     0.090000        1.0080           0
     33468 WT14     65       MECN     H13      HGA3     0.090000        1.0080           0
     33469 WT14     65       MECN     C2       CG1N1    0.360000       12.0110           0
     33470 WT14     65       MECN     N3       NG1T1   -0.460000       14.0070           0
     33471 WT14     66       MECN     C1       CG331   -0.170000       12.0110           0
     33472 WT14     66       MECN     H11      HGA3     0.090000        1.0080           0
     33473 WT14     66       MECN     H12      HGA3     0.090000        1.0080           0
     33474 WT14     66       MECN     H13      HGA3     0.090000        1.0080           0
     33475 WT14     66       MECN     C2       CG1N1    0.360000       12.0110           0
     33476 WT14     66       MECN     N3       NG1T1   -0.460000       14.0070           0
     33477 WT14     67       MECN     C1       CG331   -0.170000       12.0110           0
     33478 WT14     67       MECN     H11      HGA3     0.090000        1.0080           0
     33479 WT14     67       MECN     H12      HGA3     0.090000        1.0080           0
     33480 WT14     67       MECN     H13      HGA3     0.090000        1.0080           0
     33481 WT14     67       MECN     C2       CG1N1    0.360000       12.0110           0
     33482 WT14     67       MECN     N3       NG1T1   -0.460000       14.0070           0
     33483 WT14     68       MECN     C1       CG331   -0.170000       12.0110           0
     33484 WT14     68       MECN     H11      HGA3     0.090000        1.0080           0
     33485 WT14     68       MECN     H12      HGA3     0.090000        1.0080           0
     33486 WT14     68       MECN     H13      HGA3     0.090000        1.0080           0
     33487 WT14     68       MECN     C2       CG1N1    0.360000       12.0110           0
     33488 WT14     68       MECN     N3       NG1T1   -0.460000       14.0070           0
     33489 WT14     69       MECN     C1       CG331   -0.170000       12.0110           0
     33490 WT14     69       MECN     H11      HGA3     0.090000        1.0080           0
     33491 WT14     69       MECN     H12      HGA3     0.090000        1.0080           0
     33492 WT14     69       MECN     H13      HGA3     0.090000        1.0080           0
     33493 WT14     69       MECN     C2       CG1N1    0.360000       12.0110           0
     33494 WT14     69       MECN     N3       NG1T1   -0.460000       14.0070           0
     33495 WT14     70       MECN     C1       CG331   -0.170000       12.0110           0
     33496 WT14     70       MECN     H11      HGA3     0.090000        1.0080           0
     33497 WT14     70       MECN     H12      HGA3     0.090000        1.0080           0
     33498 WT14     70       MECN     H13      HGA3     0.090000        1.0080           0
     33499 WT14     70       MECN     C2       CG1N1    0.360000       12.0110           0
     33500 WT14     70       MECN     N3       NG1T1   -0.460000       14.0070           0
     33501 WT14     71       MECN     C1       CG331   -0.170000       12.0110           0
     33502 WT14     71       MECN     H11      HGA3     0.090000        1.0080           0
     33503 WT14     71       MECN     H12      HGA3     0.090000        1.0080           0
     33504 WT14     71       MECN     H13      HGA3     0.090000        1.0080           0
     33505 WT14     71       MECN     C2       CG1N1    0.360000       12.0110           0
     33506 WT14     71       MECN     N3       NG1T1   -0.460000       14.0070           0
     33507 WT14     72       MECN     C1       CG331   -0.170000       12.0110           0
     33508 WT14     72       MECN     H11      HGA3     0.090000        1.0080           0
     33509 WT14     72       MECN     H12      HGA3     0.090000        1.0080           0
     33510 WT14     72       MECN     H13      HGA3     0.090000        1.0080           0
     33511 WT14     72       MECN     C2       CG1N1    0.360000       12.0110           0
     33512 WT14     72       MECN     N3       NG1T1   -0.460000       14.0070           0
     33513 WT14     73       MECN     C1       CG331   -0.170000       12.0110           0
     33514 WT14     73       MECN     H11      HGA3     0.090000        1.0080           0
     33515 WT14     73       MECN     H12      HGA3     0.090000        1.0080           0
     33516 WT14     73       MECN     H13      HGA3     0.090000        1.0080           0
     33517 WT14     73       MECN     C2       CG1N1    0.360000       12.0110           0
     33518 WT14     73       MECN     N3       NG1T1   -0.460000       14.0070           0
     33519 WT14     74       MECN     C1       CG331   -0.170000       12.0110           0
     33520 WT14     74       MECN     H11      HGA3     0.090000        1.0080           0
     33521 WT14     74       MECN     H12      HGA3     0.090000        1.0080           0
     33522 WT14     74       MECN     H13      HGA3     0.090000        1.0080           0
     33523 WT14     74       MECN     C2       CG1N1    0.360000       12.0110           0
     33524 WT14     74       MECN     N3       NG1T1   -0.460000       14.0070           0
     33525 WT14     75       MECN     C1       CG331   -0.170000       12.0110           0
     33526 WT14     75       MECN     H11      HGA3     0.090000        1.0080           0
     33527 WT14     75       MECN     H12      HGA3     0.090000        1.0080           0
     33528 WT14     75       MECN     H13      HGA3     0.090000        1.0080           0
     33529 WT14     75       MECN     C2       CG1N1    0.360000       12.0110           0
     33530 WT14     75       MECN     N3       NG1T1   -0.460000       14.0070           0
     33531 WT14     76       MECN     C1       CG331   -0.170000       12.0110           0
     33532 WT14     76       MECN     H11      HGA3     0.090000        1.0080           0
     33533 WT14     76       MECN     H12      HGA3     0.090000        1.0080           0
     33534 WT14     76       MECN     H13      HGA3     0.090000        1.0080           0
     33535 WT14     76       MECN     C2       CG1N1    0.360000       12.0110           0
     33536 WT14     76       MECN     N3       NG1T1   -0.460000       14.0070           0
     33537 WT14     77       MECN     C1       CG331   -0.170000       12.0110           0
     33538 WT14     77       MECN     H11      HGA3     0.090000        1.0080           0
     33539 WT14     77       MECN     H12      HGA3     0.090000        1.0080           0
     33540 WT14     77       MECN     H13      HGA3     0.090000        1.0080           0
     33541 WT14     77       MECN     C2       CG1N1    0.360000       12.0110           0
     33542 WT14     77       MECN     N3       NG1T1   -0.460000       14.0070           0
     33543 WT14     78       MECN     C1       CG331   -0.170000       12.0110           0
     33544 WT14     78       MECN     H11      HGA3     0.090000        1.0080           0
     33545 WT14     78       MECN     H12      HGA3     0.090000        1.0080           0
     33546 WT14     78       MECN     H13      HGA3     0.090000        1.0080           0
     33547 WT14     78       MECN     C2       CG1N1    0.360000       12.0110           0
     33548 WT14     78       MECN     N3       NG1T1   -0.460000       14.0070           0
     33549 WT14     79       MECN     C1       CG331   -0.170000       12.0110           0
     33550 WT14     79       MECN     H11      HGA3     0.090000        1.0080           0
     33551 WT14     79       MECN     H12      HGA3     0.090000        1.0080           0
     33552 WT14     79       MECN     H13      HGA3     0.090000        1.0080           0
     33553 WT14     79       MECN     C2       CG1N1    0.360000       12.0110           0
     33554 WT14     79       MECN     N3       NG1T1   -0.460000       14.0070           0
     33555 WT14     81       MECN     C1       CG331   -0.170000       12.0110           0
     33556 WT14     81       MECN     H11      HGA3     0.090000        1.0080           0
     33557 WT14     81       MECN     H12      HGA3     0.090000        1.0080           0
     33558 WT14     81       MECN     H13      HGA3     0.090000        1.0080           0
     33559 WT14     81       MECN     C2       CG1N1    0.360000       12.0110           0
     33560 WT14     81       MECN     N3       NG1T1   -0.460000       14.0070           0
     33561 WT14     82       MECN     C1       CG331   -0.170000       12.0110           0
     33562 WT14     82       MECN     H11      HGA3     0.090000        1.0080           0
     33563 WT14     82       MECN     H12      HGA3     0.090000        1.0080           0
     33564 WT14     82       MECN     H13      HGA3     0.090000        1.0080           0
     33565 WT14     82       MECN     C2       CG1N1    0.360000       12.0110           0
     33566 WT14     82       MECN     N3       NG1T1   -0.460000       14.0070           0
     33567 WT14     83       MECN     C1       CG331   -0.170000       12.0110           0
     33568 WT14     83       MECN     H11      HGA3     0.090000        1.0080           0
     33569 WT14     83       MECN     H12      HGA3     0.090000        1.0080           0
     33570 WT14     83       MECN     H13      HGA3     0.090000        1.0080           0
     33571 WT14     83       MECN     C2       CG1N1    0.360000       12.0110           0
     33572 WT14     83       MECN     N3       NG1T1   -0.460000       14.0070           0
     33573 WT14     84       MECN     C1       CG331   -0.170000       12.0110           0
     33574 WT14     84       MECN     H11      HGA3     0.090000        1.0080           0
     33575 WT14     84       MECN     H12      HGA3     0.090000        1.0080           0
     33576 WT14     84       MECN     H13      HGA3     0.090000        1.0080           0
     33577 WT14     84       MECN     C2       CG1N1    0.360000       12.0110           0
     33578 WT14     84       MECN     N3       NG1T1   -0.460000       14.0070           0
     33579 WT14     85       MECN     C1       CG331   -0.170000       12.0110           0
     33580 WT14     85       MECN     H11      HGA3     0.090000        1.0080           0
     33581 WT14     85       MECN     H12      HGA3     0.090000        1.0080           0
     33582 WT14     85       MECN     H13      HGA3     0.090000        1.0080           0
     33583 WT14     85       MECN     C2       CG1N1    0.360000       12.0110           0
     33584 WT14     85       MECN     N3       NG1T1   -0.460000       14.0070           0
     33585 WT14     86       MECN     C1       CG331   -0.170000       12.0110           0
     33586 WT14     86       MECN     H11      HGA3     0.090000        1.0080           0
     33587 WT14     86       MECN     H12      HGA3     0.090000        1.0080           0
     33588 WT14     86       MECN     H13      HGA3     0.090000        1.0080           0
     33589 WT14     86       MECN     C2       CG1N1    0.360000       12.0110           0
     33590 WT14     86       MECN     N3       NG1T1   -0.460000       14.0070           0
     33591 WT14     87       MECN     C1       CG331   -0.170000       12.0110           0
     33592 WT14     87       MECN     H11      HGA3     0.090000        1.0080           0
     33593 WT14     87       MECN     H12      HGA3     0.090000        1.0080           0
     33594 WT14     87       MECN     H13      HGA3     0.090000        1.0080           0
     33595 WT14     87       MECN     C2       CG1N1    0.360000       12.0110           0
     33596 WT14     87       MECN     N3       NG1T1   -0.460000       14.0070           0
     33597 WT14     88       MECN     C1       CG331   -0.170000       12.0110           0
     33598 WT14     88       MECN     H11      HGA3     0.090000        1.0080           0
     33599 WT14     88       MECN     H12      HGA3     0.090000        1.0080           0
     33600 WT14     88       MECN     H13      HGA3     0.090000        1.0080           0
     33601 WT14     88       MECN     C2       CG1N1    0.360000       12.0110           0
     33602 WT14     88       MECN     N3       NG1T1   -0.460000       14.0070           0
     33603 WT14     89       MECN     C1       CG331   -0.170000       12.0110           0
     33604 WT14     89       MECN     H11      HGA3     0.090000        1.0080           0
     33605 WT14     89       MECN     H12      HGA3     0.090000        1.0080           0
     33606 WT14     89       MECN     H13      HGA3     0.090000        1.0080           0
     33607 WT14     89       MECN     C2       CG1N1    0.360000       12.0110           0
     33608 WT14     89       MECN     N3       NG1T1   -0.460000       14.0070           0
     33609 WT14     90       MECN     C1       CG331   -0.170000       12.0110           0
     33610 WT14     90       MECN     H11      HGA3     0.090000        1.0080           0
     33611 WT14     90       MECN     H12      HGA3     0.090000        1.0080           0
     33612 WT14     90       MECN     H13      HGA3     0.090000        1.0080           0
     33613 WT14     90       MECN     C2       CG1N1    0.360000       12.0110           0
     33614 WT14     90       MECN     N3       NG1T1   -0.460000       14.0070           0
     33615 WT14     91       MECN     C1       CG331   -0.170000       12.0110           0
     33616 WT14     91       MECN     H11      HGA3     0.090000        1.0080           0
     33617 WT14     91       MECN     H12      HGA3     0.090000        1.0080           0
     33618 WT14     91       MECN     H13      HGA3     0.090000        1.0080           0
     33619 WT14     91       MECN     C2       CG1N1    0.360000       12.0110           0
     33620 WT14     91       MECN     N3       NG1T1   -0.460000       14.0070           0
     33621 WT14     92       MECN     C1       CG331   -0.170000       12.0110           0
     33622 WT14     92       MECN     H11      HGA3     0.090000        1.0080           0
     33623 WT14     92       MECN     H12      HGA3     0.090000        1.0080           0
     33624 WT14     92       MECN     H13      HGA3     0.090000        1.0080           0
     33625 WT14     92       MECN     C2       CG1N1    0.360000       12.0110           0
     33626 WT14     92       MECN     N3       NG1T1   -0.460000       14.0070           0
     33627 WT14     93       MECN     C1       CG331   -0.170000       12.0110           0
     33628 WT14     93       MECN     H11      HGA3     0.090000        1.0080           0
     33629 WT14     93       MECN     H12      HGA3     0.090000        1.0080           0
     33630 WT14     93       MECN     H13      HGA3     0.090000        1.0080           0
     33631 WT14     93       MECN     C2       CG1N1    0.360000       12.0110           0
     33632 WT14     93       MECN     N3       NG1T1   -0.460000       14.0070           0
     33633 WT14     94       MECN     C1       CG331   -0.170000       12.0110           0
     33634 WT14     94       MECN     H11      HGA3     0.090000        1.0080           0
     33635 WT14     94       MECN     H12      HGA3     0.090000        1.0080           0
     33636 WT14     94       MECN     H13      HGA3     0.090000        1.0080           0
     33637 WT14     94       MECN     C2       CG1N1    0.360000       12.0110           0
     33638 WT14     94       MECN     N3       NG1T1   -0.460000       14.0070           0
     33639 WT14     95       MECN     C1       CG331   -0.170000       12.0110           0
     33640 WT14     95       MECN     H11      HGA3     0.090000        1.0080           0
     33641 WT14     95       MECN     H12      HGA3     0.090000        1.0080           0
     33642 WT14     95       MECN     H13      HGA3     0.090000        1.0080           0
     33643 WT14     95       MECN     C2       CG1N1    0.360000       12.0110           0
     33644 WT14     95       MECN     N3       NG1T1   -0.460000       14.0070           0
     33645 WT14     97       MECN     C1       CG331   -0.170000       12.0110           0
     33646 WT14     97       MECN     H11      HGA3     0.090000        1.0080           0
     33647 WT14     97       MECN     H12      HGA3     0.090000        1.0080           0
     33648 WT14     97       MECN     H13      HGA3     0.090000        1.0080           0
     33649 WT14     97       MECN     C2       CG1N1    0.360000       12.0110           0
     33650 WT14     97       MECN     N3       NG1T1   -0.460000       14.0070           0
     33651 WT14     98       MECN     C1       CG331   -0.170000       12.0110           0
     33652 WT14     98       MECN     H11      HGA3     0.090000        1.0080           0
     33653 WT14     98       MECN     H12      HGA3     0.090000        1.0080           0
     33654 WT14     98       MECN     H13      HGA3     0.090000        1.0080           0
     33655 WT14     98       MECN     C2       CG1N1    0.360000       12.0110           0
     33656 WT14     98       MECN     N3       NG1T1   -0.460000       14.0070           0
     33657 WT14     99       MECN     C1       CG331   -0.170000       12.0110           0
     33658 WT14     99       MECN     H11      HGA3     0.090000        1.0080           0
     33659 WT14     99       MECN     H12      HGA3     0.090000        1.0080           0
     33660 WT14     99       MECN     H13      HGA3     0.090000        1.0080           0
     33661 WT14     99       MECN     C2       CG1N1    0.360000       12.0110           0
     33662 WT14     99       MECN     N3       NG1T1   -0.460000       14.0070           0
     33663 WT14     101      MECN     C1       CG331   -0.170000       12.0110           0
     33664 WT14     101      MECN     H11      HGA3     0.090000        1.0080           0
     33665 WT14     101      MECN     H12      HGA3     0.090000        1.0080           0
     33666 WT14     101      MECN     H13      HGA3     0.090000        1.0080           0
     33667 WT14     101      MECN     C2       CG1N1    0.360000       12.0110           0
     33668 WT14     101      MECN     N3       NG1T1   -0.460000       14.0070           0
     33669 WT14     103      MECN     C1       CG331   -0.170000       12.0110           0
     33670 WT14     103      MECN     H11      HGA3     0.090000        1.0080           0
     33671 WT14     103      MECN     H12      HGA3     0.090000        1.0080           0
     33672 WT14     103      MECN     H13      HGA3     0.090000        1.0080           0
     33673 WT14     103      MECN     C2       CG1N1    0.360000       12.0110           0
     33674 WT14     103      MECN     N3       NG1T1   -0.460000       14.0070           0
     33675 WT14     104      MECN     C1       CG331   -0.170000       12.0110           0
     33676 WT14     104      MECN     H11      HGA3     0.090000        1.0080           0
     33677 WT14     104      MECN     H12      HGA3     0.090000        1.0080           0
     33678 WT14     104      MECN     H13      HGA3     0.090000        1.0080           0
     33679 WT14     104      MECN     C2       CG1N1    0.360000       12.0110           0
     33680 WT14     104      MECN     N3       NG1T1   -0.460000       14.0070           0
     33681 WT14     105      MECN     C1       CG331   -0.170000       12.0110           0
     33682 WT14     105      MECN     H11      HGA3     0.090000        1.0080           0
     33683 WT14     105      MECN     H12      HGA3     0.090000        1.0080           0
     33684 WT14     105      MECN     H13      HGA3     0.090000        1.0080           0
     33685 WT14     105      MECN     C2       CG1N1    0.360000       12.0110           0
     33686 WT14     105      MECN     N3       NG1T1   -0.460000       14.0070           0
     33687 WT14     106      MECN     C1       CG331   -0.170000       12.0110           0
     33688 WT14     106      MECN     H11      HGA3     0.090000        1.0080           0
     33689 WT14     106      MECN     H12      HGA3     0.090000        1.0080           0
     33690 WT14     106      MECN     H13      HGA3     0.090000        1.0080           0
     33691 WT14     106      MECN     C2       CG1N1    0.360000       12.0110           0
     33692 WT14     106      MECN     N3       NG1T1   -0.460000       14.0070           0
     33693 WT14     107      MECN     C1       CG331   -0.170000       12.0110           0
     33694 WT14     107      MECN     H11      HGA3     0.090000        1.0080           0
     33695 WT14     107      MECN     H12      HGA3     0.090000        1.0080           0
     33696 WT14     107      MECN     H13      HGA3     0.090000        1.0080           0
     33697 WT14     107      MECN     C2       CG1N1    0.360000       12.0110           0
     33698 WT14     107      MECN     N3       NG1T1   -0.460000       14.0070           0
     33699 WT14     109      MECN     C1       CG331   -0.170000       12.0110           0
     33700 WT14     109      MECN     H11      HGA3     0.090000        1.0080           0
     33701 WT14     109      MECN     H12      HGA3     0.090000        1.0080           0
     33702 WT14     109      MECN     H13      HGA3     0.090000        1.0080           0
     33703 WT14     109      MECN     C2       CG1N1    0.360000       12.0110           0
     33704 WT14     109      MECN     N3       NG1T1   -0.460000       14.0070           0
     33705 WT14     110      MECN     C1       CG331   -0.170000       12.0110           0
     33706 WT14     110      MECN     H11      HGA3     0.090000        1.0080           0
     33707 WT14     110      MECN     H12      HGA3     0.090000        1.0080           0
     33708 WT14     110      MECN     H13      HGA3     0.090000        1.0080           0
     33709 WT14     110      MECN     C2       CG1N1    0.360000       12.0110           0
     33710 WT14     110      MECN     N3       NG1T1   -0.460000       14.0070           0
     33711 WT14     111      MECN     C1       CG331   -0.170000       12.0110           0
     33712 WT14     111      MECN     H11      HGA3     0.090000        1.0080           0
     33713 WT14     111      MECN     H12      HGA3     0.090000        1.0080           0
     33714 WT14     111      MECN     H13      HGA3     0.090000        1.0080           0
     33715 WT14     111      MECN     C2       CG1N1    0.360000       12.0110           0
     33716 WT14     111      MECN     N3       NG1T1   -0.460000       14.0070           0
     33717 WT14     112      MECN     C1       CG331   -0.170000       12.0110           0
     33718 WT14     112      MECN     H11      HGA3     0.090000        1.0080           0
     33719 WT14     112      MECN     H12      HGA3     0.090000        1.0080           0
     33720 WT14     112      MECN     H13      HGA3     0.090000        1.0080           0
     33721 WT14     112      MECN     C2       CG1N1    0.360000       12.0110           0
     33722 WT14     112      MECN     N3       NG1T1   -0.460000       14.0070           0
     33723 WT14     113      MECN     C1       CG331   -0.170000       12.0110           0
     33724 WT14     113      MECN     H11      HGA3     0.090000        1.0080           0
     33725 WT14     113      MECN     H12      HGA3     0.090000        1.0080           0
     33726 WT14     113      MECN     H13      HGA3     0.090000        1.0080           0
     33727 WT14     113      MECN     C2       CG1N1    0.360000       12.0110           0
     33728 WT14     113      MECN     N3       NG1T1   -0.460000       14.0070           0
     33729 WT14     114      MECN     C1       CG331   -0.170000       12.0110           0
     33730 WT14     114      MECN     H11      HGA3     0.090000        1.0080           0
     33731 WT14     114      MECN     H12      HGA3     0.090000        1.0080           0
     33732 WT14     114      MECN     H13      HGA3     0.090000        1.0080           0
     33733 WT14     114      MECN     C2       CG1N1    0.360000       12.0110           0
     33734 WT14     114      MECN     N3       NG1T1   -0.460000       14.0070           0
     33735 WT14     115      MECN     C1       CG331   -0.170000       12.0110           0
     33736 WT14     115      MECN     H11      HGA3     0.090000        1.0080           0
     33737 WT14     115      MECN     H12      HGA3     0.090000        1.0080           0
     33738 WT14     115      MECN     H13      HGA3     0.090000        1.0080           0
     33739 WT14     115      MECN     C2       CG1N1    0.360000       12.0110           0
     33740 WT14     115      MECN     N3       NG1T1   -0.460000       14.0070           0
     33741 WT14     116      MECN     C1       CG331   -0.170000       12.0110           0
     33742 WT14     116      MECN     H11      HGA3     0.090000        1.0080           0
     33743 WT14     116      MECN     H12      HGA3     0.090000        1.0080           0
     33744 WT14     116      MECN     H13      HGA3     0.090000        1.0080           0
     33745 WT14     116      MECN     C2       CG1N1    0.360000       12.0110           0
     33746 WT14     116      MECN     N3       NG1T1   -0.460000       14.0070           0
     33747 WT14     117      MECN     C1       CG331   -0.170000       12.0110           0
     33748 WT14     117      MECN     H11      HGA3     0.090000        1.0080           0
     33749 WT14     117      MECN     H12      HGA3     0.090000        1.0080           0
     33750 WT14     117      MECN     H13      HGA3     0.090000        1.0080           0
     33751 WT14     117      MECN     C2       CG1N1    0.360000       12.0110           0
     33752 WT14     117      MECN     N3       NG1T1   -0.460000       14.0070           0
     33753 WT14     118      MECN     C1       CG331   -0.170000       12.0110           0
     33754 WT14     118      MECN     H11      HGA3     0.090000        1.0080           0
     33755 WT14     118      MECN     H12      HGA3     0.090000        1.0080           0
     33756 WT14     118      MECN     H13      HGA3     0.090000        1.0080           0
     33757 WT14     118      MECN     C2       CG1N1    0.360000       12.0110           0
     33758 WT14     118      MECN     N3       NG1T1   -0.460000       14.0070           0
     33759 WT14     119      MECN     C1       CG331   -0.170000       12.0110           0
     33760 WT14     119      MECN     H11      HGA3     0.090000        1.0080           0
     33761 WT14     119      MECN     H12      HGA3     0.090000        1.0080           0
     33762 WT14     119      MECN     H13      HGA3     0.090000        1.0080           0
     33763 WT14     119      MECN     C2       CG1N1    0.360000       12.0110           0
     33764 WT14     119      MECN     N3       NG1T1   -0.460000       14.0070           0
     33765 WT14     120      MECN     C1       CG331   -0.170000       12.0110           0
     33766 WT14     120      MECN     H11      HGA3     0.090000        1.0080           0
     33767 WT14     120      MECN     H12      HGA3     0.090000        1.0080           0
     33768 WT14     120      MECN     H13      HGA3     0.090000        1.0080           0
     33769 WT14     120      MECN     C2       CG1N1    0.360000       12.0110           0
     33770 WT14     120      MECN     N3       NG1T1   -0.460000       14.0070           0
     33771 WT14     121      MECN     C1       CG331   -0.170000       12.0110           0
     33772 WT14     121      MECN     H11      HGA3     0.090000        1.0080           0
     33773 WT14     121      MECN     H12      HGA3     0.090000        1.0080           0
     33774 WT14     121      MECN     H13      HGA3     0.090000        1.0080           0
     33775 WT14     121      MECN     C2       CG1N1    0.360000       12.0110           0
     33776 WT14     121      MECN     N3       NG1T1   -0.460000       14.0070           0
     33777 WT14     122      MECN     C1       CG331   -0.170000       12.0110           0
     33778 WT14     122      MECN     H11      HGA3     0.090000        1.0080           0
     33779 WT14     122      MECN     H12      HGA3     0.090000        1.0080           0
     33780 WT14     122      MECN     H13      HGA3     0.090000        1.0080           0
     33781 WT14     122      MECN     C2       CG1N1    0.360000       12.0110           0
     33782 WT14     122      MECN     N3       NG1T1   -0.460000       14.0070           0
     33783 WT14     123      MECN     C1       CG331   -0.170000       12.0110           0
     33784 WT14     123      MECN     H11      HGA3     0.090000        1.0080           0
     33785 WT14     123      MECN     H12      HGA3     0.090000        1.0080           0
     33786 WT14     123      MECN     H13      HGA3     0.090000        1.0080           0
     33787 WT14     123      MECN     C2       CG1N1    0.360000       12.0110           0
     33788 WT14     123      MECN     N3       NG1T1   -0.460000       14.0070           0
     33789 WT14     124      MECN     C1       CG331   -0.170000       12.0110           0
     33790 WT14     124      MECN     H11      HGA3     0.090000        1.0080           0
     33791 WT14     124      MECN     H12      HGA3     0.090000        1.0080           0
     33792 WT14     124      MECN     H13      HGA3     0.090000        1.0080           0
     33793 WT14     124      MECN     C2       CG1N1    0.360000       12.0110           0
     33794 WT14     124      MECN     N3       NG1T1   -0.460000       14.0070           0
     33795 WT14     125      MECN     C1       CG331   -0.170000       12.0110           0
     33796 WT14     125      MECN     H11      HGA3     0.090000        1.0080           0
     33797 WT14     125      MECN     H12      HGA3     0.090000        1.0080           0
     33798 WT14     125      MECN     H13      HGA3     0.090000        1.0080           0
     33799 WT14     125      MECN     C2       CG1N1    0.360000       12.0110           0
     33800 WT14     125      MECN     N3       NG1T1   -0.460000       14.0070           0
     33801 WT14     126      MECN     C1       CG331   -0.170000       12.0110           0
     33802 WT14     126      MECN     H11      HGA3     0.090000        1.0080           0
     33803 WT14     126      MECN     H12      HGA3     0.090000        1.0080           0
     33804 WT14     126      MECN     H13      HGA3     0.090000        1.0080           0
     33805 WT14     126      MECN     C2       CG1N1    0.360000       12.0110           0
     33806 WT14     126      MECN     N3       NG1T1   -0.460000       14.0070           0
     33807 WT14     127      MECN     C1       CG331   -0.170000       12.0110           0
     33808 WT14     127      MECN     H11      HGA3     0.090000        1.0080           0
     33809 WT14     127      MECN     H12      HGA3     0.090000        1.0080           0
     33810 WT14     127      MECN     H13      HGA3     0.090000        1.0080           0
     33811 WT14     127      MECN     C2       CG1N1    0.360000       12.0110           0
     33812 WT14     127      MECN     N3       NG1T1   -0.460000       14.0070           0
     33813 WT14     128      MECN     C1       CG331   -0.170000       12.0110           0
     33814 WT14     128      MECN     H11      HGA3     0.090000        1.0080           0
     33815 WT14     128      MECN     H12      HGA3     0.090000        1.0080           0
     33816 WT14     128      MECN     H13      HGA3     0.090000        1.0080           0
     33817 WT14     128      MECN     C2       CG1N1    0.360000       12.0110           0
     33818 WT14     128      MECN     N3       NG1T1   -0.460000       14.0070           0
     33819 WT14     129      MECN     C1       CG331   -0.170000       12.0110           0
     33820 WT14     129      MECN     H11      HGA3     0.090000        1.0080           0
     33821 WT14     129      MECN     H12      HGA3     0.090000        1.0080           0
     33822 WT14     129      MECN     H13      HGA3     0.090000        1.0080           0
     33823 WT14     129      MECN     C2       CG1N1    0.360000       12.0110           0
     33824 WT14     129      MECN     N3       NG1T1   -0.460000       14.0070           0
     33825 WT14     130      MECN     C1       CG331   -0.170000       12.0110           0
     33826 WT14     130      MECN     H11      HGA3     0.090000        1.0080           0
     33827 WT14     130      MECN     H12      HGA3     0.090000        1.0080           0
     33828 WT14     130      MECN     H13      HGA3     0.090000        1.0080           0
     33829 WT14     130      MECN     C2       CG1N1    0.360000       12.0110           0
     33830 WT14     130      MECN     N3       NG1T1   -0.460000       14.0070           0
     33831 WT14     131      MECN     C1       CG331   -0.170000       12.0110           0
     33832 WT14     131      MECN     H11      HGA3     0.090000        1.0080           0
     33833 WT14     131      MECN     H12      HGA3     0.090000        1.0080           0
     33834 WT14     131      MECN     H13      HGA3     0.090000        1.0080           0
     33835 WT14     131      MECN     C2       CG1N1    0.360000       12.0110           0
     33836 WT14     131      MECN     N3       NG1T1   -0.460000       14.0070           0
     33837 WT14     132      MECN     C1       CG331   -0.170000       12.0110           0
     33838 WT14     132      MECN     H11      HGA3     0.090000        1.0080           0
     33839 WT14     132      MECN     H12      HGA3     0.090000        1.0080           0
     33840 WT14     132      MECN     H13      HGA3     0.090000        1.0080           0
     33841 WT14     132      MECN     C2       CG1N1    0.360000       12.0110           0
     33842 WT14     132      MECN     N3       NG1T1   -0.460000       14.0070           0
     33843 WT14     133      MECN     C1       CG331   -0.170000       12.0110           0
     33844 WT14     133      MECN     H11      HGA3     0.090000        1.0080           0
     33845 WT14     133      MECN     H12      HGA3     0.090000        1.0080           0
     33846 WT14     133      MECN     H13      HGA3     0.090000        1.0080           0
     33847 WT14     133      MECN     C2       CG1N1    0.360000       12.0110           0
     33848 WT14     133      MECN     N3       NG1T1   -0.460000       14.0070           0
     33849 WT14     134      MECN     C1       CG331   -0.170000       12.0110           0
     33850 WT14     134      MECN     H11      HGA3     0.090000        1.0080           0
     33851 WT14     134      MECN     H12      HGA3     0.090000        1.0080           0
     33852 WT14     134      MECN     H13      HGA3     0.090000        1.0080           0
     33853 WT14     134      MECN     C2       CG1N1    0.360000       12.0110           0
     33854 WT14     134      MECN     N3       NG1T1   -0.460000       14.0070           0
     33855 WT14     135      MECN     C1       CG331   -0.170000       12.0110           0
     33856 WT14     135      MECN     H11      HGA3     0.090000        1.0080           0
     33857 WT14     135      MECN     H12      HGA3     0.090000        1.0080           0
     33858 WT14     135      MECN     H13      HGA3     0.090000        1.0080           0
     33859 WT14     135      MECN     C2       CG1N1    0.360000       12.0110           0
     33860 WT14     135      MECN     N3       NG1T1   -0.460000       14.0070           0
     33861 WT14     136      MECN     C1       CG331   -0.170000       12.0110           0
     33862 WT14     136      MECN     H11      HGA3     0.090000        1.0080           0
     33863 WT14     136      MECN     H12      HGA3     0.090000        1.0080           0
     33864 WT14     136      MECN     H13      HGA3     0.090000        1.0080           0
     33865 WT14     136      MECN     C2       CG1N1    0.360000       12.0110           0
     33866 WT14     136      MECN     N3       NG1T1   -0.460000       14.0070           0
     33867 WT14     137      MECN     C1       CG331   -0.170000       12.0110           0
     33868 WT14     137      MECN     H11      HGA3     0.090000        1.0080           0
     33869 WT14     137      MECN     H12      HGA3     0.090000        1.0080           0
     33870 WT14     137      MECN     H13      HGA3     0.090000        1.0080           0
     33871 WT14     137      MECN     C2       CG1N1    0.360000       12.0110           0
     33872 WT14     137      MECN     N3       NG1T1   -0.460000       14.0070           0
     33873 WT14     138      MECN     C1       CG331   -0.170000       12.0110           0
     33874 WT14     138      MECN     H11      HGA3     0.090000        1.0080           0
     33875 WT14     138      MECN     H12      HGA3     0.090000        1.0080           0
     33876 WT14     138      MECN     H13      HGA3     0.090000        1.0080           0
     33877 WT14     138      MECN     C2       CG1N1    0.360000       12.0110           0
     33878 WT14     138      MECN     N3       NG1T1   -0.460000       14.0070           0
     33879 WT14     139      MECN     C1       CG331   -0.170000       12.0110           0
     33880 WT14     139      MECN     H11      HGA3     0.090000        1.0080           0
     33881 WT14     139      MECN     H12      HGA3     0.090000        1.0080           0
     33882 WT14     139      MECN     H13      HGA3     0.090000        1.0080           0
     33883 WT14     139      MECN     C2       CG1N1    0.360000       12.0110           0
     33884 WT14     139      MECN     N3       NG1T1   -0.460000       14.0070           0
     33885 WT14     140      MECN     C1       CG331   -0.170000       12.0110           0
     33886 WT14     140      MECN     H11      HGA3     0.090000        1.0080           0
     33887 WT14     140      MECN     H12      HGA3     0.090000        1.0080           0
     33888 WT14     140      MECN     H13      HGA3     0.090000        1.0080           0
     33889 WT14     140      MECN     C2       CG1N1    0.360000       12.0110           0
     33890 WT14     140      MECN     N3       NG1T1   -0.460000       14.0070           0
     33891 WT14     142      MECN     C1       CG331   -0.170000       12.0110           0
     33892 WT14     142      MECN     H11      HGA3     0.090000        1.0080           0
     33893 WT14     142      MECN     H12      HGA3     0.090000        1.0080           0
     33894 WT14     142      MECN     H13      HGA3     0.090000        1.0080           0
     33895 WT14     142      MECN     C2       CG1N1    0.360000       12.0110           0
     33896 WT14     142      MECN     N3       NG1T1   -0.460000       14.0070           0
     33897 WT14     143      MECN     C1       CG331   -0.170000       12.0110           0
     33898 WT14     143      MECN     H11      HGA3     0.090000        1.0080           0
     33899 WT14     143      MECN     H12      HGA3     0.090000        1.0080           0
     33900 WT14     143      MECN     H13      HGA3     0.090000        1.0080           0
     33901 WT14     143      MECN     C2       CG1N1    0.360000       12.0110           0
     33902 WT14     143      MECN     N3       NG1T1   -0.460000       14.0070           0
     33903 WT14     144      MECN     C1       CG331   -0.170000       12.0110           0
     33904 WT14     144      MECN     H11      HGA3     0.090000        1.0080           0
     33905 WT14     144      MECN     H12      HGA3     0.090000        1.0080           0
     33906 WT14     144      MECN     H13      HGA3     0.090000        1.0080           0
     33907 WT14     144      MECN     C2       CG1N1    0.360000       12.0110           0
     33908 WT14     144      MECN     N3       NG1T1   -0.460000       14.0070           0
     33909 WT14     145      MECN     C1       CG331   -0.170000       12.0110           0
     33910 WT14     145      MECN     H11      HGA3     0.090000        1.0080           0
     33911 WT14     145      MECN     H12      HGA3     0.090000        1.0080           0
     33912 WT14     145      MECN     H13      HGA3     0.090000        1.0080           0
     33913 WT14     145      MECN     C2       CG1N1    0.360000       12.0110           0
     33914 WT14     145      MECN     N3       NG1T1   -0.460000       14.0070           0
     33915 WT14     146      MECN     C1       CG331   -0.170000       12.0110           0
     33916 WT14     146      MECN     H11      HGA3     0.090000        1.0080           0
     33917 WT14     146      MECN     H12      HGA3     0.090000        1.0080           0
     33918 WT14     146      MECN     H13      HGA3     0.090000        1.0080           0
     33919 WT14     146      MECN     C2       CG1N1    0.360000       12.0110           0
     33920 WT14     146      MECN     N3       NG1T1   -0.460000       14.0070           0
     33921 WT14     147      MECN     C1       CG331   -0.170000       12.0110           0
     33922 WT14     147      MECN     H11      HGA3     0.090000        1.0080           0
     33923 WT14     147      MECN     H12      HGA3     0.090000        1.0080           0
     33924 WT14     147      MECN     H13      HGA3     0.090000        1.0080           0
     33925 WT14     147      MECN     C2       CG1N1    0.360000       12.0110           0
     33926 WT14     147      MECN     N3       NG1T1   -0.460000       14.0070           0
     33927 WT14     148      MECN     C1       CG331   -0.170000       12.0110           0
     33928 WT14     148      MECN     H11      HGA3     0.090000        1.0080           0
     33929 WT14     148      MECN     H12      HGA3     0.090000        1.0080           0
     33930 WT14     148      MECN     H13      HGA3     0.090000        1.0080           0
     33931 WT14     148      MECN     C2       CG1N1    0.360000       12.0110           0
     33932 WT14     148      MECN     N3       NG1T1   -0.460000       14.0070           0
     33933 WT14     149      MECN     C1       CG331   -0.170000       12.0110           0
     33934 WT14     149      MECN     H11      HGA3     0.090000        1.0080           0
     33935 WT14     149      MECN     H12      HGA3     0.090000        1.0080           0
     33936 WT14     149      MECN     H13      HGA3     0.090000        1.0080           0
     33937 WT14     149      MECN     C2       CG1N1    0.360000       12.0110           0
     33938 WT14     149      MECN     N3       NG1T1   -0.460000       14.0070           0
     33939 WT14     150      MECN     C1       CG331   -0.170000       12.0110           0
     33940 WT14     150      MECN     H11      HGA3     0.090000        1.0080           0
     33941 WT14     150      MECN     H12      HGA3     0.090000        1.0080           0
     33942 WT14     150      MECN     H13      HGA3     0.090000        1.0080           0
     33943 WT14     150      MECN     C2       CG1N1    0.360000       12.0110           0
     33944 WT14     150      MECN     N3       NG1T1   -0.460000       14.0070           0
     33945 WT14     152      MECN     C1       CG331   -0.170000       12.0110           0
     33946 WT14     152      MECN     H11      HGA3     0.090000        1.0080           0
     33947 WT14     152      MECN     H12      HGA3     0.090000        1.0080           0
     33948 WT14     152      MECN     H13      HGA3     0.090000        1.0080           0
     33949 WT14     152      MECN     C2       CG1N1    0.360000       12.0110           0
     33950 WT14     152      MECN     N3       NG1T1   -0.460000       14.0070           0
     33951 WT14     153      MECN     C1       CG331   -0.170000       12.0110           0
     33952 WT14     153      MECN     H11      HGA3     0.090000        1.0080           0
     33953 WT14     153      MECN     H12      HGA3     0.090000        1.0080           0
     33954 WT14     153      MECN     H13      HGA3     0.090000        1.0080           0
     33955 WT14     153      MECN     C2       CG1N1    0.360000       12.0110           0
     33956 WT14     153      MECN     N3       NG1T1   -0.460000       14.0070           0
     33957 WT14     154      MECN     C1       CG331   -0.170000       12.0110           0
     33958 WT14     154      MECN     H11      HGA3     0.090000        1.0080           0
     33959 WT14     154      MECN     H12      HGA3     0.090000        1.0080           0
     33960 WT14     154      MECN     H13      HGA3     0.090000        1.0080           0
     33961 WT14     154      MECN     C2       CG1N1    0.360000       12.0110           0
     33962 WT14     154      MECN     N3       NG1T1   -0.460000       14.0070           0
     33963 WT14     155      MECN     C1       CG331   -0.170000       12.0110           0
     33964 WT14     155      MECN     H11      HGA3     0.090000        1.0080           0
     33965 WT14     155      MECN     H12      HGA3     0.090000        1.0080           0
     33966 WT14     155      MECN     H13      HGA3     0.090000        1.0080           0
     33967 WT14     155      MECN     C2       CG1N1    0.360000       12.0110           0
     33968 WT14     155      MECN     N3       NG1T1   -0.460000       14.0070           0
     33969 WT14     156      MECN     C1       CG331   -0.170000       12.0110           0
     33970 WT14     156      MECN     H11      HGA3     0.090000        1.0080           0
     33971 WT14     156      MECN     H12      HGA3     0.090000        1.0080           0
     33972 WT14     156      MECN     H13      HGA3     0.090000        1.0080           0
     33973 WT14     156      MECN     C2       CG1N1    0.360000       12.0110           0
     33974 WT14     156      MECN     N3       NG1T1   -0.460000       14.0070           0
     33975 WT14     157      MECN     C1       CG331   -0.170000       12.0110           0
     33976 WT14     157      MECN     H11      HGA3     0.090000        1.0080           0
     33977 WT14     157      MECN     H12      HGA3     0.090000        1.0080           0
     33978 WT14     157      MECN     H13      HGA3     0.090000        1.0080           0
     33979 WT14     157      MECN     C2       CG1N1    0.360000       12.0110           0
     33980 WT14     157      MECN     N3       NG1T1   -0.460000       14.0070           0
     33981 WT14     158      MECN     C1       CG331   -0.170000       12.0110           0
     33982 WT14     158      MECN     H11      HGA3     0.090000        1.0080           0
     33983 WT14     158      MECN     H12      HGA3     0.090000        1.0080           0
     33984 WT14     158      MECN     H13      HGA3     0.090000        1.0080           0
     33985 WT14     158      MECN     C2       CG1N1    0.360000       12.0110           0
     33986 WT14     158      MECN     N3       NG1T1   -0.460000       14.0070           0
     33987 WT14     159      MECN     C1       CG331   -0.170000       12.0110           0
     33988 WT14     159      MECN     H11      HGA3     0.090000        1.0080           0
     33989 WT14     159      MECN     H12      HGA3     0.090000        1.0080           0
     33990 WT14     159      MECN     H13      HGA3     0.090000        1.0080           0
     33991 WT14     159      MECN     C2       CG1N1    0.360000       12.0110           0
     33992 WT14     159      MECN     N3       NG1T1   -0.460000       14.0070           0
     33993 WT14     160      MECN     C1       CG331   -0.170000       12.0110           0
     33994 WT14     160      MECN     H11      HGA3     0.090000        1.0080           0
     33995 WT14     160      MECN     H12      HGA3     0.090000        1.0080           0
     33996 WT14     160      MECN     H13      HGA3     0.090000        1.0080           0
     33997 WT14     160      MECN     C2       CG1N1    0.360000       12.0110           0
     33998 WT14     160      MECN     N3       NG1T1   -0.460000       14.0070           0
     33999 WT14     162      MECN     C1       CG331   -0.170000       12.0110           0
     34000 WT14     162      MECN     H11      HGA3     0.090000        1.0080           0
     34001 WT14     162      MECN     H12      HGA3     0.090000        1.0080           0
     34002 WT14     162      MECN     H13      HGA3     0.090000        1.0080           0
     34003 WT14     162      MECN     C2       CG1N1    0.360000       12.0110           0
     34004 WT14     162      MECN     N3       NG1T1   -0.460000       14.0070           0
     34005 WT14     163      MECN     C1       CG331   -0.170000       12.0110           0
     34006 WT14     163      MECN     H11      HGA3     0.090000        1.0080           0
     34007 WT14     163      MECN     H12      HGA3     0.090000        1.0080           0
     34008 WT14     163      MECN     H13      HGA3     0.090000        1.0080           0
     34009 WT14     163      MECN     C2       CG1N1    0.360000       12.0110           0
     34010 WT14     163      MECN     N3       NG1T1   -0.460000       14.0070           0
     34011 WT14     164      MECN     C1       CG331   -0.170000       12.0110           0
     34012 WT14     164      MECN     H11      HGA3     0.090000        1.0080           0
     34013 WT14     164      MECN     H12      HGA3     0.090000        1.0080           0
     34014 WT14     164      MECN     H13      HGA3     0.090000        1.0080           0
     34015 WT14     164      MECN     C2       CG1N1    0.360000       12.0110           0
     34016 WT14     164      MECN     N3       NG1T1   -0.460000       14.0070           0
     34017 WT14     165      MECN     C1       CG331   -0.170000       12.0110           0
     34018 WT14     165      MECN     H11      HGA3     0.090000        1.0080           0
     34019 WT14     165      MECN     H12      HGA3     0.090000        1.0080           0
     34020 WT14     165      MECN     H13      HGA3     0.090000        1.0080           0
     34021 WT14     165      MECN     C2       CG1N1    0.360000       12.0110           0
     34022 WT14     165      MECN     N3       NG1T1   -0.460000       14.0070           0
     34023 WT14     166      MECN     C1       CG331   -0.170000       12.0110           0
     34024 WT14     166      MECN     H11      HGA3     0.090000        1.0080           0
     34025 WT14     166      MECN     H12      HGA3     0.090000        1.0080           0
     34026 WT14     166      MECN     H13      HGA3     0.090000        1.0080           0
     34027 WT14     166      MECN     C2       CG1N1    0.360000       12.0110           0
     34028 WT14     166      MECN     N3       NG1T1   -0.460000       14.0070           0
     34029 WT14     167      MECN     C1       CG331   -0.170000       12.0110           0
     34030 WT14     167      MECN     H11      HGA3     0.090000        1.0080           0
     34031 WT14     167      MECN     H12      HGA3     0.090000        1.0080           0
     34032 WT14     167      MECN     H13      HGA3     0.090000        1.0080           0
     34033 WT14     167      MECN     C2       CG1N1    0.360000       12.0110           0
     34034 WT14     167      MECN     N3       NG1T1   -0.460000       14.0070           0
     34035 WT14     168      MECN     C1       CG331   -0.170000       12.0110           0
     34036 WT14     168      MECN     H11      HGA3     0.090000        1.0080           0
     34037 WT14     168      MECN     H12      HGA3     0.090000        1.0080           0
     34038 WT14     168      MECN     H13      HGA3     0.090000        1.0080           0
     34039 WT14     168      MECN     C2       CG1N1    0.360000       12.0110           0
     34040 WT14     168      MECN     N3       NG1T1   -0.460000       14.0070           0
     34041 WT14     169      MECN     C1       CG331   -0.170000       12.0110           0
     34042 WT14     169      MECN     H11      HGA3     0.090000        1.0080           0
     34043 WT14     169      MECN     H12      HGA3     0.090000        1.0080           0
     34044 WT14     169      MECN     H13      HGA3     0.090000        1.0080           0
     34045 WT14     169      MECN     C2       CG1N1    0.360000       12.0110           0
     34046 WT14     169      MECN     N3       NG1T1   -0.460000       14.0070           0
     34047 WT14     170      MECN     C1       CG331   -0.170000       12.0110           0
     34048 WT14     170      MECN     H11      HGA3     0.090000        1.0080           0
     34049 WT14     170      MECN     H12      HGA3     0.090000        1.0080           0
     34050 WT14     170      MECN     H13      HGA3     0.090000        1.0080           0
     34051 WT14     170      MECN     C2       CG1N1    0.360000       12.0110           0
     34052 WT14     170      MECN     N3       NG1T1   -0.460000       14.0070           0
     34053 WT14     171      MECN     C1       CG331   -0.170000       12.0110           0
     34054 WT14     171      MECN     H11      HGA3     0.090000        1.0080           0
     34055 WT14     171      MECN     H12      HGA3     0.090000        1.0080           0
     34056 WT14     171      MECN     H13      HGA3     0.090000        1.0080           0
     34057 WT14     171      MECN     C2       CG1N1    0.360000       12.0110           0
     34058 WT14     171      MECN     N3       NG1T1   -0.460000       14.0070           0
     34059 WT14     172      MECN     C1       CG331   -0.170000       12.0110           0
     34060 WT14     172      MECN     H11      HGA3     0.090000        1.0080           0
     34061 WT14     172      MECN     H12      HGA3     0.090000        1.0080           0
     34062 WT14     172      MECN     H13      HGA3     0.090000        1.0080           0
     34063 WT14     172      MECN     C2       CG1N1    0.360000       12.0110           0
     34064 WT14     172      MECN     N3       NG1T1   -0.460000       14.0070           0
     34065 WT14     173      MECN     C1       CG331   -0.170000       12.0110           0
     34066 WT14     173      MECN     H11      HGA3     0.090000        1.0080           0
     34067 WT14     173      MECN     H12      HGA3     0.090000        1.0080           0
     34068 WT14     173      MECN     H13      HGA3     0.090000        1.0080           0
     34069 WT14     173      MECN     C2       CG1N1    0.360000       12.0110           0
     34070 WT14     173      MECN     N3       NG1T1   -0.460000       14.0070           0
     34071 WT14     174      MECN     C1       CG331   -0.170000       12.0110           0
     34072 WT14     174      MECN     H11      HGA3     0.090000        1.0080           0
     34073 WT14     174      MECN     H12      HGA3     0.090000        1.0080           0
     34074 WT14     174      MECN     H13      HGA3     0.090000        1.0080           0
     34075 WT14     174      MECN     C2       CG1N1    0.360000       12.0110           0
     34076 WT14     174      MECN     N3       NG1T1   -0.460000       14.0070           0
     34077 WT14     175      MECN     C1       CG331   -0.170000       12.0110           0
     34078 WT14     175      MECN     H11      HGA3     0.090000        1.0080           0
     34079 WT14     175      MECN     H12      HGA3     0.090000        1.0080           0
     34080 WT14     175      MECN     H13      HGA3     0.090000        1.0080           0
     34081 WT14     175      MECN     C2       CG1N1    0.360000       12.0110           0
     34082 WT14     175      MECN     N3       NG1T1   -0.460000       14.0070           0
     34083 WT14     176      MECN     C1       CG331   -0.170000       12.0110           0
     34084 WT14     176      MECN     H11      HGA3     0.090000        1.0080           0
     34085 WT14     176      MECN     H12      HGA3     0.090000        1.0080           0
     34086 WT14     176      MECN     H13      HGA3     0.090000        1.0080           0
     34087 WT14     176      MECN     C2       CG1N1    0.360000       12.0110           0
     34088 WT14     176      MECN     N3       NG1T1   -0.460000       14.0070           0
     34089 WT14     178      MECN     C1       CG331   -0.170000       12.0110           0
     34090 WT14     178      MECN     H11      HGA3     0.090000        1.0080           0
     34091 WT14     178      MECN     H12      HGA3     0.090000        1.0080           0
     34092 WT14     178      MECN     H13      HGA3     0.090000        1.0080           0
     34093 WT14     178      MECN     C2       CG1N1    0.360000       12.0110           0
     34094 WT14     178      MECN     N3       NG1T1   -0.460000       14.0070           0
     34095 WT14     179      MECN     C1       CG331   -0.170000       12.0110           0
     34096 WT14     179      MECN     H11      HGA3     0.090000        1.0080           0
     34097 WT14     179      MECN     H12      HGA3     0.090000        1.0080           0
     34098 WT14     179      MECN     H13      HGA3     0.090000        1.0080           0
     34099 WT14     179      MECN     C2       CG1N1    0.360000       12.0110           0
     34100 WT14     179      MECN     N3       NG1T1   -0.460000       14.0070           0
     34101 WT14     180      MECN     C1       CG331   -0.170000       12.0110           0
     34102 WT14     180      MECN     H11      HGA3     0.090000        1.0080           0
     34103 WT14     180      MECN     H12      HGA3     0.090000        1.0080           0
     34104 WT14     180      MECN     H13      HGA3     0.090000        1.0080           0
     34105 WT14     180      MECN     C2       CG1N1    0.360000       12.0110           0
     34106 WT14     180      MECN     N3       NG1T1   -0.460000       14.0070           0
     34107 WT14     181      MECN     C1       CG331   -0.170000       12.0110           0
     34108 WT14     181      MECN     H11      HGA3     0.090000        1.0080           0
     34109 WT14     181      MECN     H12      HGA3     0.090000        1.0080           0
     34110 WT14     181      MECN     H13      HGA3     0.090000        1.0080           0
     34111 WT14     181      MECN     C2       CG1N1    0.360000       12.0110           0
     34112 WT14     181      MECN     N3       NG1T1   -0.460000       14.0070           0
     34113 WT14     183      MECN     C1       CG331   -0.170000       12.0110           0
     34114 WT14     183      MECN     H11      HGA3     0.090000        1.0080           0
     34115 WT14     183      MECN     H12      HGA3     0.090000        1.0080           0
     34116 WT14     183      MECN     H13      HGA3     0.090000        1.0080           0
     34117 WT14     183      MECN     C2       CG1N1    0.360000       12.0110           0
     34118 WT14     183      MECN     N3       NG1T1   -0.460000       14.0070           0
     34119 WT14     184      MECN     C1       CG331   -0.170000       12.0110           0
     34120 WT14     184      MECN     H11      HGA3     0.090000        1.0080           0
     34121 WT14     184      MECN     H12      HGA3     0.090000        1.0080           0
     34122 WT14     184      MECN     H13      HGA3     0.090000        1.0080           0
     34123 WT14     184      MECN     C2       CG1N1    0.360000       12.0110           0
     34124 WT14     184      MECN     N3       NG1T1   -0.460000       14.0070           0
     34125 WT14     185      MECN     C1       CG331   -0.170000       12.0110           0
     34126 WT14     185      MECN     H11      HGA3     0.090000        1.0080           0
     34127 WT14     185      MECN     H12      HGA3     0.090000        1.0080           0
     34128 WT14     185      MECN     H13      HGA3     0.090000        1.0080           0
     34129 WT14     185      MECN     C2       CG1N1    0.360000       12.0110           0
     34130 WT14     185      MECN     N3       NG1T1   -0.460000       14.0070           0
     34131 WT14     186      MECN     C1       CG331   -0.170000       12.0110           0
     34132 WT14     186      MECN     H11      HGA3     0.090000        1.0080           0
     34133 WT14     186      MECN     H12      HGA3     0.090000        1.0080           0
     34134 WT14     186      MECN     H13      HGA3     0.090000        1.0080           0
     34135 WT14     186      MECN     C2       CG1N1    0.360000       12.0110           0
     34136 WT14     186      MECN     N3       NG1T1   -0.460000       14.0070           0
     34137 WT14     187      MECN     C1       CG331   -0.170000       12.0110           0
     34138 WT14     187      MECN     H11      HGA3     0.090000        1.0080           0
     34139 WT14     187      MECN     H12      HGA3     0.090000        1.0080           0
     34140 WT14     187      MECN     H13      HGA3     0.090000        1.0080           0
     34141 WT14     187      MECN     C2       CG1N1    0.360000       12.0110           0
     34142 WT14     187      MECN     N3       NG1T1   -0.460000       14.0070           0
     34143 WT14     188      MECN     C1       CG331   -0.170000       12.0110           0
     34144 WT14     188      MECN     H11      HGA3     0.090000        1.0080           0
     34145 WT14     188      MECN     H12      HGA3     0.090000        1.0080           0
     34146 WT14     188      MECN     H13      HGA3     0.090000        1.0080           0
     34147 WT14     188      MECN     C2       CG1N1    0.360000       12.0110           0
     34148 WT14     188      MECN     N3       NG1T1   -0.460000       14.0070           0
     34149 WT14     189      MECN     C1       CG331   -0.170000       12.0110           0
     34150 WT14     189      MECN     H11      HGA3     0.090000        1.0080           0
     34151 WT14     189      MECN     H12      HGA3     0.090000        1.0080           0
     34152 WT14     189      MECN     H13      HGA3     0.090000        1.0080           0
     34153 WT14     189      MECN     C2       CG1N1    0.360000       12.0110           0
     34154 WT14     189      MECN     N3       NG1T1   -0.460000       14.0070           0
     34155 WT14     190      MECN     C1       CG331   -0.170000       12.0110           0
     34156 WT14     190      MECN     H11      HGA3     0.090000        1.0080           0
     34157 WT14     190      MECN     H12      HGA3     0.090000        1.0080           0
     34158 WT14     190      MECN     H13      HGA3     0.090000        1.0080           0
     34159 WT14     190      MECN     C2       CG1N1    0.360000       12.0110           0
     34160 WT14     190      MECN     N3       NG1T1   -0.460000       14.0070           0
     34161 WT14     191      MECN     C1       CG331   -0.170000       12.0110           0
     34162 WT14     191      MECN     H11      HGA3     0.090000        1.0080           0
     34163 WT14     191      MECN     H12      HGA3     0.090000        1.0080           0
     34164 WT14     191      MECN     H13      HGA3     0.090000        1.0080           0
     34165 WT14     191      MECN     C2       CG1N1    0.360000       12.0110           0
     34166 WT14     191      MECN     N3       NG1T1   -0.460000       14.0070           0
     34167 WT14     192      MECN     C1       CG331   -0.170000       12.0110           0
     34168 WT14     192      MECN     H11      HGA3     0.090000        1.0080           0
     34169 WT14     192      MECN     H12      HGA3     0.090000        1.0080           0
     34170 WT14     192      MECN     H13      HGA3     0.090000        1.0080           0
     34171 WT14     192      MECN     C2       CG1N1    0.360000       12.0110           0
     34172 WT14     192      MECN     N3       NG1T1   -0.460000       14.0070           0
     34173 WT14     194      MECN     C1       CG331   -0.170000       12.0110           0
     34174 WT14     194      MECN     H11      HGA3     0.090000        1.0080           0
     34175 WT14     194      MECN     H12      HGA3     0.090000        1.0080           0
     34176 WT14     194      MECN     H13      HGA3     0.090000        1.0080           0
     34177 WT14     194      MECN     C2       CG1N1    0.360000       12.0110           0
     34178 WT14     194      MECN     N3       NG1T1   -0.460000       14.0070           0
     34179 WT14     196      MECN     C1       CG331   -0.170000       12.0110           0
     34180 WT14     196      MECN     H11      HGA3     0.090000        1.0080           0
     34181 WT14     196      MECN     H12      HGA3     0.090000        1.0080           0
     34182 WT14     196      MECN     H13      HGA3     0.090000        1.0080           0
     34183 WT14     196      MECN     C2       CG1N1    0.360000       12.0110           0
     34184 WT14     196      MECN     N3       NG1T1   -0.460000       14.0070           0
     34185 WT14     197      MECN     C1       CG331   -0.170000       12.0110           0
     34186 WT14     197      MECN     H11      HGA3     0.090000        1.0080           0
     34187 WT14     197      MECN     H12      HGA3     0.090000        1.0080           0
     34188 WT14     197      MECN     H13      HGA3     0.090000        1.0080           0
     34189 WT14     197      MECN     C2       CG1N1    0.360000       12.0110           0
     34190 WT14     197      MECN     N3       NG1T1   -0.460000       14.0070           0
     34191 WT14     198      MECN     C1       CG331   -0.170000       12.0110           0
     34192 WT14     198      MECN     H11      HGA3     0.090000        1.0080           0
     34193 WT14     198      MECN     H12      HGA3     0.090000        1.0080           0
     34194 WT14     198      MECN     H13      HGA3     0.090000        1.0080           0
     34195 WT14     198      MECN     C2       CG1N1    0.360000       12.0110           0
     34196 WT14     198      MECN     N3       NG1T1   -0.460000       14.0070           0
     34197 WT14     200      MECN     C1       CG331   -0.170000       12.0110           0
     34198 WT14     200      MECN     H11      HGA3     0.090000        1.0080           0
     34199 WT14     200      MECN     H12      HGA3     0.090000        1.0080           0
     34200 WT14     200      MECN     H13      HGA3     0.090000        1.0080           0
     34201 WT14     200      MECN     C2       CG1N1    0.360000       12.0110           0
     34202 WT14     200      MECN     N3       NG1T1   -0.460000       14.0070           0
     34203 WT14     202      MECN     C1       CG331   -0.170000       12.0110           0
     34204 WT14     202      MECN     H11      HGA3     0.090000        1.0080           0
     34205 WT14     202      MECN     H12      HGA3     0.090000        1.0080           0
     34206 WT14     202      MECN     H13      HGA3     0.090000        1.0080           0
     34207 WT14     202      MECN     C2       CG1N1    0.360000       12.0110           0
     34208 WT14     202      MECN     N3       NG1T1   -0.460000       14.0070           0
     34209 WT14     203      MECN     C1       CG331   -0.170000       12.0110           0
     34210 WT14     203      MECN     H11      HGA3     0.090000        1.0080           0
     34211 WT14     203      MECN     H12      HGA3     0.090000        1.0080           0
     34212 WT14     203      MECN     H13      HGA3     0.090000        1.0080           0
     34213 WT14     203      MECN     C2       CG1N1    0.360000       12.0110           0
     34214 WT14     203      MECN     N3       NG1T1   -0.460000       14.0070           0
     34215 WT14     204      MECN     C1       CG331   -0.170000       12.0110           0
     34216 WT14     204      MECN     H11      HGA3     0.090000        1.0080           0
     34217 WT14     204      MECN     H12      HGA3     0.090000        1.0080           0
     34218 WT14     204      MECN     H13      HGA3     0.090000        1.0080           0
     34219 WT14     204      MECN     C2       CG1N1    0.360000       12.0110           0
     34220 WT14     204      MECN     N3       NG1T1   -0.460000       14.0070           0
     34221 WT14     205      MECN     C1       CG331   -0.170000       12.0110           0
     34222 WT14     205      MECN     H11      HGA3     0.090000        1.0080           0
     34223 WT14     205      MECN     H12      HGA3     0.090000        1.0080           0
     34224 WT14     205      MECN     H13      HGA3     0.090000        1.0080           0
     34225 WT14     205      MECN     C2       CG1N1    0.360000       12.0110           0
     34226 WT14     205      MECN     N3       NG1T1   -0.460000       14.0070           0
     34227 WT14     206      MECN     C1       CG331   -0.170000       12.0110           0
     34228 WT14     206      MECN     H11      HGA3     0.090000        1.0080           0
     34229 WT14     206      MECN     H12      HGA3     0.090000        1.0080           0
     34230 WT14     206      MECN     H13      HGA3     0.090000        1.0080           0
     34231 WT14     206      MECN     C2       CG1N1    0.360000       12.0110           0
     34232 WT14     206      MECN     N3       NG1T1   -0.460000       14.0070           0
     34233 WT14     207      MECN     C1       CG331   -0.170000       12.0110           0
     34234 WT14     207      MECN     H11      HGA3     0.090000        1.0080           0
     34235 WT14     207      MECN     H12      HGA3     0.090000        1.0080           0
     34236 WT14     207      MECN     H13      HGA3     0.090000        1.0080           0
     34237 WT14     207      MECN     C2       CG1N1    0.360000       12.0110           0
     34238 WT14     207      MECN     N3       NG1T1   -0.460000       14.0070           0
     34239 WT14     208      MECN     C1       CG331   -0.170000       12.0110           0
     34240 WT14     208      MECN     H11      HGA3     0.090000        1.0080           0
     34241 WT14     208      MECN     H12      HGA3     0.090000        1.0080           0
     34242 WT14     208      MECN     H13      HGA3     0.090000        1.0080           0
     34243 WT14     208      MECN     C2       CG1N1    0.360000       12.0110           0
     34244 WT14     208      MECN     N3       NG1T1   -0.460000       14.0070           0
     34245 WT14     209      MECN     C1       CG331   -0.170000       12.0110           0
     34246 WT14     209      MECN     H11      HGA3     0.090000        1.0080           0
     34247 WT14     209      MECN     H12      HGA3     0.090000        1.0080           0
     34248 WT14     209      MECN     H13      HGA3     0.090000        1.0080           0
     34249 WT14     209      MECN     C2       CG1N1    0.360000       12.0110           0
     34250 WT14     209      MECN     N3       NG1T1   -0.460000       14.0070           0
     34251 WT14     210      MECN     C1       CG331   -0.170000       12.0110           0
     34252 WT14     210      MECN     H11      HGA3     0.090000        1.0080           0
     34253 WT14     210      MECN     H12      HGA3     0.090000        1.0080           0
     34254 WT14     210      MECN     H13      HGA3     0.090000        1.0080           0
     34255 WT14     210      MECN     C2       CG1N1    0.360000       12.0110           0
     34256 WT14     210      MECN     N3       NG1T1   -0.460000       14.0070           0
     34257 WT14     212      MECN     C1       CG331   -0.170000       12.0110           0
     34258 WT14     212      MECN     H11      HGA3     0.090000        1.0080           0
     34259 WT14     212      MECN     H12      HGA3     0.090000        1.0080           0
     34260 WT14     212      MECN     H13      HGA3     0.090000        1.0080           0
     34261 WT14     212      MECN     C2       CG1N1    0.360000       12.0110           0
     34262 WT14     212      MECN     N3       NG1T1   -0.460000       14.0070           0
     34263 WT14     214      MECN     C1       CG331   -0.170000       12.0110           0
     34264 WT14     214      MECN     H11      HGA3     0.090000        1.0080           0
     34265 WT14     214      MECN     H12      HGA3     0.090000        1.0080           0
     34266 WT14     214      MECN     H13      HGA3     0.090000        1.0080           0
     34267 WT14     214      MECN     C2       CG1N1    0.360000       12.0110           0
     34268 WT14     214      MECN     N3       NG1T1   -0.460000       14.0070           0
     34269 WT14     215      MECN     C1       CG331   -0.170000       12.0110           0
     34270 WT14     215      MECN     H11      HGA3     0.090000        1.0080           0
     34271 WT14     215      MECN     H12      HGA3     0.090000        1.0080           0
     34272 WT14     215      MECN     H13      HGA3     0.090000        1.0080           0
     34273 WT14     215      MECN     C2       CG1N1    0.360000       12.0110           0
     34274 WT14     215      MECN     N3       NG1T1   -0.460000       14.0070           0
     34275 WT14     216      MECN     C1       CG331   -0.170000       12.0110           0
     34276 WT14     216      MECN     H11      HGA3     0.090000        1.0080           0
     34277 WT14     216      MECN     H12      HGA3     0.090000        1.0080           0
     34278 WT14     216      MECN     H13      HGA3     0.090000        1.0080           0
     34279 WT14     216      MECN     C2       CG1N1    0.360000       12.0110           0
     34280 WT14     216      MECN     N3       NG1T1   -0.460000       14.0070           0
     34281 WT14     217      MECN     C1       CG331   -0.170000       12.0110           0
     34282 WT14     217      MECN     H11      HGA3     0.090000        1.0080           0
     34283 WT14     217      MECN     H12      HGA3     0.090000        1.0080           0
     34284 WT14     217      MECN     H13      HGA3     0.090000        1.0080           0
     34285 WT14     217      MECN     C2       CG1N1    0.360000       12.0110           0
     34286 WT14     217      MECN     N3       NG1T1   -0.460000       14.0070           0
     34287 WT14     218      MECN     C1       CG331   -0.170000       12.0110           0
     34288 WT14     218      MECN     H11      HGA3     0.090000        1.0080           0
     34289 WT14     218      MECN     H12      HGA3     0.090000        1.0080           0
     34290 WT14     218      MECN     H13      HGA3     0.090000        1.0080           0
     34291 WT14     218      MECN     C2       CG1N1    0.360000       12.0110           0
     34292 WT14     218      MECN     N3       NG1T1   -0.460000       14.0070           0
     34293 WT14     219      MECN     C1       CG331   -0.170000       12.0110           0
     34294 WT14     219      MECN     H11      HGA3     0.090000        1.0080           0
     34295 WT14     219      MECN     H12      HGA3     0.090000        1.0080           0
     34296 WT14     219      MECN     H13      HGA3     0.090000        1.0080           0
     34297 WT14     219      MECN     C2       CG1N1    0.360000       12.0110           0
     34298 WT14     219      MECN     N3       NG1T1   -0.460000       14.0070           0
     34299 WT14     220      MECN     C1       CG331   -0.170000       12.0110           0
     34300 WT14     220      MECN     H11      HGA3     0.090000        1.0080           0
     34301 WT14     220      MECN     H12      HGA3     0.090000        1.0080           0
     34302 WT14     220      MECN     H13      HGA3     0.090000        1.0080           0
     34303 WT14     220      MECN     C2       CG1N1    0.360000       12.0110           0
     34304 WT14     220      MECN     N3       NG1T1   -0.460000       14.0070           0
     34305 WT14     221      MECN     C1       CG331   -0.170000       12.0110           0
     34306 WT14     221      MECN     H11      HGA3     0.090000        1.0080           0
     34307 WT14     221      MECN     H12      HGA3     0.090000        1.0080           0
     34308 WT14     221      MECN     H13      HGA3     0.090000        1.0080           0
     34309 WT14     221      MECN     C2       CG1N1    0.360000       12.0110           0
     34310 WT14     221      MECN     N3       NG1T1   -0.460000       14.0070           0
     34311 WT14     222      MECN     C1       CG331   -0.170000       12.0110           0
     34312 WT14     222      MECN     H11      HGA3     0.090000        1.0080           0
     34313 WT14     222      MECN     H12      HGA3     0.090000        1.0080           0
     34314 WT14     222      MECN     H13      HGA3     0.090000        1.0080           0
     34315 WT14     222      MECN     C2       CG1N1    0.360000       12.0110           0
     34316 WT14     222      MECN     N3       NG1T1   -0.460000       14.0070           0
     34317 WT14     223      MECN     C1       CG331   -0.170000       12.0110           0
     34318 WT14     223      MECN     H11      HGA3     0.090000        1.0080           0
     34319 WT14     223      MECN     H12      HGA3     0.090000        1.0080           0
     34320 WT14     223      MECN     H13      HGA3     0.090000        1.0080           0
     34321 WT14     223      MECN     C2       CG1N1    0.360000       12.0110           0
     34322 WT14     223      MECN     N3       NG1T1   -0.460000       14.0070           0
     34323 WT14     224      MECN     C1       CG331   -0.170000       12.0110           0
     34324 WT14     224      MECN     H11      HGA3     0.090000        1.0080           0
     34325 WT14     224      MECN     H12      HGA3     0.090000        1.0080           0
     34326 WT14     224      MECN     H13      HGA3     0.090000        1.0080           0
     34327 WT14     224      MECN     C2       CG1N1    0.360000       12.0110           0
     34328 WT14     224      MECN     N3       NG1T1   -0.460000       14.0070           0
     34329 WT14     226      MECN     C1       CG331   -0.170000       12.0110           0
     34330 WT14     226      MECN     H11      HGA3     0.090000        1.0080           0
     34331 WT14     226      MECN     H12      HGA3     0.090000        1.0080           0
     34332 WT14     226      MECN     H13      HGA3     0.090000        1.0080           0
     34333 WT14     226      MECN     C2       CG1N1    0.360000       12.0110           0
     34334 WT14     226      MECN     N3       NG1T1   -0.460000       14.0070           0
     34335 WT14     227      MECN     C1       CG331   -0.170000       12.0110           0
     34336 WT14     227      MECN     H11      HGA3     0.090000        1.0080           0
     34337 WT14     227      MECN     H12      HGA3     0.090000        1.0080           0
     34338 WT14     227      MECN     H13      HGA3     0.090000        1.0080           0
     34339 WT14     227      MECN     C2       CG1N1    0.360000       12.0110           0
     34340 WT14     227      MECN     N3       NG1T1   -0.460000       14.0070           0
     34341 WT14     229      MECN     C1       CG331   -0.170000       12.0110           0
     34342 WT14     229      MECN     H11      HGA3     0.090000        1.0080           0
     34343 WT14     229      MECN     H12      HGA3     0.090000        1.0080           0
     34344 WT14     229      MECN     H13      HGA3     0.090000        1.0080           0
     34345 WT14     229      MECN     C2       CG1N1    0.360000       12.0110           0
     34346 WT14     229      MECN     N3       NG1T1   -0.460000       14.0070           0
     34347 WT14     230      MECN     C1       CG331   -0.170000       12.0110           0
     34348 WT14     230      MECN     H11      HGA3     0.090000        1.0080           0
     34349 WT14     230      MECN     H12      HGA3     0.090000        1.0080           0
     34350 WT14     230      MECN     H13      HGA3     0.090000        1.0080           0
     34351 WT14     230      MECN     C2       CG1N1    0.360000       12.0110           0
     34352 WT14     230      MECN     N3       NG1T1   -0.460000       14.0070           0
     34353 WT14     231      MECN     C1       CG331   -0.170000       12.0110           0
     34354 WT14     231      MECN     H11      HGA3     0.090000        1.0080           0
     34355 WT14     231      MECN     H12      HGA3     0.090000        1.0080           0
     34356 WT14     231      MECN     H13      HGA3     0.090000        1.0080           0
     34357 WT14     231      MECN     C2       CG1N1    0.360000       12.0110           0
     34358 WT14     231      MECN     N3       NG1T1   -0.460000       14.0070           0
     34359 WT14     232      MECN     C1       CG331   -0.170000       12.0110           0
     34360 WT14     232      MECN     H11      HGA3     0.090000        1.0080           0
     34361 WT14     232      MECN     H12      HGA3     0.090000        1.0080           0
     34362 WT14     232      MECN     H13      HGA3     0.090000        1.0080           0
     34363 WT14     232      MECN     C2       CG1N1    0.360000       12.0110           0
     34364 WT14     232      MECN     N3       NG1T1   -0.460000       14.0070           0
     34365 WT14     234      MECN     C1       CG331   -0.170000       12.0110           0
     34366 WT14     234      MECN     H11      HGA3     0.090000        1.0080           0
     34367 WT14     234      MECN     H12      HGA3     0.090000        1.0080           0
     34368 WT14     234      MECN     H13      HGA3     0.090000        1.0080           0
     34369 WT14     234      MECN     C2       CG1N1    0.360000       12.0110           0
     34370 WT14     234      MECN     N3       NG1T1   -0.460000       14.0070           0
     34371 WT14     235      MECN     C1       CG331   -0.170000       12.0110           0
     34372 WT14     235      MECN     H11      HGA3     0.090000        1.0080           0
     34373 WT14     235      MECN     H12      HGA3     0.090000        1.0080           0
     34374 WT14     235      MECN     H13      HGA3     0.090000        1.0080           0
     34375 WT14     235      MECN     C2       CG1N1    0.360000       12.0110           0
     34376 WT14     235      MECN     N3       NG1T1   -0.460000       14.0070           0
     34377 WT14     236      MECN     C1       CG331   -0.170000       12.0110           0
     34378 WT14     236      MECN     H11      HGA3     0.090000        1.0080           0
     34379 WT14     236      MECN     H12      HGA3     0.090000        1.0080           0
     34380 WT14     236      MECN     H13      HGA3     0.090000        1.0080           0
     34381 WT14     236      MECN     C2       CG1N1    0.360000       12.0110           0
     34382 WT14     236      MECN     N3       NG1T1   -0.460000       14.0070           0
     34383 WT14     237      MECN     C1       CG331   -0.170000       12.0110           0
     34384 WT14     237      MECN     H11      HGA3     0.090000        1.0080           0
     34385 WT14     237      MECN     H12      HGA3     0.090000        1.0080           0
     34386 WT14     237      MECN     H13      HGA3     0.090000        1.0080           0
     34387 WT14     237      MECN     C2       CG1N1    0.360000       12.0110           0
     34388 WT14     237      MECN     N3       NG1T1   -0.460000       14.0070           0
     34389 WT14     238      MECN     C1       CG331   -0.170000       12.0110           0
     34390 WT14     238      MECN     H11      HGA3     0.090000        1.0080           0
     34391 WT14     238      MECN     H12      HGA3     0.090000        1.0080           0
     34392 WT14     238      MECN     H13      HGA3     0.090000        1.0080           0
     34393 WT14     238      MECN     C2       CG1N1    0.360000       12.0110           0
     34394 WT14     238      MECN     N3       NG1T1   -0.460000       14.0070           0
     34395 WT14     239      MECN     C1       CG331   -0.170000       12.0110           0
     34396 WT14     239      MECN     H11      HGA3     0.090000        1.0080           0
     34397 WT14     239      MECN     H12      HGA3     0.090000        1.0080           0
     34398 WT14     239      MECN     H13      HGA3     0.090000        1.0080           0
     34399 WT14     239      MECN     C2       CG1N1    0.360000       12.0110           0
     34400 WT14     239      MECN     N3       NG1T1   -0.460000       14.0070           0
     34401 WT14     240      MECN     C1       CG331   -0.170000       12.0110           0
     34402 WT14     240      MECN     H11      HGA3     0.090000        1.0080           0
     34403 WT14     240      MECN     H12      HGA3     0.090000        1.0080           0
     34404 WT14     240      MECN     H13      HGA3     0.090000        1.0080           0
     34405 WT14     240      MECN     C2       CG1N1    0.360000       12.0110           0
     34406 WT14     240      MECN     N3       NG1T1   -0.460000       14.0070           0
     34407 WT14     241      MECN     C1       CG331   -0.170000       12.0110           0
     34408 WT14     241      MECN     H11      HGA3     0.090000        1.0080           0
     34409 WT14     241      MECN     H12      HGA3     0.090000        1.0080           0
     34410 WT14     241      MECN     H13      HGA3     0.090000        1.0080           0
     34411 WT14     241      MECN     C2       CG1N1    0.360000       12.0110           0
     34412 WT14     241      MECN     N3       NG1T1   -0.460000       14.0070           0
     34413 WT14     242      MECN     C1       CG331   -0.170000       12.0110           0
     34414 WT14     242      MECN     H11      HGA3     0.090000        1.0080           0
     34415 WT14     242      MECN     H12      HGA3     0.090000        1.0080           0
     34416 WT14     242      MECN     H13      HGA3     0.090000        1.0080           0
     34417 WT14     242      MECN     C2       CG1N1    0.360000       12.0110           0
     34418 WT14     242      MECN     N3       NG1T1   -0.460000       14.0070           0
     34419 WT14     243      MECN     C1       CG331   -0.170000       12.0110           0
     34420 WT14     243      MECN     H11      HGA3     0.090000        1.0080           0
     34421 WT14     243      MECN     H12      HGA3     0.090000        1.0080           0
     34422 WT14     243      MECN     H13      HGA3     0.090000        1.0080           0
     34423 WT14     243      MECN     C2       CG1N1    0.360000       12.0110           0
     34424 WT14     243      MECN     N3       NG1T1   -0.460000       14.0070           0
     34425 WT14     244      MECN     C1       CG331   -0.170000       12.0110           0
     34426 WT14     244      MECN     H11      HGA3     0.090000        1.0080           0
     34427 WT14     244      MECN     H12      HGA3     0.090000        1.0080           0
     34428 WT14     244      MECN     H13      HGA3     0.090000        1.0080           0
     34429 WT14     244      MECN     C2       CG1N1    0.360000       12.0110           0
     34430 WT14     244      MECN     N3       NG1T1   -0.460000       14.0070           0
     34431 WT14     245      MECN     C1       CG331   -0.170000       12.0110           0
     34432 WT14     245      MECN     H11      HGA3     0.090000        1.0080           0
     34433 WT14     245      MECN     H12      HGA3     0.090000        1.0080           0
     34434 WT14     245      MECN     H13      HGA3     0.090000        1.0080           0
     34435 WT14     245      MECN     C2       CG1N1    0.360000       12.0110           0
     34436 WT14     245      MECN     N3       NG1T1   -0.460000       14.0070           0
     34437 WT14     246      MECN     C1       CG331   -0.170000       12.0110           0
     34438 WT14     246      MECN     H11      HGA3     0.090000        1.0080           0
     34439 WT14     246      MECN     H12      HGA3     0.090000        1.0080           0
     34440 WT14     246      MECN     H13      HGA3     0.090000        1.0080           0
     34441 WT14     246      MECN     C2       CG1N1    0.360000       12.0110           0
     34442 WT14     246      MECN     N3       NG1T1   -0.460000       14.0070           0
     34443 WT14     247      MECN     C1       CG331   -0.170000       12.0110           0
     34444 WT14     247      MECN     H11      HGA3     0.090000        1.0080           0
     34445 WT14     247      MECN     H12      HGA3     0.090000        1.0080           0
     34446 WT14     247      MECN     H13      HGA3     0.090000        1.0080           0
     34447 WT14     247      MECN     C2       CG1N1    0.360000       12.0110           0
     34448 WT14     247      MECN     N3       NG1T1   -0.460000       14.0070           0
     34449 WT14     249      MECN     C1       CG331   -0.170000       12.0110           0
     34450 WT14     249      MECN     H11      HGA3     0.090000        1.0080           0
     34451 WT14     249      MECN     H12      HGA3     0.090000        1.0080           0
     34452 WT14     249      MECN     H13      HGA3     0.090000        1.0080           0
     34453 WT14     249      MECN     C2       CG1N1    0.360000       12.0110           0
     34454 WT14     249      MECN     N3       NG1T1   -0.460000       14.0070           0
     34455 WT14     250      MECN     C1       CG331   -0.170000       12.0110           0
     34456 WT14     250      MECN     H11      HGA3     0.090000        1.0080           0
     34457 WT14     250      MECN     H12      HGA3     0.090000        1.0080           0
     34458 WT14     250      MECN     H13      HGA3     0.090000        1.0080           0
     34459 WT14     250      MECN     C2       CG1N1    0.360000       12.0110           0
     34460 WT14     250      MECN     N3       NG1T1   -0.460000       14.0070           0
     34461 WT14     252      MECN     C1       CG331   -0.170000       12.0110           0
     34462 WT14     252      MECN     H11      HGA3     0.090000        1.0080           0
     34463 WT14     252      MECN     H12      HGA3     0.090000        1.0080           0
     34464 WT14     252      MECN     H13      HGA3     0.090000        1.0080           0
     34465 WT14     252      MECN     C2       CG1N1    0.360000       12.0110           0
     34466 WT14     252      MECN     N3       NG1T1   -0.460000       14.0070           0
     34467 WT14     253      MECN     C1       CG331   -0.170000       12.0110           0
     34468 WT14     253      MECN     H11      HGA3     0.090000        1.0080           0
     34469 WT14     253      MECN     H12      HGA3     0.090000        1.0080           0
     34470 WT14     253      MECN     H13      HGA3     0.090000        1.0080           0
     34471 WT14     253      MECN     C2       CG1N1    0.360000       12.0110           0
     34472 WT14     253      MECN     N3       NG1T1   -0.460000       14.0070           0
     34473 WT14     254      MECN     C1       CG331   -0.170000       12.0110           0
     34474 WT14     254      MECN     H11      HGA3     0.090000        1.0080           0
     34475 WT14     254      MECN     H12      HGA3     0.090000        1.0080           0
     34476 WT14     254      MECN     H13      HGA3     0.090000        1.0080           0
     34477 WT14     254      MECN     C2       CG1N1    0.360000       12.0110           0
     34478 WT14     254      MECN     N3       NG1T1   -0.460000       14.0070           0
     34479 WT14     256      MECN     C1       CG331   -0.170000       12.0110           0
     34480 WT14     256      MECN     H11      HGA3     0.090000        1.0080           0
     34481 WT14     256      MECN     H12      HGA3     0.090000        1.0080           0
     34482 WT14     256      MECN     H13      HGA3     0.090000        1.0080           0
     34483 WT14     256      MECN     C2       CG1N1    0.360000       12.0110           0
     34484 WT14     256      MECN     N3       NG1T1   -0.460000       14.0070           0
     34485 WT14     258      MECN     C1       CG331   -0.170000       12.0110           0
     34486 WT14     258      MECN     H11      HGA3     0.090000        1.0080           0
     34487 WT14     258      MECN     H12      HGA3     0.090000        1.0080           0
     34488 WT14     258      MECN     H13      HGA3     0.090000        1.0080           0
     34489 WT14     258      MECN     C2       CG1N1    0.360000       12.0110           0
     34490 WT14     258      MECN     N3       NG1T1   -0.460000       14.0070           0
     34491 WT14     259      MECN     C1       CG331   -0.170000       12.0110           0
     34492 WT14     259      MECN     H11      HGA3     0.090000        1.0080           0
     34493 WT14     259      MECN     H12      HGA3     0.090000        1.0080           0
     34494 WT14     259      MECN     H13      HGA3     0.090000        1.0080           0
     34495 WT14     259      MECN     C2       CG1N1    0.360000       12.0110           0
     34496 WT14     259      MECN     N3       NG1T1   -0.460000       14.0070           0
     34497 WT14     260      MECN     C1       CG331   -0.170000       12.0110           0
     34498 WT14     260      MECN     H11      HGA3     0.090000        1.0080           0
     34499 WT14     260      MECN     H12      HGA3     0.090000        1.0080           0
     34500 WT14     260      MECN     H13      HGA3     0.090000        1.0080           0
     34501 WT14     260      MECN     C2       CG1N1    0.360000       12.0110           0
     34502 WT14     260      MECN     N3       NG1T1   -0.460000       14.0070           0
     34503 WT14     261      MECN     C1       CG331   -0.170000       12.0110           0
     34504 WT14     261      MECN     H11      HGA3     0.090000        1.0080           0
     34505 WT14     261      MECN     H12      HGA3     0.090000        1.0080           0
     34506 WT14     261      MECN     H13      HGA3     0.090000        1.0080           0
     34507 WT14     261      MECN     C2       CG1N1    0.360000       12.0110           0
     34508 WT14     261      MECN     N3       NG1T1   -0.460000       14.0070           0
     34509 WT14     263      MECN     C1       CG331   -0.170000       12.0110           0
     34510 WT14     263      MECN     H11      HGA3     0.090000        1.0080           0
     34511 WT14     263      MECN     H12      HGA3     0.090000        1.0080           0
     34512 WT14     263      MECN     H13      HGA3     0.090000        1.0080           0
     34513 WT14     263      MECN     C2       CG1N1    0.360000       12.0110           0
     34514 WT14     263      MECN     N3       NG1T1   -0.460000       14.0070           0
     34515 WT14     264      MECN     C1       CG331   -0.170000       12.0110           0
     34516 WT14     264      MECN     H11      HGA3     0.090000        1.0080           0
     34517 WT14     264      MECN     H12      HGA3     0.090000        1.0080           0
     34518 WT14     264      MECN     H13      HGA3     0.090000        1.0080           0
     34519 WT14     264      MECN     C2       CG1N1    0.360000       12.0110           0
     34520 WT14     264      MECN     N3       NG1T1   -0.460000       14.0070           0
     34521 WT14     265      MECN     C1       CG331   -0.170000       12.0110           0
     34522 WT14     265      MECN     H11      HGA3     0.090000        1.0080           0
     34523 WT14     265      MECN     H12      HGA3     0.090000        1.0080           0
     34524 WT14     265      MECN     H13      HGA3     0.090000        1.0080           0
     34525 WT14     265      MECN     C2       CG1N1    0.360000       12.0110           0
     34526 WT14     265      MECN     N3       NG1T1   -0.460000       14.0070           0
     34527 WT14     266      MECN     C1       CG331   -0.170000       12.0110           0
     34528 WT14     266      MECN     H11      HGA3     0.090000        1.0080           0
     34529 WT14     266      MECN     H12      HGA3     0.090000        1.0080           0
     34530 WT14     266      MECN     H13      HGA3     0.090000        1.0080           0
     34531 WT14     266      MECN     C2       CG1N1    0.360000       12.0110           0
     34532 WT14     266      MECN     N3       NG1T1   -0.460000       14.0070           0
     34533 WT14     267      MECN     C1       CG331   -0.170000       12.0110           0
     34534 WT14     267      MECN     H11      HGA3     0.090000        1.0080           0
     34535 WT14     267      MECN     H12      HGA3     0.090000        1.0080           0
     34536 WT14     267      MECN     H13      HGA3     0.090000        1.0080           0
     34537 WT14     267      MECN     C2       CG1N1    0.360000       12.0110           0
     34538 WT14     267      MECN     N3       NG1T1   -0.460000       14.0070           0
     34539 WT14     268      MECN     C1       CG331   -0.170000       12.0110           0
     34540 WT14     268      MECN     H11      HGA3     0.090000        1.0080           0
     34541 WT14     268      MECN     H12      HGA3     0.090000        1.0080           0
     34542 WT14     268      MECN     H13      HGA3     0.090000        1.0080           0
     34543 WT14     268      MECN     C2       CG1N1    0.360000       12.0110           0
     34544 WT14     268      MECN     N3       NG1T1   -0.460000       14.0070           0
     34545 WT14     269      MECN     C1       CG331   -0.170000       12.0110           0
     34546 WT14     269      MECN     H11      HGA3     0.090000        1.0080           0
     34547 WT14     269      MECN     H12      HGA3     0.090000        1.0080           0
     34548 WT14     269      MECN     H13      HGA3     0.090000        1.0080           0
     34549 WT14     269      MECN     C2       CG1N1    0.360000       12.0110           0
     34550 WT14     269      MECN     N3       NG1T1   -0.460000       14.0070           0
     34551 WT14     270      MECN     C1       CG331   -0.170000       12.0110           0
     34552 WT14     270      MECN     H11      HGA3     0.090000        1.0080           0
     34553 WT14     270      MECN     H12      HGA3     0.090000        1.0080           0
     34554 WT14     270      MECN     H13      HGA3     0.090000        1.0080           0
     34555 WT14     270      MECN     C2       CG1N1    0.360000       12.0110           0
     34556 WT14     270      MECN     N3       NG1T1   -0.460000       14.0070           0
     34557 WT14     271      MECN     C1       CG331   -0.170000       12.0110           0
     34558 WT14     271      MECN     H11      HGA3     0.090000        1.0080           0
     34559 WT14     271      MECN     H12      HGA3     0.090000        1.0080           0
     34560 WT14     271      MECN     H13      HGA3     0.090000        1.0080           0
     34561 WT14     271      MECN     C2       CG1N1    0.360000       12.0110           0
     34562 WT14     271      MECN     N3       NG1T1   -0.460000       14.0070           0
     34563 WT14     272      MECN     C1       CG331   -0.170000       12.0110           0
     34564 WT14     272      MECN     H11      HGA3     0.090000        1.0080           0
     34565 WT14     272      MECN     H12      HGA3     0.090000        1.0080           0
     34566 WT14     272      MECN     H13      HGA3     0.090000        1.0080           0
     34567 WT14     272      MECN     C2       CG1N1    0.360000       12.0110           0
     34568 WT14     272      MECN     N3       NG1T1   -0.460000       14.0070           0
     34569 WT14     273      MECN     C1       CG331   -0.170000       12.0110           0
     34570 WT14     273      MECN     H11      HGA3     0.090000        1.0080           0
     34571 WT14     273      MECN     H12      HGA3     0.090000        1.0080           0
     34572 WT14     273      MECN     H13      HGA3     0.090000        1.0080           0
     34573 WT14     273      MECN     C2       CG1N1    0.360000       12.0110           0
     34574 WT14     273      MECN     N3       NG1T1   -0.460000       14.0070           0
     34575 WT14     274      MECN     C1       CG331   -0.170000       12.0110           0
     34576 WT14     274      MECN     H11      HGA3     0.090000        1.0080           0
     34577 WT14     274      MECN     H12      HGA3     0.090000        1.0080           0
     34578 WT14     274      MECN     H13      HGA3     0.090000        1.0080           0
     34579 WT14     274      MECN     C2       CG1N1    0.360000       12.0110           0
     34580 WT14     274      MECN     N3       NG1T1   -0.460000       14.0070           0
     34581 WT14     275      MECN     C1       CG331   -0.170000       12.0110           0
     34582 WT14     275      MECN     H11      HGA3     0.090000        1.0080           0
     34583 WT14     275      MECN     H12      HGA3     0.090000        1.0080           0
     34584 WT14     275      MECN     H13      HGA3     0.090000        1.0080           0
     34585 WT14     275      MECN     C2       CG1N1    0.360000       12.0110           0
     34586 WT14     275      MECN     N3       NG1T1   -0.460000       14.0070           0
     34587 WT14     276      MECN     C1       CG331   -0.170000       12.0110           0
     34588 WT14     276      MECN     H11      HGA3     0.090000        1.0080           0
     34589 WT14     276      MECN     H12      HGA3     0.090000        1.0080           0
     34590 WT14     276      MECN     H13      HGA3     0.090000        1.0080           0
     34591 WT14     276      MECN     C2       CG1N1    0.360000       12.0110           0
     34592 WT14     276      MECN     N3       NG1T1   -0.460000       14.0070           0
     34593 WT14     277      MECN     C1       CG331   -0.170000       12.0110           0
     34594 WT14     277      MECN     H11      HGA3     0.090000        1.0080           0
     34595 WT14     277      MECN     H12      HGA3     0.090000        1.0080           0
     34596 WT14     277      MECN     H13      HGA3     0.090000        1.0080           0
     34597 WT14     277      MECN     C2       CG1N1    0.360000       12.0110           0
     34598 WT14     277      MECN     N3       NG1T1   -0.460000       14.0070           0
     34599 WT14     278      MECN     C1       CG331   -0.170000       12.0110           0
     34600 WT14     278      MECN     H11      HGA3     0.090000        1.0080           0
     34601 WT14     278      MECN     H12      HGA3     0.090000        1.0080           0
     34602 WT14     278      MECN     H13      HGA3     0.090000        1.0080           0
     34603 WT14     278      MECN     C2       CG1N1    0.360000       12.0110           0
     34604 WT14     278      MECN     N3       NG1T1   -0.460000       14.0070           0
     34605 WT14     279      MECN     C1       CG331   -0.170000       12.0110           0
     34606 WT14     279      MECN     H11      HGA3     0.090000        1.0080           0
     34607 WT14     279      MECN     H12      HGA3     0.090000        1.0080           0
     34608 WT14     279      MECN     H13      HGA3     0.090000        1.0080           0
     34609 WT14     279      MECN     C2       CG1N1    0.360000       12.0110           0
     34610 WT14     279      MECN     N3       NG1T1   -0.460000       14.0070           0
     34611 WT14     280      MECN     C1       CG331   -0.170000       12.0110           0
     34612 WT14     280      MECN     H11      HGA3     0.090000        1.0080           0
     34613 WT14     280      MECN     H12      HGA3     0.090000        1.0080           0
     34614 WT14     280      MECN     H13      HGA3     0.090000        1.0080           0
     34615 WT14     280      MECN     C2       CG1N1    0.360000       12.0110           0
     34616 WT14     280      MECN     N3       NG1T1   -0.460000       14.0070           0
     34617 WT14     281      MECN     C1       CG331   -0.170000       12.0110           0
     34618 WT14     281      MECN     H11      HGA3     0.090000        1.0080           0
     34619 WT14     281      MECN     H12      HGA3     0.090000        1.0080           0
     34620 WT14     281      MECN     H13      HGA3     0.090000        1.0080           0
     34621 WT14     281      MECN     C2       CG1N1    0.360000       12.0110           0
     34622 WT14     281      MECN     N3       NG1T1   -0.460000       14.0070           0
     34623 WT14     283      MECN     C1       CG331   -0.170000       12.0110           0
     34624 WT14     283      MECN     H11      HGA3     0.090000        1.0080           0
     34625 WT14     283      MECN     H12      HGA3     0.090000        1.0080           0
     34626 WT14     283      MECN     H13      HGA3     0.090000        1.0080           0
     34627 WT14     283      MECN     C2       CG1N1    0.360000       12.0110           0
     34628 WT14     283      MECN     N3       NG1T1   -0.460000       14.0070           0
     34629 WT14     284      MECN     C1       CG331   -0.170000       12.0110           0
     34630 WT14     284      MECN     H11      HGA3     0.090000        1.0080           0
     34631 WT14     284      MECN     H12      HGA3     0.090000        1.0080           0
     34632 WT14     284      MECN     H13      HGA3     0.090000        1.0080           0
     34633 WT14     284      MECN     C2       CG1N1    0.360000       12.0110           0
     34634 WT14     284      MECN     N3       NG1T1   -0.460000       14.0070           0
     34635 WT14     286      MECN     C1       CG331   -0.170000       12.0110           0
     34636 WT14     286      MECN     H11      HGA3     0.090000        1.0080           0
     34637 WT14     286      MECN     H12      HGA3     0.090000        1.0080           0
     34638 WT14     286      MECN     H13      HGA3     0.090000        1.0080           0
     34639 WT14     286      MECN     C2       CG1N1    0.360000       12.0110           0
     34640 WT14     286      MECN     N3       NG1T1   -0.460000       14.0070           0
     34641 WT14     287      MECN     C1       CG331   -0.170000       12.0110           0
     34642 WT14     287      MECN     H11      HGA3     0.090000        1.0080           0
     34643 WT14     287      MECN     H12      HGA3     0.090000        1.0080           0
     34644 WT14     287      MECN     H13      HGA3     0.090000        1.0080           0
     34645 WT14     287      MECN     C2       CG1N1    0.360000       12.0110           0
     34646 WT14     287      MECN     N3       NG1T1   -0.460000       14.0070           0
     34647 WT14     288      MECN     C1       CG331   -0.170000       12.0110           0
     34648 WT14     288      MECN     H11      HGA3     0.090000        1.0080           0
     34649 WT14     288      MECN     H12      HGA3     0.090000        1.0080           0
     34650 WT14     288      MECN     H13      HGA3     0.090000        1.0080           0
     34651 WT14     288      MECN     C2       CG1N1    0.360000       12.0110           0
     34652 WT14     288      MECN     N3       NG1T1   -0.460000       14.0070           0
     34653 WT14     289      MECN     C1       CG331   -0.170000       12.0110           0
     34654 WT14     289      MECN     H11      HGA3     0.090000        1.0080           0
     34655 WT14     289      MECN     H12      HGA3     0.090000        1.0080           0
     34656 WT14     289      MECN     H13      HGA3     0.090000        1.0080           0
     34657 WT14     289      MECN     C2       CG1N1    0.360000       12.0110           0
     34658 WT14     289      MECN     N3       NG1T1   -0.460000       14.0070           0
     34659 WT14     290      MECN     C1       CG331   -0.170000       12.0110           0
     34660 WT14     290      MECN     H11      HGA3     0.090000        1.0080           0
     34661 WT14     290      MECN     H12      HGA3     0.090000        1.0080           0
     34662 WT14     290      MECN     H13      HGA3     0.090000        1.0080           0
     34663 WT14     290      MECN     C2       CG1N1    0.360000       12.0110           0
     34664 WT14     290      MECN     N3       NG1T1   -0.460000       14.0070           0
     34665 WT14     291      MECN     C1       CG331   -0.170000       12.0110           0
     34666 WT14     291      MECN     H11      HGA3     0.090000        1.0080           0
     34667 WT14     291      MECN     H12      HGA3     0.090000        1.0080           0
     34668 WT14     291      MECN     H13      HGA3     0.090000        1.0080           0
     34669 WT14     291      MECN     C2       CG1N1    0.360000       12.0110           0
     34670 WT14     291      MECN     N3       NG1T1   -0.460000       14.0070           0
     34671 WT14     292      MECN     C1       CG331   -0.170000       12.0110           0
     34672 WT14     292      MECN     H11      HGA3     0.090000        1.0080           0
     34673 WT14     292      MECN     H12      HGA3     0.090000        1.0080           0
     34674 WT14     292      MECN     H13      HGA3     0.090000        1.0080           0
     34675 WT14     292      MECN     C2       CG1N1    0.360000       12.0110           0
     34676 WT14     292      MECN     N3       NG1T1   -0.460000       14.0070           0
     34677 WT14     293      MECN     C1       CG331   -0.170000       12.0110           0
     34678 WT14     293      MECN     H11      HGA3     0.090000        1.0080           0
     34679 WT14     293      MECN     H12      HGA3     0.090000        1.0080           0
     34680 WT14     293      MECN     H13      HGA3     0.090000        1.0080           0
     34681 WT14     293      MECN     C2       CG1N1    0.360000       12.0110           0
     34682 WT14     293      MECN     N3       NG1T1   -0.460000       14.0070           0
     34683 WT14     294      MECN     C1       CG331   -0.170000       12.0110           0
     34684 WT14     294      MECN     H11      HGA3     0.090000        1.0080           0
     34685 WT14     294      MECN     H12      HGA3     0.090000        1.0080           0
     34686 WT14     294      MECN     H13      HGA3     0.090000        1.0080           0
     34687 WT14     294      MECN     C2       CG1N1    0.360000       12.0110           0
     34688 WT14     294      MECN     N3       NG1T1   -0.460000       14.0070           0
     34689 WT14     297      MECN     C1       CG331   -0.170000       12.0110           0
     34690 WT14     297      MECN     H11      HGA3     0.090000        1.0080           0
     34691 WT14     297      MECN     H12      HGA3     0.090000        1.0080           0
     34692 WT14     297      MECN     H13      HGA3     0.090000        1.0080           0
     34693 WT14     297      MECN     C2       CG1N1    0.360000       12.0110           0
     34694 WT14     297      MECN     N3       NG1T1   -0.460000       14.0070           0
     34695 WT14     298      MECN     C1       CG331   -0.170000       12.0110           0
     34696 WT14     298      MECN     H11      HGA3     0.090000        1.0080           0
     34697 WT14     298      MECN     H12      HGA3     0.090000        1.0080           0
     34698 WT14     298      MECN     H13      HGA3     0.090000        1.0080           0
     34699 WT14     298      MECN     C2       CG1N1    0.360000       12.0110           0
     34700 WT14     298      MECN     N3       NG1T1   -0.460000       14.0070           0
     34701 WT14     299      MECN     C1       CG331   -0.170000       12.0110           0
     34702 WT14     299      MECN     H11      HGA3     0.090000        1.0080           0
     34703 WT14     299      MECN     H12      HGA3     0.090000        1.0080           0
     34704 WT14     299      MECN     H13      HGA3     0.090000        1.0080           0
     34705 WT14     299      MECN     C2       CG1N1    0.360000       12.0110           0
     34706 WT14     299      MECN     N3       NG1T1   -0.460000       14.0070           0
     34707 WT14     301      MECN     C1       CG331   -0.170000       12.0110           0
     34708 WT14     301      MECN     H11      HGA3     0.090000        1.0080           0
     34709 WT14     301      MECN     H12      HGA3     0.090000        1.0080           0
     34710 WT14     301      MECN     H13      HGA3     0.090000        1.0080           0
     34711 WT14     301      MECN     C2       CG1N1    0.360000       12.0110           0
     34712 WT14     301      MECN     N3       NG1T1   -0.460000       14.0070           0
     34713 WT14     303      MECN     C1       CG331   -0.170000       12.0110           0
     34714 WT14     303      MECN     H11      HGA3     0.090000        1.0080           0
     34715 WT14     303      MECN     H12      HGA3     0.090000        1.0080           0
     34716 WT14     303      MECN     H13      HGA3     0.090000        1.0080           0
     34717 WT14     303      MECN     C2       CG1N1    0.360000       12.0110           0
     34718 WT14     303      MECN     N3       NG1T1   -0.460000       14.0070           0
     34719 WT14     304      MECN     C1       CG331   -0.170000       12.0110           0
     34720 WT14     304      MECN     H11      HGA3     0.090000        1.0080           0
     34721 WT14     304      MECN     H12      HGA3     0.090000        1.0080           0
     34722 WT14     304      MECN     H13      HGA3     0.090000        1.0080           0
     34723 WT14     304      MECN     C2       CG1N1    0.360000       12.0110           0
     34724 WT14     304      MECN     N3       NG1T1   -0.460000       14.0070           0
     34725 WT14     305      MECN     C1       CG331   -0.170000       12.0110           0
     34726 WT14     305      MECN     H11      HGA3     0.090000        1.0080           0
     34727 WT14     305      MECN     H12      HGA3     0.090000        1.0080           0
     34728 WT14     305      MECN     H13      HGA3     0.090000        1.0080           0
     34729 WT14     305      MECN     C2       CG1N1    0.360000       12.0110           0
     34730 WT14     305      MECN     N3       NG1T1   -0.460000       14.0070           0
     34731 WT14     306      MECN     C1       CG331   -0.170000       12.0110           0
     34732 WT14     306      MECN     H11      HGA3     0.090000        1.0080           0
     34733 WT14     306      MECN     H12      HGA3     0.090000        1.0080           0
     34734 WT14     306      MECN     H13      HGA3     0.090000        1.0080           0
     34735 WT14     306      MECN     C2       CG1N1    0.360000       12.0110           0
     34736 WT14     306      MECN     N3       NG1T1   -0.460000       14.0070           0
     34737 WT14     307      MECN     C1       CG331   -0.170000       12.0110           0
     34738 WT14     307      MECN     H11      HGA3     0.090000        1.0080           0
     34739 WT14     307      MECN     H12      HGA3     0.090000        1.0080           0
     34740 WT14     307      MECN     H13      HGA3     0.090000        1.0080           0
     34741 WT14     307      MECN     C2       CG1N1    0.360000       12.0110           0
     34742 WT14     307      MECN     N3       NG1T1   -0.460000       14.0070           0
     34743 WT14     309      MECN     C1       CG331   -0.170000       12.0110           0
     34744 WT14     309      MECN     H11      HGA3     0.090000        1.0080           0
     34745 WT14     309      MECN     H12      HGA3     0.090000        1.0080           0
     34746 WT14     309      MECN     H13      HGA3     0.090000        1.0080           0
     34747 WT14     309      MECN     C2       CG1N1    0.360000       12.0110           0
     34748 WT14     309      MECN     N3       NG1T1   -0.460000       14.0070           0
     34749 WT14     310      MECN     C1       CG331   -0.170000       12.0110           0
     34750 WT14     310      MECN     H11      HGA3     0.090000        1.0080           0
     34751 WT14     310      MECN     H12      HGA3     0.090000        1.0080           0
     34752 WT14     310      MECN     H13      HGA3     0.090000        1.0080           0
     34753 WT14     310      MECN     C2       CG1N1    0.360000       12.0110           0
     34754 WT14     310      MECN     N3       NG1T1   -0.460000       14.0070           0
     34755 WT14     311      MECN     C1       CG331   -0.170000       12.0110           0
     34756 WT14     311      MECN     H11      HGA3     0.090000        1.0080           0
     34757 WT14     311      MECN     H12      HGA3     0.090000        1.0080           0
     34758 WT14     311      MECN     H13      HGA3     0.090000        1.0080           0
     34759 WT14     311      MECN     C2       CG1N1    0.360000       12.0110           0
     34760 WT14     311      MECN     N3       NG1T1   -0.460000       14.0070           0
     34761 WT14     312      MECN     C1       CG331   -0.170000       12.0110           0
     34762 WT14     312      MECN     H11      HGA3     0.090000        1.0080           0
     34763 WT14     312      MECN     H12      HGA3     0.090000        1.0080           0
     34764 WT14     312      MECN     H13      HGA3     0.090000        1.0080           0
     34765 WT14     312      MECN     C2       CG1N1    0.360000       12.0110           0
     34766 WT14     312      MECN     N3       NG1T1   -0.460000       14.0070           0
     34767 WT14     313      MECN     C1       CG331   -0.170000       12.0110           0
     34768 WT14     313      MECN     H11      HGA3     0.090000        1.0080           0
     34769 WT14     313      MECN     H12      HGA3     0.090000        1.0080           0
     34770 WT14     313      MECN     H13      HGA3     0.090000        1.0080           0
     34771 WT14     313      MECN     C2       CG1N1    0.360000       12.0110           0
     34772 WT14     313      MECN     N3       NG1T1   -0.460000       14.0070           0
     34773 WT14     314      MECN     C1       CG331   -0.170000       12.0110           0
     34774 WT14     314      MECN     H11      HGA3     0.090000        1.0080           0
     34775 WT14     314      MECN     H12      HGA3     0.090000        1.0080           0
     34776 WT14     314      MECN     H13      HGA3     0.090000        1.0080           0
     34777 WT14     314      MECN     C2       CG1N1    0.360000       12.0110           0
     34778 WT14     314      MECN     N3       NG1T1   -0.460000       14.0070           0
     34779 WT14     315      MECN     C1       CG331   -0.170000       12.0110           0
     34780 WT14     315      MECN     H11      HGA3     0.090000        1.0080           0
     34781 WT14     315      MECN     H12      HGA3     0.090000        1.0080           0
     34782 WT14     315      MECN     H13      HGA3     0.090000        1.0080           0
     34783 WT14     315      MECN     C2       CG1N1    0.360000       12.0110           0
     34784 WT14     315      MECN     N3       NG1T1   -0.460000       14.0070           0
     34785 WT14     316      MECN     C1       CG331   -0.170000       12.0110           0
     34786 WT14     316      MECN     H11      HGA3     0.090000        1.0080           0
     34787 WT14     316      MECN     H12      HGA3     0.090000        1.0080           0
     34788 WT14     316      MECN     H13      HGA3     0.090000        1.0080           0
     34789 WT14     316      MECN     C2       CG1N1    0.360000       12.0110           0
     34790 WT14     316      MECN     N3       NG1T1   -0.460000       14.0070           0
     34791 WT14     317      MECN     C1       CG331   -0.170000       12.0110           0
     34792 WT14     317      MECN     H11      HGA3     0.090000        1.0080           0
     34793 WT14     317      MECN     H12      HGA3     0.090000        1.0080           0
     34794 WT14     317      MECN     H13      HGA3     0.090000        1.0080           0
     34795 WT14     317      MECN     C2       CG1N1    0.360000       12.0110           0
     34796 WT14     317      MECN     N3       NG1T1   -0.460000       14.0070           0
     34797 WT14     318      MECN     C1       CG331   -0.170000       12.0110           0
     34798 WT14     318      MECN     H11      HGA3     0.090000        1.0080           0
     34799 WT14     318      MECN     H12      HGA3     0.090000        1.0080           0
     34800 WT14     318      MECN     H13      HGA3     0.090000        1.0080           0
     34801 WT14     318      MECN     C2       CG1N1    0.360000       12.0110           0
     34802 WT14     318      MECN     N3       NG1T1   -0.460000       14.0070           0
     34803 WT14     319      MECN     C1       CG331   -0.170000       12.0110           0
     34804 WT14     319      MECN     H11      HGA3     0.090000        1.0080           0
     34805 WT14     319      MECN     H12      HGA3     0.090000        1.0080           0
     34806 WT14     319      MECN     H13      HGA3     0.090000        1.0080           0
     34807 WT14     319      MECN     C2       CG1N1    0.360000       12.0110           0
     34808 WT14     319      MECN     N3       NG1T1   -0.460000       14.0070           0
     34809 WT14     320      MECN     C1       CG331   -0.170000       12.0110           0
     34810 WT14     320      MECN     H11      HGA3     0.090000        1.0080           0
     34811 WT14     320      MECN     H12      HGA3     0.090000        1.0080           0
     34812 WT14     320      MECN     H13      HGA3     0.090000        1.0080           0
     34813 WT14     320      MECN     C2       CG1N1    0.360000       12.0110           0
     34814 WT14     320      MECN     N3       NG1T1   -0.460000       14.0070           0
     34815 WT14     321      MECN     C1       CG331   -0.170000       12.0110           0
     34816 WT14     321      MECN     H11      HGA3     0.090000        1.0080           0
     34817 WT14     321      MECN     H12      HGA3     0.090000        1.0080           0
     34818 WT14     321      MECN     H13      HGA3     0.090000        1.0080           0
     34819 WT14     321      MECN     C2       CG1N1    0.360000       12.0110           0
     34820 WT14     321      MECN     N3       NG1T1   -0.460000       14.0070           0
     34821 WT14     322      MECN     C1       CG331   -0.170000       12.0110           0
     34822 WT14     322      MECN     H11      HGA3     0.090000        1.0080           0
     34823 WT14     322      MECN     H12      HGA3     0.090000        1.0080           0
     34824 WT14     322      MECN     H13      HGA3     0.090000        1.0080           0
     34825 WT14     322      MECN     C2       CG1N1    0.360000       12.0110           0
     34826 WT14     322      MECN     N3       NG1T1   -0.460000       14.0070           0
     34827 WT14     324      MECN     C1       CG331   -0.170000       12.0110           0
     34828 WT14     324      MECN     H11      HGA3     0.090000        1.0080           0
     34829 WT14     324      MECN     H12      HGA3     0.090000        1.0080           0
     34830 WT14     324      MECN     H13      HGA3     0.090000        1.0080           0
     34831 WT14     324      MECN     C2       CG1N1    0.360000       12.0110           0
     34832 WT14     324      MECN     N3       NG1T1   -0.460000       14.0070           0
     34833 WT14     325      MECN     C1       CG331   -0.170000       12.0110           0
     34834 WT14     325      MECN     H11      HGA3     0.090000        1.0080           0
     34835 WT14     325      MECN     H12      HGA3     0.090000        1.0080           0
     34836 WT14     325      MECN     H13      HGA3     0.090000        1.0080           0
     34837 WT14     325      MECN     C2       CG1N1    0.360000       12.0110           0
     34838 WT14     325      MECN     N3       NG1T1   -0.460000       14.0070           0
     34839 WT14     327      MECN     C1       CG331   -0.170000       12.0110           0
     34840 WT14     327      MECN     H11      HGA3     0.090000        1.0080           0
     34841 WT14     327      MECN     H12      HGA3     0.090000        1.0080           0
     34842 WT14     327      MECN     H13      HGA3     0.090000        1.0080           0
     34843 WT14     327      MECN     C2       CG1N1    0.360000       12.0110           0
     34844 WT14     327      MECN     N3       NG1T1   -0.460000       14.0070           0
     34845 WT14     328      MECN     C1       CG331   -0.170000       12.0110           0
     34846 WT14     328      MECN     H11      HGA3     0.090000        1.0080           0
     34847 WT14     328      MECN     H12      HGA3     0.090000        1.0080           0
     34848 WT14     328      MECN     H13      HGA3     0.090000        1.0080           0
     34849 WT14     328      MECN     C2       CG1N1    0.360000       12.0110           0
     34850 WT14     328      MECN     N3       NG1T1   -0.460000       14.0070           0
     34851 WT14     329      MECN     C1       CG331   -0.170000       12.0110           0
     34852 WT14     329      MECN     H11      HGA3     0.090000        1.0080           0
     34853 WT14     329      MECN     H12      HGA3     0.090000        1.0080           0
     34854 WT14     329      MECN     H13      HGA3     0.090000        1.0080           0
     34855 WT14     329      MECN     C2       CG1N1    0.360000       12.0110           0
     34856 WT14     329      MECN     N3       NG1T1   -0.460000       14.0070           0
     34857 WT14     330      MECN     C1       CG331   -0.170000       12.0110           0
     34858 WT14     330      MECN     H11      HGA3     0.090000        1.0080           0
     34859 WT14     330      MECN     H12      HGA3     0.090000        1.0080           0
     34860 WT14     330      MECN     H13      HGA3     0.090000        1.0080           0
     34861 WT14     330      MECN     C2       CG1N1    0.360000       12.0110           0
     34862 WT14     330      MECN     N3       NG1T1   -0.460000       14.0070           0
     34863 WT14     331      MECN     C1       CG331   -0.170000       12.0110           0
     34864 WT14     331      MECN     H11      HGA3     0.090000        1.0080           0
     34865 WT14     331      MECN     H12      HGA3     0.090000        1.0080           0
     34866 WT14     331      MECN     H13      HGA3     0.090000        1.0080           0
     34867 WT14     331      MECN     C2       CG1N1    0.360000       12.0110           0
     34868 WT14     331      MECN     N3       NG1T1   -0.460000       14.0070           0
     34869 WT14     332      MECN     C1       CG331   -0.170000       12.0110           0
     34870 WT14     332      MECN     H11      HGA3     0.090000        1.0080           0
     34871 WT14     332      MECN     H12      HGA3     0.090000        1.0080           0
     34872 WT14     332      MECN     H13      HGA3     0.090000        1.0080           0
     34873 WT14     332      MECN     C2       CG1N1    0.360000       12.0110           0
     34874 WT14     332      MECN     N3       NG1T1   -0.460000       14.0070           0
     34875 WT14     334      MECN     C1       CG331   -0.170000       12.0110           0
     34876 WT14     334      MECN     H11      HGA3     0.090000        1.0080           0
     34877 WT14     334      MECN     H12      HGA3     0.090000        1.0080           0
     34878 WT14     334      MECN     H13      HGA3     0.090000        1.0080           0
     34879 WT14     334      MECN     C2       CG1N1    0.360000       12.0110           0
     34880 WT14     334      MECN     N3       NG1T1   -0.460000       14.0070           0
     34881 WT14     335      MECN     C1       CG331   -0.170000       12.0110           0
     34882 WT14     335      MECN     H11      HGA3     0.090000        1.0080           0
     34883 WT14     335      MECN     H12      HGA3     0.090000        1.0080           0
     34884 WT14     335      MECN     H13      HGA3     0.090000        1.0080           0
     34885 WT14     335      MECN     C2       CG1N1    0.360000       12.0110           0
     34886 WT14     335      MECN     N3       NG1T1   -0.460000       14.0070           0
     34887 WT14     336      MECN     C1       CG331   -0.170000       12.0110           0
     34888 WT14     336      MECN     H11      HGA3     0.090000        1.0080           0
     34889 WT14     336      MECN     H12      HGA3     0.090000        1.0080           0
     34890 WT14     336      MECN     H13      HGA3     0.090000        1.0080           0
     34891 WT14     336      MECN     C2       CG1N1    0.360000       12.0110           0
     34892 WT14     336      MECN     N3       NG1T1   -0.460000       14.0070           0
     34893 WT14     337      MECN     C1       CG331   -0.170000       12.0110           0
     34894 WT14     337      MECN     H11      HGA3     0.090000        1.0080           0
     34895 WT14     337      MECN     H12      HGA3     0.090000        1.0080           0
     34896 WT14     337      MECN     H13      HGA3     0.090000        1.0080           0
     34897 WT14     337      MECN     C2       CG1N1    0.360000       12.0110           0
     34898 WT14     337      MECN     N3       NG1T1   -0.460000       14.0070           0
     34899 WT14     338      MECN     C1       CG331   -0.170000       12.0110           0
     34900 WT14     338      MECN     H11      HGA3     0.090000        1.0080           0
     34901 WT14     338      MECN     H12      HGA3     0.090000        1.0080           0
     34902 WT14     338      MECN     H13      HGA3     0.090000        1.0080           0
     34903 WT14     338      MECN     C2       CG1N1    0.360000       12.0110           0
     34904 WT14     338      MECN     N3       NG1T1   -0.460000       14.0070           0
     34905 WT14     339      MECN     C1       CG331   -0.170000       12.0110           0
     34906 WT14     339      MECN     H11      HGA3     0.090000        1.0080           0
     34907 WT14     339      MECN     H12      HGA3     0.090000        1.0080           0
     34908 WT14     339      MECN     H13      HGA3     0.090000        1.0080           0
     34909 WT14     339      MECN     C2       CG1N1    0.360000       12.0110           0
     34910 WT14     339      MECN     N3       NG1T1   -0.460000       14.0070           0
     34911 WT14     340      MECN     C1       CG331   -0.170000       12.0110           0
     34912 WT14     340      MECN     H11      HGA3     0.090000        1.0080           0
     34913 WT14     340      MECN     H12      HGA3     0.090000        1.0080           0
     34914 WT14     340      MECN     H13      HGA3     0.090000        1.0080           0
     34915 WT14     340      MECN     C2       CG1N1    0.360000       12.0110           0
     34916 WT14     340      MECN     N3       NG1T1   -0.460000       14.0070           0
     34917 WT14     341      MECN     C1       CG331   -0.170000       12.0110           0
     34918 WT14     341      MECN     H11      HGA3     0.090000        1.0080           0
     34919 WT14     341      MECN     H12      HGA3     0.090000        1.0080           0
     34920 WT14     341      MECN     H13      HGA3     0.090000        1.0080           0
     34921 WT14     341      MECN     C2       CG1N1    0.360000       12.0110           0
     34922 WT14     341      MECN     N3       NG1T1   -0.460000       14.0070           0
     34923 WT14     342      MECN     C1       CG331   -0.170000       12.0110           0
     34924 WT14     342      MECN     H11      HGA3     0.090000        1.0080           0
     34925 WT14     342      MECN     H12      HGA3     0.090000        1.0080           0
     34926 WT14     342      MECN     H13      HGA3     0.090000        1.0080           0
     34927 WT14     342      MECN     C2       CG1N1    0.360000       12.0110           0
     34928 WT14     342      MECN     N3       NG1T1   -0.460000       14.0070           0
     34929 WT14     343      MECN     C1       CG331   -0.170000       12.0110           0
     34930 WT14     343      MECN     H11      HGA3     0.090000        1.0080           0
     34931 WT14     343      MECN     H12      HGA3     0.090000        1.0080           0
     34932 WT14     343      MECN     H13      HGA3     0.090000        1.0080           0
     34933 WT14     343      MECN     C2       CG1N1    0.360000       12.0110           0
     34934 WT14     343      MECN     N3       NG1T1   -0.460000       14.0070           0
     34935 WT14     344      MECN     C1       CG331   -0.170000       12.0110           0
     34936 WT14     344      MECN     H11      HGA3     0.090000        1.0080           0
     34937 WT14     344      MECN     H12      HGA3     0.090000        1.0080           0
     34938 WT14     344      MECN     H13      HGA3     0.090000        1.0080           0
     34939 WT14     344      MECN     C2       CG1N1    0.360000       12.0110           0
     34940 WT14     344      MECN     N3       NG1T1   -0.460000       14.0070           0
     34941 WT14     345      MECN     C1       CG331   -0.170000       12.0110           0
     34942 WT14     345      MECN     H11      HGA3     0.090000        1.0080           0
     34943 WT14     345      MECN     H12      HGA3     0.090000        1.0080           0
     34944 WT14     345      MECN     H13      HGA3     0.090000        1.0080           0
     34945 WT14     345      MECN     C2       CG1N1    0.360000       12.0110           0
     34946 WT14     345      MECN     N3       NG1T1   -0.460000       14.0070           0
     34947 WT14     347      MECN     C1       CG331   -0.170000       12.0110           0
     34948 WT14     347      MECN     H11      HGA3     0.090000        1.0080           0
     34949 WT14     347      MECN     H12      HGA3     0.090000        1.0080           0
     34950 WT14     347      MECN     H13      HGA3     0.090000        1.0080           0
     34951 WT14     347      MECN     C2       CG1N1    0.360000       12.0110           0
     34952 WT14     347      MECN     N3       NG1T1   -0.460000       14.0070           0
     34953 WT14     349      MECN     C1       CG331   -0.170000       12.0110           0
     34954 WT14     349      MECN     H11      HGA3     0.090000        1.0080           0
     34955 WT14     349      MECN     H12      HGA3     0.090000        1.0080           0
     34956 WT14     349      MECN     H13      HGA3     0.090000        1.0080           0
     34957 WT14     349      MECN     C2       CG1N1    0.360000       12.0110           0
     34958 WT14     349      MECN     N3       NG1T1   -0.460000       14.0070           0
     34959 WT14     350      MECN     C1       CG331   -0.170000       12.0110           0
     34960 WT14     350      MECN     H11      HGA3     0.090000        1.0080           0
     34961 WT14     350      MECN     H12      HGA3     0.090000        1.0080           0
     34962 WT14     350      MECN     H13      HGA3     0.090000        1.0080           0
     34963 WT14     350      MECN     C2       CG1N1    0.360000       12.0110           0
     34964 WT14     350      MECN     N3       NG1T1   -0.460000       14.0070           0
     34965 WT14     351      MECN     C1       CG331   -0.170000       12.0110           0
     34966 WT14     351      MECN     H11      HGA3     0.090000        1.0080           0
     34967 WT14     351      MECN     H12      HGA3     0.090000        1.0080           0
     34968 WT14     351      MECN     H13      HGA3     0.090000        1.0080           0
     34969 WT14     351      MECN     C2       CG1N1    0.360000       12.0110           0
     34970 WT14     351      MECN     N3       NG1T1   -0.460000       14.0070           0
     34971 WT14     352      MECN     C1       CG331   -0.170000       12.0110           0
     34972 WT14     352      MECN     H11      HGA3     0.090000        1.0080           0
     34973 WT14     352      MECN     H12      HGA3     0.090000        1.0080           0
     34974 WT14     352      MECN     H13      HGA3     0.090000        1.0080           0
     34975 WT14     352      MECN     C2       CG1N1    0.360000       12.0110           0
     34976 WT14     352      MECN     N3       NG1T1   -0.460000       14.0070           0
     34977 WT14     353      MECN     C1       CG331   -0.170000       12.0110           0
     34978 WT14     353      MECN     H11      HGA3     0.090000        1.0080           0
     34979 WT14     353      MECN     H12      HGA3     0.090000        1.0080           0
     34980 WT14     353      MECN     H13      HGA3     0.090000        1.0080           0
     34981 WT14     353      MECN     C2       CG1N1    0.360000       12.0110           0
     34982 WT14     353      MECN     N3       NG1T1   -0.460000       14.0070           0
     34983 WT14     354      MECN     C1       CG331   -0.170000       12.0110           0
     34984 WT14     354      MECN     H11      HGA3     0.090000        1.0080           0
     34985 WT14     354      MECN     H12      HGA3     0.090000        1.0080           0
     34986 WT14     354      MECN     H13      HGA3     0.090000        1.0080           0
     34987 WT14     354      MECN     C2       CG1N1    0.360000       12.0110           0
     34988 WT14     354      MECN     N3       NG1T1   -0.460000       14.0070           0
     34989 WT14     355      MECN     C1       CG331   -0.170000       12.0110           0
     34990 WT14     355      MECN     H11      HGA3     0.090000        1.0080           0
     34991 WT14     355      MECN     H12      HGA3     0.090000        1.0080           0
     34992 WT14     355      MECN     H13      HGA3     0.090000        1.0080           0
     34993 WT14     355      MECN     C2       CG1N1    0.360000       12.0110           0
     34994 WT14     355      MECN     N3       NG1T1   -0.460000       14.0070           0
     34995 WT14     357      MECN     C1       CG331   -0.170000       12.0110           0
     34996 WT14     357      MECN     H11      HGA3     0.090000        1.0080           0
     34997 WT14     357      MECN     H12      HGA3     0.090000        1.0080           0
     34998 WT14     357      MECN     H13      HGA3     0.090000        1.0080           0
     34999 WT14     357      MECN     C2       CG1N1    0.360000       12.0110           0
     35000 WT14     357      MECN     N3       NG1T1   -0.460000       14.0070           0
     35001 WT14     358      MECN     C1       CG331   -0.170000       12.0110           0
     35002 WT14     358      MECN     H11      HGA3     0.090000        1.0080           0
     35003 WT14     358      MECN     H12      HGA3     0.090000        1.0080           0
     35004 WT14     358      MECN     H13      HGA3     0.090000        1.0080           0
     35005 WT14     358      MECN     C2       CG1N1    0.360000       12.0110           0
     35006 WT14     358      MECN     N3       NG1T1   -0.460000       14.0070           0
     35007 WT14     359      MECN     C1       CG331   -0.170000       12.0110           0
     35008 WT14     359      MECN     H11      HGA3     0.090000        1.0080           0
     35009 WT14     359      MECN     H12      HGA3     0.090000        1.0080           0
     35010 WT14     359      MECN     H13      HGA3     0.090000        1.0080           0
     35011 WT14     359      MECN     C2       CG1N1    0.360000       12.0110           0
     35012 WT14     359      MECN     N3       NG1T1   -0.460000       14.0070           0
     35013 WT14     360      MECN     C1       CG331   -0.170000       12.0110           0
     35014 WT14     360      MECN     H11      HGA3     0.090000        1.0080           0
     35015 WT14     360      MECN     H12      HGA3     0.090000        1.0080           0
     35016 WT14     360      MECN     H13      HGA3     0.090000        1.0080           0
     35017 WT14     360      MECN     C2       CG1N1    0.360000       12.0110           0
     35018 WT14     360      MECN     N3       NG1T1   -0.460000       14.0070           0
     35019 WT14     361      MECN     C1       CG331   -0.170000       12.0110           0
     35020 WT14     361      MECN     H11      HGA3     0.090000        1.0080           0
     35021 WT14     361      MECN     H12      HGA3     0.090000        1.0080           0
     35022 WT14     361      MECN     H13      HGA3     0.090000        1.0080           0
     35023 WT14     361      MECN     C2       CG1N1    0.360000       12.0110           0
     35024 WT14     361      MECN     N3       NG1T1   -0.460000       14.0070           0
     35025 WT14     362      MECN     C1       CG331   -0.170000       12.0110           0
     35026 WT14     362      MECN     H11      HGA3     0.090000        1.0080           0
     35027 WT14     362      MECN     H12      HGA3     0.090000        1.0080           0
     35028 WT14     362      MECN     H13      HGA3     0.090000        1.0080           0
     35029 WT14     362      MECN     C2       CG1N1    0.360000       12.0110           0
     35030 WT14     362      MECN     N3       NG1T1   -0.460000       14.0070           0
     35031 WT14     363      MECN     C1       CG331   -0.170000       12.0110           0
     35032 WT14     363      MECN     H11      HGA3     0.090000        1.0080           0
     35033 WT14     363      MECN     H12      HGA3     0.090000        1.0080           0
     35034 WT14     363      MECN     H13      HGA3     0.090000        1.0080           0
     35035 WT14     363      MECN     C2       CG1N1    0.360000       12.0110           0
     35036 WT14     363      MECN     N3       NG1T1   -0.460000       14.0070           0
     35037 WT14     364      MECN     C1       CG331   -0.170000       12.0110           0
     35038 WT14     364      MECN     H11      HGA3     0.090000        1.0080           0
     35039 WT14     364      MECN     H12      HGA3     0.090000        1.0080           0
     35040 WT14     364      MECN     H13      HGA3     0.090000        1.0080           0
     35041 WT14     364      MECN     C2       CG1N1    0.360000       12.0110           0
     35042 WT14     364      MECN     N3       NG1T1   -0.460000       14.0070           0
     35043 WT14     365      MECN     C1       CG331   -0.170000       12.0110           0
     35044 WT14     365      MECN     H11      HGA3     0.090000        1.0080           0
     35045 WT14     365      MECN     H12      HGA3     0.090000        1.0080           0
     35046 WT14     365      MECN     H13      HGA3     0.090000        1.0080           0
     35047 WT14     365      MECN     C2       CG1N1    0.360000       12.0110           0
     35048 WT14     365      MECN     N3       NG1T1   -0.460000       14.0070           0
     35049 WT14     366      MECN     C1       CG331   -0.170000       12.0110           0
     35050 WT14     366      MECN     H11      HGA3     0.090000        1.0080           0
     35051 WT14     366      MECN     H12      HGA3     0.090000        1.0080           0
     35052 WT14     366      MECN     H13      HGA3     0.090000        1.0080           0
     35053 WT14     366      MECN     C2       CG1N1    0.360000       12.0110           0
     35054 WT14     366      MECN     N3       NG1T1   -0.460000       14.0070           0
     35055 WT14     367      MECN     C1       CG331   -0.170000       12.0110           0
     35056 WT14     367      MECN     H11      HGA3     0.090000        1.0080           0
     35057 WT14     367      MECN     H12      HGA3     0.090000        1.0080           0
     35058 WT14     367      MECN     H13      HGA3     0.090000        1.0080           0
     35059 WT14     367      MECN     C2       CG1N1    0.360000       12.0110           0
     35060 WT14     367      MECN     N3       NG1T1   -0.460000       14.0070           0
     35061 WT14     370      MECN     C1       CG331   -0.170000       12.0110           0
     35062 WT14     370      MECN     H11      HGA3     0.090000        1.0080           0
     35063 WT14     370      MECN     H12      HGA3     0.090000        1.0080           0
     35064 WT14     370      MECN     H13      HGA3     0.090000        1.0080           0
     35065 WT14     370      MECN     C2       CG1N1    0.360000       12.0110           0
     35066 WT14     370      MECN     N3       NG1T1   -0.460000       14.0070           0
     35067 WT14     372      MECN     C1       CG331   -0.170000       12.0110           0
     35068 WT14     372      MECN     H11      HGA3     0.090000        1.0080           0
     35069 WT14     372      MECN     H12      HGA3     0.090000        1.0080           0
     35070 WT14     372      MECN     H13      HGA3     0.090000        1.0080           0
     35071 WT14     372      MECN     C2       CG1N1    0.360000       12.0110           0
     35072 WT14     372      MECN     N3       NG1T1   -0.460000       14.0070           0
     35073 WT14     373      MECN     C1       CG331   -0.170000       12.0110           0
     35074 WT14     373      MECN     H11      HGA3     0.090000        1.0080           0
     35075 WT14     373      MECN     H12      HGA3     0.090000        1.0080           0
     35076 WT14     373      MECN     H13      HGA3     0.090000        1.0080           0
     35077 WT14     373      MECN     C2       CG1N1    0.360000       12.0110           0
     35078 WT14     373      MECN     N3       NG1T1   -0.460000       14.0070           0
     35079 WT14     374      MECN     C1       CG331   -0.170000       12.0110           0
     35080 WT14     374      MECN     H11      HGA3     0.090000        1.0080           0
     35081 WT14     374      MECN     H12      HGA3     0.090000        1.0080           0
     35082 WT14     374      MECN     H13      HGA3     0.090000        1.0080           0
     35083 WT14     374      MECN     C2       CG1N1    0.360000       12.0110           0
     35084 WT14     374      MECN     N3       NG1T1   -0.460000       14.0070           0
     35085 WT14     375      MECN     C1       CG331   -0.170000       12.0110           0
     35086 WT14     375      MECN     H11      HGA3     0.090000        1.0080           0
     35087 WT14     375      MECN     H12      HGA3     0.090000        1.0080           0
     35088 WT14     375      MECN     H13      HGA3     0.090000        1.0080           0
     35089 WT14     375      MECN     C2       CG1N1    0.360000       12.0110           0
     35090 WT14     375      MECN     N3       NG1T1   -0.460000       14.0070           0
     35091 WT14     376      MECN     C1       CG331   -0.170000       12.0110           0
     35092 WT14     376      MECN     H11      HGA3     0.090000        1.0080           0
     35093 WT14     376      MECN     H12      HGA3     0.090000        1.0080           0
     35094 WT14     376      MECN     H13      HGA3     0.090000        1.0080           0
     35095 WT14     376      MECN     C2       CG1N1    0.360000       12.0110           0
     35096 WT14     376      MECN     N3       NG1T1   -0.460000       14.0070           0
     35097 WT14     377      MECN     C1       CG331   -0.170000       12.0110           0
     35098 WT14     377      MECN     H11      HGA3     0.090000        1.0080           0
     35099 WT14     377      MECN     H12      HGA3     0.090000        1.0080           0
     35100 WT14     377      MECN     H13      HGA3     0.090000        1.0080           0
     35101 WT14     377      MECN     C2       CG1N1    0.360000       12.0110           0
     35102 WT14     377      MECN     N3       NG1T1   -0.460000       14.0070           0
     35103 WT14     378      MECN     C1       CG331   -0.170000       12.0110           0
     35104 WT14     378      MECN     H11      HGA3     0.090000        1.0080           0
     35105 WT14     378      MECN     H12      HGA3     0.090000        1.0080           0
     35106 WT14     378      MECN     H13      HGA3     0.090000        1.0080           0
     35107 WT14     378      MECN     C2       CG1N1    0.360000       12.0110           0
     35108 WT14     378      MECN     N3       NG1T1   -0.460000       14.0070           0
     35109 WT14     379      MECN     C1       CG331   -0.170000       12.0110           0
     35110 WT14     379      MECN     H11      HGA3     0.090000        1.0080           0
     35111 WT14     379      MECN     H12      HGA3     0.090000        1.0080           0
     35112 WT14     379      MECN     H13      HGA3     0.090000        1.0080           0
     35113 WT14     379      MECN     C2       CG1N1    0.360000       12.0110           0
     35114 WT14     379      MECN     N3       NG1T1   -0.460000       14.0070           0
     35115 WT14     380      MECN     C1       CG331   -0.170000       12.0110           0
     35116 WT14     380      MECN     H11      HGA3     0.090000        1.0080           0
     35117 WT14     380      MECN     H12      HGA3     0.090000        1.0080           0
     35118 WT14     380      MECN     H13      HGA3     0.090000        1.0080           0
     35119 WT14     380      MECN     C2       CG1N1    0.360000       12.0110           0
     35120 WT14     380      MECN     N3       NG1T1   -0.460000       14.0070           0
     35121 WT14     381      MECN     C1       CG331   -0.170000       12.0110           0
     35122 WT14     381      MECN     H11      HGA3     0.090000        1.0080           0
     35123 WT14     381      MECN     H12      HGA3     0.090000        1.0080           0
     35124 WT14     381      MECN     H13      HGA3     0.090000        1.0080           0
     35125 WT14     381      MECN     C2       CG1N1    0.360000       12.0110           0
     35126 WT14     381      MECN     N3       NG1T1   -0.460000       14.0070           0
     35127 WT14     382      MECN     C1       CG331   -0.170000       12.0110           0
     35128 WT14     382      MECN     H11      HGA3     0.090000        1.0080           0
     35129 WT14     382      MECN     H12      HGA3     0.090000        1.0080           0
     35130 WT14     382      MECN     H13      HGA3     0.090000        1.0080           0
     35131 WT14     382      MECN     C2       CG1N1    0.360000       12.0110           0
     35132 WT14     382      MECN     N3       NG1T1   -0.460000       14.0070           0
     35133 WT14     383      MECN     C1       CG331   -0.170000       12.0110           0
     35134 WT14     383      MECN     H11      HGA3     0.090000        1.0080           0
     35135 WT14     383      MECN     H12      HGA3     0.090000        1.0080           0
     35136 WT14     383      MECN     H13      HGA3     0.090000        1.0080           0
     35137 WT14     383      MECN     C2       CG1N1    0.360000       12.0110           0
     35138 WT14     383      MECN     N3       NG1T1   -0.460000       14.0070           0
     35139 WT14     384      MECN     C1       CG331   -0.170000       12.0110           0
     35140 WT14     384      MECN     H11      HGA3     0.090000        1.0080           0
     35141 WT14     384      MECN     H12      HGA3     0.090000        1.0080           0
     35142 WT14     384      MECN     H13      HGA3     0.090000        1.0080           0
     35143 WT14     384      MECN     C2       CG1N1    0.360000       12.0110           0
     35144 WT14     384      MECN     N3       NG1T1   -0.460000       14.0070           0
     35145 WT14     385      MECN     C1       CG331   -0.170000       12.0110           0
     35146 WT14     385      MECN     H11      HGA3     0.090000        1.0080           0
     35147 WT14     385      MECN     H12      HGA3     0.090000        1.0080           0
     35148 WT14     385      MECN     H13      HGA3     0.090000        1.0080           0
     35149 WT14     385      MECN     C2       CG1N1    0.360000       12.0110           0
     35150 WT14     385      MECN     N3       NG1T1   -0.460000       14.0070           0
     35151 WT14     386      MECN     C1       CG331   -0.170000       12.0110           0
     35152 WT14     386      MECN     H11      HGA3     0.090000        1.0080           0
     35153 WT14     386      MECN     H12      HGA3     0.090000        1.0080           0
     35154 WT14     386      MECN     H13      HGA3     0.090000        1.0080           0
     35155 WT14     386      MECN     C2       CG1N1    0.360000       12.0110           0
     35156 WT14     386      MECN     N3       NG1T1   -0.460000       14.0070           0
     35157 WT14     387      MECN     C1       CG331   -0.170000       12.0110           0
     35158 WT14     387      MECN     H11      HGA3     0.090000        1.0080           0
     35159 WT14     387      MECN     H12      HGA3     0.090000        1.0080           0
     35160 WT14     387      MECN     H13      HGA3     0.090000        1.0080           0
     35161 WT14     387      MECN     C2       CG1N1    0.360000       12.0110           0
     35162 WT14     387      MECN     N3       NG1T1   -0.460000       14.0070           0
     35163 WT14     389      MECN     C1       CG331   -0.170000       12.0110           0
     35164 WT14     389      MECN     H11      HGA3     0.090000        1.0080           0
     35165 WT14     389      MECN     H12      HGA3     0.090000        1.0080           0
     35166 WT14     389      MECN     H13      HGA3     0.090000        1.0080           0
     35167 WT14     389      MECN     C2       CG1N1    0.360000       12.0110           0
     35168 WT14     389      MECN     N3       NG1T1   -0.460000       14.0070           0
     35169 WT14     390      MECN     C1       CG331   -0.170000       12.0110           0
     35170 WT14     390      MECN     H11      HGA3     0.090000        1.0080           0
     35171 WT14     390      MECN     H12      HGA3     0.090000        1.0080           0
     35172 WT14     390      MECN     H13      HGA3     0.090000        1.0080           0
     35173 WT14     390      MECN     C2       CG1N1    0.360000       12.0110           0
     35174 WT14     390      MECN     N3       NG1T1   -0.460000       14.0070           0
     35175 WT14     392      MECN     C1       CG331   -0.170000       12.0110           0
     35176 WT14     392      MECN     H11      HGA3     0.090000        1.0080           0
     35177 WT14     392      MECN     H12      HGA3     0.090000        1.0080           0
     35178 WT14     392      MECN     H13      HGA3     0.090000        1.0080           0
     35179 WT14     392      MECN     C2       CG1N1    0.360000       12.0110           0
     35180 WT14     392      MECN     N3       NG1T1   -0.460000       14.0070           0
     35181 WT14     393      MECN     C1       CG331   -0.170000       12.0110           0
     35182 WT14     393      MECN     H11      HGA3     0.090000        1.0080           0
     35183 WT14     393      MECN     H12      HGA3     0.090000        1.0080           0
     35184 WT14     393      MECN     H13      HGA3     0.090000        1.0080           0
     35185 WT14     393      MECN     C2       CG1N1    0.360000       12.0110           0
     35186 WT14     393      MECN     N3       NG1T1   -0.460000       14.0070           0
     35187 WT14     394      MECN     C1       CG331   -0.170000       12.0110           0
     35188 WT14     394      MECN     H11      HGA3     0.090000        1.0080           0
     35189 WT14     394      MECN     H12      HGA3     0.090000        1.0080           0
     35190 WT14     394      MECN     H13      HGA3     0.090000        1.0080           0
     35191 WT14     394      MECN     C2       CG1N1    0.360000       12.0110           0
     35192 WT14     394      MECN     N3       NG1T1   -0.460000       14.0070           0
     35193 WT14     396      MECN     C1       CG331   -0.170000       12.0110           0
     35194 WT14     396      MECN     H11      HGA3     0.090000        1.0080           0
     35195 WT14     396      MECN     H12      HGA3     0.090000        1.0080           0
     35196 WT14     396      MECN     H13      HGA3     0.090000        1.0080           0
     35197 WT14     396      MECN     C2       CG1N1    0.360000       12.0110           0
     35198 WT14     396      MECN     N3       NG1T1   -0.460000       14.0070           0
     35199 WT14     397      MECN     C1       CG331   -0.170000       12.0110           0
     35200 WT14     397      MECN     H11      HGA3     0.090000        1.0080           0
     35201 WT14     397      MECN     H12      HGA3     0.090000        1.0080           0
     35202 WT14     397      MECN     H13      HGA3     0.090000        1.0080           0
     35203 WT14     397      MECN     C2       CG1N1    0.360000       12.0110           0
     35204 WT14     397      MECN     N3       NG1T1   -0.460000       14.0070           0
     35205 WT14     398      MECN     C1       CG331   -0.170000       12.0110           0
     35206 WT14     398      MECN     H11      HGA3     0.090000        1.0080           0
     35207 WT14     398      MECN     H12      HGA3     0.090000        1.0080           0
     35208 WT14     398      MECN     H13      HGA3     0.090000        1.0080           0
     35209 WT14     398      MECN     C2       CG1N1    0.360000       12.0110           0
     35210 WT14     398      MECN     N3       NG1T1   -0.460000       14.0070           0
     35211 WT14     399      MECN     C1       CG331   -0.170000       12.0110           0
     35212 WT14     399      MECN     H11      HGA3     0.090000        1.0080           0
     35213 WT14     399      MECN     H12      HGA3     0.090000        1.0080           0
     35214 WT14     399      MECN     H13      HGA3     0.090000        1.0080           0
     35215 WT14     399      MECN     C2       CG1N1    0.360000       12.0110           0
     35216 WT14     399      MECN     N3       NG1T1   -0.460000       14.0070           0
     35217 WT14     400      MECN     C1       CG331   -0.170000       12.0110           0
     35218 WT14     400      MECN     H11      HGA3     0.090000        1.0080           0
     35219 WT14     400      MECN     H12      HGA3     0.090000        1.0080           0
     35220 WT14     400      MECN     H13      HGA3     0.090000        1.0080           0
     35221 WT14     400      MECN     C2       CG1N1    0.360000       12.0110           0
     35222 WT14     400      MECN     N3       NG1T1   -0.460000       14.0070           0
     35223 WT14     402      MECN     C1       CG331   -0.170000       12.0110           0
     35224 WT14     402      MECN     H11      HGA3     0.090000        1.0080           0
     35225 WT14     402      MECN     H12      HGA3     0.090000        1.0080           0
     35226 WT14     402      MECN     H13      HGA3     0.090000        1.0080           0
     35227 WT14     402      MECN     C2       CG1N1    0.360000       12.0110           0
     35228 WT14     402      MECN     N3       NG1T1   -0.460000       14.0070           0
     35229 WT14     403      MECN     C1       CG331   -0.170000       12.0110           0
     35230 WT14     403      MECN     H11      HGA3     0.090000        1.0080           0
     35231 WT14     403      MECN     H12      HGA3     0.090000        1.0080           0
     35232 WT14     403      MECN     H13      HGA3     0.090000        1.0080           0
     35233 WT14     403      MECN     C2       CG1N1    0.360000       12.0110           0
     35234 WT14     403      MECN     N3       NG1T1   -0.460000       14.0070           0
     35235 WT14     404      MECN     C1       CG331   -0.170000       12.0110           0
     35236 WT14     404      MECN     H11      HGA3     0.090000        1.0080           0
     35237 WT14     404      MECN     H12      HGA3     0.090000        1.0080           0
     35238 WT14     404      MECN     H13      HGA3     0.090000        1.0080           0
     35239 WT14     404      MECN     C2       CG1N1    0.360000       12.0110           0
     35240 WT14     404      MECN     N3       NG1T1   -0.460000       14.0070           0
     35241 WT14     405      MECN     C1       CG331   -0.170000       12.0110           0
     35242 WT14     405      MECN     H11      HGA3     0.090000        1.0080           0
     35243 WT14     405      MECN     H12      HGA3     0.090000        1.0080           0
     35244 WT14     405      MECN     H13      HGA3     0.090000        1.0080           0
     35245 WT14     405      MECN     C2       CG1N1    0.360000       12.0110           0
     35246 WT14     405      MECN     N3       NG1T1   -0.460000       14.0070           0
     35247 WT14     407      MECN     C1       CG331   -0.170000       12.0110           0
     35248 WT14     407      MECN     H11      HGA3     0.090000        1.0080           0
     35249 WT14     407      MECN     H12      HGA3     0.090000        1.0080           0
     35250 WT14     407      MECN     H13      HGA3     0.090000        1.0080           0
     35251 WT14     407      MECN     C2       CG1N1    0.360000       12.0110           0
     35252 WT14     407      MECN     N3       NG1T1   -0.460000       14.0070           0
     35253 WT14     408      MECN     C1       CG331   -0.170000       12.0110           0
     35254 WT14     408      MECN     H11      HGA3     0.090000        1.0080           0
     35255 WT14     408      MECN     H12      HGA3     0.090000        1.0080           0
     35256 WT14     408      MECN     H13      HGA3     0.090000        1.0080           0
     35257 WT14     408      MECN     C2       CG1N1    0.360000       12.0110           0
     35258 WT14     408      MECN     N3       NG1T1   -0.460000       14.0070           0
     35259 WT14     409      MECN     C1       CG331   -0.170000       12.0110           0
     35260 WT14     409      MECN     H11      HGA3     0.090000        1.0080           0
     35261 WT14     409      MECN     H12      HGA3     0.090000        1.0080           0
     35262 WT14     409      MECN     H13      HGA3     0.090000        1.0080           0
     35263 WT14     409      MECN     C2       CG1N1    0.360000       12.0110           0
     35264 WT14     409      MECN     N3       NG1T1   -0.460000       14.0070           0
     35265 WT14     410      MECN     C1       CG331   -0.170000       12.0110           0
     35266 WT14     410      MECN     H11      HGA3     0.090000        1.0080           0
     35267 WT14     410      MECN     H12      HGA3     0.090000        1.0080           0
     35268 WT14     410      MECN     H13      HGA3     0.090000        1.0080           0
     35269 WT14     410      MECN     C2       CG1N1    0.360000       12.0110           0
     35270 WT14     410      MECN     N3       NG1T1   -0.460000       14.0070           0
     35271 WT14     411      MECN     C1       CG331   -0.170000       12.0110           0
     35272 WT14     411      MECN     H11      HGA3     0.090000        1.0080           0
     35273 WT14     411      MECN     H12      HGA3     0.090000        1.0080           0
     35274 WT14     411      MECN     H13      HGA3     0.090000        1.0080           0
     35275 WT14     411      MECN     C2       CG1N1    0.360000       12.0110           0
     35276 WT14     411      MECN     N3       NG1T1   -0.460000       14.0070           0
     35277 WT14     412      MECN     C1       CG331   -0.170000       12.0110           0
     35278 WT14     412      MECN     H11      HGA3     0.090000        1.0080           0
     35279 WT14     412      MECN     H12      HGA3     0.090000        1.0080           0
     35280 WT14     412      MECN     H13      HGA3     0.090000        1.0080           0
     35281 WT14     412      MECN     C2       CG1N1    0.360000       12.0110           0
     35282 WT14     412      MECN     N3       NG1T1   -0.460000       14.0070           0
     35283 WT14     413      MECN     C1       CG331   -0.170000       12.0110           0
     35284 WT14     413      MECN     H11      HGA3     0.090000        1.0080           0
     35285 WT14     413      MECN     H12      HGA3     0.090000        1.0080           0
     35286 WT14     413      MECN     H13      HGA3     0.090000        1.0080           0
     35287 WT14     413      MECN     C2       CG1N1    0.360000       12.0110           0
     35288 WT14     413      MECN     N3       NG1T1   -0.460000       14.0070           0
     35289 WT14     417      MECN     C1       CG331   -0.170000       12.0110           0
     35290 WT14     417      MECN     H11      HGA3     0.090000        1.0080           0
     35291 WT14     417      MECN     H12      HGA3     0.090000        1.0080           0
     35292 WT14     417      MECN     H13      HGA3     0.090000        1.0080           0
     35293 WT14     417      MECN     C2       CG1N1    0.360000       12.0110           0
     35294 WT14     417      MECN     N3       NG1T1   -0.460000       14.0070           0
     35295 WT14     418      MECN     C1       CG331   -0.170000       12.0110           0
     35296 WT14     418      MECN     H11      HGA3     0.090000        1.0080           0
     35297 WT14     418      MECN     H12      HGA3     0.090000        1.0080           0
     35298 WT14     418      MECN     H13      HGA3     0.090000        1.0080           0
     35299 WT14     418      MECN     C2       CG1N1    0.360000       12.0110           0
     35300 WT14     418      MECN     N3       NG1T1   -0.460000       14.0070           0
     35301 WT14     419      MECN     C1       CG331   -0.170000       12.0110           0
     35302 WT14     419      MECN     H11      HGA3     0.090000        1.0080           0
     35303 WT14     419      MECN     H12      HGA3     0.090000        1.0080           0
     35304 WT14     419      MECN     H13      HGA3     0.090000        1.0080           0
     35305 WT14     419      MECN     C2       CG1N1    0.360000       12.0110           0
     35306 WT14     419      MECN     N3       NG1T1   -0.460000       14.0070           0
     35307 WT14     420      MECN     C1       CG331   -0.170000       12.0110           0
     35308 WT14     420      MECN     H11      HGA3     0.090000        1.0080           0
     35309 WT14     420      MECN     H12      HGA3     0.090000        1.0080           0
     35310 WT14     420      MECN     H13      HGA3     0.090000        1.0080           0
     35311 WT14     420      MECN     C2       CG1N1    0.360000       12.0110           0
     35312 WT14     420      MECN     N3       NG1T1   -0.460000       14.0070           0
     35313 WT14     421      MECN     C1       CG331   -0.170000       12.0110           0
     35314 WT14     421      MECN     H11      HGA3     0.090000        1.0080           0
     35315 WT14     421      MECN     H12      HGA3     0.090000        1.0080           0
     35316 WT14     421      MECN     H13      HGA3     0.090000        1.0080           0
     35317 WT14     421      MECN     C2       CG1N1    0.360000       12.0110           0
     35318 WT14     421      MECN     N3       NG1T1   -0.460000       14.0070           0
     35319 WT14     422      MECN     C1       CG331   -0.170000       12.0110           0
     35320 WT14     422      MECN     H11      HGA3     0.090000        1.0080           0
     35321 WT14     422      MECN     H12      HGA3     0.090000        1.0080           0
     35322 WT14     422      MECN     H13      HGA3     0.090000        1.0080           0
     35323 WT14     422      MECN     C2       CG1N1    0.360000       12.0110           0
     35324 WT14     422      MECN     N3       NG1T1   -0.460000       14.0070           0
     35325 WT14     423      MECN     C1       CG331   -0.170000       12.0110           0
     35326 WT14     423      MECN     H11      HGA3     0.090000        1.0080           0
     35327 WT14     423      MECN     H12      HGA3     0.090000        1.0080           0
     35328 WT14     423      MECN     H13      HGA3     0.090000        1.0080           0
     35329 WT14     423      MECN     C2       CG1N1    0.360000       12.0110           0
     35330 WT14     423      MECN     N3       NG1T1   -0.460000       14.0070           0
     35331 WT14     424      MECN     C1       CG331   -0.170000       12.0110           0
     35332 WT14     424      MECN     H11      HGA3     0.090000        1.0080           0
     35333 WT14     424      MECN     H12      HGA3     0.090000        1.0080           0
     35334 WT14     424      MECN     H13      HGA3     0.090000        1.0080           0
     35335 WT14     424      MECN     C2       CG1N1    0.360000       12.0110           0
     35336 WT14     424      MECN     N3       NG1T1   -0.460000       14.0070           0
     35337 WT14     425      MECN     C1       CG331   -0.170000       12.0110           0
     35338 WT14     425      MECN     H11      HGA3     0.090000        1.0080           0
     35339 WT14     425      MECN     H12      HGA3     0.090000        1.0080           0
     35340 WT14     425      MECN     H13      HGA3     0.090000        1.0080           0
     35341 WT14     425      MECN     C2       CG1N1    0.360000       12.0110           0
     35342 WT14     425      MECN     N3       NG1T1   -0.460000       14.0070           0
     35343 WT14     426      MECN     C1       CG331   -0.170000       12.0110           0
     35344 WT14     426      MECN     H11      HGA3     0.090000        1.0080           0
     35345 WT14     426      MECN     H12      HGA3     0.090000        1.0080           0
     35346 WT14     426      MECN     H13      HGA3     0.090000        1.0080           0
     35347 WT14     426      MECN     C2       CG1N1    0.360000       12.0110           0
     35348 WT14     426      MECN     N3       NG1T1   -0.460000       14.0070           0
     35349 WT14     427      MECN     C1       CG331   -0.170000       12.0110           0
     35350 WT14     427      MECN     H11      HGA3     0.090000        1.0080           0
     35351 WT14     427      MECN     H12      HGA3     0.090000        1.0080           0
     35352 WT14     427      MECN     H13      HGA3     0.090000        1.0080           0
     35353 WT14     427      MECN     C2       CG1N1    0.360000       12.0110           0
     35354 WT14     427      MECN     N3       NG1T1   -0.460000       14.0070           0
     35355 WT14     428      MECN     C1       CG331   -0.170000       12.0110           0
     35356 WT14     428      MECN     H11      HGA3     0.090000        1.0080           0
     35357 WT14     428      MECN     H12      HGA3     0.090000        1.0080           0
     35358 WT14     428      MECN     H13      HGA3     0.090000        1.0080           0
     35359 WT14     428      MECN     C2       CG1N1    0.360000       12.0110           0
     35360 WT14     428      MECN     N3       NG1T1   -0.460000       14.0070           0
     35361 WT14     429      MECN     C1       CG331   -0.170000       12.0110           0
     35362 WT14     429      MECN     H11      HGA3     0.090000        1.0080           0
     35363 WT14     429      MECN     H12      HGA3     0.090000        1.0080           0
     35364 WT14     429      MECN     H13      HGA3     0.090000        1.0080           0
     35365 WT14     429      MECN     C2       CG1N1    0.360000       12.0110           0
     35366 WT14     429      MECN     N3       NG1T1   -0.460000       14.0070           0
     35367 WT14     431      MECN     C1       CG331   -0.170000       12.0110           0
     35368 WT14     431      MECN     H11      HGA3     0.090000        1.0080           0
     35369 WT14     431      MECN     H12      HGA3     0.090000        1.0080           0
     35370 WT14     431      MECN     H13      HGA3     0.090000        1.0080           0
     35371 WT14     431      MECN     C2       CG1N1    0.360000       12.0110           0
     35372 WT14     431      MECN     N3       NG1T1   -0.460000       14.0070           0
     35373 WT14     432      MECN     C1       CG331   -0.170000       12.0110           0
     35374 WT14     432      MECN     H11      HGA3     0.090000        1.0080           0
     35375 WT14     432      MECN     H12      HGA3     0.090000        1.0080           0
     35376 WT14     432      MECN     H13      HGA3     0.090000        1.0080           0
     35377 WT14     432      MECN     C2       CG1N1    0.360000       12.0110           0
     35378 WT14     432      MECN     N3       NG1T1   -0.460000       14.0070           0
     35379 WT14     433      MECN     C1       CG331   -0.170000       12.0110           0
     35380 WT14     433      MECN     H11      HGA3     0.090000        1.0080           0
     35381 WT14     433      MECN     H12      HGA3     0.090000        1.0080           0
     35382 WT14     433      MECN     H13      HGA3     0.090000        1.0080           0
     35383 WT14     433      MECN     C2       CG1N1    0.360000       12.0110           0
     35384 WT14     433      MECN     N3       NG1T1   -0.460000       14.0070           0
     35385 WT14     434      MECN     C1       CG331   -0.170000       12.0110           0
     35386 WT14     434      MECN     H11      HGA3     0.090000        1.0080           0
     35387 WT14     434      MECN     H12      HGA3     0.090000        1.0080           0
     35388 WT14     434      MECN     H13      HGA3     0.090000        1.0080           0
     35389 WT14     434      MECN     C2       CG1N1    0.360000       12.0110           0
     35390 WT14     434      MECN     N3       NG1T1   -0.460000       14.0070           0
     35391 WT14     435      MECN     C1       CG331   -0.170000       12.0110           0
     35392 WT14     435      MECN     H11      HGA3     0.090000        1.0080           0
     35393 WT14     435      MECN     H12      HGA3     0.090000        1.0080           0
     35394 WT14     435      MECN     H13      HGA3     0.090000        1.0080           0
     35395 WT14     435      MECN     C2       CG1N1    0.360000       12.0110           0
     35396 WT14     435      MECN     N3       NG1T1   -0.460000       14.0070           0
     35397 WT14     437      MECN     C1       CG331   -0.170000       12.0110           0
     35398 WT14     437      MECN     H11      HGA3     0.090000        1.0080           0
     35399 WT14     437      MECN     H12      HGA3     0.090000        1.0080           0
     35400 WT14     437      MECN     H13      HGA3     0.090000        1.0080           0
     35401 WT14     437      MECN     C2       CG1N1    0.360000       12.0110           0
     35402 WT14     437      MECN     N3       NG1T1   -0.460000       14.0070           0
     35403 WT14     438      MECN     C1       CG331   -0.170000       12.0110           0
     35404 WT14     438      MECN     H11      HGA3     0.090000        1.0080           0
     35405 WT14     438      MECN     H12      HGA3     0.090000        1.0080           0
     35406 WT14     438      MECN     H13      HGA3     0.090000        1.0080           0
     35407 WT14     438      MECN     C2       CG1N1    0.360000       12.0110           0
     35408 WT14     438      MECN     N3       NG1T1   -0.460000       14.0070           0
     35409 WT14     441      MECN     C1       CG331   -0.170000       12.0110           0
     35410 WT14     441      MECN     H11      HGA3     0.090000        1.0080           0
     35411 WT14     441      MECN     H12      HGA3     0.090000        1.0080           0
     35412 WT14     441      MECN     H13      HGA3     0.090000        1.0080           0
     35413 WT14     441      MECN     C2       CG1N1    0.360000       12.0110           0
     35414 WT14     441      MECN     N3       NG1T1   -0.460000       14.0070           0
     35415 WT14     442      MECN     C1       CG331   -0.170000       12.0110           0
     35416 WT14     442      MECN     H11      HGA3     0.090000        1.0080           0
     35417 WT14     442      MECN     H12      HGA3     0.090000        1.0080           0
     35418 WT14     442      MECN     H13      HGA3     0.090000        1.0080           0
     35419 WT14     442      MECN     C2       CG1N1    0.360000       12.0110           0
     35420 WT14     442      MECN     N3       NG1T1   -0.460000       14.0070           0
     35421 WT14     443      MECN     C1       CG331   -0.170000       12.0110           0
     35422 WT14     443      MECN     H11      HGA3     0.090000        1.0080           0
     35423 WT14     443      MECN     H12      HGA3     0.090000        1.0080           0
     35424 WT14     443      MECN     H13      HGA3     0.090000        1.0080           0
     35425 WT14     443      MECN     C2       CG1N1    0.360000       12.0110           0
     35426 WT14     443      MECN     N3       NG1T1   -0.460000       14.0070           0
     35427 WT14     444      MECN     C1       CG331   -0.170000       12.0110           0
     35428 WT14     444      MECN     H11      HGA3     0.090000        1.0080           0
     35429 WT14     444      MECN     H12      HGA3     0.090000        1.0080           0
     35430 WT14     444      MECN     H13      HGA3     0.090000        1.0080           0
     35431 WT14     444      MECN     C2       CG1N1    0.360000       12.0110           0
     35432 WT14     444      MECN     N3       NG1T1   -0.460000       14.0070           0
     35433 WT14     445      MECN     C1       CG331   -0.170000       12.0110           0
     35434 WT14     445      MECN     H11      HGA3     0.090000        1.0080           0
     35435 WT14     445      MECN     H12      HGA3     0.090000        1.0080           0
     35436 WT14     445      MECN     H13      HGA3     0.090000        1.0080           0
     35437 WT14     445      MECN     C2       CG1N1    0.360000       12.0110           0
     35438 WT14     445      MECN     N3       NG1T1   -0.460000       14.0070           0
     35439 WT14     446      MECN     C1       CG331   -0.170000       12.0110           0
     35440 WT14     446      MECN     H11      HGA3     0.090000        1.0080           0
     35441 WT14     446      MECN     H12      HGA3     0.090000        1.0080           0
     35442 WT14     446      MECN     H13      HGA3     0.090000        1.0080           0
     35443 WT14     446      MECN     C2       CG1N1    0.360000       12.0110           0
     35444 WT14     446      MECN     N3       NG1T1   -0.460000       14.0070           0
     35445 WT14     447      MECN     C1       CG331   -0.170000       12.0110           0
     35446 WT14     447      MECN     H11      HGA3     0.090000        1.0080           0
     35447 WT14     447      MECN     H12      HGA3     0.090000        1.0080           0
     35448 WT14     447      MECN     H13      HGA3     0.090000        1.0080           0
     35449 WT14     447      MECN     C2       CG1N1    0.360000       12.0110           0
     35450 WT14     447      MECN     N3       NG1T1   -0.460000       14.0070           0
     35451 WT14     448      MECN     C1       CG331   -0.170000       12.0110           0
     35452 WT14     448      MECN     H11      HGA3     0.090000        1.0080           0
     35453 WT14     448      MECN     H12      HGA3     0.090000        1.0080           0
     35454 WT14     448      MECN     H13      HGA3     0.090000        1.0080           0
     35455 WT14     448      MECN     C2       CG1N1    0.360000       12.0110           0
     35456 WT14     448      MECN     N3       NG1T1   -0.460000       14.0070           0
     35457 WT14     450      MECN     C1       CG331   -0.170000       12.0110           0
     35458 WT14     450      MECN     H11      HGA3     0.090000        1.0080           0
     35459 WT14     450      MECN     H12      HGA3     0.090000        1.0080           0
     35460 WT14     450      MECN     H13      HGA3     0.090000        1.0080           0
     35461 WT14     450      MECN     C2       CG1N1    0.360000       12.0110           0
     35462 WT14     450      MECN     N3       NG1T1   -0.460000       14.0070           0
     35463 WT14     452      MECN     C1       CG331   -0.170000       12.0110           0
     35464 WT14     452      MECN     H11      HGA3     0.090000        1.0080           0
     35465 WT14     452      MECN     H12      HGA3     0.090000        1.0080           0
     35466 WT14     452      MECN     H13      HGA3     0.090000        1.0080           0
     35467 WT14     452      MECN     C2       CG1N1    0.360000       12.0110           0
     35468 WT14     452      MECN     N3       NG1T1   -0.460000       14.0070           0
     35469 WT14     453      MECN     C1       CG331   -0.170000       12.0110           0
     35470 WT14     453      MECN     H11      HGA3     0.090000        1.0080           0
     35471 WT14     453      MECN     H12      HGA3     0.090000        1.0080           0
     35472 WT14     453      MECN     H13      HGA3     0.090000        1.0080           0
     35473 WT14     453      MECN     C2       CG1N1    0.360000       12.0110           0
     35474 WT14     453      MECN     N3       NG1T1   -0.460000       14.0070           0
     35475 WT14     455      MECN     C1       CG331   -0.170000       12.0110           0
     35476 WT14     455      MECN     H11      HGA3     0.090000        1.0080           0
     35477 WT14     455      MECN     H12      HGA3     0.090000        1.0080           0
     35478 WT14     455      MECN     H13      HGA3     0.090000        1.0080           0
     35479 WT14     455      MECN     C2       CG1N1    0.360000       12.0110           0
     35480 WT14     455      MECN     N3       NG1T1   -0.460000       14.0070           0
     35481 WT14     457      MECN     C1       CG331   -0.170000       12.0110           0
     35482 WT14     457      MECN     H11      HGA3     0.090000        1.0080           0
     35483 WT14     457      MECN     H12      HGA3     0.090000        1.0080           0
     35484 WT14     457      MECN     H13      HGA3     0.090000        1.0080           0
     35485 WT14     457      MECN     C2       CG1N1    0.360000       12.0110           0
     35486 WT14     457      MECN     N3       NG1T1   -0.460000       14.0070           0
     35487 WT14     459      MECN     C1       CG331   -0.170000       12.0110           0
     35488 WT14     459      MECN     H11      HGA3     0.090000        1.0080           0
     35489 WT14     459      MECN     H12      HGA3     0.090000        1.0080           0
     35490 WT14     459      MECN     H13      HGA3     0.090000        1.0080           0
     35491 WT14     459      MECN     C2       CG1N1    0.360000       12.0110           0
     35492 WT14     459      MECN     N3       NG1T1   -0.460000       14.0070           0
     35493 WT14     460      MECN     C1       CG331   -0.170000       12.0110           0
     35494 WT14     460      MECN     H11      HGA3     0.090000        1.0080           0
     35495 WT14     460      MECN     H12      HGA3     0.090000        1.0080           0
     35496 WT14     460      MECN     H13      HGA3     0.090000        1.0080           0
     35497 WT14     460      MECN     C2       CG1N1    0.360000       12.0110           0
     35498 WT14     460      MECN     N3       NG1T1   -0.460000       14.0070           0
     35499 WT14     461      MECN     C1       CG331   -0.170000       12.0110           0
     35500 WT14     461      MECN     H11      HGA3     0.090000        1.0080           0
     35501 WT14     461      MECN     H12      HGA3     0.090000        1.0080           0
     35502 WT14     461      MECN     H13      HGA3     0.090000        1.0080           0
     35503 WT14     461      MECN     C2       CG1N1    0.360000       12.0110           0
     35504 WT14     461      MECN     N3       NG1T1   -0.460000       14.0070           0
     35505 WT14     462      MECN     C1       CG331   -0.170000       12.0110           0
     35506 WT14     462      MECN     H11      HGA3     0.090000        1.0080           0
     35507 WT14     462      MECN     H12      HGA3     0.090000        1.0080           0
     35508 WT14     462      MECN     H13      HGA3     0.090000        1.0080           0
     35509 WT14     462      MECN     C2       CG1N1    0.360000       12.0110           0
     35510 WT14     462      MECN     N3       NG1T1   -0.460000       14.0070           0
     35511 WT14     463      MECN     C1       CG331   -0.170000       12.0110           0
     35512 WT14     463      MECN     H11      HGA3     0.090000        1.0080           0
     35513 WT14     463      MECN     H12      HGA3     0.090000        1.0080           0
     35514 WT14     463      MECN     H13      HGA3     0.090000        1.0080           0
     35515 WT14     463      MECN     C2       CG1N1    0.360000       12.0110           0
     35516 WT14     463      MECN     N3       NG1T1   -0.460000       14.0070           0
     35517 WT14     465      MECN     C1       CG331   -0.170000       12.0110           0
     35518 WT14     465      MECN     H11      HGA3     0.090000        1.0080           0
     35519 WT14     465      MECN     H12      HGA3     0.090000        1.0080           0
     35520 WT14     465      MECN     H13      HGA3     0.090000        1.0080           0
     35521 WT14     465      MECN     C2       CG1N1    0.360000       12.0110           0
     35522 WT14     465      MECN     N3       NG1T1   -0.460000       14.0070           0
     35523 WT14     466      MECN     C1       CG331   -0.170000       12.0110           0
     35524 WT14     466      MECN     H11      HGA3     0.090000        1.0080           0
     35525 WT14     466      MECN     H12      HGA3     0.090000        1.0080           0
     35526 WT14     466      MECN     H13      HGA3     0.090000        1.0080           0
     35527 WT14     466      MECN     C2       CG1N1    0.360000       12.0110           0
     35528 WT14     466      MECN     N3       NG1T1   -0.460000       14.0070           0
     35529 WT14     467      MECN     C1       CG331   -0.170000       12.0110           0
     35530 WT14     467      MECN     H11      HGA3     0.090000        1.0080           0
     35531 WT14     467      MECN     H12      HGA3     0.090000        1.0080           0
     35532 WT14     467      MECN     H13      HGA3     0.090000        1.0080           0
     35533 WT14     467      MECN     C2       CG1N1    0.360000       12.0110           0
     35534 WT14     467      MECN     N3       NG1T1   -0.460000       14.0070           0
     35535 WT14     468      MECN     C1       CG331   -0.170000       12.0110           0
     35536 WT14     468      MECN     H11      HGA3     0.090000        1.0080           0
     35537 WT14     468      MECN     H12      HGA3     0.090000        1.0080           0
     35538 WT14     468      MECN     H13      HGA3     0.090000        1.0080           0
     35539 WT14     468      MECN     C2       CG1N1    0.360000       12.0110           0
     35540 WT14     468      MECN     N3       NG1T1   -0.460000       14.0070           0
     35541 WT14     469      MECN     C1       CG331   -0.170000       12.0110           0
     35542 WT14     469      MECN     H11      HGA3     0.090000        1.0080           0
     35543 WT14     469      MECN     H12      HGA3     0.090000        1.0080           0
     35544 WT14     469      MECN     H13      HGA3     0.090000        1.0080           0
     35545 WT14     469      MECN     C2       CG1N1    0.360000       12.0110           0
     35546 WT14     469      MECN     N3       NG1T1   -0.460000       14.0070           0
     35547 WT14     470      MECN     C1       CG331   -0.170000       12.0110           0
     35548 WT14     470      MECN     H11      HGA3     0.090000        1.0080           0
     35549 WT14     470      MECN     H12      HGA3     0.090000        1.0080           0
     35550 WT14     470      MECN     H13      HGA3     0.090000        1.0080           0
     35551 WT14     470      MECN     C2       CG1N1    0.360000       12.0110           0
     35552 WT14     470      MECN     N3       NG1T1   -0.460000       14.0070           0
     35553 WT14     471      MECN     C1       CG331   -0.170000       12.0110           0
     35554 WT14     471      MECN     H11      HGA3     0.090000        1.0080           0
     35555 WT14     471      MECN     H12      HGA3     0.090000        1.0080           0
     35556 WT14     471      MECN     H13      HGA3     0.090000        1.0080           0
     35557 WT14     471      MECN     C2       CG1N1    0.360000       12.0110           0
     35558 WT14     471      MECN     N3       NG1T1   -0.460000       14.0070           0
     35559 WT14     473      MECN     C1       CG331   -0.170000       12.0110           0
     35560 WT14     473      MECN     H11      HGA3     0.090000        1.0080           0
     35561 WT14     473      MECN     H12      HGA3     0.090000        1.0080           0
     35562 WT14     473      MECN     H13      HGA3     0.090000        1.0080           0
     35563 WT14     473      MECN     C2       CG1N1    0.360000       12.0110           0
     35564 WT14     473      MECN     N3       NG1T1   -0.460000       14.0070           0
     35565 WT14     474      MECN     C1       CG331   -0.170000       12.0110           0
     35566 WT14     474      MECN     H11      HGA3     0.090000        1.0080           0
     35567 WT14     474      MECN     H12      HGA3     0.090000        1.0080           0
     35568 WT14     474      MECN     H13      HGA3     0.090000        1.0080           0
     35569 WT14     474      MECN     C2       CG1N1    0.360000       12.0110           0
     35570 WT14     474      MECN     N3       NG1T1   -0.460000       14.0070           0
     35571 WT14     475      MECN     C1       CG331   -0.170000       12.0110           0
     35572 WT14     475      MECN     H11      HGA3     0.090000        1.0080           0
     35573 WT14     475      MECN     H12      HGA3     0.090000        1.0080           0
     35574 WT14     475      MECN     H13      HGA3     0.090000        1.0080           0
     35575 WT14     475      MECN     C2       CG1N1    0.360000       12.0110           0
     35576 WT14     475      MECN     N3       NG1T1   -0.460000       14.0070           0
     35577 WT14     476      MECN     C1       CG331   -0.170000       12.0110           0
     35578 WT14     476      MECN     H11      HGA3     0.090000        1.0080           0
     35579 WT14     476      MECN     H12      HGA3     0.090000        1.0080           0
     35580 WT14     476      MECN     H13      HGA3     0.090000        1.0080           0
     35581 WT14     476      MECN     C2       CG1N1    0.360000       12.0110           0
     35582 WT14     476      MECN     N3       NG1T1   -0.460000       14.0070           0
     35583 WT14     478      MECN     C1       CG331   -0.170000       12.0110           0
     35584 WT14     478      MECN     H11      HGA3     0.090000        1.0080           0
     35585 WT14     478      MECN     H12      HGA3     0.090000        1.0080           0
     35586 WT14     478      MECN     H13      HGA3     0.090000        1.0080           0
     35587 WT14     478      MECN     C2       CG1N1    0.360000       12.0110           0
     35588 WT14     478      MECN     N3       NG1T1   -0.460000       14.0070           0
     35589 WT14     479      MECN     C1       CG331   -0.170000       12.0110           0
     35590 WT14     479      MECN     H11      HGA3     0.090000        1.0080           0
     35591 WT14     479      MECN     H12      HGA3     0.090000        1.0080           0
     35592 WT14     479      MECN     H13      HGA3     0.090000        1.0080           0
     35593 WT14     479      MECN     C2       CG1N1    0.360000       12.0110           0
     35594 WT14     479      MECN     N3       NG1T1   -0.460000       14.0070           0
     35595 WT14     481      MECN     C1       CG331   -0.170000       12.0110           0
     35596 WT14     481      MECN     H11      HGA3     0.090000        1.0080           0
     35597 WT14     481      MECN     H12      HGA3     0.090000        1.0080           0
     35598 WT14     481      MECN     H13      HGA3     0.090000        1.0080           0
     35599 WT14     481      MECN     C2       CG1N1    0.360000       12.0110           0
     35600 WT14     481      MECN     N3       NG1T1   -0.460000       14.0070           0
     35601 WT14     482      MECN     C1       CG331   -0.170000       12.0110           0
     35602 WT14     482      MECN     H11      HGA3     0.090000        1.0080           0
     35603 WT14     482      MECN     H12      HGA3     0.090000        1.0080           0
     35604 WT14     482      MECN     H13      HGA3     0.090000        1.0080           0
     35605 WT14     482      MECN     C2       CG1N1    0.360000       12.0110           0
     35606 WT14     482      MECN     N3       NG1T1   -0.460000       14.0070           0
     35607 WT14     483      MECN     C1       CG331   -0.170000       12.0110           0
     35608 WT14     483      MECN     H11      HGA3     0.090000        1.0080           0
     35609 WT14     483      MECN     H12      HGA3     0.090000        1.0080           0
     35610 WT14     483      MECN     H13      HGA3     0.090000        1.0080           0
     35611 WT14     483      MECN     C2       CG1N1    0.360000       12.0110           0
     35612 WT14     483      MECN     N3       NG1T1   -0.460000       14.0070           0
     35613 WT14     485      MECN     C1       CG331   -0.170000       12.0110           0
     35614 WT14     485      MECN     H11      HGA3     0.090000        1.0080           0
     35615 WT14     485      MECN     H12      HGA3     0.090000        1.0080           0
     35616 WT14     485      MECN     H13      HGA3     0.090000        1.0080           0
     35617 WT14     485      MECN     C2       CG1N1    0.360000       12.0110           0
     35618 WT14     485      MECN     N3       NG1T1   -0.460000       14.0070           0
     35619 WT14     486      MECN     C1       CG331   -0.170000       12.0110           0
     35620 WT14     486      MECN     H11      HGA3     0.090000        1.0080           0
     35621 WT14     486      MECN     H12      HGA3     0.090000        1.0080           0
     35622 WT14     486      MECN     H13      HGA3     0.090000        1.0080           0
     35623 WT14     486      MECN     C2       CG1N1    0.360000       12.0110           0
     35624 WT14     486      MECN     N3       NG1T1   -0.460000       14.0070           0
     35625 WT14     487      MECN     C1       CG331   -0.170000       12.0110           0
     35626 WT14     487      MECN     H11      HGA3     0.090000        1.0080           0
     35627 WT14     487      MECN     H12      HGA3     0.090000        1.0080           0
     35628 WT14     487      MECN     H13      HGA3     0.090000        1.0080           0
     35629 WT14     487      MECN     C2       CG1N1    0.360000       12.0110           0
     35630 WT14     487      MECN     N3       NG1T1   -0.460000       14.0070           0
     35631 WT14     489      MECN     C1       CG331   -0.170000       12.0110           0
     35632 WT14     489      MECN     H11      HGA3     0.090000        1.0080           0
     35633 WT14     489      MECN     H12      HGA3     0.090000        1.0080           0
     35634 WT14     489      MECN     H13      HGA3     0.090000        1.0080           0
     35635 WT14     489      MECN     C2       CG1N1    0.360000       12.0110           0
     35636 WT14     489      MECN     N3       NG1T1   -0.460000       14.0070           0
     35637 WT14     490      MECN     C1       CG331   -0.170000       12.0110           0
     35638 WT14     490      MECN     H11      HGA3     0.090000        1.0080           0
     35639 WT14     490      MECN     H12      HGA3     0.090000        1.0080           0
     35640 WT14     490      MECN     H13      HGA3     0.090000        1.0080           0
     35641 WT14     490      MECN     C2       CG1N1    0.360000       12.0110           0
     35642 WT14     490      MECN     N3       NG1T1   -0.460000       14.0070           0
     35643 WT14     491      MECN     C1       CG331   -0.170000       12.0110           0
     35644 WT14     491      MECN     H11      HGA3     0.090000        1.0080           0
     35645 WT14     491      MECN     H12      HGA3     0.090000        1.0080           0
     35646 WT14     491      MECN     H13      HGA3     0.090000        1.0080           0
     35647 WT14     491      MECN     C2       CG1N1    0.360000       12.0110           0
     35648 WT14     491      MECN     N3       NG1T1   -0.460000       14.0070           0
     35649 WT14     492      MECN     C1       CG331   -0.170000       12.0110           0
     35650 WT14     492      MECN     H11      HGA3     0.090000        1.0080           0
     35651 WT14     492      MECN     H12      HGA3     0.090000        1.0080           0
     35652 WT14     492      MECN     H13      HGA3     0.090000        1.0080           0
     35653 WT14     492      MECN     C2       CG1N1    0.360000       12.0110           0
     35654 WT14     492      MECN     N3       NG1T1   -0.460000       14.0070           0
     35655 WT14     493      MECN     C1       CG331   -0.170000       12.0110           0
     35656 WT14     493      MECN     H11      HGA3     0.090000        1.0080           0
     35657 WT14     493      MECN     H12      HGA3     0.090000        1.0080           0
     35658 WT14     493      MECN     H13      HGA3     0.090000        1.0080           0
     35659 WT14     493      MECN     C2       CG1N1    0.360000       12.0110           0
     35660 WT14     493      MECN     N3       NG1T1   -0.460000       14.0070           0
     35661 WT14     495      MECN     C1       CG331   -0.170000       12.0110           0
     35662 WT14     495      MECN     H11      HGA3     0.090000        1.0080           0
     35663 WT14     495      MECN     H12      HGA3     0.090000        1.0080           0
     35664 WT14     495      MECN     H13      HGA3     0.090000        1.0080           0
     35665 WT14     495      MECN     C2       CG1N1    0.360000       12.0110           0
     35666 WT14     495      MECN     N3       NG1T1   -0.460000       14.0070           0
     35667 WT14     496      MECN     C1       CG331   -0.170000       12.0110           0
     35668 WT14     496      MECN     H11      HGA3     0.090000        1.0080           0
     35669 WT14     496      MECN     H12      HGA3     0.090000        1.0080           0
     35670 WT14     496      MECN     H13      HGA3     0.090000        1.0080           0
     35671 WT14     496      MECN     C2       CG1N1    0.360000       12.0110           0
     35672 WT14     496      MECN     N3       NG1T1   -0.460000       14.0070           0
     35673 WT14     498      MECN     C1       CG331   -0.170000       12.0110           0
     35674 WT14     498      MECN     H11      HGA3     0.090000        1.0080           0
     35675 WT14     498      MECN     H12      HGA3     0.090000        1.0080           0
     35676 WT14     498      MECN     H13      HGA3     0.090000        1.0080           0
     35677 WT14     498      MECN     C2       CG1N1    0.360000       12.0110           0
     35678 WT14     498      MECN     N3       NG1T1   -0.460000       14.0070           0
     35679 WT14     499      MECN     C1       CG331   -0.170000       12.0110           0
     35680 WT14     499      MECN     H11      HGA3     0.090000        1.0080           0
     35681 WT14     499      MECN     H12      HGA3     0.090000        1.0080           0
     35682 WT14     499      MECN     H13      HGA3     0.090000        1.0080           0
     35683 WT14     499      MECN     C2       CG1N1    0.360000       12.0110           0
     35684 WT14     499      MECN     N3       NG1T1   -0.460000       14.0070           0
     35685 WT14     500      MECN     C1       CG331   -0.170000       12.0110           0
     35686 WT14     500      MECN     H11      HGA3     0.090000        1.0080           0
     35687 WT14     500      MECN     H12      HGA3     0.090000        1.0080           0
     35688 WT14     500      MECN     H13      HGA3     0.090000        1.0080           0
     35689 WT14     500      MECN     C2       CG1N1    0.360000       12.0110           0
     35690 WT14     500      MECN     N3       NG1T1   -0.460000       14.0070           0
     35691 WT14     501      MECN     C1       CG331   -0.170000       12.0110           0
     35692 WT14     501      MECN     H11      HGA3     0.090000        1.0080           0
     35693 WT14     501      MECN     H12      HGA3     0.090000        1.0080           0
     35694 WT14     501      MECN     H13      HGA3     0.090000        1.0080           0
     35695 WT14     501      MECN     C2       CG1N1    0.360000       12.0110           0
     35696 WT14     501      MECN     N3       NG1T1   -0.460000       14.0070           0
     35697 WT14     502      MECN     C1       CG331   -0.170000       12.0110           0
     35698 WT14     502      MECN     H11      HGA3     0.090000        1.0080           0
     35699 WT14     502      MECN     H12      HGA3     0.090000        1.0080           0
     35700 WT14     502      MECN     H13      HGA3     0.090000        1.0080           0
     35701 WT14     502      MECN     C2       CG1N1    0.360000       12.0110           0
     35702 WT14     502      MECN     N3       NG1T1   -0.460000       14.0070           0
     35703 WT14     503      MECN     C1       CG331   -0.170000       12.0110           0
     35704 WT14     503      MECN     H11      HGA3     0.090000        1.0080           0
     35705 WT14     503      MECN     H12      HGA3     0.090000        1.0080           0
     35706 WT14     503      MECN     H13      HGA3     0.090000        1.0080           0
     35707 WT14     503      MECN     C2       CG1N1    0.360000       12.0110           0
     35708 WT14     503      MECN     N3       NG1T1   -0.460000       14.0070           0
     35709 WT14     504      MECN     C1       CG331   -0.170000       12.0110           0
     35710 WT14     504      MECN     H11      HGA3     0.090000        1.0080           0
     35711 WT14     504      MECN     H12      HGA3     0.090000        1.0080           0
     35712 WT14     504      MECN     H13      HGA3     0.090000        1.0080           0
     35713 WT14     504      MECN     C2       CG1N1    0.360000       12.0110           0
     35714 WT14     504      MECN     N3       NG1T1   -0.460000       14.0070           0
     35715 WT14     505      MECN     C1       CG331   -0.170000       12.0110           0
     35716 WT14     505      MECN     H11      HGA3     0.090000        1.0080           0
     35717 WT14     505      MECN     H12      HGA3     0.090000        1.0080           0
     35718 WT14     505      MECN     H13      HGA3     0.090000        1.0080           0
     35719 WT14     505      MECN     C2       CG1N1    0.360000       12.0110           0
     35720 WT14     505      MECN     N3       NG1T1   -0.460000       14.0070           0
     35721 WT14     506      MECN     C1       CG331   -0.170000       12.0110           0
     35722 WT14     506      MECN     H11      HGA3     0.090000        1.0080           0
     35723 WT14     506      MECN     H12      HGA3     0.090000        1.0080           0
     35724 WT14     506      MECN     H13      HGA3     0.090000        1.0080           0
     35725 WT14     506      MECN     C2       CG1N1    0.360000       12.0110           0
     35726 WT14     506      MECN     N3       NG1T1   -0.460000       14.0070           0
     35727 WT14     507      MECN     C1       CG331   -0.170000       12.0110           0
     35728 WT14     507      MECN     H11      HGA3     0.090000        1.0080           0
     35729 WT14     507      MECN     H12      HGA3     0.090000        1.0080           0
     35730 WT14     507      MECN     H13      HGA3     0.090000        1.0080           0
     35731 WT14     507      MECN     C2       CG1N1    0.360000       12.0110           0
     35732 WT14     507      MECN     N3       NG1T1   -0.460000       14.0070           0
     35733 WT14     509      MECN     C1       CG331   -0.170000       12.0110           0
     35734 WT14     509      MECN     H11      HGA3     0.090000        1.0080           0
     35735 WT14     509      MECN     H12      HGA3     0.090000        1.0080           0
     35736 WT14     509      MECN     H13      HGA3     0.090000        1.0080           0
     35737 WT14     509      MECN     C2       CG1N1    0.360000       12.0110           0
     35738 WT14     509      MECN     N3       NG1T1   -0.460000       14.0070           0
     35739 WT14     510      MECN     C1       CG331   -0.170000       12.0110           0
     35740 WT14     510      MECN     H11      HGA3     0.090000        1.0080           0
     35741 WT14     510      MECN     H12      HGA3     0.090000        1.0080           0
     35742 WT14     510      MECN     H13      HGA3     0.090000        1.0080           0
     35743 WT14     510      MECN     C2       CG1N1    0.360000       12.0110           0
     35744 WT14     510      MECN     N3       NG1T1   -0.460000       14.0070           0
     35745 WT14     512      MECN     C1       CG331   -0.170000       12.0110           0
     35746 WT14     512      MECN     H11      HGA3     0.090000        1.0080           0
     35747 WT14     512      MECN     H12      HGA3     0.090000        1.0080           0
     35748 WT14     512      MECN     H13      HGA3     0.090000        1.0080           0
     35749 WT14     512      MECN     C2       CG1N1    0.360000       12.0110           0
     35750 WT14     512      MECN     N3       NG1T1   -0.460000       14.0070           0
     35751 WT14     513      MECN     C1       CG331   -0.170000       12.0110           0
     35752 WT14     513      MECN     H11      HGA3     0.090000        1.0080           0
     35753 WT14     513      MECN     H12      HGA3     0.090000        1.0080           0
     35754 WT14     513      MECN     H13      HGA3     0.090000        1.0080           0
     35755 WT14     513      MECN     C2       CG1N1    0.360000       12.0110           0
     35756 WT14     513      MECN     N3       NG1T1   -0.460000       14.0070           0
     35757 WT14     514      MECN     C1       CG331   -0.170000       12.0110           0
     35758 WT14     514      MECN     H11      HGA3     0.090000        1.0080           0
     35759 WT14     514      MECN     H12      HGA3     0.090000        1.0080           0
     35760 WT14     514      MECN     H13      HGA3     0.090000        1.0080           0
     35761 WT14     514      MECN     C2       CG1N1    0.360000       12.0110           0
     35762 WT14     514      MECN     N3       NG1T1   -0.460000       14.0070           0
     35763 WT14     515      MECN     C1       CG331   -0.170000       12.0110           0
     35764 WT14     515      MECN     H11      HGA3     0.090000        1.0080           0
     35765 WT14     515      MECN     H12      HGA3     0.090000        1.0080           0
     35766 WT14     515      MECN     H13      HGA3     0.090000        1.0080           0
     35767 WT14     515      MECN     C2       CG1N1    0.360000       12.0110           0
     35768 WT14     515      MECN     N3       NG1T1   -0.460000       14.0070           0
     35769 WT14     516      MECN     C1       CG331   -0.170000       12.0110           0
     35770 WT14     516      MECN     H11      HGA3     0.090000        1.0080           0
     35771 WT14     516      MECN     H12      HGA3     0.090000        1.0080           0
     35772 WT14     516      MECN     H13      HGA3     0.090000        1.0080           0
     35773 WT14     516      MECN     C2       CG1N1    0.360000       12.0110           0
     35774 WT14     516      MECN     N3       NG1T1   -0.460000       14.0070           0
     35775 WT14     517      MECN     C1       CG331   -0.170000       12.0110           0
     35776 WT14     517      MECN     H11      HGA3     0.090000        1.0080           0
     35777 WT14     517      MECN     H12      HGA3     0.090000        1.0080           0
     35778 WT14     517      MECN     H13      HGA3     0.090000        1.0080           0
     35779 WT14     517      MECN     C2       CG1N1    0.360000       12.0110           0
     35780 WT14     517      MECN     N3       NG1T1   -0.460000       14.0070           0
     35781 WT14     521      MECN     C1       CG331   -0.170000       12.0110           0
     35782 WT14     521      MECN     H11      HGA3     0.090000        1.0080           0
     35783 WT14     521      MECN     H12      HGA3     0.090000        1.0080           0
     35784 WT14     521      MECN     H13      HGA3     0.090000        1.0080           0
     35785 WT14     521      MECN     C2       CG1N1    0.360000       12.0110           0
     35786 WT14     521      MECN     N3       NG1T1   -0.460000       14.0070           0
     35787 WT14     522      MECN     C1       CG331   -0.170000       12.0110           0
     35788 WT14     522      MECN     H11      HGA3     0.090000        1.0080           0
     35789 WT14     522      MECN     H12      HGA3     0.090000        1.0080           0
     35790 WT14     522      MECN     H13      HGA3     0.090000        1.0080           0
     35791 WT14     522      MECN     C2       CG1N1    0.360000       12.0110           0
     35792 WT14     522      MECN     N3       NG1T1   -0.460000       14.0070           0
     35793 WT14     523      MECN     C1       CG331   -0.170000       12.0110           0
     35794 WT14     523      MECN     H11      HGA3     0.090000        1.0080           0
     35795 WT14     523      MECN     H12      HGA3     0.090000        1.0080           0
     35796 WT14     523      MECN     H13      HGA3     0.090000        1.0080           0
     35797 WT14     523      MECN     C2       CG1N1    0.360000       12.0110           0
     35798 WT14     523      MECN     N3       NG1T1   -0.460000       14.0070           0
     35799 WT14     524      MECN     C1       CG331   -0.170000       12.0110           0
     35800 WT14     524      MECN     H11      HGA3     0.090000        1.0080           0
     35801 WT14     524      MECN     H12      HGA3     0.090000        1.0080           0
     35802 WT14     524      MECN     H13      HGA3     0.090000        1.0080           0
     35803 WT14     524      MECN     C2       CG1N1    0.360000       12.0110           0
     35804 WT14     524      MECN     N3       NG1T1   -0.460000       14.0070           0
     35805 WT14     525      MECN     C1       CG331   -0.170000       12.0110           0
     35806 WT14     525      MECN     H11      HGA3     0.090000        1.0080           0
     35807 WT14     525      MECN     H12      HGA3     0.090000        1.0080           0
     35808 WT14     525      MECN     H13      HGA3     0.090000        1.0080           0
     35809 WT14     525      MECN     C2       CG1N1    0.360000       12.0110           0
     35810 WT14     525      MECN     N3       NG1T1   -0.460000       14.0070           0
     35811 WT14     527      MECN     C1       CG331   -0.170000       12.0110           0
     35812 WT14     527      MECN     H11      HGA3     0.090000        1.0080           0
     35813 WT14     527      MECN     H12      HGA3     0.090000        1.0080           0
     35814 WT14     527      MECN     H13      HGA3     0.090000        1.0080           0
     35815 WT14     527      MECN     C2       CG1N1    0.360000       12.0110           0
     35816 WT14     527      MECN     N3       NG1T1   -0.460000       14.0070           0
     35817 WT14     528      MECN     C1       CG331   -0.170000       12.0110           0
     35818 WT14     528      MECN     H11      HGA3     0.090000        1.0080           0
     35819 WT14     528      MECN     H12      HGA3     0.090000        1.0080           0
     35820 WT14     528      MECN     H13      HGA3     0.090000        1.0080           0
     35821 WT14     528      MECN     C2       CG1N1    0.360000       12.0110           0
     35822 WT14     528      MECN     N3       NG1T1   -0.460000       14.0070           0
     35823 WT14     529      MECN     C1       CG331   -0.170000       12.0110           0
     35824 WT14     529      MECN     H11      HGA3     0.090000        1.0080           0
     35825 WT14     529      MECN     H12      HGA3     0.090000        1.0080           0
     35826 WT14     529      MECN     H13      HGA3     0.090000        1.0080           0
     35827 WT14     529      MECN     C2       CG1N1    0.360000       12.0110           0
     35828 WT14     529      MECN     N3       NG1T1   -0.460000       14.0070           0
     35829 WT14     530      MECN     C1       CG331   -0.170000       12.0110           0
     35830 WT14     530      MECN     H11      HGA3     0.090000        1.0080           0
     35831 WT14     530      MECN     H12      HGA3     0.090000        1.0080           0
     35832 WT14     530      MECN     H13      HGA3     0.090000        1.0080           0
     35833 WT14     530      MECN     C2       CG1N1    0.360000       12.0110           0
     35834 WT14     530      MECN     N3       NG1T1   -0.460000       14.0070           0
     35835 WT14     531      MECN     C1       CG331   -0.170000       12.0110           0
     35836 WT14     531      MECN     H11      HGA3     0.090000        1.0080           0
     35837 WT14     531      MECN     H12      HGA3     0.090000        1.0080           0
     35838 WT14     531      MECN     H13      HGA3     0.090000        1.0080           0
     35839 WT14     531      MECN     C2       CG1N1    0.360000       12.0110           0
     35840 WT14     531      MECN     N3       NG1T1   -0.460000       14.0070           0
     35841 WT14     532      MECN     C1       CG331   -0.170000       12.0110           0
     35842 WT14     532      MECN     H11      HGA3     0.090000        1.0080           0
     35843 WT14     532      MECN     H12      HGA3     0.090000        1.0080           0
     35844 WT14     532      MECN     H13      HGA3     0.090000        1.0080           0
     35845 WT14     532      MECN     C2       CG1N1    0.360000       12.0110           0
     35846 WT14     532      MECN     N3       NG1T1   -0.460000       14.0070           0
     35847 WT14     533      MECN     C1       CG331   -0.170000       12.0110           0
     35848 WT14     533      MECN     H11      HGA3     0.090000        1.0080           0
     35849 WT14     533      MECN     H12      HGA3     0.090000        1.0080           0
     35850 WT14     533      MECN     H13      HGA3     0.090000        1.0080           0
     35851 WT14     533      MECN     C2       CG1N1    0.360000       12.0110           0
     35852 WT14     533      MECN     N3       NG1T1   -0.460000       14.0070           0
     35853 WT14     534      MECN     C1       CG331   -0.170000       12.0110           0
     35854 WT14     534      MECN     H11      HGA3     0.090000        1.0080           0
     35855 WT14     534      MECN     H12      HGA3     0.090000        1.0080           0
     35856 WT14     534      MECN     H13      HGA3     0.090000        1.0080           0
     35857 WT14     534      MECN     C2       CG1N1    0.360000       12.0110           0
     35858 WT14     534      MECN     N3       NG1T1   -0.460000       14.0070           0
     35859 WT14     535      MECN     C1       CG331   -0.170000       12.0110           0
     35860 WT14     535      MECN     H11      HGA3     0.090000        1.0080           0
     35861 WT14     535      MECN     H12      HGA3     0.090000        1.0080           0
     35862 WT14     535      MECN     H13      HGA3     0.090000        1.0080           0
     35863 WT14     535      MECN     C2       CG1N1    0.360000       12.0110           0
     35864 WT14     535      MECN     N3       NG1T1   -0.460000       14.0070           0
     35865 WT14     536      MECN     C1       CG331   -0.170000       12.0110           0
     35866 WT14     536      MECN     H11      HGA3     0.090000        1.0080           0
     35867 WT14     536      MECN     H12      HGA3     0.090000        1.0080           0
     35868 WT14     536      MECN     H13      HGA3     0.090000        1.0080           0
     35869 WT14     536      MECN     C2       CG1N1    0.360000       12.0110           0
     35870 WT14     536      MECN     N3       NG1T1   -0.460000       14.0070           0
     35871 WT14     537      MECN     C1       CG331   -0.170000       12.0110           0
     35872 WT14     537      MECN     H11      HGA3     0.090000        1.0080           0
     35873 WT14     537      MECN     H12      HGA3     0.090000        1.0080           0
     35874 WT14     537      MECN     H13      HGA3     0.090000        1.0080           0
     35875 WT14     537      MECN     C2       CG1N1    0.360000       12.0110           0
     35876 WT14     537      MECN     N3       NG1T1   -0.460000       14.0070           0
     35877 WT14     539      MECN     C1       CG331   -0.170000       12.0110           0
     35878 WT14     539      MECN     H11      HGA3     0.090000        1.0080           0
     35879 WT14     539      MECN     H12      HGA3     0.090000        1.0080           0
     35880 WT14     539      MECN     H13      HGA3     0.090000        1.0080           0
     35881 WT14     539      MECN     C2       CG1N1    0.360000       12.0110           0
     35882 WT14     539      MECN     N3       NG1T1   -0.460000       14.0070           0
     35883 WT14     540      MECN     C1       CG331   -0.170000       12.0110           0
     35884 WT14     540      MECN     H11      HGA3     0.090000        1.0080           0
     35885 WT14     540      MECN     H12      HGA3     0.090000        1.0080           0
     35886 WT14     540      MECN     H13      HGA3     0.090000        1.0080           0
     35887 WT14     540      MECN     C2       CG1N1    0.360000       12.0110           0
     35888 WT14     540      MECN     N3       NG1T1   -0.460000       14.0070           0
     35889 WT14     543      MECN     C1       CG331   -0.170000       12.0110           0
     35890 WT14     543      MECN     H11      HGA3     0.090000        1.0080           0
     35891 WT14     543      MECN     H12      HGA3     0.090000        1.0080           0
     35892 WT14     543      MECN     H13      HGA3     0.090000        1.0080           0
     35893 WT14     543      MECN     C2       CG1N1    0.360000       12.0110           0
     35894 WT14     543      MECN     N3       NG1T1   -0.460000       14.0070           0
     35895 WT14     544      MECN     C1       CG331   -0.170000       12.0110           0
     35896 WT14     544      MECN     H11      HGA3     0.090000        1.0080           0
     35897 WT14     544      MECN     H12      HGA3     0.090000        1.0080           0
     35898 WT14     544      MECN     H13      HGA3     0.090000        1.0080           0
     35899 WT14     544      MECN     C2       CG1N1    0.360000       12.0110           0
     35900 WT14     544      MECN     N3       NG1T1   -0.460000       14.0070           0
     35901 WT14     545      MECN     C1       CG331   -0.170000       12.0110           0
     35902 WT14     545      MECN     H11      HGA3     0.090000        1.0080           0
     35903 WT14     545      MECN     H12      HGA3     0.090000        1.0080           0
     35904 WT14     545      MECN     H13      HGA3     0.090000        1.0080           0
     35905 WT14     545      MECN     C2       CG1N1    0.360000       12.0110           0
     35906 WT14     545      MECN     N3       NG1T1   -0.460000       14.0070           0
     35907 WT14     547      MECN     C1       CG331   -0.170000       12.0110           0
     35908 WT14     547      MECN     H11      HGA3     0.090000        1.0080           0
     35909 WT14     547      MECN     H12      HGA3     0.090000        1.0080           0
     35910 WT14     547      MECN     H13      HGA3     0.090000        1.0080           0
     35911 WT14     547      MECN     C2       CG1N1    0.360000       12.0110           0
     35912 WT14     547      MECN     N3       NG1T1   -0.460000       14.0070           0
     35913 WT14     548      MECN     C1       CG331   -0.170000       12.0110           0
     35914 WT14     548      MECN     H11      HGA3     0.090000        1.0080           0
     35915 WT14     548      MECN     H12      HGA3     0.090000        1.0080           0
     35916 WT14     548      MECN     H13      HGA3     0.090000        1.0080           0
     35917 WT14     548      MECN     C2       CG1N1    0.360000       12.0110           0
     35918 WT14     548      MECN     N3       NG1T1   -0.460000       14.0070           0
     35919 WT14     549      MECN     C1       CG331   -0.170000       12.0110           0
     35920 WT14     549      MECN     H11      HGA3     0.090000        1.0080           0
     35921 WT14     549      MECN     H12      HGA3     0.090000        1.0080           0
     35922 WT14     549      MECN     H13      HGA3     0.090000        1.0080           0
     35923 WT14     549      MECN     C2       CG1N1    0.360000       12.0110           0
     35924 WT14     549      MECN     N3       NG1T1   -0.460000       14.0070           0
     35925 WT14     550      MECN     C1       CG331   -0.170000       12.0110           0
     35926 WT14     550      MECN     H11      HGA3     0.090000        1.0080           0
     35927 WT14     550      MECN     H12      HGA3     0.090000        1.0080           0
     35928 WT14     550      MECN     H13      HGA3     0.090000        1.0080           0
     35929 WT14     550      MECN     C2       CG1N1    0.360000       12.0110           0
     35930 WT14     550      MECN     N3       NG1T1   -0.460000       14.0070           0
     35931 WT14     551      MECN     C1       CG331   -0.170000       12.0110           0
     35932 WT14     551      MECN     H11      HGA3     0.090000        1.0080           0
     35933 WT14     551      MECN     H12      HGA3     0.090000        1.0080           0
     35934 WT14     551      MECN     H13      HGA3     0.090000        1.0080           0
     35935 WT14     551      MECN     C2       CG1N1    0.360000       12.0110           0
     35936 WT14     551      MECN     N3       NG1T1   -0.460000       14.0070           0
     35937 WT14     552      MECN     C1       CG331   -0.170000       12.0110           0
     35938 WT14     552      MECN     H11      HGA3     0.090000        1.0080           0
     35939 WT14     552      MECN     H12      HGA3     0.090000        1.0080           0
     35940 WT14     552      MECN     H13      HGA3     0.090000        1.0080           0
     35941 WT14     552      MECN     C2       CG1N1    0.360000       12.0110           0
     35942 WT14     552      MECN     N3       NG1T1   -0.460000       14.0070           0
     35943 WT14     553      MECN     C1       CG331   -0.170000       12.0110           0
     35944 WT14     553      MECN     H11      HGA3     0.090000        1.0080           0
     35945 WT14     553      MECN     H12      HGA3     0.090000        1.0080           0
     35946 WT14     553      MECN     H13      HGA3     0.090000        1.0080           0
     35947 WT14     553      MECN     C2       CG1N1    0.360000       12.0110           0
     35948 WT14     553      MECN     N3       NG1T1   -0.460000       14.0070           0
     35949 WT14     554      MECN     C1       CG331   -0.170000       12.0110           0
     35950 WT14     554      MECN     H11      HGA3     0.090000        1.0080           0
     35951 WT14     554      MECN     H12      HGA3     0.090000        1.0080           0
     35952 WT14     554      MECN     H13      HGA3     0.090000        1.0080           0
     35953 WT14     554      MECN     C2       CG1N1    0.360000       12.0110           0
     35954 WT14     554      MECN     N3       NG1T1   -0.460000       14.0070           0
     35955 WT14     556      MECN     C1       CG331   -0.170000       12.0110           0
     35956 WT14     556      MECN     H11      HGA3     0.090000        1.0080           0
     35957 WT14     556      MECN     H12      HGA3     0.090000        1.0080           0
     35958 WT14     556      MECN     H13      HGA3     0.090000        1.0080           0
     35959 WT14     556      MECN     C2       CG1N1    0.360000       12.0110           0
     35960 WT14     556      MECN     N3       NG1T1   -0.460000       14.0070           0
     35961 WT14     557      MECN     C1       CG331   -0.170000       12.0110           0
     35962 WT14     557      MECN     H11      HGA3     0.090000        1.0080           0
     35963 WT14     557      MECN     H12      HGA3     0.090000        1.0080           0
     35964 WT14     557      MECN     H13      HGA3     0.090000        1.0080           0
     35965 WT14     557      MECN     C2       CG1N1    0.360000       12.0110           0
     35966 WT14     557      MECN     N3       NG1T1   -0.460000       14.0070           0
     35967 WT14     558      MECN     C1       CG331   -0.170000       12.0110           0
     35968 WT14     558      MECN     H11      HGA3     0.090000        1.0080           0
     35969 WT14     558      MECN     H12      HGA3     0.090000        1.0080           0
     35970 WT14     558      MECN     H13      HGA3     0.090000        1.0080           0
     35971 WT14     558      MECN     C2       CG1N1    0.360000       12.0110           0
     35972 WT14     558      MECN     N3       NG1T1   -0.460000       14.0070           0
     35973 WT14     559      MECN     C1       CG331   -0.170000       12.0110           0
     35974 WT14     559      MECN     H11      HGA3     0.090000        1.0080           0
     35975 WT14     559      MECN     H12      HGA3     0.090000        1.0080           0
     35976 WT14     559      MECN     H13      HGA3     0.090000        1.0080           0
     35977 WT14     559      MECN     C2       CG1N1    0.360000       12.0110           0
     35978 WT14     559      MECN     N3       NG1T1   -0.460000       14.0070           0
     35979 WT14     560      MECN     C1       CG331   -0.170000       12.0110           0
     35980 WT14     560      MECN     H11      HGA3     0.090000        1.0080           0
     35981 WT14     560      MECN     H12      HGA3     0.090000        1.0080           0
     35982 WT14     560      MECN     H13      HGA3     0.090000        1.0080           0
     35983 WT14     560      MECN     C2       CG1N1    0.360000       12.0110           0
     35984 WT14     560      MECN     N3       NG1T1   -0.460000       14.0070           0
     35985 WT14     561      MECN     C1       CG331   -0.170000       12.0110           0
     35986 WT14     561      MECN     H11      HGA3     0.090000        1.0080           0
     35987 WT14     561      MECN     H12      HGA3     0.090000        1.0080           0
     35988 WT14     561      MECN     H13      HGA3     0.090000        1.0080           0
     35989 WT14     561      MECN     C2       CG1N1    0.360000       12.0110           0
     35990 WT14     561      MECN     N3       NG1T1   -0.460000       14.0070           0
     35991 WT14     563      MECN     C1       CG331   -0.170000       12.0110           0
     35992 WT14     563      MECN     H11      HGA3     0.090000        1.0080           0
     35993 WT14     563      MECN     H12      HGA3     0.090000        1.0080           0
     35994 WT14     563      MECN     H13      HGA3     0.090000        1.0080           0
     35995 WT14     563      MECN     C2       CG1N1    0.360000       12.0110           0
     35996 WT14     563      MECN     N3       NG1T1   -0.460000       14.0070           0
     35997 WT14     564      MECN     C1       CG331   -0.170000       12.0110           0
     35998 WT14     564      MECN     H11      HGA3     0.090000        1.0080           0
     35999 WT14     564      MECN     H12      HGA3     0.090000        1.0080           0
     36000 WT14     564      MECN     H13      HGA3     0.090000        1.0080           0
     36001 WT14     564      MECN     C2       CG1N1    0.360000       12.0110           0
     36002 WT14     564      MECN     N3       NG1T1   -0.460000       14.0070           0
     36003 WT14     565      MECN     C1       CG331   -0.170000       12.0110           0
     36004 WT14     565      MECN     H11      HGA3     0.090000        1.0080           0
     36005 WT14     565      MECN     H12      HGA3     0.090000        1.0080           0
     36006 WT14     565      MECN     H13      HGA3     0.090000        1.0080           0
     36007 WT14     565      MECN     C2       CG1N1    0.360000       12.0110           0
     36008 WT14     565      MECN     N3       NG1T1   -0.460000       14.0070           0
     36009 WT14     566      MECN     C1       CG331   -0.170000       12.0110           0
     36010 WT14     566      MECN     H11      HGA3     0.090000        1.0080           0
     36011 WT14     566      MECN     H12      HGA3     0.090000        1.0080           0
     36012 WT14     566      MECN     H13      HGA3     0.090000        1.0080           0
     36013 WT14     566      MECN     C2       CG1N1    0.360000       12.0110           0
     36014 WT14     566      MECN     N3       NG1T1   -0.460000       14.0070           0
     36015 WT14     567      MECN     C1       CG331   -0.170000       12.0110           0
     36016 WT14     567      MECN     H11      HGA3     0.090000        1.0080           0
     36017 WT14     567      MECN     H12      HGA3     0.090000        1.0080           0
     36018 WT14     567      MECN     H13      HGA3     0.090000        1.0080           0
     36019 WT14     567      MECN     C2       CG1N1    0.360000       12.0110           0
     36020 WT14     567      MECN     N3       NG1T1   -0.460000       14.0070           0
     36021 WT14     568      MECN     C1       CG331   -0.170000       12.0110           0
     36022 WT14     568      MECN     H11      HGA3     0.090000        1.0080           0
     36023 WT14     568      MECN     H12      HGA3     0.090000        1.0080           0
     36024 WT14     568      MECN     H13      HGA3     0.090000        1.0080           0
     36025 WT14     568      MECN     C2       CG1N1    0.360000       12.0110           0
     36026 WT14     568      MECN     N3       NG1T1   -0.460000       14.0070           0
     36027 WT14     570      MECN     C1       CG331   -0.170000       12.0110           0
     36028 WT14     570      MECN     H11      HGA3     0.090000        1.0080           0
     36029 WT14     570      MECN     H12      HGA3     0.090000        1.0080           0
     36030 WT14     570      MECN     H13      HGA3     0.090000        1.0080           0
     36031 WT14     570      MECN     C2       CG1N1    0.360000       12.0110           0
     36032 WT14     570      MECN     N3       NG1T1   -0.460000       14.0070           0
     36033 WT14     571      MECN     C1       CG331   -0.170000       12.0110           0
     36034 WT14     571      MECN     H11      HGA3     0.090000        1.0080           0
     36035 WT14     571      MECN     H12      HGA3     0.090000        1.0080           0
     36036 WT14     571      MECN     H13      HGA3     0.090000        1.0080           0
     36037 WT14     571      MECN     C2       CG1N1    0.360000       12.0110           0
     36038 WT14     571      MECN     N3       NG1T1   -0.460000       14.0070           0
     36039 WT14     572      MECN     C1       CG331   -0.170000       12.0110           0
     36040 WT14     572      MECN     H11      HGA3     0.090000        1.0080           0
     36041 WT14     572      MECN     H12      HGA3     0.090000        1.0080           0
     36042 WT14     572      MECN     H13      HGA3     0.090000        1.0080           0
     36043 WT14     572      MECN     C2       CG1N1    0.360000       12.0110           0
     36044 WT14     572      MECN     N3       NG1T1   -0.460000       14.0070           0
     36045 WT14     573      MECN     C1       CG331   -0.170000       12.0110           0
     36046 WT14     573      MECN     H11      HGA3     0.090000        1.0080           0
     36047 WT14     573      MECN     H12      HGA3     0.090000        1.0080           0
     36048 WT14     573      MECN     H13      HGA3     0.090000        1.0080           0
     36049 WT14     573      MECN     C2       CG1N1    0.360000       12.0110           0
     36050 WT14     573      MECN     N3       NG1T1   -0.460000       14.0070           0
     36051 WT14     574      MECN     C1       CG331   -0.170000       12.0110           0
     36052 WT14     574      MECN     H11      HGA3     0.090000        1.0080           0
     36053 WT14     574      MECN     H12      HGA3     0.090000        1.0080           0
     36054 WT14     574      MECN     H13      HGA3     0.090000        1.0080           0
     36055 WT14     574      MECN     C2       CG1N1    0.360000       12.0110           0
     36056 WT14     574      MECN     N3       NG1T1   -0.460000       14.0070           0
     36057 WT14     575      MECN     C1       CG331   -0.170000       12.0110           0
     36058 WT14     575      MECN     H11      HGA3     0.090000        1.0080           0
     36059 WT14     575      MECN     H12      HGA3     0.090000        1.0080           0
     36060 WT14     575      MECN     H13      HGA3     0.090000        1.0080           0
     36061 WT14     575      MECN     C2       CG1N1    0.360000       12.0110           0
     36062 WT14     575      MECN     N3       NG1T1   -0.460000       14.0070           0
     36063 WT14     576      MECN     C1       CG331   -0.170000       12.0110           0
     36064 WT14     576      MECN     H11      HGA3     0.090000        1.0080           0
     36065 WT14     576      MECN     H12      HGA3     0.090000        1.0080           0
     36066 WT14     576      MECN     H13      HGA3     0.090000        1.0080           0
     36067 WT14     576      MECN     C2       CG1N1    0.360000       12.0110           0
     36068 WT14     576      MECN     N3       NG1T1   -0.460000       14.0070           0
     36069 WT14     577      MECN     C1       CG331   -0.170000       12.0110           0
     36070 WT14     577      MECN     H11      HGA3     0.090000        1.0080           0
     36071 WT14     577      MECN     H12      HGA3     0.090000        1.0080           0
     36072 WT14     577      MECN     H13      HGA3     0.090000        1.0080           0
     36073 WT14     577      MECN     C2       CG1N1    0.360000       12.0110           0
     36074 WT14     577      MECN     N3       NG1T1   -0.460000       14.0070           0
     36075 WT14     581      MECN     C1       CG331   -0.170000       12.0110           0
     36076 WT14     581      MECN     H11      HGA3     0.090000        1.0080           0
     36077 WT14     581      MECN     H12      HGA3     0.090000        1.0080           0
     36078 WT14     581      MECN     H13      HGA3     0.090000        1.0080           0
     36079 WT14     581      MECN     C2       CG1N1    0.360000       12.0110           0
     36080 WT14     581      MECN     N3       NG1T1   -0.460000       14.0070           0
     36081 WT14     582      MECN     C1       CG331   -0.170000       12.0110           0
     36082 WT14     582      MECN     H11      HGA3     0.090000        1.0080           0
     36083 WT14     582      MECN     H12      HGA3     0.090000        1.0080           0
     36084 WT14     582      MECN     H13      HGA3     0.090000        1.0080           0
     36085 WT14     582      MECN     C2       CG1N1    0.360000       12.0110           0
     36086 WT14     582      MECN     N3       NG1T1   -0.460000       14.0070           0
     36087 WT14     583      MECN     C1       CG331   -0.170000       12.0110           0
     36088 WT14     583      MECN     H11      HGA3     0.090000        1.0080           0
     36089 WT14     583      MECN     H12      HGA3     0.090000        1.0080           0
     36090 WT14     583      MECN     H13      HGA3     0.090000        1.0080           0
     36091 WT14     583      MECN     C2       CG1N1    0.360000       12.0110           0
     36092 WT14     583      MECN     N3       NG1T1   -0.460000       14.0070           0
     36093 WT14     584      MECN     C1       CG331   -0.170000       12.0110           0
     36094 WT14     584      MECN     H11      HGA3     0.090000        1.0080           0
     36095 WT14     584      MECN     H12      HGA3     0.090000        1.0080           0
     36096 WT14     584      MECN     H13      HGA3     0.090000        1.0080           0
     36097 WT14     584      MECN     C2       CG1N1    0.360000       12.0110           0
     36098 WT14     584      MECN     N3       NG1T1   -0.460000       14.0070           0
     36099 WT14     586      MECN     C1       CG331   -0.170000       12.0110           0
     36100 WT14     586      MECN     H11      HGA3     0.090000        1.0080           0
     36101 WT14     586      MECN     H12      HGA3     0.090000        1.0080           0
     36102 WT14     586      MECN     H13      HGA3     0.090000        1.0080           0
     36103 WT14     586      MECN     C2       CG1N1    0.360000       12.0110           0
     36104 WT14     586      MECN     N3       NG1T1   -0.460000       14.0070           0
     36105 WT14     588      MECN     C1       CG331   -0.170000       12.0110           0
     36106 WT14     588      MECN     H11      HGA3     0.090000        1.0080           0
     36107 WT14     588      MECN     H12      HGA3     0.090000        1.0080           0
     36108 WT14     588      MECN     H13      HGA3     0.090000        1.0080           0
     36109 WT14     588      MECN     C2       CG1N1    0.360000       12.0110           0
     36110 WT14     588      MECN     N3       NG1T1   -0.460000       14.0070           0
     36111 WT14     589      MECN     C1       CG331   -0.170000       12.0110           0
     36112 WT14     589      MECN     H11      HGA3     0.090000        1.0080           0
     36113 WT14     589      MECN     H12      HGA3     0.090000        1.0080           0
     36114 WT14     589      MECN     H13      HGA3     0.090000        1.0080           0
     36115 WT14     589      MECN     C2       CG1N1    0.360000       12.0110           0
     36116 WT14     589      MECN     N3       NG1T1   -0.460000       14.0070           0
     36117 WT14     591      MECN     C1       CG331   -0.170000       12.0110           0
     36118 WT14     591      MECN     H11      HGA3     0.090000        1.0080           0
     36119 WT14     591      MECN     H12      HGA3     0.090000        1.0080           0
     36120 WT14     591      MECN     H13      HGA3     0.090000        1.0080           0
     36121 WT14     591      MECN     C2       CG1N1    0.360000       12.0110           0
     36122 WT14     591      MECN     N3       NG1T1   -0.460000       14.0070           0
     36123 WT14     592      MECN     C1       CG331   -0.170000       12.0110           0
     36124 WT14     592      MECN     H11      HGA3     0.090000        1.0080           0
     36125 WT14     592      MECN     H12      HGA3     0.090000        1.0080           0
     36126 WT14     592      MECN     H13      HGA3     0.090000        1.0080           0
     36127 WT14     592      MECN     C2       CG1N1    0.360000       12.0110           0
     36128 WT14     592      MECN     N3       NG1T1   -0.460000       14.0070           0
     36129 WT14     593      MECN     C1       CG331   -0.170000       12.0110           0
     36130 WT14     593      MECN     H11      HGA3     0.090000        1.0080           0
     36131 WT14     593      MECN     H12      HGA3     0.090000        1.0080           0
     36132 WT14     593      MECN     H13      HGA3     0.090000        1.0080           0
     36133 WT14     593      MECN     C2       CG1N1    0.360000       12.0110           0
     36134 WT14     593      MECN     N3       NG1T1   -0.460000       14.0070           0
     36135 WT14     594      MECN     C1       CG331   -0.170000       12.0110           0
     36136 WT14     594      MECN     H11      HGA3     0.090000        1.0080           0
     36137 WT14     594      MECN     H12      HGA3     0.090000        1.0080           0
     36138 WT14     594      MECN     H13      HGA3     0.090000        1.0080           0
     36139 WT14     594      MECN     C2       CG1N1    0.360000       12.0110           0
     36140 WT14     594      MECN     N3       NG1T1   -0.460000       14.0070           0
     36141 WT14     596      MECN     C1       CG331   -0.170000       12.0110           0
     36142 WT14     596      MECN     H11      HGA3     0.090000        1.0080           0
     36143 WT14     596      MECN     H12      HGA3     0.090000        1.0080           0
     36144 WT14     596      MECN     H13      HGA3     0.090000        1.0080           0
     36145 WT14     596      MECN     C2       CG1N1    0.360000       12.0110           0
     36146 WT14     596      MECN     N3       NG1T1   -0.460000       14.0070           0
     36147 WT14     597      MECN     C1       CG331   -0.170000       12.0110           0
     36148 WT14     597      MECN     H11      HGA3     0.090000        1.0080           0
     36149 WT14     597      MECN     H12      HGA3     0.090000        1.0080           0
     36150 WT14     597      MECN     H13      HGA3     0.090000        1.0080           0
     36151 WT14     597      MECN     C2       CG1N1    0.360000       12.0110           0
     36152 WT14     597      MECN     N3       NG1T1   -0.460000       14.0070           0
     36153 WT14     598      MECN     C1       CG331   -0.170000       12.0110           0
     36154 WT14     598      MECN     H11      HGA3     0.090000        1.0080           0
     36155 WT14     598      MECN     H12      HGA3     0.090000        1.0080           0
     36156 WT14     598      MECN     H13      HGA3     0.090000        1.0080           0
     36157 WT14     598      MECN     C2       CG1N1    0.360000       12.0110           0
     36158 WT14     598      MECN     N3       NG1T1   -0.460000       14.0070           0
     36159 WT14     599      MECN     C1       CG331   -0.170000       12.0110           0
     36160 WT14     599      MECN     H11      HGA3     0.090000        1.0080           0
     36161 WT14     599      MECN     H12      HGA3     0.090000        1.0080           0
     36162 WT14     599      MECN     H13      HGA3     0.090000        1.0080           0
     36163 WT14     599      MECN     C2       CG1N1    0.360000       12.0110           0
     36164 WT14     599      MECN     N3       NG1T1   -0.460000       14.0070           0
     36165 WT14     600      MECN     C1       CG331   -0.170000       12.0110           0
     36166 WT14     600      MECN     H11      HGA3     0.090000        1.0080           0
     36167 WT14     600      MECN     H12      HGA3     0.090000        1.0080           0
     36168 WT14     600      MECN     H13      HGA3     0.090000        1.0080           0
     36169 WT14     600      MECN     C2       CG1N1    0.360000       12.0110           0
     36170 WT14     600      MECN     N3       NG1T1   -0.460000       14.0070           0
     36171 WT14     601      MECN     C1       CG331   -0.170000       12.0110           0
     36172 WT14     601      MECN     H11      HGA3     0.090000        1.0080           0
     36173 WT14     601      MECN     H12      HGA3     0.090000        1.0080           0
     36174 WT14     601      MECN     H13      HGA3     0.090000        1.0080           0
     36175 WT14     601      MECN     C2       CG1N1    0.360000       12.0110           0
     36176 WT14     601      MECN     N3       NG1T1   -0.460000       14.0070           0
     36177 WT14     603      MECN     C1       CG331   -0.170000       12.0110           0
     36178 WT14     603      MECN     H11      HGA3     0.090000        1.0080           0
     36179 WT14     603      MECN     H12      HGA3     0.090000        1.0080           0
     36180 WT14     603      MECN     H13      HGA3     0.090000        1.0080           0
     36181 WT14     603      MECN     C2       CG1N1    0.360000       12.0110           0
     36182 WT14     603      MECN     N3       NG1T1   -0.460000       14.0070           0
     36183 WT14     604      MECN     C1       CG331   -0.170000       12.0110           0
     36184 WT14     604      MECN     H11      HGA3     0.090000        1.0080           0
     36185 WT14     604      MECN     H12      HGA3     0.090000        1.0080           0
     36186 WT14     604      MECN     H13      HGA3     0.090000        1.0080           0
     36187 WT14     604      MECN     C2       CG1N1    0.360000       12.0110           0
     36188 WT14     604      MECN     N3       NG1T1   -0.460000       14.0070           0
     36189 WT14     606      MECN     C1       CG331   -0.170000       12.0110           0
     36190 WT14     606      MECN     H11      HGA3     0.090000        1.0080           0
     36191 WT14     606      MECN     H12      HGA3     0.090000        1.0080           0
     36192 WT14     606      MECN     H13      HGA3     0.090000        1.0080           0
     36193 WT14     606      MECN     C2       CG1N1    0.360000       12.0110           0
     36194 WT14     606      MECN     N3       NG1T1   -0.460000       14.0070           0
     36195 WT14     607      MECN     C1       CG331   -0.170000       12.0110           0
     36196 WT14     607      MECN     H11      HGA3     0.090000        1.0080           0
     36197 WT14     607      MECN     H12      HGA3     0.090000        1.0080           0
     36198 WT14     607      MECN     H13      HGA3     0.090000        1.0080           0
     36199 WT14     607      MECN     C2       CG1N1    0.360000       12.0110           0
     36200 WT14     607      MECN     N3       NG1T1   -0.460000       14.0070           0
     36201 WT14     608      MECN     C1       CG331   -0.170000       12.0110           0
     36202 WT14     608      MECN     H11      HGA3     0.090000        1.0080           0
     36203 WT14     608      MECN     H12      HGA3     0.090000        1.0080           0
     36204 WT14     608      MECN     H13      HGA3     0.090000        1.0080           0
     36205 WT14     608      MECN     C2       CG1N1    0.360000       12.0110           0
     36206 WT14     608      MECN     N3       NG1T1   -0.460000       14.0070           0
     36207 WT14     609      MECN     C1       CG331   -0.170000       12.0110           0
     36208 WT14     609      MECN     H11      HGA3     0.090000        1.0080           0
     36209 WT14     609      MECN     H12      HGA3     0.090000        1.0080           0
     36210 WT14     609      MECN     H13      HGA3     0.090000        1.0080           0
     36211 WT14     609      MECN     C2       CG1N1    0.360000       12.0110           0
     36212 WT14     609      MECN     N3       NG1T1   -0.460000       14.0070           0
     36213 WT14     610      MECN     C1       CG331   -0.170000       12.0110           0
     36214 WT14     610      MECN     H11      HGA3     0.090000        1.0080           0
     36215 WT14     610      MECN     H12      HGA3     0.090000        1.0080           0
     36216 WT14     610      MECN     H13      HGA3     0.090000        1.0080           0
     36217 WT14     610      MECN     C2       CG1N1    0.360000       12.0110           0
     36218 WT14     610      MECN     N3       NG1T1   -0.460000       14.0070           0
     36219 WT14     611      MECN     C1       CG331   -0.170000       12.0110           0
     36220 WT14     611      MECN     H11      HGA3     0.090000        1.0080           0
     36221 WT14     611      MECN     H12      HGA3     0.090000        1.0080           0
     36222 WT14     611      MECN     H13      HGA3     0.090000        1.0080           0
     36223 WT14     611      MECN     C2       CG1N1    0.360000       12.0110           0
     36224 WT14     611      MECN     N3       NG1T1   -0.460000       14.0070           0
     36225 WT14     612      MECN     C1       CG331   -0.170000       12.0110           0
     36226 WT14     612      MECN     H11      HGA3     0.090000        1.0080           0
     36227 WT14     612      MECN     H12      HGA3     0.090000        1.0080           0
     36228 WT14     612      MECN     H13      HGA3     0.090000        1.0080           0
     36229 WT14     612      MECN     C2       CG1N1    0.360000       12.0110           0
     36230 WT14     612      MECN     N3       NG1T1   -0.460000       14.0070           0
     36231 WT14     614      MECN     C1       CG331   -0.170000       12.0110           0
     36232 WT14     614      MECN     H11      HGA3     0.090000        1.0080           0
     36233 WT14     614      MECN     H12      HGA3     0.090000        1.0080           0
     36234 WT14     614      MECN     H13      HGA3     0.090000        1.0080           0
     36235 WT14     614      MECN     C2       CG1N1    0.360000       12.0110           0
     36236 WT14     614      MECN     N3       NG1T1   -0.460000       14.0070           0
     36237 WT14     615      MECN     C1       CG331   -0.170000       12.0110           0
     36238 WT14     615      MECN     H11      HGA3     0.090000        1.0080           0
     36239 WT14     615      MECN     H12      HGA3     0.090000        1.0080           0
     36240 WT14     615      MECN     H13      HGA3     0.090000        1.0080           0
     36241 WT14     615      MECN     C2       CG1N1    0.360000       12.0110           0
     36242 WT14     615      MECN     N3       NG1T1   -0.460000       14.0070           0
     36243 WT14     616      MECN     C1       CG331   -0.170000       12.0110           0
     36244 WT14     616      MECN     H11      HGA3     0.090000        1.0080           0
     36245 WT14     616      MECN     H12      HGA3     0.090000        1.0080           0
     36246 WT14     616      MECN     H13      HGA3     0.090000        1.0080           0
     36247 WT14     616      MECN     C2       CG1N1    0.360000       12.0110           0
     36248 WT14     616      MECN     N3       NG1T1   -0.460000       14.0070           0
     36249 WT14     617      MECN     C1       CG331   -0.170000       12.0110           0
     36250 WT14     617      MECN     H11      HGA3     0.090000        1.0080           0
     36251 WT14     617      MECN     H12      HGA3     0.090000        1.0080           0
     36252 WT14     617      MECN     H13      HGA3     0.090000        1.0080           0
     36253 WT14     617      MECN     C2       CG1N1    0.360000       12.0110           0
     36254 WT14     617      MECN     N3       NG1T1   -0.460000       14.0070           0
     36255 WT14     618      MECN     C1       CG331   -0.170000       12.0110           0
     36256 WT14     618      MECN     H11      HGA3     0.090000        1.0080           0
     36257 WT14     618      MECN     H12      HGA3     0.090000        1.0080           0
     36258 WT14     618      MECN     H13      HGA3     0.090000        1.0080           0
     36259 WT14     618      MECN     C2       CG1N1    0.360000       12.0110           0
     36260 WT14     618      MECN     N3       NG1T1   -0.460000       14.0070           0
     36261 WT14     619      MECN     C1       CG331   -0.170000       12.0110           0
     36262 WT14     619      MECN     H11      HGA3     0.090000        1.0080           0
     36263 WT14     619      MECN     H12      HGA3     0.090000        1.0080           0
     36264 WT14     619      MECN     H13      HGA3     0.090000        1.0080           0
     36265 WT14     619      MECN     C2       CG1N1    0.360000       12.0110           0
     36266 WT14     619      MECN     N3       NG1T1   -0.460000       14.0070           0
     36267 WT14     620      MECN     C1       CG331   -0.170000       12.0110           0
     36268 WT14     620      MECN     H11      HGA3     0.090000        1.0080           0
     36269 WT14     620      MECN     H12      HGA3     0.090000        1.0080           0
     36270 WT14     620      MECN     H13      HGA3     0.090000        1.0080           0
     36271 WT14     620      MECN     C2       CG1N1    0.360000       12.0110           0
     36272 WT14     620      MECN     N3       NG1T1   -0.460000       14.0070           0
     36273 WT14     621      MECN     C1       CG331   -0.170000       12.0110           0
     36274 WT14     621      MECN     H11      HGA3     0.090000        1.0080           0
     36275 WT14     621      MECN     H12      HGA3     0.090000        1.0080           0
     36276 WT14     621      MECN     H13      HGA3     0.090000        1.0080           0
     36277 WT14     621      MECN     C2       CG1N1    0.360000       12.0110           0
     36278 WT14     621      MECN     N3       NG1T1   -0.460000       14.0070           0
     36279 WT14     622      MECN     C1       CG331   -0.170000       12.0110           0
     36280 WT14     622      MECN     H11      HGA3     0.090000        1.0080           0
     36281 WT14     622      MECN     H12      HGA3     0.090000        1.0080           0
     36282 WT14     622      MECN     H13      HGA3     0.090000        1.0080           0
     36283 WT14     622      MECN     C2       CG1N1    0.360000       12.0110           0
     36284 WT14     622      MECN     N3       NG1T1   -0.460000       14.0070           0
     36285 WT14     624      MECN     C1       CG331   -0.170000       12.0110           0
     36286 WT14     624      MECN     H11      HGA3     0.090000        1.0080           0
     36287 WT14     624      MECN     H12      HGA3     0.090000        1.0080           0
     36288 WT14     624      MECN     H13      HGA3     0.090000        1.0080           0
     36289 WT14     624      MECN     C2       CG1N1    0.360000       12.0110           0
     36290 WT14     624      MECN     N3       NG1T1   -0.460000       14.0070           0
     36291 WT14     625      MECN     C1       CG331   -0.170000       12.0110           0
     36292 WT14     625      MECN     H11      HGA3     0.090000        1.0080           0
     36293 WT14     625      MECN     H12      HGA3     0.090000        1.0080           0
     36294 WT14     625      MECN     H13      HGA3     0.090000        1.0080           0
     36295 WT14     625      MECN     C2       CG1N1    0.360000       12.0110           0
     36296 WT14     625      MECN     N3       NG1T1   -0.460000       14.0070           0
     36297 WT14     626      MECN     C1       CG331   -0.170000       12.0110           0
     36298 WT14     626      MECN     H11      HGA3     0.090000        1.0080           0
     36299 WT14     626      MECN     H12      HGA3     0.090000        1.0080           0
     36300 WT14     626      MECN     H13      HGA3     0.090000        1.0080           0
     36301 WT14     626      MECN     C2       CG1N1    0.360000       12.0110           0
     36302 WT14     626      MECN     N3       NG1T1   -0.460000       14.0070           0
     36303 WT14     627      MECN     C1       CG331   -0.170000       12.0110           0
     36304 WT14     627      MECN     H11      HGA3     0.090000        1.0080           0
     36305 WT14     627      MECN     H12      HGA3     0.090000        1.0080           0
     36306 WT14     627      MECN     H13      HGA3     0.090000        1.0080           0
     36307 WT14     627      MECN     C2       CG1N1    0.360000       12.0110           0
     36308 WT14     627      MECN     N3       NG1T1   -0.460000       14.0070           0
     36309 WT14     628      MECN     C1       CG331   -0.170000       12.0110           0
     36310 WT14     628      MECN     H11      HGA3     0.090000        1.0080           0
     36311 WT14     628      MECN     H12      HGA3     0.090000        1.0080           0
     36312 WT14     628      MECN     H13      HGA3     0.090000        1.0080           0
     36313 WT14     628      MECN     C2       CG1N1    0.360000       12.0110           0
     36314 WT14     628      MECN     N3       NG1T1   -0.460000       14.0070           0
     36315 WT14     629      MECN     C1       CG331   -0.170000       12.0110           0
     36316 WT14     629      MECN     H11      HGA3     0.090000        1.0080           0
     36317 WT14     629      MECN     H12      HGA3     0.090000        1.0080           0
     36318 WT14     629      MECN     H13      HGA3     0.090000        1.0080           0
     36319 WT14     629      MECN     C2       CG1N1    0.360000       12.0110           0
     36320 WT14     629      MECN     N3       NG1T1   -0.460000       14.0070           0
     36321 WT14     630      MECN     C1       CG331   -0.170000       12.0110           0
     36322 WT14     630      MECN     H11      HGA3     0.090000        1.0080           0
     36323 WT14     630      MECN     H12      HGA3     0.090000        1.0080           0
     36324 WT14     630      MECN     H13      HGA3     0.090000        1.0080           0
     36325 WT14     630      MECN     C2       CG1N1    0.360000       12.0110           0
     36326 WT14     630      MECN     N3       NG1T1   -0.460000       14.0070           0
     36327 WT14     631      MECN     C1       CG331   -0.170000       12.0110           0
     36328 WT14     631      MECN     H11      HGA3     0.090000        1.0080           0
     36329 WT14     631      MECN     H12      HGA3     0.090000        1.0080           0
     36330 WT14     631      MECN     H13      HGA3     0.090000        1.0080           0
     36331 WT14     631      MECN     C2       CG1N1    0.360000       12.0110           0
     36332 WT14     631      MECN     N3       NG1T1   -0.460000       14.0070           0
     36333 WT14     632      MECN     C1       CG331   -0.170000       12.0110           0
     36334 WT14     632      MECN     H11      HGA3     0.090000        1.0080           0
     36335 WT14     632      MECN     H12      HGA3     0.090000        1.0080           0
     36336 WT14     632      MECN     H13      HGA3     0.090000        1.0080           0
     36337 WT14     632      MECN     C2       CG1N1    0.360000       12.0110           0
     36338 WT14     632      MECN     N3       NG1T1   -0.460000       14.0070           0
     36339 WT14     633      MECN     C1       CG331   -0.170000       12.0110           0
     36340 WT14     633      MECN     H11      HGA3     0.090000        1.0080           0
     36341 WT14     633      MECN     H12      HGA3     0.090000        1.0080           0
     36342 WT14     633      MECN     H13      HGA3     0.090000        1.0080           0
     36343 WT14     633      MECN     C2       CG1N1    0.360000       12.0110           0
     36344 WT14     633      MECN     N3       NG1T1   -0.460000       14.0070           0
     36345 WT14     635      MECN     C1       CG331   -0.170000       12.0110           0
     36346 WT14     635      MECN     H11      HGA3     0.090000        1.0080           0
     36347 WT14     635      MECN     H12      HGA3     0.090000        1.0080           0
     36348 WT14     635      MECN     H13      HGA3     0.090000        1.0080           0
     36349 WT14     635      MECN     C2       CG1N1    0.360000       12.0110           0
     36350 WT14     635      MECN     N3       NG1T1   -0.460000       14.0070           0
     36351 WT14     636      MECN     C1       CG331   -0.170000       12.0110           0
     36352 WT14     636      MECN     H11      HGA3     0.090000        1.0080           0
     36353 WT14     636      MECN     H12      HGA3     0.090000        1.0080           0
     36354 WT14     636      MECN     H13      HGA3     0.090000        1.0080           0
     36355 WT14     636      MECN     C2       CG1N1    0.360000       12.0110           0
     36356 WT14     636      MECN     N3       NG1T1   -0.460000       14.0070           0
     36357 WT14     637      MECN     C1       CG331   -0.170000       12.0110           0
     36358 WT14     637      MECN     H11      HGA3     0.090000        1.0080           0
     36359 WT14     637      MECN     H12      HGA3     0.090000        1.0080           0
     36360 WT14     637      MECN     H13      HGA3     0.090000        1.0080           0
     36361 WT14     637      MECN     C2       CG1N1    0.360000       12.0110           0
     36362 WT14     637      MECN     N3       NG1T1   -0.460000       14.0070           0
     36363 WT14     638      MECN     C1       CG331   -0.170000       12.0110           0
     36364 WT14     638      MECN     H11      HGA3     0.090000        1.0080           0
     36365 WT14     638      MECN     H12      HGA3     0.090000        1.0080           0
     36366 WT14     638      MECN     H13      HGA3     0.090000        1.0080           0
     36367 WT14     638      MECN     C2       CG1N1    0.360000       12.0110           0
     36368 WT14     638      MECN     N3       NG1T1   -0.460000       14.0070           0
     36369 WT14     639      MECN     C1       CG331   -0.170000       12.0110           0
     36370 WT14     639      MECN     H11      HGA3     0.090000        1.0080           0
     36371 WT14     639      MECN     H12      HGA3     0.090000        1.0080           0
     36372 WT14     639      MECN     H13      HGA3     0.090000        1.0080           0
     36373 WT14     639      MECN     C2       CG1N1    0.360000       12.0110           0
     36374 WT14     639      MECN     N3       NG1T1   -0.460000       14.0070           0
     36375 WT14     640      MECN     C1       CG331   -0.170000       12.0110           0
     36376 WT14     640      MECN     H11      HGA3     0.090000        1.0080           0
     36377 WT14     640      MECN     H12      HGA3     0.090000        1.0080           0
     36378 WT14     640      MECN     H13      HGA3     0.090000        1.0080           0
     36379 WT14     640      MECN     C2       CG1N1    0.360000       12.0110           0
     36380 WT14     640      MECN     N3       NG1T1   -0.460000       14.0070           0
     36381 WT14     641      MECN     C1       CG331   -0.170000       12.0110           0
     36382 WT14     641      MECN     H11      HGA3     0.090000        1.0080           0
     36383 WT14     641      MECN     H12      HGA3     0.090000        1.0080           0
     36384 WT14     641      MECN     H13      HGA3     0.090000        1.0080           0
     36385 WT14     641      MECN     C2       CG1N1    0.360000       12.0110           0
     36386 WT14     641      MECN     N3       NG1T1   -0.460000       14.0070           0
     36387 WT14     642      MECN     C1       CG331   -0.170000       12.0110           0
     36388 WT14     642      MECN     H11      HGA3     0.090000        1.0080           0
     36389 WT14     642      MECN     H12      HGA3     0.090000        1.0080           0
     36390 WT14     642      MECN     H13      HGA3     0.090000        1.0080           0
     36391 WT14     642      MECN     C2       CG1N1    0.360000       12.0110           0
     36392 WT14     642      MECN     N3       NG1T1   -0.460000       14.0070           0
     36393 WT14     643      MECN     C1       CG331   -0.170000       12.0110           0
     36394 WT14     643      MECN     H11      HGA3     0.090000        1.0080           0
     36395 WT14     643      MECN     H12      HGA3     0.090000        1.0080           0
     36396 WT14     643      MECN     H13      HGA3     0.090000        1.0080           0
     36397 WT14     643      MECN     C2       CG1N1    0.360000       12.0110           0
     36398 WT14     643      MECN     N3       NG1T1   -0.460000       14.0070           0
     36399 WT14     644      MECN     C1       CG331   -0.170000       12.0110           0
     36400 WT14     644      MECN     H11      HGA3     0.090000        1.0080           0
     36401 WT14     644      MECN     H12      HGA3     0.090000        1.0080           0
     36402 WT14     644      MECN     H13      HGA3     0.090000        1.0080           0
     36403 WT14     644      MECN     C2       CG1N1    0.360000       12.0110           0
     36404 WT14     644      MECN     N3       NG1T1   -0.460000       14.0070           0
     36405 WT14     645      MECN     C1       CG331   -0.170000       12.0110           0
     36406 WT14     645      MECN     H11      HGA3     0.090000        1.0080           0
     36407 WT14     645      MECN     H12      HGA3     0.090000        1.0080           0
     36408 WT14     645      MECN     H13      HGA3     0.090000        1.0080           0
     36409 WT14     645      MECN     C2       CG1N1    0.360000       12.0110           0
     36410 WT14     645      MECN     N3       NG1T1   -0.460000       14.0070           0
     36411 WT14     646      MECN     C1       CG331   -0.170000       12.0110           0
     36412 WT14     646      MECN     H11      HGA3     0.090000        1.0080           0
     36413 WT14     646      MECN     H12      HGA3     0.090000        1.0080           0
     36414 WT14     646      MECN     H13      HGA3     0.090000        1.0080           0
     36415 WT14     646      MECN     C2       CG1N1    0.360000       12.0110           0
     36416 WT14     646      MECN     N3       NG1T1   -0.460000       14.0070           0
     36417 WT14     647      MECN     C1       CG331   -0.170000       12.0110           0
     36418 WT14     647      MECN     H11      HGA3     0.090000        1.0080           0
     36419 WT14     647      MECN     H12      HGA3     0.090000        1.0080           0
     36420 WT14     647      MECN     H13      HGA3     0.090000        1.0080           0
     36421 WT14     647      MECN     C2       CG1N1    0.360000       12.0110           0
     36422 WT14     647      MECN     N3       NG1T1   -0.460000       14.0070           0
     36423 WT14     648      MECN     C1       CG331   -0.170000       12.0110           0
     36424 WT14     648      MECN     H11      HGA3     0.090000        1.0080           0
     36425 WT14     648      MECN     H12      HGA3     0.090000        1.0080           0
     36426 WT14     648      MECN     H13      HGA3     0.090000        1.0080           0
     36427 WT14     648      MECN     C2       CG1N1    0.360000       12.0110           0
     36428 WT14     648      MECN     N3       NG1T1   -0.460000       14.0070           0
     36429 WT14     649      MECN     C1       CG331   -0.170000       12.0110           0
     36430 WT14     649      MECN     H11      HGA3     0.090000        1.0080           0
     36431 WT14     649      MECN     H12      HGA3     0.090000        1.0080           0
     36432 WT14     649      MECN     H13      HGA3     0.090000        1.0080           0
     36433 WT14     649      MECN     C2       CG1N1    0.360000       12.0110           0
     36434 WT14     649      MECN     N3       NG1T1   -0.460000       14.0070           0
     36435 WT14     650      MECN     C1       CG331   -0.170000       12.0110           0
     36436 WT14     650      MECN     H11      HGA3     0.090000        1.0080           0
     36437 WT14     650      MECN     H12      HGA3     0.090000        1.0080           0
     36438 WT14     650      MECN     H13      HGA3     0.090000        1.0080           0
     36439 WT14     650      MECN     C2       CG1N1    0.360000       12.0110           0
     36440 WT14     650      MECN     N3       NG1T1   -0.460000       14.0070           0
     36441 WT14     651      MECN     C1       CG331   -0.170000       12.0110           0
     36442 WT14     651      MECN     H11      HGA3     0.090000        1.0080           0
     36443 WT14     651      MECN     H12      HGA3     0.090000        1.0080           0
     36444 WT14     651      MECN     H13      HGA3     0.090000        1.0080           0
     36445 WT14     651      MECN     C2       CG1N1    0.360000       12.0110           0
     36446 WT14     651      MECN     N3       NG1T1   -0.460000       14.0070           0
     36447 WT14     652      MECN     C1       CG331   -0.170000       12.0110           0
     36448 WT14     652      MECN     H11      HGA3     0.090000        1.0080           0
     36449 WT14     652      MECN     H12      HGA3     0.090000        1.0080           0
     36450 WT14     652      MECN     H13      HGA3     0.090000        1.0080           0
     36451 WT14     652      MECN     C2       CG1N1    0.360000       12.0110           0
     36452 WT14     652      MECN     N3       NG1T1   -0.460000       14.0070           0
     36453 WT14     653      MECN     C1       CG331   -0.170000       12.0110           0
     36454 WT14     653      MECN     H11      HGA3     0.090000        1.0080           0
     36455 WT14     653      MECN     H12      HGA3     0.090000        1.0080           0
     36456 WT14     653      MECN     H13      HGA3     0.090000        1.0080           0
     36457 WT14     653      MECN     C2       CG1N1    0.360000       12.0110           0
     36458 WT14     653      MECN     N3       NG1T1   -0.460000       14.0070           0
     36459 WT14     654      MECN     C1       CG331   -0.170000       12.0110           0
     36460 WT14     654      MECN     H11      HGA3     0.090000        1.0080           0
     36461 WT14     654      MECN     H12      HGA3     0.090000        1.0080           0
     36462 WT14     654      MECN     H13      HGA3     0.090000        1.0080           0
     36463 WT14     654      MECN     C2       CG1N1    0.360000       12.0110           0
     36464 WT14     654      MECN     N3       NG1T1   -0.460000       14.0070           0
     36465 WT14     655      MECN     C1       CG331   -0.170000       12.0110           0
     36466 WT14     655      MECN     H11      HGA3     0.090000        1.0080           0
     36467 WT14     655      MECN     H12      HGA3     0.090000        1.0080           0
     36468 WT14     655      MECN     H13      HGA3     0.090000        1.0080           0
     36469 WT14     655      MECN     C2       CG1N1    0.360000       12.0110           0
     36470 WT14     655      MECN     N3       NG1T1   -0.460000       14.0070           0
     36471 WT14     656      MECN     C1       CG331   -0.170000       12.0110           0
     36472 WT14     656      MECN     H11      HGA3     0.090000        1.0080           0
     36473 WT14     656      MECN     H12      HGA3     0.090000        1.0080           0
     36474 WT14     656      MECN     H13      HGA3     0.090000        1.0080           0
     36475 WT14     656      MECN     C2       CG1N1    0.360000       12.0110           0
     36476 WT14     656      MECN     N3       NG1T1   -0.460000       14.0070           0
     36477 WT14     657      MECN     C1       CG331   -0.170000       12.0110           0
     36478 WT14     657      MECN     H11      HGA3     0.090000        1.0080           0
     36479 WT14     657      MECN     H12      HGA3     0.090000        1.0080           0
     36480 WT14     657      MECN     H13      HGA3     0.090000        1.0080           0
     36481 WT14     657      MECN     C2       CG1N1    0.360000       12.0110           0
     36482 WT14     657      MECN     N3       NG1T1   -0.460000       14.0070           0
     36483 WT14     658      MECN     C1       CG331   -0.170000       12.0110           0
     36484 WT14     658      MECN     H11      HGA3     0.090000        1.0080           0
     36485 WT14     658      MECN     H12      HGA3     0.090000        1.0080           0
     36486 WT14     658      MECN     H13      HGA3     0.090000        1.0080           0
     36487 WT14     658      MECN     C2       CG1N1    0.360000       12.0110           0
     36488 WT14     658      MECN     N3       NG1T1   -0.460000       14.0070           0
     36489 WT14     660      MECN     C1       CG331   -0.170000       12.0110           0
     36490 WT14     660      MECN     H11      HGA3     0.090000        1.0080           0
     36491 WT14     660      MECN     H12      HGA3     0.090000        1.0080           0
     36492 WT14     660      MECN     H13      HGA3     0.090000        1.0080           0
     36493 WT14     660      MECN     C2       CG1N1    0.360000       12.0110           0
     36494 WT14     660      MECN     N3       NG1T1   -0.460000       14.0070           0
     36495 WT14     661      MECN     C1       CG331   -0.170000       12.0110           0
     36496 WT14     661      MECN     H11      HGA3     0.090000        1.0080           0
     36497 WT14     661      MECN     H12      HGA3     0.090000        1.0080           0
     36498 WT14     661      MECN     H13      HGA3     0.090000        1.0080           0
     36499 WT14     661      MECN     C2       CG1N1    0.360000       12.0110           0
     36500 WT14     661      MECN     N3       NG1T1   -0.460000       14.0070           0
     36501 WT14     662      MECN     C1       CG331   -0.170000       12.0110           0
     36502 WT14     662      MECN     H11      HGA3     0.090000        1.0080           0
     36503 WT14     662      MECN     H12      HGA3     0.090000        1.0080           0
     36504 WT14     662      MECN     H13      HGA3     0.090000        1.0080           0
     36505 WT14     662      MECN     C2       CG1N1    0.360000       12.0110           0
     36506 WT14     662      MECN     N3       NG1T1   -0.460000       14.0070           0
     36507 WT14     663      MECN     C1       CG331   -0.170000       12.0110           0
     36508 WT14     663      MECN     H11      HGA3     0.090000        1.0080           0
     36509 WT14     663      MECN     H12      HGA3     0.090000        1.0080           0
     36510 WT14     663      MECN     H13      HGA3     0.090000        1.0080           0
     36511 WT14     663      MECN     C2       CG1N1    0.360000       12.0110           0
     36512 WT14     663      MECN     N3       NG1T1   -0.460000       14.0070           0
     36513 WT14     664      MECN     C1       CG331   -0.170000       12.0110           0
     36514 WT14     664      MECN     H11      HGA3     0.090000        1.0080           0
     36515 WT14     664      MECN     H12      HGA3     0.090000        1.0080           0
     36516 WT14     664      MECN     H13      HGA3     0.090000        1.0080           0
     36517 WT14     664      MECN     C2       CG1N1    0.360000       12.0110           0
     36518 WT14     664      MECN     N3       NG1T1   -0.460000       14.0070           0
     36519 WT14     665      MECN     C1       CG331   -0.170000       12.0110           0
     36520 WT14     665      MECN     H11      HGA3     0.090000        1.0080           0
     36521 WT14     665      MECN     H12      HGA3     0.090000        1.0080           0
     36522 WT14     665      MECN     H13      HGA3     0.090000        1.0080           0
     36523 WT14     665      MECN     C2       CG1N1    0.360000       12.0110           0
     36524 WT14     665      MECN     N3       NG1T1   -0.460000       14.0070           0
     36525 WT14     666      MECN     C1       CG331   -0.170000       12.0110           0
     36526 WT14     666      MECN     H11      HGA3     0.090000        1.0080           0
     36527 WT14     666      MECN     H12      HGA3     0.090000        1.0080           0
     36528 WT14     666      MECN     H13      HGA3     0.090000        1.0080           0
     36529 WT14     666      MECN     C2       CG1N1    0.360000       12.0110           0
     36530 WT14     666      MECN     N3       NG1T1   -0.460000       14.0070           0
     36531 WT14     667      MECN     C1       CG331   -0.170000       12.0110           0
     36532 WT14     667      MECN     H11      HGA3     0.090000        1.0080           0
     36533 WT14     667      MECN     H12      HGA3     0.090000        1.0080           0
     36534 WT14     667      MECN     H13      HGA3     0.090000        1.0080           0
     36535 WT14     667      MECN     C2       CG1N1    0.360000       12.0110           0
     36536 WT14     667      MECN     N3       NG1T1   -0.460000       14.0070           0
     36537 WT14     668      MECN     C1       CG331   -0.170000       12.0110           0
     36538 WT14     668      MECN     H11      HGA3     0.090000        1.0080           0
     36539 WT14     668      MECN     H12      HGA3     0.090000        1.0080           0
     36540 WT14     668      MECN     H13      HGA3     0.090000        1.0080           0
     36541 WT14     668      MECN     C2       CG1N1    0.360000       12.0110           0
     36542 WT14     668      MECN     N3       NG1T1   -0.460000       14.0070           0
     36543 WT14     669      MECN     C1       CG331   -0.170000       12.0110           0
     36544 WT14     669      MECN     H11      HGA3     0.090000        1.0080           0
     36545 WT14     669      MECN     H12      HGA3     0.090000        1.0080           0
     36546 WT14     669      MECN     H13      HGA3     0.090000        1.0080           0
     36547 WT14     669      MECN     C2       CG1N1    0.360000       12.0110           0
     36548 WT14     669      MECN     N3       NG1T1   -0.460000       14.0070           0
     36549 WT14     670      MECN     C1       CG331   -0.170000       12.0110           0
     36550 WT14     670      MECN     H11      HGA3     0.090000        1.0080           0
     36551 WT14     670      MECN     H12      HGA3     0.090000        1.0080           0
     36552 WT14     670      MECN     H13      HGA3     0.090000        1.0080           0
     36553 WT14     670      MECN     C2       CG1N1    0.360000       12.0110           0
     36554 WT14     670      MECN     N3       NG1T1   -0.460000       14.0070           0
     36555 WT14     671      MECN     C1       CG331   -0.170000       12.0110           0
     36556 WT14     671      MECN     H11      HGA3     0.090000        1.0080           0
     36557 WT14     671      MECN     H12      HGA3     0.090000        1.0080           0
     36558 WT14     671      MECN     H13      HGA3     0.090000        1.0080           0
     36559 WT14     671      MECN     C2       CG1N1    0.360000       12.0110           0
     36560 WT14     671      MECN     N3       NG1T1   -0.460000       14.0070           0
     36561 WT14     672      MECN     C1       CG331   -0.170000       12.0110           0
     36562 WT14     672      MECN     H11      HGA3     0.090000        1.0080           0
     36563 WT14     672      MECN     H12      HGA3     0.090000        1.0080           0
     36564 WT14     672      MECN     H13      HGA3     0.090000        1.0080           0
     36565 WT14     672      MECN     C2       CG1N1    0.360000       12.0110           0
     36566 WT14     672      MECN     N3       NG1T1   -0.460000       14.0070           0
     36567 WT14     673      MECN     C1       CG331   -0.170000       12.0110           0
     36568 WT14     673      MECN     H11      HGA3     0.090000        1.0080           0
     36569 WT14     673      MECN     H12      HGA3     0.090000        1.0080           0
     36570 WT14     673      MECN     H13      HGA3     0.090000        1.0080           0
     36571 WT14     673      MECN     C2       CG1N1    0.360000       12.0110           0
     36572 WT14     673      MECN     N3       NG1T1   -0.460000       14.0070           0
     36573 WT14     675      MECN     C1       CG331   -0.170000       12.0110           0
     36574 WT14     675      MECN     H11      HGA3     0.090000        1.0080           0
     36575 WT14     675      MECN     H12      HGA3     0.090000        1.0080           0
     36576 WT14     675      MECN     H13      HGA3     0.090000        1.0080           0
     36577 WT14     675      MECN     C2       CG1N1    0.360000       12.0110           0
     36578 WT14     675      MECN     N3       NG1T1   -0.460000       14.0070           0
     36579 WT14     676      MECN     C1       CG331   -0.170000       12.0110           0
     36580 WT14     676      MECN     H11      HGA3     0.090000        1.0080           0
     36581 WT14     676      MECN     H12      HGA3     0.090000        1.0080           0
     36582 WT14     676      MECN     H13      HGA3     0.090000        1.0080           0
     36583 WT14     676      MECN     C2       CG1N1    0.360000       12.0110           0
     36584 WT14     676      MECN     N3       NG1T1   -0.460000       14.0070           0
     36585 WT14     677      MECN     C1       CG331   -0.170000       12.0110           0
     36586 WT14     677      MECN     H11      HGA3     0.090000        1.0080           0
     36587 WT14     677      MECN     H12      HGA3     0.090000        1.0080           0
     36588 WT14     677      MECN     H13      HGA3     0.090000        1.0080           0
     36589 WT14     677      MECN     C2       CG1N1    0.360000       12.0110           0
     36590 WT14     677      MECN     N3       NG1T1   -0.460000       14.0070           0
     36591 WT14     678      MECN     C1       CG331   -0.170000       12.0110           0
     36592 WT14     678      MECN     H11      HGA3     0.090000        1.0080           0
     36593 WT14     678      MECN     H12      HGA3     0.090000        1.0080           0
     36594 WT14     678      MECN     H13      HGA3     0.090000        1.0080           0
     36595 WT14     678      MECN     C2       CG1N1    0.360000       12.0110           0
     36596 WT14     678      MECN     N3       NG1T1   -0.460000       14.0070           0
     36597 WT14     679      MECN     C1       CG331   -0.170000       12.0110           0
     36598 WT14     679      MECN     H11      HGA3     0.090000        1.0080           0
     36599 WT14     679      MECN     H12      HGA3     0.090000        1.0080           0
     36600 WT14     679      MECN     H13      HGA3     0.090000        1.0080           0
     36601 WT14     679      MECN     C2       CG1N1    0.360000       12.0110           0
     36602 WT14     679      MECN     N3       NG1T1   -0.460000       14.0070           0
     36603 WT14     681      MECN     C1       CG331   -0.170000       12.0110           0
     36604 WT14     681      MECN     H11      HGA3     0.090000        1.0080           0
     36605 WT14     681      MECN     H12      HGA3     0.090000        1.0080           0
     36606 WT14     681      MECN     H13      HGA3     0.090000        1.0080           0
     36607 WT14     681      MECN     C2       CG1N1    0.360000       12.0110           0
     36608 WT14     681      MECN     N3       NG1T1   -0.460000       14.0070           0
     36609 WT14     683      MECN     C1       CG331   -0.170000       12.0110           0
     36610 WT14     683      MECN     H11      HGA3     0.090000        1.0080           0
     36611 WT14     683      MECN     H12      HGA3     0.090000        1.0080           0
     36612 WT14     683      MECN     H13      HGA3     0.090000        1.0080           0
     36613 WT14     683      MECN     C2       CG1N1    0.360000       12.0110           0
     36614 WT14     683      MECN     N3       NG1T1   -0.460000       14.0070           0
     36615 WT14     684      MECN     C1       CG331   -0.170000       12.0110           0
     36616 WT14     684      MECN     H11      HGA3     0.090000        1.0080           0
     36617 WT14     684      MECN     H12      HGA3     0.090000        1.0080           0
     36618 WT14     684      MECN     H13      HGA3     0.090000        1.0080           0
     36619 WT14     684      MECN     C2       CG1N1    0.360000       12.0110           0
     36620 WT14     684      MECN     N3       NG1T1   -0.460000       14.0070           0
     36621 WT14     685      MECN     C1       CG331   -0.170000       12.0110           0
     36622 WT14     685      MECN     H11      HGA3     0.090000        1.0080           0
     36623 WT14     685      MECN     H12      HGA3     0.090000        1.0080           0
     36624 WT14     685      MECN     H13      HGA3     0.090000        1.0080           0
     36625 WT14     685      MECN     C2       CG1N1    0.360000       12.0110           0
     36626 WT14     685      MECN     N3       NG1T1   -0.460000       14.0070           0
     36627 WT14     686      MECN     C1       CG331   -0.170000       12.0110           0
     36628 WT14     686      MECN     H11      HGA3     0.090000        1.0080           0
     36629 WT14     686      MECN     H12      HGA3     0.090000        1.0080           0
     36630 WT14     686      MECN     H13      HGA3     0.090000        1.0080           0
     36631 WT14     686      MECN     C2       CG1N1    0.360000       12.0110           0
     36632 WT14     686      MECN     N3       NG1T1   -0.460000       14.0070           0
     36633 WT14     687      MECN     C1       CG331   -0.170000       12.0110           0
     36634 WT14     687      MECN     H11      HGA3     0.090000        1.0080           0
     36635 WT14     687      MECN     H12      HGA3     0.090000        1.0080           0
     36636 WT14     687      MECN     H13      HGA3     0.090000        1.0080           0
     36637 WT14     687      MECN     C2       CG1N1    0.360000       12.0110           0
     36638 WT14     687      MECN     N3       NG1T1   -0.460000       14.0070           0
     36639 WT14     688      MECN     C1       CG331   -0.170000       12.0110           0
     36640 WT14     688      MECN     H11      HGA3     0.090000        1.0080           0
     36641 WT14     688      MECN     H12      HGA3     0.090000        1.0080           0
     36642 WT14     688      MECN     H13      HGA3     0.090000        1.0080           0
     36643 WT14     688      MECN     C2       CG1N1    0.360000       12.0110           0
     36644 WT14     688      MECN     N3       NG1T1   -0.460000       14.0070           0
     36645 WT14     689      MECN     C1       CG331   -0.170000       12.0110           0
     36646 WT14     689      MECN     H11      HGA3     0.090000        1.0080           0
     36647 WT14     689      MECN     H12      HGA3     0.090000        1.0080           0
     36648 WT14     689      MECN     H13      HGA3     0.090000        1.0080           0
     36649 WT14     689      MECN     C2       CG1N1    0.360000       12.0110           0
     36650 WT14     689      MECN     N3       NG1T1   -0.460000       14.0070           0
     36651 WT14     690      MECN     C1       CG331   -0.170000       12.0110           0
     36652 WT14     690      MECN     H11      HGA3     0.090000        1.0080           0
     36653 WT14     690      MECN     H12      HGA3     0.090000        1.0080           0
     36654 WT14     690      MECN     H13      HGA3     0.090000        1.0080           0
     36655 WT14     690      MECN     C2       CG1N1    0.360000       12.0110           0
     36656 WT14     690      MECN     N3       NG1T1   -0.460000       14.0070           0
     36657 WT14     691      MECN     C1       CG331   -0.170000       12.0110           0
     36658 WT14     691      MECN     H11      HGA3     0.090000        1.0080           0
     36659 WT14     691      MECN     H12      HGA3     0.090000        1.0080           0
     36660 WT14     691      MECN     H13      HGA3     0.090000        1.0080           0
     36661 WT14     691      MECN     C2       CG1N1    0.360000       12.0110           0
     36662 WT14     691      MECN     N3       NG1T1   -0.460000       14.0070           0
     36663 WT14     692      MECN     C1       CG331   -0.170000       12.0110           0
     36664 WT14     692      MECN     H11      HGA3     0.090000        1.0080           0
     36665 WT14     692      MECN     H12      HGA3     0.090000        1.0080           0
     36666 WT14     692      MECN     H13      HGA3     0.090000        1.0080           0
     36667 WT14     692      MECN     C2       CG1N1    0.360000       12.0110           0
     36668 WT14     692      MECN     N3       NG1T1   -0.460000       14.0070           0
     36669 WT14     693      MECN     C1       CG331   -0.170000       12.0110           0
     36670 WT14     693      MECN     H11      HGA3     0.090000        1.0080           0
     36671 WT14     693      MECN     H12      HGA3     0.090000        1.0080           0
     36672 WT14     693      MECN     H13      HGA3     0.090000        1.0080           0
     36673 WT14     693      MECN     C2       CG1N1    0.360000       12.0110           0
     36674 WT14     693      MECN     N3       NG1T1   -0.460000       14.0070           0
     36675 WT14     694      MECN     C1       CG331   -0.170000       12.0110           0
     36676 WT14     694      MECN     H11      HGA3     0.090000        1.0080           0
     36677 WT14     694      MECN     H12      HGA3     0.090000        1.0080           0
     36678 WT14     694      MECN     H13      HGA3     0.090000        1.0080           0
     36679 WT14     694      MECN     C2       CG1N1    0.360000       12.0110           0
     36680 WT14     694      MECN     N3       NG1T1   -0.460000       14.0070           0
     36681 WT14     695      MECN     C1       CG331   -0.170000       12.0110           0
     36682 WT14     695      MECN     H11      HGA3     0.090000        1.0080           0
     36683 WT14     695      MECN     H12      HGA3     0.090000        1.0080           0
     36684 WT14     695      MECN     H13      HGA3     0.090000        1.0080           0
     36685 WT14     695      MECN     C2       CG1N1    0.360000       12.0110           0
     36686 WT14     695      MECN     N3       NG1T1   -0.460000       14.0070           0
     36687 WT14     696      MECN     C1       CG331   -0.170000       12.0110           0
     36688 WT14     696      MECN     H11      HGA3     0.090000        1.0080           0
     36689 WT14     696      MECN     H12      HGA3     0.090000        1.0080           0
     36690 WT14     696      MECN     H13      HGA3     0.090000        1.0080           0
     36691 WT14     696      MECN     C2       CG1N1    0.360000       12.0110           0
     36692 WT14     696      MECN     N3       NG1T1   -0.460000       14.0070           0
     36693 WT14     697      MECN     C1       CG331   -0.170000       12.0110           0
     36694 WT14     697      MECN     H11      HGA3     0.090000        1.0080           0
     36695 WT14     697      MECN     H12      HGA3     0.090000        1.0080           0
     36696 WT14     697      MECN     H13      HGA3     0.090000        1.0080           0
     36697 WT14     697      MECN     C2       CG1N1    0.360000       12.0110           0
     36698 WT14     697      MECN     N3       NG1T1   -0.460000       14.0070           0
     36699 WT14     698      MECN     C1       CG331   -0.170000       12.0110           0
     36700 WT14     698      MECN     H11      HGA3     0.090000        1.0080           0
     36701 WT14     698      MECN     H12      HGA3     0.090000        1.0080           0
     36702 WT14     698      MECN     H13      HGA3     0.090000        1.0080           0
     36703 WT14     698      MECN     C2       CG1N1    0.360000       12.0110           0
     36704 WT14     698      MECN     N3       NG1T1   -0.460000       14.0070           0
     36705 WT14     699      MECN     C1       CG331   -0.170000       12.0110           0
     36706 WT14     699      MECN     H11      HGA3     0.090000        1.0080           0
     36707 WT14     699      MECN     H12      HGA3     0.090000        1.0080           0
     36708 WT14     699      MECN     H13      HGA3     0.090000        1.0080           0
     36709 WT14     699      MECN     C2       CG1N1    0.360000       12.0110           0
     36710 WT14     699      MECN     N3       NG1T1   -0.460000       14.0070           0
     36711 WT14     701      MECN     C1       CG331   -0.170000       12.0110           0
     36712 WT14     701      MECN     H11      HGA3     0.090000        1.0080           0
     36713 WT14     701      MECN     H12      HGA3     0.090000        1.0080           0
     36714 WT14     701      MECN     H13      HGA3     0.090000        1.0080           0
     36715 WT14     701      MECN     C2       CG1N1    0.360000       12.0110           0
     36716 WT14     701      MECN     N3       NG1T1   -0.460000       14.0070           0
     36717 WT14     702      MECN     C1       CG331   -0.170000       12.0110           0
     36718 WT14     702      MECN     H11      HGA3     0.090000        1.0080           0
     36719 WT14     702      MECN     H12      HGA3     0.090000        1.0080           0
     36720 WT14     702      MECN     H13      HGA3     0.090000        1.0080           0
     36721 WT14     702      MECN     C2       CG1N1    0.360000       12.0110           0
     36722 WT14     702      MECN     N3       NG1T1   -0.460000       14.0070           0
     36723 WT14     703      MECN     C1       CG331   -0.170000       12.0110           0
     36724 WT14     703      MECN     H11      HGA3     0.090000        1.0080           0
     36725 WT14     703      MECN     H12      HGA3     0.090000        1.0080           0
     36726 WT14     703      MECN     H13      HGA3     0.090000        1.0080           0
     36727 WT14     703      MECN     C2       CG1N1    0.360000       12.0110           0
     36728 WT14     703      MECN     N3       NG1T1   -0.460000       14.0070           0
     36729 WT14     704      MECN     C1       CG331   -0.170000       12.0110           0
     36730 WT14     704      MECN     H11      HGA3     0.090000        1.0080           0
     36731 WT14     704      MECN     H12      HGA3     0.090000        1.0080           0
     36732 WT14     704      MECN     H13      HGA3     0.090000        1.0080           0
     36733 WT14     704      MECN     C2       CG1N1    0.360000       12.0110           0
     36734 WT14     704      MECN     N3       NG1T1   -0.460000       14.0070           0
     36735 WT14     705      MECN     C1       CG331   -0.170000       12.0110           0
     36736 WT14     705      MECN     H11      HGA3     0.090000        1.0080           0
     36737 WT14     705      MECN     H12      HGA3     0.090000        1.0080           0
     36738 WT14     705      MECN     H13      HGA3     0.090000        1.0080           0
     36739 WT14     705      MECN     C2       CG1N1    0.360000       12.0110           0
     36740 WT14     705      MECN     N3       NG1T1   -0.460000       14.0070           0
     36741 WT14     707      MECN     C1       CG331   -0.170000       12.0110           0
     36742 WT14     707      MECN     H11      HGA3     0.090000        1.0080           0
     36743 WT14     707      MECN     H12      HGA3     0.090000        1.0080           0
     36744 WT14     707      MECN     H13      HGA3     0.090000        1.0080           0
     36745 WT14     707      MECN     C2       CG1N1    0.360000       12.0110           0
     36746 WT14     707      MECN     N3       NG1T1   -0.460000       14.0070           0
     36747 WT14     708      MECN     C1       CG331   -0.170000       12.0110           0
     36748 WT14     708      MECN     H11      HGA3     0.090000        1.0080           0
     36749 WT14     708      MECN     H12      HGA3     0.090000        1.0080           0
     36750 WT14     708      MECN     H13      HGA3     0.090000        1.0080           0
     36751 WT14     708      MECN     C2       CG1N1    0.360000       12.0110           0
     36752 WT14     708      MECN     N3       NG1T1   -0.460000       14.0070           0
     36753 WT14     711      MECN     C1       CG331   -0.170000       12.0110           0
     36754 WT14     711      MECN     H11      HGA3     0.090000        1.0080           0
     36755 WT14     711      MECN     H12      HGA3     0.090000        1.0080           0
     36756 WT14     711      MECN     H13      HGA3     0.090000        1.0080           0
     36757 WT14     711      MECN     C2       CG1N1    0.360000       12.0110           0
     36758 WT14     711      MECN     N3       NG1T1   -0.460000       14.0070           0
     36759 WT14     712      MECN     C1       CG331   -0.170000       12.0110           0
     36760 WT14     712      MECN     H11      HGA3     0.090000        1.0080           0
     36761 WT14     712      MECN     H12      HGA3     0.090000        1.0080           0
     36762 WT14     712      MECN     H13      HGA3     0.090000        1.0080           0
     36763 WT14     712      MECN     C2       CG1N1    0.360000       12.0110           0
     36764 WT14     712      MECN     N3       NG1T1   -0.460000       14.0070           0
     36765 WT14     713      MECN     C1       CG331   -0.170000       12.0110           0
     36766 WT14     713      MECN     H11      HGA3     0.090000        1.0080           0
     36767 WT14     713      MECN     H12      HGA3     0.090000        1.0080           0
     36768 WT14     713      MECN     H13      HGA3     0.090000        1.0080           0
     36769 WT14     713      MECN     C2       CG1N1    0.360000       12.0110           0
     36770 WT14     713      MECN     N3       NG1T1   -0.460000       14.0070           0
     36771 WT14     715      MECN     C1       CG331   -0.170000       12.0110           0
     36772 WT14     715      MECN     H11      HGA3     0.090000        1.0080           0
     36773 WT14     715      MECN     H12      HGA3     0.090000        1.0080           0
     36774 WT14     715      MECN     H13      HGA3     0.090000        1.0080           0
     36775 WT14     715      MECN     C2       CG1N1    0.360000       12.0110           0
     36776 WT14     715      MECN     N3       NG1T1   -0.460000       14.0070           0
     36777 WT14     716      MECN     C1       CG331   -0.170000       12.0110           0
     36778 WT14     716      MECN     H11      HGA3     0.090000        1.0080           0
     36779 WT14     716      MECN     H12      HGA3     0.090000        1.0080           0
     36780 WT14     716      MECN     H13      HGA3     0.090000        1.0080           0
     36781 WT14     716      MECN     C2       CG1N1    0.360000       12.0110           0
     36782 WT14     716      MECN     N3       NG1T1   -0.460000       14.0070           0
     36783 WT14     718      MECN     C1       CG331   -0.170000       12.0110           0
     36784 WT14     718      MECN     H11      HGA3     0.090000        1.0080           0
     36785 WT14     718      MECN     H12      HGA3     0.090000        1.0080           0
     36786 WT14     718      MECN     H13      HGA3     0.090000        1.0080           0
     36787 WT14     718      MECN     C2       CG1N1    0.360000       12.0110           0
     36788 WT14     718      MECN     N3       NG1T1   -0.460000       14.0070           0
     36789 WT14     719      MECN     C1       CG331   -0.170000       12.0110           0
     36790 WT14     719      MECN     H11      HGA3     0.090000        1.0080           0
     36791 WT14     719      MECN     H12      HGA3     0.090000        1.0080           0
     36792 WT14     719      MECN     H13      HGA3     0.090000        1.0080           0
     36793 WT14     719      MECN     C2       CG1N1    0.360000       12.0110           0
     36794 WT14     719      MECN     N3       NG1T1   -0.460000       14.0070           0
     36795 WT14     720      MECN     C1       CG331   -0.170000       12.0110           0
     36796 WT14     720      MECN     H11      HGA3     0.090000        1.0080           0
     36797 WT14     720      MECN     H12      HGA3     0.090000        1.0080           0
     36798 WT14     720      MECN     H13      HGA3     0.090000        1.0080           0
     36799 WT14     720      MECN     C2       CG1N1    0.360000       12.0110           0
     36800 WT14     720      MECN     N3       NG1T1   -0.460000       14.0070           0
     36801 WT14     721      MECN     C1       CG331   -0.170000       12.0110           0
     36802 WT14     721      MECN     H11      HGA3     0.090000        1.0080           0
     36803 WT14     721      MECN     H12      HGA3     0.090000        1.0080           0
     36804 WT14     721      MECN     H13      HGA3     0.090000        1.0080           0
     36805 WT14     721      MECN     C2       CG1N1    0.360000       12.0110           0
     36806 WT14     721      MECN     N3       NG1T1   -0.460000       14.0070           0
     36807 WT14     722      MECN     C1       CG331   -0.170000       12.0110           0
     36808 WT14     722      MECN     H11      HGA3     0.090000        1.0080           0
     36809 WT14     722      MECN     H12      HGA3     0.090000        1.0080           0
     36810 WT14     722      MECN     H13      HGA3     0.090000        1.0080           0
     36811 WT14     722      MECN     C2       CG1N1    0.360000       12.0110           0
     36812 WT14     722      MECN     N3       NG1T1   -0.460000       14.0070           0
     36813 WT14     723      MECN     C1       CG331   -0.170000       12.0110           0
     36814 WT14     723      MECN     H11      HGA3     0.090000        1.0080           0
     36815 WT14     723      MECN     H12      HGA3     0.090000        1.0080           0
     36816 WT14     723      MECN     H13      HGA3     0.090000        1.0080           0
     36817 WT14     723      MECN     C2       CG1N1    0.360000       12.0110           0
     36818 WT14     723      MECN     N3       NG1T1   -0.460000       14.0070           0
     36819 WT14     724      MECN     C1       CG331   -0.170000       12.0110           0
     36820 WT14     724      MECN     H11      HGA3     0.090000        1.0080           0
     36821 WT14     724      MECN     H12      HGA3     0.090000        1.0080           0
     36822 WT14     724      MECN     H13      HGA3     0.090000        1.0080           0
     36823 WT14     724      MECN     C2       CG1N1    0.360000       12.0110           0
     36824 WT14     724      MECN     N3       NG1T1   -0.460000       14.0070           0
     36825 WT14     725      MECN     C1       CG331   -0.170000       12.0110           0
     36826 WT14     725      MECN     H11      HGA3     0.090000        1.0080           0
     36827 WT14     725      MECN     H12      HGA3     0.090000        1.0080           0
     36828 WT14     725      MECN     H13      HGA3     0.090000        1.0080           0
     36829 WT14     725      MECN     C2       CG1N1    0.360000       12.0110           0
     36830 WT14     725      MECN     N3       NG1T1   -0.460000       14.0070           0
     36831 WT14     727      MECN     C1       CG331   -0.170000       12.0110           0
     36832 WT14     727      MECN     H11      HGA3     0.090000        1.0080           0
     36833 WT14     727      MECN     H12      HGA3     0.090000        1.0080           0
     36834 WT14     727      MECN     H13      HGA3     0.090000        1.0080           0
     36835 WT14     727      MECN     C2       CG1N1    0.360000       12.0110           0
     36836 WT14     727      MECN     N3       NG1T1   -0.460000       14.0070           0
     36837 WT14     728      MECN     C1       CG331   -0.170000       12.0110           0
     36838 WT14     728      MECN     H11      HGA3     0.090000        1.0080           0
     36839 WT14     728      MECN     H12      HGA3     0.090000        1.0080           0
     36840 WT14     728      MECN     H13      HGA3     0.090000        1.0080           0
     36841 WT14     728      MECN     C2       CG1N1    0.360000       12.0110           0
     36842 WT14     728      MECN     N3       NG1T1   -0.460000       14.0070           0
     36843 WT14     729      MECN     C1       CG331   -0.170000       12.0110           0
     36844 WT14     729      MECN     H11      HGA3     0.090000        1.0080           0
     36845 WT14     729      MECN     H12      HGA3     0.090000        1.0080           0
     36846 WT14     729      MECN     H13      HGA3     0.090000        1.0080           0
     36847 WT14     729      MECN     C2       CG1N1    0.360000       12.0110           0
     36848 WT14     729      MECN     N3       NG1T1   -0.460000       14.0070           0
     36849 WT14     730      MECN     C1       CG331   -0.170000       12.0110           0
     36850 WT14     730      MECN     H11      HGA3     0.090000        1.0080           0
     36851 WT14     730      MECN     H12      HGA3     0.090000        1.0080           0
     36852 WT14     730      MECN     H13      HGA3     0.090000        1.0080           0
     36853 WT14     730      MECN     C2       CG1N1    0.360000       12.0110           0
     36854 WT14     730      MECN     N3       NG1T1   -0.460000       14.0070           0
     36855 WT14     732      MECN     C1       CG331   -0.170000       12.0110           0
     36856 WT14     732      MECN     H11      HGA3     0.090000        1.0080           0
     36857 WT14     732      MECN     H12      HGA3     0.090000        1.0080           0
     36858 WT14     732      MECN     H13      HGA3     0.090000        1.0080           0
     36859 WT14     732      MECN     C2       CG1N1    0.360000       12.0110           0
     36860 WT14     732      MECN     N3       NG1T1   -0.460000       14.0070           0
     36861 WT14     733      MECN     C1       CG331   -0.170000       12.0110           0
     36862 WT14     733      MECN     H11      HGA3     0.090000        1.0080           0
     36863 WT14     733      MECN     H12      HGA3     0.090000        1.0080           0
     36864 WT14     733      MECN     H13      HGA3     0.090000        1.0080           0
     36865 WT14     733      MECN     C2       CG1N1    0.360000       12.0110           0
     36866 WT14     733      MECN     N3       NG1T1   -0.460000       14.0070           0
     36867 WT14     734      MECN     C1       CG331   -0.170000       12.0110           0
     36868 WT14     734      MECN     H11      HGA3     0.090000        1.0080           0
     36869 WT14     734      MECN     H12      HGA3     0.090000        1.0080           0
     36870 WT14     734      MECN     H13      HGA3     0.090000        1.0080           0
     36871 WT14     734      MECN     C2       CG1N1    0.360000       12.0110           0
     36872 WT14     734      MECN     N3       NG1T1   -0.460000       14.0070           0
     36873 WT14     735      MECN     C1       CG331   -0.170000       12.0110           0
     36874 WT14     735      MECN     H11      HGA3     0.090000        1.0080           0
     36875 WT14     735      MECN     H12      HGA3     0.090000        1.0080           0
     36876 WT14     735      MECN     H13      HGA3     0.090000        1.0080           0
     36877 WT14     735      MECN     C2       CG1N1    0.360000       12.0110           0
     36878 WT14     735      MECN     N3       NG1T1   -0.460000       14.0070           0
     36879 WT14     736      MECN     C1       CG331   -0.170000       12.0110           0
     36880 WT14     736      MECN     H11      HGA3     0.090000        1.0080           0
     36881 WT14     736      MECN     H12      HGA3     0.090000        1.0080           0
     36882 WT14     736      MECN     H13      HGA3     0.090000        1.0080           0
     36883 WT14     736      MECN     C2       CG1N1    0.360000       12.0110           0
     36884 WT14     736      MECN     N3       NG1T1   -0.460000       14.0070           0
     36885 WT14     737      MECN     C1       CG331   -0.170000       12.0110           0
     36886 WT14     737      MECN     H11      HGA3     0.090000        1.0080           0
     36887 WT14     737      MECN     H12      HGA3     0.090000        1.0080           0
     36888 WT14     737      MECN     H13      HGA3     0.090000        1.0080           0
     36889 WT14     737      MECN     C2       CG1N1    0.360000       12.0110           0
     36890 WT14     737      MECN     N3       NG1T1   -0.460000       14.0070           0
     36891 WT14     738      MECN     C1       CG331   -0.170000       12.0110           0
     36892 WT14     738      MECN     H11      HGA3     0.090000        1.0080           0
     36893 WT14     738      MECN     H12      HGA3     0.090000        1.0080           0
     36894 WT14     738      MECN     H13      HGA3     0.090000        1.0080           0
     36895 WT14     738      MECN     C2       CG1N1    0.360000       12.0110           0
     36896 WT14     738      MECN     N3       NG1T1   -0.460000       14.0070           0
     36897 WT14     739      MECN     C1       CG331   -0.170000       12.0110           0
     36898 WT14     739      MECN     H11      HGA3     0.090000        1.0080           0
     36899 WT14     739      MECN     H12      HGA3     0.090000        1.0080           0
     36900 WT14     739      MECN     H13      HGA3     0.090000        1.0080           0
     36901 WT14     739      MECN     C2       CG1N1    0.360000       12.0110           0
     36902 WT14     739      MECN     N3       NG1T1   -0.460000       14.0070           0
     36903 WT14     740      MECN     C1       CG331   -0.170000       12.0110           0
     36904 WT14     740      MECN     H11      HGA3     0.090000        1.0080           0
     36905 WT14     740      MECN     H12      HGA3     0.090000        1.0080           0
     36906 WT14     740      MECN     H13      HGA3     0.090000        1.0080           0
     36907 WT14     740      MECN     C2       CG1N1    0.360000       12.0110           0
     36908 WT14     740      MECN     N3       NG1T1   -0.460000       14.0070           0
     36909 WT14     741      MECN     C1       CG331   -0.170000       12.0110           0
     36910 WT14     741      MECN     H11      HGA3     0.090000        1.0080           0
     36911 WT14     741      MECN     H12      HGA3     0.090000        1.0080           0
     36912 WT14     741      MECN     H13      HGA3     0.090000        1.0080           0
     36913 WT14     741      MECN     C2       CG1N1    0.360000       12.0110           0
     36914 WT14     741      MECN     N3       NG1T1   -0.460000       14.0070           0
     36915 WT14     742      MECN     C1       CG331   -0.170000       12.0110           0
     36916 WT14     742      MECN     H11      HGA3     0.090000        1.0080           0
     36917 WT14     742      MECN     H12      HGA3     0.090000        1.0080           0
     36918 WT14     742      MECN     H13      HGA3     0.090000        1.0080           0
     36919 WT14     742      MECN     C2       CG1N1    0.360000       12.0110           0
     36920 WT14     742      MECN     N3       NG1T1   -0.460000       14.0070           0
     36921 WT14     744      MECN     C1       CG331   -0.170000       12.0110           0
     36922 WT14     744      MECN     H11      HGA3     0.090000        1.0080           0
     36923 WT14     744      MECN     H12      HGA3     0.090000        1.0080           0
     36924 WT14     744      MECN     H13      HGA3     0.090000        1.0080           0
     36925 WT14     744      MECN     C2       CG1N1    0.360000       12.0110           0
     36926 WT14     744      MECN     N3       NG1T1   -0.460000       14.0070           0
     36927 WT14     745      MECN     C1       CG331   -0.170000       12.0110           0
     36928 WT14     745      MECN     H11      HGA3     0.090000        1.0080           0
     36929 WT14     745      MECN     H12      HGA3     0.090000        1.0080           0
     36930 WT14     745      MECN     H13      HGA3     0.090000        1.0080           0
     36931 WT14     745      MECN     C2       CG1N1    0.360000       12.0110           0
     36932 WT14     745      MECN     N3       NG1T1   -0.460000       14.0070           0
     36933 WT14     746      MECN     C1       CG331   -0.170000       12.0110           0
     36934 WT14     746      MECN     H11      HGA3     0.090000        1.0080           0
     36935 WT14     746      MECN     H12      HGA3     0.090000        1.0080           0
     36936 WT14     746      MECN     H13      HGA3     0.090000        1.0080           0
     36937 WT14     746      MECN     C2       CG1N1    0.360000       12.0110           0
     36938 WT14     746      MECN     N3       NG1T1   -0.460000       14.0070           0
     36939 WT14     747      MECN     C1       CG331   -0.170000       12.0110           0
     36940 WT14     747      MECN     H11      HGA3     0.090000        1.0080           0
     36941 WT14     747      MECN     H12      HGA3     0.090000        1.0080           0
     36942 WT14     747      MECN     H13      HGA3     0.090000        1.0080           0
     36943 WT14     747      MECN     C2       CG1N1    0.360000       12.0110           0
     36944 WT14     747      MECN     N3       NG1T1   -0.460000       14.0070           0
     36945 WT14     748      MECN     C1       CG331   -0.170000       12.0110           0
     36946 WT14     748      MECN     H11      HGA3     0.090000        1.0080           0
     36947 WT14     748      MECN     H12      HGA3     0.090000        1.0080           0
     36948 WT14     748      MECN     H13      HGA3     0.090000        1.0080           0
     36949 WT14     748      MECN     C2       CG1N1    0.360000       12.0110           0
     36950 WT14     748      MECN     N3       NG1T1   -0.460000       14.0070           0
     36951 WT14     749      MECN     C1       CG331   -0.170000       12.0110           0
     36952 WT14     749      MECN     H11      HGA3     0.090000        1.0080           0
     36953 WT14     749      MECN     H12      HGA3     0.090000        1.0080           0
     36954 WT14     749      MECN     H13      HGA3     0.090000        1.0080           0
     36955 WT14     749      MECN     C2       CG1N1    0.360000       12.0110           0
     36956 WT14     749      MECN     N3       NG1T1   -0.460000       14.0070           0
     36957 WT14     750      MECN     C1       CG331   -0.170000       12.0110           0
     36958 WT14     750      MECN     H11      HGA3     0.090000        1.0080           0
     36959 WT14     750      MECN     H12      HGA3     0.090000        1.0080           0
     36960 WT14     750      MECN     H13      HGA3     0.090000        1.0080           0
     36961 WT14     750      MECN     C2       CG1N1    0.360000       12.0110           0
     36962 WT14     750      MECN     N3       NG1T1   -0.460000       14.0070           0
     36963 WT14     751      MECN     C1       CG331   -0.170000       12.0110           0
     36964 WT14     751      MECN     H11      HGA3     0.090000        1.0080           0
     36965 WT14     751      MECN     H12      HGA3     0.090000        1.0080           0
     36966 WT14     751      MECN     H13      HGA3     0.090000        1.0080           0
     36967 WT14     751      MECN     C2       CG1N1    0.360000       12.0110           0
     36968 WT14     751      MECN     N3       NG1T1   -0.460000       14.0070           0
     36969 WT14     752      MECN     C1       CG331   -0.170000       12.0110           0
     36970 WT14     752      MECN     H11      HGA3     0.090000        1.0080           0
     36971 WT14     752      MECN     H12      HGA3     0.090000        1.0080           0
     36972 WT14     752      MECN     H13      HGA3     0.090000        1.0080           0
     36973 WT14     752      MECN     C2       CG1N1    0.360000       12.0110           0
     36974 WT14     752      MECN     N3       NG1T1   -0.460000       14.0070           0
     36975 WT14     753      MECN     C1       CG331   -0.170000       12.0110           0
     36976 WT14     753      MECN     H11      HGA3     0.090000        1.0080           0
     36977 WT14     753      MECN     H12      HGA3     0.090000        1.0080           0
     36978 WT14     753      MECN     H13      HGA3     0.090000        1.0080           0
     36979 WT14     753      MECN     C2       CG1N1    0.360000       12.0110           0
     36980 WT14     753      MECN     N3       NG1T1   -0.460000       14.0070           0
     36981 WT14     755      MECN     C1       CG331   -0.170000       12.0110           0
     36982 WT14     755      MECN     H11      HGA3     0.090000        1.0080           0
     36983 WT14     755      MECN     H12      HGA3     0.090000        1.0080           0
     36984 WT14     755      MECN     H13      HGA3     0.090000        1.0080           0
     36985 WT14     755      MECN     C2       CG1N1    0.360000       12.0110           0
     36986 WT14     755      MECN     N3       NG1T1   -0.460000       14.0070           0
     36987 WT14     756      MECN     C1       CG331   -0.170000       12.0110           0
     36988 WT14     756      MECN     H11      HGA3     0.090000        1.0080           0
     36989 WT14     756      MECN     H12      HGA3     0.090000        1.0080           0
     36990 WT14     756      MECN     H13      HGA3     0.090000        1.0080           0
     36991 WT14     756      MECN     C2       CG1N1    0.360000       12.0110           0
     36992 WT14     756      MECN     N3       NG1T1   -0.460000       14.0070           0
     36993 WT14     757      MECN     C1       CG331   -0.170000       12.0110           0
     36994 WT14     757      MECN     H11      HGA3     0.090000        1.0080           0
     36995 WT14     757      MECN     H12      HGA3     0.090000        1.0080           0
     36996 WT14     757      MECN     H13      HGA3     0.090000        1.0080           0
     36997 WT14     757      MECN     C2       CG1N1    0.360000       12.0110           0
     36998 WT14     757      MECN     N3       NG1T1   -0.460000       14.0070           0
     36999 WT14     758      MECN     C1       CG331   -0.170000       12.0110           0
     37000 WT14     758      MECN     H11      HGA3     0.090000        1.0080           0
     37001 WT14     758      MECN     H12      HGA3     0.090000        1.0080           0
     37002 WT14     758      MECN     H13      HGA3     0.090000        1.0080           0
     37003 WT14     758      MECN     C2       CG1N1    0.360000       12.0110           0
     37004 WT14     758      MECN     N3       NG1T1   -0.460000       14.0070           0
     37005 WT14     759      MECN     C1       CG331   -0.170000       12.0110           0
     37006 WT14     759      MECN     H11      HGA3     0.090000        1.0080           0
     37007 WT14     759      MECN     H12      HGA3     0.090000        1.0080           0
     37008 WT14     759      MECN     H13      HGA3     0.090000        1.0080           0
     37009 WT14     759      MECN     C2       CG1N1    0.360000       12.0110           0
     37010 WT14     759      MECN     N3       NG1T1   -0.460000       14.0070           0
     37011 WT14     761      MECN     C1       CG331   -0.170000       12.0110           0
     37012 WT14     761      MECN     H11      HGA3     0.090000        1.0080           0
     37013 WT14     761      MECN     H12      HGA3     0.090000        1.0080           0
     37014 WT14     761      MECN     H13      HGA3     0.090000        1.0080           0
     37015 WT14     761      MECN     C2       CG1N1    0.360000       12.0110           0
     37016 WT14     761      MECN     N3       NG1T1   -0.460000       14.0070           0
     37017 WT14     762      MECN     C1       CG331   -0.170000       12.0110           0
     37018 WT14     762      MECN     H11      HGA3     0.090000        1.0080           0
     37019 WT14     762      MECN     H12      HGA3     0.090000        1.0080           0
     37020 WT14     762      MECN     H13      HGA3     0.090000        1.0080           0
     37021 WT14     762      MECN     C2       CG1N1    0.360000       12.0110           0
     37022 WT14     762      MECN     N3       NG1T1   -0.460000       14.0070           0
     37023 WT14     764      MECN     C1       CG331   -0.170000       12.0110           0
     37024 WT14     764      MECN     H11      HGA3     0.090000        1.0080           0
     37025 WT14     764      MECN     H12      HGA3     0.090000        1.0080           0
     37026 WT14     764      MECN     H13      HGA3     0.090000        1.0080           0
     37027 WT14     764      MECN     C2       CG1N1    0.360000       12.0110           0
     37028 WT14     764      MECN     N3       NG1T1   -0.460000       14.0070           0
     37029 WT14     765      MECN     C1       CG331   -0.170000       12.0110           0
     37030 WT14     765      MECN     H11      HGA3     0.090000        1.0080           0
     37031 WT14     765      MECN     H12      HGA3     0.090000        1.0080           0
     37032 WT14     765      MECN     H13      HGA3     0.090000        1.0080           0
     37033 WT14     765      MECN     C2       CG1N1    0.360000       12.0110           0
     37034 WT14     765      MECN     N3       NG1T1   -0.460000       14.0070           0
     37035 WT14     767      MECN     C1       CG331   -0.170000       12.0110           0
     37036 WT14     767      MECN     H11      HGA3     0.090000        1.0080           0
     37037 WT14     767      MECN     H12      HGA3     0.090000        1.0080           0
     37038 WT14     767      MECN     H13      HGA3     0.090000        1.0080           0
     37039 WT14     767      MECN     C2       CG1N1    0.360000       12.0110           0
     37040 WT14     767      MECN     N3       NG1T1   -0.460000       14.0070           0
     37041 WT14     768      MECN     C1       CG331   -0.170000       12.0110           0
     37042 WT14     768      MECN     H11      HGA3     0.090000        1.0080           0
     37043 WT14     768      MECN     H12      HGA3     0.090000        1.0080           0
     37044 WT14     768      MECN     H13      HGA3     0.090000        1.0080           0
     37045 WT14     768      MECN     C2       CG1N1    0.360000       12.0110           0
     37046 WT14     768      MECN     N3       NG1T1   -0.460000       14.0070           0
     37047 WT14     769      MECN     C1       CG331   -0.170000       12.0110           0
     37048 WT14     769      MECN     H11      HGA3     0.090000        1.0080           0
     37049 WT14     769      MECN     H12      HGA3     0.090000        1.0080           0
     37050 WT14     769      MECN     H13      HGA3     0.090000        1.0080           0
     37051 WT14     769      MECN     C2       CG1N1    0.360000       12.0110           0
     37052 WT14     769      MECN     N3       NG1T1   -0.460000       14.0070           0
     37053 WT14     770      MECN     C1       CG331   -0.170000       12.0110           0
     37054 WT14     770      MECN     H11      HGA3     0.090000        1.0080           0
     37055 WT14     770      MECN     H12      HGA3     0.090000        1.0080           0
     37056 WT14     770      MECN     H13      HGA3     0.090000        1.0080           0
     37057 WT14     770      MECN     C2       CG1N1    0.360000       12.0110           0
     37058 WT14     770      MECN     N3       NG1T1   -0.460000       14.0070           0
     37059 WT14     771      MECN     C1       CG331   -0.170000       12.0110           0
     37060 WT14     771      MECN     H11      HGA3     0.090000        1.0080           0
     37061 WT14     771      MECN     H12      HGA3     0.090000        1.0080           0
     37062 WT14     771      MECN     H13      HGA3     0.090000        1.0080           0
     37063 WT14     771      MECN     C2       CG1N1    0.360000       12.0110           0
     37064 WT14     771      MECN     N3       NG1T1   -0.460000       14.0070           0
     37065 WT14     772      MECN     C1       CG331   -0.170000       12.0110           0
     37066 WT14     772      MECN     H11      HGA3     0.090000        1.0080           0
     37067 WT14     772      MECN     H12      HGA3     0.090000        1.0080           0
     37068 WT14     772      MECN     H13      HGA3     0.090000        1.0080           0
     37069 WT14     772      MECN     C2       CG1N1    0.360000       12.0110           0
     37070 WT14     772      MECN     N3       NG1T1   -0.460000       14.0070           0
     37071 WT14     774      MECN     C1       CG331   -0.170000       12.0110           0
     37072 WT14     774      MECN     H11      HGA3     0.090000        1.0080           0
     37073 WT14     774      MECN     H12      HGA3     0.090000        1.0080           0
     37074 WT14     774      MECN     H13      HGA3     0.090000        1.0080           0
     37075 WT14     774      MECN     C2       CG1N1    0.360000       12.0110           0
     37076 WT14     774      MECN     N3       NG1T1   -0.460000       14.0070           0
     37077 WT14     776      MECN     C1       CG331   -0.170000       12.0110           0
     37078 WT14     776      MECN     H11      HGA3     0.090000        1.0080           0
     37079 WT14     776      MECN     H12      HGA3     0.090000        1.0080           0
     37080 WT14     776      MECN     H13      HGA3     0.090000        1.0080           0
     37081 WT14     776      MECN     C2       CG1N1    0.360000       12.0110           0
     37082 WT14     776      MECN     N3       NG1T1   -0.460000       14.0070           0
     37083 WT14     777      MECN     C1       CG331   -0.170000       12.0110           0
     37084 WT14     777      MECN     H11      HGA3     0.090000        1.0080           0
     37085 WT14     777      MECN     H12      HGA3     0.090000        1.0080           0
     37086 WT14     777      MECN     H13      HGA3     0.090000        1.0080           0
     37087 WT14     777      MECN     C2       CG1N1    0.360000       12.0110           0
     37088 WT14     777      MECN     N3       NG1T1   -0.460000       14.0070           0
     37089 WT14     778      MECN     C1       CG331   -0.170000       12.0110           0
     37090 WT14     778      MECN     H11      HGA3     0.090000        1.0080           0
     37091 WT14     778      MECN     H12      HGA3     0.090000        1.0080           0
     37092 WT14     778      MECN     H13      HGA3     0.090000        1.0080           0
     37093 WT14     778      MECN     C2       CG1N1    0.360000       12.0110           0
     37094 WT14     778      MECN     N3       NG1T1   -0.460000       14.0070           0
     37095 WT14     779      MECN     C1       CG331   -0.170000       12.0110           0
     37096 WT14     779      MECN     H11      HGA3     0.090000        1.0080           0
     37097 WT14     779      MECN     H12      HGA3     0.090000        1.0080           0
     37098 WT14     779      MECN     H13      HGA3     0.090000        1.0080           0
     37099 WT14     779      MECN     C2       CG1N1    0.360000       12.0110           0
     37100 WT14     779      MECN     N3       NG1T1   -0.460000       14.0070           0
     37101 WT14     780      MECN     C1       CG331   -0.170000       12.0110           0
     37102 WT14     780      MECN     H11      HGA3     0.090000        1.0080           0
     37103 WT14     780      MECN     H12      HGA3     0.090000        1.0080           0
     37104 WT14     780      MECN     H13      HGA3     0.090000        1.0080           0
     37105 WT14     780      MECN     C2       CG1N1    0.360000       12.0110           0
     37106 WT14     780      MECN     N3       NG1T1   -0.460000       14.0070           0
     37107 WT14     781      MECN     C1       CG331   -0.170000       12.0110           0
     37108 WT14     781      MECN     H11      HGA3     0.090000        1.0080           0
     37109 WT14     781      MECN     H12      HGA3     0.090000        1.0080           0
     37110 WT14     781      MECN     H13      HGA3     0.090000        1.0080           0
     37111 WT14     781      MECN     C2       CG1N1    0.360000       12.0110           0
     37112 WT14     781      MECN     N3       NG1T1   -0.460000       14.0070           0
     37113 WT14     783      MECN     C1       CG331   -0.170000       12.0110           0
     37114 WT14     783      MECN     H11      HGA3     0.090000        1.0080           0
     37115 WT14     783      MECN     H12      HGA3     0.090000        1.0080           0
     37116 WT14     783      MECN     H13      HGA3     0.090000        1.0080           0
     37117 WT14     783      MECN     C2       CG1N1    0.360000       12.0110           0
     37118 WT14     783      MECN     N3       NG1T1   -0.460000       14.0070           0
     37119 WT14     784      MECN     C1       CG331   -0.170000       12.0110           0
     37120 WT14     784      MECN     H11      HGA3     0.090000        1.0080           0
     37121 WT14     784      MECN     H12      HGA3     0.090000        1.0080           0
     37122 WT14     784      MECN     H13      HGA3     0.090000        1.0080           0
     37123 WT14     784      MECN     C2       CG1N1    0.360000       12.0110           0
     37124 WT14     784      MECN     N3       NG1T1   -0.460000       14.0070           0
     37125 WT14     785      MECN     C1       CG331   -0.170000       12.0110           0
     37126 WT14     785      MECN     H11      HGA3     0.090000        1.0080           0
     37127 WT14     785      MECN     H12      HGA3     0.090000        1.0080           0
     37128 WT14     785      MECN     H13      HGA3     0.090000        1.0080           0
     37129 WT14     785      MECN     C2       CG1N1    0.360000       12.0110           0
     37130 WT14     785      MECN     N3       NG1T1   -0.460000       14.0070           0
     37131 WT14     787      MECN     C1       CG331   -0.170000       12.0110           0
     37132 WT14     787      MECN     H11      HGA3     0.090000        1.0080           0
     37133 WT14     787      MECN     H12      HGA3     0.090000        1.0080           0
     37134 WT14     787      MECN     H13      HGA3     0.090000        1.0080           0
     37135 WT14     787      MECN     C2       CG1N1    0.360000       12.0110           0
     37136 WT14     787      MECN     N3       NG1T1   -0.460000       14.0070           0
     37137 WT14     789      MECN     C1       CG331   -0.170000       12.0110           0
     37138 WT14     789      MECN     H11      HGA3     0.090000        1.0080           0
     37139 WT14     789      MECN     H12      HGA3     0.090000        1.0080           0
     37140 WT14     789      MECN     H13      HGA3     0.090000        1.0080           0
     37141 WT14     789      MECN     C2       CG1N1    0.360000       12.0110           0
     37142 WT14     789      MECN     N3       NG1T1   -0.460000       14.0070           0
     37143 WT14     790      MECN     C1       CG331   -0.170000       12.0110           0
     37144 WT14     790      MECN     H11      HGA3     0.090000        1.0080           0
     37145 WT14     790      MECN     H12      HGA3     0.090000        1.0080           0
     37146 WT14     790      MECN     H13      HGA3     0.090000        1.0080           0
     37147 WT14     790      MECN     C2       CG1N1    0.360000       12.0110           0
     37148 WT14     790      MECN     N3       NG1T1   -0.460000       14.0070           0
     37149 WT14     791      MECN     C1       CG331   -0.170000       12.0110           0
     37150 WT14     791      MECN     H11      HGA3     0.090000        1.0080           0
     37151 WT14     791      MECN     H12      HGA3     0.090000        1.0080           0
     37152 WT14     791      MECN     H13      HGA3     0.090000        1.0080           0
     37153 WT14     791      MECN     C2       CG1N1    0.360000       12.0110           0
     37154 WT14     791      MECN     N3       NG1T1   -0.460000       14.0070           0
     37155 WT14     792      MECN     C1       CG331   -0.170000       12.0110           0
     37156 WT14     792      MECN     H11      HGA3     0.090000        1.0080           0
     37157 WT14     792      MECN     H12      HGA3     0.090000        1.0080           0
     37158 WT14     792      MECN     H13      HGA3     0.090000        1.0080           0
     37159 WT14     792      MECN     C2       CG1N1    0.360000       12.0110           0
     37160 WT14     792      MECN     N3       NG1T1   -0.460000       14.0070           0
     37161 WT14     793      MECN     C1       CG331   -0.170000       12.0110           0
     37162 WT14     793      MECN     H11      HGA3     0.090000        1.0080           0
     37163 WT14     793      MECN     H12      HGA3     0.090000        1.0080           0
     37164 WT14     793      MECN     H13      HGA3     0.090000        1.0080           0
     37165 WT14     793      MECN     C2       CG1N1    0.360000       12.0110           0
     37166 WT14     793      MECN     N3       NG1T1   -0.460000       14.0070           0
     37167 WT14     795      MECN     C1       CG331   -0.170000       12.0110           0
     37168 WT14     795      MECN     H11      HGA3     0.090000        1.0080           0
     37169 WT14     795      MECN     H12      HGA3     0.090000        1.0080           0
     37170 WT14     795      MECN     H13      HGA3     0.090000        1.0080           0
     37171 WT14     795      MECN     C2       CG1N1    0.360000       12.0110           0
     37172 WT14     795      MECN     N3       NG1T1   -0.460000       14.0070           0
     37173 WT14     796      MECN     C1       CG331   -0.170000       12.0110           0
     37174 WT14     796      MECN     H11      HGA3     0.090000        1.0080           0
     37175 WT14     796      MECN     H12      HGA3     0.090000        1.0080           0
     37176 WT14     796      MECN     H13      HGA3     0.090000        1.0080           0
     37177 WT14     796      MECN     C2       CG1N1    0.360000       12.0110           0
     37178 WT14     796      MECN     N3       NG1T1   -0.460000       14.0070           0
     37179 WT14     797      MECN     C1       CG331   -0.170000       12.0110           0
     37180 WT14     797      MECN     H11      HGA3     0.090000        1.0080           0
     37181 WT14     797      MECN     H12      HGA3     0.090000        1.0080           0
     37182 WT14     797      MECN     H13      HGA3     0.090000        1.0080           0
     37183 WT14     797      MECN     C2       CG1N1    0.360000       12.0110           0
     37184 WT14     797      MECN     N3       NG1T1   -0.460000       14.0070           0
     37185 WT14     798      MECN     C1       CG331   -0.170000       12.0110           0
     37186 WT14     798      MECN     H11      HGA3     0.090000        1.0080           0
     37187 WT14     798      MECN     H12      HGA3     0.090000        1.0080           0
     37188 WT14     798      MECN     H13      HGA3     0.090000        1.0080           0
     37189 WT14     798      MECN     C2       CG1N1    0.360000       12.0110           0
     37190 WT14     798      MECN     N3       NG1T1   -0.460000       14.0070           0
     37191 WT14     799      MECN     C1       CG331   -0.170000       12.0110           0
     37192 WT14     799      MECN     H11      HGA3     0.090000        1.0080           0
     37193 WT14     799      MECN     H12      HGA3     0.090000        1.0080           0
     37194 WT14     799      MECN     H13      HGA3     0.090000        1.0080           0
     37195 WT14     799      MECN     C2       CG1N1    0.360000       12.0110           0
     37196 WT14     799      MECN     N3       NG1T1   -0.460000       14.0070           0
     37197 WT14     800      MECN     C1       CG331   -0.170000       12.0110           0
     37198 WT14     800      MECN     H11      HGA3     0.090000        1.0080           0
     37199 WT14     800      MECN     H12      HGA3     0.090000        1.0080           0
     37200 WT14     800      MECN     H13      HGA3     0.090000        1.0080           0
     37201 WT14     800      MECN     C2       CG1N1    0.360000       12.0110           0
     37202 WT14     800      MECN     N3       NG1T1   -0.460000       14.0070           0
     37203 WT14     801      MECN     C1       CG331   -0.170000       12.0110           0
     37204 WT14     801      MECN     H11      HGA3     0.090000        1.0080           0
     37205 WT14     801      MECN     H12      HGA3     0.090000        1.0080           0
     37206 WT14     801      MECN     H13      HGA3     0.090000        1.0080           0
     37207 WT14     801      MECN     C2       CG1N1    0.360000       12.0110           0
     37208 WT14     801      MECN     N3       NG1T1   -0.460000       14.0070           0
     37209 WT14     803      MECN     C1       CG331   -0.170000       12.0110           0
     37210 WT14     803      MECN     H11      HGA3     0.090000        1.0080           0
     37211 WT14     803      MECN     H12      HGA3     0.090000        1.0080           0
     37212 WT14     803      MECN     H13      HGA3     0.090000        1.0080           0
     37213 WT14     803      MECN     C2       CG1N1    0.360000       12.0110           0
     37214 WT14     803      MECN     N3       NG1T1   -0.460000       14.0070           0
     37215 WT14     804      MECN     C1       CG331   -0.170000       12.0110           0
     37216 WT14     804      MECN     H11      HGA3     0.090000        1.0080           0
     37217 WT14     804      MECN     H12      HGA3     0.090000        1.0080           0
     37218 WT14     804      MECN     H13      HGA3     0.090000        1.0080           0
     37219 WT14     804      MECN     C2       CG1N1    0.360000       12.0110           0
     37220 WT14     804      MECN     N3       NG1T1   -0.460000       14.0070           0
     37221 WT14     805      MECN     C1       CG331   -0.170000       12.0110           0
     37222 WT14     805      MECN     H11      HGA3     0.090000        1.0080           0
     37223 WT14     805      MECN     H12      HGA3     0.090000        1.0080           0
     37224 WT14     805      MECN     H13      HGA3     0.090000        1.0080           0
     37225 WT14     805      MECN     C2       CG1N1    0.360000       12.0110           0
     37226 WT14     805      MECN     N3       NG1T1   -0.460000       14.0070           0
     37227 WT14     806      MECN     C1       CG331   -0.170000       12.0110           0
     37228 WT14     806      MECN     H11      HGA3     0.090000        1.0080           0
     37229 WT14     806      MECN     H12      HGA3     0.090000        1.0080           0
     37230 WT14     806      MECN     H13      HGA3     0.090000        1.0080           0
     37231 WT14     806      MECN     C2       CG1N1    0.360000       12.0110           0
     37232 WT14     806      MECN     N3       NG1T1   -0.460000       14.0070           0
     37233 WT14     807      MECN     C1       CG331   -0.170000       12.0110           0
     37234 WT14     807      MECN     H11      HGA3     0.090000        1.0080           0
     37235 WT14     807      MECN     H12      HGA3     0.090000        1.0080           0
     37236 WT14     807      MECN     H13      HGA3     0.090000        1.0080           0
     37237 WT14     807      MECN     C2       CG1N1    0.360000       12.0110           0
     37238 WT14     807      MECN     N3       NG1T1   -0.460000       14.0070           0
     37239 WT14     808      MECN     C1       CG331   -0.170000       12.0110           0
     37240 WT14     808      MECN     H11      HGA3     0.090000        1.0080           0
     37241 WT14     808      MECN     H12      HGA3     0.090000        1.0080           0
     37242 WT14     808      MECN     H13      HGA3     0.090000        1.0080           0
     37243 WT14     808      MECN     C2       CG1N1    0.360000       12.0110           0
     37244 WT14     808      MECN     N3       NG1T1   -0.460000       14.0070           0
     37245 WT14     810      MECN     C1       CG331   -0.170000       12.0110           0
     37246 WT14     810      MECN     H11      HGA3     0.090000        1.0080           0
     37247 WT14     810      MECN     H12      HGA3     0.090000        1.0080           0
     37248 WT14     810      MECN     H13      HGA3     0.090000        1.0080           0
     37249 WT14     810      MECN     C2       CG1N1    0.360000       12.0110           0
     37250 WT14     810      MECN     N3       NG1T1   -0.460000       14.0070           0
     37251 WT14     811      MECN     C1       CG331   -0.170000       12.0110           0
     37252 WT14     811      MECN     H11      HGA3     0.090000        1.0080           0
     37253 WT14     811      MECN     H12      HGA3     0.090000        1.0080           0
     37254 WT14     811      MECN     H13      HGA3     0.090000        1.0080           0
     37255 WT14     811      MECN     C2       CG1N1    0.360000       12.0110           0
     37256 WT14     811      MECN     N3       NG1T1   -0.460000       14.0070           0
     37257 WT14     812      MECN     C1       CG331   -0.170000       12.0110           0
     37258 WT14     812      MECN     H11      HGA3     0.090000        1.0080           0
     37259 WT14     812      MECN     H12      HGA3     0.090000        1.0080           0
     37260 WT14     812      MECN     H13      HGA3     0.090000        1.0080           0
     37261 WT14     812      MECN     C2       CG1N1    0.360000       12.0110           0
     37262 WT14     812      MECN     N3       NG1T1   -0.460000       14.0070           0
     37263 WT14     813      MECN     C1       CG331   -0.170000       12.0110           0
     37264 WT14     813      MECN     H11      HGA3     0.090000        1.0080           0
     37265 WT14     813      MECN     H12      HGA3     0.090000        1.0080           0
     37266 WT14     813      MECN     H13      HGA3     0.090000        1.0080           0
     37267 WT14     813      MECN     C2       CG1N1    0.360000       12.0110           0
     37268 WT14     813      MECN     N3       NG1T1   -0.460000       14.0070           0
     37269 WT14     814      MECN     C1       CG331   -0.170000       12.0110           0
     37270 WT14     814      MECN     H11      HGA3     0.090000        1.0080           0
     37271 WT14     814      MECN     H12      HGA3     0.090000        1.0080           0
     37272 WT14     814      MECN     H13      HGA3     0.090000        1.0080           0
     37273 WT14     814      MECN     C2       CG1N1    0.360000       12.0110           0
     37274 WT14     814      MECN     N3       NG1T1   -0.460000       14.0070           0
     37275 WT14     816      MECN     C1       CG331   -0.170000       12.0110           0
     37276 WT14     816      MECN     H11      HGA3     0.090000        1.0080           0
     37277 WT14     816      MECN     H12      HGA3     0.090000        1.0080           0
     37278 WT14     816      MECN     H13      HGA3     0.090000        1.0080           0
     37279 WT14     816      MECN     C2       CG1N1    0.360000       12.0110           0
     37280 WT14     816      MECN     N3       NG1T1   -0.460000       14.0070           0
     37281 WT14     817      MECN     C1       CG331   -0.170000       12.0110           0
     37282 WT14     817      MECN     H11      HGA3     0.090000        1.0080           0
     37283 WT14     817      MECN     H12      HGA3     0.090000        1.0080           0
     37284 WT14     817      MECN     H13      HGA3     0.090000        1.0080           0
     37285 WT14     817      MECN     C2       CG1N1    0.360000       12.0110           0
     37286 WT14     817      MECN     N3       NG1T1   -0.460000       14.0070           0
     37287 WT14     819      MECN     C1       CG331   -0.170000       12.0110           0
     37288 WT14     819      MECN     H11      HGA3     0.090000        1.0080           0
     37289 WT14     819      MECN     H12      HGA3     0.090000        1.0080           0
     37290 WT14     819      MECN     H13      HGA3     0.090000        1.0080           0
     37291 WT14     819      MECN     C2       CG1N1    0.360000       12.0110           0
     37292 WT14     819      MECN     N3       NG1T1   -0.460000       14.0070           0
     37293 WT14     820      MECN     C1       CG331   -0.170000       12.0110           0
     37294 WT14     820      MECN     H11      HGA3     0.090000        1.0080           0
     37295 WT14     820      MECN     H12      HGA3     0.090000        1.0080           0
     37296 WT14     820      MECN     H13      HGA3     0.090000        1.0080           0
     37297 WT14     820      MECN     C2       CG1N1    0.360000       12.0110           0
     37298 WT14     820      MECN     N3       NG1T1   -0.460000       14.0070           0
     37299 WT14     821      MECN     C1       CG331   -0.170000       12.0110           0
     37300 WT14     821      MECN     H11      HGA3     0.090000        1.0080           0
     37301 WT14     821      MECN     H12      HGA3     0.090000        1.0080           0
     37302 WT14     821      MECN     H13      HGA3     0.090000        1.0080           0
     37303 WT14     821      MECN     C2       CG1N1    0.360000       12.0110           0
     37304 WT14     821      MECN     N3       NG1T1   -0.460000       14.0070           0
     37305 WT14     823      MECN     C1       CG331   -0.170000       12.0110           0
     37306 WT14     823      MECN     H11      HGA3     0.090000        1.0080           0
     37307 WT14     823      MECN     H12      HGA3     0.090000        1.0080           0
     37308 WT14     823      MECN     H13      HGA3     0.090000        1.0080           0
     37309 WT14     823      MECN     C2       CG1N1    0.360000       12.0110           0
     37310 WT14     823      MECN     N3       NG1T1   -0.460000       14.0070           0
     37311 WT14     824      MECN     C1       CG331   -0.170000       12.0110           0
     37312 WT14     824      MECN     H11      HGA3     0.090000        1.0080           0
     37313 WT14     824      MECN     H12      HGA3     0.090000        1.0080           0
     37314 WT14     824      MECN     H13      HGA3     0.090000        1.0080           0
     37315 WT14     824      MECN     C2       CG1N1    0.360000       12.0110           0
     37316 WT14     824      MECN     N3       NG1T1   -0.460000       14.0070           0
     37317 WT14     825      MECN     C1       CG331   -0.170000       12.0110           0
     37318 WT14     825      MECN     H11      HGA3     0.090000        1.0080           0
     37319 WT14     825      MECN     H12      HGA3     0.090000        1.0080           0
     37320 WT14     825      MECN     H13      HGA3     0.090000        1.0080           0
     37321 WT14     825      MECN     C2       CG1N1    0.360000       12.0110           0
     37322 WT14     825      MECN     N3       NG1T1   -0.460000       14.0070           0
     37323 WT14     826      MECN     C1       CG331   -0.170000       12.0110           0
     37324 WT14     826      MECN     H11      HGA3     0.090000        1.0080           0
     37325 WT14     826      MECN     H12      HGA3     0.090000        1.0080           0
     37326 WT14     826      MECN     H13      HGA3     0.090000        1.0080           0
     37327 WT14     826      MECN     C2       CG1N1    0.360000       12.0110           0
     37328 WT14     826      MECN     N3       NG1T1   -0.460000       14.0070           0
     37329 WT14     827      MECN     C1       CG331   -0.170000       12.0110           0
     37330 WT14     827      MECN     H11      HGA3     0.090000        1.0080           0
     37331 WT14     827      MECN     H12      HGA3     0.090000        1.0080           0
     37332 WT14     827      MECN     H13      HGA3     0.090000        1.0080           0
     37333 WT14     827      MECN     C2       CG1N1    0.360000       12.0110           0
     37334 WT14     827      MECN     N3       NG1T1   -0.460000       14.0070           0
     37335 WT14     828      MECN     C1       CG331   -0.170000       12.0110           0
     37336 WT14     828      MECN     H11      HGA3     0.090000        1.0080           0
     37337 WT14     828      MECN     H12      HGA3     0.090000        1.0080           0
     37338 WT14     828      MECN     H13      HGA3     0.090000        1.0080           0
     37339 WT14     828      MECN     C2       CG1N1    0.360000       12.0110           0
     37340 WT14     828      MECN     N3       NG1T1   -0.460000       14.0070           0
     37341 WT14     829      MECN     C1       CG331   -0.170000       12.0110           0
     37342 WT14     829      MECN     H11      HGA3     0.090000        1.0080           0
     37343 WT14     829      MECN     H12      HGA3     0.090000        1.0080           0
     37344 WT14     829      MECN     H13      HGA3     0.090000        1.0080           0
     37345 WT14     829      MECN     C2       CG1N1    0.360000       12.0110           0
     37346 WT14     829      MECN     N3       NG1T1   -0.460000       14.0070           0
     37347 WT14     830      MECN     C1       CG331   -0.170000       12.0110           0
     37348 WT14     830      MECN     H11      HGA3     0.090000        1.0080           0
     37349 WT14     830      MECN     H12      HGA3     0.090000        1.0080           0
     37350 WT14     830      MECN     H13      HGA3     0.090000        1.0080           0
     37351 WT14     830      MECN     C2       CG1N1    0.360000       12.0110           0
     37352 WT14     830      MECN     N3       NG1T1   -0.460000       14.0070           0
     37353 WT14     831      MECN     C1       CG331   -0.170000       12.0110           0
     37354 WT14     831      MECN     H11      HGA3     0.090000        1.0080           0
     37355 WT14     831      MECN     H12      HGA3     0.090000        1.0080           0
     37356 WT14     831      MECN     H13      HGA3     0.090000        1.0080           0
     37357 WT14     831      MECN     C2       CG1N1    0.360000       12.0110           0
     37358 WT14     831      MECN     N3       NG1T1   -0.460000       14.0070           0
     37359 WT14     832      MECN     C1       CG331   -0.170000       12.0110           0
     37360 WT14     832      MECN     H11      HGA3     0.090000        1.0080           0
     37361 WT14     832      MECN     H12      HGA3     0.090000        1.0080           0
     37362 WT14     832      MECN     H13      HGA3     0.090000        1.0080           0
     37363 WT14     832      MECN     C2       CG1N1    0.360000       12.0110           0
     37364 WT14     832      MECN     N3       NG1T1   -0.460000       14.0070           0
     37365 WT14     833      MECN     C1       CG331   -0.170000       12.0110           0
     37366 WT14     833      MECN     H11      HGA3     0.090000        1.0080           0
     37367 WT14     833      MECN     H12      HGA3     0.090000        1.0080           0
     37368 WT14     833      MECN     H13      HGA3     0.090000        1.0080           0
     37369 WT14     833      MECN     C2       CG1N1    0.360000       12.0110           0
     37370 WT14     833      MECN     N3       NG1T1   -0.460000       14.0070           0
     37371 WT14     834      MECN     C1       CG331   -0.170000       12.0110           0
     37372 WT14     834      MECN     H11      HGA3     0.090000        1.0080           0
     37373 WT14     834      MECN     H12      HGA3     0.090000        1.0080           0
     37374 WT14     834      MECN     H13      HGA3     0.090000        1.0080           0
     37375 WT14     834      MECN     C2       CG1N1    0.360000       12.0110           0
     37376 WT14     834      MECN     N3       NG1T1   -0.460000       14.0070           0
     37377 WT14     836      MECN     C1       CG331   -0.170000       12.0110           0
     37378 WT14     836      MECN     H11      HGA3     0.090000        1.0080           0
     37379 WT14     836      MECN     H12      HGA3     0.090000        1.0080           0
     37380 WT14     836      MECN     H13      HGA3     0.090000        1.0080           0
     37381 WT14     836      MECN     C2       CG1N1    0.360000       12.0110           0
     37382 WT14     836      MECN     N3       NG1T1   -0.460000       14.0070           0
     37383 WT14     837      MECN     C1       CG331   -0.170000       12.0110           0
     37384 WT14     837      MECN     H11      HGA3     0.090000        1.0080           0
     37385 WT14     837      MECN     H12      HGA3     0.090000        1.0080           0
     37386 WT14     837      MECN     H13      HGA3     0.090000        1.0080           0
     37387 WT14     837      MECN     C2       CG1N1    0.360000       12.0110           0
     37388 WT14     837      MECN     N3       NG1T1   -0.460000       14.0070           0
     37389 WT14     838      MECN     C1       CG331   -0.170000       12.0110           0
     37390 WT14     838      MECN     H11      HGA3     0.090000        1.0080           0
     37391 WT14     838      MECN     H12      HGA3     0.090000        1.0080           0
     37392 WT14     838      MECN     H13      HGA3     0.090000        1.0080           0
     37393 WT14     838      MECN     C2       CG1N1    0.360000       12.0110           0
     37394 WT14     838      MECN     N3       NG1T1   -0.460000       14.0070           0
     37395 WT14     839      MECN     C1       CG331   -0.170000       12.0110           0
     37396 WT14     839      MECN     H11      HGA3     0.090000        1.0080           0
     37397 WT14     839      MECN     H12      HGA3     0.090000        1.0080           0
     37398 WT14     839      MECN     H13      HGA3     0.090000        1.0080           0
     37399 WT14     839      MECN     C2       CG1N1    0.360000       12.0110           0
     37400 WT14     839      MECN     N3       NG1T1   -0.460000       14.0070           0
     37401 WT14     840      MECN     C1       CG331   -0.170000       12.0110           0
     37402 WT14     840      MECN     H11      HGA3     0.090000        1.0080           0
     37403 WT14     840      MECN     H12      HGA3     0.090000        1.0080           0
     37404 WT14     840      MECN     H13      HGA3     0.090000        1.0080           0
     37405 WT14     840      MECN     C2       CG1N1    0.360000       12.0110           0
     37406 WT14     840      MECN     N3       NG1T1   -0.460000       14.0070           0
     37407 WT14     841      MECN     C1       CG331   -0.170000       12.0110           0
     37408 WT14     841      MECN     H11      HGA3     0.090000        1.0080           0
     37409 WT14     841      MECN     H12      HGA3     0.090000        1.0080           0
     37410 WT14     841      MECN     H13      HGA3     0.090000        1.0080           0
     37411 WT14     841      MECN     C2       CG1N1    0.360000       12.0110           0
     37412 WT14     841      MECN     N3       NG1T1   -0.460000       14.0070           0
     37413 WT14     842      MECN     C1       CG331   -0.170000       12.0110           0
     37414 WT14     842      MECN     H11      HGA3     0.090000        1.0080           0
     37415 WT14     842      MECN     H12      HGA3     0.090000        1.0080           0
     37416 WT14     842      MECN     H13      HGA3     0.090000        1.0080           0
     37417 WT14     842      MECN     C2       CG1N1    0.360000       12.0110           0
     37418 WT14     842      MECN     N3       NG1T1   -0.460000       14.0070           0
     37419 WT14     843      MECN     C1       CG331   -0.170000       12.0110           0
     37420 WT14     843      MECN     H11      HGA3     0.090000        1.0080           0
     37421 WT14     843      MECN     H12      HGA3     0.090000        1.0080           0
     37422 WT14     843      MECN     H13      HGA3     0.090000        1.0080           0
     37423 WT14     843      MECN     C2       CG1N1    0.360000       12.0110           0
     37424 WT14     843      MECN     N3       NG1T1   -0.460000       14.0070           0
     37425 WT14     844      MECN     C1       CG331   -0.170000       12.0110           0
     37426 WT14     844      MECN     H11      HGA3     0.090000        1.0080           0
     37427 WT14     844      MECN     H12      HGA3     0.090000        1.0080           0
     37428 WT14     844      MECN     H13      HGA3     0.090000        1.0080           0
     37429 WT14     844      MECN     C2       CG1N1    0.360000       12.0110           0
     37430 WT14     844      MECN     N3       NG1T1   -0.460000       14.0070           0
     37431 WT14     845      MECN     C1       CG331   -0.170000       12.0110           0
     37432 WT14     845      MECN     H11      HGA3     0.090000        1.0080           0
     37433 WT14     845      MECN     H12      HGA3     0.090000        1.0080           0
     37434 WT14     845      MECN     H13      HGA3     0.090000        1.0080           0
     37435 WT14     845      MECN     C2       CG1N1    0.360000       12.0110           0
     37436 WT14     845      MECN     N3       NG1T1   -0.460000       14.0070           0
     37437 WT14     846      MECN     C1       CG331   -0.170000       12.0110           0
     37438 WT14     846      MECN     H11      HGA3     0.090000        1.0080           0
     37439 WT14     846      MECN     H12      HGA3     0.090000        1.0080           0
     37440 WT14     846      MECN     H13      HGA3     0.090000        1.0080           0
     37441 WT14     846      MECN     C2       CG1N1    0.360000       12.0110           0
     37442 WT14     846      MECN     N3       NG1T1   -0.460000       14.0070           0
     37443 WT14     847      MECN     C1       CG331   -0.170000       12.0110           0
     37444 WT14     847      MECN     H11      HGA3     0.090000        1.0080           0
     37445 WT14     847      MECN     H12      HGA3     0.090000        1.0080           0
     37446 WT14     847      MECN     H13      HGA3     0.090000        1.0080           0
     37447 WT14     847      MECN     C2       CG1N1    0.360000       12.0110           0
     37448 WT14     847      MECN     N3       NG1T1   -0.460000       14.0070           0
     37449 WT14     849      MECN     C1       CG331   -0.170000       12.0110           0
     37450 WT14     849      MECN     H11      HGA3     0.090000        1.0080           0
     37451 WT14     849      MECN     H12      HGA3     0.090000        1.0080           0
     37452 WT14     849      MECN     H13      HGA3     0.090000        1.0080           0
     37453 WT14     849      MECN     C2       CG1N1    0.360000       12.0110           0
     37454 WT14     849      MECN     N3       NG1T1   -0.460000       14.0070           0
     37455 WT14     850      MECN     C1       CG331   -0.170000       12.0110           0
     37456 WT14     850      MECN     H11      HGA3     0.090000        1.0080           0
     37457 WT14     850      MECN     H12      HGA3     0.090000        1.0080           0
     37458 WT14     850      MECN     H13      HGA3     0.090000        1.0080           0
     37459 WT14     850      MECN     C2       CG1N1    0.360000       12.0110           0
     37460 WT14     850      MECN     N3       NG1T1   -0.460000       14.0070           0
     37461 WT14     851      MECN     C1       CG331   -0.170000       12.0110           0
     37462 WT14     851      MECN     H11      HGA3     0.090000        1.0080           0
     37463 WT14     851      MECN     H12      HGA3     0.090000        1.0080           0
     37464 WT14     851      MECN     H13      HGA3     0.090000        1.0080           0
     37465 WT14     851      MECN     C2       CG1N1    0.360000       12.0110           0
     37466 WT14     851      MECN     N3       NG1T1   -0.460000       14.0070           0
     37467 WT14     852      MECN     C1       CG331   -0.170000       12.0110           0
     37468 WT14     852      MECN     H11      HGA3     0.090000        1.0080           0
     37469 WT14     852      MECN     H12      HGA3     0.090000        1.0080           0
     37470 WT14     852      MECN     H13      HGA3     0.090000        1.0080           0
     37471 WT14     852      MECN     C2       CG1N1    0.360000       12.0110           0
     37472 WT14     852      MECN     N3       NG1T1   -0.460000       14.0070           0
     37473 WT14     853      MECN     C1       CG331   -0.170000       12.0110           0
     37474 WT14     853      MECN     H11      HGA3     0.090000        1.0080           0
     37475 WT14     853      MECN     H12      HGA3     0.090000        1.0080           0
     37476 WT14     853      MECN     H13      HGA3     0.090000        1.0080           0
     37477 WT14     853      MECN     C2       CG1N1    0.360000       12.0110           0
     37478 WT14     853      MECN     N3       NG1T1   -0.460000       14.0070           0
     37479 WT14     854      MECN     C1       CG331   -0.170000       12.0110           0
     37480 WT14     854      MECN     H11      HGA3     0.090000        1.0080           0
     37481 WT14     854      MECN     H12      HGA3     0.090000        1.0080           0
     37482 WT14     854      MECN     H13      HGA3     0.090000        1.0080           0
     37483 WT14     854      MECN     C2       CG1N1    0.360000       12.0110           0
     37484 WT14     854      MECN     N3       NG1T1   -0.460000       14.0070           0
     37485 WT14     855      MECN     C1       CG331   -0.170000       12.0110           0
     37486 WT14     855      MECN     H11      HGA3     0.090000        1.0080           0
     37487 WT14     855      MECN     H12      HGA3     0.090000        1.0080           0
     37488 WT14     855      MECN     H13      HGA3     0.090000        1.0080           0
     37489 WT14     855      MECN     C2       CG1N1    0.360000       12.0110           0
     37490 WT14     855      MECN     N3       NG1T1   -0.460000       14.0070           0
     37491 WT14     857      MECN     C1       CG331   -0.170000       12.0110           0
     37492 WT14     857      MECN     H11      HGA3     0.090000        1.0080           0
     37493 WT14     857      MECN     H12      HGA3     0.090000        1.0080           0
     37494 WT14     857      MECN     H13      HGA3     0.090000        1.0080           0
     37495 WT14     857      MECN     C2       CG1N1    0.360000       12.0110           0
     37496 WT14     857      MECN     N3       NG1T1   -0.460000       14.0070           0
     37497 WT14     858      MECN     C1       CG331   -0.170000       12.0110           0
     37498 WT14     858      MECN     H11      HGA3     0.090000        1.0080           0
     37499 WT14     858      MECN     H12      HGA3     0.090000        1.0080           0
     37500 WT14     858      MECN     H13      HGA3     0.090000        1.0080           0
     37501 WT14     858      MECN     C2       CG1N1    0.360000       12.0110           0
     37502 WT14     858      MECN     N3       NG1T1   -0.460000       14.0070           0
     37503 WT14     859      MECN     C1       CG331   -0.170000       12.0110           0
     37504 WT14     859      MECN     H11      HGA3     0.090000        1.0080           0
     37505 WT14     859      MECN     H12      HGA3     0.090000        1.0080           0
     37506 WT14     859      MECN     H13      HGA3     0.090000        1.0080           0
     37507 WT14     859      MECN     C2       CG1N1    0.360000       12.0110           0
     37508 WT14     859      MECN     N3       NG1T1   -0.460000       14.0070           0
     37509 WT14     860      MECN     C1       CG331   -0.170000       12.0110           0
     37510 WT14     860      MECN     H11      HGA3     0.090000        1.0080           0
     37511 WT14     860      MECN     H12      HGA3     0.090000        1.0080           0
     37512 WT14     860      MECN     H13      HGA3     0.090000        1.0080           0
     37513 WT14     860      MECN     C2       CG1N1    0.360000       12.0110           0
     37514 WT14     860      MECN     N3       NG1T1   -0.460000       14.0070           0
     37515 WT14     861      MECN     C1       CG331   -0.170000       12.0110           0
     37516 WT14     861      MECN     H11      HGA3     0.090000        1.0080           0
     37517 WT14     861      MECN     H12      HGA3     0.090000        1.0080           0
     37518 WT14     861      MECN     H13      HGA3     0.090000        1.0080           0
     37519 WT14     861      MECN     C2       CG1N1    0.360000       12.0110           0
     37520 WT14     861      MECN     N3       NG1T1   -0.460000       14.0070           0
     37521 WT14     863      MECN     C1       CG331   -0.170000       12.0110           0
     37522 WT14     863      MECN     H11      HGA3     0.090000        1.0080           0
     37523 WT14     863      MECN     H12      HGA3     0.090000        1.0080           0
     37524 WT14     863      MECN     H13      HGA3     0.090000        1.0080           0
     37525 WT14     863      MECN     C2       CG1N1    0.360000       12.0110           0
     37526 WT14     863      MECN     N3       NG1T1   -0.460000       14.0070           0
     37527 WT14     864      MECN     C1       CG331   -0.170000       12.0110           0
     37528 WT14     864      MECN     H11      HGA3     0.090000        1.0080           0
     37529 WT14     864      MECN     H12      HGA3     0.090000        1.0080           0
     37530 WT14     864      MECN     H13      HGA3     0.090000        1.0080           0
     37531 WT14     864      MECN     C2       CG1N1    0.360000       12.0110           0
     37532 WT14     864      MECN     N3       NG1T1   -0.460000       14.0070           0
     37533 WT14     865      MECN     C1       CG331   -0.170000       12.0110           0
     37534 WT14     865      MECN     H11      HGA3     0.090000        1.0080           0
     37535 WT14     865      MECN     H12      HGA3     0.090000        1.0080           0
     37536 WT14     865      MECN     H13      HGA3     0.090000        1.0080           0
     37537 WT14     865      MECN     C2       CG1N1    0.360000       12.0110           0
     37538 WT14     865      MECN     N3       NG1T1   -0.460000       14.0070           0
     37539 WT14     866      MECN     C1       CG331   -0.170000       12.0110           0
     37540 WT14     866      MECN     H11      HGA3     0.090000        1.0080           0
     37541 WT14     866      MECN     H12      HGA3     0.090000        1.0080           0
     37542 WT14     866      MECN     H13      HGA3     0.090000        1.0080           0
     37543 WT14     866      MECN     C2       CG1N1    0.360000       12.0110           0
     37544 WT14     866      MECN     N3       NG1T1   -0.460000       14.0070           0
     37545 WT14     868      MECN     C1       CG331   -0.170000       12.0110           0
     37546 WT14     868      MECN     H11      HGA3     0.090000        1.0080           0
     37547 WT14     868      MECN     H12      HGA3     0.090000        1.0080           0
     37548 WT14     868      MECN     H13      HGA3     0.090000        1.0080           0
     37549 WT14     868      MECN     C2       CG1N1    0.360000       12.0110           0
     37550 WT14     868      MECN     N3       NG1T1   -0.460000       14.0070           0
     37551 WT14     869      MECN     C1       CG331   -0.170000       12.0110           0
     37552 WT14     869      MECN     H11      HGA3     0.090000        1.0080           0
     37553 WT14     869      MECN     H12      HGA3     0.090000        1.0080           0
     37554 WT14     869      MECN     H13      HGA3     0.090000        1.0080           0
     37555 WT14     869      MECN     C2       CG1N1    0.360000       12.0110           0
     37556 WT14     869      MECN     N3       NG1T1   -0.460000       14.0070           0
     37557 WT14     870      MECN     C1       CG331   -0.170000       12.0110           0
     37558 WT14     870      MECN     H11      HGA3     0.090000        1.0080           0
     37559 WT14     870      MECN     H12      HGA3     0.090000        1.0080           0
     37560 WT14     870      MECN     H13      HGA3     0.090000        1.0080           0
     37561 WT14     870      MECN     C2       CG1N1    0.360000       12.0110           0
     37562 WT14     870      MECN     N3       NG1T1   -0.460000       14.0070           0
     37563 WT14     871      MECN     C1       CG331   -0.170000       12.0110           0
     37564 WT14     871      MECN     H11      HGA3     0.090000        1.0080           0
     37565 WT14     871      MECN     H12      HGA3     0.090000        1.0080           0
     37566 WT14     871      MECN     H13      HGA3     0.090000        1.0080           0
     37567 WT14     871      MECN     C2       CG1N1    0.360000       12.0110           0
     37568 WT14     871      MECN     N3       NG1T1   -0.460000       14.0070           0
     37569 WT14     872      MECN     C1       CG331   -0.170000       12.0110           0
     37570 WT14     872      MECN     H11      HGA3     0.090000        1.0080           0
     37571 WT14     872      MECN     H12      HGA3     0.090000        1.0080           0
     37572 WT14     872      MECN     H13      HGA3     0.090000        1.0080           0
     37573 WT14     872      MECN     C2       CG1N1    0.360000       12.0110           0
     37574 WT14     872      MECN     N3       NG1T1   -0.460000       14.0070           0
     37575 WT14     874      MECN     C1       CG331   -0.170000       12.0110           0
     37576 WT14     874      MECN     H11      HGA3     0.090000        1.0080           0
     37577 WT14     874      MECN     H12      HGA3     0.090000        1.0080           0
     37578 WT14     874      MECN     H13      HGA3     0.090000        1.0080           0
     37579 WT14     874      MECN     C2       CG1N1    0.360000       12.0110           0
     37580 WT14     874      MECN     N3       NG1T1   -0.460000       14.0070           0
     37581 WT14     875      MECN     C1       CG331   -0.170000       12.0110           0
     37582 WT14     875      MECN     H11      HGA3     0.090000        1.0080           0
     37583 WT14     875      MECN     H12      HGA3     0.090000        1.0080           0
     37584 WT14     875      MECN     H13      HGA3     0.090000        1.0080           0
     37585 WT14     875      MECN     C2       CG1N1    0.360000       12.0110           0
     37586 WT14     875      MECN     N3       NG1T1   -0.460000       14.0070           0
     37587 WT14     877      MECN     C1       CG331   -0.170000       12.0110           0
     37588 WT14     877      MECN     H11      HGA3     0.090000        1.0080           0
     37589 WT14     877      MECN     H12      HGA3     0.090000        1.0080           0
     37590 WT14     877      MECN     H13      HGA3     0.090000        1.0080           0
     37591 WT14     877      MECN     C2       CG1N1    0.360000       12.0110           0
     37592 WT14     877      MECN     N3       NG1T1   -0.460000       14.0070           0
     37593 WT14     879      MECN     C1       CG331   -0.170000       12.0110           0
     37594 WT14     879      MECN     H11      HGA3     0.090000        1.0080           0
     37595 WT14     879      MECN     H12      HGA3     0.090000        1.0080           0
     37596 WT14     879      MECN     H13      HGA3     0.090000        1.0080           0
     37597 WT14     879      MECN     C2       CG1N1    0.360000       12.0110           0
     37598 WT14     879      MECN     N3       NG1T1   -0.460000       14.0070           0
     37599 WT14     880      MECN     C1       CG331   -0.170000       12.0110           0
     37600 WT14     880      MECN     H11      HGA3     0.090000        1.0080           0
     37601 WT14     880      MECN     H12      HGA3     0.090000        1.0080           0
     37602 WT14     880      MECN     H13      HGA3     0.090000        1.0080           0
     37603 WT14     880      MECN     C2       CG1N1    0.360000       12.0110           0
     37604 WT14     880      MECN     N3       NG1T1   -0.460000       14.0070           0
     37605 WT14     881      MECN     C1       CG331   -0.170000       12.0110           0
     37606 WT14     881      MECN     H11      HGA3     0.090000        1.0080           0
     37607 WT14     881      MECN     H12      HGA3     0.090000        1.0080           0
     37608 WT14     881      MECN     H13      HGA3     0.090000        1.0080           0
     37609 WT14     881      MECN     C2       CG1N1    0.360000       12.0110           0
     37610 WT14     881      MECN     N3       NG1T1   -0.460000       14.0070           0
     37611 WT14     882      MECN     C1       CG331   -0.170000       12.0110           0
     37612 WT14     882      MECN     H11      HGA3     0.090000        1.0080           0
     37613 WT14     882      MECN     H12      HGA3     0.090000        1.0080           0
     37614 WT14     882      MECN     H13      HGA3     0.090000        1.0080           0
     37615 WT14     882      MECN     C2       CG1N1    0.360000       12.0110           0
     37616 WT14     882      MECN     N3       NG1T1   -0.460000       14.0070           0
     37617 WT14     883      MECN     C1       CG331   -0.170000       12.0110           0
     37618 WT14     883      MECN     H11      HGA3     0.090000        1.0080           0
     37619 WT14     883      MECN     H12      HGA3     0.090000        1.0080           0
     37620 WT14     883      MECN     H13      HGA3     0.090000        1.0080           0
     37621 WT14     883      MECN     C2       CG1N1    0.360000       12.0110           0
     37622 WT14     883      MECN     N3       NG1T1   -0.460000       14.0070           0
     37623 WT14     884      MECN     C1       CG331   -0.170000       12.0110           0
     37624 WT14     884      MECN     H11      HGA3     0.090000        1.0080           0
     37625 WT14     884      MECN     H12      HGA3     0.090000        1.0080           0
     37626 WT14     884      MECN     H13      HGA3     0.090000        1.0080           0
     37627 WT14     884      MECN     C2       CG1N1    0.360000       12.0110           0
     37628 WT14     884      MECN     N3       NG1T1   -0.460000       14.0070           0
     37629 WT14     885      MECN     C1       CG331   -0.170000       12.0110           0
     37630 WT14     885      MECN     H11      HGA3     0.090000        1.0080           0
     37631 WT14     885      MECN     H12      HGA3     0.090000        1.0080           0
     37632 WT14     885      MECN     H13      HGA3     0.090000        1.0080           0
     37633 WT14     885      MECN     C2       CG1N1    0.360000       12.0110           0
     37634 WT14     885      MECN     N3       NG1T1   -0.460000       14.0070           0
     37635 WT14     886      MECN     C1       CG331   -0.170000       12.0110           0
     37636 WT14     886      MECN     H11      HGA3     0.090000        1.0080           0
     37637 WT14     886      MECN     H12      HGA3     0.090000        1.0080           0
     37638 WT14     886      MECN     H13      HGA3     0.090000        1.0080           0
     37639 WT14     886      MECN     C2       CG1N1    0.360000       12.0110           0
     37640 WT14     886      MECN     N3       NG1T1   -0.460000       14.0070           0
     37641 WT14     887      MECN     C1       CG331   -0.170000       12.0110           0
     37642 WT14     887      MECN     H11      HGA3     0.090000        1.0080           0
     37643 WT14     887      MECN     H12      HGA3     0.090000        1.0080           0
     37644 WT14     887      MECN     H13      HGA3     0.090000        1.0080           0
     37645 WT14     887      MECN     C2       CG1N1    0.360000       12.0110           0
     37646 WT14     887      MECN     N3       NG1T1   -0.460000       14.0070           0
     37647 WT14     889      MECN     C1       CG331   -0.170000       12.0110           0
     37648 WT14     889      MECN     H11      HGA3     0.090000        1.0080           0
     37649 WT14     889      MECN     H12      HGA3     0.090000        1.0080           0
     37650 WT14     889      MECN     H13      HGA3     0.090000        1.0080           0
     37651 WT14     889      MECN     C2       CG1N1    0.360000       12.0110           0
     37652 WT14     889      MECN     N3       NG1T1   -0.460000       14.0070           0
     37653 WT14     891      MECN     C1       CG331   -0.170000       12.0110           0
     37654 WT14     891      MECN     H11      HGA3     0.090000        1.0080           0
     37655 WT14     891      MECN     H12      HGA3     0.090000        1.0080           0
     37656 WT14     891      MECN     H13      HGA3     0.090000        1.0080           0
     37657 WT14     891      MECN     C2       CG1N1    0.360000       12.0110           0
     37658 WT14     891      MECN     N3       NG1T1   -0.460000       14.0070           0
     37659 WT14     892      MECN     C1       CG331   -0.170000       12.0110           0
     37660 WT14     892      MECN     H11      HGA3     0.090000        1.0080           0
     37661 WT14     892      MECN     H12      HGA3     0.090000        1.0080           0
     37662 WT14     892      MECN     H13      HGA3     0.090000        1.0080           0
     37663 WT14     892      MECN     C2       CG1N1    0.360000       12.0110           0
     37664 WT14     892      MECN     N3       NG1T1   -0.460000       14.0070           0
     37665 WT14     894      MECN     C1       CG331   -0.170000       12.0110           0
     37666 WT14     894      MECN     H11      HGA3     0.090000        1.0080           0
     37667 WT14     894      MECN     H12      HGA3     0.090000        1.0080           0
     37668 WT14     894      MECN     H13      HGA3     0.090000        1.0080           0
     37669 WT14     894      MECN     C2       CG1N1    0.360000       12.0110           0
     37670 WT14     894      MECN     N3       NG1T1   -0.460000       14.0070           0
     37671 WT14     895      MECN     C1       CG331   -0.170000       12.0110           0
     37672 WT14     895      MECN     H11      HGA3     0.090000        1.0080           0
     37673 WT14     895      MECN     H12      HGA3     0.090000        1.0080           0
     37674 WT14     895      MECN     H13      HGA3     0.090000        1.0080           0
     37675 WT14     895      MECN     C2       CG1N1    0.360000       12.0110           0
     37676 WT14     895      MECN     N3       NG1T1   -0.460000       14.0070           0
     37677 WT14     896      MECN     C1       CG331   -0.170000       12.0110           0
     37678 WT14     896      MECN     H11      HGA3     0.090000        1.0080           0
     37679 WT14     896      MECN     H12      HGA3     0.090000        1.0080           0
     37680 WT14     896      MECN     H13      HGA3     0.090000        1.0080           0
     37681 WT14     896      MECN     C2       CG1N1    0.360000       12.0110           0
     37682 WT14     896      MECN     N3       NG1T1   -0.460000       14.0070           0
     37683 WT14     897      MECN     C1       CG331   -0.170000       12.0110           0
     37684 WT14     897      MECN     H11      HGA3     0.090000        1.0080           0
     37685 WT14     897      MECN     H12      HGA3     0.090000        1.0080           0
     37686 WT14     897      MECN     H13      HGA3     0.090000        1.0080           0
     37687 WT14     897      MECN     C2       CG1N1    0.360000       12.0110           0
     37688 WT14     897      MECN     N3       NG1T1   -0.460000       14.0070           0
     37689 WT14     898      MECN     C1       CG331   -0.170000       12.0110           0
     37690 WT14     898      MECN     H11      HGA3     0.090000        1.0080           0
     37691 WT14     898      MECN     H12      HGA3     0.090000        1.0080           0
     37692 WT14     898      MECN     H13      HGA3     0.090000        1.0080           0
     37693 WT14     898      MECN     C2       CG1N1    0.360000       12.0110           0
     37694 WT14     898      MECN     N3       NG1T1   -0.460000       14.0070           0
     37695 WT14     899      MECN     C1       CG331   -0.170000       12.0110           0
     37696 WT14     899      MECN     H11      HGA3     0.090000        1.0080           0
     37697 WT14     899      MECN     H12      HGA3     0.090000        1.0080           0
     37698 WT14     899      MECN     H13      HGA3     0.090000        1.0080           0
     37699 WT14     899      MECN     C2       CG1N1    0.360000       12.0110           0
     37700 WT14     899      MECN     N3       NG1T1   -0.460000       14.0070           0
     37701 WT14     900      MECN     C1       CG331   -0.170000       12.0110           0
     37702 WT14     900      MECN     H11      HGA3     0.090000        1.0080           0
     37703 WT14     900      MECN     H12      HGA3     0.090000        1.0080           0
     37704 WT14     900      MECN     H13      HGA3     0.090000        1.0080           0
     37705 WT14     900      MECN     C2       CG1N1    0.360000       12.0110           0
     37706 WT14     900      MECN     N3       NG1T1   -0.460000       14.0070           0
     37707 WT14     901      MECN     C1       CG331   -0.170000       12.0110           0
     37708 WT14     901      MECN     H11      HGA3     0.090000        1.0080           0
     37709 WT14     901      MECN     H12      HGA3     0.090000        1.0080           0
     37710 WT14     901      MECN     H13      HGA3     0.090000        1.0080           0
     37711 WT14     901      MECN     C2       CG1N1    0.360000       12.0110           0
     37712 WT14     901      MECN     N3       NG1T1   -0.460000       14.0070           0
     37713 WT14     903      MECN     C1       CG331   -0.170000       12.0110           0
     37714 WT14     903      MECN     H11      HGA3     0.090000        1.0080           0
     37715 WT14     903      MECN     H12      HGA3     0.090000        1.0080           0
     37716 WT14     903      MECN     H13      HGA3     0.090000        1.0080           0
     37717 WT14     903      MECN     C2       CG1N1    0.360000       12.0110           0
     37718 WT14     903      MECN     N3       NG1T1   -0.460000       14.0070           0
     37719 WT14     904      MECN     C1       CG331   -0.170000       12.0110           0
     37720 WT14     904      MECN     H11      HGA3     0.090000        1.0080           0
     37721 WT14     904      MECN     H12      HGA3     0.090000        1.0080           0
     37722 WT14     904      MECN     H13      HGA3     0.090000        1.0080           0
     37723 WT14     904      MECN     C2       CG1N1    0.360000       12.0110           0
     37724 WT14     904      MECN     N3       NG1T1   -0.460000       14.0070           0
     37725 WT14     905      MECN     C1       CG331   -0.170000       12.0110           0
     37726 WT14     905      MECN     H11      HGA3     0.090000        1.0080           0
     37727 WT14     905      MECN     H12      HGA3     0.090000        1.0080           0
     37728 WT14     905      MECN     H13      HGA3     0.090000        1.0080           0
     37729 WT14     905      MECN     C2       CG1N1    0.360000       12.0110           0
     37730 WT14     905      MECN     N3       NG1T1   -0.460000       14.0070           0
     37731 WT14     906      MECN     C1       CG331   -0.170000       12.0110           0
     37732 WT14     906      MECN     H11      HGA3     0.090000        1.0080           0
     37733 WT14     906      MECN     H12      HGA3     0.090000        1.0080           0
     37734 WT14     906      MECN     H13      HGA3     0.090000        1.0080           0
     37735 WT14     906      MECN     C2       CG1N1    0.360000       12.0110           0
     37736 WT14     906      MECN     N3       NG1T1   -0.460000       14.0070           0
     37737 WT14     907      MECN     C1       CG331   -0.170000       12.0110           0
     37738 WT14     907      MECN     H11      HGA3     0.090000        1.0080           0
     37739 WT14     907      MECN     H12      HGA3     0.090000        1.0080           0
     37740 WT14     907      MECN     H13      HGA3     0.090000        1.0080           0
     37741 WT14     907      MECN     C2       CG1N1    0.360000       12.0110           0
     37742 WT14     907      MECN     N3       NG1T1   -0.460000       14.0070           0
     37743 WT14     908      MECN     C1       CG331   -0.170000       12.0110           0
     37744 WT14     908      MECN     H11      HGA3     0.090000        1.0080           0
     37745 WT14     908      MECN     H12      HGA3     0.090000        1.0080           0
     37746 WT14     908      MECN     H13      HGA3     0.090000        1.0080           0
     37747 WT14     908      MECN     C2       CG1N1    0.360000       12.0110           0
     37748 WT14     908      MECN     N3       NG1T1   -0.460000       14.0070           0
     37749 WT14     910      MECN     C1       CG331   -0.170000       12.0110           0
     37750 WT14     910      MECN     H11      HGA3     0.090000        1.0080           0
     37751 WT14     910      MECN     H12      HGA3     0.090000        1.0080           0
     37752 WT14     910      MECN     H13      HGA3     0.090000        1.0080           0
     37753 WT14     910      MECN     C2       CG1N1    0.360000       12.0110           0
     37754 WT14     910      MECN     N3       NG1T1   -0.460000       14.0070           0
     37755 WT14     912      MECN     C1       CG331   -0.170000       12.0110           0
     37756 WT14     912      MECN     H11      HGA3     0.090000        1.0080           0
     37757 WT14     912      MECN     H12      HGA3     0.090000        1.0080           0
     37758 WT14     912      MECN     H13      HGA3     0.090000        1.0080           0
     37759 WT14     912      MECN     C2       CG1N1    0.360000       12.0110           0
     37760 WT14     912      MECN     N3       NG1T1   -0.460000       14.0070           0
     37761 WT14     914      MECN     C1       CG331   -0.170000       12.0110           0
     37762 WT14     914      MECN     H11      HGA3     0.090000        1.0080           0
     37763 WT14     914      MECN     H12      HGA3     0.090000        1.0080           0
     37764 WT14     914      MECN     H13      HGA3     0.090000        1.0080           0
     37765 WT14     914      MECN     C2       CG1N1    0.360000       12.0110           0
     37766 WT14     914      MECN     N3       NG1T1   -0.460000       14.0070           0
     37767 WT14     915      MECN     C1       CG331   -0.170000       12.0110           0
     37768 WT14     915      MECN     H11      HGA3     0.090000        1.0080           0
     37769 WT14     915      MECN     H12      HGA3     0.090000        1.0080           0
     37770 WT14     915      MECN     H13      HGA3     0.090000        1.0080           0
     37771 WT14     915      MECN     C2       CG1N1    0.360000       12.0110           0
     37772 WT14     915      MECN     N3       NG1T1   -0.460000       14.0070           0
     37773 WT14     916      MECN     C1       CG331   -0.170000       12.0110           0
     37774 WT14     916      MECN     H11      HGA3     0.090000        1.0080           0
     37775 WT14     916      MECN     H12      HGA3     0.090000        1.0080           0
     37776 WT14     916      MECN     H13      HGA3     0.090000        1.0080           0
     37777 WT14     916      MECN     C2       CG1N1    0.360000       12.0110           0
     37778 WT14     916      MECN     N3       NG1T1   -0.460000       14.0070           0
     37779 WT14     918      MECN     C1       CG331   -0.170000       12.0110           0
     37780 WT14     918      MECN     H11      HGA3     0.090000        1.0080           0
     37781 WT14     918      MECN     H12      HGA3     0.090000        1.0080           0
     37782 WT14     918      MECN     H13      HGA3     0.090000        1.0080           0
     37783 WT14     918      MECN     C2       CG1N1    0.360000       12.0110           0
     37784 WT14     918      MECN     N3       NG1T1   -0.460000       14.0070           0
     37785 WT14     919      MECN     C1       CG331   -0.170000       12.0110           0
     37786 WT14     919      MECN     H11      HGA3     0.090000        1.0080           0
     37787 WT14     919      MECN     H12      HGA3     0.090000        1.0080           0
     37788 WT14     919      MECN     H13      HGA3     0.090000        1.0080           0
     37789 WT14     919      MECN     C2       CG1N1    0.360000       12.0110           0
     37790 WT14     919      MECN     N3       NG1T1   -0.460000       14.0070           0
     37791 WT14     920      MECN     C1       CG331   -0.170000       12.0110           0
     37792 WT14     920      MECN     H11      HGA3     0.090000        1.0080           0
     37793 WT14     920      MECN     H12      HGA3     0.090000        1.0080           0
     37794 WT14     920      MECN     H13      HGA3     0.090000        1.0080           0
     37795 WT14     920      MECN     C2       CG1N1    0.360000       12.0110           0
     37796 WT14     920      MECN     N3       NG1T1   -0.460000       14.0070           0
     37797 WT14     921      MECN     C1       CG331   -0.170000       12.0110           0
     37798 WT14     921      MECN     H11      HGA3     0.090000        1.0080           0
     37799 WT14     921      MECN     H12      HGA3     0.090000        1.0080           0
     37800 WT14     921      MECN     H13      HGA3     0.090000        1.0080           0
     37801 WT14     921      MECN     C2       CG1N1    0.360000       12.0110           0
     37802 WT14     921      MECN     N3       NG1T1   -0.460000       14.0070           0
     37803 WT14     922      MECN     C1       CG331   -0.170000       12.0110           0
     37804 WT14     922      MECN     H11      HGA3     0.090000        1.0080           0
     37805 WT14     922      MECN     H12      HGA3     0.090000        1.0080           0
     37806 WT14     922      MECN     H13      HGA3     0.090000        1.0080           0
     37807 WT14     922      MECN     C2       CG1N1    0.360000       12.0110           0
     37808 WT14     922      MECN     N3       NG1T1   -0.460000       14.0070           0
     37809 WT14     924      MECN     C1       CG331   -0.170000       12.0110           0
     37810 WT14     924      MECN     H11      HGA3     0.090000        1.0080           0
     37811 WT14     924      MECN     H12      HGA3     0.090000        1.0080           0
     37812 WT14     924      MECN     H13      HGA3     0.090000        1.0080           0
     37813 WT14     924      MECN     C2       CG1N1    0.360000       12.0110           0
     37814 WT14     924      MECN     N3       NG1T1   -0.460000       14.0070           0
     37815 WT14     925      MECN     C1       CG331   -0.170000       12.0110           0
     37816 WT14     925      MECN     H11      HGA3     0.090000        1.0080           0
     37817 WT14     925      MECN     H12      HGA3     0.090000        1.0080           0
     37818 WT14     925      MECN     H13      HGA3     0.090000        1.0080           0
     37819 WT14     925      MECN     C2       CG1N1    0.360000       12.0110           0
     37820 WT14     925      MECN     N3       NG1T1   -0.460000       14.0070           0
     37821 WT14     926      MECN     C1       CG331   -0.170000       12.0110           0
     37822 WT14     926      MECN     H11      HGA3     0.090000        1.0080           0
     37823 WT14     926      MECN     H12      HGA3     0.090000        1.0080           0
     37824 WT14     926      MECN     H13      HGA3     0.090000        1.0080           0
     37825 WT14     926      MECN     C2       CG1N1    0.360000       12.0110           0
     37826 WT14     926      MECN     N3       NG1T1   -0.460000       14.0070           0
     37827 WT14     927      MECN     C1       CG331   -0.170000       12.0110           0
     37828 WT14     927      MECN     H11      HGA3     0.090000        1.0080           0
     37829 WT14     927      MECN     H12      HGA3     0.090000        1.0080           0
     37830 WT14     927      MECN     H13      HGA3     0.090000        1.0080           0
     37831 WT14     927      MECN     C2       CG1N1    0.360000       12.0110           0
     37832 WT14     927      MECN     N3       NG1T1   -0.460000       14.0070           0
     37833 WT14     928      MECN     C1       CG331   -0.170000       12.0110           0
     37834 WT14     928      MECN     H11      HGA3     0.090000        1.0080           0
     37835 WT14     928      MECN     H12      HGA3     0.090000        1.0080           0
     37836 WT14     928      MECN     H13      HGA3     0.090000        1.0080           0
     37837 WT14     928      MECN     C2       CG1N1    0.360000       12.0110           0
     37838 WT14     928      MECN     N3       NG1T1   -0.460000       14.0070           0
     37839 WT14     929      MECN     C1       CG331   -0.170000       12.0110           0
     37840 WT14     929      MECN     H11      HGA3     0.090000        1.0080           0
     37841 WT14     929      MECN     H12      HGA3     0.090000        1.0080           0
     37842 WT14     929      MECN     H13      HGA3     0.090000        1.0080           0
     37843 WT14     929      MECN     C2       CG1N1    0.360000       12.0110           0
     37844 WT14     929      MECN     N3       NG1T1   -0.460000       14.0070           0
     37845 WT14     930      MECN     C1       CG331   -0.170000       12.0110           0
     37846 WT14     930      MECN     H11      HGA3     0.090000        1.0080           0
     37847 WT14     930      MECN     H12      HGA3     0.090000        1.0080           0
     37848 WT14     930      MECN     H13      HGA3     0.090000        1.0080           0
     37849 WT14     930      MECN     C2       CG1N1    0.360000       12.0110           0
     37850 WT14     930      MECN     N3       NG1T1   -0.460000       14.0070           0
     37851 WT14     931      MECN     C1       CG331   -0.170000       12.0110           0
     37852 WT14     931      MECN     H11      HGA3     0.090000        1.0080           0
     37853 WT14     931      MECN     H12      HGA3     0.090000        1.0080           0
     37854 WT14     931      MECN     H13      HGA3     0.090000        1.0080           0
     37855 WT14     931      MECN     C2       CG1N1    0.360000       12.0110           0
     37856 WT14     931      MECN     N3       NG1T1   -0.460000       14.0070           0
     37857 WT14     932      MECN     C1       CG331   -0.170000       12.0110           0
     37858 WT14     932      MECN     H11      HGA3     0.090000        1.0080           0
     37859 WT14     932      MECN     H12      HGA3     0.090000        1.0080           0
     37860 WT14     932      MECN     H13      HGA3     0.090000        1.0080           0
     37861 WT14     932      MECN     C2       CG1N1    0.360000       12.0110           0
     37862 WT14     932      MECN     N3       NG1T1   -0.460000       14.0070           0
     37863 WT14     933      MECN     C1       CG331   -0.170000       12.0110           0
     37864 WT14     933      MECN     H11      HGA3     0.090000        1.0080           0
     37865 WT14     933      MECN     H12      HGA3     0.090000        1.0080           0
     37866 WT14     933      MECN     H13      HGA3     0.090000        1.0080           0
     37867 WT14     933      MECN     C2       CG1N1    0.360000       12.0110           0
     37868 WT14     933      MECN     N3       NG1T1   -0.460000       14.0070           0
     37869 WT14     934      MECN     C1       CG331   -0.170000       12.0110           0
     37870 WT14     934      MECN     H11      HGA3     0.090000        1.0080           0
     37871 WT14     934      MECN     H12      HGA3     0.090000        1.0080           0
     37872 WT14     934      MECN     H13      HGA3     0.090000        1.0080           0
     37873 WT14     934      MECN     C2       CG1N1    0.360000       12.0110           0
     37874 WT14     934      MECN     N3       NG1T1   -0.460000       14.0070           0
     37875 WT14     935      MECN     C1       CG331   -0.170000       12.0110           0
     37876 WT14     935      MECN     H11      HGA3     0.090000        1.0080           0
     37877 WT14     935      MECN     H12      HGA3     0.090000        1.0080           0
     37878 WT14     935      MECN     H13      HGA3     0.090000        1.0080           0
     37879 WT14     935      MECN     C2       CG1N1    0.360000       12.0110           0
     37880 WT14     935      MECN     N3       NG1T1   -0.460000       14.0070           0
     37881 WT14     936      MECN     C1       CG331   -0.170000       12.0110           0
     37882 WT14     936      MECN     H11      HGA3     0.090000        1.0080           0
     37883 WT14     936      MECN     H12      HGA3     0.090000        1.0080           0
     37884 WT14     936      MECN     H13      HGA3     0.090000        1.0080           0
     37885 WT14     936      MECN     C2       CG1N1    0.360000       12.0110           0
     37886 WT14     936      MECN     N3       NG1T1   -0.460000       14.0070           0
     37887 WT14     937      MECN     C1       CG331   -0.170000       12.0110           0
     37888 WT14     937      MECN     H11      HGA3     0.090000        1.0080           0
     37889 WT14     937      MECN     H12      HGA3     0.090000        1.0080           0
     37890 WT14     937      MECN     H13      HGA3     0.090000        1.0080           0
     37891 WT14     937      MECN     C2       CG1N1    0.360000       12.0110           0
     37892 WT14     937      MECN     N3       NG1T1   -0.460000       14.0070           0
     37893 WT14     938      MECN     C1       CG331   -0.170000       12.0110           0
     37894 WT14     938      MECN     H11      HGA3     0.090000        1.0080           0
     37895 WT14     938      MECN     H12      HGA3     0.090000        1.0080           0
     37896 WT14     938      MECN     H13      HGA3     0.090000        1.0080           0
     37897 WT14     938      MECN     C2       CG1N1    0.360000       12.0110           0
     37898 WT14     938      MECN     N3       NG1T1   -0.460000       14.0070           0
     37899 WT14     939      MECN     C1       CG331   -0.170000       12.0110           0
     37900 WT14     939      MECN     H11      HGA3     0.090000        1.0080           0
     37901 WT14     939      MECN     H12      HGA3     0.090000        1.0080           0
     37902 WT14     939      MECN     H13      HGA3     0.090000        1.0080           0
     37903 WT14     939      MECN     C2       CG1N1    0.360000       12.0110           0
     37904 WT14     939      MECN     N3       NG1T1   -0.460000       14.0070           0
     37905 WT14     940      MECN     C1       CG331   -0.170000       12.0110           0
     37906 WT14     940      MECN     H11      HGA3     0.090000        1.0080           0
     37907 WT14     940      MECN     H12      HGA3     0.090000        1.0080           0
     37908 WT14     940      MECN     H13      HGA3     0.090000        1.0080           0
     37909 WT14     940      MECN     C2       CG1N1    0.360000       12.0110           0
     37910 WT14     940      MECN     N3       NG1T1   -0.460000       14.0070           0
     37911 WT14     941      MECN     C1       CG331   -0.170000       12.0110           0
     37912 WT14     941      MECN     H11      HGA3     0.090000        1.0080           0
     37913 WT14     941      MECN     H12      HGA3     0.090000        1.0080           0
     37914 WT14     941      MECN     H13      HGA3     0.090000        1.0080           0
     37915 WT14     941      MECN     C2       CG1N1    0.360000       12.0110           0
     37916 WT14     941      MECN     N3       NG1T1   -0.460000       14.0070           0
     37917 WT14     942      MECN     C1       CG331   -0.170000       12.0110           0
     37918 WT14     942      MECN     H11      HGA3     0.090000        1.0080           0
     37919 WT14     942      MECN     H12      HGA3     0.090000        1.0080           0
     37920 WT14     942      MECN     H13      HGA3     0.090000        1.0080           0
     37921 WT14     942      MECN     C2       CG1N1    0.360000       12.0110           0
     37922 WT14     942      MECN     N3       NG1T1   -0.460000       14.0070           0
     37923 WT14     944      MECN     C1       CG331   -0.170000       12.0110           0
     37924 WT14     944      MECN     H11      HGA3     0.090000        1.0080           0
     37925 WT14     944      MECN     H12      HGA3     0.090000        1.0080           0
     37926 WT14     944      MECN     H13      HGA3     0.090000        1.0080           0
     37927 WT14     944      MECN     C2       CG1N1    0.360000       12.0110           0
     37928 WT14     944      MECN     N3       NG1T1   -0.460000       14.0070           0
     37929 WT14     947      MECN     C1       CG331   -0.170000       12.0110           0
     37930 WT14     947      MECN     H11      HGA3     0.090000        1.0080           0
     37931 WT14     947      MECN     H12      HGA3     0.090000        1.0080           0
     37932 WT14     947      MECN     H13      HGA3     0.090000        1.0080           0
     37933 WT14     947      MECN     C2       CG1N1    0.360000       12.0110           0
     37934 WT14     947      MECN     N3       NG1T1   -0.460000       14.0070           0
     37935 WT14     948      MECN     C1       CG331   -0.170000       12.0110           0
     37936 WT14     948      MECN     H11      HGA3     0.090000        1.0080           0
     37937 WT14     948      MECN     H12      HGA3     0.090000        1.0080           0
     37938 WT14     948      MECN     H13      HGA3     0.090000        1.0080           0
     37939 WT14     948      MECN     C2       CG1N1    0.360000       12.0110           0
     37940 WT14     948      MECN     N3       NG1T1   -0.460000       14.0070           0
     37941 WT14     949      MECN     C1       CG331   -0.170000       12.0110           0
     37942 WT14     949      MECN     H11      HGA3     0.090000        1.0080           0
     37943 WT14     949      MECN     H12      HGA3     0.090000        1.0080           0
     37944 WT14     949      MECN     H13      HGA3     0.090000        1.0080           0
     37945 WT14     949      MECN     C2       CG1N1    0.360000       12.0110           0
     37946 WT14     949      MECN     N3       NG1T1   -0.460000       14.0070           0
     37947 WT14     950      MECN     C1       CG331   -0.170000       12.0110           0
     37948 WT14     950      MECN     H11      HGA3     0.090000        1.0080           0
     37949 WT14     950      MECN     H12      HGA3     0.090000        1.0080           0
     37950 WT14     950      MECN     H13      HGA3     0.090000        1.0080           0
     37951 WT14     950      MECN     C2       CG1N1    0.360000       12.0110           0
     37952 WT14     950      MECN     N3       NG1T1   -0.460000       14.0070           0
     37953 WT14     951      MECN     C1       CG331   -0.170000       12.0110           0
     37954 WT14     951      MECN     H11      HGA3     0.090000        1.0080           0
     37955 WT14     951      MECN     H12      HGA3     0.090000        1.0080           0
     37956 WT14     951      MECN     H13      HGA3     0.090000        1.0080           0
     37957 WT14     951      MECN     C2       CG1N1    0.360000       12.0110           0
     37958 WT14     951      MECN     N3       NG1T1   -0.460000       14.0070           0
     37959 WT14     952      MECN     C1       CG331   -0.170000       12.0110           0
     37960 WT14     952      MECN     H11      HGA3     0.090000        1.0080           0
     37961 WT14     952      MECN     H12      HGA3     0.090000        1.0080           0
     37962 WT14     952      MECN     H13      HGA3     0.090000        1.0080           0
     37963 WT14     952      MECN     C2       CG1N1    0.360000       12.0110           0
     37964 WT14     952      MECN     N3       NG1T1   -0.460000       14.0070           0
     37965 WT14     953      MECN     C1       CG331   -0.170000       12.0110           0
     37966 WT14     953      MECN     H11      HGA3     0.090000        1.0080           0
     37967 WT14     953      MECN     H12      HGA3     0.090000        1.0080           0
     37968 WT14     953      MECN     H13      HGA3     0.090000        1.0080           0
     37969 WT14     953      MECN     C2       CG1N1    0.360000       12.0110           0
     37970 WT14     953      MECN     N3       NG1T1   -0.460000       14.0070           0
     37971 WT14     954      MECN     C1       CG331   -0.170000       12.0110           0
     37972 WT14     954      MECN     H11      HGA3     0.090000        1.0080           0
     37973 WT14     954      MECN     H12      HGA3     0.090000        1.0080           0
     37974 WT14     954      MECN     H13      HGA3     0.090000        1.0080           0
     37975 WT14     954      MECN     C2       CG1N1    0.360000       12.0110           0
     37976 WT14     954      MECN     N3       NG1T1   -0.460000       14.0070           0
     37977 WT14     956      MECN     C1       CG331   -0.170000       12.0110           0
     37978 WT14     956      MECN     H11      HGA3     0.090000        1.0080           0
     37979 WT14     956      MECN     H12      HGA3     0.090000        1.0080           0
     37980 WT14     956      MECN     H13      HGA3     0.090000        1.0080           0
     37981 WT14     956      MECN     C2       CG1N1    0.360000       12.0110           0
     37982 WT14     956      MECN     N3       NG1T1   -0.460000       14.0070           0
     37983 WT14     957      MECN     C1       CG331   -0.170000       12.0110           0
     37984 WT14     957      MECN     H11      HGA3     0.090000        1.0080           0
     37985 WT14     957      MECN     H12      HGA3     0.090000        1.0080           0
     37986 WT14     957      MECN     H13      HGA3     0.090000        1.0080           0
     37987 WT14     957      MECN     C2       CG1N1    0.360000       12.0110           0
     37988 WT14     957      MECN     N3       NG1T1   -0.460000       14.0070           0
     37989 WT14     958      MECN     C1       CG331   -0.170000       12.0110           0
     37990 WT14     958      MECN     H11      HGA3     0.090000        1.0080           0
     37991 WT14     958      MECN     H12      HGA3     0.090000        1.0080           0
     37992 WT14     958      MECN     H13      HGA3     0.090000        1.0080           0
     37993 WT14     958      MECN     C2       CG1N1    0.360000       12.0110           0
     37994 WT14     958      MECN     N3       NG1T1   -0.460000       14.0070           0
     37995 WT14     959      MECN     C1       CG331   -0.170000       12.0110           0
     37996 WT14     959      MECN     H11      HGA3     0.090000        1.0080           0
     37997 WT14     959      MECN     H12      HGA3     0.090000        1.0080           0
     37998 WT14     959      MECN     H13      HGA3     0.090000        1.0080           0
     37999 WT14     959      MECN     C2       CG1N1    0.360000       12.0110           0
     38000 WT14     959      MECN     N3       NG1T1   -0.460000       14.0070           0
     38001 WT14     960      MECN     C1       CG331   -0.170000       12.0110           0
     38002 WT14     960      MECN     H11      HGA3     0.090000        1.0080           0
     38003 WT14     960      MECN     H12      HGA3     0.090000        1.0080           0
     38004 WT14     960      MECN     H13      HGA3     0.090000        1.0080           0
     38005 WT14     960      MECN     C2       CG1N1    0.360000       12.0110           0
     38006 WT14     960      MECN     N3       NG1T1   -0.460000       14.0070           0
     38007 WT14     962      MECN     C1       CG331   -0.170000       12.0110           0
     38008 WT14     962      MECN     H11      HGA3     0.090000        1.0080           0
     38009 WT14     962      MECN     H12      HGA3     0.090000        1.0080           0
     38010 WT14     962      MECN     H13      HGA3     0.090000        1.0080           0
     38011 WT14     962      MECN     C2       CG1N1    0.360000       12.0110           0
     38012 WT14     962      MECN     N3       NG1T1   -0.460000       14.0070           0
     38013 WT14     963      MECN     C1       CG331   -0.170000       12.0110           0
     38014 WT14     963      MECN     H11      HGA3     0.090000        1.0080           0
     38015 WT14     963      MECN     H12      HGA3     0.090000        1.0080           0
     38016 WT14     963      MECN     H13      HGA3     0.090000        1.0080           0
     38017 WT14     963      MECN     C2       CG1N1    0.360000       12.0110           0
     38018 WT14     963      MECN     N3       NG1T1   -0.460000       14.0070           0
     38019 WT14     964      MECN     C1       CG331   -0.170000       12.0110           0
     38020 WT14     964      MECN     H11      HGA3     0.090000        1.0080           0
     38021 WT14     964      MECN     H12      HGA3     0.090000        1.0080           0
     38022 WT14     964      MECN     H13      HGA3     0.090000        1.0080           0
     38023 WT14     964      MECN     C2       CG1N1    0.360000       12.0110           0
     38024 WT14     964      MECN     N3       NG1T1   -0.460000       14.0070           0
     38025 WT14     966      MECN     C1       CG331   -0.170000       12.0110           0
     38026 WT14     966      MECN     H11      HGA3     0.090000        1.0080           0
     38027 WT14     966      MECN     H12      HGA3     0.090000        1.0080           0
     38028 WT14     966      MECN     H13      HGA3     0.090000        1.0080           0
     38029 WT14     966      MECN     C2       CG1N1    0.360000       12.0110           0
     38030 WT14     966      MECN     N3       NG1T1   -0.460000       14.0070           0
     38031 WT14     967      MECN     C1       CG331   -0.170000       12.0110           0
     38032 WT14     967      MECN     H11      HGA3     0.090000        1.0080           0
     38033 WT14     967      MECN     H12      HGA3     0.090000        1.0080           0
     38034 WT14     967      MECN     H13      HGA3     0.090000        1.0080           0
     38035 WT14     967      MECN     C2       CG1N1    0.360000       12.0110           0
     38036 WT14     967      MECN     N3       NG1T1   -0.460000       14.0070           0
     38037 WT14     968      MECN     C1       CG331   -0.170000       12.0110           0
     38038 WT14     968      MECN     H11      HGA3     0.090000        1.0080           0
     38039 WT14     968      MECN     H12      HGA3     0.090000        1.0080           0
     38040 WT14     968      MECN     H13      HGA3     0.090000        1.0080           0
     38041 WT14     968      MECN     C2       CG1N1    0.360000       12.0110           0
     38042 WT14     968      MECN     N3       NG1T1   -0.460000       14.0070           0
     38043 WT14     969      MECN     C1       CG331   -0.170000       12.0110           0
     38044 WT14     969      MECN     H11      HGA3     0.090000        1.0080           0
     38045 WT14     969      MECN     H12      HGA3     0.090000        1.0080           0
     38046 WT14     969      MECN     H13      HGA3     0.090000        1.0080           0
     38047 WT14     969      MECN     C2       CG1N1    0.360000       12.0110           0
     38048 WT14     969      MECN     N3       NG1T1   -0.460000       14.0070           0
     38049 WT14     970      MECN     C1       CG331   -0.170000       12.0110           0
     38050 WT14     970      MECN     H11      HGA3     0.090000        1.0080           0
     38051 WT14     970      MECN     H12      HGA3     0.090000        1.0080           0
     38052 WT14     970      MECN     H13      HGA3     0.090000        1.0080           0
     38053 WT14     970      MECN     C2       CG1N1    0.360000       12.0110           0
     38054 WT14     970      MECN     N3       NG1T1   -0.460000       14.0070           0
     38055 WT14     971      MECN     C1       CG331   -0.170000       12.0110           0
     38056 WT14     971      MECN     H11      HGA3     0.090000        1.0080           0
     38057 WT14     971      MECN     H12      HGA3     0.090000        1.0080           0
     38058 WT14     971      MECN     H13      HGA3     0.090000        1.0080           0
     38059 WT14     971      MECN     C2       CG1N1    0.360000       12.0110           0
     38060 WT14     971      MECN     N3       NG1T1   -0.460000       14.0070           0
     38061 WT14     972      MECN     C1       CG331   -0.170000       12.0110           0
     38062 WT14     972      MECN     H11      HGA3     0.090000        1.0080           0
     38063 WT14     972      MECN     H12      HGA3     0.090000        1.0080           0
     38064 WT14     972      MECN     H13      HGA3     0.090000        1.0080           0
     38065 WT14     972      MECN     C2       CG1N1    0.360000       12.0110           0
     38066 WT14     972      MECN     N3       NG1T1   -0.460000       14.0070           0
     38067 WT14     973      MECN     C1       CG331   -0.170000       12.0110           0
     38068 WT14     973      MECN     H11      HGA3     0.090000        1.0080           0
     38069 WT14     973      MECN     H12      HGA3     0.090000        1.0080           0
     38070 WT14     973      MECN     H13      HGA3     0.090000        1.0080           0
     38071 WT14     973      MECN     C2       CG1N1    0.360000       12.0110           0
     38072 WT14     973      MECN     N3       NG1T1   -0.460000       14.0070           0
     38073 WT14     974      MECN     C1       CG331   -0.170000       12.0110           0
     38074 WT14     974      MECN     H11      HGA3     0.090000        1.0080           0
     38075 WT14     974      MECN     H12      HGA3     0.090000        1.0080           0
     38076 WT14     974      MECN     H13      HGA3     0.090000        1.0080           0
     38077 WT14     974      MECN     C2       CG1N1    0.360000       12.0110           0
     38078 WT14     974      MECN     N3       NG1T1   -0.460000       14.0070           0
     38079 WT14     975      MECN     C1       CG331   -0.170000       12.0110           0
     38080 WT14     975      MECN     H11      HGA3     0.090000        1.0080           0
     38081 WT14     975      MECN     H12      HGA3     0.090000        1.0080           0
     38082 WT14     975      MECN     H13      HGA3     0.090000        1.0080           0
     38083 WT14     975      MECN     C2       CG1N1    0.360000       12.0110           0
     38084 WT14     975      MECN     N3       NG1T1   -0.460000       14.0070           0
     38085 WT14     976      MECN     C1       CG331   -0.170000       12.0110           0
     38086 WT14     976      MECN     H11      HGA3     0.090000        1.0080           0
     38087 WT14     976      MECN     H12      HGA3     0.090000        1.0080           0
     38088 WT14     976      MECN     H13      HGA3     0.090000        1.0080           0
     38089 WT14     976      MECN     C2       CG1N1    0.360000       12.0110           0
     38090 WT14     976      MECN     N3       NG1T1   -0.460000       14.0070           0
     38091 WT14     977      MECN     C1       CG331   -0.170000       12.0110           0
     38092 WT14     977      MECN     H11      HGA3     0.090000        1.0080           0
     38093 WT14     977      MECN     H12      HGA3     0.090000        1.0080           0
     38094 WT14     977      MECN     H13      HGA3     0.090000        1.0080           0
     38095 WT14     977      MECN     C2       CG1N1    0.360000       12.0110           0
     38096 WT14     977      MECN     N3       NG1T1   -0.460000       14.0070           0
     38097 WT14     978      MECN     C1       CG331   -0.170000       12.0110           0
     38098 WT14     978      MECN     H11      HGA3     0.090000        1.0080           0
     38099 WT14     978      MECN     H12      HGA3     0.090000        1.0080           0
     38100 WT14     978      MECN     H13      HGA3     0.090000        1.0080           0
     38101 WT14     978      MECN     C2       CG1N1    0.360000       12.0110           0
     38102 WT14     978      MECN     N3       NG1T1   -0.460000       14.0070           0
     38103 WT14     979      MECN     C1       CG331   -0.170000       12.0110           0
     38104 WT14     979      MECN     H11      HGA3     0.090000        1.0080           0
     38105 WT14     979      MECN     H12      HGA3     0.090000        1.0080           0
     38106 WT14     979      MECN     H13      HGA3     0.090000        1.0080           0
     38107 WT14     979      MECN     C2       CG1N1    0.360000       12.0110           0
     38108 WT14     979      MECN     N3       NG1T1   -0.460000       14.0070           0
     38109 WT14     980      MECN     C1       CG331   -0.170000       12.0110           0
     38110 WT14     980      MECN     H11      HGA3     0.090000        1.0080           0
     38111 WT14     980      MECN     H12      HGA3     0.090000        1.0080           0
     38112 WT14     980      MECN     H13      HGA3     0.090000        1.0080           0
     38113 WT14     980      MECN     C2       CG1N1    0.360000       12.0110           0
     38114 WT14     980      MECN     N3       NG1T1   -0.460000       14.0070           0
     38115 WT14     981      MECN     C1       CG331   -0.170000       12.0110           0
     38116 WT14     981      MECN     H11      HGA3     0.090000        1.0080           0
     38117 WT14     981      MECN     H12      HGA3     0.090000        1.0080           0
     38118 WT14     981      MECN     H13      HGA3     0.090000        1.0080           0
     38119 WT14     981      MECN     C2       CG1N1    0.360000       12.0110           0
     38120 WT14     981      MECN     N3       NG1T1   -0.460000       14.0070           0
     38121 WT14     982      MECN     C1       CG331   -0.170000       12.0110           0
     38122 WT14     982      MECN     H11      HGA3     0.090000        1.0080           0
     38123 WT14     982      MECN     H12      HGA3     0.090000        1.0080           0
     38124 WT14     982      MECN     H13      HGA3     0.090000        1.0080           0
     38125 WT14     982      MECN     C2       CG1N1    0.360000       12.0110           0
     38126 WT14     982      MECN     N3       NG1T1   -0.460000       14.0070           0
     38127 WT14     985      MECN     C1       CG331   -0.170000       12.0110           0
     38128 WT14     985      MECN     H11      HGA3     0.090000        1.0080           0
     38129 WT14     985      MECN     H12      HGA3     0.090000        1.0080           0
     38130 WT14     985      MECN     H13      HGA3     0.090000        1.0080           0
     38131 WT14     985      MECN     C2       CG1N1    0.360000       12.0110           0
     38132 WT14     985      MECN     N3       NG1T1   -0.460000       14.0070           0
     38133 WT14     986      MECN     C1       CG331   -0.170000       12.0110           0
     38134 WT14     986      MECN     H11      HGA3     0.090000        1.0080           0
     38135 WT14     986      MECN     H12      HGA3     0.090000        1.0080           0
     38136 WT14     986      MECN     H13      HGA3     0.090000        1.0080           0
     38137 WT14     986      MECN     C2       CG1N1    0.360000       12.0110           0
     38138 WT14     986      MECN     N3       NG1T1   -0.460000       14.0070           0
     38139 WT14     987      MECN     C1       CG331   -0.170000       12.0110           0
     38140 WT14     987      MECN     H11      HGA3     0.090000        1.0080           0
     38141 WT14     987      MECN     H12      HGA3     0.090000        1.0080           0
     38142 WT14     987      MECN     H13      HGA3     0.090000        1.0080           0
     38143 WT14     987      MECN     C2       CG1N1    0.360000       12.0110           0
     38144 WT14     987      MECN     N3       NG1T1   -0.460000       14.0070           0
     38145 WT14     989      MECN     C1       CG331   -0.170000       12.0110           0
     38146 WT14     989      MECN     H11      HGA3     0.090000        1.0080           0
     38147 WT14     989      MECN     H12      HGA3     0.090000        1.0080           0
     38148 WT14     989      MECN     H13      HGA3     0.090000        1.0080           0
     38149 WT14     989      MECN     C2       CG1N1    0.360000       12.0110           0
     38150 WT14     989      MECN     N3       NG1T1   -0.460000       14.0070           0
     38151 WT14     990      MECN     C1       CG331   -0.170000       12.0110           0
     38152 WT14     990      MECN     H11      HGA3     0.090000        1.0080           0
     38153 WT14     990      MECN     H12      HGA3     0.090000        1.0080           0
     38154 WT14     990      MECN     H13      HGA3     0.090000        1.0080           0
     38155 WT14     990      MECN     C2       CG1N1    0.360000       12.0110           0
     38156 WT14     990      MECN     N3       NG1T1   -0.460000       14.0070           0
     38157 WT14     991      MECN     C1       CG331   -0.170000       12.0110           0
     38158 WT14     991      MECN     H11      HGA3     0.090000        1.0080           0
     38159 WT14     991      MECN     H12      HGA3     0.090000        1.0080           0
     38160 WT14     991      MECN     H13      HGA3     0.090000        1.0080           0
     38161 WT14     991      MECN     C2       CG1N1    0.360000       12.0110           0
     38162 WT14     991      MECN     N3       NG1T1   -0.460000       14.0070           0
     38163 WT14     992      MECN     C1       CG331   -0.170000       12.0110           0
     38164 WT14     992      MECN     H11      HGA3     0.090000        1.0080           0
     38165 WT14     992      MECN     H12      HGA3     0.090000        1.0080           0
     38166 WT14     992      MECN     H13      HGA3     0.090000        1.0080           0
     38167 WT14     992      MECN     C2       CG1N1    0.360000       12.0110           0
     38168 WT14     992      MECN     N3       NG1T1   -0.460000       14.0070           0
     38169 WT14     993      MECN     C1       CG331   -0.170000       12.0110           0
     38170 WT14     993      MECN     H11      HGA3     0.090000        1.0080           0
     38171 WT14     993      MECN     H12      HGA3     0.090000        1.0080           0
     38172 WT14     993      MECN     H13      HGA3     0.090000        1.0080           0
     38173 WT14     993      MECN     C2       CG1N1    0.360000       12.0110           0
     38174 WT14     993      MECN     N3       NG1T1   -0.460000       14.0070           0
     38175 WT14     994      MECN     C1       CG331   -0.170000       12.0110           0
     38176 WT14     994      MECN     H11      HGA3     0.090000        1.0080           0
     38177 WT14     994      MECN     H12      HGA3     0.090000        1.0080           0
     38178 WT14     994      MECN     H13      HGA3     0.090000        1.0080           0
     38179 WT14     994      MECN     C2       CG1N1    0.360000       12.0110           0
     38180 WT14     994      MECN     N3       NG1T1   -0.460000       14.0070           0
     38181 WT14     995      MECN     C1       CG331   -0.170000       12.0110           0
     38182 WT14     995      MECN     H11      HGA3     0.090000        1.0080           0
     38183 WT14     995      MECN     H12      HGA3     0.090000        1.0080           0
     38184 WT14     995      MECN     H13      HGA3     0.090000        1.0080           0
     38185 WT14     995      MECN     C2       CG1N1    0.360000       12.0110           0
     38186 WT14     995      MECN     N3       NG1T1   -0.460000       14.0070           0
     38187 WT14     996      MECN     C1       CG331   -0.170000       12.0110           0
     38188 WT14     996      MECN     H11      HGA3     0.090000        1.0080           0
     38189 WT14     996      MECN     H12      HGA3     0.090000        1.0080           0
     38190 WT14     996      MECN     H13      HGA3     0.090000        1.0080           0
     38191 WT14     996      MECN     C2       CG1N1    0.360000       12.0110           0
     38192 WT14     996      MECN     N3       NG1T1   -0.460000       14.0070           0
     38193 WT14     997      MECN     C1       CG331   -0.170000       12.0110           0
     38194 WT14     997      MECN     H11      HGA3     0.090000        1.0080           0
     38195 WT14     997      MECN     H12      HGA3     0.090000        1.0080           0
     38196 WT14     997      MECN     H13      HGA3     0.090000        1.0080           0
     38197 WT14     997      MECN     C2       CG1N1    0.360000       12.0110           0
     38198 WT14     997      MECN     N3       NG1T1   -0.460000       14.0070           0
     38199 WT14     999      MECN     C1       CG331   -0.170000       12.0110           0
     38200 WT14     999      MECN     H11      HGA3     0.090000        1.0080           0
     38201 WT14     999      MECN     H12      HGA3     0.090000        1.0080           0
     38202 WT14     999      MECN     H13      HGA3     0.090000        1.0080           0
     38203 WT14     999      MECN     C2       CG1N1    0.360000       12.0110           0
     38204 WT14     999      MECN     N3       NG1T1   -0.460000       14.0070           0
     38205 WT14     1000     MECN     C1       CG331   -0.170000       12.0110           0
     38206 WT14     1000     MECN     H11      HGA3     0.090000        1.0080           0
     38207 WT14     1000     MECN     H12      HGA3     0.090000        1.0080           0
     38208 WT14     1000     MECN     H13      HGA3     0.090000        1.0080           0
     38209 WT14     1000     MECN     C2       CG1N1    0.360000       12.0110           0
     38210 WT14     1000     MECN     N3       NG1T1   -0.460000       14.0070           0
     38211 WT14     1001     MECN     C1       CG331   -0.170000       12.0110           0
     38212 WT14     1001     MECN     H11      HGA3     0.090000        1.0080           0
     38213 WT14     1001     MECN     H12      HGA3     0.090000        1.0080           0
     38214 WT14     1001     MECN     H13      HGA3     0.090000        1.0080           0
     38215 WT14     1001     MECN     C2       CG1N1    0.360000       12.0110           0
     38216 WT14     1001     MECN     N3       NG1T1   -0.460000       14.0070           0
     38217 WT14     1002     MECN     C1       CG331   -0.170000       12.0110           0
     38218 WT14     1002     MECN     H11      HGA3     0.090000        1.0080           0
     38219 WT14     1002     MECN     H12      HGA3     0.090000        1.0080           0
     38220 WT14     1002     MECN     H13      HGA3     0.090000        1.0080           0
     38221 WT14     1002     MECN     C2       CG1N1    0.360000       12.0110           0
     38222 WT14     1002     MECN     N3       NG1T1   -0.460000       14.0070           0
     38223 WT14     1003     MECN     C1       CG331   -0.170000       12.0110           0
     38224 WT14     1003     MECN     H11      HGA3     0.090000        1.0080           0
     38225 WT14     1003     MECN     H12      HGA3     0.090000        1.0080           0
     38226 WT14     1003     MECN     H13      HGA3     0.090000        1.0080           0
     38227 WT14     1003     MECN     C2       CG1N1    0.360000       12.0110           0
     38228 WT14     1003     MECN     N3       NG1T1   -0.460000       14.0070           0
     38229 WT14     1004     MECN     C1       CG331   -0.170000       12.0110           0
     38230 WT14     1004     MECN     H11      HGA3     0.090000        1.0080           0
     38231 WT14     1004     MECN     H12      HGA3     0.090000        1.0080           0
     38232 WT14     1004     MECN     H13      HGA3     0.090000        1.0080           0
     38233 WT14     1004     MECN     C2       CG1N1    0.360000       12.0110           0
     38234 WT14     1004     MECN     N3       NG1T1   -0.460000       14.0070           0
     38235 WT14     1005     MECN     C1       CG331   -0.170000       12.0110           0
     38236 WT14     1005     MECN     H11      HGA3     0.090000        1.0080           0
     38237 WT14     1005     MECN     H12      HGA3     0.090000        1.0080           0
     38238 WT14     1005     MECN     H13      HGA3     0.090000        1.0080           0
     38239 WT14     1005     MECN     C2       CG1N1    0.360000       12.0110           0
     38240 WT14     1005     MECN     N3       NG1T1   -0.460000       14.0070           0
     38241 WT14     1007     MECN     C1       CG331   -0.170000       12.0110           0
     38242 WT14     1007     MECN     H11      HGA3     0.090000        1.0080           0
     38243 WT14     1007     MECN     H12      HGA3     0.090000        1.0080           0
     38244 WT14     1007     MECN     H13      HGA3     0.090000        1.0080           0
     38245 WT14     1007     MECN     C2       CG1N1    0.360000       12.0110           0
     38246 WT14     1007     MECN     N3       NG1T1   -0.460000       14.0070           0
     38247 WT14     1008     MECN     C1       CG331   -0.170000       12.0110           0
     38248 WT14     1008     MECN     H11      HGA3     0.090000        1.0080           0
     38249 WT14     1008     MECN     H12      HGA3     0.090000        1.0080           0
     38250 WT14     1008     MECN     H13      HGA3     0.090000        1.0080           0
     38251 WT14     1008     MECN     C2       CG1N1    0.360000       12.0110           0
     38252 WT14     1008     MECN     N3       NG1T1   -0.460000       14.0070           0
     38253 WT14     1010     MECN     C1       CG331   -0.170000       12.0110           0
     38254 WT14     1010     MECN     H11      HGA3     0.090000        1.0080           0
     38255 WT14     1010     MECN     H12      HGA3     0.090000        1.0080           0
     38256 WT14     1010     MECN     H13      HGA3     0.090000        1.0080           0
     38257 WT14     1010     MECN     C2       CG1N1    0.360000       12.0110           0
     38258 WT14     1010     MECN     N3       NG1T1   -0.460000       14.0070           0
     38259 WT14     1012     MECN     C1       CG331   -0.170000       12.0110           0
     38260 WT14     1012     MECN     H11      HGA3     0.090000        1.0080           0
     38261 WT14     1012     MECN     H12      HGA3     0.090000        1.0080           0
     38262 WT14     1012     MECN     H13      HGA3     0.090000        1.0080           0
     38263 WT14     1012     MECN     C2       CG1N1    0.360000       12.0110           0
     38264 WT14     1012     MECN     N3       NG1T1   -0.460000       14.0070           0
     38265 WT14     1013     MECN     C1       CG331   -0.170000       12.0110           0
     38266 WT14     1013     MECN     H11      HGA3     0.090000        1.0080           0
     38267 WT14     1013     MECN     H12      HGA3     0.090000        1.0080           0
     38268 WT14     1013     MECN     H13      HGA3     0.090000        1.0080           0
     38269 WT14     1013     MECN     C2       CG1N1    0.360000       12.0110           0
     38270 WT14     1013     MECN     N3       NG1T1   -0.460000       14.0070           0
     38271 WT14     1015     MECN     C1       CG331   -0.170000       12.0110           0
     38272 WT14     1015     MECN     H11      HGA3     0.090000        1.0080           0
     38273 WT14     1015     MECN     H12      HGA3     0.090000        1.0080           0
     38274 WT14     1015     MECN     H13      HGA3     0.090000        1.0080           0
     38275 WT14     1015     MECN     C2       CG1N1    0.360000       12.0110           0
     38276 WT14     1015     MECN     N3       NG1T1   -0.460000       14.0070           0
     38277 WT14     1016     MECN     C1       CG331   -0.170000       12.0110           0
     38278 WT14     1016     MECN     H11      HGA3     0.090000        1.0080           0
     38279 WT14     1016     MECN     H12      HGA3     0.090000        1.0080           0
     38280 WT14     1016     MECN     H13      HGA3     0.090000        1.0080           0
     38281 WT14     1016     MECN     C2       CG1N1    0.360000       12.0110           0
     38282 WT14     1016     MECN     N3       NG1T1   -0.460000       14.0070           0
     38283 WT14     1017     MECN     C1       CG331   -0.170000       12.0110           0
     38284 WT14     1017     MECN     H11      HGA3     0.090000        1.0080           0
     38285 WT14     1017     MECN     H12      HGA3     0.090000        1.0080           0
     38286 WT14     1017     MECN     H13      HGA3     0.090000        1.0080           0
     38287 WT14     1017     MECN     C2       CG1N1    0.360000       12.0110           0
     38288 WT14     1017     MECN     N3       NG1T1   -0.460000       14.0070           0
     38289 WT14     1018     MECN     C1       CG331   -0.170000       12.0110           0
     38290 WT14     1018     MECN     H11      HGA3     0.090000        1.0080           0
     38291 WT14     1018     MECN     H12      HGA3     0.090000        1.0080           0
     38292 WT14     1018     MECN     H13      HGA3     0.090000        1.0080           0
     38293 WT14     1018     MECN     C2       CG1N1    0.360000       12.0110           0
     38294 WT14     1018     MECN     N3       NG1T1   -0.460000       14.0070           0
     38295 WT14     1019     MECN     C1       CG331   -0.170000       12.0110           0
     38296 WT14     1019     MECN     H11      HGA3     0.090000        1.0080           0
     38297 WT14     1019     MECN     H12      HGA3     0.090000        1.0080           0
     38298 WT14     1019     MECN     H13      HGA3     0.090000        1.0080           0
     38299 WT14     1019     MECN     C2       CG1N1    0.360000       12.0110           0
     38300 WT14     1019     MECN     N3       NG1T1   -0.460000       14.0070           0
     38301 WT14     1020     MECN     C1       CG331   -0.170000       12.0110           0
     38302 WT14     1020     MECN     H11      HGA3     0.090000        1.0080           0
     38303 WT14     1020     MECN     H12      HGA3     0.090000        1.0080           0
     38304 WT14     1020     MECN     H13      HGA3     0.090000        1.0080           0
     38305 WT14     1020     MECN     C2       CG1N1    0.360000       12.0110           0
     38306 WT14     1020     MECN     N3       NG1T1   -0.460000       14.0070           0
     38307 WT14     1021     MECN     C1       CG331   -0.170000       12.0110           0
     38308 WT14     1021     MECN     H11      HGA3     0.090000        1.0080           0
     38309 WT14     1021     MECN     H12      HGA3     0.090000        1.0080           0
     38310 WT14     1021     MECN     H13      HGA3     0.090000        1.0080           0
     38311 WT14     1021     MECN     C2       CG1N1    0.360000       12.0110           0
     38312 WT14     1021     MECN     N3       NG1T1   -0.460000       14.0070           0
     38313 WT14     1022     MECN     C1       CG331   -0.170000       12.0110           0
     38314 WT14     1022     MECN     H11      HGA3     0.090000        1.0080           0
     38315 WT14     1022     MECN     H12      HGA3     0.090000        1.0080           0
     38316 WT14     1022     MECN     H13      HGA3     0.090000        1.0080           0
     38317 WT14     1022     MECN     C2       CG1N1    0.360000       12.0110           0
     38318 WT14     1022     MECN     N3       NG1T1   -0.460000       14.0070           0
     38319 WT14     1023     MECN     C1       CG331   -0.170000       12.0110           0
     38320 WT14     1023     MECN     H11      HGA3     0.090000        1.0080           0
     38321 WT14     1023     MECN     H12      HGA3     0.090000        1.0080           0
     38322 WT14     1023     MECN     H13      HGA3     0.090000        1.0080           0
     38323 WT14     1023     MECN     C2       CG1N1    0.360000       12.0110           0
     38324 WT14     1023     MECN     N3       NG1T1   -0.460000       14.0070           0
     38325 WT14     1024     MECN     C1       CG331   -0.170000       12.0110           0
     38326 WT14     1024     MECN     H11      HGA3     0.090000        1.0080           0
     38327 WT14     1024     MECN     H12      HGA3     0.090000        1.0080           0
     38328 WT14     1024     MECN     H13      HGA3     0.090000        1.0080           0
     38329 WT14     1024     MECN     C2       CG1N1    0.360000       12.0110           0
     38330 WT14     1024     MECN     N3       NG1T1   -0.460000       14.0070           0
     38331 WT14     1025     MECN     C1       CG331   -0.170000       12.0110           0
     38332 WT14     1025     MECN     H11      HGA3     0.090000        1.0080           0
     38333 WT14     1025     MECN     H12      HGA3     0.090000        1.0080           0
     38334 WT14     1025     MECN     H13      HGA3     0.090000        1.0080           0
     38335 WT14     1025     MECN     C2       CG1N1    0.360000       12.0110           0
     38336 WT14     1025     MECN     N3       NG1T1   -0.460000       14.0070           0
     38337 WT14     1026     MECN     C1       CG331   -0.170000       12.0110           0
     38338 WT14     1026     MECN     H11      HGA3     0.090000        1.0080           0
     38339 WT14     1026     MECN     H12      HGA3     0.090000        1.0080           0
     38340 WT14     1026     MECN     H13      HGA3     0.090000        1.0080           0
     38341 WT14     1026     MECN     C2       CG1N1    0.360000       12.0110           0
     38342 WT14     1026     MECN     N3       NG1T1   -0.460000       14.0070           0
     38343 WT14     1027     MECN     C1       CG331   -0.170000       12.0110           0
     38344 WT14     1027     MECN     H11      HGA3     0.090000        1.0080           0
     38345 WT14     1027     MECN     H12      HGA3     0.090000        1.0080           0
     38346 WT14     1027     MECN     H13      HGA3     0.090000        1.0080           0
     38347 WT14     1027     MECN     C2       CG1N1    0.360000       12.0110           0
     38348 WT14     1027     MECN     N3       NG1T1   -0.460000       14.0070           0
     38349 WT14     1028     MECN     C1       CG331   -0.170000       12.0110           0
     38350 WT14     1028     MECN     H11      HGA3     0.090000        1.0080           0
     38351 WT14     1028     MECN     H12      HGA3     0.090000        1.0080           0
     38352 WT14     1028     MECN     H13      HGA3     0.090000        1.0080           0
     38353 WT14     1028     MECN     C2       CG1N1    0.360000       12.0110           0
     38354 WT14     1028     MECN     N3       NG1T1   -0.460000       14.0070           0
     38355 WT14     1029     MECN     C1       CG331   -0.170000       12.0110           0
     38356 WT14     1029     MECN     H11      HGA3     0.090000        1.0080           0
     38357 WT14     1029     MECN     H12      HGA3     0.090000        1.0080           0
     38358 WT14     1029     MECN     H13      HGA3     0.090000        1.0080           0
     38359 WT14     1029     MECN     C2       CG1N1    0.360000       12.0110           0
     38360 WT14     1029     MECN     N3       NG1T1   -0.460000       14.0070           0
     38361 WT14     1030     MECN     C1       CG331   -0.170000       12.0110           0
     38362 WT14     1030     MECN     H11      HGA3     0.090000        1.0080           0
     38363 WT14     1030     MECN     H12      HGA3     0.090000        1.0080           0
     38364 WT14     1030     MECN     H13      HGA3     0.090000        1.0080           0
     38365 WT14     1030     MECN     C2       CG1N1    0.360000       12.0110           0
     38366 WT14     1030     MECN     N3       NG1T1   -0.460000       14.0070           0
     38367 WT14     1031     MECN     C1       CG331   -0.170000       12.0110           0
     38368 WT14     1031     MECN     H11      HGA3     0.090000        1.0080           0
     38369 WT14     1031     MECN     H12      HGA3     0.090000        1.0080           0
     38370 WT14     1031     MECN     H13      HGA3     0.090000        1.0080           0
     38371 WT14     1031     MECN     C2       CG1N1    0.360000       12.0110           0
     38372 WT14     1031     MECN     N3       NG1T1   -0.460000       14.0070           0
     38373 WT14     1032     MECN     C1       CG331   -0.170000       12.0110           0
     38374 WT14     1032     MECN     H11      HGA3     0.090000        1.0080           0
     38375 WT14     1032     MECN     H12      HGA3     0.090000        1.0080           0
     38376 WT14     1032     MECN     H13      HGA3     0.090000        1.0080           0
     38377 WT14     1032     MECN     C2       CG1N1    0.360000       12.0110           0
     38378 WT14     1032     MECN     N3       NG1T1   -0.460000       14.0070           0
     38379 WT14     1033     MECN     C1       CG331   -0.170000       12.0110           0
     38380 WT14     1033     MECN     H11      HGA3     0.090000        1.0080           0
     38381 WT14     1033     MECN     H12      HGA3     0.090000        1.0080           0
     38382 WT14     1033     MECN     H13      HGA3     0.090000        1.0080           0
     38383 WT14     1033     MECN     C2       CG1N1    0.360000       12.0110           0
     38384 WT14     1033     MECN     N3       NG1T1   -0.460000       14.0070           0
     38385 WT14     1034     MECN     C1       CG331   -0.170000       12.0110           0
     38386 WT14     1034     MECN     H11      HGA3     0.090000        1.0080           0
     38387 WT14     1034     MECN     H12      HGA3     0.090000        1.0080           0
     38388 WT14     1034     MECN     H13      HGA3     0.090000        1.0080           0
     38389 WT14     1034     MECN     C2       CG1N1    0.360000       12.0110           0
     38390 WT14     1034     MECN     N3       NG1T1   -0.460000       14.0070           0
     38391 WT14     1036     MECN     C1       CG331   -0.170000       12.0110           0
     38392 WT14     1036     MECN     H11      HGA3     0.090000        1.0080           0
     38393 WT14     1036     MECN     H12      HGA3     0.090000        1.0080           0
     38394 WT14     1036     MECN     H13      HGA3     0.090000        1.0080           0
     38395 WT14     1036     MECN     C2       CG1N1    0.360000       12.0110           0
     38396 WT14     1036     MECN     N3       NG1T1   -0.460000       14.0070           0
     38397 WT14     1037     MECN     C1       CG331   -0.170000       12.0110           0
     38398 WT14     1037     MECN     H11      HGA3     0.090000        1.0080           0
     38399 WT14     1037     MECN     H12      HGA3     0.090000        1.0080           0
     38400 WT14     1037     MECN     H13      HGA3     0.090000        1.0080           0
     38401 WT14     1037     MECN     C2       CG1N1    0.360000       12.0110           0
     38402 WT14     1037     MECN     N3       NG1T1   -0.460000       14.0070           0
     38403 WT14     1038     MECN     C1       CG331   -0.170000       12.0110           0
     38404 WT14     1038     MECN     H11      HGA3     0.090000        1.0080           0
     38405 WT14     1038     MECN     H12      HGA3     0.090000        1.0080           0
     38406 WT14     1038     MECN     H13      HGA3     0.090000        1.0080           0
     38407 WT14     1038     MECN     C2       CG1N1    0.360000       12.0110           0
     38408 WT14     1038     MECN     N3       NG1T1   -0.460000       14.0070           0
     38409 WT14     1039     MECN     C1       CG331   -0.170000       12.0110           0
     38410 WT14     1039     MECN     H11      HGA3     0.090000        1.0080           0
     38411 WT14     1039     MECN     H12      HGA3     0.090000        1.0080           0
     38412 WT14     1039     MECN     H13      HGA3     0.090000        1.0080           0
     38413 WT14     1039     MECN     C2       CG1N1    0.360000       12.0110           0
     38414 WT14     1039     MECN     N3       NG1T1   -0.460000       14.0070           0
     38415 WT14     1040     MECN     C1       CG331   -0.170000       12.0110           0
     38416 WT14     1040     MECN     H11      HGA3     0.090000        1.0080           0
     38417 WT14     1040     MECN     H12      HGA3     0.090000        1.0080           0
     38418 WT14     1040     MECN     H13      HGA3     0.090000        1.0080           0
     38419 WT14     1040     MECN     C2       CG1N1    0.360000       12.0110           0
     38420 WT14     1040     MECN     N3       NG1T1   -0.460000       14.0070           0
     38421 WT14     1041     MECN     C1       CG331   -0.170000       12.0110           0
     38422 WT14     1041     MECN     H11      HGA3     0.090000        1.0080           0
     38423 WT14     1041     MECN     H12      HGA3     0.090000        1.0080           0
     38424 WT14     1041     MECN     H13      HGA3     0.090000        1.0080           0
     38425 WT14     1041     MECN     C2       CG1N1    0.360000       12.0110           0
     38426 WT14     1041     MECN     N3       NG1T1   -0.460000       14.0070           0
     38427 WT14     1042     MECN     C1       CG331   -0.170000       12.0110           0
     38428 WT14     1042     MECN     H11      HGA3     0.090000        1.0080           0
     38429 WT14     1042     MECN     H12      HGA3     0.090000        1.0080           0
     38430 WT14     1042     MECN     H13      HGA3     0.090000        1.0080           0
     38431 WT14     1042     MECN     C2       CG1N1    0.360000       12.0110           0
     38432 WT14     1042     MECN     N3       NG1T1   -0.460000       14.0070           0
     38433 WT14     1043     MECN     C1       CG331   -0.170000       12.0110           0
     38434 WT14     1043     MECN     H11      HGA3     0.090000        1.0080           0
     38435 WT14     1043     MECN     H12      HGA3     0.090000        1.0080           0
     38436 WT14     1043     MECN     H13      HGA3     0.090000        1.0080           0
     38437 WT14     1043     MECN     C2       CG1N1    0.360000       12.0110           0
     38438 WT14     1043     MECN     N3       NG1T1   -0.460000       14.0070           0
     38439 WT14     1044     MECN     C1       CG331   -0.170000       12.0110           0
     38440 WT14     1044     MECN     H11      HGA3     0.090000        1.0080           0
     38441 WT14     1044     MECN     H12      HGA3     0.090000        1.0080           0
     38442 WT14     1044     MECN     H13      HGA3     0.090000        1.0080           0
     38443 WT14     1044     MECN     C2       CG1N1    0.360000       12.0110           0
     38444 WT14     1044     MECN     N3       NG1T1   -0.460000       14.0070           0
     38445 WT14     1045     MECN     C1       CG331   -0.170000       12.0110           0
     38446 WT14     1045     MECN     H11      HGA3     0.090000        1.0080           0
     38447 WT14     1045     MECN     H12      HGA3     0.090000        1.0080           0
     38448 WT14     1045     MECN     H13      HGA3     0.090000        1.0080           0
     38449 WT14     1045     MECN     C2       CG1N1    0.360000       12.0110           0
     38450 WT14     1045     MECN     N3       NG1T1   -0.460000       14.0070           0
     38451 WT14     1046     MECN     C1       CG331   -0.170000       12.0110           0
     38452 WT14     1046     MECN     H11      HGA3     0.090000        1.0080           0
     38453 WT14     1046     MECN     H12      HGA3     0.090000        1.0080           0
     38454 WT14     1046     MECN     H13      HGA3     0.090000        1.0080           0
     38455 WT14     1046     MECN     C2       CG1N1    0.360000       12.0110           0
     38456 WT14     1046     MECN     N3       NG1T1   -0.460000       14.0070           0
     38457 WT14     1047     MECN     C1       CG331   -0.170000       12.0110           0
     38458 WT14     1047     MECN     H11      HGA3     0.090000        1.0080           0
     38459 WT14     1047     MECN     H12      HGA3     0.090000        1.0080           0
     38460 WT14     1047     MECN     H13      HGA3     0.090000        1.0080           0
     38461 WT14     1047     MECN     C2       CG1N1    0.360000       12.0110           0
     38462 WT14     1047     MECN     N3       NG1T1   -0.460000       14.0070           0
     38463 WT14     1048     MECN     C1       CG331   -0.170000       12.0110           0
     38464 WT14     1048     MECN     H11      HGA3     0.090000        1.0080           0
     38465 WT14     1048     MECN     H12      HGA3     0.090000        1.0080           0
     38466 WT14     1048     MECN     H13      HGA3     0.090000        1.0080           0
     38467 WT14     1048     MECN     C2       CG1N1    0.360000       12.0110           0
     38468 WT14     1048     MECN     N3       NG1T1   -0.460000       14.0070           0
     38469 WT14     1049     MECN     C1       CG331   -0.170000       12.0110           0
     38470 WT14     1049     MECN     H11      HGA3     0.090000        1.0080           0
     38471 WT14     1049     MECN     H12      HGA3     0.090000        1.0080           0
     38472 WT14     1049     MECN     H13      HGA3     0.090000        1.0080           0
     38473 WT14     1049     MECN     C2       CG1N1    0.360000       12.0110           0
     38474 WT14     1049     MECN     N3       NG1T1   -0.460000       14.0070           0
     38475 WT14     1050     MECN     C1       CG331   -0.170000       12.0110           0
     38476 WT14     1050     MECN     H11      HGA3     0.090000        1.0080           0
     38477 WT14     1050     MECN     H12      HGA3     0.090000        1.0080           0
     38478 WT14     1050     MECN     H13      HGA3     0.090000        1.0080           0
     38479 WT14     1050     MECN     C2       CG1N1    0.360000       12.0110           0
     38480 WT14     1050     MECN     N3       NG1T1   -0.460000       14.0070           0
     38481 WT14     1051     MECN     C1       CG331   -0.170000       12.0110           0
     38482 WT14     1051     MECN     H11      HGA3     0.090000        1.0080           0
     38483 WT14     1051     MECN     H12      HGA3     0.090000        1.0080           0
     38484 WT14     1051     MECN     H13      HGA3     0.090000        1.0080           0
     38485 WT14     1051     MECN     C2       CG1N1    0.360000       12.0110           0
     38486 WT14     1051     MECN     N3       NG1T1   -0.460000       14.0070           0
     38487 WT14     1052     MECN     C1       CG331   -0.170000       12.0110           0
     38488 WT14     1052     MECN     H11      HGA3     0.090000        1.0080           0
     38489 WT14     1052     MECN     H12      HGA3     0.090000        1.0080           0
     38490 WT14     1052     MECN     H13      HGA3     0.090000        1.0080           0
     38491 WT14     1052     MECN     C2       CG1N1    0.360000       12.0110           0
     38492 WT14     1052     MECN     N3       NG1T1   -0.460000       14.0070           0
     38493 WT14     1053     MECN     C1       CG331   -0.170000       12.0110           0
     38494 WT14     1053     MECN     H11      HGA3     0.090000        1.0080           0
     38495 WT14     1053     MECN     H12      HGA3     0.090000        1.0080           0
     38496 WT14     1053     MECN     H13      HGA3     0.090000        1.0080           0
     38497 WT14     1053     MECN     C2       CG1N1    0.360000       12.0110           0
     38498 WT14     1053     MECN     N3       NG1T1   -0.460000       14.0070           0
     38499 WT14     1055     MECN     C1       CG331   -0.170000       12.0110           0
     38500 WT14     1055     MECN     H11      HGA3     0.090000        1.0080           0
     38501 WT14     1055     MECN     H12      HGA3     0.090000        1.0080           0
     38502 WT14     1055     MECN     H13      HGA3     0.090000        1.0080           0
     38503 WT14     1055     MECN     C2       CG1N1    0.360000       12.0110           0
     38504 WT14     1055     MECN     N3       NG1T1   -0.460000       14.0070           0
     38505 WT14     1056     MECN     C1       CG331   -0.170000       12.0110           0
     38506 WT14     1056     MECN     H11      HGA3     0.090000        1.0080           0
     38507 WT14     1056     MECN     H12      HGA3     0.090000        1.0080           0
     38508 WT14     1056     MECN     H13      HGA3     0.090000        1.0080           0
     38509 WT14     1056     MECN     C2       CG1N1    0.360000       12.0110           0
     38510 WT14     1056     MECN     N3       NG1T1   -0.460000       14.0070           0
     38511 WT14     1057     MECN     C1       CG331   -0.170000       12.0110           0
     38512 WT14     1057     MECN     H11      HGA3     0.090000        1.0080           0
     38513 WT14     1057     MECN     H12      HGA3     0.090000        1.0080           0
     38514 WT14     1057     MECN     H13      HGA3     0.090000        1.0080           0
     38515 WT14     1057     MECN     C2       CG1N1    0.360000       12.0110           0
     38516 WT14     1057     MECN     N3       NG1T1   -0.460000       14.0070           0
     38517 WT14     1058     MECN     C1       CG331   -0.170000       12.0110           0
     38518 WT14     1058     MECN     H11      HGA3     0.090000        1.0080           0
     38519 WT14     1058     MECN     H12      HGA3     0.090000        1.0080           0
     38520 WT14     1058     MECN     H13      HGA3     0.090000        1.0080           0
     38521 WT14     1058     MECN     C2       CG1N1    0.360000       12.0110           0
     38522 WT14     1058     MECN     N3       NG1T1   -0.460000       14.0070           0
     38523 WT14     1060     MECN     C1       CG331   -0.170000       12.0110           0
     38524 WT14     1060     MECN     H11      HGA3     0.090000        1.0080           0
     38525 WT14     1060     MECN     H12      HGA3     0.090000        1.0080           0
     38526 WT14     1060     MECN     H13      HGA3     0.090000        1.0080           0
     38527 WT14     1060     MECN     C2       CG1N1    0.360000       12.0110           0
     38528 WT14     1060     MECN     N3       NG1T1   -0.460000       14.0070           0
     38529 WT14     1062     MECN     C1       CG331   -0.170000       12.0110           0
     38530 WT14     1062     MECN     H11      HGA3     0.090000        1.0080           0
     38531 WT14     1062     MECN     H12      HGA3     0.090000        1.0080           0
     38532 WT14     1062     MECN     H13      HGA3     0.090000        1.0080           0
     38533 WT14     1062     MECN     C2       CG1N1    0.360000       12.0110           0
     38534 WT14     1062     MECN     N3       NG1T1   -0.460000       14.0070           0
     38535 WT14     1063     MECN     C1       CG331   -0.170000       12.0110           0
     38536 WT14     1063     MECN     H11      HGA3     0.090000        1.0080           0
     38537 WT14     1063     MECN     H12      HGA3     0.090000        1.0080           0
     38538 WT14     1063     MECN     H13      HGA3     0.090000        1.0080           0
     38539 WT14     1063     MECN     C2       CG1N1    0.360000       12.0110           0
     38540 WT14     1063     MECN     N3       NG1T1   -0.460000       14.0070           0
     38541 WT14     1064     MECN     C1       CG331   -0.170000       12.0110           0
     38542 WT14     1064     MECN     H11      HGA3     0.090000        1.0080           0
     38543 WT14     1064     MECN     H12      HGA3     0.090000        1.0080           0
     38544 WT14     1064     MECN     H13      HGA3     0.090000        1.0080           0
     38545 WT14     1064     MECN     C2       CG1N1    0.360000       12.0110           0
     38546 WT14     1064     MECN     N3       NG1T1   -0.460000       14.0070           0
     38547 WT14     1065     MECN     C1       CG331   -0.170000       12.0110           0
     38548 WT14     1065     MECN     H11      HGA3     0.090000        1.0080           0
     38549 WT14     1065     MECN     H12      HGA3     0.090000        1.0080           0
     38550 WT14     1065     MECN     H13      HGA3     0.090000        1.0080           0
     38551 WT14     1065     MECN     C2       CG1N1    0.360000       12.0110           0
     38552 WT14     1065     MECN     N3       NG1T1   -0.460000       14.0070           0
     38553 WT14     1066     MECN     C1       CG331   -0.170000       12.0110           0
     38554 WT14     1066     MECN     H11      HGA3     0.090000        1.0080           0
     38555 WT14     1066     MECN     H12      HGA3     0.090000        1.0080           0
     38556 WT14     1066     MECN     H13      HGA3     0.090000        1.0080           0
     38557 WT14     1066     MECN     C2       CG1N1    0.360000       12.0110           0
     38558 WT14     1066     MECN     N3       NG1T1   -0.460000       14.0070           0
     38559 WT14     1067     MECN     C1       CG331   -0.170000       12.0110           0
     38560 WT14     1067     MECN     H11      HGA3     0.090000        1.0080           0
     38561 WT14     1067     MECN     H12      HGA3     0.090000        1.0080           0
     38562 WT14     1067     MECN     H13      HGA3     0.090000        1.0080           0
     38563 WT14     1067     MECN     C2       CG1N1    0.360000       12.0110           0
     38564 WT14     1067     MECN     N3       NG1T1   -0.460000       14.0070           0
     38565 WT14     1068     MECN     C1       CG331   -0.170000       12.0110           0
     38566 WT14     1068     MECN     H11      HGA3     0.090000        1.0080           0
     38567 WT14     1068     MECN     H12      HGA3     0.090000        1.0080           0
     38568 WT14     1068     MECN     H13      HGA3     0.090000        1.0080           0
     38569 WT14     1068     MECN     C2       CG1N1    0.360000       12.0110           0
     38570 WT14     1068     MECN     N3       NG1T1   -0.460000       14.0070           0
     38571 WT14     1069     MECN     C1       CG331   -0.170000       12.0110           0
     38572 WT14     1069     MECN     H11      HGA3     0.090000        1.0080           0
     38573 WT14     1069     MECN     H12      HGA3     0.090000        1.0080           0
     38574 WT14     1069     MECN     H13      HGA3     0.090000        1.0080           0
     38575 WT14     1069     MECN     C2       CG1N1    0.360000       12.0110           0
     38576 WT14     1069     MECN     N3       NG1T1   -0.460000       14.0070           0
     38577 WT14     1070     MECN     C1       CG331   -0.170000       12.0110           0
     38578 WT14     1070     MECN     H11      HGA3     0.090000        1.0080           0
     38579 WT14     1070     MECN     H12      HGA3     0.090000        1.0080           0
     38580 WT14     1070     MECN     H13      HGA3     0.090000        1.0080           0
     38581 WT14     1070     MECN     C2       CG1N1    0.360000       12.0110           0
     38582 WT14     1070     MECN     N3       NG1T1   -0.460000       14.0070           0
     38583 WT14     1071     MECN     C1       CG331   -0.170000       12.0110           0
     38584 WT14     1071     MECN     H11      HGA3     0.090000        1.0080           0
     38585 WT14     1071     MECN     H12      HGA3     0.090000        1.0080           0
     38586 WT14     1071     MECN     H13      HGA3     0.090000        1.0080           0
     38587 WT14     1071     MECN     C2       CG1N1    0.360000       12.0110           0
     38588 WT14     1071     MECN     N3       NG1T1   -0.460000       14.0070           0
     38589 WT14     1072     MECN     C1       CG331   -0.170000       12.0110           0
     38590 WT14     1072     MECN     H11      HGA3     0.090000        1.0080           0
     38591 WT14     1072     MECN     H12      HGA3     0.090000        1.0080           0
     38592 WT14     1072     MECN     H13      HGA3     0.090000        1.0080           0
     38593 WT14     1072     MECN     C2       CG1N1    0.360000       12.0110           0
     38594 WT14     1072     MECN     N3       NG1T1   -0.460000       14.0070           0
     38595 WT14     1073     MECN     C1       CG331   -0.170000       12.0110           0
     38596 WT14     1073     MECN     H11      HGA3     0.090000        1.0080           0
     38597 WT14     1073     MECN     H12      HGA3     0.090000        1.0080           0
     38598 WT14     1073     MECN     H13      HGA3     0.090000        1.0080           0
     38599 WT14     1073     MECN     C2       CG1N1    0.360000       12.0110           0
     38600 WT14     1073     MECN     N3       NG1T1   -0.460000       14.0070           0
     38601 WT14     1074     MECN     C1       CG331   -0.170000       12.0110           0
     38602 WT14     1074     MECN     H11      HGA3     0.090000        1.0080           0
     38603 WT14     1074     MECN     H12      HGA3     0.090000        1.0080           0
     38604 WT14     1074     MECN     H13      HGA3     0.090000        1.0080           0
     38605 WT14     1074     MECN     C2       CG1N1    0.360000       12.0110           0
     38606 WT14     1074     MECN     N3       NG1T1   -0.460000       14.0070           0
     38607 WT14     1075     MECN     C1       CG331   -0.170000       12.0110           0
     38608 WT14     1075     MECN     H11      HGA3     0.090000        1.0080           0
     38609 WT14     1075     MECN     H12      HGA3     0.090000        1.0080           0
     38610 WT14     1075     MECN     H13      HGA3     0.090000        1.0080           0
     38611 WT14     1075     MECN     C2       CG1N1    0.360000       12.0110           0
     38612 WT14     1075     MECN     N3       NG1T1   -0.460000       14.0070           0
     38613 WT14     1076     MECN     C1       CG331   -0.170000       12.0110           0
     38614 WT14     1076     MECN     H11      HGA3     0.090000        1.0080           0
     38615 WT14     1076     MECN     H12      HGA3     0.090000        1.0080           0
     38616 WT14     1076     MECN     H13      HGA3     0.090000        1.0080           0
     38617 WT14     1076     MECN     C2       CG1N1    0.360000       12.0110           0
     38618 WT14     1076     MECN     N3       NG1T1   -0.460000       14.0070           0
     38619 WT14     1077     MECN     C1       CG331   -0.170000       12.0110           0
     38620 WT14     1077     MECN     H11      HGA3     0.090000        1.0080           0
     38621 WT14     1077     MECN     H12      HGA3     0.090000        1.0080           0
     38622 WT14     1077     MECN     H13      HGA3     0.090000        1.0080           0
     38623 WT14     1077     MECN     C2       CG1N1    0.360000       12.0110           0
     38624 WT14     1077     MECN     N3       NG1T1   -0.460000       14.0070           0
     38625 WT14     1078     MECN     C1       CG331   -0.170000       12.0110           0
     38626 WT14     1078     MECN     H11      HGA3     0.090000        1.0080           0
     38627 WT14     1078     MECN     H12      HGA3     0.090000        1.0080           0
     38628 WT14     1078     MECN     H13      HGA3     0.090000        1.0080           0
     38629 WT14     1078     MECN     C2       CG1N1    0.360000       12.0110           0
     38630 WT14     1078     MECN     N3       NG1T1   -0.460000       14.0070           0
     38631 WT14     1079     MECN     C1       CG331   -0.170000       12.0110           0
     38632 WT14     1079     MECN     H11      HGA3     0.090000        1.0080           0
     38633 WT14     1079     MECN     H12      HGA3     0.090000        1.0080           0
     38634 WT14     1079     MECN     H13      HGA3     0.090000        1.0080           0
     38635 WT14     1079     MECN     C2       CG1N1    0.360000       12.0110           0
     38636 WT14     1079     MECN     N3       NG1T1   -0.460000       14.0070           0
     38637 WT14     1080     MECN     C1       CG331   -0.170000       12.0110           0
     38638 WT14     1080     MECN     H11      HGA3     0.090000        1.0080           0
     38639 WT14     1080     MECN     H12      HGA3     0.090000        1.0080           0
     38640 WT14     1080     MECN     H13      HGA3     0.090000        1.0080           0
     38641 WT14     1080     MECN     C2       CG1N1    0.360000       12.0110           0
     38642 WT14     1080     MECN     N3       NG1T1   -0.460000       14.0070           0
     38643 WT14     1081     MECN     C1       CG331   -0.170000       12.0110           0
     38644 WT14     1081     MECN     H11      HGA3     0.090000        1.0080           0
     38645 WT14     1081     MECN     H12      HGA3     0.090000        1.0080           0
     38646 WT14     1081     MECN     H13      HGA3     0.090000        1.0080           0
     38647 WT14     1081     MECN     C2       CG1N1    0.360000       12.0110           0
     38648 WT14     1081     MECN     N3       NG1T1   -0.460000       14.0070           0
     38649 WT14     1082     MECN     C1       CG331   -0.170000       12.0110           0
     38650 WT14     1082     MECN     H11      HGA3     0.090000        1.0080           0
     38651 WT14     1082     MECN     H12      HGA3     0.090000        1.0080           0
     38652 WT14     1082     MECN     H13      HGA3     0.090000        1.0080           0
     38653 WT14     1082     MECN     C2       CG1N1    0.360000       12.0110           0
     38654 WT14     1082     MECN     N3       NG1T1   -0.460000       14.0070           0
     38655 WT14     1083     MECN     C1       CG331   -0.170000       12.0110           0
     38656 WT14     1083     MECN     H11      HGA3     0.090000        1.0080           0
     38657 WT14     1083     MECN     H12      HGA3     0.090000        1.0080           0
     38658 WT14     1083     MECN     H13      HGA3     0.090000        1.0080           0
     38659 WT14     1083     MECN     C2       CG1N1    0.360000       12.0110           0
     38660 WT14     1083     MECN     N3       NG1T1   -0.460000       14.0070           0
     38661 WT14     1084     MECN     C1       CG331   -0.170000       12.0110           0
     38662 WT14     1084     MECN     H11      HGA3     0.090000        1.0080           0
     38663 WT14     1084     MECN     H12      HGA3     0.090000        1.0080           0
     38664 WT14     1084     MECN     H13      HGA3     0.090000        1.0080           0
     38665 WT14     1084     MECN     C2       CG1N1    0.360000       12.0110           0
     38666 WT14     1084     MECN     N3       NG1T1   -0.460000       14.0070           0
     38667 WT14     1085     MECN     C1       CG331   -0.170000       12.0110           0
     38668 WT14     1085     MECN     H11      HGA3     0.090000        1.0080           0
     38669 WT14     1085     MECN     H12      HGA3     0.090000        1.0080           0
     38670 WT14     1085     MECN     H13      HGA3     0.090000        1.0080           0
     38671 WT14     1085     MECN     C2       CG1N1    0.360000       12.0110           0
     38672 WT14     1085     MECN     N3       NG1T1   -0.460000       14.0070           0
     38673 WT14     1086     MECN     C1       CG331   -0.170000       12.0110           0
     38674 WT14     1086     MECN     H11      HGA3     0.090000        1.0080           0
     38675 WT14     1086     MECN     H12      HGA3     0.090000        1.0080           0
     38676 WT14     1086     MECN     H13      HGA3     0.090000        1.0080           0
     38677 WT14     1086     MECN     C2       CG1N1    0.360000       12.0110           0
     38678 WT14     1086     MECN     N3       NG1T1   -0.460000       14.0070           0
     38679 WT14     1087     MECN     C1       CG331   -0.170000       12.0110           0
     38680 WT14     1087     MECN     H11      HGA3     0.090000        1.0080           0
     38681 WT14     1087     MECN     H12      HGA3     0.090000        1.0080           0
     38682 WT14     1087     MECN     H13      HGA3     0.090000        1.0080           0
     38683 WT14     1087     MECN     C2       CG1N1    0.360000       12.0110           0
     38684 WT14     1087     MECN     N3       NG1T1   -0.460000       14.0070           0
     38685 WT14     1088     MECN     C1       CG331   -0.170000       12.0110           0
     38686 WT14     1088     MECN     H11      HGA3     0.090000        1.0080           0
     38687 WT14     1088     MECN     H12      HGA3     0.090000        1.0080           0
     38688 WT14     1088     MECN     H13      HGA3     0.090000        1.0080           0
     38689 WT14     1088     MECN     C2       CG1N1    0.360000       12.0110           0
     38690 WT14     1088     MECN     N3       NG1T1   -0.460000       14.0070           0
     38691 WT14     1089     MECN     C1       CG331   -0.170000       12.0110           0
     38692 WT14     1089     MECN     H11      HGA3     0.090000        1.0080           0
     38693 WT14     1089     MECN     H12      HGA3     0.090000        1.0080           0
     38694 WT14     1089     MECN     H13      HGA3     0.090000        1.0080           0
     38695 WT14     1089     MECN     C2       CG1N1    0.360000       12.0110           0
     38696 WT14     1089     MECN     N3       NG1T1   -0.460000       14.0070           0
     38697 WT14     1090     MECN     C1       CG331   -0.170000       12.0110           0
     38698 WT14     1090     MECN     H11      HGA3     0.090000        1.0080           0
     38699 WT14     1090     MECN     H12      HGA3     0.090000        1.0080           0
     38700 WT14     1090     MECN     H13      HGA3     0.090000        1.0080           0
     38701 WT14     1090     MECN     C2       CG1N1    0.360000       12.0110           0
     38702 WT14     1090     MECN     N3       NG1T1   -0.460000       14.0070           0
     38703 WT14     1091     MECN     C1       CG331   -0.170000       12.0110           0
     38704 WT14     1091     MECN     H11      HGA3     0.090000        1.0080           0
     38705 WT14     1091     MECN     H12      HGA3     0.090000        1.0080           0
     38706 WT14     1091     MECN     H13      HGA3     0.090000        1.0080           0
     38707 WT14     1091     MECN     C2       CG1N1    0.360000       12.0110           0
     38708 WT14     1091     MECN     N3       NG1T1   -0.460000       14.0070           0
     38709 WT14     1092     MECN     C1       CG331   -0.170000       12.0110           0
     38710 WT14     1092     MECN     H11      HGA3     0.090000        1.0080           0
     38711 WT14     1092     MECN     H12      HGA3     0.090000        1.0080           0
     38712 WT14     1092     MECN     H13      HGA3     0.090000        1.0080           0
     38713 WT14     1092     MECN     C2       CG1N1    0.360000       12.0110           0
     38714 WT14     1092     MECN     N3       NG1T1   -0.460000       14.0070           0
     38715 WT14     1093     MECN     C1       CG331   -0.170000       12.0110           0
     38716 WT14     1093     MECN     H11      HGA3     0.090000        1.0080           0
     38717 WT14     1093     MECN     H12      HGA3     0.090000        1.0080           0
     38718 WT14     1093     MECN     H13      HGA3     0.090000        1.0080           0
     38719 WT14     1093     MECN     C2       CG1N1    0.360000       12.0110           0
     38720 WT14     1093     MECN     N3       NG1T1   -0.460000       14.0070           0
     38721 WT14     1094     MECN     C1       CG331   -0.170000       12.0110           0
     38722 WT14     1094     MECN     H11      HGA3     0.090000        1.0080           0
     38723 WT14     1094     MECN     H12      HGA3     0.090000        1.0080           0
     38724 WT14     1094     MECN     H13      HGA3     0.090000        1.0080           0
     38725 WT14     1094     MECN     C2       CG1N1    0.360000       12.0110           0
     38726 WT14     1094     MECN     N3       NG1T1   -0.460000       14.0070           0
     38727 WT14     1096     MECN     C1       CG331   -0.170000       12.0110           0
     38728 WT14     1096     MECN     H11      HGA3     0.090000        1.0080           0
     38729 WT14     1096     MECN     H12      HGA3     0.090000        1.0080           0
     38730 WT14     1096     MECN     H13      HGA3     0.090000        1.0080           0
     38731 WT14     1096     MECN     C2       CG1N1    0.360000       12.0110           0
     38732 WT14     1096     MECN     N3       NG1T1   -0.460000       14.0070           0
     38733 WT14     1097     MECN     C1       CG331   -0.170000       12.0110           0
     38734 WT14     1097     MECN     H11      HGA3     0.090000        1.0080           0
     38735 WT14     1097     MECN     H12      HGA3     0.090000        1.0080           0
     38736 WT14     1097     MECN     H13      HGA3     0.090000        1.0080           0
     38737 WT14     1097     MECN     C2       CG1N1    0.360000       12.0110           0
     38738 WT14     1097     MECN     N3       NG1T1   -0.460000       14.0070           0
     38739 WT14     1098     MECN     C1       CG331   -0.170000       12.0110           0
     38740 WT14     1098     MECN     H11      HGA3     0.090000        1.0080           0
     38741 WT14     1098     MECN     H12      HGA3     0.090000        1.0080           0
     38742 WT14     1098     MECN     H13      HGA3     0.090000        1.0080           0
     38743 WT14     1098     MECN     C2       CG1N1    0.360000       12.0110           0
     38744 WT14     1098     MECN     N3       NG1T1   -0.460000       14.0070           0
     38745 WT14     1099     MECN     C1       CG331   -0.170000       12.0110           0
     38746 WT14     1099     MECN     H11      HGA3     0.090000        1.0080           0
     38747 WT14     1099     MECN     H12      HGA3     0.090000        1.0080           0
     38748 WT14     1099     MECN     H13      HGA3     0.090000        1.0080           0
     38749 WT14     1099     MECN     C2       CG1N1    0.360000       12.0110           0
     38750 WT14     1099     MECN     N3       NG1T1   -0.460000       14.0070           0
     38751 WT14     1100     MECN     C1       CG331   -0.170000       12.0110           0
     38752 WT14     1100     MECN     H11      HGA3     0.090000        1.0080           0
     38753 WT14     1100     MECN     H12      HGA3     0.090000        1.0080           0
     38754 WT14     1100     MECN     H13      HGA3     0.090000        1.0080           0
     38755 WT14     1100     MECN     C2       CG1N1    0.360000       12.0110           0
     38756 WT14     1100     MECN     N3       NG1T1   -0.460000       14.0070           0
     38757 WT14     1102     MECN     C1       CG331   -0.170000       12.0110           0
     38758 WT14     1102     MECN     H11      HGA3     0.090000        1.0080           0
     38759 WT14     1102     MECN     H12      HGA3     0.090000        1.0080           0
     38760 WT14     1102     MECN     H13      HGA3     0.090000        1.0080           0
     38761 WT14     1102     MECN     C2       CG1N1    0.360000       12.0110           0
     38762 WT14     1102     MECN     N3       NG1T1   -0.460000       14.0070           0
     38763 WT14     1103     MECN     C1       CG331   -0.170000       12.0110           0
     38764 WT14     1103     MECN     H11      HGA3     0.090000        1.0080           0
     38765 WT14     1103     MECN     H12      HGA3     0.090000        1.0080           0
     38766 WT14     1103     MECN     H13      HGA3     0.090000        1.0080           0
     38767 WT14     1103     MECN     C2       CG1N1    0.360000       12.0110           0
     38768 WT14     1103     MECN     N3       NG1T1   -0.460000       14.0070           0
     38769 WT14     1104     MECN     C1       CG331   -0.170000       12.0110           0
     38770 WT14     1104     MECN     H11      HGA3     0.090000        1.0080           0
     38771 WT14     1104     MECN     H12      HGA3     0.090000        1.0080           0
     38772 WT14     1104     MECN     H13      HGA3     0.090000        1.0080           0
     38773 WT14     1104     MECN     C2       CG1N1    0.360000       12.0110           0
     38774 WT14     1104     MECN     N3       NG1T1   -0.460000       14.0070           0
     38775 WT14     1105     MECN     C1       CG331   -0.170000       12.0110           0
     38776 WT14     1105     MECN     H11      HGA3     0.090000        1.0080           0
     38777 WT14     1105     MECN     H12      HGA3     0.090000        1.0080           0
     38778 WT14     1105     MECN     H13      HGA3     0.090000        1.0080           0
     38779 WT14     1105     MECN     C2       CG1N1    0.360000       12.0110           0
     38780 WT14     1105     MECN     N3       NG1T1   -0.460000       14.0070           0
     38781 WT14     1106     MECN     C1       CG331   -0.170000       12.0110           0
     38782 WT14     1106     MECN     H11      HGA3     0.090000        1.0080           0
     38783 WT14     1106     MECN     H12      HGA3     0.090000        1.0080           0
     38784 WT14     1106     MECN     H13      HGA3     0.090000        1.0080           0
     38785 WT14     1106     MECN     C2       CG1N1    0.360000       12.0110           0
     38786 WT14     1106     MECN     N3       NG1T1   -0.460000       14.0070           0
     38787 WT14     1108     MECN     C1       CG331   -0.170000       12.0110           0
     38788 WT14     1108     MECN     H11      HGA3     0.090000        1.0080           0
     38789 WT14     1108     MECN     H12      HGA3     0.090000        1.0080           0
     38790 WT14     1108     MECN     H13      HGA3     0.090000        1.0080           0
     38791 WT14     1108     MECN     C2       CG1N1    0.360000       12.0110           0
     38792 WT14     1108     MECN     N3       NG1T1   -0.460000       14.0070           0
     38793 WT14     1109     MECN     C1       CG331   -0.170000       12.0110           0
     38794 WT14     1109     MECN     H11      HGA3     0.090000        1.0080           0
     38795 WT14     1109     MECN     H12      HGA3     0.090000        1.0080           0
     38796 WT14     1109     MECN     H13      HGA3     0.090000        1.0080           0
     38797 WT14     1109     MECN     C2       CG1N1    0.360000       12.0110           0
     38798 WT14     1109     MECN     N3       NG1T1   -0.460000       14.0070           0
     38799 WT14     1110     MECN     C1       CG331   -0.170000       12.0110           0
     38800 WT14     1110     MECN     H11      HGA3     0.090000        1.0080           0
     38801 WT14     1110     MECN     H12      HGA3     0.090000        1.0080           0
     38802 WT14     1110     MECN     H13      HGA3     0.090000        1.0080           0
     38803 WT14     1110     MECN     C2       CG1N1    0.360000       12.0110           0
     38804 WT14     1110     MECN     N3       NG1T1   -0.460000       14.0070           0
     38805 WT14     1111     MECN     C1       CG331   -0.170000       12.0110           0
     38806 WT14     1111     MECN     H11      HGA3     0.090000        1.0080           0
     38807 WT14     1111     MECN     H12      HGA3     0.090000        1.0080           0
     38808 WT14     1111     MECN     H13      HGA3     0.090000        1.0080           0
     38809 WT14     1111     MECN     C2       CG1N1    0.360000       12.0110           0
     38810 WT14     1111     MECN     N3       NG1T1   -0.460000       14.0070           0
     38811 WT14     1112     MECN     C1       CG331   -0.170000       12.0110           0
     38812 WT14     1112     MECN     H11      HGA3     0.090000        1.0080           0
     38813 WT14     1112     MECN     H12      HGA3     0.090000        1.0080           0
     38814 WT14     1112     MECN     H13      HGA3     0.090000        1.0080           0
     38815 WT14     1112     MECN     C2       CG1N1    0.360000       12.0110           0
     38816 WT14     1112     MECN     N3       NG1T1   -0.460000       14.0070           0
     38817 WT14     1114     MECN     C1       CG331   -0.170000       12.0110           0
     38818 WT14     1114     MECN     H11      HGA3     0.090000        1.0080           0
     38819 WT14     1114     MECN     H12      HGA3     0.090000        1.0080           0
     38820 WT14     1114     MECN     H13      HGA3     0.090000        1.0080           0
     38821 WT14     1114     MECN     C2       CG1N1    0.360000       12.0110           0
     38822 WT14     1114     MECN     N3       NG1T1   -0.460000       14.0070           0
     38823 WT14     1115     MECN     C1       CG331   -0.170000       12.0110           0
     38824 WT14     1115     MECN     H11      HGA3     0.090000        1.0080           0
     38825 WT14     1115     MECN     H12      HGA3     0.090000        1.0080           0
     38826 WT14     1115     MECN     H13      HGA3     0.090000        1.0080           0
     38827 WT14     1115     MECN     C2       CG1N1    0.360000       12.0110           0
     38828 WT14     1115     MECN     N3       NG1T1   -0.460000       14.0070           0
     38829 WT14     1116     MECN     C1       CG331   -0.170000       12.0110           0
     38830 WT14     1116     MECN     H11      HGA3     0.090000        1.0080           0
     38831 WT14     1116     MECN     H12      HGA3     0.090000        1.0080           0
     38832 WT14     1116     MECN     H13      HGA3     0.090000        1.0080           0
     38833 WT14     1116     MECN     C2       CG1N1    0.360000       12.0110           0
     38834 WT14     1116     MECN     N3       NG1T1   -0.460000       14.0070           0
     38835 WT14     1118     MECN     C1       CG331   -0.170000       12.0110           0
     38836 WT14     1118     MECN     H11      HGA3     0.090000        1.0080           0
     38837 WT14     1118     MECN     H12      HGA3     0.090000        1.0080           0
     38838 WT14     1118     MECN     H13      HGA3     0.090000        1.0080           0
     38839 WT14     1118     MECN     C2       CG1N1    0.360000       12.0110           0
     38840 WT14     1118     MECN     N3       NG1T1   -0.460000       14.0070           0
     38841 WT14     1119     MECN     C1       CG331   -0.170000       12.0110           0
     38842 WT14     1119     MECN     H11      HGA3     0.090000        1.0080           0
     38843 WT14     1119     MECN     H12      HGA3     0.090000        1.0080           0
     38844 WT14     1119     MECN     H13      HGA3     0.090000        1.0080           0
     38845 WT14     1119     MECN     C2       CG1N1    0.360000       12.0110           0
     38846 WT14     1119     MECN     N3       NG1T1   -0.460000       14.0070           0
     38847 WT14     1120     MECN     C1       CG331   -0.170000       12.0110           0
     38848 WT14     1120     MECN     H11      HGA3     0.090000        1.0080           0
     38849 WT14     1120     MECN     H12      HGA3     0.090000        1.0080           0
     38850 WT14     1120     MECN     H13      HGA3     0.090000        1.0080           0
     38851 WT14     1120     MECN     C2       CG1N1    0.360000       12.0110           0
     38852 WT14     1120     MECN     N3       NG1T1   -0.460000       14.0070           0
     38853 WT14     1123     MECN     C1       CG331   -0.170000       12.0110           0
     38854 WT14     1123     MECN     H11      HGA3     0.090000        1.0080           0
     38855 WT14     1123     MECN     H12      HGA3     0.090000        1.0080           0
     38856 WT14     1123     MECN     H13      HGA3     0.090000        1.0080           0
     38857 WT14     1123     MECN     C2       CG1N1    0.360000       12.0110           0
     38858 WT14     1123     MECN     N3       NG1T1   -0.460000       14.0070           0
     38859 WT14     1125     MECN     C1       CG331   -0.170000       12.0110           0
     38860 WT14     1125     MECN     H11      HGA3     0.090000        1.0080           0
     38861 WT14     1125     MECN     H12      HGA3     0.090000        1.0080           0
     38862 WT14     1125     MECN     H13      HGA3     0.090000        1.0080           0
     38863 WT14     1125     MECN     C2       CG1N1    0.360000       12.0110           0
     38864 WT14     1125     MECN     N3       NG1T1   -0.460000       14.0070           0
     38865 WT14     1127     MECN     C1       CG331   -0.170000       12.0110           0
     38866 WT14     1127     MECN     H11      HGA3     0.090000        1.0080           0
     38867 WT14     1127     MECN     H12      HGA3     0.090000        1.0080           0
     38868 WT14     1127     MECN     H13      HGA3     0.090000        1.0080           0
     38869 WT14     1127     MECN     C2       CG1N1    0.360000       12.0110           0
     38870 WT14     1127     MECN     N3       NG1T1   -0.460000       14.0070           0
     38871 WT14     1128     MECN     C1       CG331   -0.170000       12.0110           0
     38872 WT14     1128     MECN     H11      HGA3     0.090000        1.0080           0
     38873 WT14     1128     MECN     H12      HGA3     0.090000        1.0080           0
     38874 WT14     1128     MECN     H13      HGA3     0.090000        1.0080           0
     38875 WT14     1128     MECN     C2       CG1N1    0.360000       12.0110           0
     38876 WT14     1128     MECN     N3       NG1T1   -0.460000       14.0070           0
     38877 WT14     1129     MECN     C1       CG331   -0.170000       12.0110           0
     38878 WT14     1129     MECN     H11      HGA3     0.090000        1.0080           0
     38879 WT14     1129     MECN     H12      HGA3     0.090000        1.0080           0
     38880 WT14     1129     MECN     H13      HGA3     0.090000        1.0080           0
     38881 WT14     1129     MECN     C2       CG1N1    0.360000       12.0110           0
     38882 WT14     1129     MECN     N3       NG1T1   -0.460000       14.0070           0
     38883 WT14     1130     MECN     C1       CG331   -0.170000       12.0110           0
     38884 WT14     1130     MECN     H11      HGA3     0.090000        1.0080           0
     38885 WT14     1130     MECN     H12      HGA3     0.090000        1.0080           0
     38886 WT14     1130     MECN     H13      HGA3     0.090000        1.0080           0
     38887 WT14     1130     MECN     C2       CG1N1    0.360000       12.0110           0
     38888 WT14     1130     MECN     N3       NG1T1   -0.460000       14.0070           0
     38889 WT14     1132     MECN     C1       CG331   -0.170000       12.0110           0
     38890 WT14     1132     MECN     H11      HGA3     0.090000        1.0080           0
     38891 WT14     1132     MECN     H12      HGA3     0.090000        1.0080           0
     38892 WT14     1132     MECN     H13      HGA3     0.090000        1.0080           0
     38893 WT14     1132     MECN     C2       CG1N1    0.360000       12.0110           0
     38894 WT14     1132     MECN     N3       NG1T1   -0.460000       14.0070           0
     38895 WT14     1133     MECN     C1       CG331   -0.170000       12.0110           0
     38896 WT14     1133     MECN     H11      HGA3     0.090000        1.0080           0
     38897 WT14     1133     MECN     H12      HGA3     0.090000        1.0080           0
     38898 WT14     1133     MECN     H13      HGA3     0.090000        1.0080           0
     38899 WT14     1133     MECN     C2       CG1N1    0.360000       12.0110           0
     38900 WT14     1133     MECN     N3       NG1T1   -0.460000       14.0070           0
     38901 WT14     1135     MECN     C1       CG331   -0.170000       12.0110           0
     38902 WT14     1135     MECN     H11      HGA3     0.090000        1.0080           0
     38903 WT14     1135     MECN     H12      HGA3     0.090000        1.0080           0
     38904 WT14     1135     MECN     H13      HGA3     0.090000        1.0080           0
     38905 WT14     1135     MECN     C2       CG1N1    0.360000       12.0110           0
     38906 WT14     1135     MECN     N3       NG1T1   -0.460000       14.0070           0
     38907 WT14     1137     MECN     C1       CG331   -0.170000       12.0110           0
     38908 WT14     1137     MECN     H11      HGA3     0.090000        1.0080           0
     38909 WT14     1137     MECN     H12      HGA3     0.090000        1.0080           0
     38910 WT14     1137     MECN     H13      HGA3     0.090000        1.0080           0
     38911 WT14     1137     MECN     C2       CG1N1    0.360000       12.0110           0
     38912 WT14     1137     MECN     N3       NG1T1   -0.460000       14.0070           0
     38913 WT14     1138     MECN     C1       CG331   -0.170000       12.0110           0
     38914 WT14     1138     MECN     H11      HGA3     0.090000        1.0080           0
     38915 WT14     1138     MECN     H12      HGA3     0.090000        1.0080           0
     38916 WT14     1138     MECN     H13      HGA3     0.090000        1.0080           0
     38917 WT14     1138     MECN     C2       CG1N1    0.360000       12.0110           0
     38918 WT14     1138     MECN     N3       NG1T1   -0.460000       14.0070           0
     38919 WT14     1139     MECN     C1       CG331   -0.170000       12.0110           0
     38920 WT14     1139     MECN     H11      HGA3     0.090000        1.0080           0
     38921 WT14     1139     MECN     H12      HGA3     0.090000        1.0080           0
     38922 WT14     1139     MECN     H13      HGA3     0.090000        1.0080           0
     38923 WT14     1139     MECN     C2       CG1N1    0.360000       12.0110           0
     38924 WT14     1139     MECN     N3       NG1T1   -0.460000       14.0070           0
     38925 WT14     1140     MECN     C1       CG331   -0.170000       12.0110           0
     38926 WT14     1140     MECN     H11      HGA3     0.090000        1.0080           0
     38927 WT14     1140     MECN     H12      HGA3     0.090000        1.0080           0
     38928 WT14     1140     MECN     H13      HGA3     0.090000        1.0080           0
     38929 WT14     1140     MECN     C2       CG1N1    0.360000       12.0110           0
     38930 WT14     1140     MECN     N3       NG1T1   -0.460000       14.0070           0
     38931 WT14     1141     MECN     C1       CG331   -0.170000       12.0110           0
     38932 WT14     1141     MECN     H11      HGA3     0.090000        1.0080           0
     38933 WT14     1141     MECN     H12      HGA3     0.090000        1.0080           0
     38934 WT14     1141     MECN     H13      HGA3     0.090000        1.0080           0
     38935 WT14     1141     MECN     C2       CG1N1    0.360000       12.0110           0
     38936 WT14     1141     MECN     N3       NG1T1   -0.460000       14.0070           0
     38937 WT14     1142     MECN     C1       CG331   -0.170000       12.0110           0
     38938 WT14     1142     MECN     H11      HGA3     0.090000        1.0080           0
     38939 WT14     1142     MECN     H12      HGA3     0.090000        1.0080           0
     38940 WT14     1142     MECN     H13      HGA3     0.090000        1.0080           0
     38941 WT14     1142     MECN     C2       CG1N1    0.360000       12.0110           0
     38942 WT14     1142     MECN     N3       NG1T1   -0.460000       14.0070           0
     38943 WT14     1143     MECN     C1       CG331   -0.170000       12.0110           0
     38944 WT14     1143     MECN     H11      HGA3     0.090000        1.0080           0
     38945 WT14     1143     MECN     H12      HGA3     0.090000        1.0080           0
     38946 WT14     1143     MECN     H13      HGA3     0.090000        1.0080           0
     38947 WT14     1143     MECN     C2       CG1N1    0.360000       12.0110           0
     38948 WT14     1143     MECN     N3       NG1T1   -0.460000       14.0070           0
     38949 WT14     1145     MECN     C1       CG331   -0.170000       12.0110           0
     38950 WT14     1145     MECN     H11      HGA3     0.090000        1.0080           0
     38951 WT14     1145     MECN     H12      HGA3     0.090000        1.0080           0
     38952 WT14     1145     MECN     H13      HGA3     0.090000        1.0080           0
     38953 WT14     1145     MECN     C2       CG1N1    0.360000       12.0110           0
     38954 WT14     1145     MECN     N3       NG1T1   -0.460000       14.0070           0
     38955 WT14     1146     MECN     C1       CG331   -0.170000       12.0110           0
     38956 WT14     1146     MECN     H11      HGA3     0.090000        1.0080           0
     38957 WT14     1146     MECN     H12      HGA3     0.090000        1.0080           0
     38958 WT14     1146     MECN     H13      HGA3     0.090000        1.0080           0
     38959 WT14     1146     MECN     C2       CG1N1    0.360000       12.0110           0
     38960 WT14     1146     MECN     N3       NG1T1   -0.460000       14.0070           0
     38961 WT14     1147     MECN     C1       CG331   -0.170000       12.0110           0
     38962 WT14     1147     MECN     H11      HGA3     0.090000        1.0080           0
     38963 WT14     1147     MECN     H12      HGA3     0.090000        1.0080           0
     38964 WT14     1147     MECN     H13      HGA3     0.090000        1.0080           0
     38965 WT14     1147     MECN     C2       CG1N1    0.360000       12.0110           0
     38966 WT14     1147     MECN     N3       NG1T1   -0.460000       14.0070           0
     38967 WT14     1148     MECN     C1       CG331   -0.170000       12.0110           0
     38968 WT14     1148     MECN     H11      HGA3     0.090000        1.0080           0
     38969 WT14     1148     MECN     H12      HGA3     0.090000        1.0080           0
     38970 WT14     1148     MECN     H13      HGA3     0.090000        1.0080           0
     38971 WT14     1148     MECN     C2       CG1N1    0.360000       12.0110           0
     38972 WT14     1148     MECN     N3       NG1T1   -0.460000       14.0070           0
     38973 WT14     1149     MECN     C1       CG331   -0.170000       12.0110           0
     38974 WT14     1149     MECN     H11      HGA3     0.090000        1.0080           0
     38975 WT14     1149     MECN     H12      HGA3     0.090000        1.0080           0
     38976 WT14     1149     MECN     H13      HGA3     0.090000        1.0080           0
     38977 WT14     1149     MECN     C2       CG1N1    0.360000       12.0110           0
     38978 WT14     1149     MECN     N3       NG1T1   -0.460000       14.0070           0
     38979 WT14     1150     MECN     C1       CG331   -0.170000       12.0110           0
     38980 WT14     1150     MECN     H11      HGA3     0.090000        1.0080           0
     38981 WT14     1150     MECN     H12      HGA3     0.090000        1.0080           0
     38982 WT14     1150     MECN     H13      HGA3     0.090000        1.0080           0
     38983 WT14     1150     MECN     C2       CG1N1    0.360000       12.0110           0
     38984 WT14     1150     MECN     N3       NG1T1   -0.460000       14.0070           0
     38985 WT14     1151     MECN     C1       CG331   -0.170000       12.0110           0
     38986 WT14     1151     MECN     H11      HGA3     0.090000        1.0080           0
     38987 WT14     1151     MECN     H12      HGA3     0.090000        1.0080           0
     38988 WT14     1151     MECN     H13      HGA3     0.090000        1.0080           0
     38989 WT14     1151     MECN     C2       CG1N1    0.360000       12.0110           0
     38990 WT14     1151     MECN     N3       NG1T1   -0.460000       14.0070           0
     38991 WT14     1152     MECN     C1       CG331   -0.170000       12.0110           0
     38992 WT14     1152     MECN     H11      HGA3     0.090000        1.0080           0
     38993 WT14     1152     MECN     H12      HGA3     0.090000        1.0080           0
     38994 WT14     1152     MECN     H13      HGA3     0.090000        1.0080           0
     38995 WT14     1152     MECN     C2       CG1N1    0.360000       12.0110           0
     38996 WT14     1152     MECN     N3       NG1T1   -0.460000       14.0070           0
     38997 WT14     1153     MECN     C1       CG331   -0.170000       12.0110           0
     38998 WT14     1153     MECN     H11      HGA3     0.090000        1.0080           0
     38999 WT14     1153     MECN     H12      HGA3     0.090000        1.0080           0
     39000 WT14     1153     MECN     H13      HGA3     0.090000        1.0080           0
     39001 WT14     1153     MECN     C2       CG1N1    0.360000       12.0110           0
     39002 WT14     1153     MECN     N3       NG1T1   -0.460000       14.0070           0
     39003 WT14     1154     MECN     C1       CG331   -0.170000       12.0110           0
     39004 WT14     1154     MECN     H11      HGA3     0.090000        1.0080           0
     39005 WT14     1154     MECN     H12      HGA3     0.090000        1.0080           0
     39006 WT14     1154     MECN     H13      HGA3     0.090000        1.0080           0
     39007 WT14     1154     MECN     C2       CG1N1    0.360000       12.0110           0
     39008 WT14     1154     MECN     N3       NG1T1   -0.460000       14.0070           0
     39009 WT14     1156     MECN     C1       CG331   -0.170000       12.0110           0
     39010 WT14     1156     MECN     H11      HGA3     0.090000        1.0080           0
     39011 WT14     1156     MECN     H12      HGA3     0.090000        1.0080           0
     39012 WT14     1156     MECN     H13      HGA3     0.090000        1.0080           0
     39013 WT14     1156     MECN     C2       CG1N1    0.360000       12.0110           0
     39014 WT14     1156     MECN     N3       NG1T1   -0.460000       14.0070           0
     39015 WT14     1157     MECN     C1       CG331   -0.170000       12.0110           0
     39016 WT14     1157     MECN     H11      HGA3     0.090000        1.0080           0
     39017 WT14     1157     MECN     H12      HGA3     0.090000        1.0080           0
     39018 WT14     1157     MECN     H13      HGA3     0.090000        1.0080           0
     39019 WT14     1157     MECN     C2       CG1N1    0.360000       12.0110           0
     39020 WT14     1157     MECN     N3       NG1T1   -0.460000       14.0070           0
     39021 WT14     1159     MECN     C1       CG331   -0.170000       12.0110           0
     39022 WT14     1159     MECN     H11      HGA3     0.090000        1.0080           0
     39023 WT14     1159     MECN     H12      HGA3     0.090000        1.0080           0
     39024 WT14     1159     MECN     H13      HGA3     0.090000        1.0080           0
     39025 WT14     1159     MECN     C2       CG1N1    0.360000       12.0110           0
     39026 WT14     1159     MECN     N3       NG1T1   -0.460000       14.0070           0
     39027 WT14     1160     MECN     C1       CG331   -0.170000       12.0110           0
     39028 WT14     1160     MECN     H11      HGA3     0.090000        1.0080           0
     39029 WT14     1160     MECN     H12      HGA3     0.090000        1.0080           0
     39030 WT14     1160     MECN     H13      HGA3     0.090000        1.0080           0
     39031 WT14     1160     MECN     C2       CG1N1    0.360000       12.0110           0
     39032 WT14     1160     MECN     N3       NG1T1   -0.460000       14.0070           0
     39033 WT14     1161     MECN     C1       CG331   -0.170000       12.0110           0
     39034 WT14     1161     MECN     H11      HGA3     0.090000        1.0080           0
     39035 WT14     1161     MECN     H12      HGA3     0.090000        1.0080           0
     39036 WT14     1161     MECN     H13      HGA3     0.090000        1.0080           0
     39037 WT14     1161     MECN     C2       CG1N1    0.360000       12.0110           0
     39038 WT14     1161     MECN     N3       NG1T1   -0.460000       14.0070           0
     39039 WT14     1162     MECN     C1       CG331   -0.170000       12.0110           0
     39040 WT14     1162     MECN     H11      HGA3     0.090000        1.0080           0
     39041 WT14     1162     MECN     H12      HGA3     0.090000        1.0080           0
     39042 WT14     1162     MECN     H13      HGA3     0.090000        1.0080           0
     39043 WT14     1162     MECN     C2       CG1N1    0.360000       12.0110           0
     39044 WT14     1162     MECN     N3       NG1T1   -0.460000       14.0070           0
     39045 WT14     1164     MECN     C1       CG331   -0.170000       12.0110           0
     39046 WT14     1164     MECN     H11      HGA3     0.090000        1.0080           0
     39047 WT14     1164     MECN     H12      HGA3     0.090000        1.0080           0
     39048 WT14     1164     MECN     H13      HGA3     0.090000        1.0080           0
     39049 WT14     1164     MECN     C2       CG1N1    0.360000       12.0110           0
     39050 WT14     1164     MECN     N3       NG1T1   -0.460000       14.0070           0
     39051 WT14     1165     MECN     C1       CG331   -0.170000       12.0110           0
     39052 WT14     1165     MECN     H11      HGA3     0.090000        1.0080           0
     39053 WT14     1165     MECN     H12      HGA3     0.090000        1.0080           0
     39054 WT14     1165     MECN     H13      HGA3     0.090000        1.0080           0
     39055 WT14     1165     MECN     C2       CG1N1    0.360000       12.0110           0
     39056 WT14     1165     MECN     N3       NG1T1   -0.460000       14.0070           0
     39057 WT14     1166     MECN     C1       CG331   -0.170000       12.0110           0
     39058 WT14     1166     MECN     H11      HGA3     0.090000        1.0080           0
     39059 WT14     1166     MECN     H12      HGA3     0.090000        1.0080           0
     39060 WT14     1166     MECN     H13      HGA3     0.090000        1.0080           0
     39061 WT14     1166     MECN     C2       CG1N1    0.360000       12.0110           0
     39062 WT14     1166     MECN     N3       NG1T1   -0.460000       14.0070           0
     39063 WT14     1167     MECN     C1       CG331   -0.170000       12.0110           0
     39064 WT14     1167     MECN     H11      HGA3     0.090000        1.0080           0
     39065 WT14     1167     MECN     H12      HGA3     0.090000        1.0080           0
     39066 WT14     1167     MECN     H13      HGA3     0.090000        1.0080           0
     39067 WT14     1167     MECN     C2       CG1N1    0.360000       12.0110           0
     39068 WT14     1167     MECN     N3       NG1T1   -0.460000       14.0070           0
     39069 WT14     1168     MECN     C1       CG331   -0.170000       12.0110           0
     39070 WT14     1168     MECN     H11      HGA3     0.090000        1.0080           0
     39071 WT14     1168     MECN     H12      HGA3     0.090000        1.0080           0
     39072 WT14     1168     MECN     H13      HGA3     0.090000        1.0080           0
     39073 WT14     1168     MECN     C2       CG1N1    0.360000       12.0110           0
     39074 WT14     1168     MECN     N3       NG1T1   -0.460000       14.0070           0
     39075 WT14     1169     MECN     C1       CG331   -0.170000       12.0110           0
     39076 WT14     1169     MECN     H11      HGA3     0.090000        1.0080           0
     39077 WT14     1169     MECN     H12      HGA3     0.090000        1.0080           0
     39078 WT14     1169     MECN     H13      HGA3     0.090000        1.0080           0
     39079 WT14     1169     MECN     C2       CG1N1    0.360000       12.0110           0
     39080 WT14     1169     MECN     N3       NG1T1   -0.460000       14.0070           0
     39081 WT14     1170     MECN     C1       CG331   -0.170000       12.0110           0
     39082 WT14     1170     MECN     H11      HGA3     0.090000        1.0080           0
     39083 WT14     1170     MECN     H12      HGA3     0.090000        1.0080           0
     39084 WT14     1170     MECN     H13      HGA3     0.090000        1.0080           0
     39085 WT14     1170     MECN     C2       CG1N1    0.360000       12.0110           0
     39086 WT14     1170     MECN     N3       NG1T1   -0.460000       14.0070           0
     39087 WT14     1171     MECN     C1       CG331   -0.170000       12.0110           0
     39088 WT14     1171     MECN     H11      HGA3     0.090000        1.0080           0
     39089 WT14     1171     MECN     H12      HGA3     0.090000        1.0080           0
     39090 WT14     1171     MECN     H13      HGA3     0.090000        1.0080           0
     39091 WT14     1171     MECN     C2       CG1N1    0.360000       12.0110           0
     39092 WT14     1171     MECN     N3       NG1T1   -0.460000       14.0070           0
     39093 WT14     1172     MECN     C1       CG331   -0.170000       12.0110           0
     39094 WT14     1172     MECN     H11      HGA3     0.090000        1.0080           0
     39095 WT14     1172     MECN     H12      HGA3     0.090000        1.0080           0
     39096 WT14     1172     MECN     H13      HGA3     0.090000        1.0080           0
     39097 WT14     1172     MECN     C2       CG1N1    0.360000       12.0110           0
     39098 WT14     1172     MECN     N3       NG1T1   -0.460000       14.0070           0
     39099 WT14     1173     MECN     C1       CG331   -0.170000       12.0110           0
     39100 WT14     1173     MECN     H11      HGA3     0.090000        1.0080           0
     39101 WT14     1173     MECN     H12      HGA3     0.090000        1.0080           0
     39102 WT14     1173     MECN     H13      HGA3     0.090000        1.0080           0
     39103 WT14     1173     MECN     C2       CG1N1    0.360000       12.0110           0
     39104 WT14     1173     MECN     N3       NG1T1   -0.460000       14.0070           0
     39105 WT14     1174     MECN     C1       CG331   -0.170000       12.0110           0
     39106 WT14     1174     MECN     H11      HGA3     0.090000        1.0080           0
     39107 WT14     1174     MECN     H12      HGA3     0.090000        1.0080           0
     39108 WT14     1174     MECN     H13      HGA3     0.090000        1.0080           0
     39109 WT14     1174     MECN     C2       CG1N1    0.360000       12.0110           0
     39110 WT14     1174     MECN     N3       NG1T1   -0.460000       14.0070           0
     39111 WT14     1175     MECN     C1       CG331   -0.170000       12.0110           0
     39112 WT14     1175     MECN     H11      HGA3     0.090000        1.0080           0
     39113 WT14     1175     MECN     H12      HGA3     0.090000        1.0080           0
     39114 WT14     1175     MECN     H13      HGA3     0.090000        1.0080           0
     39115 WT14     1175     MECN     C2       CG1N1    0.360000       12.0110           0
     39116 WT14     1175     MECN     N3       NG1T1   -0.460000       14.0070           0
     39117 WT14     1176     MECN     C1       CG331   -0.170000       12.0110           0
     39118 WT14     1176     MECN     H11      HGA3     0.090000        1.0080           0
     39119 WT14     1176     MECN     H12      HGA3     0.090000        1.0080           0
     39120 WT14     1176     MECN     H13      HGA3     0.090000        1.0080           0
     39121 WT14     1176     MECN     C2       CG1N1    0.360000       12.0110           0
     39122 WT14     1176     MECN     N3       NG1T1   -0.460000       14.0070           0
     39123 WT14     1177     MECN     C1       CG331   -0.170000       12.0110           0
     39124 WT14     1177     MECN     H11      HGA3     0.090000        1.0080           0
     39125 WT14     1177     MECN     H12      HGA3     0.090000        1.0080           0
     39126 WT14     1177     MECN     H13      HGA3     0.090000        1.0080           0
     39127 WT14     1177     MECN     C2       CG1N1    0.360000       12.0110           0
     39128 WT14     1177     MECN     N3       NG1T1   -0.460000       14.0070           0
     39129 WT14     1178     MECN     C1       CG331   -0.170000       12.0110           0
     39130 WT14     1178     MECN     H11      HGA3     0.090000        1.0080           0
     39131 WT14     1178     MECN     H12      HGA3     0.090000        1.0080           0
     39132 WT14     1178     MECN     H13      HGA3     0.090000        1.0080           0
     39133 WT14     1178     MECN     C2       CG1N1    0.360000       12.0110           0
     39134 WT14     1178     MECN     N3       NG1T1   -0.460000       14.0070           0
     39135 WT14     1179     MECN     C1       CG331   -0.170000       12.0110           0
     39136 WT14     1179     MECN     H11      HGA3     0.090000        1.0080           0
     39137 WT14     1179     MECN     H12      HGA3     0.090000        1.0080           0
     39138 WT14     1179     MECN     H13      HGA3     0.090000        1.0080           0
     39139 WT14     1179     MECN     C2       CG1N1    0.360000       12.0110           0
     39140 WT14     1179     MECN     N3       NG1T1   -0.460000       14.0070           0
     39141 WT14     1180     MECN     C1       CG331   -0.170000       12.0110           0
     39142 WT14     1180     MECN     H11      HGA3     0.090000        1.0080           0
     39143 WT14     1180     MECN     H12      HGA3     0.090000        1.0080           0
     39144 WT14     1180     MECN     H13      HGA3     0.090000        1.0080           0
     39145 WT14     1180     MECN     C2       CG1N1    0.360000       12.0110           0
     39146 WT14     1180     MECN     N3       NG1T1   -0.460000       14.0070           0
     39147 WT14     1181     MECN     C1       CG331   -0.170000       12.0110           0
     39148 WT14     1181     MECN     H11      HGA3     0.090000        1.0080           0
     39149 WT14     1181     MECN     H12      HGA3     0.090000        1.0080           0
     39150 WT14     1181     MECN     H13      HGA3     0.090000        1.0080           0
     39151 WT14     1181     MECN     C2       CG1N1    0.360000       12.0110           0
     39152 WT14     1181     MECN     N3       NG1T1   -0.460000       14.0070           0
     39153 WT14     1182     MECN     C1       CG331   -0.170000       12.0110           0
     39154 WT14     1182     MECN     H11      HGA3     0.090000        1.0080           0
     39155 WT14     1182     MECN     H12      HGA3     0.090000        1.0080           0
     39156 WT14     1182     MECN     H13      HGA3     0.090000        1.0080           0
     39157 WT14     1182     MECN     C2       CG1N1    0.360000       12.0110           0
     39158 WT14     1182     MECN     N3       NG1T1   -0.460000       14.0070           0
     39159 WT14     1183     MECN     C1       CG331   -0.170000       12.0110           0
     39160 WT14     1183     MECN     H11      HGA3     0.090000        1.0080           0
     39161 WT14     1183     MECN     H12      HGA3     0.090000        1.0080           0
     39162 WT14     1183     MECN     H13      HGA3     0.090000        1.0080           0
     39163 WT14     1183     MECN     C2       CG1N1    0.360000       12.0110           0
     39164 WT14     1183     MECN     N3       NG1T1   -0.460000       14.0070           0
     39165 WT14     1184     MECN     C1       CG331   -0.170000       12.0110           0
     39166 WT14     1184     MECN     H11      HGA3     0.090000        1.0080           0
     39167 WT14     1184     MECN     H12      HGA3     0.090000        1.0080           0
     39168 WT14     1184     MECN     H13      HGA3     0.090000        1.0080           0
     39169 WT14     1184     MECN     C2       CG1N1    0.360000       12.0110           0
     39170 WT14     1184     MECN     N3       NG1T1   -0.460000       14.0070           0
     39171 WT14     1185     MECN     C1       CG331   -0.170000       12.0110           0
     39172 WT14     1185     MECN     H11      HGA3     0.090000        1.0080           0
     39173 WT14     1185     MECN     H12      HGA3     0.090000        1.0080           0
     39174 WT14     1185     MECN     H13      HGA3     0.090000        1.0080           0
     39175 WT14     1185     MECN     C2       CG1N1    0.360000       12.0110           0
     39176 WT14     1185     MECN     N3       NG1T1   -0.460000       14.0070           0
     39177 WT14     1186     MECN     C1       CG331   -0.170000       12.0110           0
     39178 WT14     1186     MECN     H11      HGA3     0.090000        1.0080           0
     39179 WT14     1186     MECN     H12      HGA3     0.090000        1.0080           0
     39180 WT14     1186     MECN     H13      HGA3     0.090000        1.0080           0
     39181 WT14     1186     MECN     C2       CG1N1    0.360000       12.0110           0
     39182 WT14     1186     MECN     N3       NG1T1   -0.460000       14.0070           0
     39183 WT14     1187     MECN     C1       CG331   -0.170000       12.0110           0
     39184 WT14     1187     MECN     H11      HGA3     0.090000        1.0080           0
     39185 WT14     1187     MECN     H12      HGA3     0.090000        1.0080           0
     39186 WT14     1187     MECN     H13      HGA3     0.090000        1.0080           0
     39187 WT14     1187     MECN     C2       CG1N1    0.360000       12.0110           0
     39188 WT14     1187     MECN     N3       NG1T1   -0.460000       14.0070           0
     39189 WT14     1188     MECN     C1       CG331   -0.170000       12.0110           0
     39190 WT14     1188     MECN     H11      HGA3     0.090000        1.0080           0
     39191 WT14     1188     MECN     H12      HGA3     0.090000        1.0080           0
     39192 WT14     1188     MECN     H13      HGA3     0.090000        1.0080           0
     39193 WT14     1188     MECN     C2       CG1N1    0.360000       12.0110           0
     39194 WT14     1188     MECN     N3       NG1T1   -0.460000       14.0070           0
     39195 WT14     1189     MECN     C1       CG331   -0.170000       12.0110           0
     39196 WT14     1189     MECN     H11      HGA3     0.090000        1.0080           0
     39197 WT14     1189     MECN     H12      HGA3     0.090000        1.0080           0
     39198 WT14     1189     MECN     H13      HGA3     0.090000        1.0080           0
     39199 WT14     1189     MECN     C2       CG1N1    0.360000       12.0110           0
     39200 WT14     1189     MECN     N3       NG1T1   -0.460000       14.0070           0
     39201 WT14     1190     MECN     C1       CG331   -0.170000       12.0110           0
     39202 WT14     1190     MECN     H11      HGA3     0.090000        1.0080           0
     39203 WT14     1190     MECN     H12      HGA3     0.090000        1.0080           0
     39204 WT14     1190     MECN     H13      HGA3     0.090000        1.0080           0
     39205 WT14     1190     MECN     C2       CG1N1    0.360000       12.0110           0
     39206 WT14     1190     MECN     N3       NG1T1   -0.460000       14.0070           0
     39207 WT14     1191     MECN     C1       CG331   -0.170000       12.0110           0
     39208 WT14     1191     MECN     H11      HGA3     0.090000        1.0080           0
     39209 WT14     1191     MECN     H12      HGA3     0.090000        1.0080           0
     39210 WT14     1191     MECN     H13      HGA3     0.090000        1.0080           0
     39211 WT14     1191     MECN     C2       CG1N1    0.360000       12.0110           0
     39212 WT14     1191     MECN     N3       NG1T1   -0.460000       14.0070           0
     39213 WT14     1192     MECN     C1       CG331   -0.170000       12.0110           0
     39214 WT14     1192     MECN     H11      HGA3     0.090000        1.0080           0
     39215 WT14     1192     MECN     H12      HGA3     0.090000        1.0080           0
     39216 WT14     1192     MECN     H13      HGA3     0.090000        1.0080           0
     39217 WT14     1192     MECN     C2       CG1N1    0.360000       12.0110           0
     39218 WT14     1192     MECN     N3       NG1T1   -0.460000       14.0070           0
     39219 WT14     1194     MECN     C1       CG331   -0.170000       12.0110           0
     39220 WT14     1194     MECN     H11      HGA3     0.090000        1.0080           0
     39221 WT14     1194     MECN     H12      HGA3     0.090000        1.0080           0
     39222 WT14     1194     MECN     H13      HGA3     0.090000        1.0080           0
     39223 WT14     1194     MECN     C2       CG1N1    0.360000       12.0110           0
     39224 WT14     1194     MECN     N3       NG1T1   -0.460000       14.0070           0
     39225 WT14     1195     MECN     C1       CG331   -0.170000       12.0110           0
     39226 WT14     1195     MECN     H11      HGA3     0.090000        1.0080           0
     39227 WT14     1195     MECN     H12      HGA3     0.090000        1.0080           0
     39228 WT14     1195     MECN     H13      HGA3     0.090000        1.0080           0
     39229 WT14     1195     MECN     C2       CG1N1    0.360000       12.0110           0
     39230 WT14     1195     MECN     N3       NG1T1   -0.460000       14.0070           0
     39231 WT14     1196     MECN     C1       CG331   -0.170000       12.0110           0
     39232 WT14     1196     MECN     H11      HGA3     0.090000        1.0080           0
     39233 WT14     1196     MECN     H12      HGA3     0.090000        1.0080           0
     39234 WT14     1196     MECN     H13      HGA3     0.090000        1.0080           0
     39235 WT14     1196     MECN     C2       CG1N1    0.360000       12.0110           0
     39236 WT14     1196     MECN     N3       NG1T1   -0.460000       14.0070           0
     39237 WT14     1198     MECN     C1       CG331   -0.170000       12.0110           0
     39238 WT14     1198     MECN     H11      HGA3     0.090000        1.0080           0
     39239 WT14     1198     MECN     H12      HGA3     0.090000        1.0080           0
     39240 WT14     1198     MECN     H13      HGA3     0.090000        1.0080           0
     39241 WT14     1198     MECN     C2       CG1N1    0.360000       12.0110           0
     39242 WT14     1198     MECN     N3       NG1T1   -0.460000       14.0070           0
     39243 WT14     1199     MECN     C1       CG331   -0.170000       12.0110           0
     39244 WT14     1199     MECN     H11      HGA3     0.090000        1.0080           0
     39245 WT14     1199     MECN     H12      HGA3     0.090000        1.0080           0
     39246 WT14     1199     MECN     H13      HGA3     0.090000        1.0080           0
     39247 WT14     1199     MECN     C2       CG1N1    0.360000       12.0110           0
     39248 WT14     1199     MECN     N3       NG1T1   -0.460000       14.0070           0
     39249 WT14     1200     MECN     C1       CG331   -0.170000       12.0110           0
     39250 WT14     1200     MECN     H11      HGA3     0.090000        1.0080           0
     39251 WT14     1200     MECN     H12      HGA3     0.090000        1.0080           0
     39252 WT14     1200     MECN     H13      HGA3     0.090000        1.0080           0
     39253 WT14     1200     MECN     C2       CG1N1    0.360000       12.0110           0
     39254 WT14     1200     MECN     N3       NG1T1   -0.460000       14.0070           0
     39255 WT14     1201     MECN     C1       CG331   -0.170000       12.0110           0
     39256 WT14     1201     MECN     H11      HGA3     0.090000        1.0080           0
     39257 WT14     1201     MECN     H12      HGA3     0.090000        1.0080           0
     39258 WT14     1201     MECN     H13      HGA3     0.090000        1.0080           0
     39259 WT14     1201     MECN     C2       CG1N1    0.360000       12.0110           0
     39260 WT14     1201     MECN     N3       NG1T1   -0.460000       14.0070           0
     39261 WT14     1202     MECN     C1       CG331   -0.170000       12.0110           0
     39262 WT14     1202     MECN     H11      HGA3     0.090000        1.0080           0
     39263 WT14     1202     MECN     H12      HGA3     0.090000        1.0080           0
     39264 WT14     1202     MECN     H13      HGA3     0.090000        1.0080           0
     39265 WT14     1202     MECN     C2       CG1N1    0.360000       12.0110           0
     39266 WT14     1202     MECN     N3       NG1T1   -0.460000       14.0070           0
     39267 WT14     1203     MECN     C1       CG331   -0.170000       12.0110           0
     39268 WT14     1203     MECN     H11      HGA3     0.090000        1.0080           0
     39269 WT14     1203     MECN     H12      HGA3     0.090000        1.0080           0
     39270 WT14     1203     MECN     H13      HGA3     0.090000        1.0080           0
     39271 WT14     1203     MECN     C2       CG1N1    0.360000       12.0110           0
     39272 WT14     1203     MECN     N3       NG1T1   -0.460000       14.0070           0
     39273 WT14     1204     MECN     C1       CG331   -0.170000       12.0110           0
     39274 WT14     1204     MECN     H11      HGA3     0.090000        1.0080           0
     39275 WT14     1204     MECN     H12      HGA3     0.090000        1.0080           0
     39276 WT14     1204     MECN     H13      HGA3     0.090000        1.0080           0
     39277 WT14     1204     MECN     C2       CG1N1    0.360000       12.0110           0
     39278 WT14     1204     MECN     N3       NG1T1   -0.460000       14.0070           0
     39279 WT14     1206     MECN     C1       CG331   -0.170000       12.0110           0
     39280 WT14     1206     MECN     H11      HGA3     0.090000        1.0080           0
     39281 WT14     1206     MECN     H12      HGA3     0.090000        1.0080           0
     39282 WT14     1206     MECN     H13      HGA3     0.090000        1.0080           0
     39283 WT14     1206     MECN     C2       CG1N1    0.360000       12.0110           0
     39284 WT14     1206     MECN     N3       NG1T1   -0.460000       14.0070           0
     39285 WT14     1207     MECN     C1       CG331   -0.170000       12.0110           0
     39286 WT14     1207     MECN     H11      HGA3     0.090000        1.0080           0
     39287 WT14     1207     MECN     H12      HGA3     0.090000        1.0080           0
     39288 WT14     1207     MECN     H13      HGA3     0.090000        1.0080           0
     39289 WT14     1207     MECN     C2       CG1N1    0.360000       12.0110           0
     39290 WT14     1207     MECN     N3       NG1T1   -0.460000       14.0070           0
     39291 WT14     1208     MECN     C1       CG331   -0.170000       12.0110           0
     39292 WT14     1208     MECN     H11      HGA3     0.090000        1.0080           0
     39293 WT14     1208     MECN     H12      HGA3     0.090000        1.0080           0
     39294 WT14     1208     MECN     H13      HGA3     0.090000        1.0080           0
     39295 WT14     1208     MECN     C2       CG1N1    0.360000       12.0110           0
     39296 WT14     1208     MECN     N3       NG1T1   -0.460000       14.0070           0
     39297 WT14     1209     MECN     C1       CG331   -0.170000       12.0110           0
     39298 WT14     1209     MECN     H11      HGA3     0.090000        1.0080           0
     39299 WT14     1209     MECN     H12      HGA3     0.090000        1.0080           0
     39300 WT14     1209     MECN     H13      HGA3     0.090000        1.0080           0
     39301 WT14     1209     MECN     C2       CG1N1    0.360000       12.0110           0
     39302 WT14     1209     MECN     N3       NG1T1   -0.460000       14.0070           0
     39303 WT14     1213     MECN     C1       CG331   -0.170000       12.0110           0
     39304 WT14     1213     MECN     H11      HGA3     0.090000        1.0080           0
     39305 WT14     1213     MECN     H12      HGA3     0.090000        1.0080           0
     39306 WT14     1213     MECN     H13      HGA3     0.090000        1.0080           0
     39307 WT14     1213     MECN     C2       CG1N1    0.360000       12.0110           0
     39308 WT14     1213     MECN     N3       NG1T1   -0.460000       14.0070           0
     39309 WT14     1214     MECN     C1       CG331   -0.170000       12.0110           0
     39310 WT14     1214     MECN     H11      HGA3     0.090000        1.0080           0
     39311 WT14     1214     MECN     H12      HGA3     0.090000        1.0080           0
     39312 WT14     1214     MECN     H13      HGA3     0.090000        1.0080           0
     39313 WT14     1214     MECN     C2       CG1N1    0.360000       12.0110           0
     39314 WT14     1214     MECN     N3       NG1T1   -0.460000       14.0070           0
     39315 WT14     1215     MECN     C1       CG331   -0.170000       12.0110           0
     39316 WT14     1215     MECN     H11      HGA3     0.090000        1.0080           0
     39317 WT14     1215     MECN     H12      HGA3     0.090000        1.0080           0
     39318 WT14     1215     MECN     H13      HGA3     0.090000        1.0080           0
     39319 WT14     1215     MECN     C2       CG1N1    0.360000       12.0110           0
     39320 WT14     1215     MECN     N3       NG1T1   -0.460000       14.0070           0
     39321 WT14     1216     MECN     C1       CG331   -0.170000       12.0110           0
     39322 WT14     1216     MECN     H11      HGA3     0.090000        1.0080           0
     39323 WT14     1216     MECN     H12      HGA3     0.090000        1.0080           0
     39324 WT14     1216     MECN     H13      HGA3     0.090000        1.0080           0
     39325 WT14     1216     MECN     C2       CG1N1    0.360000       12.0110           0
     39326 WT14     1216     MECN     N3       NG1T1   -0.460000       14.0070           0
     39327 WT14     1217     MECN     C1       CG331   -0.170000       12.0110           0
     39328 WT14     1217     MECN     H11      HGA3     0.090000        1.0080           0
     39329 WT14     1217     MECN     H12      HGA3     0.090000        1.0080           0
     39330 WT14     1217     MECN     H13      HGA3     0.090000        1.0080           0
     39331 WT14     1217     MECN     C2       CG1N1    0.360000       12.0110           0
     39332 WT14     1217     MECN     N3       NG1T1   -0.460000       14.0070           0
     39333 WT14     1218     MECN     C1       CG331   -0.170000       12.0110           0
     39334 WT14     1218     MECN     H11      HGA3     0.090000        1.0080           0
     39335 WT14     1218     MECN     H12      HGA3     0.090000        1.0080           0
     39336 WT14     1218     MECN     H13      HGA3     0.090000        1.0080           0
     39337 WT14     1218     MECN     C2       CG1N1    0.360000       12.0110           0
     39338 WT14     1218     MECN     N3       NG1T1   -0.460000       14.0070           0
     39339 WT14     1219     MECN     C1       CG331   -0.170000       12.0110           0
     39340 WT14     1219     MECN     H11      HGA3     0.090000        1.0080           0
     39341 WT14     1219     MECN     H12      HGA3     0.090000        1.0080           0
     39342 WT14     1219     MECN     H13      HGA3     0.090000        1.0080           0
     39343 WT14     1219     MECN     C2       CG1N1    0.360000       12.0110           0
     39344 WT14     1219     MECN     N3       NG1T1   -0.460000       14.0070           0
     39345 WT14     1220     MECN     C1       CG331   -0.170000       12.0110           0
     39346 WT14     1220     MECN     H11      HGA3     0.090000        1.0080           0
     39347 WT14     1220     MECN     H12      HGA3     0.090000        1.0080           0
     39348 WT14     1220     MECN     H13      HGA3     0.090000        1.0080           0
     39349 WT14     1220     MECN     C2       CG1N1    0.360000       12.0110           0
     39350 WT14     1220     MECN     N3       NG1T1   -0.460000       14.0070           0
     39351 WT14     1221     MECN     C1       CG331   -0.170000       12.0110           0
     39352 WT14     1221     MECN     H11      HGA3     0.090000        1.0080           0
     39353 WT14     1221     MECN     H12      HGA3     0.090000        1.0080           0
     39354 WT14     1221     MECN     H13      HGA3     0.090000        1.0080           0
     39355 WT14     1221     MECN     C2       CG1N1    0.360000       12.0110           0
     39356 WT14     1221     MECN     N3       NG1T1   -0.460000       14.0070           0
     39357 WT14     1222     MECN     C1       CG331   -0.170000       12.0110           0
     39358 WT14     1222     MECN     H11      HGA3     0.090000        1.0080           0
     39359 WT14     1222     MECN     H12      HGA3     0.090000        1.0080           0
     39360 WT14     1222     MECN     H13      HGA3     0.090000        1.0080           0
     39361 WT14     1222     MECN     C2       CG1N1    0.360000       12.0110           0
     39362 WT14     1222     MECN     N3       NG1T1   -0.460000       14.0070           0
     39363 WT14     1223     MECN     C1       CG331   -0.170000       12.0110           0
     39364 WT14     1223     MECN     H11      HGA3     0.090000        1.0080           0
     39365 WT14     1223     MECN     H12      HGA3     0.090000        1.0080           0
     39366 WT14     1223     MECN     H13      HGA3     0.090000        1.0080           0
     39367 WT14     1223     MECN     C2       CG1N1    0.360000       12.0110           0
     39368 WT14     1223     MECN     N3       NG1T1   -0.460000       14.0070           0
     39369 WT14     1225     MECN     C1       CG331   -0.170000       12.0110           0
     39370 WT14     1225     MECN     H11      HGA3     0.090000        1.0080           0
     39371 WT14     1225     MECN     H12      HGA3     0.090000        1.0080           0
     39372 WT14     1225     MECN     H13      HGA3     0.090000        1.0080           0
     39373 WT14     1225     MECN     C2       CG1N1    0.360000       12.0110           0
     39374 WT14     1225     MECN     N3       NG1T1   -0.460000       14.0070           0
     39375 WT14     1226     MECN     C1       CG331   -0.170000       12.0110           0
     39376 WT14     1226     MECN     H11      HGA3     0.090000        1.0080           0
     39377 WT14     1226     MECN     H12      HGA3     0.090000        1.0080           0
     39378 WT14     1226     MECN     H13      HGA3     0.090000        1.0080           0
     39379 WT14     1226     MECN     C2       CG1N1    0.360000       12.0110           0
     39380 WT14     1226     MECN     N3       NG1T1   -0.460000       14.0070           0
     39381 WT14     1227     MECN     C1       CG331   -0.170000       12.0110           0
     39382 WT14     1227     MECN     H11      HGA3     0.090000        1.0080           0
     39383 WT14     1227     MECN     H12      HGA3     0.090000        1.0080           0
     39384 WT14     1227     MECN     H13      HGA3     0.090000        1.0080           0
     39385 WT14     1227     MECN     C2       CG1N1    0.360000       12.0110           0
     39386 WT14     1227     MECN     N3       NG1T1   -0.460000       14.0070           0
     39387 WT14     1229     MECN     C1       CG331   -0.170000       12.0110           0
     39388 WT14     1229     MECN     H11      HGA3     0.090000        1.0080           0
     39389 WT14     1229     MECN     H12      HGA3     0.090000        1.0080           0
     39390 WT14     1229     MECN     H13      HGA3     0.090000        1.0080           0
     39391 WT14     1229     MECN     C2       CG1N1    0.360000       12.0110           0
     39392 WT14     1229     MECN     N3       NG1T1   -0.460000       14.0070           0
     39393 WT14     1230     MECN     C1       CG331   -0.170000       12.0110           0
     39394 WT14     1230     MECN     H11      HGA3     0.090000        1.0080           0
     39395 WT14     1230     MECN     H12      HGA3     0.090000        1.0080           0
     39396 WT14     1230     MECN     H13      HGA3     0.090000        1.0080           0
     39397 WT14     1230     MECN     C2       CG1N1    0.360000       12.0110           0
     39398 WT14     1230     MECN     N3       NG1T1   -0.460000       14.0070           0
     39399 WT14     1231     MECN     C1       CG331   -0.170000       12.0110           0
     39400 WT14     1231     MECN     H11      HGA3     0.090000        1.0080           0
     39401 WT14     1231     MECN     H12      HGA3     0.090000        1.0080           0
     39402 WT14     1231     MECN     H13      HGA3     0.090000        1.0080           0
     39403 WT14     1231     MECN     C2       CG1N1    0.360000       12.0110           0
     39404 WT14     1231     MECN     N3       NG1T1   -0.460000       14.0070           0
     39405 WT14     1232     MECN     C1       CG331   -0.170000       12.0110           0
     39406 WT14     1232     MECN     H11      HGA3     0.090000        1.0080           0
     39407 WT14     1232     MECN     H12      HGA3     0.090000        1.0080           0
     39408 WT14     1232     MECN     H13      HGA3     0.090000        1.0080           0
     39409 WT14     1232     MECN     C2       CG1N1    0.360000       12.0110           0
     39410 WT14     1232     MECN     N3       NG1T1   -0.460000       14.0070           0
     39411 WT14     1233     MECN     C1       CG331   -0.170000       12.0110           0
     39412 WT14     1233     MECN     H11      HGA3     0.090000        1.0080           0
     39413 WT14     1233     MECN     H12      HGA3     0.090000        1.0080           0
     39414 WT14     1233     MECN     H13      HGA3     0.090000        1.0080           0
     39415 WT14     1233     MECN     C2       CG1N1    0.360000       12.0110           0
     39416 WT14     1233     MECN     N3       NG1T1   -0.460000       14.0070           0
     39417 WT14     1235     MECN     C1       CG331   -0.170000       12.0110           0
     39418 WT14     1235     MECN     H11      HGA3     0.090000        1.0080           0
     39419 WT14     1235     MECN     H12      HGA3     0.090000        1.0080           0
     39420 WT14     1235     MECN     H13      HGA3     0.090000        1.0080           0
     39421 WT14     1235     MECN     C2       CG1N1    0.360000       12.0110           0
     39422 WT14     1235     MECN     N3       NG1T1   -0.460000       14.0070           0
     39423 WT14     1236     MECN     C1       CG331   -0.170000       12.0110           0
     39424 WT14     1236     MECN     H11      HGA3     0.090000        1.0080           0
     39425 WT14     1236     MECN     H12      HGA3     0.090000        1.0080           0
     39426 WT14     1236     MECN     H13      HGA3     0.090000        1.0080           0
     39427 WT14     1236     MECN     C2       CG1N1    0.360000       12.0110           0
     39428 WT14     1236     MECN     N3       NG1T1   -0.460000       14.0070           0
     39429 WT14     1237     MECN     C1       CG331   -0.170000       12.0110           0
     39430 WT14     1237     MECN     H11      HGA3     0.090000        1.0080           0
     39431 WT14     1237     MECN     H12      HGA3     0.090000        1.0080           0
     39432 WT14     1237     MECN     H13      HGA3     0.090000        1.0080           0
     39433 WT14     1237     MECN     C2       CG1N1    0.360000       12.0110           0
     39434 WT14     1237     MECN     N3       NG1T1   -0.460000       14.0070           0
     39435 WT14     1238     MECN     C1       CG331   -0.170000       12.0110           0
     39436 WT14     1238     MECN     H11      HGA3     0.090000        1.0080           0
     39437 WT14     1238     MECN     H12      HGA3     0.090000        1.0080           0
     39438 WT14     1238     MECN     H13      HGA3     0.090000        1.0080           0
     39439 WT14     1238     MECN     C2       CG1N1    0.360000       12.0110           0
     39440 WT14     1238     MECN     N3       NG1T1   -0.460000       14.0070           0
     39441 WT14     1239     MECN     C1       CG331   -0.170000       12.0110           0
     39442 WT14     1239     MECN     H11      HGA3     0.090000        1.0080           0
     39443 WT14     1239     MECN     H12      HGA3     0.090000        1.0080           0
     39444 WT14     1239     MECN     H13      HGA3     0.090000        1.0080           0
     39445 WT14     1239     MECN     C2       CG1N1    0.360000       12.0110           0
     39446 WT14     1239     MECN     N3       NG1T1   -0.460000       14.0070           0
     39447 WT14     1240     MECN     C1       CG331   -0.170000       12.0110           0
     39448 WT14     1240     MECN     H11      HGA3     0.090000        1.0080           0
     39449 WT14     1240     MECN     H12      HGA3     0.090000        1.0080           0
     39450 WT14     1240     MECN     H13      HGA3     0.090000        1.0080           0
     39451 WT14     1240     MECN     C2       CG1N1    0.360000       12.0110           0
     39452 WT14     1240     MECN     N3       NG1T1   -0.460000       14.0070           0
     39453 WT14     1241     MECN     C1       CG331   -0.170000       12.0110           0
     39454 WT14     1241     MECN     H11      HGA3     0.090000        1.0080           0
     39455 WT14     1241     MECN     H12      HGA3     0.090000        1.0080           0
     39456 WT14     1241     MECN     H13      HGA3     0.090000        1.0080           0
     39457 WT14     1241     MECN     C2       CG1N1    0.360000       12.0110           0
     39458 WT14     1241     MECN     N3       NG1T1   -0.460000       14.0070           0
     39459 WT14     1243     MECN     C1       CG331   -0.170000       12.0110           0
     39460 WT14     1243     MECN     H11      HGA3     0.090000        1.0080           0
     39461 WT14     1243     MECN     H12      HGA3     0.090000        1.0080           0
     39462 WT14     1243     MECN     H13      HGA3     0.090000        1.0080           0
     39463 WT14     1243     MECN     C2       CG1N1    0.360000       12.0110           0
     39464 WT14     1243     MECN     N3       NG1T1   -0.460000       14.0070           0
     39465 WT14     1244     MECN     C1       CG331   -0.170000       12.0110           0
     39466 WT14     1244     MECN     H11      HGA3     0.090000        1.0080           0
     39467 WT14     1244     MECN     H12      HGA3     0.090000        1.0080           0
     39468 WT14     1244     MECN     H13      HGA3     0.090000        1.0080           0
     39469 WT14     1244     MECN     C2       CG1N1    0.360000       12.0110           0
     39470 WT14     1244     MECN     N3       NG1T1   -0.460000       14.0070           0
     39471 WT14     1245     MECN     C1       CG331   -0.170000       12.0110           0
     39472 WT14     1245     MECN     H11      HGA3     0.090000        1.0080           0
     39473 WT14     1245     MECN     H12      HGA3     0.090000        1.0080           0
     39474 WT14     1245     MECN     H13      HGA3     0.090000        1.0080           0
     39475 WT14     1245     MECN     C2       CG1N1    0.360000       12.0110           0
     39476 WT14     1245     MECN     N3       NG1T1   -0.460000       14.0070           0
     39477 WT14     1246     MECN     C1       CG331   -0.170000       12.0110           0
     39478 WT14     1246     MECN     H11      HGA3     0.090000        1.0080           0
     39479 WT14     1246     MECN     H12      HGA3     0.090000        1.0080           0
     39480 WT14     1246     MECN     H13      HGA3     0.090000        1.0080           0
     39481 WT14     1246     MECN     C2       CG1N1    0.360000       12.0110           0
     39482 WT14     1246     MECN     N3       NG1T1   -0.460000       14.0070           0
     39483 WT14     1247     MECN     C1       CG331   -0.170000       12.0110           0
     39484 WT14     1247     MECN     H11      HGA3     0.090000        1.0080           0
     39485 WT14     1247     MECN     H12      HGA3     0.090000        1.0080           0
     39486 WT14     1247     MECN     H13      HGA3     0.090000        1.0080           0
     39487 WT14     1247     MECN     C2       CG1N1    0.360000       12.0110           0
     39488 WT14     1247     MECN     N3       NG1T1   -0.460000       14.0070           0
     39489 WT14     1248     MECN     C1       CG331   -0.170000       12.0110           0
     39490 WT14     1248     MECN     H11      HGA3     0.090000        1.0080           0
     39491 WT14     1248     MECN     H12      HGA3     0.090000        1.0080           0
     39492 WT14     1248     MECN     H13      HGA3     0.090000        1.0080           0
     39493 WT14     1248     MECN     C2       CG1N1    0.360000       12.0110           0
     39494 WT14     1248     MECN     N3       NG1T1   -0.460000       14.0070           0
     39495 WT14     1249     MECN     C1       CG331   -0.170000       12.0110           0
     39496 WT14     1249     MECN     H11      HGA3     0.090000        1.0080           0
     39497 WT14     1249     MECN     H12      HGA3     0.090000        1.0080           0
     39498 WT14     1249     MECN     H13      HGA3     0.090000        1.0080           0
     39499 WT14     1249     MECN     C2       CG1N1    0.360000       12.0110           0
     39500 WT14     1249     MECN     N3       NG1T1   -0.460000       14.0070           0
     39501 WT14     1250     MECN     C1       CG331   -0.170000       12.0110           0
     39502 WT14     1250     MECN     H11      HGA3     0.090000        1.0080           0
     39503 WT14     1250     MECN     H12      HGA3     0.090000        1.0080           0
     39504 WT14     1250     MECN     H13      HGA3     0.090000        1.0080           0
     39505 WT14     1250     MECN     C2       CG1N1    0.360000       12.0110           0
     39506 WT14     1250     MECN     N3       NG1T1   -0.460000       14.0070           0
     39507 WT14     1251     MECN     C1       CG331   -0.170000       12.0110           0
     39508 WT14     1251     MECN     H11      HGA3     0.090000        1.0080           0
     39509 WT14     1251     MECN     H12      HGA3     0.090000        1.0080           0
     39510 WT14     1251     MECN     H13      HGA3     0.090000        1.0080           0
     39511 WT14     1251     MECN     C2       CG1N1    0.360000       12.0110           0
     39512 WT14     1251     MECN     N3       NG1T1   -0.460000       14.0070           0
     39513 WT14     1252     MECN     C1       CG331   -0.170000       12.0110           0
     39514 WT14     1252     MECN     H11      HGA3     0.090000        1.0080           0
     39515 WT14     1252     MECN     H12      HGA3     0.090000        1.0080           0
     39516 WT14     1252     MECN     H13      HGA3     0.090000        1.0080           0
     39517 WT14     1252     MECN     C2       CG1N1    0.360000       12.0110           0
     39518 WT14     1252     MECN     N3       NG1T1   -0.460000       14.0070           0
     39519 WT14     1253     MECN     C1       CG331   -0.170000       12.0110           0
     39520 WT14     1253     MECN     H11      HGA3     0.090000        1.0080           0
     39521 WT14     1253     MECN     H12      HGA3     0.090000        1.0080           0
     39522 WT14     1253     MECN     H13      HGA3     0.090000        1.0080           0
     39523 WT14     1253     MECN     C2       CG1N1    0.360000       12.0110           0
     39524 WT14     1253     MECN     N3       NG1T1   -0.460000       14.0070           0
     39525 WT14     1254     MECN     C1       CG331   -0.170000       12.0110           0
     39526 WT14     1254     MECN     H11      HGA3     0.090000        1.0080           0
     39527 WT14     1254     MECN     H12      HGA3     0.090000        1.0080           0
     39528 WT14     1254     MECN     H13      HGA3     0.090000        1.0080           0
     39529 WT14     1254     MECN     C2       CG1N1    0.360000       12.0110           0
     39530 WT14     1254     MECN     N3       NG1T1   -0.460000       14.0070           0
     39531 WT14     1255     MECN     C1       CG331   -0.170000       12.0110           0
     39532 WT14     1255     MECN     H11      HGA3     0.090000        1.0080           0
     39533 WT14     1255     MECN     H12      HGA3     0.090000        1.0080           0
     39534 WT14     1255     MECN     H13      HGA3     0.090000        1.0080           0
     39535 WT14     1255     MECN     C2       CG1N1    0.360000       12.0110           0
     39536 WT14     1255     MECN     N3       NG1T1   -0.460000       14.0070           0
     39537 WT14     1256     MECN     C1       CG331   -0.170000       12.0110           0
     39538 WT14     1256     MECN     H11      HGA3     0.090000        1.0080           0
     39539 WT14     1256     MECN     H12      HGA3     0.090000        1.0080           0
     39540 WT14     1256     MECN     H13      HGA3     0.090000        1.0080           0
     39541 WT14     1256     MECN     C2       CG1N1    0.360000       12.0110           0
     39542 WT14     1256     MECN     N3       NG1T1   -0.460000       14.0070           0
     39543 WT14     1257     MECN     C1       CG331   -0.170000       12.0110           0
     39544 WT14     1257     MECN     H11      HGA3     0.090000        1.0080           0
     39545 WT14     1257     MECN     H12      HGA3     0.090000        1.0080           0
     39546 WT14     1257     MECN     H13      HGA3     0.090000        1.0080           0
     39547 WT14     1257     MECN     C2       CG1N1    0.360000       12.0110           0
     39548 WT14     1257     MECN     N3       NG1T1   -0.460000       14.0070           0
     39549 WT14     1258     MECN     C1       CG331   -0.170000       12.0110           0
     39550 WT14     1258     MECN     H11      HGA3     0.090000        1.0080           0
     39551 WT14     1258     MECN     H12      HGA3     0.090000        1.0080           0
     39552 WT14     1258     MECN     H13      HGA3     0.090000        1.0080           0
     39553 WT14     1258     MECN     C2       CG1N1    0.360000       12.0110           0
     39554 WT14     1258     MECN     N3       NG1T1   -0.460000       14.0070           0
     39555 WT14     1260     MECN     C1       CG331   -0.170000       12.0110           0
     39556 WT14     1260     MECN     H11      HGA3     0.090000        1.0080           0
     39557 WT14     1260     MECN     H12      HGA3     0.090000        1.0080           0
     39558 WT14     1260     MECN     H13      HGA3     0.090000        1.0080           0
     39559 WT14     1260     MECN     C2       CG1N1    0.360000       12.0110           0
     39560 WT14     1260     MECN     N3       NG1T1   -0.460000       14.0070           0
     39561 WT14     1261     MECN     C1       CG331   -0.170000       12.0110           0
     39562 WT14     1261     MECN     H11      HGA3     0.090000        1.0080           0
     39563 WT14     1261     MECN     H12      HGA3     0.090000        1.0080           0
     39564 WT14     1261     MECN     H13      HGA3     0.090000        1.0080           0
     39565 WT14     1261     MECN     C2       CG1N1    0.360000       12.0110           0
     39566 WT14     1261     MECN     N3       NG1T1   -0.460000       14.0070           0
     39567 WT14     1262     MECN     C1       CG331   -0.170000       12.0110           0
     39568 WT14     1262     MECN     H11      HGA3     0.090000        1.0080           0
     39569 WT14     1262     MECN     H12      HGA3     0.090000        1.0080           0
     39570 WT14     1262     MECN     H13      HGA3     0.090000        1.0080           0
     39571 WT14     1262     MECN     C2       CG1N1    0.360000       12.0110           0
     39572 WT14     1262     MECN     N3       NG1T1   -0.460000       14.0070           0
     39573 WT14     1263     MECN     C1       CG331   -0.170000       12.0110           0
     39574 WT14     1263     MECN     H11      HGA3     0.090000        1.0080           0
     39575 WT14     1263     MECN     H12      HGA3     0.090000        1.0080           0
     39576 WT14     1263     MECN     H13      HGA3     0.090000        1.0080           0
     39577 WT14     1263     MECN     C2       CG1N1    0.360000       12.0110           0
     39578 WT14     1263     MECN     N3       NG1T1   -0.460000       14.0070           0
     39579 WT14     1266     MECN     C1       CG331   -0.170000       12.0110           0
     39580 WT14     1266     MECN     H11      HGA3     0.090000        1.0080           0
     39581 WT14     1266     MECN     H12      HGA3     0.090000        1.0080           0
     39582 WT14     1266     MECN     H13      HGA3     0.090000        1.0080           0
     39583 WT14     1266     MECN     C2       CG1N1    0.360000       12.0110           0
     39584 WT14     1266     MECN     N3       NG1T1   -0.460000       14.0070           0
     39585 WT14     1267     MECN     C1       CG331   -0.170000       12.0110           0
     39586 WT14     1267     MECN     H11      HGA3     0.090000        1.0080           0
     39587 WT14     1267     MECN     H12      HGA3     0.090000        1.0080           0
     39588 WT14     1267     MECN     H13      HGA3     0.090000        1.0080           0
     39589 WT14     1267     MECN     C2       CG1N1    0.360000       12.0110           0
     39590 WT14     1267     MECN     N3       NG1T1   -0.460000       14.0070           0
     39591 WT14     1268     MECN     C1       CG331   -0.170000       12.0110           0
     39592 WT14     1268     MECN     H11      HGA3     0.090000        1.0080           0
     39593 WT14     1268     MECN     H12      HGA3     0.090000        1.0080           0
     39594 WT14     1268     MECN     H13      HGA3     0.090000        1.0080           0
     39595 WT14     1268     MECN     C2       CG1N1    0.360000       12.0110           0
     39596 WT14     1268     MECN     N3       NG1T1   -0.460000       14.0070           0
     39597 WT14     1271     MECN     C1       CG331   -0.170000       12.0110           0
     39598 WT14     1271     MECN     H11      HGA3     0.090000        1.0080           0
     39599 WT14     1271     MECN     H12      HGA3     0.090000        1.0080           0
     39600 WT14     1271     MECN     H13      HGA3     0.090000        1.0080           0
     39601 WT14     1271     MECN     C2       CG1N1    0.360000       12.0110           0
     39602 WT14     1271     MECN     N3       NG1T1   -0.460000       14.0070           0
     39603 WT14     1272     MECN     C1       CG331   -0.170000       12.0110           0
     39604 WT14     1272     MECN     H11      HGA3     0.090000        1.0080           0
     39605 WT14     1272     MECN     H12      HGA3     0.090000        1.0080           0
     39606 WT14     1272     MECN     H13      HGA3     0.090000        1.0080           0
     39607 WT14     1272     MECN     C2       CG1N1    0.360000       12.0110           0
     39608 WT14     1272     MECN     N3       NG1T1   -0.460000       14.0070           0
     39609 WT14     1273     MECN     C1       CG331   -0.170000       12.0110           0
     39610 WT14     1273     MECN     H11      HGA3     0.090000        1.0080           0
     39611 WT14     1273     MECN     H12      HGA3     0.090000        1.0080           0
     39612 WT14     1273     MECN     H13      HGA3     0.090000        1.0080           0
     39613 WT14     1273     MECN     C2       CG1N1    0.360000       12.0110           0
     39614 WT14     1273     MECN     N3       NG1T1   -0.460000       14.0070           0
     39615 WT14     1274     MECN     C1       CG331   -0.170000       12.0110           0
     39616 WT14     1274     MECN     H11      HGA3     0.090000        1.0080           0
     39617 WT14     1274     MECN     H12      HGA3     0.090000        1.0080           0
     39618 WT14     1274     MECN     H13      HGA3     0.090000        1.0080           0
     39619 WT14     1274     MECN     C2       CG1N1    0.360000       12.0110           0
     39620 WT14     1274     MECN     N3       NG1T1   -0.460000       14.0070           0
     39621 WT14     1275     MECN     C1       CG331   -0.170000       12.0110           0
     39622 WT14     1275     MECN     H11      HGA3     0.090000        1.0080           0
     39623 WT14     1275     MECN     H12      HGA3     0.090000        1.0080           0
     39624 WT14     1275     MECN     H13      HGA3     0.090000        1.0080           0
     39625 WT14     1275     MECN     C2       CG1N1    0.360000       12.0110           0
     39626 WT14     1275     MECN     N3       NG1T1   -0.460000       14.0070           0
     39627 WT14     1276     MECN     C1       CG331   -0.170000       12.0110           0
     39628 WT14     1276     MECN     H11      HGA3     0.090000        1.0080           0
     39629 WT14     1276     MECN     H12      HGA3     0.090000        1.0080           0
     39630 WT14     1276     MECN     H13      HGA3     0.090000        1.0080           0
     39631 WT14     1276     MECN     C2       CG1N1    0.360000       12.0110           0
     39632 WT14     1276     MECN     N3       NG1T1   -0.460000       14.0070           0
     39633 WT14     1277     MECN     C1       CG331   -0.170000       12.0110           0
     39634 WT14     1277     MECN     H11      HGA3     0.090000        1.0080           0
     39635 WT14     1277     MECN     H12      HGA3     0.090000        1.0080           0
     39636 WT14     1277     MECN     H13      HGA3     0.090000        1.0080           0
     39637 WT14     1277     MECN     C2       CG1N1    0.360000       12.0110           0
     39638 WT14     1277     MECN     N3       NG1T1   -0.460000       14.0070           0
     39639 WT14     1278     MECN     C1       CG331   -0.170000       12.0110           0
     39640 WT14     1278     MECN     H11      HGA3     0.090000        1.0080           0
     39641 WT14     1278     MECN     H12      HGA3     0.090000        1.0080           0
     39642 WT14     1278     MECN     H13      HGA3     0.090000        1.0080           0
     39643 WT14     1278     MECN     C2       CG1N1    0.360000       12.0110           0
     39644 WT14     1278     MECN     N3       NG1T1   -0.460000       14.0070           0
     39645 WT14     1279     MECN     C1       CG331   -0.170000       12.0110           0
     39646 WT14     1279     MECN     H11      HGA3     0.090000        1.0080           0
     39647 WT14     1279     MECN     H12      HGA3     0.090000        1.0080           0
     39648 WT14     1279     MECN     H13      HGA3     0.090000        1.0080           0
     39649 WT14     1279     MECN     C2       CG1N1    0.360000       12.0110           0
     39650 WT14     1279     MECN     N3       NG1T1   -0.460000       14.0070           0
     39651 WT14     1280     MECN     C1       CG331   -0.170000       12.0110           0
     39652 WT14     1280     MECN     H11      HGA3     0.090000        1.0080           0
     39653 WT14     1280     MECN     H12      HGA3     0.090000        1.0080           0
     39654 WT14     1280     MECN     H13      HGA3     0.090000        1.0080           0
     39655 WT14     1280     MECN     C2       CG1N1    0.360000       12.0110           0
     39656 WT14     1280     MECN     N3       NG1T1   -0.460000       14.0070           0
     39657 WT14     1281     MECN     C1       CG331   -0.170000       12.0110           0
     39658 WT14     1281     MECN     H11      HGA3     0.090000        1.0080           0
     39659 WT14     1281     MECN     H12      HGA3     0.090000        1.0080           0
     39660 WT14     1281     MECN     H13      HGA3     0.090000        1.0080           0
     39661 WT14     1281     MECN     C2       CG1N1    0.360000       12.0110           0
     39662 WT14     1281     MECN     N3       NG1T1   -0.460000       14.0070           0
     39663 WT14     1282     MECN     C1       CG331   -0.170000       12.0110           0
     39664 WT14     1282     MECN     H11      HGA3     0.090000        1.0080           0
     39665 WT14     1282     MECN     H12      HGA3     0.090000        1.0080           0
     39666 WT14     1282     MECN     H13      HGA3     0.090000        1.0080           0
     39667 WT14     1282     MECN     C2       CG1N1    0.360000       12.0110           0
     39668 WT14     1282     MECN     N3       NG1T1   -0.460000       14.0070           0
     39669 WT14     1283     MECN     C1       CG331   -0.170000       12.0110           0
     39670 WT14     1283     MECN     H11      HGA3     0.090000        1.0080           0
     39671 WT14     1283     MECN     H12      HGA3     0.090000        1.0080           0
     39672 WT14     1283     MECN     H13      HGA3     0.090000        1.0080           0
     39673 WT14     1283     MECN     C2       CG1N1    0.360000       12.0110           0
     39674 WT14     1283     MECN     N3       NG1T1   -0.460000       14.0070           0
     39675 WT14     1284     MECN     C1       CG331   -0.170000       12.0110           0
     39676 WT14     1284     MECN     H11      HGA3     0.090000        1.0080           0
     39677 WT14     1284     MECN     H12      HGA3     0.090000        1.0080           0
     39678 WT14     1284     MECN     H13      HGA3     0.090000        1.0080           0
     39679 WT14     1284     MECN     C2       CG1N1    0.360000       12.0110           0
     39680 WT14     1284     MECN     N3       NG1T1   -0.460000       14.0070           0
     39681 WT14     1286     MECN     C1       CG331   -0.170000       12.0110           0
     39682 WT14     1286     MECN     H11      HGA3     0.090000        1.0080           0
     39683 WT14     1286     MECN     H12      HGA3     0.090000        1.0080           0
     39684 WT14     1286     MECN     H13      HGA3     0.090000        1.0080           0
     39685 WT14     1286     MECN     C2       CG1N1    0.360000       12.0110           0
     39686 WT14     1286     MECN     N3       NG1T1   -0.460000       14.0070           0
     39687 WT14     1287     MECN     C1       CG331   -0.170000       12.0110           0
     39688 WT14     1287     MECN     H11      HGA3     0.090000        1.0080           0
     39689 WT14     1287     MECN     H12      HGA3     0.090000        1.0080           0
     39690 WT14     1287     MECN     H13      HGA3     0.090000        1.0080           0
     39691 WT14     1287     MECN     C2       CG1N1    0.360000       12.0110           0
     39692 WT14     1287     MECN     N3       NG1T1   -0.460000       14.0070           0
     39693 WT14     1289     MECN     C1       CG331   -0.170000       12.0110           0
     39694 WT14     1289     MECN     H11      HGA3     0.090000        1.0080           0
     39695 WT14     1289     MECN     H12      HGA3     0.090000        1.0080           0
     39696 WT14     1289     MECN     H13      HGA3     0.090000        1.0080           0
     39697 WT14     1289     MECN     C2       CG1N1    0.360000       12.0110           0
     39698 WT14     1289     MECN     N3       NG1T1   -0.460000       14.0070           0
     39699 WT14     1290     MECN     C1       CG331   -0.170000       12.0110           0
     39700 WT14     1290     MECN     H11      HGA3     0.090000        1.0080           0
     39701 WT14     1290     MECN     H12      HGA3     0.090000        1.0080           0
     39702 WT14     1290     MECN     H13      HGA3     0.090000        1.0080           0
     39703 WT14     1290     MECN     C2       CG1N1    0.360000       12.0110           0
     39704 WT14     1290     MECN     N3       NG1T1   -0.460000       14.0070           0
     39705 WT14     1292     MECN     C1       CG331   -0.170000       12.0110           0
     39706 WT14     1292     MECN     H11      HGA3     0.090000        1.0080           0
     39707 WT14     1292     MECN     H12      HGA3     0.090000        1.0080           0
     39708 WT14     1292     MECN     H13      HGA3     0.090000        1.0080           0
     39709 WT14     1292     MECN     C2       CG1N1    0.360000       12.0110           0
     39710 WT14     1292     MECN     N3       NG1T1   -0.460000       14.0070           0
     39711 WT14     1293     MECN     C1       CG331   -0.170000       12.0110           0
     39712 WT14     1293     MECN     H11      HGA3     0.090000        1.0080           0
     39713 WT14     1293     MECN     H12      HGA3     0.090000        1.0080           0
     39714 WT14     1293     MECN     H13      HGA3     0.090000        1.0080           0
     39715 WT14     1293     MECN     C2       CG1N1    0.360000       12.0110           0
     39716 WT14     1293     MECN     N3       NG1T1   -0.460000       14.0070           0
     39717 WT14     1294     MECN     C1       CG331   -0.170000       12.0110           0
     39718 WT14     1294     MECN     H11      HGA3     0.090000        1.0080           0
     39719 WT14     1294     MECN     H12      HGA3     0.090000        1.0080           0
     39720 WT14     1294     MECN     H13      HGA3     0.090000        1.0080           0
     39721 WT14     1294     MECN     C2       CG1N1    0.360000       12.0110           0
     39722 WT14     1294     MECN     N3       NG1T1   -0.460000       14.0070           0
     39723 WT14     1295     MECN     C1       CG331   -0.170000       12.0110           0
     39724 WT14     1295     MECN     H11      HGA3     0.090000        1.0080           0
     39725 WT14     1295     MECN     H12      HGA3     0.090000        1.0080           0
     39726 WT14     1295     MECN     H13      HGA3     0.090000        1.0080           0
     39727 WT14     1295     MECN     C2       CG1N1    0.360000       12.0110           0
     39728 WT14     1295     MECN     N3       NG1T1   -0.460000       14.0070           0
     39729 WT14     1297     MECN     C1       CG331   -0.170000       12.0110           0
     39730 WT14     1297     MECN     H11      HGA3     0.090000        1.0080           0
     39731 WT14     1297     MECN     H12      HGA3     0.090000        1.0080           0
     39732 WT14     1297     MECN     H13      HGA3     0.090000        1.0080           0
     39733 WT14     1297     MECN     C2       CG1N1    0.360000       12.0110           0
     39734 WT14     1297     MECN     N3       NG1T1   -0.460000       14.0070           0
     39735 WT14     1298     MECN     C1       CG331   -0.170000       12.0110           0
     39736 WT14     1298     MECN     H11      HGA3     0.090000        1.0080           0
     39737 WT14     1298     MECN     H12      HGA3     0.090000        1.0080           0
     39738 WT14     1298     MECN     H13      HGA3     0.090000        1.0080           0
     39739 WT14     1298     MECN     C2       CG1N1    0.360000       12.0110           0
     39740 WT14     1298     MECN     N3       NG1T1   -0.460000       14.0070           0
     39741 WT14     1299     MECN     C1       CG331   -0.170000       12.0110           0
     39742 WT14     1299     MECN     H11      HGA3     0.090000        1.0080           0
     39743 WT14     1299     MECN     H12      HGA3     0.090000        1.0080           0
     39744 WT14     1299     MECN     H13      HGA3     0.090000        1.0080           0
     39745 WT14     1299     MECN     C2       CG1N1    0.360000       12.0110           0
     39746 WT14     1299     MECN     N3       NG1T1   -0.460000       14.0070           0
     39747 WT14     1300     MECN     C1       CG331   -0.170000       12.0110           0
     39748 WT14     1300     MECN     H11      HGA3     0.090000        1.0080           0
     39749 WT14     1300     MECN     H12      HGA3     0.090000        1.0080           0
     39750 WT14     1300     MECN     H13      HGA3     0.090000        1.0080           0
     39751 WT14     1300     MECN     C2       CG1N1    0.360000       12.0110           0
     39752 WT14     1300     MECN     N3       NG1T1   -0.460000       14.0070           0
     39753 WT14     1301     MECN     C1       CG331   -0.170000       12.0110           0
     39754 WT14     1301     MECN     H11      HGA3     0.090000        1.0080           0
     39755 WT14     1301     MECN     H12      HGA3     0.090000        1.0080           0
     39756 WT14     1301     MECN     H13      HGA3     0.090000        1.0080           0
     39757 WT14     1301     MECN     C2       CG1N1    0.360000       12.0110           0
     39758 WT14     1301     MECN     N3       NG1T1   -0.460000       14.0070           0
     39759 WT14     1302     MECN     C1       CG331   -0.170000       12.0110           0
     39760 WT14     1302     MECN     H11      HGA3     0.090000        1.0080           0
     39761 WT14     1302     MECN     H12      HGA3     0.090000        1.0080           0
     39762 WT14     1302     MECN     H13      HGA3     0.090000        1.0080           0
     39763 WT14     1302     MECN     C2       CG1N1    0.360000       12.0110           0
     39764 WT14     1302     MECN     N3       NG1T1   -0.460000       14.0070           0
     39765 WT14     1303     MECN     C1       CG331   -0.170000       12.0110           0
     39766 WT14     1303     MECN     H11      HGA3     0.090000        1.0080           0
     39767 WT14     1303     MECN     H12      HGA3     0.090000        1.0080           0
     39768 WT14     1303     MECN     H13      HGA3     0.090000        1.0080           0
     39769 WT14     1303     MECN     C2       CG1N1    0.360000       12.0110           0
     39770 WT14     1303     MECN     N3       NG1T1   -0.460000       14.0070           0
     39771 WT14     1305     MECN     C1       CG331   -0.170000       12.0110           0
     39772 WT14     1305     MECN     H11      HGA3     0.090000        1.0080           0
     39773 WT14     1305     MECN     H12      HGA3     0.090000        1.0080           0
     39774 WT14     1305     MECN     H13      HGA3     0.090000        1.0080           0
     39775 WT14     1305     MECN     C2       CG1N1    0.360000       12.0110           0
     39776 WT14     1305     MECN     N3       NG1T1   -0.460000       14.0070           0
     39777 WT14     1306     MECN     C1       CG331   -0.170000       12.0110           0
     39778 WT14     1306     MECN     H11      HGA3     0.090000        1.0080           0
     39779 WT14     1306     MECN     H12      HGA3     0.090000        1.0080           0
     39780 WT14     1306     MECN     H13      HGA3     0.090000        1.0080           0
     39781 WT14     1306     MECN     C2       CG1N1    0.360000       12.0110           0
     39782 WT14     1306     MECN     N3       NG1T1   -0.460000       14.0070           0
     39783 WT14     1307     MECN     C1       CG331   -0.170000       12.0110           0
     39784 WT14     1307     MECN     H11      HGA3     0.090000        1.0080           0
     39785 WT14     1307     MECN     H12      HGA3     0.090000        1.0080           0
     39786 WT14     1307     MECN     H13      HGA3     0.090000        1.0080           0
     39787 WT14     1307     MECN     C2       CG1N1    0.360000       12.0110           0
     39788 WT14     1307     MECN     N3       NG1T1   -0.460000       14.0070           0
     39789 WT14     1309     MECN     C1       CG331   -0.170000       12.0110           0
     39790 WT14     1309     MECN     H11      HGA3     0.090000        1.0080           0
     39791 WT14     1309     MECN     H12      HGA3     0.090000        1.0080           0
     39792 WT14     1309     MECN     H13      HGA3     0.090000        1.0080           0
     39793 WT14     1309     MECN     C2       CG1N1    0.360000       12.0110           0
     39794 WT14     1309     MECN     N3       NG1T1   -0.460000       14.0070           0
     39795 WT14     1310     MECN     C1       CG331   -0.170000       12.0110           0
     39796 WT14     1310     MECN     H11      HGA3     0.090000        1.0080           0
     39797 WT14     1310     MECN     H12      HGA3     0.090000        1.0080           0
     39798 WT14     1310     MECN     H13      HGA3     0.090000        1.0080           0
     39799 WT14     1310     MECN     C2       CG1N1    0.360000       12.0110           0
     39800 WT14     1310     MECN     N3       NG1T1   -0.460000       14.0070           0
     39801 WT14     1311     MECN     C1       CG331   -0.170000       12.0110           0
     39802 WT14     1311     MECN     H11      HGA3     0.090000        1.0080           0
     39803 WT14     1311     MECN     H12      HGA3     0.090000        1.0080           0
     39804 WT14     1311     MECN     H13      HGA3     0.090000        1.0080           0
     39805 WT14     1311     MECN     C2       CG1N1    0.360000       12.0110           0
     39806 WT14     1311     MECN     N3       NG1T1   -0.460000       14.0070           0
     39807 WT14     1312     MECN     C1       CG331   -0.170000       12.0110           0
     39808 WT14     1312     MECN     H11      HGA3     0.090000        1.0080           0
     39809 WT14     1312     MECN     H12      HGA3     0.090000        1.0080           0
     39810 WT14     1312     MECN     H13      HGA3     0.090000        1.0080           0
     39811 WT14     1312     MECN     C2       CG1N1    0.360000       12.0110           0
     39812 WT14     1312     MECN     N3       NG1T1   -0.460000       14.0070           0
     39813 WT14     1313     MECN     C1       CG331   -0.170000       12.0110           0
     39814 WT14     1313     MECN     H11      HGA3     0.090000        1.0080           0
     39815 WT14     1313     MECN     H12      HGA3     0.090000        1.0080           0
     39816 WT14     1313     MECN     H13      HGA3     0.090000        1.0080           0
     39817 WT14     1313     MECN     C2       CG1N1    0.360000       12.0110           0
     39818 WT14     1313     MECN     N3       NG1T1   -0.460000       14.0070           0
     39819 WT14     1314     MECN     C1       CG331   -0.170000       12.0110           0
     39820 WT14     1314     MECN     H11      HGA3     0.090000        1.0080           0
     39821 WT14     1314     MECN     H12      HGA3     0.090000        1.0080           0
     39822 WT14     1314     MECN     H13      HGA3     0.090000        1.0080           0
     39823 WT14     1314     MECN     C2       CG1N1    0.360000       12.0110           0
     39824 WT14     1314     MECN     N3       NG1T1   -0.460000       14.0070           0
     39825 WT14     1315     MECN     C1       CG331   -0.170000       12.0110           0
     39826 WT14     1315     MECN     H11      HGA3     0.090000        1.0080           0
     39827 WT14     1315     MECN     H12      HGA3     0.090000        1.0080           0
     39828 WT14     1315     MECN     H13      HGA3     0.090000        1.0080           0
     39829 WT14     1315     MECN     C2       CG1N1    0.360000       12.0110           0
     39830 WT14     1315     MECN     N3       NG1T1   -0.460000       14.0070           0
     39831 WT14     1316     MECN     C1       CG331   -0.170000       12.0110           0
     39832 WT14     1316     MECN     H11      HGA3     0.090000        1.0080           0
     39833 WT14     1316     MECN     H12      HGA3     0.090000        1.0080           0
     39834 WT14     1316     MECN     H13      HGA3     0.090000        1.0080           0
     39835 WT14     1316     MECN     C2       CG1N1    0.360000       12.0110           0
     39836 WT14     1316     MECN     N3       NG1T1   -0.460000       14.0070           0
     39837 WT14     1317     MECN     C1       CG331   -0.170000       12.0110           0
     39838 WT14     1317     MECN     H11      HGA3     0.090000        1.0080           0
     39839 WT14     1317     MECN     H12      HGA3     0.090000        1.0080           0
     39840 WT14     1317     MECN     H13      HGA3     0.090000        1.0080           0
     39841 WT14     1317     MECN     C2       CG1N1    0.360000       12.0110           0
     39842 WT14     1317     MECN     N3       NG1T1   -0.460000       14.0070           0
     39843 WT14     1318     MECN     C1       CG331   -0.170000       12.0110           0
     39844 WT14     1318     MECN     H11      HGA3     0.090000        1.0080           0
     39845 WT14     1318     MECN     H12      HGA3     0.090000        1.0080           0
     39846 WT14     1318     MECN     H13      HGA3     0.090000        1.0080           0
     39847 WT14     1318     MECN     C2       CG1N1    0.360000       12.0110           0
     39848 WT14     1318     MECN     N3       NG1T1   -0.460000       14.0070           0
     39849 WT14     1319     MECN     C1       CG331   -0.170000       12.0110           0
     39850 WT14     1319     MECN     H11      HGA3     0.090000        1.0080           0
     39851 WT14     1319     MECN     H12      HGA3     0.090000        1.0080           0
     39852 WT14     1319     MECN     H13      HGA3     0.090000        1.0080           0
     39853 WT14     1319     MECN     C2       CG1N1    0.360000       12.0110           0
     39854 WT14     1319     MECN     N3       NG1T1   -0.460000       14.0070           0
     39855 WT14     1320     MECN     C1       CG331   -0.170000       12.0110           0
     39856 WT14     1320     MECN     H11      HGA3     0.090000        1.0080           0
     39857 WT14     1320     MECN     H12      HGA3     0.090000        1.0080           0
     39858 WT14     1320     MECN     H13      HGA3     0.090000        1.0080           0
     39859 WT14     1320     MECN     C2       CG1N1    0.360000       12.0110           0
     39860 WT14     1320     MECN     N3       NG1T1   -0.460000       14.0070           0
     39861 WT14     1323     MECN     C1       CG331   -0.170000       12.0110           0
     39862 WT14     1323     MECN     H11      HGA3     0.090000        1.0080           0
     39863 WT14     1323     MECN     H12      HGA3     0.090000        1.0080           0
     39864 WT14     1323     MECN     H13      HGA3     0.090000        1.0080           0
     39865 WT14     1323     MECN     C2       CG1N1    0.360000       12.0110           0
     39866 WT14     1323     MECN     N3       NG1T1   -0.460000       14.0070           0
     39867 WT14     1324     MECN     C1       CG331   -0.170000       12.0110           0
     39868 WT14     1324     MECN     H11      HGA3     0.090000        1.0080           0
     39869 WT14     1324     MECN     H12      HGA3     0.090000        1.0080           0
     39870 WT14     1324     MECN     H13      HGA3     0.090000        1.0080           0
     39871 WT14     1324     MECN     C2       CG1N1    0.360000       12.0110           0
     39872 WT14     1324     MECN     N3       NG1T1   -0.460000       14.0070           0
     39873 WT14     1325     MECN     C1       CG331   -0.170000       12.0110           0
     39874 WT14     1325     MECN     H11      HGA3     0.090000        1.0080           0
     39875 WT14     1325     MECN     H12      HGA3     0.090000        1.0080           0
     39876 WT14     1325     MECN     H13      HGA3     0.090000        1.0080           0
     39877 WT14     1325     MECN     C2       CG1N1    0.360000       12.0110           0
     39878 WT14     1325     MECN     N3       NG1T1   -0.460000       14.0070           0
     39879 WT14     1326     MECN     C1       CG331   -0.170000       12.0110           0
     39880 WT14     1326     MECN     H11      HGA3     0.090000        1.0080           0
     39881 WT14     1326     MECN     H12      HGA3     0.090000        1.0080           0
     39882 WT14     1326     MECN     H13      HGA3     0.090000        1.0080           0
     39883 WT14     1326     MECN     C2       CG1N1    0.360000       12.0110           0
     39884 WT14     1326     MECN     N3       NG1T1   -0.460000       14.0070           0
     39885 WT14     1327     MECN     C1       CG331   -0.170000       12.0110           0
     39886 WT14     1327     MECN     H11      HGA3     0.090000        1.0080           0
     39887 WT14     1327     MECN     H12      HGA3     0.090000        1.0080           0
     39888 WT14     1327     MECN     H13      HGA3     0.090000        1.0080           0
     39889 WT14     1327     MECN     C2       CG1N1    0.360000       12.0110           0
     39890 WT14     1327     MECN     N3       NG1T1   -0.460000       14.0070           0
     39891 WT14     1329     MECN     C1       CG331   -0.170000       12.0110           0
     39892 WT14     1329     MECN     H11      HGA3     0.090000        1.0080           0
     39893 WT14     1329     MECN     H12      HGA3     0.090000        1.0080           0
     39894 WT14     1329     MECN     H13      HGA3     0.090000        1.0080           0
     39895 WT14     1329     MECN     C2       CG1N1    0.360000       12.0110           0
     39896 WT14     1329     MECN     N3       NG1T1   -0.460000       14.0070           0
     39897 WT14     1330     MECN     C1       CG331   -0.170000       12.0110           0
     39898 WT14     1330     MECN     H11      HGA3     0.090000        1.0080           0
     39899 WT14     1330     MECN     H12      HGA3     0.090000        1.0080           0
     39900 WT14     1330     MECN     H13      HGA3     0.090000        1.0080           0
     39901 WT14     1330     MECN     C2       CG1N1    0.360000       12.0110           0
     39902 WT14     1330     MECN     N3       NG1T1   -0.460000       14.0070           0
     39903 WT14     1331     MECN     C1       CG331   -0.170000       12.0110           0
     39904 WT14     1331     MECN     H11      HGA3     0.090000        1.0080           0
     39905 WT14     1331     MECN     H12      HGA3     0.090000        1.0080           0
     39906 WT14     1331     MECN     H13      HGA3     0.090000        1.0080           0
     39907 WT14     1331     MECN     C2       CG1N1    0.360000       12.0110           0
     39908 WT14     1331     MECN     N3       NG1T1   -0.460000       14.0070           0
     39909 WT15     2        MECN     C1       CG331   -0.170000       12.0110           0
     39910 WT15     2        MECN     H11      HGA3     0.090000        1.0080           0
     39911 WT15     2        MECN     H12      HGA3     0.090000        1.0080           0
     39912 WT15     2        MECN     H13      HGA3     0.090000        1.0080           0
     39913 WT15     2        MECN     C2       CG1N1    0.360000       12.0110           0
     39914 WT15     2        MECN     N3       NG1T1   -0.460000       14.0070           0
     39915 WT15     3        MECN     C1       CG331   -0.170000       12.0110           0
     39916 WT15     3        MECN     H11      HGA3     0.090000        1.0080           0
     39917 WT15     3        MECN     H12      HGA3     0.090000        1.0080           0
     39918 WT15     3        MECN     H13      HGA3     0.090000        1.0080           0
     39919 WT15     3        MECN     C2       CG1N1    0.360000       12.0110           0
     39920 WT15     3        MECN     N3       NG1T1   -0.460000       14.0070           0
     39921 WT15     5        MECN     C1       CG331   -0.170000       12.0110           0
     39922 WT15     5        MECN     H11      HGA3     0.090000        1.0080           0
     39923 WT15     5        MECN     H12      HGA3     0.090000        1.0080           0
     39924 WT15     5        MECN     H13      HGA3     0.090000        1.0080           0
     39925 WT15     5        MECN     C2       CG1N1    0.360000       12.0110           0
     39926 WT15     5        MECN     N3       NG1T1   -0.460000       14.0070           0
     39927 WT15     6        MECN     C1       CG331   -0.170000       12.0110           0
     39928 WT15     6        MECN     H11      HGA3     0.090000        1.0080           0
     39929 WT15     6        MECN     H12      HGA3     0.090000        1.0080           0
     39930 WT15     6        MECN     H13      HGA3     0.090000        1.0080           0
     39931 WT15     6        MECN     C2       CG1N1    0.360000       12.0110           0
     39932 WT15     6        MECN     N3       NG1T1   -0.460000       14.0070           0
     39933 WT15     8        MECN     C1       CG331   -0.170000       12.0110           0
     39934 WT15     8        MECN     H11      HGA3     0.090000        1.0080           0
     39935 WT15     8        MECN     H12      HGA3     0.090000        1.0080           0
     39936 WT15     8        MECN     H13      HGA3     0.090000        1.0080           0
     39937 WT15     8        MECN     C2       CG1N1    0.360000       12.0110           0
     39938 WT15     8        MECN     N3       NG1T1   -0.460000       14.0070           0
     39939 WT15     11       MECN     C1       CG331   -0.170000       12.0110           0
     39940 WT15     11       MECN     H11      HGA3     0.090000        1.0080           0
     39941 WT15     11       MECN     H12      HGA3     0.090000        1.0080           0
     39942 WT15     11       MECN     H13      HGA3     0.090000        1.0080           0
     39943 WT15     11       MECN     C2       CG1N1    0.360000       12.0110           0
     39944 WT15     11       MECN     N3       NG1T1   -0.460000       14.0070           0
     39945 WT15     12       MECN     C1       CG331   -0.170000       12.0110           0
     39946 WT15     12       MECN     H11      HGA3     0.090000        1.0080           0
     39947 WT15     12       MECN     H12      HGA3     0.090000        1.0080           0
     39948 WT15     12       MECN     H13      HGA3     0.090000        1.0080           0
     39949 WT15     12       MECN     C2       CG1N1    0.360000       12.0110           0
     39950 WT15     12       MECN     N3       NG1T1   -0.460000       14.0070           0
     39951 WT15     13       MECN     C1       CG331   -0.170000       12.0110           0
     39952 WT15     13       MECN     H11      HGA3     0.090000        1.0080           0
     39953 WT15     13       MECN     H12      HGA3     0.090000        1.0080           0
     39954 WT15     13       MECN     H13      HGA3     0.090000        1.0080           0
     39955 WT15     13       MECN     C2       CG1N1    0.360000       12.0110           0
     39956 WT15     13       MECN     N3       NG1T1   -0.460000       14.0070           0
     39957 WT15     14       MECN     C1       CG331   -0.170000       12.0110           0
     39958 WT15     14       MECN     H11      HGA3     0.090000        1.0080           0
     39959 WT15     14       MECN     H12      HGA3     0.090000        1.0080           0
     39960 WT15     14       MECN     H13      HGA3     0.090000        1.0080           0
     39961 WT15     14       MECN     C2       CG1N1    0.360000       12.0110           0
     39962 WT15     14       MECN     N3       NG1T1   -0.460000       14.0070           0
     39963 WT15     15       MECN     C1       CG331   -0.170000       12.0110           0
     39964 WT15     15       MECN     H11      HGA3     0.090000        1.0080           0
     39965 WT15     15       MECN     H12      HGA3     0.090000        1.0080           0
     39966 WT15     15       MECN     H13      HGA3     0.090000        1.0080           0
     39967 WT15     15       MECN     C2       CG1N1    0.360000       12.0110           0
     39968 WT15     15       MECN     N3       NG1T1   -0.460000       14.0070           0
     39969 WT15     17       MECN     C1       CG331   -0.170000       12.0110           0
     39970 WT15     17       MECN     H11      HGA3     0.090000        1.0080           0
     39971 WT15     17       MECN     H12      HGA3     0.090000        1.0080           0
     39972 WT15     17       MECN     H13      HGA3     0.090000        1.0080           0
     39973 WT15     17       MECN     C2       CG1N1    0.360000       12.0110           0
     39974 WT15     17       MECN     N3       NG1T1   -0.460000       14.0070           0
     39975 WT15     18       MECN     C1       CG331   -0.170000       12.0110           0
     39976 WT15     18       MECN     H11      HGA3     0.090000        1.0080           0
     39977 WT15     18       MECN     H12      HGA3     0.090000        1.0080           0
     39978 WT15     18       MECN     H13      HGA3     0.090000        1.0080           0
     39979 WT15     18       MECN     C2       CG1N1    0.360000       12.0110           0
     39980 WT15     18       MECN     N3       NG1T1   -0.460000       14.0070           0
     39981 WT15     19       MECN     C1       CG331   -0.170000       12.0110           0
     39982 WT15     19       MECN     H11      HGA3     0.090000        1.0080           0
     39983 WT15     19       MECN     H12      HGA3     0.090000        1.0080           0
     39984 WT15     19       MECN     H13      HGA3     0.090000        1.0080           0
     39985 WT15     19       MECN     C2       CG1N1    0.360000       12.0110           0
     39986 WT15     19       MECN     N3       NG1T1   -0.460000       14.0070           0
     39987 WT15     20       MECN     C1       CG331   -0.170000       12.0110           0
     39988 WT15     20       MECN     H11      HGA3     0.090000        1.0080           0
     39989 WT15     20       MECN     H12      HGA3     0.090000        1.0080           0
     39990 WT15     20       MECN     H13      HGA3     0.090000        1.0080           0
     39991 WT15     20       MECN     C2       CG1N1    0.360000       12.0110           0
     39992 WT15     20       MECN     N3       NG1T1   -0.460000       14.0070           0
     39993 WT15     21       MECN     C1       CG331   -0.170000       12.0110           0
     39994 WT15     21       MECN     H11      HGA3     0.090000        1.0080           0
     39995 WT15     21       MECN     H12      HGA3     0.090000        1.0080           0
     39996 WT15     21       MECN     H13      HGA3     0.090000        1.0080           0
     39997 WT15     21       MECN     C2       CG1N1    0.360000       12.0110           0
     39998 WT15     21       MECN     N3       NG1T1   -0.460000       14.0070           0
     39999 WT15     24       MECN     C1       CG331   -0.170000       12.0110           0
     40000 WT15     24       MECN     H11      HGA3     0.090000        1.0080           0
     40001 WT15     24       MECN     H12      HGA3     0.090000        1.0080           0
     40002 WT15     24       MECN     H13      HGA3     0.090000        1.0080           0
     40003 WT15     24       MECN     C2       CG1N1    0.360000       12.0110           0
     40004 WT15     24       MECN     N3       NG1T1   -0.460000       14.0070           0
     40005 WT15     25       MECN     C1       CG331   -0.170000       12.0110           0
     40006 WT15     25       MECN     H11      HGA3     0.090000        1.0080           0
     40007 WT15     25       MECN     H12      HGA3     0.090000        1.0080           0
     40008 WT15     25       MECN     H13      HGA3     0.090000        1.0080           0
     40009 WT15     25       MECN     C2       CG1N1    0.360000       12.0110           0
     40010 WT15     25       MECN     N3       NG1T1   -0.460000       14.0070           0
     40011 WT15     26       MECN     C1       CG331   -0.170000       12.0110           0
     40012 WT15     26       MECN     H11      HGA3     0.090000        1.0080           0
     40013 WT15     26       MECN     H12      HGA3     0.090000        1.0080           0
     40014 WT15     26       MECN     H13      HGA3     0.090000        1.0080           0
     40015 WT15     26       MECN     C2       CG1N1    0.360000       12.0110           0
     40016 WT15     26       MECN     N3       NG1T1   -0.460000       14.0070           0
     40017 WT15     27       MECN     C1       CG331   -0.170000       12.0110           0
     40018 WT15     27       MECN     H11      HGA3     0.090000        1.0080           0
     40019 WT15     27       MECN     H12      HGA3     0.090000        1.0080           0
     40020 WT15     27       MECN     H13      HGA3     0.090000        1.0080           0
     40021 WT15     27       MECN     C2       CG1N1    0.360000       12.0110           0
     40022 WT15     27       MECN     N3       NG1T1   -0.460000       14.0070           0
     40023 WT15     28       MECN     C1       CG331   -0.170000       12.0110           0
     40024 WT15     28       MECN     H11      HGA3     0.090000        1.0080           0
     40025 WT15     28       MECN     H12      HGA3     0.090000        1.0080           0
     40026 WT15     28       MECN     H13      HGA3     0.090000        1.0080           0
     40027 WT15     28       MECN     C2       CG1N1    0.360000       12.0110           0
     40028 WT15     28       MECN     N3       NG1T1   -0.460000       14.0070           0
     40029 WT15     29       MECN     C1       CG331   -0.170000       12.0110           0
     40030 WT15     29       MECN     H11      HGA3     0.090000        1.0080           0
     40031 WT15     29       MECN     H12      HGA3     0.090000        1.0080           0
     40032 WT15     29       MECN     H13      HGA3     0.090000        1.0080           0
     40033 WT15     29       MECN     C2       CG1N1    0.360000       12.0110           0
     40034 WT15     29       MECN     N3       NG1T1   -0.460000       14.0070           0
     40035 WT15     30       MECN     C1       CG331   -0.170000       12.0110           0
     40036 WT15     30       MECN     H11      HGA3     0.090000        1.0080           0
     40037 WT15     30       MECN     H12      HGA3     0.090000        1.0080           0
     40038 WT15     30       MECN     H13      HGA3     0.090000        1.0080           0
     40039 WT15     30       MECN     C2       CG1N1    0.360000       12.0110           0
     40040 WT15     30       MECN     N3       NG1T1   -0.460000       14.0070           0
     40041 WT15     32       MECN     C1       CG331   -0.170000       12.0110           0
     40042 WT15     32       MECN     H11      HGA3     0.090000        1.0080           0
     40043 WT15     32       MECN     H12      HGA3     0.090000        1.0080           0
     40044 WT15     32       MECN     H13      HGA3     0.090000        1.0080           0
     40045 WT15     32       MECN     C2       CG1N1    0.360000       12.0110           0
     40046 WT15     32       MECN     N3       NG1T1   -0.460000       14.0070           0
     40047 WT15     35       MECN     C1       CG331   -0.170000       12.0110           0
     40048 WT15     35       MECN     H11      HGA3     0.090000        1.0080           0
     40049 WT15     35       MECN     H12      HGA3     0.090000        1.0080           0
     40050 WT15     35       MECN     H13      HGA3     0.090000        1.0080           0
     40051 WT15     35       MECN     C2       CG1N1    0.360000       12.0110           0
     40052 WT15     35       MECN     N3       NG1T1   -0.460000       14.0070           0
     40053 WT15     38       MECN     C1       CG331   -0.170000       12.0110           0
     40054 WT15     38       MECN     H11      HGA3     0.090000        1.0080           0
     40055 WT15     38       MECN     H12      HGA3     0.090000        1.0080           0
     40056 WT15     38       MECN     H13      HGA3     0.090000        1.0080           0
     40057 WT15     38       MECN     C2       CG1N1    0.360000       12.0110           0
     40058 WT15     38       MECN     N3       NG1T1   -0.460000       14.0070           0
     40059 WT15     39       MECN     C1       CG331   -0.170000       12.0110           0
     40060 WT15     39       MECN     H11      HGA3     0.090000        1.0080           0
     40061 WT15     39       MECN     H12      HGA3     0.090000        1.0080           0
     40062 WT15     39       MECN     H13      HGA3     0.090000        1.0080           0
     40063 WT15     39       MECN     C2       CG1N1    0.360000       12.0110           0
     40064 WT15     39       MECN     N3       NG1T1   -0.460000       14.0070           0
     40065 WT15     40       MECN     C1       CG331   -0.170000       12.0110           0
     40066 WT15     40       MECN     H11      HGA3     0.090000        1.0080           0
     40067 WT15     40       MECN     H12      HGA3     0.090000        1.0080           0
     40068 WT15     40       MECN     H13      HGA3     0.090000        1.0080           0
     40069 WT15     40       MECN     C2       CG1N1    0.360000       12.0110           0
     40070 WT15     40       MECN     N3       NG1T1   -0.460000       14.0070           0
     40071 WT15     44       MECN     C1       CG331   -0.170000       12.0110           0
     40072 WT15     44       MECN     H11      HGA3     0.090000        1.0080           0
     40073 WT15     44       MECN     H12      HGA3     0.090000        1.0080           0
     40074 WT15     44       MECN     H13      HGA3     0.090000        1.0080           0
     40075 WT15     44       MECN     C2       CG1N1    0.360000       12.0110           0
     40076 WT15     44       MECN     N3       NG1T1   -0.460000       14.0070           0
     40077 WT15     45       MECN     C1       CG331   -0.170000       12.0110           0
     40078 WT15     45       MECN     H11      HGA3     0.090000        1.0080           0
     40079 WT15     45       MECN     H12      HGA3     0.090000        1.0080           0
     40080 WT15     45       MECN     H13      HGA3     0.090000        1.0080           0
     40081 WT15     45       MECN     C2       CG1N1    0.360000       12.0110           0
     40082 WT15     45       MECN     N3       NG1T1   -0.460000       14.0070           0
     40083 WT15     47       MECN     C1       CG331   -0.170000       12.0110           0
     40084 WT15     47       MECN     H11      HGA3     0.090000        1.0080           0
     40085 WT15     47       MECN     H12      HGA3     0.090000        1.0080           0
     40086 WT15     47       MECN     H13      HGA3     0.090000        1.0080           0
     40087 WT15     47       MECN     C2       CG1N1    0.360000       12.0110           0
     40088 WT15     47       MECN     N3       NG1T1   -0.460000       14.0070           0
     40089 WT15     48       MECN     C1       CG331   -0.170000       12.0110           0
     40090 WT15     48       MECN     H11      HGA3     0.090000        1.0080           0
     40091 WT15     48       MECN     H12      HGA3     0.090000        1.0080           0
     40092 WT15     48       MECN     H13      HGA3     0.090000        1.0080           0
     40093 WT15     48       MECN     C2       CG1N1    0.360000       12.0110           0
     40094 WT15     48       MECN     N3       NG1T1   -0.460000       14.0070           0
     40095 WT15     49       MECN     C1       CG331   -0.170000       12.0110           0
     40096 WT15     49       MECN     H11      HGA3     0.090000        1.0080           0
     40097 WT15     49       MECN     H12      HGA3     0.090000        1.0080           0
     40098 WT15     49       MECN     H13      HGA3     0.090000        1.0080           0
     40099 WT15     49       MECN     C2       CG1N1    0.360000       12.0110           0
     40100 WT15     49       MECN     N3       NG1T1   -0.460000       14.0070           0
     40101 WT15     51       MECN     C1       CG331   -0.170000       12.0110           0
     40102 WT15     51       MECN     H11      HGA3     0.090000        1.0080           0
     40103 WT15     51       MECN     H12      HGA3     0.090000        1.0080           0
     40104 WT15     51       MECN     H13      HGA3     0.090000        1.0080           0
     40105 WT15     51       MECN     C2       CG1N1    0.360000       12.0110           0
     40106 WT15     51       MECN     N3       NG1T1   -0.460000       14.0070           0
     40107 WT15     53       MECN     C1       CG331   -0.170000       12.0110           0
     40108 WT15     53       MECN     H11      HGA3     0.090000        1.0080           0
     40109 WT15     53       MECN     H12      HGA3     0.090000        1.0080           0
     40110 WT15     53       MECN     H13      HGA3     0.090000        1.0080           0
     40111 WT15     53       MECN     C2       CG1N1    0.360000       12.0110           0
     40112 WT15     53       MECN     N3       NG1T1   -0.460000       14.0070           0
     40113 WT15     55       MECN     C1       CG331   -0.170000       12.0110           0
     40114 WT15     55       MECN     H11      HGA3     0.090000        1.0080           0
     40115 WT15     55       MECN     H12      HGA3     0.090000        1.0080           0
     40116 WT15     55       MECN     H13      HGA3     0.090000        1.0080           0
     40117 WT15     55       MECN     C2       CG1N1    0.360000       12.0110           0
     40118 WT15     55       MECN     N3       NG1T1   -0.460000       14.0070           0
     40119 WT15     61       MECN     C1       CG331   -0.170000       12.0110           0
     40120 WT15     61       MECN     H11      HGA3     0.090000        1.0080           0
     40121 WT15     61       MECN     H12      HGA3     0.090000        1.0080           0
     40122 WT15     61       MECN     H13      HGA3     0.090000        1.0080           0
     40123 WT15     61       MECN     C2       CG1N1    0.360000       12.0110           0
     40124 WT15     61       MECN     N3       NG1T1   -0.460000       14.0070           0
     40125 WT15     62       MECN     C1       CG331   -0.170000       12.0110           0
     40126 WT15     62       MECN     H11      HGA3     0.090000        1.0080           0
     40127 WT15     62       MECN     H12      HGA3     0.090000        1.0080           0
     40128 WT15     62       MECN     H13      HGA3     0.090000        1.0080           0
     40129 WT15     62       MECN     C2       CG1N1    0.360000       12.0110           0
     40130 WT15     62       MECN     N3       NG1T1   -0.460000       14.0070           0
     40131 WT15     64       MECN     C1       CG331   -0.170000       12.0110           0
     40132 WT15     64       MECN     H11      HGA3     0.090000        1.0080           0
     40133 WT15     64       MECN     H12      HGA3     0.090000        1.0080           0
     40134 WT15     64       MECN     H13      HGA3     0.090000        1.0080           0
     40135 WT15     64       MECN     C2       CG1N1    0.360000       12.0110           0
     40136 WT15     64       MECN     N3       NG1T1   -0.460000       14.0070           0
     40137 WT15     65       MECN     C1       CG331   -0.170000       12.0110           0
     40138 WT15     65       MECN     H11      HGA3     0.090000        1.0080           0
     40139 WT15     65       MECN     H12      HGA3     0.090000        1.0080           0
     40140 WT15     65       MECN     H13      HGA3     0.090000        1.0080           0
     40141 WT15     65       MECN     C2       CG1N1    0.360000       12.0110           0
     40142 WT15     65       MECN     N3       NG1T1   -0.460000       14.0070           0
     40143 WT15     66       MECN     C1       CG331   -0.170000       12.0110           0
     40144 WT15     66       MECN     H11      HGA3     0.090000        1.0080           0
     40145 WT15     66       MECN     H12      HGA3     0.090000        1.0080           0
     40146 WT15     66       MECN     H13      HGA3     0.090000        1.0080           0
     40147 WT15     66       MECN     C2       CG1N1    0.360000       12.0110           0
     40148 WT15     66       MECN     N3       NG1T1   -0.460000       14.0070           0
     40149 WT15     67       MECN     C1       CG331   -0.170000       12.0110           0
     40150 WT15     67       MECN     H11      HGA3     0.090000        1.0080           0
     40151 WT15     67       MECN     H12      HGA3     0.090000        1.0080           0
     40152 WT15     67       MECN     H13      HGA3     0.090000        1.0080           0
     40153 WT15     67       MECN     C2       CG1N1    0.360000       12.0110           0
     40154 WT15     67       MECN     N3       NG1T1   -0.460000       14.0070           0
     40155 WT15     68       MECN     C1       CG331   -0.170000       12.0110           0
     40156 WT15     68       MECN     H11      HGA3     0.090000        1.0080           0
     40157 WT15     68       MECN     H12      HGA3     0.090000        1.0080           0
     40158 WT15     68       MECN     H13      HGA3     0.090000        1.0080           0
     40159 WT15     68       MECN     C2       CG1N1    0.360000       12.0110           0
     40160 WT15     68       MECN     N3       NG1T1   -0.460000       14.0070           0
     40161 WT15     69       MECN     C1       CG331   -0.170000       12.0110           0
     40162 WT15     69       MECN     H11      HGA3     0.090000        1.0080           0
     40163 WT15     69       MECN     H12      HGA3     0.090000        1.0080           0
     40164 WT15     69       MECN     H13      HGA3     0.090000        1.0080           0
     40165 WT15     69       MECN     C2       CG1N1    0.360000       12.0110           0
     40166 WT15     69       MECN     N3       NG1T1   -0.460000       14.0070           0
     40167 WT15     70       MECN     C1       CG331   -0.170000       12.0110           0
     40168 WT15     70       MECN     H11      HGA3     0.090000        1.0080           0
     40169 WT15     70       MECN     H12      HGA3     0.090000        1.0080           0
     40170 WT15     70       MECN     H13      HGA3     0.090000        1.0080           0
     40171 WT15     70       MECN     C2       CG1N1    0.360000       12.0110           0
     40172 WT15     70       MECN     N3       NG1T1   -0.460000       14.0070           0
     40173 WT15     73       MECN     C1       CG331   -0.170000       12.0110           0
     40174 WT15     73       MECN     H11      HGA3     0.090000        1.0080           0
     40175 WT15     73       MECN     H12      HGA3     0.090000        1.0080           0
     40176 WT15     73       MECN     H13      HGA3     0.090000        1.0080           0
     40177 WT15     73       MECN     C2       CG1N1    0.360000       12.0110           0
     40178 WT15     73       MECN     N3       NG1T1   -0.460000       14.0070           0
     40179 WT15     74       MECN     C1       CG331   -0.170000       12.0110           0
     40180 WT15     74       MECN     H11      HGA3     0.090000        1.0080           0
     40181 WT15     74       MECN     H12      HGA3     0.090000        1.0080           0
     40182 WT15     74       MECN     H13      HGA3     0.090000        1.0080           0
     40183 WT15     74       MECN     C2       CG1N1    0.360000       12.0110           0
     40184 WT15     74       MECN     N3       NG1T1   -0.460000       14.0070           0
     40185 WT15     76       MECN     C1       CG331   -0.170000       12.0110           0
     40186 WT15     76       MECN     H11      HGA3     0.090000        1.0080           0
     40187 WT15     76       MECN     H12      HGA3     0.090000        1.0080           0
     40188 WT15     76       MECN     H13      HGA3     0.090000        1.0080           0
     40189 WT15     76       MECN     C2       CG1N1    0.360000       12.0110           0
     40190 WT15     76       MECN     N3       NG1T1   -0.460000       14.0070           0
     40191 WT15     77       MECN     C1       CG331   -0.170000       12.0110           0
     40192 WT15     77       MECN     H11      HGA3     0.090000        1.0080           0
     40193 WT15     77       MECN     H12      HGA3     0.090000        1.0080           0
     40194 WT15     77       MECN     H13      HGA3     0.090000        1.0080           0
     40195 WT15     77       MECN     C2       CG1N1    0.360000       12.0110           0
     40196 WT15     77       MECN     N3       NG1T1   -0.460000       14.0070           0
     40197 WT15     80       MECN     C1       CG331   -0.170000       12.0110           0
     40198 WT15     80       MECN     H11      HGA3     0.090000        1.0080           0
     40199 WT15     80       MECN     H12      HGA3     0.090000        1.0080           0
     40200 WT15     80       MECN     H13      HGA3     0.090000        1.0080           0
     40201 WT15     80       MECN     C2       CG1N1    0.360000       12.0110           0
     40202 WT15     80       MECN     N3       NG1T1   -0.460000       14.0070           0
     40203 WT15     82       MECN     C1       CG331   -0.170000       12.0110           0
     40204 WT15     82       MECN     H11      HGA3     0.090000        1.0080           0
     40205 WT15     82       MECN     H12      HGA3     0.090000        1.0080           0
     40206 WT15     82       MECN     H13      HGA3     0.090000        1.0080           0
     40207 WT15     82       MECN     C2       CG1N1    0.360000       12.0110           0
     40208 WT15     82       MECN     N3       NG1T1   -0.460000       14.0070           0
     40209 WT15     83       MECN     C1       CG331   -0.170000       12.0110           0
     40210 WT15     83       MECN     H11      HGA3     0.090000        1.0080           0
     40211 WT15     83       MECN     H12      HGA3     0.090000        1.0080           0
     40212 WT15     83       MECN     H13      HGA3     0.090000        1.0080           0
     40213 WT15     83       MECN     C2       CG1N1    0.360000       12.0110           0
     40214 WT15     83       MECN     N3       NG1T1   -0.460000       14.0070           0
     40215 WT15     85       MECN     C1       CG331   -0.170000       12.0110           0
     40216 WT15     85       MECN     H11      HGA3     0.090000        1.0080           0
     40217 WT15     85       MECN     H12      HGA3     0.090000        1.0080           0
     40218 WT15     85       MECN     H13      HGA3     0.090000        1.0080           0
     40219 WT15     85       MECN     C2       CG1N1    0.360000       12.0110           0
     40220 WT15     85       MECN     N3       NG1T1   -0.460000       14.0070           0
     40221 WT15     87       MECN     C1       CG331   -0.170000       12.0110           0
     40222 WT15     87       MECN     H11      HGA3     0.090000        1.0080           0
     40223 WT15     87       MECN     H12      HGA3     0.090000        1.0080           0
     40224 WT15     87       MECN     H13      HGA3     0.090000        1.0080           0
     40225 WT15     87       MECN     C2       CG1N1    0.360000       12.0110           0
     40226 WT15     87       MECN     N3       NG1T1   -0.460000       14.0070           0
     40227 WT15     88       MECN     C1       CG331   -0.170000       12.0110           0
     40228 WT15     88       MECN     H11      HGA3     0.090000        1.0080           0
     40229 WT15     88       MECN     H12      HGA3     0.090000        1.0080           0
     40230 WT15     88       MECN     H13      HGA3     0.090000        1.0080           0
     40231 WT15     88       MECN     C2       CG1N1    0.360000       12.0110           0
     40232 WT15     88       MECN     N3       NG1T1   -0.460000       14.0070           0
     40233 WT15     89       MECN     C1       CG331   -0.170000       12.0110           0
     40234 WT15     89       MECN     H11      HGA3     0.090000        1.0080           0
     40235 WT15     89       MECN     H12      HGA3     0.090000        1.0080           0
     40236 WT15     89       MECN     H13      HGA3     0.090000        1.0080           0
     40237 WT15     89       MECN     C2       CG1N1    0.360000       12.0110           0
     40238 WT15     89       MECN     N3       NG1T1   -0.460000       14.0070           0
     40239 WT15     93       MECN     C1       CG331   -0.170000       12.0110           0
     40240 WT15     93       MECN     H11      HGA3     0.090000        1.0080           0
     40241 WT15     93       MECN     H12      HGA3     0.090000        1.0080           0
     40242 WT15     93       MECN     H13      HGA3     0.090000        1.0080           0
     40243 WT15     93       MECN     C2       CG1N1    0.360000       12.0110           0
     40244 WT15     93       MECN     N3       NG1T1   -0.460000       14.0070           0
     40245 WT15     96       MECN     C1       CG331   -0.170000       12.0110           0
     40246 WT15     96       MECN     H11      HGA3     0.090000        1.0080           0
     40247 WT15     96       MECN     H12      HGA3     0.090000        1.0080           0
     40248 WT15     96       MECN     H13      HGA3     0.090000        1.0080           0
     40249 WT15     96       MECN     C2       CG1N1    0.360000       12.0110           0
     40250 WT15     96       MECN     N3       NG1T1   -0.460000       14.0070           0
     40251 WT15     97       MECN     C1       CG331   -0.170000       12.0110           0
     40252 WT15     97       MECN     H11      HGA3     0.090000        1.0080           0
     40253 WT15     97       MECN     H12      HGA3     0.090000        1.0080           0
     40254 WT15     97       MECN     H13      HGA3     0.090000        1.0080           0
     40255 WT15     97       MECN     C2       CG1N1    0.360000       12.0110           0
     40256 WT15     97       MECN     N3       NG1T1   -0.460000       14.0070           0
     40257 WT15     98       MECN     C1       CG331   -0.170000       12.0110           0
     40258 WT15     98       MECN     H11      HGA3     0.090000        1.0080           0
     40259 WT15     98       MECN     H12      HGA3     0.090000        1.0080           0
     40260 WT15     98       MECN     H13      HGA3     0.090000        1.0080           0
     40261 WT15     98       MECN     C2       CG1N1    0.360000       12.0110           0
     40262 WT15     98       MECN     N3       NG1T1   -0.460000       14.0070           0
     40263 WT15     99       MECN     C1       CG331   -0.170000       12.0110           0
     40264 WT15     99       MECN     H11      HGA3     0.090000        1.0080           0
     40265 WT15     99       MECN     H12      HGA3     0.090000        1.0080           0
     40266 WT15     99       MECN     H13      HGA3     0.090000        1.0080           0
     40267 WT15     99       MECN     C2       CG1N1    0.360000       12.0110           0
     40268 WT15     99       MECN     N3       NG1T1   -0.460000       14.0070           0
     40269 WT15     100      MECN     C1       CG331   -0.170000       12.0110           0
     40270 WT15     100      MECN     H11      HGA3     0.090000        1.0080           0
     40271 WT15     100      MECN     H12      HGA3     0.090000        1.0080           0
     40272 WT15     100      MECN     H13      HGA3     0.090000        1.0080           0
     40273 WT15     100      MECN     C2       CG1N1    0.360000       12.0110           0
     40274 WT15     100      MECN     N3       NG1T1   -0.460000       14.0070           0
     40275 WT15     102      MECN     C1       CG331   -0.170000       12.0110           0
     40276 WT15     102      MECN     H11      HGA3     0.090000        1.0080           0
     40277 WT15     102      MECN     H12      HGA3     0.090000        1.0080           0
     40278 WT15     102      MECN     H13      HGA3     0.090000        1.0080           0
     40279 WT15     102      MECN     C2       CG1N1    0.360000       12.0110           0
     40280 WT15     102      MECN     N3       NG1T1   -0.460000       14.0070           0
     40281 WT15     103      MECN     C1       CG331   -0.170000       12.0110           0
     40282 WT15     103      MECN     H11      HGA3     0.090000        1.0080           0
     40283 WT15     103      MECN     H12      HGA3     0.090000        1.0080           0
     40284 WT15     103      MECN     H13      HGA3     0.090000        1.0080           0
     40285 WT15     103      MECN     C2       CG1N1    0.360000       12.0110           0
     40286 WT15     103      MECN     N3       NG1T1   -0.460000       14.0070           0
     40287 WT15     104      MECN     C1       CG331   -0.170000       12.0110           0
     40288 WT15     104      MECN     H11      HGA3     0.090000        1.0080           0
     40289 WT15     104      MECN     H12      HGA3     0.090000        1.0080           0
     40290 WT15     104      MECN     H13      HGA3     0.090000        1.0080           0
     40291 WT15     104      MECN     C2       CG1N1    0.360000       12.0110           0
     40292 WT15     104      MECN     N3       NG1T1   -0.460000       14.0070           0
     40293 WT15     106      MECN     C1       CG331   -0.170000       12.0110           0
     40294 WT15     106      MECN     H11      HGA3     0.090000        1.0080           0
     40295 WT15     106      MECN     H12      HGA3     0.090000        1.0080           0
     40296 WT15     106      MECN     H13      HGA3     0.090000        1.0080           0
     40297 WT15     106      MECN     C2       CG1N1    0.360000       12.0110           0
     40298 WT15     106      MECN     N3       NG1T1   -0.460000       14.0070           0
     40299 WT15     107      MECN     C1       CG331   -0.170000       12.0110           0
     40300 WT15     107      MECN     H11      HGA3     0.090000        1.0080           0
     40301 WT15     107      MECN     H12      HGA3     0.090000        1.0080           0
     40302 WT15     107      MECN     H13      HGA3     0.090000        1.0080           0
     40303 WT15     107      MECN     C2       CG1N1    0.360000       12.0110           0
     40304 WT15     107      MECN     N3       NG1T1   -0.460000       14.0070           0
     40305 WT15     108      MECN     C1       CG331   -0.170000       12.0110           0
     40306 WT15     108      MECN     H11      HGA3     0.090000        1.0080           0
     40307 WT15     108      MECN     H12      HGA3     0.090000        1.0080           0
     40308 WT15     108      MECN     H13      HGA3     0.090000        1.0080           0
     40309 WT15     108      MECN     C2       CG1N1    0.360000       12.0110           0
     40310 WT15     108      MECN     N3       NG1T1   -0.460000       14.0070           0
     40311 WT15     109      MECN     C1       CG331   -0.170000       12.0110           0
     40312 WT15     109      MECN     H11      HGA3     0.090000        1.0080           0
     40313 WT15     109      MECN     H12      HGA3     0.090000        1.0080           0
     40314 WT15     109      MECN     H13      HGA3     0.090000        1.0080           0
     40315 WT15     109      MECN     C2       CG1N1    0.360000       12.0110           0
     40316 WT15     109      MECN     N3       NG1T1   -0.460000       14.0070           0
     40317 WT15     110      MECN     C1       CG331   -0.170000       12.0110           0
     40318 WT15     110      MECN     H11      HGA3     0.090000        1.0080           0
     40319 WT15     110      MECN     H12      HGA3     0.090000        1.0080           0
     40320 WT15     110      MECN     H13      HGA3     0.090000        1.0080           0
     40321 WT15     110      MECN     C2       CG1N1    0.360000       12.0110           0
     40322 WT15     110      MECN     N3       NG1T1   -0.460000       14.0070           0
     40323 WT15     112      MECN     C1       CG331   -0.170000       12.0110           0
     40324 WT15     112      MECN     H11      HGA3     0.090000        1.0080           0
     40325 WT15     112      MECN     H12      HGA3     0.090000        1.0080           0
     40326 WT15     112      MECN     H13      HGA3     0.090000        1.0080           0
     40327 WT15     112      MECN     C2       CG1N1    0.360000       12.0110           0
     40328 WT15     112      MECN     N3       NG1T1   -0.460000       14.0070           0
     40329 WT15     113      MECN     C1       CG331   -0.170000       12.0110           0
     40330 WT15     113      MECN     H11      HGA3     0.090000        1.0080           0
     40331 WT15     113      MECN     H12      HGA3     0.090000        1.0080           0
     40332 WT15     113      MECN     H13      HGA3     0.090000        1.0080           0
     40333 WT15     113      MECN     C2       CG1N1    0.360000       12.0110           0
     40334 WT15     113      MECN     N3       NG1T1   -0.460000       14.0070           0
     40335 WT15     114      MECN     C1       CG331   -0.170000       12.0110           0
     40336 WT15     114      MECN     H11      HGA3     0.090000        1.0080           0
     40337 WT15     114      MECN     H12      HGA3     0.090000        1.0080           0
     40338 WT15     114      MECN     H13      HGA3     0.090000        1.0080           0
     40339 WT15     114      MECN     C2       CG1N1    0.360000       12.0110           0
     40340 WT15     114      MECN     N3       NG1T1   -0.460000       14.0070           0
     40341 WT15     116      MECN     C1       CG331   -0.170000       12.0110           0
     40342 WT15     116      MECN     H11      HGA3     0.090000        1.0080           0
     40343 WT15     116      MECN     H12      HGA3     0.090000        1.0080           0
     40344 WT15     116      MECN     H13      HGA3     0.090000        1.0080           0
     40345 WT15     116      MECN     C2       CG1N1    0.360000       12.0110           0
     40346 WT15     116      MECN     N3       NG1T1   -0.460000       14.0070           0
     40347 WT15     117      MECN     C1       CG331   -0.170000       12.0110           0
     40348 WT15     117      MECN     H11      HGA3     0.090000        1.0080           0
     40349 WT15     117      MECN     H12      HGA3     0.090000        1.0080           0
     40350 WT15     117      MECN     H13      HGA3     0.090000        1.0080           0
     40351 WT15     117      MECN     C2       CG1N1    0.360000       12.0110           0
     40352 WT15     117      MECN     N3       NG1T1   -0.460000       14.0070           0
     40353 WT15     118      MECN     C1       CG331   -0.170000       12.0110           0
     40354 WT15     118      MECN     H11      HGA3     0.090000        1.0080           0
     40355 WT15     118      MECN     H12      HGA3     0.090000        1.0080           0
     40356 WT15     118      MECN     H13      HGA3     0.090000        1.0080           0
     40357 WT15     118      MECN     C2       CG1N1    0.360000       12.0110           0
     40358 WT15     118      MECN     N3       NG1T1   -0.460000       14.0070           0
     40359 WT15     119      MECN     C1       CG331   -0.170000       12.0110           0
     40360 WT15     119      MECN     H11      HGA3     0.090000        1.0080           0
     40361 WT15     119      MECN     H12      HGA3     0.090000        1.0080           0
     40362 WT15     119      MECN     H13      HGA3     0.090000        1.0080           0
     40363 WT15     119      MECN     C2       CG1N1    0.360000       12.0110           0
     40364 WT15     119      MECN     N3       NG1T1   -0.460000       14.0070           0
     40365 WT15     122      MECN     C1       CG331   -0.170000       12.0110           0
     40366 WT15     122      MECN     H11      HGA3     0.090000        1.0080           0
     40367 WT15     122      MECN     H12      HGA3     0.090000        1.0080           0
     40368 WT15     122      MECN     H13      HGA3     0.090000        1.0080           0
     40369 WT15     122      MECN     C2       CG1N1    0.360000       12.0110           0
     40370 WT15     122      MECN     N3       NG1T1   -0.460000       14.0070           0
     40371 WT15     123      MECN     C1       CG331   -0.170000       12.0110           0
     40372 WT15     123      MECN     H11      HGA3     0.090000        1.0080           0
     40373 WT15     123      MECN     H12      HGA3     0.090000        1.0080           0
     40374 WT15     123      MECN     H13      HGA3     0.090000        1.0080           0
     40375 WT15     123      MECN     C2       CG1N1    0.360000       12.0110           0
     40376 WT15     123      MECN     N3       NG1T1   -0.460000       14.0070           0
     40377 WT15     124      MECN     C1       CG331   -0.170000       12.0110           0
     40378 WT15     124      MECN     H11      HGA3     0.090000        1.0080           0
     40379 WT15     124      MECN     H12      HGA3     0.090000        1.0080           0
     40380 WT15     124      MECN     H13      HGA3     0.090000        1.0080           0
     40381 WT15     124      MECN     C2       CG1N1    0.360000       12.0110           0
     40382 WT15     124      MECN     N3       NG1T1   -0.460000       14.0070           0
     40383 WT15     125      MECN     C1       CG331   -0.170000       12.0110           0
     40384 WT15     125      MECN     H11      HGA3     0.090000        1.0080           0
     40385 WT15     125      MECN     H12      HGA3     0.090000        1.0080           0
     40386 WT15     125      MECN     H13      HGA3     0.090000        1.0080           0
     40387 WT15     125      MECN     C2       CG1N1    0.360000       12.0110           0
     40388 WT15     125      MECN     N3       NG1T1   -0.460000       14.0070           0
     40389 WT15     126      MECN     C1       CG331   -0.170000       12.0110           0
     40390 WT15     126      MECN     H11      HGA3     0.090000        1.0080           0
     40391 WT15     126      MECN     H12      HGA3     0.090000        1.0080           0
     40392 WT15     126      MECN     H13      HGA3     0.090000        1.0080           0
     40393 WT15     126      MECN     C2       CG1N1    0.360000       12.0110           0
     40394 WT15     126      MECN     N3       NG1T1   -0.460000       14.0070           0
     40395 WT15     127      MECN     C1       CG331   -0.170000       12.0110           0
     40396 WT15     127      MECN     H11      HGA3     0.090000        1.0080           0
     40397 WT15     127      MECN     H12      HGA3     0.090000        1.0080           0
     40398 WT15     127      MECN     H13      HGA3     0.090000        1.0080           0
     40399 WT15     127      MECN     C2       CG1N1    0.360000       12.0110           0
     40400 WT15     127      MECN     N3       NG1T1   -0.460000       14.0070           0
     40401 WT15     128      MECN     C1       CG331   -0.170000       12.0110           0
     40402 WT15     128      MECN     H11      HGA3     0.090000        1.0080           0
     40403 WT15     128      MECN     H12      HGA3     0.090000        1.0080           0
     40404 WT15     128      MECN     H13      HGA3     0.090000        1.0080           0
     40405 WT15     128      MECN     C2       CG1N1    0.360000       12.0110           0
     40406 WT15     128      MECN     N3       NG1T1   -0.460000       14.0070           0
     40407 WT15     130      MECN     C1       CG331   -0.170000       12.0110           0
     40408 WT15     130      MECN     H11      HGA3     0.090000        1.0080           0
     40409 WT15     130      MECN     H12      HGA3     0.090000        1.0080           0
     40410 WT15     130      MECN     H13      HGA3     0.090000        1.0080           0
     40411 WT15     130      MECN     C2       CG1N1    0.360000       12.0110           0
     40412 WT15     130      MECN     N3       NG1T1   -0.460000       14.0070           0
     40413 WT15     131      MECN     C1       CG331   -0.170000       12.0110           0
     40414 WT15     131      MECN     H11      HGA3     0.090000        1.0080           0
     40415 WT15     131      MECN     H12      HGA3     0.090000        1.0080           0
     40416 WT15     131      MECN     H13      HGA3     0.090000        1.0080           0
     40417 WT15     131      MECN     C2       CG1N1    0.360000       12.0110           0
     40418 WT15     131      MECN     N3       NG1T1   -0.460000       14.0070           0
     40419 WT15     132      MECN     C1       CG331   -0.170000       12.0110           0
     40420 WT15     132      MECN     H11      HGA3     0.090000        1.0080           0
     40421 WT15     132      MECN     H12      HGA3     0.090000        1.0080           0
     40422 WT15     132      MECN     H13      HGA3     0.090000        1.0080           0
     40423 WT15     132      MECN     C2       CG1N1    0.360000       12.0110           0
     40424 WT15     132      MECN     N3       NG1T1   -0.460000       14.0070           0
     40425 WT15     135      MECN     C1       CG331   -0.170000       12.0110           0
     40426 WT15     135      MECN     H11      HGA3     0.090000        1.0080           0
     40427 WT15     135      MECN     H12      HGA3     0.090000        1.0080           0
     40428 WT15     135      MECN     H13      HGA3     0.090000        1.0080           0
     40429 WT15     135      MECN     C2       CG1N1    0.360000       12.0110           0
     40430 WT15     135      MECN     N3       NG1T1   -0.460000       14.0070           0
     40431 WT15     136      MECN     C1       CG331   -0.170000       12.0110           0
     40432 WT15     136      MECN     H11      HGA3     0.090000        1.0080           0
     40433 WT15     136      MECN     H12      HGA3     0.090000        1.0080           0
     40434 WT15     136      MECN     H13      HGA3     0.090000        1.0080           0
     40435 WT15     136      MECN     C2       CG1N1    0.360000       12.0110           0
     40436 WT15     136      MECN     N3       NG1T1   -0.460000       14.0070           0
     40437 WT15     137      MECN     C1       CG331   -0.170000       12.0110           0
     40438 WT15     137      MECN     H11      HGA3     0.090000        1.0080           0
     40439 WT15     137      MECN     H12      HGA3     0.090000        1.0080           0
     40440 WT15     137      MECN     H13      HGA3     0.090000        1.0080           0
     40441 WT15     137      MECN     C2       CG1N1    0.360000       12.0110           0
     40442 WT15     137      MECN     N3       NG1T1   -0.460000       14.0070           0
     40443 WT15     139      MECN     C1       CG331   -0.170000       12.0110           0
     40444 WT15     139      MECN     H11      HGA3     0.090000        1.0080           0
     40445 WT15     139      MECN     H12      HGA3     0.090000        1.0080           0
     40446 WT15     139      MECN     H13      HGA3     0.090000        1.0080           0
     40447 WT15     139      MECN     C2       CG1N1    0.360000       12.0110           0
     40448 WT15     139      MECN     N3       NG1T1   -0.460000       14.0070           0
     40449 WT15     140      MECN     C1       CG331   -0.170000       12.0110           0
     40450 WT15     140      MECN     H11      HGA3     0.090000        1.0080           0
     40451 WT15     140      MECN     H12      HGA3     0.090000        1.0080           0
     40452 WT15     140      MECN     H13      HGA3     0.090000        1.0080           0
     40453 WT15     140      MECN     C2       CG1N1    0.360000       12.0110           0
     40454 WT15     140      MECN     N3       NG1T1   -0.460000       14.0070           0
     40455 WT15     141      MECN     C1       CG331   -0.170000       12.0110           0
     40456 WT15     141      MECN     H11      HGA3     0.090000        1.0080           0
     40457 WT15     141      MECN     H12      HGA3     0.090000        1.0080           0
     40458 WT15     141      MECN     H13      HGA3     0.090000        1.0080           0
     40459 WT15     141      MECN     C2       CG1N1    0.360000       12.0110           0
     40460 WT15     141      MECN     N3       NG1T1   -0.460000       14.0070           0
     40461 WT15     142      MECN     C1       CG331   -0.170000       12.0110           0
     40462 WT15     142      MECN     H11      HGA3     0.090000        1.0080           0
     40463 WT15     142      MECN     H12      HGA3     0.090000        1.0080           0
     40464 WT15     142      MECN     H13      HGA3     0.090000        1.0080           0
     40465 WT15     142      MECN     C2       CG1N1    0.360000       12.0110           0
     40466 WT15     142      MECN     N3       NG1T1   -0.460000       14.0070           0
     40467 WT15     143      MECN     C1       CG331   -0.170000       12.0110           0
     40468 WT15     143      MECN     H11      HGA3     0.090000        1.0080           0
     40469 WT15     143      MECN     H12      HGA3     0.090000        1.0080           0
     40470 WT15     143      MECN     H13      HGA3     0.090000        1.0080           0
     40471 WT15     143      MECN     C2       CG1N1    0.360000       12.0110           0
     40472 WT15     143      MECN     N3       NG1T1   -0.460000       14.0070           0
     40473 WT15     145      MECN     C1       CG331   -0.170000       12.0110           0
     40474 WT15     145      MECN     H11      HGA3     0.090000        1.0080           0
     40475 WT15     145      MECN     H12      HGA3     0.090000        1.0080           0
     40476 WT15     145      MECN     H13      HGA3     0.090000        1.0080           0
     40477 WT15     145      MECN     C2       CG1N1    0.360000       12.0110           0
     40478 WT15     145      MECN     N3       NG1T1   -0.460000       14.0070           0
     40479 WT15     150      MECN     C1       CG331   -0.170000       12.0110           0
     40480 WT15     150      MECN     H11      HGA3     0.090000        1.0080           0
     40481 WT15     150      MECN     H12      HGA3     0.090000        1.0080           0
     40482 WT15     150      MECN     H13      HGA3     0.090000        1.0080           0
     40483 WT15     150      MECN     C2       CG1N1    0.360000       12.0110           0
     40484 WT15     150      MECN     N3       NG1T1   -0.460000       14.0070           0
     40485 WT15     151      MECN     C1       CG331   -0.170000       12.0110           0
     40486 WT15     151      MECN     H11      HGA3     0.090000        1.0080           0
     40487 WT15     151      MECN     H12      HGA3     0.090000        1.0080           0
     40488 WT15     151      MECN     H13      HGA3     0.090000        1.0080           0
     40489 WT15     151      MECN     C2       CG1N1    0.360000       12.0110           0
     40490 WT15     151      MECN     N3       NG1T1   -0.460000       14.0070           0
     40491 WT15     153      MECN     C1       CG331   -0.170000       12.0110           0
     40492 WT15     153      MECN     H11      HGA3     0.090000        1.0080           0
     40493 WT15     153      MECN     H12      HGA3     0.090000        1.0080           0
     40494 WT15     153      MECN     H13      HGA3     0.090000        1.0080           0
     40495 WT15     153      MECN     C2       CG1N1    0.360000       12.0110           0
     40496 WT15     153      MECN     N3       NG1T1   -0.460000       14.0070           0
     40497 WT15     154      MECN     C1       CG331   -0.170000       12.0110           0
     40498 WT15     154      MECN     H11      HGA3     0.090000        1.0080           0
     40499 WT15     154      MECN     H12      HGA3     0.090000        1.0080           0
     40500 WT15     154      MECN     H13      HGA3     0.090000        1.0080           0
     40501 WT15     154      MECN     C2       CG1N1    0.360000       12.0110           0
     40502 WT15     154      MECN     N3       NG1T1   -0.460000       14.0070           0
     40503 WT15     155      MECN     C1       CG331   -0.170000       12.0110           0
     40504 WT15     155      MECN     H11      HGA3     0.090000        1.0080           0
     40505 WT15     155      MECN     H12      HGA3     0.090000        1.0080           0
     40506 WT15     155      MECN     H13      HGA3     0.090000        1.0080           0
     40507 WT15     155      MECN     C2       CG1N1    0.360000       12.0110           0
     40508 WT15     155      MECN     N3       NG1T1   -0.460000       14.0070           0
     40509 WT15     156      MECN     C1       CG331   -0.170000       12.0110           0
     40510 WT15     156      MECN     H11      HGA3     0.090000        1.0080           0
     40511 WT15     156      MECN     H12      HGA3     0.090000        1.0080           0
     40512 WT15     156      MECN     H13      HGA3     0.090000        1.0080           0
     40513 WT15     156      MECN     C2       CG1N1    0.360000       12.0110           0
     40514 WT15     156      MECN     N3       NG1T1   -0.460000       14.0070           0
     40515 WT15     157      MECN     C1       CG331   -0.170000       12.0110           0
     40516 WT15     157      MECN     H11      HGA3     0.090000        1.0080           0
     40517 WT15     157      MECN     H12      HGA3     0.090000        1.0080           0
     40518 WT15     157      MECN     H13      HGA3     0.090000        1.0080           0
     40519 WT15     157      MECN     C2       CG1N1    0.360000       12.0110           0
     40520 WT15     157      MECN     N3       NG1T1   -0.460000       14.0070           0
     40521 WT15     158      MECN     C1       CG331   -0.170000       12.0110           0
     40522 WT15     158      MECN     H11      HGA3     0.090000        1.0080           0
     40523 WT15     158      MECN     H12      HGA3     0.090000        1.0080           0
     40524 WT15     158      MECN     H13      HGA3     0.090000        1.0080           0
     40525 WT15     158      MECN     C2       CG1N1    0.360000       12.0110           0
     40526 WT15     158      MECN     N3       NG1T1   -0.460000       14.0070           0
     40527 WT15     160      MECN     C1       CG331   -0.170000       12.0110           0
     40528 WT15     160      MECN     H11      HGA3     0.090000        1.0080           0
     40529 WT15     160      MECN     H12      HGA3     0.090000        1.0080           0
     40530 WT15     160      MECN     H13      HGA3     0.090000        1.0080           0
     40531 WT15     160      MECN     C2       CG1N1    0.360000       12.0110           0
     40532 WT15     160      MECN     N3       NG1T1   -0.460000       14.0070           0
     40533 WT15     161      MECN     C1       CG331   -0.170000       12.0110           0
     40534 WT15     161      MECN     H11      HGA3     0.090000        1.0080           0
     40535 WT15     161      MECN     H12      HGA3     0.090000        1.0080           0
     40536 WT15     161      MECN     H13      HGA3     0.090000        1.0080           0
     40537 WT15     161      MECN     C2       CG1N1    0.360000       12.0110           0
     40538 WT15     161      MECN     N3       NG1T1   -0.460000       14.0070           0
     40539 WT15     163      MECN     C1       CG331   -0.170000       12.0110           0
     40540 WT15     163      MECN     H11      HGA3     0.090000        1.0080           0
     40541 WT15     163      MECN     H12      HGA3     0.090000        1.0080           0
     40542 WT15     163      MECN     H13      HGA3     0.090000        1.0080           0
     40543 WT15     163      MECN     C2       CG1N1    0.360000       12.0110           0
     40544 WT15     163      MECN     N3       NG1T1   -0.460000       14.0070           0
     40545 WT15     164      MECN     C1       CG331   -0.170000       12.0110           0
     40546 WT15     164      MECN     H11      HGA3     0.090000        1.0080           0
     40547 WT15     164      MECN     H12      HGA3     0.090000        1.0080           0
     40548 WT15     164      MECN     H13      HGA3     0.090000        1.0080           0
     40549 WT15     164      MECN     C2       CG1N1    0.360000       12.0110           0
     40550 WT15     164      MECN     N3       NG1T1   -0.460000       14.0070           0
     40551 WT15     165      MECN     C1       CG331   -0.170000       12.0110           0
     40552 WT15     165      MECN     H11      HGA3     0.090000        1.0080           0
     40553 WT15     165      MECN     H12      HGA3     0.090000        1.0080           0
     40554 WT15     165      MECN     H13      HGA3     0.090000        1.0080           0
     40555 WT15     165      MECN     C2       CG1N1    0.360000       12.0110           0
     40556 WT15     165      MECN     N3       NG1T1   -0.460000       14.0070           0
     40557 WT15     166      MECN     C1       CG331   -0.170000       12.0110           0
     40558 WT15     166      MECN     H11      HGA3     0.090000        1.0080           0
     40559 WT15     166      MECN     H12      HGA3     0.090000        1.0080           0
     40560 WT15     166      MECN     H13      HGA3     0.090000        1.0080           0
     40561 WT15     166      MECN     C2       CG1N1    0.360000       12.0110           0
     40562 WT15     166      MECN     N3       NG1T1   -0.460000       14.0070           0
     40563 WT15     167      MECN     C1       CG331   -0.170000       12.0110           0
     40564 WT15     167      MECN     H11      HGA3     0.090000        1.0080           0
     40565 WT15     167      MECN     H12      HGA3     0.090000        1.0080           0
     40566 WT15     167      MECN     H13      HGA3     0.090000        1.0080           0
     40567 WT15     167      MECN     C2       CG1N1    0.360000       12.0110           0
     40568 WT15     167      MECN     N3       NG1T1   -0.460000       14.0070           0
     40569 WT15     168      MECN     C1       CG331   -0.170000       12.0110           0
     40570 WT15     168      MECN     H11      HGA3     0.090000        1.0080           0
     40571 WT15     168      MECN     H12      HGA3     0.090000        1.0080           0
     40572 WT15     168      MECN     H13      HGA3     0.090000        1.0080           0
     40573 WT15     168      MECN     C2       CG1N1    0.360000       12.0110           0
     40574 WT15     168      MECN     N3       NG1T1   -0.460000       14.0070           0
     40575 WT15     169      MECN     C1       CG331   -0.170000       12.0110           0
     40576 WT15     169      MECN     H11      HGA3     0.090000        1.0080           0
     40577 WT15     169      MECN     H12      HGA3     0.090000        1.0080           0
     40578 WT15     169      MECN     H13      HGA3     0.090000        1.0080           0
     40579 WT15     169      MECN     C2       CG1N1    0.360000       12.0110           0
     40580 WT15     169      MECN     N3       NG1T1   -0.460000       14.0070           0
     40581 WT15     170      MECN     C1       CG331   -0.170000       12.0110           0
     40582 WT15     170      MECN     H11      HGA3     0.090000        1.0080           0
     40583 WT15     170      MECN     H12      HGA3     0.090000        1.0080           0
     40584 WT15     170      MECN     H13      HGA3     0.090000        1.0080           0
     40585 WT15     170      MECN     C2       CG1N1    0.360000       12.0110           0
     40586 WT15     170      MECN     N3       NG1T1   -0.460000       14.0070           0
     40587 WT15     172      MECN     C1       CG331   -0.170000       12.0110           0
     40588 WT15     172      MECN     H11      HGA3     0.090000        1.0080           0
     40589 WT15     172      MECN     H12      HGA3     0.090000        1.0080           0
     40590 WT15     172      MECN     H13      HGA3     0.090000        1.0080           0
     40591 WT15     172      MECN     C2       CG1N1    0.360000       12.0110           0
     40592 WT15     172      MECN     N3       NG1T1   -0.460000       14.0070           0
     40593 WT15     174      MECN     C1       CG331   -0.170000       12.0110           0
     40594 WT15     174      MECN     H11      HGA3     0.090000        1.0080           0
     40595 WT15     174      MECN     H12      HGA3     0.090000        1.0080           0
     40596 WT15     174      MECN     H13      HGA3     0.090000        1.0080           0
     40597 WT15     174      MECN     C2       CG1N1    0.360000       12.0110           0
     40598 WT15     174      MECN     N3       NG1T1   -0.460000       14.0070           0
     40599 WT15     175      MECN     C1       CG331   -0.170000       12.0110           0
     40600 WT15     175      MECN     H11      HGA3     0.090000        1.0080           0
     40601 WT15     175      MECN     H12      HGA3     0.090000        1.0080           0
     40602 WT15     175      MECN     H13      HGA3     0.090000        1.0080           0
     40603 WT15     175      MECN     C2       CG1N1    0.360000       12.0110           0
     40604 WT15     175      MECN     N3       NG1T1   -0.460000       14.0070           0
     40605 WT15     176      MECN     C1       CG331   -0.170000       12.0110           0
     40606 WT15     176      MECN     H11      HGA3     0.090000        1.0080           0
     40607 WT15     176      MECN     H12      HGA3     0.090000        1.0080           0
     40608 WT15     176      MECN     H13      HGA3     0.090000        1.0080           0
     40609 WT15     176      MECN     C2       CG1N1    0.360000       12.0110           0
     40610 WT15     176      MECN     N3       NG1T1   -0.460000       14.0070           0
     40611 WT15     177      MECN     C1       CG331   -0.170000       12.0110           0
     40612 WT15     177      MECN     H11      HGA3     0.090000        1.0080           0
     40613 WT15     177      MECN     H12      HGA3     0.090000        1.0080           0
     40614 WT15     177      MECN     H13      HGA3     0.090000        1.0080           0
     40615 WT15     177      MECN     C2       CG1N1    0.360000       12.0110           0
     40616 WT15     177      MECN     N3       NG1T1   -0.460000       14.0070           0
     40617 WT15     178      MECN     C1       CG331   -0.170000       12.0110           0
     40618 WT15     178      MECN     H11      HGA3     0.090000        1.0080           0
     40619 WT15     178      MECN     H12      HGA3     0.090000        1.0080           0
     40620 WT15     178      MECN     H13      HGA3     0.090000        1.0080           0
     40621 WT15     178      MECN     C2       CG1N1    0.360000       12.0110           0
     40622 WT15     178      MECN     N3       NG1T1   -0.460000       14.0070           0
     40623 WT15     180      MECN     C1       CG331   -0.170000       12.0110           0
     40624 WT15     180      MECN     H11      HGA3     0.090000        1.0080           0
     40625 WT15     180      MECN     H12      HGA3     0.090000        1.0080           0
     40626 WT15     180      MECN     H13      HGA3     0.090000        1.0080           0
     40627 WT15     180      MECN     C2       CG1N1    0.360000       12.0110           0
     40628 WT15     180      MECN     N3       NG1T1   -0.460000       14.0070           0
     40629 WT15     181      MECN     C1       CG331   -0.170000       12.0110           0
     40630 WT15     181      MECN     H11      HGA3     0.090000        1.0080           0
     40631 WT15     181      MECN     H12      HGA3     0.090000        1.0080           0
     40632 WT15     181      MECN     H13      HGA3     0.090000        1.0080           0
     40633 WT15     181      MECN     C2       CG1N1    0.360000       12.0110           0
     40634 WT15     181      MECN     N3       NG1T1   -0.460000       14.0070           0
     40635 WT15     182      MECN     C1       CG331   -0.170000       12.0110           0
     40636 WT15     182      MECN     H11      HGA3     0.090000        1.0080           0
     40637 WT15     182      MECN     H12      HGA3     0.090000        1.0080           0
     40638 WT15     182      MECN     H13      HGA3     0.090000        1.0080           0
     40639 WT15     182      MECN     C2       CG1N1    0.360000       12.0110           0
     40640 WT15     182      MECN     N3       NG1T1   -0.460000       14.0070           0
     40641 WT15     183      MECN     C1       CG331   -0.170000       12.0110           0
     40642 WT15     183      MECN     H11      HGA3     0.090000        1.0080           0
     40643 WT15     183      MECN     H12      HGA3     0.090000        1.0080           0
     40644 WT15     183      MECN     H13      HGA3     0.090000        1.0080           0
     40645 WT15     183      MECN     C2       CG1N1    0.360000       12.0110           0
     40646 WT15     183      MECN     N3       NG1T1   -0.460000       14.0070           0
     40647 WT15     184      MECN     C1       CG331   -0.170000       12.0110           0
     40648 WT15     184      MECN     H11      HGA3     0.090000        1.0080           0
     40649 WT15     184      MECN     H12      HGA3     0.090000        1.0080           0
     40650 WT15     184      MECN     H13      HGA3     0.090000        1.0080           0
     40651 WT15     184      MECN     C2       CG1N1    0.360000       12.0110           0
     40652 WT15     184      MECN     N3       NG1T1   -0.460000       14.0070           0
     40653 WT15     185      MECN     C1       CG331   -0.170000       12.0110           0
     40654 WT15     185      MECN     H11      HGA3     0.090000        1.0080           0
     40655 WT15     185      MECN     H12      HGA3     0.090000        1.0080           0
     40656 WT15     185      MECN     H13      HGA3     0.090000        1.0080           0
     40657 WT15     185      MECN     C2       CG1N1    0.360000       12.0110           0
     40658 WT15     185      MECN     N3       NG1T1   -0.460000       14.0070           0
     40659 WT15     186      MECN     C1       CG331   -0.170000       12.0110           0
     40660 WT15     186      MECN     H11      HGA3     0.090000        1.0080           0
     40661 WT15     186      MECN     H12      HGA3     0.090000        1.0080           0
     40662 WT15     186      MECN     H13      HGA3     0.090000        1.0080           0
     40663 WT15     186      MECN     C2       CG1N1    0.360000       12.0110           0
     40664 WT15     186      MECN     N3       NG1T1   -0.460000       14.0070           0
     40665 WT15     187      MECN     C1       CG331   -0.170000       12.0110           0
     40666 WT15     187      MECN     H11      HGA3     0.090000        1.0080           0
     40667 WT15     187      MECN     H12      HGA3     0.090000        1.0080           0
     40668 WT15     187      MECN     H13      HGA3     0.090000        1.0080           0
     40669 WT15     187      MECN     C2       CG1N1    0.360000       12.0110           0
     40670 WT15     187      MECN     N3       NG1T1   -0.460000       14.0070           0
     40671 WT15     188      MECN     C1       CG331   -0.170000       12.0110           0
     40672 WT15     188      MECN     H11      HGA3     0.090000        1.0080           0
     40673 WT15     188      MECN     H12      HGA3     0.090000        1.0080           0
     40674 WT15     188      MECN     H13      HGA3     0.090000        1.0080           0
     40675 WT15     188      MECN     C2       CG1N1    0.360000       12.0110           0
     40676 WT15     188      MECN     N3       NG1T1   -0.460000       14.0070           0
     40677 WT15     190      MECN     C1       CG331   -0.170000       12.0110           0
     40678 WT15     190      MECN     H11      HGA3     0.090000        1.0080           0
     40679 WT15     190      MECN     H12      HGA3     0.090000        1.0080           0
     40680 WT15     190      MECN     H13      HGA3     0.090000        1.0080           0
     40681 WT15     190      MECN     C2       CG1N1    0.360000       12.0110           0
     40682 WT15     190      MECN     N3       NG1T1   -0.460000       14.0070           0
     40683 WT15     192      MECN     C1       CG331   -0.170000       12.0110           0
     40684 WT15     192      MECN     H11      HGA3     0.090000        1.0080           0
     40685 WT15     192      MECN     H12      HGA3     0.090000        1.0080           0
     40686 WT15     192      MECN     H13      HGA3     0.090000        1.0080           0
     40687 WT15     192      MECN     C2       CG1N1    0.360000       12.0110           0
     40688 WT15     192      MECN     N3       NG1T1   -0.460000       14.0070           0
     40689 WT15     193      MECN     C1       CG331   -0.170000       12.0110           0
     40690 WT15     193      MECN     H11      HGA3     0.090000        1.0080           0
     40691 WT15     193      MECN     H12      HGA3     0.090000        1.0080           0
     40692 WT15     193      MECN     H13      HGA3     0.090000        1.0080           0
     40693 WT15     193      MECN     C2       CG1N1    0.360000       12.0110           0
     40694 WT15     193      MECN     N3       NG1T1   -0.460000       14.0070           0
     40695 WT15     195      MECN     C1       CG331   -0.170000       12.0110           0
     40696 WT15     195      MECN     H11      HGA3     0.090000        1.0080           0
     40697 WT15     195      MECN     H12      HGA3     0.090000        1.0080           0
     40698 WT15     195      MECN     H13      HGA3     0.090000        1.0080           0
     40699 WT15     195      MECN     C2       CG1N1    0.360000       12.0110           0
     40700 WT15     195      MECN     N3       NG1T1   -0.460000       14.0070           0
     40701 WT15     196      MECN     C1       CG331   -0.170000       12.0110           0
     40702 WT15     196      MECN     H11      HGA3     0.090000        1.0080           0
     40703 WT15     196      MECN     H12      HGA3     0.090000        1.0080           0
     40704 WT15     196      MECN     H13      HGA3     0.090000        1.0080           0
     40705 WT15     196      MECN     C2       CG1N1    0.360000       12.0110           0
     40706 WT15     196      MECN     N3       NG1T1   -0.460000       14.0070           0
     40707 WT15     198      MECN     C1       CG331   -0.170000       12.0110           0
     40708 WT15     198      MECN     H11      HGA3     0.090000        1.0080           0
     40709 WT15     198      MECN     H12      HGA3     0.090000        1.0080           0
     40710 WT15     198      MECN     H13      HGA3     0.090000        1.0080           0
     40711 WT15     198      MECN     C2       CG1N1    0.360000       12.0110           0
     40712 WT15     198      MECN     N3       NG1T1   -0.460000       14.0070           0
     40713 WT15     199      MECN     C1       CG331   -0.170000       12.0110           0
     40714 WT15     199      MECN     H11      HGA3     0.090000        1.0080           0
     40715 WT15     199      MECN     H12      HGA3     0.090000        1.0080           0
     40716 WT15     199      MECN     H13      HGA3     0.090000        1.0080           0
     40717 WT15     199      MECN     C2       CG1N1    0.360000       12.0110           0
     40718 WT15     199      MECN     N3       NG1T1   -0.460000       14.0070           0
     40719 WT15     201      MECN     C1       CG331   -0.170000       12.0110           0
     40720 WT15     201      MECN     H11      HGA3     0.090000        1.0080           0
     40721 WT15     201      MECN     H12      HGA3     0.090000        1.0080           0
     40722 WT15     201      MECN     H13      HGA3     0.090000        1.0080           0
     40723 WT15     201      MECN     C2       CG1N1    0.360000       12.0110           0
     40724 WT15     201      MECN     N3       NG1T1   -0.460000       14.0070           0
     40725 WT15     203      MECN     C1       CG331   -0.170000       12.0110           0
     40726 WT15     203      MECN     H11      HGA3     0.090000        1.0080           0
     40727 WT15     203      MECN     H12      HGA3     0.090000        1.0080           0
     40728 WT15     203      MECN     H13      HGA3     0.090000        1.0080           0
     40729 WT15     203      MECN     C2       CG1N1    0.360000       12.0110           0
     40730 WT15     203      MECN     N3       NG1T1   -0.460000       14.0070           0
     40731 WT15     205      MECN     C1       CG331   -0.170000       12.0110           0
     40732 WT15     205      MECN     H11      HGA3     0.090000        1.0080           0
     40733 WT15     205      MECN     H12      HGA3     0.090000        1.0080           0
     40734 WT15     205      MECN     H13      HGA3     0.090000        1.0080           0
     40735 WT15     205      MECN     C2       CG1N1    0.360000       12.0110           0
     40736 WT15     205      MECN     N3       NG1T1   -0.460000       14.0070           0
     40737 WT15     206      MECN     C1       CG331   -0.170000       12.0110           0
     40738 WT15     206      MECN     H11      HGA3     0.090000        1.0080           0
     40739 WT15     206      MECN     H12      HGA3     0.090000        1.0080           0
     40740 WT15     206      MECN     H13      HGA3     0.090000        1.0080           0
     40741 WT15     206      MECN     C2       CG1N1    0.360000       12.0110           0
     40742 WT15     206      MECN     N3       NG1T1   -0.460000       14.0070           0
     40743 WT15     210      MECN     C1       CG331   -0.170000       12.0110           0
     40744 WT15     210      MECN     H11      HGA3     0.090000        1.0080           0
     40745 WT15     210      MECN     H12      HGA3     0.090000        1.0080           0
     40746 WT15     210      MECN     H13      HGA3     0.090000        1.0080           0
     40747 WT15     210      MECN     C2       CG1N1    0.360000       12.0110           0
     40748 WT15     210      MECN     N3       NG1T1   -0.460000       14.0070           0
     40749 WT15     211      MECN     C1       CG331   -0.170000       12.0110           0
     40750 WT15     211      MECN     H11      HGA3     0.090000        1.0080           0
     40751 WT15     211      MECN     H12      HGA3     0.090000        1.0080           0
     40752 WT15     211      MECN     H13      HGA3     0.090000        1.0080           0
     40753 WT15     211      MECN     C2       CG1N1    0.360000       12.0110           0
     40754 WT15     211      MECN     N3       NG1T1   -0.460000       14.0070           0
     40755 WT15     212      MECN     C1       CG331   -0.170000       12.0110           0
     40756 WT15     212      MECN     H11      HGA3     0.090000        1.0080           0
     40757 WT15     212      MECN     H12      HGA3     0.090000        1.0080           0
     40758 WT15     212      MECN     H13      HGA3     0.090000        1.0080           0
     40759 WT15     212      MECN     C2       CG1N1    0.360000       12.0110           0
     40760 WT15     212      MECN     N3       NG1T1   -0.460000       14.0070           0
     40761 WT15     213      MECN     C1       CG331   -0.170000       12.0110           0
     40762 WT15     213      MECN     H11      HGA3     0.090000        1.0080           0
     40763 WT15     213      MECN     H12      HGA3     0.090000        1.0080           0
     40764 WT15     213      MECN     H13      HGA3     0.090000        1.0080           0
     40765 WT15     213      MECN     C2       CG1N1    0.360000       12.0110           0
     40766 WT15     213      MECN     N3       NG1T1   -0.460000       14.0070           0
     40767 WT15     214      MECN     C1       CG331   -0.170000       12.0110           0
     40768 WT15     214      MECN     H11      HGA3     0.090000        1.0080           0
     40769 WT15     214      MECN     H12      HGA3     0.090000        1.0080           0
     40770 WT15     214      MECN     H13      HGA3     0.090000        1.0080           0
     40771 WT15     214      MECN     C2       CG1N1    0.360000       12.0110           0
     40772 WT15     214      MECN     N3       NG1T1   -0.460000       14.0070           0
     40773 WT15     217      MECN     C1       CG331   -0.170000       12.0110           0
     40774 WT15     217      MECN     H11      HGA3     0.090000        1.0080           0
     40775 WT15     217      MECN     H12      HGA3     0.090000        1.0080           0
     40776 WT15     217      MECN     H13      HGA3     0.090000        1.0080           0
     40777 WT15     217      MECN     C2       CG1N1    0.360000       12.0110           0
     40778 WT15     217      MECN     N3       NG1T1   -0.460000       14.0070           0
     40779 WT15     218      MECN     C1       CG331   -0.170000       12.0110           0
     40780 WT15     218      MECN     H11      HGA3     0.090000        1.0080           0
     40781 WT15     218      MECN     H12      HGA3     0.090000        1.0080           0
     40782 WT15     218      MECN     H13      HGA3     0.090000        1.0080           0
     40783 WT15     218      MECN     C2       CG1N1    0.360000       12.0110           0
     40784 WT15     218      MECN     N3       NG1T1   -0.460000       14.0070           0
     40785 WT15     220      MECN     C1       CG331   -0.170000       12.0110           0
     40786 WT15     220      MECN     H11      HGA3     0.090000        1.0080           0
     40787 WT15     220      MECN     H12      HGA3     0.090000        1.0080           0
     40788 WT15     220      MECN     H13      HGA3     0.090000        1.0080           0
     40789 WT15     220      MECN     C2       CG1N1    0.360000       12.0110           0
     40790 WT15     220      MECN     N3       NG1T1   -0.460000       14.0070           0
     40791 WT15     222      MECN     C1       CG331   -0.170000       12.0110           0
     40792 WT15     222      MECN     H11      HGA3     0.090000        1.0080           0
     40793 WT15     222      MECN     H12      HGA3     0.090000        1.0080           0
     40794 WT15     222      MECN     H13      HGA3     0.090000        1.0080           0
     40795 WT15     222      MECN     C2       CG1N1    0.360000       12.0110           0
     40796 WT15     222      MECN     N3       NG1T1   -0.460000       14.0070           0
     40797 WT15     223      MECN     C1       CG331   -0.170000       12.0110           0
     40798 WT15     223      MECN     H11      HGA3     0.090000        1.0080           0
     40799 WT15     223      MECN     H12      HGA3     0.090000        1.0080           0
     40800 WT15     223      MECN     H13      HGA3     0.090000        1.0080           0
     40801 WT15     223      MECN     C2       CG1N1    0.360000       12.0110           0
     40802 WT15     223      MECN     N3       NG1T1   -0.460000       14.0070           0
     40803 WT15     224      MECN     C1       CG331   -0.170000       12.0110           0
     40804 WT15     224      MECN     H11      HGA3     0.090000        1.0080           0
     40805 WT15     224      MECN     H12      HGA3     0.090000        1.0080           0
     40806 WT15     224      MECN     H13      HGA3     0.090000        1.0080           0
     40807 WT15     224      MECN     C2       CG1N1    0.360000       12.0110           0
     40808 WT15     224      MECN     N3       NG1T1   -0.460000       14.0070           0
     40809 WT15     226      MECN     C1       CG331   -0.170000       12.0110           0
     40810 WT15     226      MECN     H11      HGA3     0.090000        1.0080           0
     40811 WT15     226      MECN     H12      HGA3     0.090000        1.0080           0
     40812 WT15     226      MECN     H13      HGA3     0.090000        1.0080           0
     40813 WT15     226      MECN     C2       CG1N1    0.360000       12.0110           0
     40814 WT15     226      MECN     N3       NG1T1   -0.460000       14.0070           0
     40815 WT15     227      MECN     C1       CG331   -0.170000       12.0110           0
     40816 WT15     227      MECN     H11      HGA3     0.090000        1.0080           0
     40817 WT15     227      MECN     H12      HGA3     0.090000        1.0080           0
     40818 WT15     227      MECN     H13      HGA3     0.090000        1.0080           0
     40819 WT15     227      MECN     C2       CG1N1    0.360000       12.0110           0
     40820 WT15     227      MECN     N3       NG1T1   -0.460000       14.0070           0
     40821 WT15     228      MECN     C1       CG331   -0.170000       12.0110           0
     40822 WT15     228      MECN     H11      HGA3     0.090000        1.0080           0
     40823 WT15     228      MECN     H12      HGA3     0.090000        1.0080           0
     40824 WT15     228      MECN     H13      HGA3     0.090000        1.0080           0
     40825 WT15     228      MECN     C2       CG1N1    0.360000       12.0110           0
     40826 WT15     228      MECN     N3       NG1T1   -0.460000       14.0070           0
     40827 WT15     229      MECN     C1       CG331   -0.170000       12.0110           0
     40828 WT15     229      MECN     H11      HGA3     0.090000        1.0080           0
     40829 WT15     229      MECN     H12      HGA3     0.090000        1.0080           0
     40830 WT15     229      MECN     H13      HGA3     0.090000        1.0080           0
     40831 WT15     229      MECN     C2       CG1N1    0.360000       12.0110           0
     40832 WT15     229      MECN     N3       NG1T1   -0.460000       14.0070           0
     40833 WT15     231      MECN     C1       CG331   -0.170000       12.0110           0
     40834 WT15     231      MECN     H11      HGA3     0.090000        1.0080           0
     40835 WT15     231      MECN     H12      HGA3     0.090000        1.0080           0
     40836 WT15     231      MECN     H13      HGA3     0.090000        1.0080           0
     40837 WT15     231      MECN     C2       CG1N1    0.360000       12.0110           0
     40838 WT15     231      MECN     N3       NG1T1   -0.460000       14.0070           0
     40839 WT15     232      MECN     C1       CG331   -0.170000       12.0110           0
     40840 WT15     232      MECN     H11      HGA3     0.090000        1.0080           0
     40841 WT15     232      MECN     H12      HGA3     0.090000        1.0080           0
     40842 WT15     232      MECN     H13      HGA3     0.090000        1.0080           0
     40843 WT15     232      MECN     C2       CG1N1    0.360000       12.0110           0
     40844 WT15     232      MECN     N3       NG1T1   -0.460000       14.0070           0
     40845 WT15     233      MECN     C1       CG331   -0.170000       12.0110           0
     40846 WT15     233      MECN     H11      HGA3     0.090000        1.0080           0
     40847 WT15     233      MECN     H12      HGA3     0.090000        1.0080           0
     40848 WT15     233      MECN     H13      HGA3     0.090000        1.0080           0
     40849 WT15     233      MECN     C2       CG1N1    0.360000       12.0110           0
     40850 WT15     233      MECN     N3       NG1T1   -0.460000       14.0070           0
     40851 WT15     234      MECN     C1       CG331   -0.170000       12.0110           0
     40852 WT15     234      MECN     H11      HGA3     0.090000        1.0080           0
     40853 WT15     234      MECN     H12      HGA3     0.090000        1.0080           0
     40854 WT15     234      MECN     H13      HGA3     0.090000        1.0080           0
     40855 WT15     234      MECN     C2       CG1N1    0.360000       12.0110           0
     40856 WT15     234      MECN     N3       NG1T1   -0.460000       14.0070           0
     40857 WT15     235      MECN     C1       CG331   -0.170000       12.0110           0
     40858 WT15     235      MECN     H11      HGA3     0.090000        1.0080           0
     40859 WT15     235      MECN     H12      HGA3     0.090000        1.0080           0
     40860 WT15     235      MECN     H13      HGA3     0.090000        1.0080           0
     40861 WT15     235      MECN     C2       CG1N1    0.360000       12.0110           0
     40862 WT15     235      MECN     N3       NG1T1   -0.460000       14.0070           0
     40863 WT15     236      MECN     C1       CG331   -0.170000       12.0110           0
     40864 WT15     236      MECN     H11      HGA3     0.090000        1.0080           0
     40865 WT15     236      MECN     H12      HGA3     0.090000        1.0080           0
     40866 WT15     236      MECN     H13      HGA3     0.090000        1.0080           0
     40867 WT15     236      MECN     C2       CG1N1    0.360000       12.0110           0
     40868 WT15     236      MECN     N3       NG1T1   -0.460000       14.0070           0
     40869 WT15     237      MECN     C1       CG331   -0.170000       12.0110           0
     40870 WT15     237      MECN     H11      HGA3     0.090000        1.0080           0
     40871 WT15     237      MECN     H12      HGA3     0.090000        1.0080           0
     40872 WT15     237      MECN     H13      HGA3     0.090000        1.0080           0
     40873 WT15     237      MECN     C2       CG1N1    0.360000       12.0110           0
     40874 WT15     237      MECN     N3       NG1T1   -0.460000       14.0070           0
     40875 WT15     238      MECN     C1       CG331   -0.170000       12.0110           0
     40876 WT15     238      MECN     H11      HGA3     0.090000        1.0080           0
     40877 WT15     238      MECN     H12      HGA3     0.090000        1.0080           0
     40878 WT15     238      MECN     H13      HGA3     0.090000        1.0080           0
     40879 WT15     238      MECN     C2       CG1N1    0.360000       12.0110           0
     40880 WT15     238      MECN     N3       NG1T1   -0.460000       14.0070           0
     40881 WT15     239      MECN     C1       CG331   -0.170000       12.0110           0
     40882 WT15     239      MECN     H11      HGA3     0.090000        1.0080           0
     40883 WT15     239      MECN     H12      HGA3     0.090000        1.0080           0
     40884 WT15     239      MECN     H13      HGA3     0.090000        1.0080           0
     40885 WT15     239      MECN     C2       CG1N1    0.360000       12.0110           0
     40886 WT15     239      MECN     N3       NG1T1   -0.460000       14.0070           0
     40887 WT15     240      MECN     C1       CG331   -0.170000       12.0110           0
     40888 WT15     240      MECN     H11      HGA3     0.090000        1.0080           0
     40889 WT15     240      MECN     H12      HGA3     0.090000        1.0080           0
     40890 WT15     240      MECN     H13      HGA3     0.090000        1.0080           0
     40891 WT15     240      MECN     C2       CG1N1    0.360000       12.0110           0
     40892 WT15     240      MECN     N3       NG1T1   -0.460000       14.0070           0
     40893 WT15     242      MECN     C1       CG331   -0.170000       12.0110           0
     40894 WT15     242      MECN     H11      HGA3     0.090000        1.0080           0
     40895 WT15     242      MECN     H12      HGA3     0.090000        1.0080           0
     40896 WT15     242      MECN     H13      HGA3     0.090000        1.0080           0
     40897 WT15     242      MECN     C2       CG1N1    0.360000       12.0110           0
     40898 WT15     242      MECN     N3       NG1T1   -0.460000       14.0070           0
     40899 WT15     243      MECN     C1       CG331   -0.170000       12.0110           0
     40900 WT15     243      MECN     H11      HGA3     0.090000        1.0080           0
     40901 WT15     243      MECN     H12      HGA3     0.090000        1.0080           0
     40902 WT15     243      MECN     H13      HGA3     0.090000        1.0080           0
     40903 WT15     243      MECN     C2       CG1N1    0.360000       12.0110           0
     40904 WT15     243      MECN     N3       NG1T1   -0.460000       14.0070           0
     40905 WT15     244      MECN     C1       CG331   -0.170000       12.0110           0
     40906 WT15     244      MECN     H11      HGA3     0.090000        1.0080           0
     40907 WT15     244      MECN     H12      HGA3     0.090000        1.0080           0
     40908 WT15     244      MECN     H13      HGA3     0.090000        1.0080           0
     40909 WT15     244      MECN     C2       CG1N1    0.360000       12.0110           0
     40910 WT15     244      MECN     N3       NG1T1   -0.460000       14.0070           0
     40911 WT15     246      MECN     C1       CG331   -0.170000       12.0110           0
     40912 WT15     246      MECN     H11      HGA3     0.090000        1.0080           0
     40913 WT15     246      MECN     H12      HGA3     0.090000        1.0080           0
     40914 WT15     246      MECN     H13      HGA3     0.090000        1.0080           0
     40915 WT15     246      MECN     C2       CG1N1    0.360000       12.0110           0
     40916 WT15     246      MECN     N3       NG1T1   -0.460000       14.0070           0
     40917 WT15     249      MECN     C1       CG331   -0.170000       12.0110           0
     40918 WT15     249      MECN     H11      HGA3     0.090000        1.0080           0
     40919 WT15     249      MECN     H12      HGA3     0.090000        1.0080           0
     40920 WT15     249      MECN     H13      HGA3     0.090000        1.0080           0
     40921 WT15     249      MECN     C2       CG1N1    0.360000       12.0110           0
     40922 WT15     249      MECN     N3       NG1T1   -0.460000       14.0070           0
     40923 WT15     250      MECN     C1       CG331   -0.170000       12.0110           0
     40924 WT15     250      MECN     H11      HGA3     0.090000        1.0080           0
     40925 WT15     250      MECN     H12      HGA3     0.090000        1.0080           0
     40926 WT15     250      MECN     H13      HGA3     0.090000        1.0080           0
     40927 WT15     250      MECN     C2       CG1N1    0.360000       12.0110           0
     40928 WT15     250      MECN     N3       NG1T1   -0.460000       14.0070           0
     40929 WT15     251      MECN     C1       CG331   -0.170000       12.0110           0
     40930 WT15     251      MECN     H11      HGA3     0.090000        1.0080           0
     40931 WT15     251      MECN     H12      HGA3     0.090000        1.0080           0
     40932 WT15     251      MECN     H13      HGA3     0.090000        1.0080           0
     40933 WT15     251      MECN     C2       CG1N1    0.360000       12.0110           0
     40934 WT15     251      MECN     N3       NG1T1   -0.460000       14.0070           0
     40935 WT15     252      MECN     C1       CG331   -0.170000       12.0110           0
     40936 WT15     252      MECN     H11      HGA3     0.090000        1.0080           0
     40937 WT15     252      MECN     H12      HGA3     0.090000        1.0080           0
     40938 WT15     252      MECN     H13      HGA3     0.090000        1.0080           0
     40939 WT15     252      MECN     C2       CG1N1    0.360000       12.0110           0
     40940 WT15     252      MECN     N3       NG1T1   -0.460000       14.0070           0
     40941 WT15     254      MECN     C1       CG331   -0.170000       12.0110           0
     40942 WT15     254      MECN     H11      HGA3     0.090000        1.0080           0
     40943 WT15     254      MECN     H12      HGA3     0.090000        1.0080           0
     40944 WT15     254      MECN     H13      HGA3     0.090000        1.0080           0
     40945 WT15     254      MECN     C2       CG1N1    0.360000       12.0110           0
     40946 WT15     254      MECN     N3       NG1T1   -0.460000       14.0070           0
     40947 WT15     255      MECN     C1       CG331   -0.170000       12.0110           0
     40948 WT15     255      MECN     H11      HGA3     0.090000        1.0080           0
     40949 WT15     255      MECN     H12      HGA3     0.090000        1.0080           0
     40950 WT15     255      MECN     H13      HGA3     0.090000        1.0080           0
     40951 WT15     255      MECN     C2       CG1N1    0.360000       12.0110           0
     40952 WT15     255      MECN     N3       NG1T1   -0.460000       14.0070           0
     40953 WT15     257      MECN     C1       CG331   -0.170000       12.0110           0
     40954 WT15     257      MECN     H11      HGA3     0.090000        1.0080           0
     40955 WT15     257      MECN     H12      HGA3     0.090000        1.0080           0
     40956 WT15     257      MECN     H13      HGA3     0.090000        1.0080           0
     40957 WT15     257      MECN     C2       CG1N1    0.360000       12.0110           0
     40958 WT15     257      MECN     N3       NG1T1   -0.460000       14.0070           0
     40959 WT15     258      MECN     C1       CG331   -0.170000       12.0110           0
     40960 WT15     258      MECN     H11      HGA3     0.090000        1.0080           0
     40961 WT15     258      MECN     H12      HGA3     0.090000        1.0080           0
     40962 WT15     258      MECN     H13      HGA3     0.090000        1.0080           0
     40963 WT15     258      MECN     C2       CG1N1    0.360000       12.0110           0
     40964 WT15     258      MECN     N3       NG1T1   -0.460000       14.0070           0
     40965 WT15     259      MECN     C1       CG331   -0.170000       12.0110           0
     40966 WT15     259      MECN     H11      HGA3     0.090000        1.0080           0
     40967 WT15     259      MECN     H12      HGA3     0.090000        1.0080           0
     40968 WT15     259      MECN     H13      HGA3     0.090000        1.0080           0
     40969 WT15     259      MECN     C2       CG1N1    0.360000       12.0110           0
     40970 WT15     259      MECN     N3       NG1T1   -0.460000       14.0070           0
     40971 WT15     261      MECN     C1       CG331   -0.170000       12.0110           0
     40972 WT15     261      MECN     H11      HGA3     0.090000        1.0080           0
     40973 WT15     261      MECN     H12      HGA3     0.090000        1.0080           0
     40974 WT15     261      MECN     H13      HGA3     0.090000        1.0080           0
     40975 WT15     261      MECN     C2       CG1N1    0.360000       12.0110           0
     40976 WT15     261      MECN     N3       NG1T1   -0.460000       14.0070           0
     40977 WT15     262      MECN     C1       CG331   -0.170000       12.0110           0
     40978 WT15     262      MECN     H11      HGA3     0.090000        1.0080           0
     40979 WT15     262      MECN     H12      HGA3     0.090000        1.0080           0
     40980 WT15     262      MECN     H13      HGA3     0.090000        1.0080           0
     40981 WT15     262      MECN     C2       CG1N1    0.360000       12.0110           0
     40982 WT15     262      MECN     N3       NG1T1   -0.460000       14.0070           0
     40983 WT15     263      MECN     C1       CG331   -0.170000       12.0110           0
     40984 WT15     263      MECN     H11      HGA3     0.090000        1.0080           0
     40985 WT15     263      MECN     H12      HGA3     0.090000        1.0080           0
     40986 WT15     263      MECN     H13      HGA3     0.090000        1.0080           0
     40987 WT15     263      MECN     C2       CG1N1    0.360000       12.0110           0
     40988 WT15     263      MECN     N3       NG1T1   -0.460000       14.0070           0
     40989 WT15     264      MECN     C1       CG331   -0.170000       12.0110           0
     40990 WT15     264      MECN     H11      HGA3     0.090000        1.0080           0
     40991 WT15     264      MECN     H12      HGA3     0.090000        1.0080           0
     40992 WT15     264      MECN     H13      HGA3     0.090000        1.0080           0
     40993 WT15     264      MECN     C2       CG1N1    0.360000       12.0110           0
     40994 WT15     264      MECN     N3       NG1T1   -0.460000       14.0070           0
     40995 WT15     265      MECN     C1       CG331   -0.170000       12.0110           0
     40996 WT15     265      MECN     H11      HGA3     0.090000        1.0080           0
     40997 WT15     265      MECN     H12      HGA3     0.090000        1.0080           0
     40998 WT15     265      MECN     H13      HGA3     0.090000        1.0080           0
     40999 WT15     265      MECN     C2       CG1N1    0.360000       12.0110           0
     41000 WT15     265      MECN     N3       NG1T1   -0.460000       14.0070           0
     41001 WT15     267      MECN     C1       CG331   -0.170000       12.0110           0
     41002 WT15     267      MECN     H11      HGA3     0.090000        1.0080           0
     41003 WT15     267      MECN     H12      HGA3     0.090000        1.0080           0
     41004 WT15     267      MECN     H13      HGA3     0.090000        1.0080           0
     41005 WT15     267      MECN     C2       CG1N1    0.360000       12.0110           0
     41006 WT15     267      MECN     N3       NG1T1   -0.460000       14.0070           0
     41007 WT15     268      MECN     C1       CG331   -0.170000       12.0110           0
     41008 WT15     268      MECN     H11      HGA3     0.090000        1.0080           0
     41009 WT15     268      MECN     H12      HGA3     0.090000        1.0080           0
     41010 WT15     268      MECN     H13      HGA3     0.090000        1.0080           0
     41011 WT15     268      MECN     C2       CG1N1    0.360000       12.0110           0
     41012 WT15     268      MECN     N3       NG1T1   -0.460000       14.0070           0
     41013 WT15     269      MECN     C1       CG331   -0.170000       12.0110           0
     41014 WT15     269      MECN     H11      HGA3     0.090000        1.0080           0
     41015 WT15     269      MECN     H12      HGA3     0.090000        1.0080           0
     41016 WT15     269      MECN     H13      HGA3     0.090000        1.0080           0
     41017 WT15     269      MECN     C2       CG1N1    0.360000       12.0110           0
     41018 WT15     269      MECN     N3       NG1T1   -0.460000       14.0070           0
     41019 WT15     275      MECN     C1       CG331   -0.170000       12.0110           0
     41020 WT15     275      MECN     H11      HGA3     0.090000        1.0080           0
     41021 WT15     275      MECN     H12      HGA3     0.090000        1.0080           0
     41022 WT15     275      MECN     H13      HGA3     0.090000        1.0080           0
     41023 WT15     275      MECN     C2       CG1N1    0.360000       12.0110           0
     41024 WT15     275      MECN     N3       NG1T1   -0.460000       14.0070           0
     41025 WT15     276      MECN     C1       CG331   -0.170000       12.0110           0
     41026 WT15     276      MECN     H11      HGA3     0.090000        1.0080           0
     41027 WT15     276      MECN     H12      HGA3     0.090000        1.0080           0
     41028 WT15     276      MECN     H13      HGA3     0.090000        1.0080           0
     41029 WT15     276      MECN     C2       CG1N1    0.360000       12.0110           0
     41030 WT15     276      MECN     N3       NG1T1   -0.460000       14.0070           0
     41031 WT15     277      MECN     C1       CG331   -0.170000       12.0110           0
     41032 WT15     277      MECN     H11      HGA3     0.090000        1.0080           0
     41033 WT15     277      MECN     H12      HGA3     0.090000        1.0080           0
     41034 WT15     277      MECN     H13      HGA3     0.090000        1.0080           0
     41035 WT15     277      MECN     C2       CG1N1    0.360000       12.0110           0
     41036 WT15     277      MECN     N3       NG1T1   -0.460000       14.0070           0
     41037 WT15     278      MECN     C1       CG331   -0.170000       12.0110           0
     41038 WT15     278      MECN     H11      HGA3     0.090000        1.0080           0
     41039 WT15     278      MECN     H12      HGA3     0.090000        1.0080           0
     41040 WT15     278      MECN     H13      HGA3     0.090000        1.0080           0
     41041 WT15     278      MECN     C2       CG1N1    0.360000       12.0110           0
     41042 WT15     278      MECN     N3       NG1T1   -0.460000       14.0070           0
     41043 WT15     279      MECN     C1       CG331   -0.170000       12.0110           0
     41044 WT15     279      MECN     H11      HGA3     0.090000        1.0080           0
     41045 WT15     279      MECN     H12      HGA3     0.090000        1.0080           0
     41046 WT15     279      MECN     H13      HGA3     0.090000        1.0080           0
     41047 WT15     279      MECN     C2       CG1N1    0.360000       12.0110           0
     41048 WT15     279      MECN     N3       NG1T1   -0.460000       14.0070           0
     41049 WT15     280      MECN     C1       CG331   -0.170000       12.0110           0
     41050 WT15     280      MECN     H11      HGA3     0.090000        1.0080           0
     41051 WT15     280      MECN     H12      HGA3     0.090000        1.0080           0
     41052 WT15     280      MECN     H13      HGA3     0.090000        1.0080           0
     41053 WT15     280      MECN     C2       CG1N1    0.360000       12.0110           0
     41054 WT15     280      MECN     N3       NG1T1   -0.460000       14.0070           0
     41055 WT15     281      MECN     C1       CG331   -0.170000       12.0110           0
     41056 WT15     281      MECN     H11      HGA3     0.090000        1.0080           0
     41057 WT15     281      MECN     H12      HGA3     0.090000        1.0080           0
     41058 WT15     281      MECN     H13      HGA3     0.090000        1.0080           0
     41059 WT15     281      MECN     C2       CG1N1    0.360000       12.0110           0
     41060 WT15     281      MECN     N3       NG1T1   -0.460000       14.0070           0
     41061 WT15     282      MECN     C1       CG331   -0.170000       12.0110           0
     41062 WT15     282      MECN     H11      HGA3     0.090000        1.0080           0
     41063 WT15     282      MECN     H12      HGA3     0.090000        1.0080           0
     41064 WT15     282      MECN     H13      HGA3     0.090000        1.0080           0
     41065 WT15     282      MECN     C2       CG1N1    0.360000       12.0110           0
     41066 WT15     282      MECN     N3       NG1T1   -0.460000       14.0070           0
     41067 WT15     283      MECN     C1       CG331   -0.170000       12.0110           0
     41068 WT15     283      MECN     H11      HGA3     0.090000        1.0080           0
     41069 WT15     283      MECN     H12      HGA3     0.090000        1.0080           0
     41070 WT15     283      MECN     H13      HGA3     0.090000        1.0080           0
     41071 WT15     283      MECN     C2       CG1N1    0.360000       12.0110           0
     41072 WT15     283      MECN     N3       NG1T1   -0.460000       14.0070           0
     41073 WT15     284      MECN     C1       CG331   -0.170000       12.0110           0
     41074 WT15     284      MECN     H11      HGA3     0.090000        1.0080           0
     41075 WT15     284      MECN     H12      HGA3     0.090000        1.0080           0
     41076 WT15     284      MECN     H13      HGA3     0.090000        1.0080           0
     41077 WT15     284      MECN     C2       CG1N1    0.360000       12.0110           0
     41078 WT15     284      MECN     N3       NG1T1   -0.460000       14.0070           0
     41079 WT15     285      MECN     C1       CG331   -0.170000       12.0110           0
     41080 WT15     285      MECN     H11      HGA3     0.090000        1.0080           0
     41081 WT15     285      MECN     H12      HGA3     0.090000        1.0080           0
     41082 WT15     285      MECN     H13      HGA3     0.090000        1.0080           0
     41083 WT15     285      MECN     C2       CG1N1    0.360000       12.0110           0
     41084 WT15     285      MECN     N3       NG1T1   -0.460000       14.0070           0
     41085 WT15     286      MECN     C1       CG331   -0.170000       12.0110           0
     41086 WT15     286      MECN     H11      HGA3     0.090000        1.0080           0
     41087 WT15     286      MECN     H12      HGA3     0.090000        1.0080           0
     41088 WT15     286      MECN     H13      HGA3     0.090000        1.0080           0
     41089 WT15     286      MECN     C2       CG1N1    0.360000       12.0110           0
     41090 WT15     286      MECN     N3       NG1T1   -0.460000       14.0070           0
     41091 WT15     288      MECN     C1       CG331   -0.170000       12.0110           0
     41092 WT15     288      MECN     H11      HGA3     0.090000        1.0080           0
     41093 WT15     288      MECN     H12      HGA3     0.090000        1.0080           0
     41094 WT15     288      MECN     H13      HGA3     0.090000        1.0080           0
     41095 WT15     288      MECN     C2       CG1N1    0.360000       12.0110           0
     41096 WT15     288      MECN     N3       NG1T1   -0.460000       14.0070           0
     41097 WT15     290      MECN     C1       CG331   -0.170000       12.0110           0
     41098 WT15     290      MECN     H11      HGA3     0.090000        1.0080           0
     41099 WT15     290      MECN     H12      HGA3     0.090000        1.0080           0
     41100 WT15     290      MECN     H13      HGA3     0.090000        1.0080           0
     41101 WT15     290      MECN     C2       CG1N1    0.360000       12.0110           0
     41102 WT15     290      MECN     N3       NG1T1   -0.460000       14.0070           0
     41103 WT15     291      MECN     C1       CG331   -0.170000       12.0110           0
     41104 WT15     291      MECN     H11      HGA3     0.090000        1.0080           0
     41105 WT15     291      MECN     H12      HGA3     0.090000        1.0080           0
     41106 WT15     291      MECN     H13      HGA3     0.090000        1.0080           0
     41107 WT15     291      MECN     C2       CG1N1    0.360000       12.0110           0
     41108 WT15     291      MECN     N3       NG1T1   -0.460000       14.0070           0
     41109 WT15     293      MECN     C1       CG331   -0.170000       12.0110           0
     41110 WT15     293      MECN     H11      HGA3     0.090000        1.0080           0
     41111 WT15     293      MECN     H12      HGA3     0.090000        1.0080           0
     41112 WT15     293      MECN     H13      HGA3     0.090000        1.0080           0
     41113 WT15     293      MECN     C2       CG1N1    0.360000       12.0110           0
     41114 WT15     293      MECN     N3       NG1T1   -0.460000       14.0070           0
     41115 WT15     294      MECN     C1       CG331   -0.170000       12.0110           0
     41116 WT15     294      MECN     H11      HGA3     0.090000        1.0080           0
     41117 WT15     294      MECN     H12      HGA3     0.090000        1.0080           0
     41118 WT15     294      MECN     H13      HGA3     0.090000        1.0080           0
     41119 WT15     294      MECN     C2       CG1N1    0.360000       12.0110           0
     41120 WT15     294      MECN     N3       NG1T1   -0.460000       14.0070           0
     41121 WT15     295      MECN     C1       CG331   -0.170000       12.0110           0
     41122 WT15     295      MECN     H11      HGA3     0.090000        1.0080           0
     41123 WT15     295      MECN     H12      HGA3     0.090000        1.0080           0
     41124 WT15     295      MECN     H13      HGA3     0.090000        1.0080           0
     41125 WT15     295      MECN     C2       CG1N1    0.360000       12.0110           0
     41126 WT15     295      MECN     N3       NG1T1   -0.460000       14.0070           0
     41127 WT15     296      MECN     C1       CG331   -0.170000       12.0110           0
     41128 WT15     296      MECN     H11      HGA3     0.090000        1.0080           0
     41129 WT15     296      MECN     H12      HGA3     0.090000        1.0080           0
     41130 WT15     296      MECN     H13      HGA3     0.090000        1.0080           0
     41131 WT15     296      MECN     C2       CG1N1    0.360000       12.0110           0
     41132 WT15     296      MECN     N3       NG1T1   -0.460000       14.0070           0
     41133 WT15     301      MECN     C1       CG331   -0.170000       12.0110           0
     41134 WT15     301      MECN     H11      HGA3     0.090000        1.0080           0
     41135 WT15     301      MECN     H12      HGA3     0.090000        1.0080           0
     41136 WT15     301      MECN     H13      HGA3     0.090000        1.0080           0
     41137 WT15     301      MECN     C2       CG1N1    0.360000       12.0110           0
     41138 WT15     301      MECN     N3       NG1T1   -0.460000       14.0070           0
     41139 WT15     302      MECN     C1       CG331   -0.170000       12.0110           0
     41140 WT15     302      MECN     H11      HGA3     0.090000        1.0080           0
     41141 WT15     302      MECN     H12      HGA3     0.090000        1.0080           0
     41142 WT15     302      MECN     H13      HGA3     0.090000        1.0080           0
     41143 WT15     302      MECN     C2       CG1N1    0.360000       12.0110           0
     41144 WT15     302      MECN     N3       NG1T1   -0.460000       14.0070           0
     41145 WT15     303      MECN     C1       CG331   -0.170000       12.0110           0
     41146 WT15     303      MECN     H11      HGA3     0.090000        1.0080           0
     41147 WT15     303      MECN     H12      HGA3     0.090000        1.0080           0
     41148 WT15     303      MECN     H13      HGA3     0.090000        1.0080           0
     41149 WT15     303      MECN     C2       CG1N1    0.360000       12.0110           0
     41150 WT15     303      MECN     N3       NG1T1   -0.460000       14.0070           0
     41151 WT15     304      MECN     C1       CG331   -0.170000       12.0110           0
     41152 WT15     304      MECN     H11      HGA3     0.090000        1.0080           0
     41153 WT15     304      MECN     H12      HGA3     0.090000        1.0080           0
     41154 WT15     304      MECN     H13      HGA3     0.090000        1.0080           0
     41155 WT15     304      MECN     C2       CG1N1    0.360000       12.0110           0
     41156 WT15     304      MECN     N3       NG1T1   -0.460000       14.0070           0
     41157 WT15     305      MECN     C1       CG331   -0.170000       12.0110           0
     41158 WT15     305      MECN     H11      HGA3     0.090000        1.0080           0
     41159 WT15     305      MECN     H12      HGA3     0.090000        1.0080           0
     41160 WT15     305      MECN     H13      HGA3     0.090000        1.0080           0
     41161 WT15     305      MECN     C2       CG1N1    0.360000       12.0110           0
     41162 WT15     305      MECN     N3       NG1T1   -0.460000       14.0070           0
     41163 WT15     306      MECN     C1       CG331   -0.170000       12.0110           0
     41164 WT15     306      MECN     H11      HGA3     0.090000        1.0080           0
     41165 WT15     306      MECN     H12      HGA3     0.090000        1.0080           0
     41166 WT15     306      MECN     H13      HGA3     0.090000        1.0080           0
     41167 WT15     306      MECN     C2       CG1N1    0.360000       12.0110           0
     41168 WT15     306      MECN     N3       NG1T1   -0.460000       14.0070           0
     41169 WT15     307      MECN     C1       CG331   -0.170000       12.0110           0
     41170 WT15     307      MECN     H11      HGA3     0.090000        1.0080           0
     41171 WT15     307      MECN     H12      HGA3     0.090000        1.0080           0
     41172 WT15     307      MECN     H13      HGA3     0.090000        1.0080           0
     41173 WT15     307      MECN     C2       CG1N1    0.360000       12.0110           0
     41174 WT15     307      MECN     N3       NG1T1   -0.460000       14.0070           0
     41175 WT15     308      MECN     C1       CG331   -0.170000       12.0110           0
     41176 WT15     308      MECN     H11      HGA3     0.090000        1.0080           0
     41177 WT15     308      MECN     H12      HGA3     0.090000        1.0080           0
     41178 WT15     308      MECN     H13      HGA3     0.090000        1.0080           0
     41179 WT15     308      MECN     C2       CG1N1    0.360000       12.0110           0
     41180 WT15     308      MECN     N3       NG1T1   -0.460000       14.0070           0
     41181 WT15     309      MECN     C1       CG331   -0.170000       12.0110           0
     41182 WT15     309      MECN     H11      HGA3     0.090000        1.0080           0
     41183 WT15     309      MECN     H12      HGA3     0.090000        1.0080           0
     41184 WT15     309      MECN     H13      HGA3     0.090000        1.0080           0
     41185 WT15     309      MECN     C2       CG1N1    0.360000       12.0110           0
     41186 WT15     309      MECN     N3       NG1T1   -0.460000       14.0070           0
     41187 WT15     311      MECN     C1       CG331   -0.170000       12.0110           0
     41188 WT15     311      MECN     H11      HGA3     0.090000        1.0080           0
     41189 WT15     311      MECN     H12      HGA3     0.090000        1.0080           0
     41190 WT15     311      MECN     H13      HGA3     0.090000        1.0080           0
     41191 WT15     311      MECN     C2       CG1N1    0.360000       12.0110           0
     41192 WT15     311      MECN     N3       NG1T1   -0.460000       14.0070           0
     41193 WT15     314      MECN     C1       CG331   -0.170000       12.0110           0
     41194 WT15     314      MECN     H11      HGA3     0.090000        1.0080           0
     41195 WT15     314      MECN     H12      HGA3     0.090000        1.0080           0
     41196 WT15     314      MECN     H13      HGA3     0.090000        1.0080           0
     41197 WT15     314      MECN     C2       CG1N1    0.360000       12.0110           0
     41198 WT15     314      MECN     N3       NG1T1   -0.460000       14.0070           0
     41199 WT15     316      MECN     C1       CG331   -0.170000       12.0110           0
     41200 WT15     316      MECN     H11      HGA3     0.090000        1.0080           0
     41201 WT15     316      MECN     H12      HGA3     0.090000        1.0080           0
     41202 WT15     316      MECN     H13      HGA3     0.090000        1.0080           0
     41203 WT15     316      MECN     C2       CG1N1    0.360000       12.0110           0
     41204 WT15     316      MECN     N3       NG1T1   -0.460000       14.0070           0
     41205 WT15     318      MECN     C1       CG331   -0.170000       12.0110           0
     41206 WT15     318      MECN     H11      HGA3     0.090000        1.0080           0
     41207 WT15     318      MECN     H12      HGA3     0.090000        1.0080           0
     41208 WT15     318      MECN     H13      HGA3     0.090000        1.0080           0
     41209 WT15     318      MECN     C2       CG1N1    0.360000       12.0110           0
     41210 WT15     318      MECN     N3       NG1T1   -0.460000       14.0070           0
     41211 WT15     319      MECN     C1       CG331   -0.170000       12.0110           0
     41212 WT15     319      MECN     H11      HGA3     0.090000        1.0080           0
     41213 WT15     319      MECN     H12      HGA3     0.090000        1.0080           0
     41214 WT15     319      MECN     H13      HGA3     0.090000        1.0080           0
     41215 WT15     319      MECN     C2       CG1N1    0.360000       12.0110           0
     41216 WT15     319      MECN     N3       NG1T1   -0.460000       14.0070           0
     41217 WT15     320      MECN     C1       CG331   -0.170000       12.0110           0
     41218 WT15     320      MECN     H11      HGA3     0.090000        1.0080           0
     41219 WT15     320      MECN     H12      HGA3     0.090000        1.0080           0
     41220 WT15     320      MECN     H13      HGA3     0.090000        1.0080           0
     41221 WT15     320      MECN     C2       CG1N1    0.360000       12.0110           0
     41222 WT15     320      MECN     N3       NG1T1   -0.460000       14.0070           0
     41223 WT15     321      MECN     C1       CG331   -0.170000       12.0110           0
     41224 WT15     321      MECN     H11      HGA3     0.090000        1.0080           0
     41225 WT15     321      MECN     H12      HGA3     0.090000        1.0080           0
     41226 WT15     321      MECN     H13      HGA3     0.090000        1.0080           0
     41227 WT15     321      MECN     C2       CG1N1    0.360000       12.0110           0
     41228 WT15     321      MECN     N3       NG1T1   -0.460000       14.0070           0
     41229 WT15     323      MECN     C1       CG331   -0.170000       12.0110           0
     41230 WT15     323      MECN     H11      HGA3     0.090000        1.0080           0
     41231 WT15     323      MECN     H12      HGA3     0.090000        1.0080           0
     41232 WT15     323      MECN     H13      HGA3     0.090000        1.0080           0
     41233 WT15     323      MECN     C2       CG1N1    0.360000       12.0110           0
     41234 WT15     323      MECN     N3       NG1T1   -0.460000       14.0070           0
     41235 WT15     324      MECN     C1       CG331   -0.170000       12.0110           0
     41236 WT15     324      MECN     H11      HGA3     0.090000        1.0080           0
     41237 WT15     324      MECN     H12      HGA3     0.090000        1.0080           0
     41238 WT15     324      MECN     H13      HGA3     0.090000        1.0080           0
     41239 WT15     324      MECN     C2       CG1N1    0.360000       12.0110           0
     41240 WT15     324      MECN     N3       NG1T1   -0.460000       14.0070           0
     41241 WT15     326      MECN     C1       CG331   -0.170000       12.0110           0
     41242 WT15     326      MECN     H11      HGA3     0.090000        1.0080           0
     41243 WT15     326      MECN     H12      HGA3     0.090000        1.0080           0
     41244 WT15     326      MECN     H13      HGA3     0.090000        1.0080           0
     41245 WT15     326      MECN     C2       CG1N1    0.360000       12.0110           0
     41246 WT15     326      MECN     N3       NG1T1   -0.460000       14.0070           0
     41247 WT15     329      MECN     C1       CG331   -0.170000       12.0110           0
     41248 WT15     329      MECN     H11      HGA3     0.090000        1.0080           0
     41249 WT15     329      MECN     H12      HGA3     0.090000        1.0080           0
     41250 WT15     329      MECN     H13      HGA3     0.090000        1.0080           0
     41251 WT15     329      MECN     C2       CG1N1    0.360000       12.0110           0
     41252 WT15     329      MECN     N3       NG1T1   -0.460000       14.0070           0
     41253 WT15     330      MECN     C1       CG331   -0.170000       12.0110           0
     41254 WT15     330      MECN     H11      HGA3     0.090000        1.0080           0
     41255 WT15     330      MECN     H12      HGA3     0.090000        1.0080           0
     41256 WT15     330      MECN     H13      HGA3     0.090000        1.0080           0
     41257 WT15     330      MECN     C2       CG1N1    0.360000       12.0110           0
     41258 WT15     330      MECN     N3       NG1T1   -0.460000       14.0070           0
     41259 WT15     333      MECN     C1       CG331   -0.170000       12.0110           0
     41260 WT15     333      MECN     H11      HGA3     0.090000        1.0080           0
     41261 WT15     333      MECN     H12      HGA3     0.090000        1.0080           0
     41262 WT15     333      MECN     H13      HGA3     0.090000        1.0080           0
     41263 WT15     333      MECN     C2       CG1N1    0.360000       12.0110           0
     41264 WT15     333      MECN     N3       NG1T1   -0.460000       14.0070           0
     41265 WT15     334      MECN     C1       CG331   -0.170000       12.0110           0
     41266 WT15     334      MECN     H11      HGA3     0.090000        1.0080           0
     41267 WT15     334      MECN     H12      HGA3     0.090000        1.0080           0
     41268 WT15     334      MECN     H13      HGA3     0.090000        1.0080           0
     41269 WT15     334      MECN     C2       CG1N1    0.360000       12.0110           0
     41270 WT15     334      MECN     N3       NG1T1   -0.460000       14.0070           0
     41271 WT15     337      MECN     C1       CG331   -0.170000       12.0110           0
     41272 WT15     337      MECN     H11      HGA3     0.090000        1.0080           0
     41273 WT15     337      MECN     H12      HGA3     0.090000        1.0080           0
     41274 WT15     337      MECN     H13      HGA3     0.090000        1.0080           0
     41275 WT15     337      MECN     C2       CG1N1    0.360000       12.0110           0
     41276 WT15     337      MECN     N3       NG1T1   -0.460000       14.0070           0
     41277 WT15     341      MECN     C1       CG331   -0.170000       12.0110           0
     41278 WT15     341      MECN     H11      HGA3     0.090000        1.0080           0
     41279 WT15     341      MECN     H12      HGA3     0.090000        1.0080           0
     41280 WT15     341      MECN     H13      HGA3     0.090000        1.0080           0
     41281 WT15     341      MECN     C2       CG1N1    0.360000       12.0110           0
     41282 WT15     341      MECN     N3       NG1T1   -0.460000       14.0070           0
     41283 WT15     343      MECN     C1       CG331   -0.170000       12.0110           0
     41284 WT15     343      MECN     H11      HGA3     0.090000        1.0080           0
     41285 WT15     343      MECN     H12      HGA3     0.090000        1.0080           0
     41286 WT15     343      MECN     H13      HGA3     0.090000        1.0080           0
     41287 WT15     343      MECN     C2       CG1N1    0.360000       12.0110           0
     41288 WT15     343      MECN     N3       NG1T1   -0.460000       14.0070           0
     41289 WT15     345      MECN     C1       CG331   -0.170000       12.0110           0
     41290 WT15     345      MECN     H11      HGA3     0.090000        1.0080           0
     41291 WT15     345      MECN     H12      HGA3     0.090000        1.0080           0
     41292 WT15     345      MECN     H13      HGA3     0.090000        1.0080           0
     41293 WT15     345      MECN     C2       CG1N1    0.360000       12.0110           0
     41294 WT15     345      MECN     N3       NG1T1   -0.460000       14.0070           0
     41295 WT15     346      MECN     C1       CG331   -0.170000       12.0110           0
     41296 WT15     346      MECN     H11      HGA3     0.090000        1.0080           0
     41297 WT15     346      MECN     H12      HGA3     0.090000        1.0080           0
     41298 WT15     346      MECN     H13      HGA3     0.090000        1.0080           0
     41299 WT15     346      MECN     C2       CG1N1    0.360000       12.0110           0
     41300 WT15     346      MECN     N3       NG1T1   -0.460000       14.0070           0
     41301 WT15     347      MECN     C1       CG331   -0.170000       12.0110           0
     41302 WT15     347      MECN     H11      HGA3     0.090000        1.0080           0
     41303 WT15     347      MECN     H12      HGA3     0.090000        1.0080           0
     41304 WT15     347      MECN     H13      HGA3     0.090000        1.0080           0
     41305 WT15     347      MECN     C2       CG1N1    0.360000       12.0110           0
     41306 WT15     347      MECN     N3       NG1T1   -0.460000       14.0070           0
     41307 WT15     348      MECN     C1       CG331   -0.170000       12.0110           0
     41308 WT15     348      MECN     H11      HGA3     0.090000        1.0080           0
     41309 WT15     348      MECN     H12      HGA3     0.090000        1.0080           0
     41310 WT15     348      MECN     H13      HGA3     0.090000        1.0080           0
     41311 WT15     348      MECN     C2       CG1N1    0.360000       12.0110           0
     41312 WT15     348      MECN     N3       NG1T1   -0.460000       14.0070           0
     41313 WT15     350      MECN     C1       CG331   -0.170000       12.0110           0
     41314 WT15     350      MECN     H11      HGA3     0.090000        1.0080           0
     41315 WT15     350      MECN     H12      HGA3     0.090000        1.0080           0
     41316 WT15     350      MECN     H13      HGA3     0.090000        1.0080           0
     41317 WT15     350      MECN     C2       CG1N1    0.360000       12.0110           0
     41318 WT15     350      MECN     N3       NG1T1   -0.460000       14.0070           0
     41319 WT15     351      MECN     C1       CG331   -0.170000       12.0110           0
     41320 WT15     351      MECN     H11      HGA3     0.090000        1.0080           0
     41321 WT15     351      MECN     H12      HGA3     0.090000        1.0080           0
     41322 WT15     351      MECN     H13      HGA3     0.090000        1.0080           0
     41323 WT15     351      MECN     C2       CG1N1    0.360000       12.0110           0
     41324 WT15     351      MECN     N3       NG1T1   -0.460000       14.0070           0
     41325 WT15     352      MECN     C1       CG331   -0.170000       12.0110           0
     41326 WT15     352      MECN     H11      HGA3     0.090000        1.0080           0
     41327 WT15     352      MECN     H12      HGA3     0.090000        1.0080           0
     41328 WT15     352      MECN     H13      HGA3     0.090000        1.0080           0
     41329 WT15     352      MECN     C2       CG1N1    0.360000       12.0110           0
     41330 WT15     352      MECN     N3       NG1T1   -0.460000       14.0070           0
     41331 WT15     353      MECN     C1       CG331   -0.170000       12.0110           0
     41332 WT15     353      MECN     H11      HGA3     0.090000        1.0080           0
     41333 WT15     353      MECN     H12      HGA3     0.090000        1.0080           0
     41334 WT15     353      MECN     H13      HGA3     0.090000        1.0080           0
     41335 WT15     353      MECN     C2       CG1N1    0.360000       12.0110           0
     41336 WT15     353      MECN     N3       NG1T1   -0.460000       14.0070           0
     41337 WT15     354      MECN     C1       CG331   -0.170000       12.0110           0
     41338 WT15     354      MECN     H11      HGA3     0.090000        1.0080           0
     41339 WT15     354      MECN     H12      HGA3     0.090000        1.0080           0
     41340 WT15     354      MECN     H13      HGA3     0.090000        1.0080           0
     41341 WT15     354      MECN     C2       CG1N1    0.360000       12.0110           0
     41342 WT15     354      MECN     N3       NG1T1   -0.460000       14.0070           0
     41343 WT15     355      MECN     C1       CG331   -0.170000       12.0110           0
     41344 WT15     355      MECN     H11      HGA3     0.090000        1.0080           0
     41345 WT15     355      MECN     H12      HGA3     0.090000        1.0080           0
     41346 WT15     355      MECN     H13      HGA3     0.090000        1.0080           0
     41347 WT15     355      MECN     C2       CG1N1    0.360000       12.0110           0
     41348 WT15     355      MECN     N3       NG1T1   -0.460000       14.0070           0
     41349 WT15     356      MECN     C1       CG331   -0.170000       12.0110           0
     41350 WT15     356      MECN     H11      HGA3     0.090000        1.0080           0
     41351 WT15     356      MECN     H12      HGA3     0.090000        1.0080           0
     41352 WT15     356      MECN     H13      HGA3     0.090000        1.0080           0
     41353 WT15     356      MECN     C2       CG1N1    0.360000       12.0110           0
     41354 WT15     356      MECN     N3       NG1T1   -0.460000       14.0070           0
     41355 WT15     357      MECN     C1       CG331   -0.170000       12.0110           0
     41356 WT15     357      MECN     H11      HGA3     0.090000        1.0080           0
     41357 WT15     357      MECN     H12      HGA3     0.090000        1.0080           0
     41358 WT15     357      MECN     H13      HGA3     0.090000        1.0080           0
     41359 WT15     357      MECN     C2       CG1N1    0.360000       12.0110           0
     41360 WT15     357      MECN     N3       NG1T1   -0.460000       14.0070           0
     41361 WT15     358      MECN     C1       CG331   -0.170000       12.0110           0
     41362 WT15     358      MECN     H11      HGA3     0.090000        1.0080           0
     41363 WT15     358      MECN     H12      HGA3     0.090000        1.0080           0
     41364 WT15     358      MECN     H13      HGA3     0.090000        1.0080           0
     41365 WT15     358      MECN     C2       CG1N1    0.360000       12.0110           0
     41366 WT15     358      MECN     N3       NG1T1   -0.460000       14.0070           0
     41367 WT15     359      MECN     C1       CG331   -0.170000       12.0110           0
     41368 WT15     359      MECN     H11      HGA3     0.090000        1.0080           0
     41369 WT15     359      MECN     H12      HGA3     0.090000        1.0080           0
     41370 WT15     359      MECN     H13      HGA3     0.090000        1.0080           0
     41371 WT15     359      MECN     C2       CG1N1    0.360000       12.0110           0
     41372 WT15     359      MECN     N3       NG1T1   -0.460000       14.0070           0
     41373 WT15     361      MECN     C1       CG331   -0.170000       12.0110           0
     41374 WT15     361      MECN     H11      HGA3     0.090000        1.0080           0
     41375 WT15     361      MECN     H12      HGA3     0.090000        1.0080           0
     41376 WT15     361      MECN     H13      HGA3     0.090000        1.0080           0
     41377 WT15     361      MECN     C2       CG1N1    0.360000       12.0110           0
     41378 WT15     361      MECN     N3       NG1T1   -0.460000       14.0070           0
     41379 WT15     362      MECN     C1       CG331   -0.170000       12.0110           0
     41380 WT15     362      MECN     H11      HGA3     0.090000        1.0080           0
     41381 WT15     362      MECN     H12      HGA3     0.090000        1.0080           0
     41382 WT15     362      MECN     H13      HGA3     0.090000        1.0080           0
     41383 WT15     362      MECN     C2       CG1N1    0.360000       12.0110           0
     41384 WT15     362      MECN     N3       NG1T1   -0.460000       14.0070           0
     41385 WT15     363      MECN     C1       CG331   -0.170000       12.0110           0
     41386 WT15     363      MECN     H11      HGA3     0.090000        1.0080           0
     41387 WT15     363      MECN     H12      HGA3     0.090000        1.0080           0
     41388 WT15     363      MECN     H13      HGA3     0.090000        1.0080           0
     41389 WT15     363      MECN     C2       CG1N1    0.360000       12.0110           0
     41390 WT15     363      MECN     N3       NG1T1   -0.460000       14.0070           0
     41391 WT15     364      MECN     C1       CG331   -0.170000       12.0110           0
     41392 WT15     364      MECN     H11      HGA3     0.090000        1.0080           0
     41393 WT15     364      MECN     H12      HGA3     0.090000        1.0080           0
     41394 WT15     364      MECN     H13      HGA3     0.090000        1.0080           0
     41395 WT15     364      MECN     C2       CG1N1    0.360000       12.0110           0
     41396 WT15     364      MECN     N3       NG1T1   -0.460000       14.0070           0
     41397 WT15     365      MECN     C1       CG331   -0.170000       12.0110           0
     41398 WT15     365      MECN     H11      HGA3     0.090000        1.0080           0
     41399 WT15     365      MECN     H12      HGA3     0.090000        1.0080           0
     41400 WT15     365      MECN     H13      HGA3     0.090000        1.0080           0
     41401 WT15     365      MECN     C2       CG1N1    0.360000       12.0110           0
     41402 WT15     365      MECN     N3       NG1T1   -0.460000       14.0070           0
     41403 WT15     368      MECN     C1       CG331   -0.170000       12.0110           0
     41404 WT15     368      MECN     H11      HGA3     0.090000        1.0080           0
     41405 WT15     368      MECN     H12      HGA3     0.090000        1.0080           0
     41406 WT15     368      MECN     H13      HGA3     0.090000        1.0080           0
     41407 WT15     368      MECN     C2       CG1N1    0.360000       12.0110           0
     41408 WT15     368      MECN     N3       NG1T1   -0.460000       14.0070           0
     41409 WT15     369      MECN     C1       CG331   -0.170000       12.0110           0
     41410 WT15     369      MECN     H11      HGA3     0.090000        1.0080           0
     41411 WT15     369      MECN     H12      HGA3     0.090000        1.0080           0
     41412 WT15     369      MECN     H13      HGA3     0.090000        1.0080           0
     41413 WT15     369      MECN     C2       CG1N1    0.360000       12.0110           0
     41414 WT15     369      MECN     N3       NG1T1   -0.460000       14.0070           0
     41415 WT15     370      MECN     C1       CG331   -0.170000       12.0110           0
     41416 WT15     370      MECN     H11      HGA3     0.090000        1.0080           0
     41417 WT15     370      MECN     H12      HGA3     0.090000        1.0080           0
     41418 WT15     370      MECN     H13      HGA3     0.090000        1.0080           0
     41419 WT15     370      MECN     C2       CG1N1    0.360000       12.0110           0
     41420 WT15     370      MECN     N3       NG1T1   -0.460000       14.0070           0
     41421 WT15     371      MECN     C1       CG331   -0.170000       12.0110           0
     41422 WT15     371      MECN     H11      HGA3     0.090000        1.0080           0
     41423 WT15     371      MECN     H12      HGA3     0.090000        1.0080           0
     41424 WT15     371      MECN     H13      HGA3     0.090000        1.0080           0
     41425 WT15     371      MECN     C2       CG1N1    0.360000       12.0110           0
     41426 WT15     371      MECN     N3       NG1T1   -0.460000       14.0070           0
     41427 WT15     372      MECN     C1       CG331   -0.170000       12.0110           0
     41428 WT15     372      MECN     H11      HGA3     0.090000        1.0080           0
     41429 WT15     372      MECN     H12      HGA3     0.090000        1.0080           0
     41430 WT15     372      MECN     H13      HGA3     0.090000        1.0080           0
     41431 WT15     372      MECN     C2       CG1N1    0.360000       12.0110           0
     41432 WT15     372      MECN     N3       NG1T1   -0.460000       14.0070           0
     41433 WT15     373      MECN     C1       CG331   -0.170000       12.0110           0
     41434 WT15     373      MECN     H11      HGA3     0.090000        1.0080           0
     41435 WT15     373      MECN     H12      HGA3     0.090000        1.0080           0
     41436 WT15     373      MECN     H13      HGA3     0.090000        1.0080           0
     41437 WT15     373      MECN     C2       CG1N1    0.360000       12.0110           0
     41438 WT15     373      MECN     N3       NG1T1   -0.460000       14.0070           0
     41439 WT15     375      MECN     C1       CG331   -0.170000       12.0110           0
     41440 WT15     375      MECN     H11      HGA3     0.090000        1.0080           0
     41441 WT15     375      MECN     H12      HGA3     0.090000        1.0080           0
     41442 WT15     375      MECN     H13      HGA3     0.090000        1.0080           0
     41443 WT15     375      MECN     C2       CG1N1    0.360000       12.0110           0
     41444 WT15     375      MECN     N3       NG1T1   -0.460000       14.0070           0
     41445 WT15     376      MECN     C1       CG331   -0.170000       12.0110           0
     41446 WT15     376      MECN     H11      HGA3     0.090000        1.0080           0
     41447 WT15     376      MECN     H12      HGA3     0.090000        1.0080           0
     41448 WT15     376      MECN     H13      HGA3     0.090000        1.0080           0
     41449 WT15     376      MECN     C2       CG1N1    0.360000       12.0110           0
     41450 WT15     376      MECN     N3       NG1T1   -0.460000       14.0070           0
     41451 WT15     377      MECN     C1       CG331   -0.170000       12.0110           0
     41452 WT15     377      MECN     H11      HGA3     0.090000        1.0080           0
     41453 WT15     377      MECN     H12      HGA3     0.090000        1.0080           0
     41454 WT15     377      MECN     H13      HGA3     0.090000        1.0080           0
     41455 WT15     377      MECN     C2       CG1N1    0.360000       12.0110           0
     41456 WT15     377      MECN     N3       NG1T1   -0.460000       14.0070           0
     41457 WT15     379      MECN     C1       CG331   -0.170000       12.0110           0
     41458 WT15     379      MECN     H11      HGA3     0.090000        1.0080           0
     41459 WT15     379      MECN     H12      HGA3     0.090000        1.0080           0
     41460 WT15     379      MECN     H13      HGA3     0.090000        1.0080           0
     41461 WT15     379      MECN     C2       CG1N1    0.360000       12.0110           0
     41462 WT15     379      MECN     N3       NG1T1   -0.460000       14.0070           0
     41463 WT15     380      MECN     C1       CG331   -0.170000       12.0110           0
     41464 WT15     380      MECN     H11      HGA3     0.090000        1.0080           0
     41465 WT15     380      MECN     H12      HGA3     0.090000        1.0080           0
     41466 WT15     380      MECN     H13      HGA3     0.090000        1.0080           0
     41467 WT15     380      MECN     C2       CG1N1    0.360000       12.0110           0
     41468 WT15     380      MECN     N3       NG1T1   -0.460000       14.0070           0
     41469 WT15     382      MECN     C1       CG331   -0.170000       12.0110           0
     41470 WT15     382      MECN     H11      HGA3     0.090000        1.0080           0
     41471 WT15     382      MECN     H12      HGA3     0.090000        1.0080           0
     41472 WT15     382      MECN     H13      HGA3     0.090000        1.0080           0
     41473 WT15     382      MECN     C2       CG1N1    0.360000       12.0110           0
     41474 WT15     382      MECN     N3       NG1T1   -0.460000       14.0070           0
     41475 WT15     385      MECN     C1       CG331   -0.170000       12.0110           0
     41476 WT15     385      MECN     H11      HGA3     0.090000        1.0080           0
     41477 WT15     385      MECN     H12      HGA3     0.090000        1.0080           0
     41478 WT15     385      MECN     H13      HGA3     0.090000        1.0080           0
     41479 WT15     385      MECN     C2       CG1N1    0.360000       12.0110           0
     41480 WT15     385      MECN     N3       NG1T1   -0.460000       14.0070           0
     41481 WT15     387      MECN     C1       CG331   -0.170000       12.0110           0
     41482 WT15     387      MECN     H11      HGA3     0.090000        1.0080           0
     41483 WT15     387      MECN     H12      HGA3     0.090000        1.0080           0
     41484 WT15     387      MECN     H13      HGA3     0.090000        1.0080           0
     41485 WT15     387      MECN     C2       CG1N1    0.360000       12.0110           0
     41486 WT15     387      MECN     N3       NG1T1   -0.460000       14.0070           0
     41487 WT15     388      MECN     C1       CG331   -0.170000       12.0110           0
     41488 WT15     388      MECN     H11      HGA3     0.090000        1.0080           0
     41489 WT15     388      MECN     H12      HGA3     0.090000        1.0080           0
     41490 WT15     388      MECN     H13      HGA3     0.090000        1.0080           0
     41491 WT15     388      MECN     C2       CG1N1    0.360000       12.0110           0
     41492 WT15     388      MECN     N3       NG1T1   -0.460000       14.0070           0
     41493 WT15     389      MECN     C1       CG331   -0.170000       12.0110           0
     41494 WT15     389      MECN     H11      HGA3     0.090000        1.0080           0
     41495 WT15     389      MECN     H12      HGA3     0.090000        1.0080           0
     41496 WT15     389      MECN     H13      HGA3     0.090000        1.0080           0
     41497 WT15     389      MECN     C2       CG1N1    0.360000       12.0110           0
     41498 WT15     389      MECN     N3       NG1T1   -0.460000       14.0070           0
     41499 WT15     390      MECN     C1       CG331   -0.170000       12.0110           0
     41500 WT15     390      MECN     H11      HGA3     0.090000        1.0080           0
     41501 WT15     390      MECN     H12      HGA3     0.090000        1.0080           0
     41502 WT15     390      MECN     H13      HGA3     0.090000        1.0080           0
     41503 WT15     390      MECN     C2       CG1N1    0.360000       12.0110           0
     41504 WT15     390      MECN     N3       NG1T1   -0.460000       14.0070           0
     41505 WT15     391      MECN     C1       CG331   -0.170000       12.0110           0
     41506 WT15     391      MECN     H11      HGA3     0.090000        1.0080           0
     41507 WT15     391      MECN     H12      HGA3     0.090000        1.0080           0
     41508 WT15     391      MECN     H13      HGA3     0.090000        1.0080           0
     41509 WT15     391      MECN     C2       CG1N1    0.360000       12.0110           0
     41510 WT15     391      MECN     N3       NG1T1   -0.460000       14.0070           0
     41511 WT15     393      MECN     C1       CG331   -0.170000       12.0110           0
     41512 WT15     393      MECN     H11      HGA3     0.090000        1.0080           0
     41513 WT15     393      MECN     H12      HGA3     0.090000        1.0080           0
     41514 WT15     393      MECN     H13      HGA3     0.090000        1.0080           0
     41515 WT15     393      MECN     C2       CG1N1    0.360000       12.0110           0
     41516 WT15     393      MECN     N3       NG1T1   -0.460000       14.0070           0
     41517 WT15     394      MECN     C1       CG331   -0.170000       12.0110           0
     41518 WT15     394      MECN     H11      HGA3     0.090000        1.0080           0
     41519 WT15     394      MECN     H12      HGA3     0.090000        1.0080           0
     41520 WT15     394      MECN     H13      HGA3     0.090000        1.0080           0
     41521 WT15     394      MECN     C2       CG1N1    0.360000       12.0110           0
     41522 WT15     394      MECN     N3       NG1T1   -0.460000       14.0070           0
     41523 WT15     395      MECN     C1       CG331   -0.170000       12.0110           0
     41524 WT15     395      MECN     H11      HGA3     0.090000        1.0080           0
     41525 WT15     395      MECN     H12      HGA3     0.090000        1.0080           0
     41526 WT15     395      MECN     H13      HGA3     0.090000        1.0080           0
     41527 WT15     395      MECN     C2       CG1N1    0.360000       12.0110           0
     41528 WT15     395      MECN     N3       NG1T1   -0.460000       14.0070           0
     41529 WT15     396      MECN     C1       CG331   -0.170000       12.0110           0
     41530 WT15     396      MECN     H11      HGA3     0.090000        1.0080           0
     41531 WT15     396      MECN     H12      HGA3     0.090000        1.0080           0
     41532 WT15     396      MECN     H13      HGA3     0.090000        1.0080           0
     41533 WT15     396      MECN     C2       CG1N1    0.360000       12.0110           0
     41534 WT15     396      MECN     N3       NG1T1   -0.460000       14.0070           0
     41535 WT15     397      MECN     C1       CG331   -0.170000       12.0110           0
     41536 WT15     397      MECN     H11      HGA3     0.090000        1.0080           0
     41537 WT15     397      MECN     H12      HGA3     0.090000        1.0080           0
     41538 WT15     397      MECN     H13      HGA3     0.090000        1.0080           0
     41539 WT15     397      MECN     C2       CG1N1    0.360000       12.0110           0
     41540 WT15     397      MECN     N3       NG1T1   -0.460000       14.0070           0
     41541 WT15     398      MECN     C1       CG331   -0.170000       12.0110           0
     41542 WT15     398      MECN     H11      HGA3     0.090000        1.0080           0
     41543 WT15     398      MECN     H12      HGA3     0.090000        1.0080           0
     41544 WT15     398      MECN     H13      HGA3     0.090000        1.0080           0
     41545 WT15     398      MECN     C2       CG1N1    0.360000       12.0110           0
     41546 WT15     398      MECN     N3       NG1T1   -0.460000       14.0070           0
     41547 WT15     399      MECN     C1       CG331   -0.170000       12.0110           0
     41548 WT15     399      MECN     H11      HGA3     0.090000        1.0080           0
     41549 WT15     399      MECN     H12      HGA3     0.090000        1.0080           0
     41550 WT15     399      MECN     H13      HGA3     0.090000        1.0080           0
     41551 WT15     399      MECN     C2       CG1N1    0.360000       12.0110           0
     41552 WT15     399      MECN     N3       NG1T1   -0.460000       14.0070           0
     41553 WT15     401      MECN     C1       CG331   -0.170000       12.0110           0
     41554 WT15     401      MECN     H11      HGA3     0.090000        1.0080           0
     41555 WT15     401      MECN     H12      HGA3     0.090000        1.0080           0
     41556 WT15     401      MECN     H13      HGA3     0.090000        1.0080           0
     41557 WT15     401      MECN     C2       CG1N1    0.360000       12.0110           0
     41558 WT15     401      MECN     N3       NG1T1   -0.460000       14.0070           0
     41559 WT15     405      MECN     C1       CG331   -0.170000       12.0110           0
     41560 WT15     405      MECN     H11      HGA3     0.090000        1.0080           0
     41561 WT15     405      MECN     H12      HGA3     0.090000        1.0080           0
     41562 WT15     405      MECN     H13      HGA3     0.090000        1.0080           0
     41563 WT15     405      MECN     C2       CG1N1    0.360000       12.0110           0
     41564 WT15     405      MECN     N3       NG1T1   -0.460000       14.0070           0
     41565 WT15     406      MECN     C1       CG331   -0.170000       12.0110           0
     41566 WT15     406      MECN     H11      HGA3     0.090000        1.0080           0
     41567 WT15     406      MECN     H12      HGA3     0.090000        1.0080           0
     41568 WT15     406      MECN     H13      HGA3     0.090000        1.0080           0
     41569 WT15     406      MECN     C2       CG1N1    0.360000       12.0110           0
     41570 WT15     406      MECN     N3       NG1T1   -0.460000       14.0070           0
     41571 WT15     407      MECN     C1       CG331   -0.170000       12.0110           0
     41572 WT15     407      MECN     H11      HGA3     0.090000        1.0080           0
     41573 WT15     407      MECN     H12      HGA3     0.090000        1.0080           0
     41574 WT15     407      MECN     H13      HGA3     0.090000        1.0080           0
     41575 WT15     407      MECN     C2       CG1N1    0.360000       12.0110           0
     41576 WT15     407      MECN     N3       NG1T1   -0.460000       14.0070           0
     41577 WT15     409      MECN     C1       CG331   -0.170000       12.0110           0
     41578 WT15     409      MECN     H11      HGA3     0.090000        1.0080           0
     41579 WT15     409      MECN     H12      HGA3     0.090000        1.0080           0
     41580 WT15     409      MECN     H13      HGA3     0.090000        1.0080           0
     41581 WT15     409      MECN     C2       CG1N1    0.360000       12.0110           0
     41582 WT15     409      MECN     N3       NG1T1   -0.460000       14.0070           0
     41583 WT15     410      MECN     C1       CG331   -0.170000       12.0110           0
     41584 WT15     410      MECN     H11      HGA3     0.090000        1.0080           0
     41585 WT15     410      MECN     H12      HGA3     0.090000        1.0080           0
     41586 WT15     410      MECN     H13      HGA3     0.090000        1.0080           0
     41587 WT15     410      MECN     C2       CG1N1    0.360000       12.0110           0
     41588 WT15     410      MECN     N3       NG1T1   -0.460000       14.0070           0
     41589 WT15     411      MECN     C1       CG331   -0.170000       12.0110           0
     41590 WT15     411      MECN     H11      HGA3     0.090000        1.0080           0
     41591 WT15     411      MECN     H12      HGA3     0.090000        1.0080           0
     41592 WT15     411      MECN     H13      HGA3     0.090000        1.0080           0
     41593 WT15     411      MECN     C2       CG1N1    0.360000       12.0110           0
     41594 WT15     411      MECN     N3       NG1T1   -0.460000       14.0070           0
     41595 WT15     413      MECN     C1       CG331   -0.170000       12.0110           0
     41596 WT15     413      MECN     H11      HGA3     0.090000        1.0080           0
     41597 WT15     413      MECN     H12      HGA3     0.090000        1.0080           0
     41598 WT15     413      MECN     H13      HGA3     0.090000        1.0080           0
     41599 WT15     413      MECN     C2       CG1N1    0.360000       12.0110           0
     41600 WT15     413      MECN     N3       NG1T1   -0.460000       14.0070           0
     41601 WT15     414      MECN     C1       CG331   -0.170000       12.0110           0
     41602 WT15     414      MECN     H11      HGA3     0.090000        1.0080           0
     41603 WT15     414      MECN     H12      HGA3     0.090000        1.0080           0
     41604 WT15     414      MECN     H13      HGA3     0.090000        1.0080           0
     41605 WT15     414      MECN     C2       CG1N1    0.360000       12.0110           0
     41606 WT15     414      MECN     N3       NG1T1   -0.460000       14.0070           0
     41607 WT15     415      MECN     C1       CG331   -0.170000       12.0110           0
     41608 WT15     415      MECN     H11      HGA3     0.090000        1.0080           0
     41609 WT15     415      MECN     H12      HGA3     0.090000        1.0080           0
     41610 WT15     415      MECN     H13      HGA3     0.090000        1.0080           0
     41611 WT15     415      MECN     C2       CG1N1    0.360000       12.0110           0
     41612 WT15     415      MECN     N3       NG1T1   -0.460000       14.0070           0
     41613 WT15     416      MECN     C1       CG331   -0.170000       12.0110           0
     41614 WT15     416      MECN     H11      HGA3     0.090000        1.0080           0
     41615 WT15     416      MECN     H12      HGA3     0.090000        1.0080           0
     41616 WT15     416      MECN     H13      HGA3     0.090000        1.0080           0
     41617 WT15     416      MECN     C2       CG1N1    0.360000       12.0110           0
     41618 WT15     416      MECN     N3       NG1T1   -0.460000       14.0070           0
     41619 WT15     418      MECN     C1       CG331   -0.170000       12.0110           0
     41620 WT15     418      MECN     H11      HGA3     0.090000        1.0080           0
     41621 WT15     418      MECN     H12      HGA3     0.090000        1.0080           0
     41622 WT15     418      MECN     H13      HGA3     0.090000        1.0080           0
     41623 WT15     418      MECN     C2       CG1N1    0.360000       12.0110           0
     41624 WT15     418      MECN     N3       NG1T1   -0.460000       14.0070           0
     41625 WT15     419      MECN     C1       CG331   -0.170000       12.0110           0
     41626 WT15     419      MECN     H11      HGA3     0.090000        1.0080           0
     41627 WT15     419      MECN     H12      HGA3     0.090000        1.0080           0
     41628 WT15     419      MECN     H13      HGA3     0.090000        1.0080           0
     41629 WT15     419      MECN     C2       CG1N1    0.360000       12.0110           0
     41630 WT15     419      MECN     N3       NG1T1   -0.460000       14.0070           0
     41631 WT15     420      MECN     C1       CG331   -0.170000       12.0110           0
     41632 WT15     420      MECN     H11      HGA3     0.090000        1.0080           0
     41633 WT15     420      MECN     H12      HGA3     0.090000        1.0080           0
     41634 WT15     420      MECN     H13      HGA3     0.090000        1.0080           0
     41635 WT15     420      MECN     C2       CG1N1    0.360000       12.0110           0
     41636 WT15     420      MECN     N3       NG1T1   -0.460000       14.0070           0
     41637 WT15     422      MECN     C1       CG331   -0.170000       12.0110           0
     41638 WT15     422      MECN     H11      HGA3     0.090000        1.0080           0
     41639 WT15     422      MECN     H12      HGA3     0.090000        1.0080           0
     41640 WT15     422      MECN     H13      HGA3     0.090000        1.0080           0
     41641 WT15     422      MECN     C2       CG1N1    0.360000       12.0110           0
     41642 WT15     422      MECN     N3       NG1T1   -0.460000       14.0070           0
     41643 WT15     424      MECN     C1       CG331   -0.170000       12.0110           0
     41644 WT15     424      MECN     H11      HGA3     0.090000        1.0080           0
     41645 WT15     424      MECN     H12      HGA3     0.090000        1.0080           0
     41646 WT15     424      MECN     H13      HGA3     0.090000        1.0080           0
     41647 WT15     424      MECN     C2       CG1N1    0.360000       12.0110           0
     41648 WT15     424      MECN     N3       NG1T1   -0.460000       14.0070           0
     41649 WT15     425      MECN     C1       CG331   -0.170000       12.0110           0
     41650 WT15     425      MECN     H11      HGA3     0.090000        1.0080           0
     41651 WT15     425      MECN     H12      HGA3     0.090000        1.0080           0
     41652 WT15     425      MECN     H13      HGA3     0.090000        1.0080           0
     41653 WT15     425      MECN     C2       CG1N1    0.360000       12.0110           0
     41654 WT15     425      MECN     N3       NG1T1   -0.460000       14.0070           0
     41655 WT15     426      MECN     C1       CG331   -0.170000       12.0110           0
     41656 WT15     426      MECN     H11      HGA3     0.090000        1.0080           0
     41657 WT15     426      MECN     H12      HGA3     0.090000        1.0080           0
     41658 WT15     426      MECN     H13      HGA3     0.090000        1.0080           0
     41659 WT15     426      MECN     C2       CG1N1    0.360000       12.0110           0
     41660 WT15     426      MECN     N3       NG1T1   -0.460000       14.0070           0
     41661 WT15     427      MECN     C1       CG331   -0.170000       12.0110           0
     41662 WT15     427      MECN     H11      HGA3     0.090000        1.0080           0
     41663 WT15     427      MECN     H12      HGA3     0.090000        1.0080           0
     41664 WT15     427      MECN     H13      HGA3     0.090000        1.0080           0
     41665 WT15     427      MECN     C2       CG1N1    0.360000       12.0110           0
     41666 WT15     427      MECN     N3       NG1T1   -0.460000       14.0070           0
     41667 WT15     428      MECN     C1       CG331   -0.170000       12.0110           0
     41668 WT15     428      MECN     H11      HGA3     0.090000        1.0080           0
     41669 WT15     428      MECN     H12      HGA3     0.090000        1.0080           0
     41670 WT15     428      MECN     H13      HGA3     0.090000        1.0080           0
     41671 WT15     428      MECN     C2       CG1N1    0.360000       12.0110           0
     41672 WT15     428      MECN     N3       NG1T1   -0.460000       14.0070           0
     41673 WT15     429      MECN     C1       CG331   -0.170000       12.0110           0
     41674 WT15     429      MECN     H11      HGA3     0.090000        1.0080           0
     41675 WT15     429      MECN     H12      HGA3     0.090000        1.0080           0
     41676 WT15     429      MECN     H13      HGA3     0.090000        1.0080           0
     41677 WT15     429      MECN     C2       CG1N1    0.360000       12.0110           0
     41678 WT15     429      MECN     N3       NG1T1   -0.460000       14.0070           0
     41679 WT15     430      MECN     C1       CG331   -0.170000       12.0110           0
     41680 WT15     430      MECN     H11      HGA3     0.090000        1.0080           0
     41681 WT15     430      MECN     H12      HGA3     0.090000        1.0080           0
     41682 WT15     430      MECN     H13      HGA3     0.090000        1.0080           0
     41683 WT15     430      MECN     C2       CG1N1    0.360000       12.0110           0
     41684 WT15     430      MECN     N3       NG1T1   -0.460000       14.0070           0
     41685 WT15     431      MECN     C1       CG331   -0.170000       12.0110           0
     41686 WT15     431      MECN     H11      HGA3     0.090000        1.0080           0
     41687 WT15     431      MECN     H12      HGA3     0.090000        1.0080           0
     41688 WT15     431      MECN     H13      HGA3     0.090000        1.0080           0
     41689 WT15     431      MECN     C2       CG1N1    0.360000       12.0110           0
     41690 WT15     431      MECN     N3       NG1T1   -0.460000       14.0070           0
     41691 WT15     433      MECN     C1       CG331   -0.170000       12.0110           0
     41692 WT15     433      MECN     H11      HGA3     0.090000        1.0080           0
     41693 WT15     433      MECN     H12      HGA3     0.090000        1.0080           0
     41694 WT15     433      MECN     H13      HGA3     0.090000        1.0080           0
     41695 WT15     433      MECN     C2       CG1N1    0.360000       12.0110           0
     41696 WT15     433      MECN     N3       NG1T1   -0.460000       14.0070           0
     41697 WT15     434      MECN     C1       CG331   -0.170000       12.0110           0
     41698 WT15     434      MECN     H11      HGA3     0.090000        1.0080           0
     41699 WT15     434      MECN     H12      HGA3     0.090000        1.0080           0
     41700 WT15     434      MECN     H13      HGA3     0.090000        1.0080           0
     41701 WT15     434      MECN     C2       CG1N1    0.360000       12.0110           0
     41702 WT15     434      MECN     N3       NG1T1   -0.460000       14.0070           0
     41703 WT15     435      MECN     C1       CG331   -0.170000       12.0110           0
     41704 WT15     435      MECN     H11      HGA3     0.090000        1.0080           0
     41705 WT15     435      MECN     H12      HGA3     0.090000        1.0080           0
     41706 WT15     435      MECN     H13      HGA3     0.090000        1.0080           0
     41707 WT15     435      MECN     C2       CG1N1    0.360000       12.0110           0
     41708 WT15     435      MECN     N3       NG1T1   -0.460000       14.0070           0
     41709 WT15     436      MECN     C1       CG331   -0.170000       12.0110           0
     41710 WT15     436      MECN     H11      HGA3     0.090000        1.0080           0
     41711 WT15     436      MECN     H12      HGA3     0.090000        1.0080           0
     41712 WT15     436      MECN     H13      HGA3     0.090000        1.0080           0
     41713 WT15     436      MECN     C2       CG1N1    0.360000       12.0110           0
     41714 WT15     436      MECN     N3       NG1T1   -0.460000       14.0070           0
     41715 WT15     439      MECN     C1       CG331   -0.170000       12.0110           0
     41716 WT15     439      MECN     H11      HGA3     0.090000        1.0080           0
     41717 WT15     439      MECN     H12      HGA3     0.090000        1.0080           0
     41718 WT15     439      MECN     H13      HGA3     0.090000        1.0080           0
     41719 WT15     439      MECN     C2       CG1N1    0.360000       12.0110           0
     41720 WT15     439      MECN     N3       NG1T1   -0.460000       14.0070           0
     41721 WT15     440      MECN     C1       CG331   -0.170000       12.0110           0
     41722 WT15     440      MECN     H11      HGA3     0.090000        1.0080           0
     41723 WT15     440      MECN     H12      HGA3     0.090000        1.0080           0
     41724 WT15     440      MECN     H13      HGA3     0.090000        1.0080           0
     41725 WT15     440      MECN     C2       CG1N1    0.360000       12.0110           0
     41726 WT15     440      MECN     N3       NG1T1   -0.460000       14.0070           0
     41727 WT15     441      MECN     C1       CG331   -0.170000       12.0110           0
     41728 WT15     441      MECN     H11      HGA3     0.090000        1.0080           0
     41729 WT15     441      MECN     H12      HGA3     0.090000        1.0080           0
     41730 WT15     441      MECN     H13      HGA3     0.090000        1.0080           0
     41731 WT15     441      MECN     C2       CG1N1    0.360000       12.0110           0
     41732 WT15     441      MECN     N3       NG1T1   -0.460000       14.0070           0
     41733 WT15     443      MECN     C1       CG331   -0.170000       12.0110           0
     41734 WT15     443      MECN     H11      HGA3     0.090000        1.0080           0
     41735 WT15     443      MECN     H12      HGA3     0.090000        1.0080           0
     41736 WT15     443      MECN     H13      HGA3     0.090000        1.0080           0
     41737 WT15     443      MECN     C2       CG1N1    0.360000       12.0110           0
     41738 WT15     443      MECN     N3       NG1T1   -0.460000       14.0070           0
     41739 WT15     444      MECN     C1       CG331   -0.170000       12.0110           0
     41740 WT15     444      MECN     H11      HGA3     0.090000        1.0080           0
     41741 WT15     444      MECN     H12      HGA3     0.090000        1.0080           0
     41742 WT15     444      MECN     H13      HGA3     0.090000        1.0080           0
     41743 WT15     444      MECN     C2       CG1N1    0.360000       12.0110           0
     41744 WT15     444      MECN     N3       NG1T1   -0.460000       14.0070           0
     41745 WT15     445      MECN     C1       CG331   -0.170000       12.0110           0
     41746 WT15     445      MECN     H11      HGA3     0.090000        1.0080           0
     41747 WT15     445      MECN     H12      HGA3     0.090000        1.0080           0
     41748 WT15     445      MECN     H13      HGA3     0.090000        1.0080           0
     41749 WT15     445      MECN     C2       CG1N1    0.360000       12.0110           0
     41750 WT15     445      MECN     N3       NG1T1   -0.460000       14.0070           0
     41751 WT15     447      MECN     C1       CG331   -0.170000       12.0110           0
     41752 WT15     447      MECN     H11      HGA3     0.090000        1.0080           0
     41753 WT15     447      MECN     H12      HGA3     0.090000        1.0080           0
     41754 WT15     447      MECN     H13      HGA3     0.090000        1.0080           0
     41755 WT15     447      MECN     C2       CG1N1    0.360000       12.0110           0
     41756 WT15     447      MECN     N3       NG1T1   -0.460000       14.0070           0
     41757 WT15     448      MECN     C1       CG331   -0.170000       12.0110           0
     41758 WT15     448      MECN     H11      HGA3     0.090000        1.0080           0
     41759 WT15     448      MECN     H12      HGA3     0.090000        1.0080           0
     41760 WT15     448      MECN     H13      HGA3     0.090000        1.0080           0
     41761 WT15     448      MECN     C2       CG1N1    0.360000       12.0110           0
     41762 WT15     448      MECN     N3       NG1T1   -0.460000       14.0070           0
     41763 WT15     449      MECN     C1       CG331   -0.170000       12.0110           0
     41764 WT15     449      MECN     H11      HGA3     0.090000        1.0080           0
     41765 WT15     449      MECN     H12      HGA3     0.090000        1.0080           0
     41766 WT15     449      MECN     H13      HGA3     0.090000        1.0080           0
     41767 WT15     449      MECN     C2       CG1N1    0.360000       12.0110           0
     41768 WT15     449      MECN     N3       NG1T1   -0.460000       14.0070           0
     41769 WT15     450      MECN     C1       CG331   -0.170000       12.0110           0
     41770 WT15     450      MECN     H11      HGA3     0.090000        1.0080           0
     41771 WT15     450      MECN     H12      HGA3     0.090000        1.0080           0
     41772 WT15     450      MECN     H13      HGA3     0.090000        1.0080           0
     41773 WT15     450      MECN     C2       CG1N1    0.360000       12.0110           0
     41774 WT15     450      MECN     N3       NG1T1   -0.460000       14.0070           0
     41775 WT15     451      MECN     C1       CG331   -0.170000       12.0110           0
     41776 WT15     451      MECN     H11      HGA3     0.090000        1.0080           0
     41777 WT15     451      MECN     H12      HGA3     0.090000        1.0080           0
     41778 WT15     451      MECN     H13      HGA3     0.090000        1.0080           0
     41779 WT15     451      MECN     C2       CG1N1    0.360000       12.0110           0
     41780 WT15     451      MECN     N3       NG1T1   -0.460000       14.0070           0
     41781 WT15     452      MECN     C1       CG331   -0.170000       12.0110           0
     41782 WT15     452      MECN     H11      HGA3     0.090000        1.0080           0
     41783 WT15     452      MECN     H12      HGA3     0.090000        1.0080           0
     41784 WT15     452      MECN     H13      HGA3     0.090000        1.0080           0
     41785 WT15     452      MECN     C2       CG1N1    0.360000       12.0110           0
     41786 WT15     452      MECN     N3       NG1T1   -0.460000       14.0070           0
     41787 WT15     454      MECN     C1       CG331   -0.170000       12.0110           0
     41788 WT15     454      MECN     H11      HGA3     0.090000        1.0080           0
     41789 WT15     454      MECN     H12      HGA3     0.090000        1.0080           0
     41790 WT15     454      MECN     H13      HGA3     0.090000        1.0080           0
     41791 WT15     454      MECN     C2       CG1N1    0.360000       12.0110           0
     41792 WT15     454      MECN     N3       NG1T1   -0.460000       14.0070           0
     41793 WT15     455      MECN     C1       CG331   -0.170000       12.0110           0
     41794 WT15     455      MECN     H11      HGA3     0.090000        1.0080           0
     41795 WT15     455      MECN     H12      HGA3     0.090000        1.0080           0
     41796 WT15     455      MECN     H13      HGA3     0.090000        1.0080           0
     41797 WT15     455      MECN     C2       CG1N1    0.360000       12.0110           0
     41798 WT15     455      MECN     N3       NG1T1   -0.460000       14.0070           0
     41799 WT15     456      MECN     C1       CG331   -0.170000       12.0110           0
     41800 WT15     456      MECN     H11      HGA3     0.090000        1.0080           0
     41801 WT15     456      MECN     H12      HGA3     0.090000        1.0080           0
     41802 WT15     456      MECN     H13      HGA3     0.090000        1.0080           0
     41803 WT15     456      MECN     C2       CG1N1    0.360000       12.0110           0
     41804 WT15     456      MECN     N3       NG1T1   -0.460000       14.0070           0
     41805 WT15     457      MECN     C1       CG331   -0.170000       12.0110           0
     41806 WT15     457      MECN     H11      HGA3     0.090000        1.0080           0
     41807 WT15     457      MECN     H12      HGA3     0.090000        1.0080           0
     41808 WT15     457      MECN     H13      HGA3     0.090000        1.0080           0
     41809 WT15     457      MECN     C2       CG1N1    0.360000       12.0110           0
     41810 WT15     457      MECN     N3       NG1T1   -0.460000       14.0070           0
     41811 WT15     459      MECN     C1       CG331   -0.170000       12.0110           0
     41812 WT15     459      MECN     H11      HGA3     0.090000        1.0080           0
     41813 WT15     459      MECN     H12      HGA3     0.090000        1.0080           0
     41814 WT15     459      MECN     H13      HGA3     0.090000        1.0080           0
     41815 WT15     459      MECN     C2       CG1N1    0.360000       12.0110           0
     41816 WT15     459      MECN     N3       NG1T1   -0.460000       14.0070           0
     41817 WT15     460      MECN     C1       CG331   -0.170000       12.0110           0
     41818 WT15     460      MECN     H11      HGA3     0.090000        1.0080           0
     41819 WT15     460      MECN     H12      HGA3     0.090000        1.0080           0
     41820 WT15     460      MECN     H13      HGA3     0.090000        1.0080           0
     41821 WT15     460      MECN     C2       CG1N1    0.360000       12.0110           0
     41822 WT15     460      MECN     N3       NG1T1   -0.460000       14.0070           0
     41823 WT15     461      MECN     C1       CG331   -0.170000       12.0110           0
     41824 WT15     461      MECN     H11      HGA3     0.090000        1.0080           0
     41825 WT15     461      MECN     H12      HGA3     0.090000        1.0080           0
     41826 WT15     461      MECN     H13      HGA3     0.090000        1.0080           0
     41827 WT15     461      MECN     C2       CG1N1    0.360000       12.0110           0
     41828 WT15     461      MECN     N3       NG1T1   -0.460000       14.0070           0
     41829 WT15     462      MECN     C1       CG331   -0.170000       12.0110           0
     41830 WT15     462      MECN     H11      HGA3     0.090000        1.0080           0
     41831 WT15     462      MECN     H12      HGA3     0.090000        1.0080           0
     41832 WT15     462      MECN     H13      HGA3     0.090000        1.0080           0
     41833 WT15     462      MECN     C2       CG1N1    0.360000       12.0110           0
     41834 WT15     462      MECN     N3       NG1T1   -0.460000       14.0070           0
     41835 WT15     463      MECN     C1       CG331   -0.170000       12.0110           0
     41836 WT15     463      MECN     H11      HGA3     0.090000        1.0080           0
     41837 WT15     463      MECN     H12      HGA3     0.090000        1.0080           0
     41838 WT15     463      MECN     H13      HGA3     0.090000        1.0080           0
     41839 WT15     463      MECN     C2       CG1N1    0.360000       12.0110           0
     41840 WT15     463      MECN     N3       NG1T1   -0.460000       14.0070           0
     41841 WT15     464      MECN     C1       CG331   -0.170000       12.0110           0
     41842 WT15     464      MECN     H11      HGA3     0.090000        1.0080           0
     41843 WT15     464      MECN     H12      HGA3     0.090000        1.0080           0
     41844 WT15     464      MECN     H13      HGA3     0.090000        1.0080           0
     41845 WT15     464      MECN     C2       CG1N1    0.360000       12.0110           0
     41846 WT15     464      MECN     N3       NG1T1   -0.460000       14.0070           0
     41847 WT15     466      MECN     C1       CG331   -0.170000       12.0110           0
     41848 WT15     466      MECN     H11      HGA3     0.090000        1.0080           0
     41849 WT15     466      MECN     H12      HGA3     0.090000        1.0080           0
     41850 WT15     466      MECN     H13      HGA3     0.090000        1.0080           0
     41851 WT15     466      MECN     C2       CG1N1    0.360000       12.0110           0
     41852 WT15     466      MECN     N3       NG1T1   -0.460000       14.0070           0
     41853 WT15     468      MECN     C1       CG331   -0.170000       12.0110           0
     41854 WT15     468      MECN     H11      HGA3     0.090000        1.0080           0
     41855 WT15     468      MECN     H12      HGA3     0.090000        1.0080           0
     41856 WT15     468      MECN     H13      HGA3     0.090000        1.0080           0
     41857 WT15     468      MECN     C2       CG1N1    0.360000       12.0110           0
     41858 WT15     468      MECN     N3       NG1T1   -0.460000       14.0070           0
     41859 WT15     470      MECN     C1       CG331   -0.170000       12.0110           0
     41860 WT15     470      MECN     H11      HGA3     0.090000        1.0080           0
     41861 WT15     470      MECN     H12      HGA3     0.090000        1.0080           0
     41862 WT15     470      MECN     H13      HGA3     0.090000        1.0080           0
     41863 WT15     470      MECN     C2       CG1N1    0.360000       12.0110           0
     41864 WT15     470      MECN     N3       NG1T1   -0.460000       14.0070           0
     41865 WT15     472      MECN     C1       CG331   -0.170000       12.0110           0
     41866 WT15     472      MECN     H11      HGA3     0.090000        1.0080           0
     41867 WT15     472      MECN     H12      HGA3     0.090000        1.0080           0
     41868 WT15     472      MECN     H13      HGA3     0.090000        1.0080           0
     41869 WT15     472      MECN     C2       CG1N1    0.360000       12.0110           0
     41870 WT15     472      MECN     N3       NG1T1   -0.460000       14.0070           0
     41871 WT15     473      MECN     C1       CG331   -0.170000       12.0110           0
     41872 WT15     473      MECN     H11      HGA3     0.090000        1.0080           0
     41873 WT15     473      MECN     H12      HGA3     0.090000        1.0080           0
     41874 WT15     473      MECN     H13      HGA3     0.090000        1.0080           0
     41875 WT15     473      MECN     C2       CG1N1    0.360000       12.0110           0
     41876 WT15     473      MECN     N3       NG1T1   -0.460000       14.0070           0
     41877 WT15     475      MECN     C1       CG331   -0.170000       12.0110           0
     41878 WT15     475      MECN     H11      HGA3     0.090000        1.0080           0
     41879 WT15     475      MECN     H12      HGA3     0.090000        1.0080           0
     41880 WT15     475      MECN     H13      HGA3     0.090000        1.0080           0
     41881 WT15     475      MECN     C2       CG1N1    0.360000       12.0110           0
     41882 WT15     475      MECN     N3       NG1T1   -0.460000       14.0070           0
     41883 WT15     476      MECN     C1       CG331   -0.170000       12.0110           0
     41884 WT15     476      MECN     H11      HGA3     0.090000        1.0080           0
     41885 WT15     476      MECN     H12      HGA3     0.090000        1.0080           0
     41886 WT15     476      MECN     H13      HGA3     0.090000        1.0080           0
     41887 WT15     476      MECN     C2       CG1N1    0.360000       12.0110           0
     41888 WT15     476      MECN     N3       NG1T1   -0.460000       14.0070           0
     41889 WT15     477      MECN     C1       CG331   -0.170000       12.0110           0
     41890 WT15     477      MECN     H11      HGA3     0.090000        1.0080           0
     41891 WT15     477      MECN     H12      HGA3     0.090000        1.0080           0
     41892 WT15     477      MECN     H13      HGA3     0.090000        1.0080           0
     41893 WT15     477      MECN     C2       CG1N1    0.360000       12.0110           0
     41894 WT15     477      MECN     N3       NG1T1   -0.460000       14.0070           0
     41895 WT15     479      MECN     C1       CG331   -0.170000       12.0110           0
     41896 WT15     479      MECN     H11      HGA3     0.090000        1.0080           0
     41897 WT15     479      MECN     H12      HGA3     0.090000        1.0080           0
     41898 WT15     479      MECN     H13      HGA3     0.090000        1.0080           0
     41899 WT15     479      MECN     C2       CG1N1    0.360000       12.0110           0
     41900 WT15     479      MECN     N3       NG1T1   -0.460000       14.0070           0
     41901 WT15     480      MECN     C1       CG331   -0.170000       12.0110           0
     41902 WT15     480      MECN     H11      HGA3     0.090000        1.0080           0
     41903 WT15     480      MECN     H12      HGA3     0.090000        1.0080           0
     41904 WT15     480      MECN     H13      HGA3     0.090000        1.0080           0
     41905 WT15     480      MECN     C2       CG1N1    0.360000       12.0110           0
     41906 WT15     480      MECN     N3       NG1T1   -0.460000       14.0070           0
     41907 WT15     482      MECN     C1       CG331   -0.170000       12.0110           0
     41908 WT15     482      MECN     H11      HGA3     0.090000        1.0080           0
     41909 WT15     482      MECN     H12      HGA3     0.090000        1.0080           0
     41910 WT15     482      MECN     H13      HGA3     0.090000        1.0080           0
     41911 WT15     482      MECN     C2       CG1N1    0.360000       12.0110           0
     41912 WT15     482      MECN     N3       NG1T1   -0.460000       14.0070           0
     41913 WT15     483      MECN     C1       CG331   -0.170000       12.0110           0
     41914 WT15     483      MECN     H11      HGA3     0.090000        1.0080           0
     41915 WT15     483      MECN     H12      HGA3     0.090000        1.0080           0
     41916 WT15     483      MECN     H13      HGA3     0.090000        1.0080           0
     41917 WT15     483      MECN     C2       CG1N1    0.360000       12.0110           0
     41918 WT15     483      MECN     N3       NG1T1   -0.460000       14.0070           0
     41919 WT15     484      MECN     C1       CG331   -0.170000       12.0110           0
     41920 WT15     484      MECN     H11      HGA3     0.090000        1.0080           0
     41921 WT15     484      MECN     H12      HGA3     0.090000        1.0080           0
     41922 WT15     484      MECN     H13      HGA3     0.090000        1.0080           0
     41923 WT15     484      MECN     C2       CG1N1    0.360000       12.0110           0
     41924 WT15     484      MECN     N3       NG1T1   -0.460000       14.0070           0
     41925 WT15     485      MECN     C1       CG331   -0.170000       12.0110           0
     41926 WT15     485      MECN     H11      HGA3     0.090000        1.0080           0
     41927 WT15     485      MECN     H12      HGA3     0.090000        1.0080           0
     41928 WT15     485      MECN     H13      HGA3     0.090000        1.0080           0
     41929 WT15     485      MECN     C2       CG1N1    0.360000       12.0110           0
     41930 WT15     485      MECN     N3       NG1T1   -0.460000       14.0070           0
     41931 WT15     486      MECN     C1       CG331   -0.170000       12.0110           0
     41932 WT15     486      MECN     H11      HGA3     0.090000        1.0080           0
     41933 WT15     486      MECN     H12      HGA3     0.090000        1.0080           0
     41934 WT15     486      MECN     H13      HGA3     0.090000        1.0080           0
     41935 WT15     486      MECN     C2       CG1N1    0.360000       12.0110           0
     41936 WT15     486      MECN     N3       NG1T1   -0.460000       14.0070           0
     41937 WT15     487      MECN     C1       CG331   -0.170000       12.0110           0
     41938 WT15     487      MECN     H11      HGA3     0.090000        1.0080           0
     41939 WT15     487      MECN     H12      HGA3     0.090000        1.0080           0
     41940 WT15     487      MECN     H13      HGA3     0.090000        1.0080           0
     41941 WT15     487      MECN     C2       CG1N1    0.360000       12.0110           0
     41942 WT15     487      MECN     N3       NG1T1   -0.460000       14.0070           0
     41943 WT15     488      MECN     C1       CG331   -0.170000       12.0110           0
     41944 WT15     488      MECN     H11      HGA3     0.090000        1.0080           0
     41945 WT15     488      MECN     H12      HGA3     0.090000        1.0080           0
     41946 WT15     488      MECN     H13      HGA3     0.090000        1.0080           0
     41947 WT15     488      MECN     C2       CG1N1    0.360000       12.0110           0
     41948 WT15     488      MECN     N3       NG1T1   -0.460000       14.0070           0
     41949 WT15     489      MECN     C1       CG331   -0.170000       12.0110           0
     41950 WT15     489      MECN     H11      HGA3     0.090000        1.0080           0
     41951 WT15     489      MECN     H12      HGA3     0.090000        1.0080           0
     41952 WT15     489      MECN     H13      HGA3     0.090000        1.0080           0
     41953 WT15     489      MECN     C2       CG1N1    0.360000       12.0110           0
     41954 WT15     489      MECN     N3       NG1T1   -0.460000       14.0070           0
     41955 WT15     490      MECN     C1       CG331   -0.170000       12.0110           0
     41956 WT15     490      MECN     H11      HGA3     0.090000        1.0080           0
     41957 WT15     490      MECN     H12      HGA3     0.090000        1.0080           0
     41958 WT15     490      MECN     H13      HGA3     0.090000        1.0080           0
     41959 WT15     490      MECN     C2       CG1N1    0.360000       12.0110           0
     41960 WT15     490      MECN     N3       NG1T1   -0.460000       14.0070           0
     41961 WT15     491      MECN     C1       CG331   -0.170000       12.0110           0
     41962 WT15     491      MECN     H11      HGA3     0.090000        1.0080           0
     41963 WT15     491      MECN     H12      HGA3     0.090000        1.0080           0
     41964 WT15     491      MECN     H13      HGA3     0.090000        1.0080           0
     41965 WT15     491      MECN     C2       CG1N1    0.360000       12.0110           0
     41966 WT15     491      MECN     N3       NG1T1   -0.460000       14.0070           0
     41967 WT15     493      MECN     C1       CG331   -0.170000       12.0110           0
     41968 WT15     493      MECN     H11      HGA3     0.090000        1.0080           0
     41969 WT15     493      MECN     H12      HGA3     0.090000        1.0080           0
     41970 WT15     493      MECN     H13      HGA3     0.090000        1.0080           0
     41971 WT15     493      MECN     C2       CG1N1    0.360000       12.0110           0
     41972 WT15     493      MECN     N3       NG1T1   -0.460000       14.0070           0
     41973 WT15     494      MECN     C1       CG331   -0.170000       12.0110           0
     41974 WT15     494      MECN     H11      HGA3     0.090000        1.0080           0
     41975 WT15     494      MECN     H12      HGA3     0.090000        1.0080           0
     41976 WT15     494      MECN     H13      HGA3     0.090000        1.0080           0
     41977 WT15     494      MECN     C2       CG1N1    0.360000       12.0110           0
     41978 WT15     494      MECN     N3       NG1T1   -0.460000       14.0070           0
     41979 WT15     496      MECN     C1       CG331   -0.170000       12.0110           0
     41980 WT15     496      MECN     H11      HGA3     0.090000        1.0080           0
     41981 WT15     496      MECN     H12      HGA3     0.090000        1.0080           0
     41982 WT15     496      MECN     H13      HGA3     0.090000        1.0080           0
     41983 WT15     496      MECN     C2       CG1N1    0.360000       12.0110           0
     41984 WT15     496      MECN     N3       NG1T1   -0.460000       14.0070           0
     41985 WT15     497      MECN     C1       CG331   -0.170000       12.0110           0
     41986 WT15     497      MECN     H11      HGA3     0.090000        1.0080           0
     41987 WT15     497      MECN     H12      HGA3     0.090000        1.0080           0
     41988 WT15     497      MECN     H13      HGA3     0.090000        1.0080           0
     41989 WT15     497      MECN     C2       CG1N1    0.360000       12.0110           0
     41990 WT15     497      MECN     N3       NG1T1   -0.460000       14.0070           0
     41991 WT15     498      MECN     C1       CG331   -0.170000       12.0110           0
     41992 WT15     498      MECN     H11      HGA3     0.090000        1.0080           0
     41993 WT15     498      MECN     H12      HGA3     0.090000        1.0080           0
     41994 WT15     498      MECN     H13      HGA3     0.090000        1.0080           0
     41995 WT15     498      MECN     C2       CG1N1    0.360000       12.0110           0
     41996 WT15     498      MECN     N3       NG1T1   -0.460000       14.0070           0
     41997 WT15     499      MECN     C1       CG331   -0.170000       12.0110           0
     41998 WT15     499      MECN     H11      HGA3     0.090000        1.0080           0
     41999 WT15     499      MECN     H12      HGA3     0.090000        1.0080           0
     42000 WT15     499      MECN     H13      HGA3     0.090000        1.0080           0
     42001 WT15     499      MECN     C2       CG1N1    0.360000       12.0110           0
     42002 WT15     499      MECN     N3       NG1T1   -0.460000       14.0070           0
     42003 WT15     500      MECN     C1       CG331   -0.170000       12.0110           0
     42004 WT15     500      MECN     H11      HGA3     0.090000        1.0080           0
     42005 WT15     500      MECN     H12      HGA3     0.090000        1.0080           0
     42006 WT15     500      MECN     H13      HGA3     0.090000        1.0080           0
     42007 WT15     500      MECN     C2       CG1N1    0.360000       12.0110           0
     42008 WT15     500      MECN     N3       NG1T1   -0.460000       14.0070           0
     42009 WT15     501      MECN     C1       CG331   -0.170000       12.0110           0
     42010 WT15     501      MECN     H11      HGA3     0.090000        1.0080           0
     42011 WT15     501      MECN     H12      HGA3     0.090000        1.0080           0
     42012 WT15     501      MECN     H13      HGA3     0.090000        1.0080           0
     42013 WT15     501      MECN     C2       CG1N1    0.360000       12.0110           0
     42014 WT15     501      MECN     N3       NG1T1   -0.460000       14.0070           0
     42015 WT15     502      MECN     C1       CG331   -0.170000       12.0110           0
     42016 WT15     502      MECN     H11      HGA3     0.090000        1.0080           0
     42017 WT15     502      MECN     H12      HGA3     0.090000        1.0080           0
     42018 WT15     502      MECN     H13      HGA3     0.090000        1.0080           0
     42019 WT15     502      MECN     C2       CG1N1    0.360000       12.0110           0
     42020 WT15     502      MECN     N3       NG1T1   -0.460000       14.0070           0
     42021 WT15     503      MECN     C1       CG331   -0.170000       12.0110           0
     42022 WT15     503      MECN     H11      HGA3     0.090000        1.0080           0
     42023 WT15     503      MECN     H12      HGA3     0.090000        1.0080           0
     42024 WT15     503      MECN     H13      HGA3     0.090000        1.0080           0
     42025 WT15     503      MECN     C2       CG1N1    0.360000       12.0110           0
     42026 WT15     503      MECN     N3       NG1T1   -0.460000       14.0070           0
     42027 WT15     504      MECN     C1       CG331   -0.170000       12.0110           0
     42028 WT15     504      MECN     H11      HGA3     0.090000        1.0080           0
     42029 WT15     504      MECN     H12      HGA3     0.090000        1.0080           0
     42030 WT15     504      MECN     H13      HGA3     0.090000        1.0080           0
     42031 WT15     504      MECN     C2       CG1N1    0.360000       12.0110           0
     42032 WT15     504      MECN     N3       NG1T1   -0.460000       14.0070           0
     42033 WT15     506      MECN     C1       CG331   -0.170000       12.0110           0
     42034 WT15     506      MECN     H11      HGA3     0.090000        1.0080           0
     42035 WT15     506      MECN     H12      HGA3     0.090000        1.0080           0
     42036 WT15     506      MECN     H13      HGA3     0.090000        1.0080           0
     42037 WT15     506      MECN     C2       CG1N1    0.360000       12.0110           0
     42038 WT15     506      MECN     N3       NG1T1   -0.460000       14.0070           0
     42039 WT15     507      MECN     C1       CG331   -0.170000       12.0110           0
     42040 WT15     507      MECN     H11      HGA3     0.090000        1.0080           0
     42041 WT15     507      MECN     H12      HGA3     0.090000        1.0080           0
     42042 WT15     507      MECN     H13      HGA3     0.090000        1.0080           0
     42043 WT15     507      MECN     C2       CG1N1    0.360000       12.0110           0
     42044 WT15     507      MECN     N3       NG1T1   -0.460000       14.0070           0
     42045 WT15     508      MECN     C1       CG331   -0.170000       12.0110           0
     42046 WT15     508      MECN     H11      HGA3     0.090000        1.0080           0
     42047 WT15     508      MECN     H12      HGA3     0.090000        1.0080           0
     42048 WT15     508      MECN     H13      HGA3     0.090000        1.0080           0
     42049 WT15     508      MECN     C2       CG1N1    0.360000       12.0110           0
     42050 WT15     508      MECN     N3       NG1T1   -0.460000       14.0070           0
     42051 WT15     509      MECN     C1       CG331   -0.170000       12.0110           0
     42052 WT15     509      MECN     H11      HGA3     0.090000        1.0080           0
     42053 WT15     509      MECN     H12      HGA3     0.090000        1.0080           0
     42054 WT15     509      MECN     H13      HGA3     0.090000        1.0080           0
     42055 WT15     509      MECN     C2       CG1N1    0.360000       12.0110           0
     42056 WT15     509      MECN     N3       NG1T1   -0.460000       14.0070           0
     42057 WT15     511      MECN     C1       CG331   -0.170000       12.0110           0
     42058 WT15     511      MECN     H11      HGA3     0.090000        1.0080           0
     42059 WT15     511      MECN     H12      HGA3     0.090000        1.0080           0
     42060 WT15     511      MECN     H13      HGA3     0.090000        1.0080           0
     42061 WT15     511      MECN     C2       CG1N1    0.360000       12.0110           0
     42062 WT15     511      MECN     N3       NG1T1   -0.460000       14.0070           0
     42063 WT15     512      MECN     C1       CG331   -0.170000       12.0110           0
     42064 WT15     512      MECN     H11      HGA3     0.090000        1.0080           0
     42065 WT15     512      MECN     H12      HGA3     0.090000        1.0080           0
     42066 WT15     512      MECN     H13      HGA3     0.090000        1.0080           0
     42067 WT15     512      MECN     C2       CG1N1    0.360000       12.0110           0
     42068 WT15     512      MECN     N3       NG1T1   -0.460000       14.0070           0
     42069 WT15     513      MECN     C1       CG331   -0.170000       12.0110           0
     42070 WT15     513      MECN     H11      HGA3     0.090000        1.0080           0
     42071 WT15     513      MECN     H12      HGA3     0.090000        1.0080           0
     42072 WT15     513      MECN     H13      HGA3     0.090000        1.0080           0
     42073 WT15     513      MECN     C2       CG1N1    0.360000       12.0110           0
     42074 WT15     513      MECN     N3       NG1T1   -0.460000       14.0070           0
     42075 WT15     514      MECN     C1       CG331   -0.170000       12.0110           0
     42076 WT15     514      MECN     H11      HGA3     0.090000        1.0080           0
     42077 WT15     514      MECN     H12      HGA3     0.090000        1.0080           0
     42078 WT15     514      MECN     H13      HGA3     0.090000        1.0080           0
     42079 WT15     514      MECN     C2       CG1N1    0.360000       12.0110           0
     42080 WT15     514      MECN     N3       NG1T1   -0.460000       14.0070           0
     42081 WT15     515      MECN     C1       CG331   -0.170000       12.0110           0
     42082 WT15     515      MECN     H11      HGA3     0.090000        1.0080           0
     42083 WT15     515      MECN     H12      HGA3     0.090000        1.0080           0
     42084 WT15     515      MECN     H13      HGA3     0.090000        1.0080           0
     42085 WT15     515      MECN     C2       CG1N1    0.360000       12.0110           0
     42086 WT15     515      MECN     N3       NG1T1   -0.460000       14.0070           0
     42087 WT15     516      MECN     C1       CG331   -0.170000       12.0110           0
     42088 WT15     516      MECN     H11      HGA3     0.090000        1.0080           0
     42089 WT15     516      MECN     H12      HGA3     0.090000        1.0080           0
     42090 WT15     516      MECN     H13      HGA3     0.090000        1.0080           0
     42091 WT15     516      MECN     C2       CG1N1    0.360000       12.0110           0
     42092 WT15     516      MECN     N3       NG1T1   -0.460000       14.0070           0
     42093 WT15     518      MECN     C1       CG331   -0.170000       12.0110           0
     42094 WT15     518      MECN     H11      HGA3     0.090000        1.0080           0
     42095 WT15     518      MECN     H12      HGA3     0.090000        1.0080           0
     42096 WT15     518      MECN     H13      HGA3     0.090000        1.0080           0
     42097 WT15     518      MECN     C2       CG1N1    0.360000       12.0110           0
     42098 WT15     518      MECN     N3       NG1T1   -0.460000       14.0070           0
     42099 WT15     519      MECN     C1       CG331   -0.170000       12.0110           0
     42100 WT15     519      MECN     H11      HGA3     0.090000        1.0080           0
     42101 WT15     519      MECN     H12      HGA3     0.090000        1.0080           0
     42102 WT15     519      MECN     H13      HGA3     0.090000        1.0080           0
     42103 WT15     519      MECN     C2       CG1N1    0.360000       12.0110           0
     42104 WT15     519      MECN     N3       NG1T1   -0.460000       14.0070           0
     42105 WT15     521      MECN     C1       CG331   -0.170000       12.0110           0
     42106 WT15     521      MECN     H11      HGA3     0.090000        1.0080           0
     42107 WT15     521      MECN     H12      HGA3     0.090000        1.0080           0
     42108 WT15     521      MECN     H13      HGA3     0.090000        1.0080           0
     42109 WT15     521      MECN     C2       CG1N1    0.360000       12.0110           0
     42110 WT15     521      MECN     N3       NG1T1   -0.460000       14.0070           0
     42111 WT15     522      MECN     C1       CG331   -0.170000       12.0110           0
     42112 WT15     522      MECN     H11      HGA3     0.090000        1.0080           0
     42113 WT15     522      MECN     H12      HGA3     0.090000        1.0080           0
     42114 WT15     522      MECN     H13      HGA3     0.090000        1.0080           0
     42115 WT15     522      MECN     C2       CG1N1    0.360000       12.0110           0
     42116 WT15     522      MECN     N3       NG1T1   -0.460000       14.0070           0
     42117 WT15     523      MECN     C1       CG331   -0.170000       12.0110           0
     42118 WT15     523      MECN     H11      HGA3     0.090000        1.0080           0
     42119 WT15     523      MECN     H12      HGA3     0.090000        1.0080           0
     42120 WT15     523      MECN     H13      HGA3     0.090000        1.0080           0
     42121 WT15     523      MECN     C2       CG1N1    0.360000       12.0110           0
     42122 WT15     523      MECN     N3       NG1T1   -0.460000       14.0070           0
     42123 WT15     524      MECN     C1       CG331   -0.170000       12.0110           0
     42124 WT15     524      MECN     H11      HGA3     0.090000        1.0080           0
     42125 WT15     524      MECN     H12      HGA3     0.090000        1.0080           0
     42126 WT15     524      MECN     H13      HGA3     0.090000        1.0080           0
     42127 WT15     524      MECN     C2       CG1N1    0.360000       12.0110           0
     42128 WT15     524      MECN     N3       NG1T1   -0.460000       14.0070           0
     42129 WT15     526      MECN     C1       CG331   -0.170000       12.0110           0
     42130 WT15     526      MECN     H11      HGA3     0.090000        1.0080           0
     42131 WT15     526      MECN     H12      HGA3     0.090000        1.0080           0
     42132 WT15     526      MECN     H13      HGA3     0.090000        1.0080           0
     42133 WT15     526      MECN     C2       CG1N1    0.360000       12.0110           0
     42134 WT15     526      MECN     N3       NG1T1   -0.460000       14.0070           0
     42135 WT15     529      MECN     C1       CG331   -0.170000       12.0110           0
     42136 WT15     529      MECN     H11      HGA3     0.090000        1.0080           0
     42137 WT15     529      MECN     H12      HGA3     0.090000        1.0080           0
     42138 WT15     529      MECN     H13      HGA3     0.090000        1.0080           0
     42139 WT15     529      MECN     C2       CG1N1    0.360000       12.0110           0
     42140 WT15     529      MECN     N3       NG1T1   -0.460000       14.0070           0
     42141 WT15     530      MECN     C1       CG331   -0.170000       12.0110           0
     42142 WT15     530      MECN     H11      HGA3     0.090000        1.0080           0
     42143 WT15     530      MECN     H12      HGA3     0.090000        1.0080           0
     42144 WT15     530      MECN     H13      HGA3     0.090000        1.0080           0
     42145 WT15     530      MECN     C2       CG1N1    0.360000       12.0110           0
     42146 WT15     530      MECN     N3       NG1T1   -0.460000       14.0070           0
     42147 WT15     532      MECN     C1       CG331   -0.170000       12.0110           0
     42148 WT15     532      MECN     H11      HGA3     0.090000        1.0080           0
     42149 WT15     532      MECN     H12      HGA3     0.090000        1.0080           0
     42150 WT15     532      MECN     H13      HGA3     0.090000        1.0080           0
     42151 WT15     532      MECN     C2       CG1N1    0.360000       12.0110           0
     42152 WT15     532      MECN     N3       NG1T1   -0.460000       14.0070           0
     42153 WT15     533      MECN     C1       CG331   -0.170000       12.0110           0
     42154 WT15     533      MECN     H11      HGA3     0.090000        1.0080           0
     42155 WT15     533      MECN     H12      HGA3     0.090000        1.0080           0
     42156 WT15     533      MECN     H13      HGA3     0.090000        1.0080           0
     42157 WT15     533      MECN     C2       CG1N1    0.360000       12.0110           0
     42158 WT15     533      MECN     N3       NG1T1   -0.460000       14.0070           0
     42159 WT15     534      MECN     C1       CG331   -0.170000       12.0110           0
     42160 WT15     534      MECN     H11      HGA3     0.090000        1.0080           0
     42161 WT15     534      MECN     H12      HGA3     0.090000        1.0080           0
     42162 WT15     534      MECN     H13      HGA3     0.090000        1.0080           0
     42163 WT15     534      MECN     C2       CG1N1    0.360000       12.0110           0
     42164 WT15     534      MECN     N3       NG1T1   -0.460000       14.0070           0
     42165 WT15     536      MECN     C1       CG331   -0.170000       12.0110           0
     42166 WT15     536      MECN     H11      HGA3     0.090000        1.0080           0
     42167 WT15     536      MECN     H12      HGA3     0.090000        1.0080           0
     42168 WT15     536      MECN     H13      HGA3     0.090000        1.0080           0
     42169 WT15     536      MECN     C2       CG1N1    0.360000       12.0110           0
     42170 WT15     536      MECN     N3       NG1T1   -0.460000       14.0070           0
     42171 WT15     537      MECN     C1       CG331   -0.170000       12.0110           0
     42172 WT15     537      MECN     H11      HGA3     0.090000        1.0080           0
     42173 WT15     537      MECN     H12      HGA3     0.090000        1.0080           0
     42174 WT15     537      MECN     H13      HGA3     0.090000        1.0080           0
     42175 WT15     537      MECN     C2       CG1N1    0.360000       12.0110           0
     42176 WT15     537      MECN     N3       NG1T1   -0.460000       14.0070           0
     42177 WT15     538      MECN     C1       CG331   -0.170000       12.0110           0
     42178 WT15     538      MECN     H11      HGA3     0.090000        1.0080           0
     42179 WT15     538      MECN     H12      HGA3     0.090000        1.0080           0
     42180 WT15     538      MECN     H13      HGA3     0.090000        1.0080           0
     42181 WT15     538      MECN     C2       CG1N1    0.360000       12.0110           0
     42182 WT15     538      MECN     N3       NG1T1   -0.460000       14.0070           0
     42183 WT15     539      MECN     C1       CG331   -0.170000       12.0110           0
     42184 WT15     539      MECN     H11      HGA3     0.090000        1.0080           0
     42185 WT15     539      MECN     H12      HGA3     0.090000        1.0080           0
     42186 WT15     539      MECN     H13      HGA3     0.090000        1.0080           0
     42187 WT15     539      MECN     C2       CG1N1    0.360000       12.0110           0
     42188 WT15     539      MECN     N3       NG1T1   -0.460000       14.0070           0
     42189 WT15     540      MECN     C1       CG331   -0.170000       12.0110           0
     42190 WT15     540      MECN     H11      HGA3     0.090000        1.0080           0
     42191 WT15     540      MECN     H12      HGA3     0.090000        1.0080           0
     42192 WT15     540      MECN     H13      HGA3     0.090000        1.0080           0
     42193 WT15     540      MECN     C2       CG1N1    0.360000       12.0110           0
     42194 WT15     540      MECN     N3       NG1T1   -0.460000       14.0070           0
     42195 WT15     541      MECN     C1       CG331   -0.170000       12.0110           0
     42196 WT15     541      MECN     H11      HGA3     0.090000        1.0080           0
     42197 WT15     541      MECN     H12      HGA3     0.090000        1.0080           0
     42198 WT15     541      MECN     H13      HGA3     0.090000        1.0080           0
     42199 WT15     541      MECN     C2       CG1N1    0.360000       12.0110           0
     42200 WT15     541      MECN     N3       NG1T1   -0.460000       14.0070           0
     42201 WT15     545      MECN     C1       CG331   -0.170000       12.0110           0
     42202 WT15     545      MECN     H11      HGA3     0.090000        1.0080           0
     42203 WT15     545      MECN     H12      HGA3     0.090000        1.0080           0
     42204 WT15     545      MECN     H13      HGA3     0.090000        1.0080           0
     42205 WT15     545      MECN     C2       CG1N1    0.360000       12.0110           0
     42206 WT15     545      MECN     N3       NG1T1   -0.460000       14.0070           0
     42207 WT15     546      MECN     C1       CG331   -0.170000       12.0110           0
     42208 WT15     546      MECN     H11      HGA3     0.090000        1.0080           0
     42209 WT15     546      MECN     H12      HGA3     0.090000        1.0080           0
     42210 WT15     546      MECN     H13      HGA3     0.090000        1.0080           0
     42211 WT15     546      MECN     C2       CG1N1    0.360000       12.0110           0
     42212 WT15     546      MECN     N3       NG1T1   -0.460000       14.0070           0
     42213 WT15     547      MECN     C1       CG331   -0.170000       12.0110           0
     42214 WT15     547      MECN     H11      HGA3     0.090000        1.0080           0
     42215 WT15     547      MECN     H12      HGA3     0.090000        1.0080           0
     42216 WT15     547      MECN     H13      HGA3     0.090000        1.0080           0
     42217 WT15     547      MECN     C2       CG1N1    0.360000       12.0110           0
     42218 WT15     547      MECN     N3       NG1T1   -0.460000       14.0070           0
     42219 WT15     548      MECN     C1       CG331   -0.170000       12.0110           0
     42220 WT15     548      MECN     H11      HGA3     0.090000        1.0080           0
     42221 WT15     548      MECN     H12      HGA3     0.090000        1.0080           0
     42222 WT15     548      MECN     H13      HGA3     0.090000        1.0080           0
     42223 WT15     548      MECN     C2       CG1N1    0.360000       12.0110           0
     42224 WT15     548      MECN     N3       NG1T1   -0.460000       14.0070           0
     42225 WT15     549      MECN     C1       CG331   -0.170000       12.0110           0
     42226 WT15     549      MECN     H11      HGA3     0.090000        1.0080           0
     42227 WT15     549      MECN     H12      HGA3     0.090000        1.0080           0
     42228 WT15     549      MECN     H13      HGA3     0.090000        1.0080           0
     42229 WT15     549      MECN     C2       CG1N1    0.360000       12.0110           0
     42230 WT15     549      MECN     N3       NG1T1   -0.460000       14.0070           0
     42231 WT15     550      MECN     C1       CG331   -0.170000       12.0110           0
     42232 WT15     550      MECN     H11      HGA3     0.090000        1.0080           0
     42233 WT15     550      MECN     H12      HGA3     0.090000        1.0080           0
     42234 WT15     550      MECN     H13      HGA3     0.090000        1.0080           0
     42235 WT15     550      MECN     C2       CG1N1    0.360000       12.0110           0
     42236 WT15     550      MECN     N3       NG1T1   -0.460000       14.0070           0
     42237 WT15     551      MECN     C1       CG331   -0.170000       12.0110           0
     42238 WT15     551      MECN     H11      HGA3     0.090000        1.0080           0
     42239 WT15     551      MECN     H12      HGA3     0.090000        1.0080           0
     42240 WT15     551      MECN     H13      HGA3     0.090000        1.0080           0
     42241 WT15     551      MECN     C2       CG1N1    0.360000       12.0110           0
     42242 WT15     551      MECN     N3       NG1T1   -0.460000       14.0070           0
     42243 WT15     552      MECN     C1       CG331   -0.170000       12.0110           0
     42244 WT15     552      MECN     H11      HGA3     0.090000        1.0080           0
     42245 WT15     552      MECN     H12      HGA3     0.090000        1.0080           0
     42246 WT15     552      MECN     H13      HGA3     0.090000        1.0080           0
     42247 WT15     552      MECN     C2       CG1N1    0.360000       12.0110           0
     42248 WT15     552      MECN     N3       NG1T1   -0.460000       14.0070           0
     42249 WT15     555      MECN     C1       CG331   -0.170000       12.0110           0
     42250 WT15     555      MECN     H11      HGA3     0.090000        1.0080           0
     42251 WT15     555      MECN     H12      HGA3     0.090000        1.0080           0
     42252 WT15     555      MECN     H13      HGA3     0.090000        1.0080           0
     42253 WT15     555      MECN     C2       CG1N1    0.360000       12.0110           0
     42254 WT15     555      MECN     N3       NG1T1   -0.460000       14.0070           0
     42255 WT15     557      MECN     C1       CG331   -0.170000       12.0110           0
     42256 WT15     557      MECN     H11      HGA3     0.090000        1.0080           0
     42257 WT15     557      MECN     H12      HGA3     0.090000        1.0080           0
     42258 WT15     557      MECN     H13      HGA3     0.090000        1.0080           0
     42259 WT15     557      MECN     C2       CG1N1    0.360000       12.0110           0
     42260 WT15     557      MECN     N3       NG1T1   -0.460000       14.0070           0
     42261 WT15     559      MECN     C1       CG331   -0.170000       12.0110           0
     42262 WT15     559      MECN     H11      HGA3     0.090000        1.0080           0
     42263 WT15     559      MECN     H12      HGA3     0.090000        1.0080           0
     42264 WT15     559      MECN     H13      HGA3     0.090000        1.0080           0
     42265 WT15     559      MECN     C2       CG1N1    0.360000       12.0110           0
     42266 WT15     559      MECN     N3       NG1T1   -0.460000       14.0070           0
     42267 WT15     560      MECN     C1       CG331   -0.170000       12.0110           0
     42268 WT15     560      MECN     H11      HGA3     0.090000        1.0080           0
     42269 WT15     560      MECN     H12      HGA3     0.090000        1.0080           0
     42270 WT15     560      MECN     H13      HGA3     0.090000        1.0080           0
     42271 WT15     560      MECN     C2       CG1N1    0.360000       12.0110           0
     42272 WT15     560      MECN     N3       NG1T1   -0.460000       14.0070           0
     42273 WT15     561      MECN     C1       CG331   -0.170000       12.0110           0
     42274 WT15     561      MECN     H11      HGA3     0.090000        1.0080           0
     42275 WT15     561      MECN     H12      HGA3     0.090000        1.0080           0
     42276 WT15     561      MECN     H13      HGA3     0.090000        1.0080           0
     42277 WT15     561      MECN     C2       CG1N1    0.360000       12.0110           0
     42278 WT15     561      MECN     N3       NG1T1   -0.460000       14.0070           0
     42279 WT15     562      MECN     C1       CG331   -0.170000       12.0110           0
     42280 WT15     562      MECN     H11      HGA3     0.090000        1.0080           0
     42281 WT15     562      MECN     H12      HGA3     0.090000        1.0080           0
     42282 WT15     562      MECN     H13      HGA3     0.090000        1.0080           0
     42283 WT15     562      MECN     C2       CG1N1    0.360000       12.0110           0
     42284 WT15     562      MECN     N3       NG1T1   -0.460000       14.0070           0
     42285 WT15     563      MECN     C1       CG331   -0.170000       12.0110           0
     42286 WT15     563      MECN     H11      HGA3     0.090000        1.0080           0
     42287 WT15     563      MECN     H12      HGA3     0.090000        1.0080           0
     42288 WT15     563      MECN     H13      HGA3     0.090000        1.0080           0
     42289 WT15     563      MECN     C2       CG1N1    0.360000       12.0110           0
     42290 WT15     563      MECN     N3       NG1T1   -0.460000       14.0070           0
     42291 WT15     564      MECN     C1       CG331   -0.170000       12.0110           0
     42292 WT15     564      MECN     H11      HGA3     0.090000        1.0080           0
     42293 WT15     564      MECN     H12      HGA3     0.090000        1.0080           0
     42294 WT15     564      MECN     H13      HGA3     0.090000        1.0080           0
     42295 WT15     564      MECN     C2       CG1N1    0.360000       12.0110           0
     42296 WT15     564      MECN     N3       NG1T1   -0.460000       14.0070           0
     42297 WT15     565      MECN     C1       CG331   -0.170000       12.0110           0
     42298 WT15     565      MECN     H11      HGA3     0.090000        1.0080           0
     42299 WT15     565      MECN     H12      HGA3     0.090000        1.0080           0
     42300 WT15     565      MECN     H13      HGA3     0.090000        1.0080           0
     42301 WT15     565      MECN     C2       CG1N1    0.360000       12.0110           0
     42302 WT15     565      MECN     N3       NG1T1   -0.460000       14.0070           0
     42303 WT15     567      MECN     C1       CG331   -0.170000       12.0110           0
     42304 WT15     567      MECN     H11      HGA3     0.090000        1.0080           0
     42305 WT15     567      MECN     H12      HGA3     0.090000        1.0080           0
     42306 WT15     567      MECN     H13      HGA3     0.090000        1.0080           0
     42307 WT15     567      MECN     C2       CG1N1    0.360000       12.0110           0
     42308 WT15     567      MECN     N3       NG1T1   -0.460000       14.0070           0
     42309 WT15     568      MECN     C1       CG331   -0.170000       12.0110           0
     42310 WT15     568      MECN     H11      HGA3     0.090000        1.0080           0
     42311 WT15     568      MECN     H12      HGA3     0.090000        1.0080           0
     42312 WT15     568      MECN     H13      HGA3     0.090000        1.0080           0
     42313 WT15     568      MECN     C2       CG1N1    0.360000       12.0110           0
     42314 WT15     568      MECN     N3       NG1T1   -0.460000       14.0070           0
     42315 WT15     569      MECN     C1       CG331   -0.170000       12.0110           0
     42316 WT15     569      MECN     H11      HGA3     0.090000        1.0080           0
     42317 WT15     569      MECN     H12      HGA3     0.090000        1.0080           0
     42318 WT15     569      MECN     H13      HGA3     0.090000        1.0080           0
     42319 WT15     569      MECN     C2       CG1N1    0.360000       12.0110           0
     42320 WT15     569      MECN     N3       NG1T1   -0.460000       14.0070           0
     42321 WT15     570      MECN     C1       CG331   -0.170000       12.0110           0
     42322 WT15     570      MECN     H11      HGA3     0.090000        1.0080           0
     42323 WT15     570      MECN     H12      HGA3     0.090000        1.0080           0
     42324 WT15     570      MECN     H13      HGA3     0.090000        1.0080           0
     42325 WT15     570      MECN     C2       CG1N1    0.360000       12.0110           0
     42326 WT15     570      MECN     N3       NG1T1   -0.460000       14.0070           0
     42327 WT15     571      MECN     C1       CG331   -0.170000       12.0110           0
     42328 WT15     571      MECN     H11      HGA3     0.090000        1.0080           0
     42329 WT15     571      MECN     H12      HGA3     0.090000        1.0080           0
     42330 WT15     571      MECN     H13      HGA3     0.090000        1.0080           0
     42331 WT15     571      MECN     C2       CG1N1    0.360000       12.0110           0
     42332 WT15     571      MECN     N3       NG1T1   -0.460000       14.0070           0
     42333 WT15     572      MECN     C1       CG331   -0.170000       12.0110           0
     42334 WT15     572      MECN     H11      HGA3     0.090000        1.0080           0
     42335 WT15     572      MECN     H12      HGA3     0.090000        1.0080           0
     42336 WT15     572      MECN     H13      HGA3     0.090000        1.0080           0
     42337 WT15     572      MECN     C2       CG1N1    0.360000       12.0110           0
     42338 WT15     572      MECN     N3       NG1T1   -0.460000       14.0070           0
     42339 WT15     573      MECN     C1       CG331   -0.170000       12.0110           0
     42340 WT15     573      MECN     H11      HGA3     0.090000        1.0080           0
     42341 WT15     573      MECN     H12      HGA3     0.090000        1.0080           0
     42342 WT15     573      MECN     H13      HGA3     0.090000        1.0080           0
     42343 WT15     573      MECN     C2       CG1N1    0.360000       12.0110           0
     42344 WT15     573      MECN     N3       NG1T1   -0.460000       14.0070           0
     42345 WT15     574      MECN     C1       CG331   -0.170000       12.0110           0
     42346 WT15     574      MECN     H11      HGA3     0.090000        1.0080           0
     42347 WT15     574      MECN     H12      HGA3     0.090000        1.0080           0
     42348 WT15     574      MECN     H13      HGA3     0.090000        1.0080           0
     42349 WT15     574      MECN     C2       CG1N1    0.360000       12.0110           0
     42350 WT15     574      MECN     N3       NG1T1   -0.460000       14.0070           0
     42351 WT15     575      MECN     C1       CG331   -0.170000       12.0110           0
     42352 WT15     575      MECN     H11      HGA3     0.090000        1.0080           0
     42353 WT15     575      MECN     H12      HGA3     0.090000        1.0080           0
     42354 WT15     575      MECN     H13      HGA3     0.090000        1.0080           0
     42355 WT15     575      MECN     C2       CG1N1    0.360000       12.0110           0
     42356 WT15     575      MECN     N3       NG1T1   -0.460000       14.0070           0
     42357 WT15     576      MECN     C1       CG331   -0.170000       12.0110           0
     42358 WT15     576      MECN     H11      HGA3     0.090000        1.0080           0
     42359 WT15     576      MECN     H12      HGA3     0.090000        1.0080           0
     42360 WT15     576      MECN     H13      HGA3     0.090000        1.0080           0
     42361 WT15     576      MECN     C2       CG1N1    0.360000       12.0110           0
     42362 WT15     576      MECN     N3       NG1T1   -0.460000       14.0070           0
     42363 WT15     577      MECN     C1       CG331   -0.170000       12.0110           0
     42364 WT15     577      MECN     H11      HGA3     0.090000        1.0080           0
     42365 WT15     577      MECN     H12      HGA3     0.090000        1.0080           0
     42366 WT15     577      MECN     H13      HGA3     0.090000        1.0080           0
     42367 WT15     577      MECN     C2       CG1N1    0.360000       12.0110           0
     42368 WT15     577      MECN     N3       NG1T1   -0.460000       14.0070           0
     42369 WT15     578      MECN     C1       CG331   -0.170000       12.0110           0
     42370 WT15     578      MECN     H11      HGA3     0.090000        1.0080           0
     42371 WT15     578      MECN     H12      HGA3     0.090000        1.0080           0
     42372 WT15     578      MECN     H13      HGA3     0.090000        1.0080           0
     42373 WT15     578      MECN     C2       CG1N1    0.360000       12.0110           0
     42374 WT15     578      MECN     N3       NG1T1   -0.460000       14.0070           0
     42375 WT15     580      MECN     C1       CG331   -0.170000       12.0110           0
     42376 WT15     580      MECN     H11      HGA3     0.090000        1.0080           0
     42377 WT15     580      MECN     H12      HGA3     0.090000        1.0080           0
     42378 WT15     580      MECN     H13      HGA3     0.090000        1.0080           0
     42379 WT15     580      MECN     C2       CG1N1    0.360000       12.0110           0
     42380 WT15     580      MECN     N3       NG1T1   -0.460000       14.0070           0
     42381 WT15     581      MECN     C1       CG331   -0.170000       12.0110           0
     42382 WT15     581      MECN     H11      HGA3     0.090000        1.0080           0
     42383 WT15     581      MECN     H12      HGA3     0.090000        1.0080           0
     42384 WT15     581      MECN     H13      HGA3     0.090000        1.0080           0
     42385 WT15     581      MECN     C2       CG1N1    0.360000       12.0110           0
     42386 WT15     581      MECN     N3       NG1T1   -0.460000       14.0070           0
     42387 WT15     582      MECN     C1       CG331   -0.170000       12.0110           0
     42388 WT15     582      MECN     H11      HGA3     0.090000        1.0080           0
     42389 WT15     582      MECN     H12      HGA3     0.090000        1.0080           0
     42390 WT15     582      MECN     H13      HGA3     0.090000        1.0080           0
     42391 WT15     582      MECN     C2       CG1N1    0.360000       12.0110           0
     42392 WT15     582      MECN     N3       NG1T1   -0.460000       14.0070           0
     42393 WT15     583      MECN     C1       CG331   -0.170000       12.0110           0
     42394 WT15     583      MECN     H11      HGA3     0.090000        1.0080           0
     42395 WT15     583      MECN     H12      HGA3     0.090000        1.0080           0
     42396 WT15     583      MECN     H13      HGA3     0.090000        1.0080           0
     42397 WT15     583      MECN     C2       CG1N1    0.360000       12.0110           0
     42398 WT15     583      MECN     N3       NG1T1   -0.460000       14.0070           0
     42399 WT15     584      MECN     C1       CG331   -0.170000       12.0110           0
     42400 WT15     584      MECN     H11      HGA3     0.090000        1.0080           0
     42401 WT15     584      MECN     H12      HGA3     0.090000        1.0080           0
     42402 WT15     584      MECN     H13      HGA3     0.090000        1.0080           0
     42403 WT15     584      MECN     C2       CG1N1    0.360000       12.0110           0
     42404 WT15     584      MECN     N3       NG1T1   -0.460000       14.0070           0
     42405 WT15     585      MECN     C1       CG331   -0.170000       12.0110           0
     42406 WT15     585      MECN     H11      HGA3     0.090000        1.0080           0
     42407 WT15     585      MECN     H12      HGA3     0.090000        1.0080           0
     42408 WT15     585      MECN     H13      HGA3     0.090000        1.0080           0
     42409 WT15     585      MECN     C2       CG1N1    0.360000       12.0110           0
     42410 WT15     585      MECN     N3       NG1T1   -0.460000       14.0070           0
     42411 WT15     587      MECN     C1       CG331   -0.170000       12.0110           0
     42412 WT15     587      MECN     H11      HGA3     0.090000        1.0080           0
     42413 WT15     587      MECN     H12      HGA3     0.090000        1.0080           0
     42414 WT15     587      MECN     H13      HGA3     0.090000        1.0080           0
     42415 WT15     587      MECN     C2       CG1N1    0.360000       12.0110           0
     42416 WT15     587      MECN     N3       NG1T1   -0.460000       14.0070           0
     42417 WT15     590      MECN     C1       CG331   -0.170000       12.0110           0
     42418 WT15     590      MECN     H11      HGA3     0.090000        1.0080           0
     42419 WT15     590      MECN     H12      HGA3     0.090000        1.0080           0
     42420 WT15     590      MECN     H13      HGA3     0.090000        1.0080           0
     42421 WT15     590      MECN     C2       CG1N1    0.360000       12.0110           0
     42422 WT15     590      MECN     N3       NG1T1   -0.460000       14.0070           0
     42423 WT15     591      MECN     C1       CG331   -0.170000       12.0110           0
     42424 WT15     591      MECN     H11      HGA3     0.090000        1.0080           0
     42425 WT15     591      MECN     H12      HGA3     0.090000        1.0080           0
     42426 WT15     591      MECN     H13      HGA3     0.090000        1.0080           0
     42427 WT15     591      MECN     C2       CG1N1    0.360000       12.0110           0
     42428 WT15     591      MECN     N3       NG1T1   -0.460000       14.0070           0
     42429 WT15     592      MECN     C1       CG331   -0.170000       12.0110           0
     42430 WT15     592      MECN     H11      HGA3     0.090000        1.0080           0
     42431 WT15     592      MECN     H12      HGA3     0.090000        1.0080           0
     42432 WT15     592      MECN     H13      HGA3     0.090000        1.0080           0
     42433 WT15     592      MECN     C2       CG1N1    0.360000       12.0110           0
     42434 WT15     592      MECN     N3       NG1T1   -0.460000       14.0070           0
     42435 WT15     593      MECN     C1       CG331   -0.170000       12.0110           0
     42436 WT15     593      MECN     H11      HGA3     0.090000        1.0080           0
     42437 WT15     593      MECN     H12      HGA3     0.090000        1.0080           0
     42438 WT15     593      MECN     H13      HGA3     0.090000        1.0080           0
     42439 WT15     593      MECN     C2       CG1N1    0.360000       12.0110           0
     42440 WT15     593      MECN     N3       NG1T1   -0.460000       14.0070           0
     42441 WT15     594      MECN     C1       CG331   -0.170000       12.0110           0
     42442 WT15     594      MECN     H11      HGA3     0.090000        1.0080           0
     42443 WT15     594      MECN     H12      HGA3     0.090000        1.0080           0
     42444 WT15     594      MECN     H13      HGA3     0.090000        1.0080           0
     42445 WT15     594      MECN     C2       CG1N1    0.360000       12.0110           0
     42446 WT15     594      MECN     N3       NG1T1   -0.460000       14.0070           0
     42447 WT15     595      MECN     C1       CG331   -0.170000       12.0110           0
     42448 WT15     595      MECN     H11      HGA3     0.090000        1.0080           0
     42449 WT15     595      MECN     H12      HGA3     0.090000        1.0080           0
     42450 WT15     595      MECN     H13      HGA3     0.090000        1.0080           0
     42451 WT15     595      MECN     C2       CG1N1    0.360000       12.0110           0
     42452 WT15     595      MECN     N3       NG1T1   -0.460000       14.0070           0
     42453 WT15     596      MECN     C1       CG331   -0.170000       12.0110           0
     42454 WT15     596      MECN     H11      HGA3     0.090000        1.0080           0
     42455 WT15     596      MECN     H12      HGA3     0.090000        1.0080           0
     42456 WT15     596      MECN     H13      HGA3     0.090000        1.0080           0
     42457 WT15     596      MECN     C2       CG1N1    0.360000       12.0110           0
     42458 WT15     596      MECN     N3       NG1T1   -0.460000       14.0070           0
     42459 WT15     597      MECN     C1       CG331   -0.170000       12.0110           0
     42460 WT15     597      MECN     H11      HGA3     0.090000        1.0080           0
     42461 WT15     597      MECN     H12      HGA3     0.090000        1.0080           0
     42462 WT15     597      MECN     H13      HGA3     0.090000        1.0080           0
     42463 WT15     597      MECN     C2       CG1N1    0.360000       12.0110           0
     42464 WT15     597      MECN     N3       NG1T1   -0.460000       14.0070           0
     42465 WT15     598      MECN     C1       CG331   -0.170000       12.0110           0
     42466 WT15     598      MECN     H11      HGA3     0.090000        1.0080           0
     42467 WT15     598      MECN     H12      HGA3     0.090000        1.0080           0
     42468 WT15     598      MECN     H13      HGA3     0.090000        1.0080           0
     42469 WT15     598      MECN     C2       CG1N1    0.360000       12.0110           0
     42470 WT15     598      MECN     N3       NG1T1   -0.460000       14.0070           0
     42471 WT15     600      MECN     C1       CG331   -0.170000       12.0110           0
     42472 WT15     600      MECN     H11      HGA3     0.090000        1.0080           0
     42473 WT15     600      MECN     H12      HGA3     0.090000        1.0080           0
     42474 WT15     600      MECN     H13      HGA3     0.090000        1.0080           0
     42475 WT15     600      MECN     C2       CG1N1    0.360000       12.0110           0
     42476 WT15     600      MECN     N3       NG1T1   -0.460000       14.0070           0
     42477 WT15     602      MECN     C1       CG331   -0.170000       12.0110           0
     42478 WT15     602      MECN     H11      HGA3     0.090000        1.0080           0
     42479 WT15     602      MECN     H12      HGA3     0.090000        1.0080           0
     42480 WT15     602      MECN     H13      HGA3     0.090000        1.0080           0
     42481 WT15     602      MECN     C2       CG1N1    0.360000       12.0110           0
     42482 WT15     602      MECN     N3       NG1T1   -0.460000       14.0070           0
     42483 WT15     603      MECN     C1       CG331   -0.170000       12.0110           0
     42484 WT15     603      MECN     H11      HGA3     0.090000        1.0080           0
     42485 WT15     603      MECN     H12      HGA3     0.090000        1.0080           0
     42486 WT15     603      MECN     H13      HGA3     0.090000        1.0080           0
     42487 WT15     603      MECN     C2       CG1N1    0.360000       12.0110           0
     42488 WT15     603      MECN     N3       NG1T1   -0.460000       14.0070           0
     42489 WT15     604      MECN     C1       CG331   -0.170000       12.0110           0
     42490 WT15     604      MECN     H11      HGA3     0.090000        1.0080           0
     42491 WT15     604      MECN     H12      HGA3     0.090000        1.0080           0
     42492 WT15     604      MECN     H13      HGA3     0.090000        1.0080           0
     42493 WT15     604      MECN     C2       CG1N1    0.360000       12.0110           0
     42494 WT15     604      MECN     N3       NG1T1   -0.460000       14.0070           0
     42495 WT15     605      MECN     C1       CG331   -0.170000       12.0110           0
     42496 WT15     605      MECN     H11      HGA3     0.090000        1.0080           0
     42497 WT15     605      MECN     H12      HGA3     0.090000        1.0080           0
     42498 WT15     605      MECN     H13      HGA3     0.090000        1.0080           0
     42499 WT15     605      MECN     C2       CG1N1    0.360000       12.0110           0
     42500 WT15     605      MECN     N3       NG1T1   -0.460000       14.0070           0
     42501 WT15     606      MECN     C1       CG331   -0.170000       12.0110           0
     42502 WT15     606      MECN     H11      HGA3     0.090000        1.0080           0
     42503 WT15     606      MECN     H12      HGA3     0.090000        1.0080           0
     42504 WT15     606      MECN     H13      HGA3     0.090000        1.0080           0
     42505 WT15     606      MECN     C2       CG1N1    0.360000       12.0110           0
     42506 WT15     606      MECN     N3       NG1T1   -0.460000       14.0070           0
     42507 WT15     607      MECN     C1       CG331   -0.170000       12.0110           0
     42508 WT15     607      MECN     H11      HGA3     0.090000        1.0080           0
     42509 WT15     607      MECN     H12      HGA3     0.090000        1.0080           0
     42510 WT15     607      MECN     H13      HGA3     0.090000        1.0080           0
     42511 WT15     607      MECN     C2       CG1N1    0.360000       12.0110           0
     42512 WT15     607      MECN     N3       NG1T1   -0.460000       14.0070           0
     42513 WT15     609      MECN     C1       CG331   -0.170000       12.0110           0
     42514 WT15     609      MECN     H11      HGA3     0.090000        1.0080           0
     42515 WT15     609      MECN     H12      HGA3     0.090000        1.0080           0
     42516 WT15     609      MECN     H13      HGA3     0.090000        1.0080           0
     42517 WT15     609      MECN     C2       CG1N1    0.360000       12.0110           0
     42518 WT15     609      MECN     N3       NG1T1   -0.460000       14.0070           0
     42519 WT15     610      MECN     C1       CG331   -0.170000       12.0110           0
     42520 WT15     610      MECN     H11      HGA3     0.090000        1.0080           0
     42521 WT15     610      MECN     H12      HGA3     0.090000        1.0080           0
     42522 WT15     610      MECN     H13      HGA3     0.090000        1.0080           0
     42523 WT15     610      MECN     C2       CG1N1    0.360000       12.0110           0
     42524 WT15     610      MECN     N3       NG1T1   -0.460000       14.0070           0
     42525 WT15     612      MECN     C1       CG331   -0.170000       12.0110           0
     42526 WT15     612      MECN     H11      HGA3     0.090000        1.0080           0
     42527 WT15     612      MECN     H12      HGA3     0.090000        1.0080           0
     42528 WT15     612      MECN     H13      HGA3     0.090000        1.0080           0
     42529 WT15     612      MECN     C2       CG1N1    0.360000       12.0110           0
     42530 WT15     612      MECN     N3       NG1T1   -0.460000       14.0070           0
     42531 WT15     613      MECN     C1       CG331   -0.170000       12.0110           0
     42532 WT15     613      MECN     H11      HGA3     0.090000        1.0080           0
     42533 WT15     613      MECN     H12      HGA3     0.090000        1.0080           0
     42534 WT15     613      MECN     H13      HGA3     0.090000        1.0080           0
     42535 WT15     613      MECN     C2       CG1N1    0.360000       12.0110           0
     42536 WT15     613      MECN     N3       NG1T1   -0.460000       14.0070           0
     42537 WT15     614      MECN     C1       CG331   -0.170000       12.0110           0
     42538 WT15     614      MECN     H11      HGA3     0.090000        1.0080           0
     42539 WT15     614      MECN     H12      HGA3     0.090000        1.0080           0
     42540 WT15     614      MECN     H13      HGA3     0.090000        1.0080           0
     42541 WT15     614      MECN     C2       CG1N1    0.360000       12.0110           0
     42542 WT15     614      MECN     N3       NG1T1   -0.460000       14.0070           0
     42543 WT15     616      MECN     C1       CG331   -0.170000       12.0110           0
     42544 WT15     616      MECN     H11      HGA3     0.090000        1.0080           0
     42545 WT15     616      MECN     H12      HGA3     0.090000        1.0080           0
     42546 WT15     616      MECN     H13      HGA3     0.090000        1.0080           0
     42547 WT15     616      MECN     C2       CG1N1    0.360000       12.0110           0
     42548 WT15     616      MECN     N3       NG1T1   -0.460000       14.0070           0
     42549 WT15     619      MECN     C1       CG331   -0.170000       12.0110           0
     42550 WT15     619      MECN     H11      HGA3     0.090000        1.0080           0
     42551 WT15     619      MECN     H12      HGA3     0.090000        1.0080           0
     42552 WT15     619      MECN     H13      HGA3     0.090000        1.0080           0
     42553 WT15     619      MECN     C2       CG1N1    0.360000       12.0110           0
     42554 WT15     619      MECN     N3       NG1T1   -0.460000       14.0070           0
     42555 WT15     621      MECN     C1       CG331   -0.170000       12.0110           0
     42556 WT15     621      MECN     H11      HGA3     0.090000        1.0080           0
     42557 WT15     621      MECN     H12      HGA3     0.090000        1.0080           0
     42558 WT15     621      MECN     H13      HGA3     0.090000        1.0080           0
     42559 WT15     621      MECN     C2       CG1N1    0.360000       12.0110           0
     42560 WT15     621      MECN     N3       NG1T1   -0.460000       14.0070           0
     42561 WT15     623      MECN     C1       CG331   -0.170000       12.0110           0
     42562 WT15     623      MECN     H11      HGA3     0.090000        1.0080           0
     42563 WT15     623      MECN     H12      HGA3     0.090000        1.0080           0
     42564 WT15     623      MECN     H13      HGA3     0.090000        1.0080           0
     42565 WT15     623      MECN     C2       CG1N1    0.360000       12.0110           0
     42566 WT15     623      MECN     N3       NG1T1   -0.460000       14.0070           0
     42567 WT15     624      MECN     C1       CG331   -0.170000       12.0110           0
     42568 WT15     624      MECN     H11      HGA3     0.090000        1.0080           0
     42569 WT15     624      MECN     H12      HGA3     0.090000        1.0080           0
     42570 WT15     624      MECN     H13      HGA3     0.090000        1.0080           0
     42571 WT15     624      MECN     C2       CG1N1    0.360000       12.0110           0
     42572 WT15     624      MECN     N3       NG1T1   -0.460000       14.0070           0
     42573 WT15     626      MECN     C1       CG331   -0.170000       12.0110           0
     42574 WT15     626      MECN     H11      HGA3     0.090000        1.0080           0
     42575 WT15     626      MECN     H12      HGA3     0.090000        1.0080           0
     42576 WT15     626      MECN     H13      HGA3     0.090000        1.0080           0
     42577 WT15     626      MECN     C2       CG1N1    0.360000       12.0110           0
     42578 WT15     626      MECN     N3       NG1T1   -0.460000       14.0070           0
     42579 WT15     628      MECN     C1       CG331   -0.170000       12.0110           0
     42580 WT15     628      MECN     H11      HGA3     0.090000        1.0080           0
     42581 WT15     628      MECN     H12      HGA3     0.090000        1.0080           0
     42582 WT15     628      MECN     H13      HGA3     0.090000        1.0080           0
     42583 WT15     628      MECN     C2       CG1N1    0.360000       12.0110           0
     42584 WT15     628      MECN     N3       NG1T1   -0.460000       14.0070           0
     42585 WT15     629      MECN     C1       CG331   -0.170000       12.0110           0
     42586 WT15     629      MECN     H11      HGA3     0.090000        1.0080           0
     42587 WT15     629      MECN     H12      HGA3     0.090000        1.0080           0
     42588 WT15     629      MECN     H13      HGA3     0.090000        1.0080           0
     42589 WT15     629      MECN     C2       CG1N1    0.360000       12.0110           0
     42590 WT15     629      MECN     N3       NG1T1   -0.460000       14.0070           0
     42591 WT15     630      MECN     C1       CG331   -0.170000       12.0110           0
     42592 WT15     630      MECN     H11      HGA3     0.090000        1.0080           0
     42593 WT15     630      MECN     H12      HGA3     0.090000        1.0080           0
     42594 WT15     630      MECN     H13      HGA3     0.090000        1.0080           0
     42595 WT15     630      MECN     C2       CG1N1    0.360000       12.0110           0
     42596 WT15     630      MECN     N3       NG1T1   -0.460000       14.0070           0
     42597 WT15     631      MECN     C1       CG331   -0.170000       12.0110           0
     42598 WT15     631      MECN     H11      HGA3     0.090000        1.0080           0
     42599 WT15     631      MECN     H12      HGA3     0.090000        1.0080           0
     42600 WT15     631      MECN     H13      HGA3     0.090000        1.0080           0
     42601 WT15     631      MECN     C2       CG1N1    0.360000       12.0110           0
     42602 WT15     631      MECN     N3       NG1T1   -0.460000       14.0070           0
     42603 WT15     632      MECN     C1       CG331   -0.170000       12.0110           0
     42604 WT15     632      MECN     H11      HGA3     0.090000        1.0080           0
     42605 WT15     632      MECN     H12      HGA3     0.090000        1.0080           0
     42606 WT15     632      MECN     H13      HGA3     0.090000        1.0080           0
     42607 WT15     632      MECN     C2       CG1N1    0.360000       12.0110           0
     42608 WT15     632      MECN     N3       NG1T1   -0.460000       14.0070           0
     42609 WT15     634      MECN     C1       CG331   -0.170000       12.0110           0
     42610 WT15     634      MECN     H11      HGA3     0.090000        1.0080           0
     42611 WT15     634      MECN     H12      HGA3     0.090000        1.0080           0
     42612 WT15     634      MECN     H13      HGA3     0.090000        1.0080           0
     42613 WT15     634      MECN     C2       CG1N1    0.360000       12.0110           0
     42614 WT15     634      MECN     N3       NG1T1   -0.460000       14.0070           0
     42615 WT15     635      MECN     C1       CG331   -0.170000       12.0110           0
     42616 WT15     635      MECN     H11      HGA3     0.090000        1.0080           0
     42617 WT15     635      MECN     H12      HGA3     0.090000        1.0080           0
     42618 WT15     635      MECN     H13      HGA3     0.090000        1.0080           0
     42619 WT15     635      MECN     C2       CG1N1    0.360000       12.0110           0
     42620 WT15     635      MECN     N3       NG1T1   -0.460000       14.0070           0
     42621 WT15     637      MECN     C1       CG331   -0.170000       12.0110           0
     42622 WT15     637      MECN     H11      HGA3     0.090000        1.0080           0
     42623 WT15     637      MECN     H12      HGA3     0.090000        1.0080           0
     42624 WT15     637      MECN     H13      HGA3     0.090000        1.0080           0
     42625 WT15     637      MECN     C2       CG1N1    0.360000       12.0110           0
     42626 WT15     637      MECN     N3       NG1T1   -0.460000       14.0070           0
     42627 WT15     638      MECN     C1       CG331   -0.170000       12.0110           0
     42628 WT15     638      MECN     H11      HGA3     0.090000        1.0080           0
     42629 WT15     638      MECN     H12      HGA3     0.090000        1.0080           0
     42630 WT15     638      MECN     H13      HGA3     0.090000        1.0080           0
     42631 WT15     638      MECN     C2       CG1N1    0.360000       12.0110           0
     42632 WT15     638      MECN     N3       NG1T1   -0.460000       14.0070           0
     42633 WT15     642      MECN     C1       CG331   -0.170000       12.0110           0
     42634 WT15     642      MECN     H11      HGA3     0.090000        1.0080           0
     42635 WT15     642      MECN     H12      HGA3     0.090000        1.0080           0
     42636 WT15     642      MECN     H13      HGA3     0.090000        1.0080           0
     42637 WT15     642      MECN     C2       CG1N1    0.360000       12.0110           0
     42638 WT15     642      MECN     N3       NG1T1   -0.460000       14.0070           0
     42639 WT15     643      MECN     C1       CG331   -0.170000       12.0110           0
     42640 WT15     643      MECN     H11      HGA3     0.090000        1.0080           0
     42641 WT15     643      MECN     H12      HGA3     0.090000        1.0080           0
     42642 WT15     643      MECN     H13      HGA3     0.090000        1.0080           0
     42643 WT15     643      MECN     C2       CG1N1    0.360000       12.0110           0
     42644 WT15     643      MECN     N3       NG1T1   -0.460000       14.0070           0
     42645 WT15     650      MECN     C1       CG331   -0.170000       12.0110           0
     42646 WT15     650      MECN     H11      HGA3     0.090000        1.0080           0
     42647 WT15     650      MECN     H12      HGA3     0.090000        1.0080           0
     42648 WT15     650      MECN     H13      HGA3     0.090000        1.0080           0
     42649 WT15     650      MECN     C2       CG1N1    0.360000       12.0110           0
     42650 WT15     650      MECN     N3       NG1T1   -0.460000       14.0070           0
     42651 WT15     652      MECN     C1       CG331   -0.170000       12.0110           0
     42652 WT15     652      MECN     H11      HGA3     0.090000        1.0080           0
     42653 WT15     652      MECN     H12      HGA3     0.090000        1.0080           0
     42654 WT15     652      MECN     H13      HGA3     0.090000        1.0080           0
     42655 WT15     652      MECN     C2       CG1N1    0.360000       12.0110           0
     42656 WT15     652      MECN     N3       NG1T1   -0.460000       14.0070           0
     42657 WT15     653      MECN     C1       CG331   -0.170000       12.0110           0
     42658 WT15     653      MECN     H11      HGA3     0.090000        1.0080           0
     42659 WT15     653      MECN     H12      HGA3     0.090000        1.0080           0
     42660 WT15     653      MECN     H13      HGA3     0.090000        1.0080           0
     42661 WT15     653      MECN     C2       CG1N1    0.360000       12.0110           0
     42662 WT15     653      MECN     N3       NG1T1   -0.460000       14.0070           0
     42663 WT15     654      MECN     C1       CG331   -0.170000       12.0110           0
     42664 WT15     654      MECN     H11      HGA3     0.090000        1.0080           0
     42665 WT15     654      MECN     H12      HGA3     0.090000        1.0080           0
     42666 WT15     654      MECN     H13      HGA3     0.090000        1.0080           0
     42667 WT15     654      MECN     C2       CG1N1    0.360000       12.0110           0
     42668 WT15     654      MECN     N3       NG1T1   -0.460000       14.0070           0
     42669 WT15     658      MECN     C1       CG331   -0.170000       12.0110           0
     42670 WT15     658      MECN     H11      HGA3     0.090000        1.0080           0
     42671 WT15     658      MECN     H12      HGA3     0.090000        1.0080           0
     42672 WT15     658      MECN     H13      HGA3     0.090000        1.0080           0
     42673 WT15     658      MECN     C2       CG1N1    0.360000       12.0110           0
     42674 WT15     658      MECN     N3       NG1T1   -0.460000       14.0070           0
     42675 WT15     659      MECN     C1       CG331   -0.170000       12.0110           0
     42676 WT15     659      MECN     H11      HGA3     0.090000        1.0080           0
     42677 WT15     659      MECN     H12      HGA3     0.090000        1.0080           0
     42678 WT15     659      MECN     H13      HGA3     0.090000        1.0080           0
     42679 WT15     659      MECN     C2       CG1N1    0.360000       12.0110           0
     42680 WT15     659      MECN     N3       NG1T1   -0.460000       14.0070           0
     42681 WT15     660      MECN     C1       CG331   -0.170000       12.0110           0
     42682 WT15     660      MECN     H11      HGA3     0.090000        1.0080           0
     42683 WT15     660      MECN     H12      HGA3     0.090000        1.0080           0
     42684 WT15     660      MECN     H13      HGA3     0.090000        1.0080           0
     42685 WT15     660      MECN     C2       CG1N1    0.360000       12.0110           0
     42686 WT15     660      MECN     N3       NG1T1   -0.460000       14.0070           0
     42687 WT15     662      MECN     C1       CG331   -0.170000       12.0110           0
     42688 WT15     662      MECN     H11      HGA3     0.090000        1.0080           0
     42689 WT15     662      MECN     H12      HGA3     0.090000        1.0080           0
     42690 WT15     662      MECN     H13      HGA3     0.090000        1.0080           0
     42691 WT15     662      MECN     C2       CG1N1    0.360000       12.0110           0
     42692 WT15     662      MECN     N3       NG1T1   -0.460000       14.0070           0
     42693 WT15     663      MECN     C1       CG331   -0.170000       12.0110           0
     42694 WT15     663      MECN     H11      HGA3     0.090000        1.0080           0
     42695 WT15     663      MECN     H12      HGA3     0.090000        1.0080           0
     42696 WT15     663      MECN     H13      HGA3     0.090000        1.0080           0
     42697 WT15     663      MECN     C2       CG1N1    0.360000       12.0110           0
     42698 WT15     663      MECN     N3       NG1T1   -0.460000       14.0070           0
     42699 WT15     665      MECN     C1       CG331   -0.170000       12.0110           0
     42700 WT15     665      MECN     H11      HGA3     0.090000        1.0080           0
     42701 WT15     665      MECN     H12      HGA3     0.090000        1.0080           0
     42702 WT15     665      MECN     H13      HGA3     0.090000        1.0080           0
     42703 WT15     665      MECN     C2       CG1N1    0.360000       12.0110           0
     42704 WT15     665      MECN     N3       NG1T1   -0.460000       14.0070           0
     42705 WT15     668      MECN     C1       CG331   -0.170000       12.0110           0
     42706 WT15     668      MECN     H11      HGA3     0.090000        1.0080           0
     42707 WT15     668      MECN     H12      HGA3     0.090000        1.0080           0
     42708 WT15     668      MECN     H13      HGA3     0.090000        1.0080           0
     42709 WT15     668      MECN     C2       CG1N1    0.360000       12.0110           0
     42710 WT15     668      MECN     N3       NG1T1   -0.460000       14.0070           0
     42711 WT15     669      MECN     C1       CG331   -0.170000       12.0110           0
     42712 WT15     669      MECN     H11      HGA3     0.090000        1.0080           0
     42713 WT15     669      MECN     H12      HGA3     0.090000        1.0080           0
     42714 WT15     669      MECN     H13      HGA3     0.090000        1.0080           0
     42715 WT15     669      MECN     C2       CG1N1    0.360000       12.0110           0
     42716 WT15     669      MECN     N3       NG1T1   -0.460000       14.0070           0
     42717 WT15     670      MECN     C1       CG331   -0.170000       12.0110           0
     42718 WT15     670      MECN     H11      HGA3     0.090000        1.0080           0
     42719 WT15     670      MECN     H12      HGA3     0.090000        1.0080           0
     42720 WT15     670      MECN     H13      HGA3     0.090000        1.0080           0
     42721 WT15     670      MECN     C2       CG1N1    0.360000       12.0110           0
     42722 WT15     670      MECN     N3       NG1T1   -0.460000       14.0070           0
     42723 WT15     671      MECN     C1       CG331   -0.170000       12.0110           0
     42724 WT15     671      MECN     H11      HGA3     0.090000        1.0080           0
     42725 WT15     671      MECN     H12      HGA3     0.090000        1.0080           0
     42726 WT15     671      MECN     H13      HGA3     0.090000        1.0080           0
     42727 WT15     671      MECN     C2       CG1N1    0.360000       12.0110           0
     42728 WT15     671      MECN     N3       NG1T1   -0.460000       14.0070           0
     42729 WT15     674      MECN     C1       CG331   -0.170000       12.0110           0
     42730 WT15     674      MECN     H11      HGA3     0.090000        1.0080           0
     42731 WT15     674      MECN     H12      HGA3     0.090000        1.0080           0
     42732 WT15     674      MECN     H13      HGA3     0.090000        1.0080           0
     42733 WT15     674      MECN     C2       CG1N1    0.360000       12.0110           0
     42734 WT15     674      MECN     N3       NG1T1   -0.460000       14.0070           0
     42735 WT15     675      MECN     C1       CG331   -0.170000       12.0110           0
     42736 WT15     675      MECN     H11      HGA3     0.090000        1.0080           0
     42737 WT15     675      MECN     H12      HGA3     0.090000        1.0080           0
     42738 WT15     675      MECN     H13      HGA3     0.090000        1.0080           0
     42739 WT15     675      MECN     C2       CG1N1    0.360000       12.0110           0
     42740 WT15     675      MECN     N3       NG1T1   -0.460000       14.0070           0
     42741 WT15     676      MECN     C1       CG331   -0.170000       12.0110           0
     42742 WT15     676      MECN     H11      HGA3     0.090000        1.0080           0
     42743 WT15     676      MECN     H12      HGA3     0.090000        1.0080           0
     42744 WT15     676      MECN     H13      HGA3     0.090000        1.0080           0
     42745 WT15     676      MECN     C2       CG1N1    0.360000       12.0110           0
     42746 WT15     676      MECN     N3       NG1T1   -0.460000       14.0070           0
     42747 WT15     677      MECN     C1       CG331   -0.170000       12.0110           0
     42748 WT15     677      MECN     H11      HGA3     0.090000        1.0080           0
     42749 WT15     677      MECN     H12      HGA3     0.090000        1.0080           0
     42750 WT15     677      MECN     H13      HGA3     0.090000        1.0080           0
     42751 WT15     677      MECN     C2       CG1N1    0.360000       12.0110           0
     42752 WT15     677      MECN     N3       NG1T1   -0.460000       14.0070           0
     42753 WT15     679      MECN     C1       CG331   -0.170000       12.0110           0
     42754 WT15     679      MECN     H11      HGA3     0.090000        1.0080           0
     42755 WT15     679      MECN     H12      HGA3     0.090000        1.0080           0
     42756 WT15     679      MECN     H13      HGA3     0.090000        1.0080           0
     42757 WT15     679      MECN     C2       CG1N1    0.360000       12.0110           0
     42758 WT15     679      MECN     N3       NG1T1   -0.460000       14.0070           0
     42759 WT15     680      MECN     C1       CG331   -0.170000       12.0110           0
     42760 WT15     680      MECN     H11      HGA3     0.090000        1.0080           0
     42761 WT15     680      MECN     H12      HGA3     0.090000        1.0080           0
     42762 WT15     680      MECN     H13      HGA3     0.090000        1.0080           0
     42763 WT15     680      MECN     C2       CG1N1    0.360000       12.0110           0
     42764 WT15     680      MECN     N3       NG1T1   -0.460000       14.0070           0
     42765 WT15     681      MECN     C1       CG331   -0.170000       12.0110           0
     42766 WT15     681      MECN     H11      HGA3     0.090000        1.0080           0
     42767 WT15     681      MECN     H12      HGA3     0.090000        1.0080           0
     42768 WT15     681      MECN     H13      HGA3     0.090000        1.0080           0
     42769 WT15     681      MECN     C2       CG1N1    0.360000       12.0110           0
     42770 WT15     681      MECN     N3       NG1T1   -0.460000       14.0070           0
     42771 WT15     682      MECN     C1       CG331   -0.170000       12.0110           0
     42772 WT15     682      MECN     H11      HGA3     0.090000        1.0080           0
     42773 WT15     682      MECN     H12      HGA3     0.090000        1.0080           0
     42774 WT15     682      MECN     H13      HGA3     0.090000        1.0080           0
     42775 WT15     682      MECN     C2       CG1N1    0.360000       12.0110           0
     42776 WT15     682      MECN     N3       NG1T1   -0.460000       14.0070           0
     42777 WT15     683      MECN     C1       CG331   -0.170000       12.0110           0
     42778 WT15     683      MECN     H11      HGA3     0.090000        1.0080           0
     42779 WT15     683      MECN     H12      HGA3     0.090000        1.0080           0
     42780 WT15     683      MECN     H13      HGA3     0.090000        1.0080           0
     42781 WT15     683      MECN     C2       CG1N1    0.360000       12.0110           0
     42782 WT15     683      MECN     N3       NG1T1   -0.460000       14.0070           0
     42783 WT15     684      MECN     C1       CG331   -0.170000       12.0110           0
     42784 WT15     684      MECN     H11      HGA3     0.090000        1.0080           0
     42785 WT15     684      MECN     H12      HGA3     0.090000        1.0080           0
     42786 WT15     684      MECN     H13      HGA3     0.090000        1.0080           0
     42787 WT15     684      MECN     C2       CG1N1    0.360000       12.0110           0
     42788 WT15     684      MECN     N3       NG1T1   -0.460000       14.0070           0
     42789 WT15     685      MECN     C1       CG331   -0.170000       12.0110           0
     42790 WT15     685      MECN     H11      HGA3     0.090000        1.0080           0
     42791 WT15     685      MECN     H12      HGA3     0.090000        1.0080           0
     42792 WT15     685      MECN     H13      HGA3     0.090000        1.0080           0
     42793 WT15     685      MECN     C2       CG1N1    0.360000       12.0110           0
     42794 WT15     685      MECN     N3       NG1T1   -0.460000       14.0070           0
     42795 WT15     686      MECN     C1       CG331   -0.170000       12.0110           0
     42796 WT15     686      MECN     H11      HGA3     0.090000        1.0080           0
     42797 WT15     686      MECN     H12      HGA3     0.090000        1.0080           0
     42798 WT15     686      MECN     H13      HGA3     0.090000        1.0080           0
     42799 WT15     686      MECN     C2       CG1N1    0.360000       12.0110           0
     42800 WT15     686      MECN     N3       NG1T1   -0.460000       14.0070           0
     42801 WT15     687      MECN     C1       CG331   -0.170000       12.0110           0
     42802 WT15     687      MECN     H11      HGA3     0.090000        1.0080           0
     42803 WT15     687      MECN     H12      HGA3     0.090000        1.0080           0
     42804 WT15     687      MECN     H13      HGA3     0.090000        1.0080           0
     42805 WT15     687      MECN     C2       CG1N1    0.360000       12.0110           0
     42806 WT15     687      MECN     N3       NG1T1   -0.460000       14.0070           0
     42807 WT15     688      MECN     C1       CG331   -0.170000       12.0110           0
     42808 WT15     688      MECN     H11      HGA3     0.090000        1.0080           0
     42809 WT15     688      MECN     H12      HGA3     0.090000        1.0080           0
     42810 WT15     688      MECN     H13      HGA3     0.090000        1.0080           0
     42811 WT15     688      MECN     C2       CG1N1    0.360000       12.0110           0
     42812 WT15     688      MECN     N3       NG1T1   -0.460000       14.0070           0
     42813 WT15     689      MECN     C1       CG331   -0.170000       12.0110           0
     42814 WT15     689      MECN     H11      HGA3     0.090000        1.0080           0
     42815 WT15     689      MECN     H12      HGA3     0.090000        1.0080           0
     42816 WT15     689      MECN     H13      HGA3     0.090000        1.0080           0
     42817 WT15     689      MECN     C2       CG1N1    0.360000       12.0110           0
     42818 WT15     689      MECN     N3       NG1T1   -0.460000       14.0070           0
     42819 WT15     690      MECN     C1       CG331   -0.170000       12.0110           0
     42820 WT15     690      MECN     H11      HGA3     0.090000        1.0080           0
     42821 WT15     690      MECN     H12      HGA3     0.090000        1.0080           0
     42822 WT15     690      MECN     H13      HGA3     0.090000        1.0080           0
     42823 WT15     690      MECN     C2       CG1N1    0.360000       12.0110           0
     42824 WT15     690      MECN     N3       NG1T1   -0.460000       14.0070           0
     42825 WT15     692      MECN     C1       CG331   -0.170000       12.0110           0
     42826 WT15     692      MECN     H11      HGA3     0.090000        1.0080           0
     42827 WT15     692      MECN     H12      HGA3     0.090000        1.0080           0
     42828 WT15     692      MECN     H13      HGA3     0.090000        1.0080           0
     42829 WT15     692      MECN     C2       CG1N1    0.360000       12.0110           0
     42830 WT15     692      MECN     N3       NG1T1   -0.460000       14.0070           0
     42831 WT15     693      MECN     C1       CG331   -0.170000       12.0110           0
     42832 WT15     693      MECN     H11      HGA3     0.090000        1.0080           0
     42833 WT15     693      MECN     H12      HGA3     0.090000        1.0080           0
     42834 WT15     693      MECN     H13      HGA3     0.090000        1.0080           0
     42835 WT15     693      MECN     C2       CG1N1    0.360000       12.0110           0
     42836 WT15     693      MECN     N3       NG1T1   -0.460000       14.0070           0
     42837 WT15     695      MECN     C1       CG331   -0.170000       12.0110           0
     42838 WT15     695      MECN     H11      HGA3     0.090000        1.0080           0
     42839 WT15     695      MECN     H12      HGA3     0.090000        1.0080           0
     42840 WT15     695      MECN     H13      HGA3     0.090000        1.0080           0
     42841 WT15     695      MECN     C2       CG1N1    0.360000       12.0110           0
     42842 WT15     695      MECN     N3       NG1T1   -0.460000       14.0070           0
     42843 WT15     696      MECN     C1       CG331   -0.170000       12.0110           0
     42844 WT15     696      MECN     H11      HGA3     0.090000        1.0080           0
     42845 WT15     696      MECN     H12      HGA3     0.090000        1.0080           0
     42846 WT15     696      MECN     H13      HGA3     0.090000        1.0080           0
     42847 WT15     696      MECN     C2       CG1N1    0.360000       12.0110           0
     42848 WT15     696      MECN     N3       NG1T1   -0.460000       14.0070           0
     42849 WT15     697      MECN     C1       CG331   -0.170000       12.0110           0
     42850 WT15     697      MECN     H11      HGA3     0.090000        1.0080           0
     42851 WT15     697      MECN     H12      HGA3     0.090000        1.0080           0
     42852 WT15     697      MECN     H13      HGA3     0.090000        1.0080           0
     42853 WT15     697      MECN     C2       CG1N1    0.360000       12.0110           0
     42854 WT15     697      MECN     N3       NG1T1   -0.460000       14.0070           0
     42855 WT15     700      MECN     C1       CG331   -0.170000       12.0110           0
     42856 WT15     700      MECN     H11      HGA3     0.090000        1.0080           0
     42857 WT15     700      MECN     H12      HGA3     0.090000        1.0080           0
     42858 WT15     700      MECN     H13      HGA3     0.090000        1.0080           0
     42859 WT15     700      MECN     C2       CG1N1    0.360000       12.0110           0
     42860 WT15     700      MECN     N3       NG1T1   -0.460000       14.0070           0
     42861 WT15     701      MECN     C1       CG331   -0.170000       12.0110           0
     42862 WT15     701      MECN     H11      HGA3     0.090000        1.0080           0
     42863 WT15     701      MECN     H12      HGA3     0.090000        1.0080           0
     42864 WT15     701      MECN     H13      HGA3     0.090000        1.0080           0
     42865 WT15     701      MECN     C2       CG1N1    0.360000       12.0110           0
     42866 WT15     701      MECN     N3       NG1T1   -0.460000       14.0070           0
     42867 WT15     702      MECN     C1       CG331   -0.170000       12.0110           0
     42868 WT15     702      MECN     H11      HGA3     0.090000        1.0080           0
     42869 WT15     702      MECN     H12      HGA3     0.090000        1.0080           0
     42870 WT15     702      MECN     H13      HGA3     0.090000        1.0080           0
     42871 WT15     702      MECN     C2       CG1N1    0.360000       12.0110           0
     42872 WT15     702      MECN     N3       NG1T1   -0.460000       14.0070           0
     42873 WT15     703      MECN     C1       CG331   -0.170000       12.0110           0
     42874 WT15     703      MECN     H11      HGA3     0.090000        1.0080           0
     42875 WT15     703      MECN     H12      HGA3     0.090000        1.0080           0
     42876 WT15     703      MECN     H13      HGA3     0.090000        1.0080           0
     42877 WT15     703      MECN     C2       CG1N1    0.360000       12.0110           0
     42878 WT15     703      MECN     N3       NG1T1   -0.460000       14.0070           0
     42879 WT15     705      MECN     C1       CG331   -0.170000       12.0110           0
     42880 WT15     705      MECN     H11      HGA3     0.090000        1.0080           0
     42881 WT15     705      MECN     H12      HGA3     0.090000        1.0080           0
     42882 WT15     705      MECN     H13      HGA3     0.090000        1.0080           0
     42883 WT15     705      MECN     C2       CG1N1    0.360000       12.0110           0
     42884 WT15     705      MECN     N3       NG1T1   -0.460000       14.0070           0
     42885 WT15     706      MECN     C1       CG331   -0.170000       12.0110           0
     42886 WT15     706      MECN     H11      HGA3     0.090000        1.0080           0
     42887 WT15     706      MECN     H12      HGA3     0.090000        1.0080           0
     42888 WT15     706      MECN     H13      HGA3     0.090000        1.0080           0
     42889 WT15     706      MECN     C2       CG1N1    0.360000       12.0110           0
     42890 WT15     706      MECN     N3       NG1T1   -0.460000       14.0070           0
     42891 WT15     707      MECN     C1       CG331   -0.170000       12.0110           0
     42892 WT15     707      MECN     H11      HGA3     0.090000        1.0080           0
     42893 WT15     707      MECN     H12      HGA3     0.090000        1.0080           0
     42894 WT15     707      MECN     H13      HGA3     0.090000        1.0080           0
     42895 WT15     707      MECN     C2       CG1N1    0.360000       12.0110           0
     42896 WT15     707      MECN     N3       NG1T1   -0.460000       14.0070           0
     42897 WT15     708      MECN     C1       CG331   -0.170000       12.0110           0
     42898 WT15     708      MECN     H11      HGA3     0.090000        1.0080           0
     42899 WT15     708      MECN     H12      HGA3     0.090000        1.0080           0
     42900 WT15     708      MECN     H13      HGA3     0.090000        1.0080           0
     42901 WT15     708      MECN     C2       CG1N1    0.360000       12.0110           0
     42902 WT15     708      MECN     N3       NG1T1   -0.460000       14.0070           0
     42903 WT15     709      MECN     C1       CG331   -0.170000       12.0110           0
     42904 WT15     709      MECN     H11      HGA3     0.090000        1.0080           0
     42905 WT15     709      MECN     H12      HGA3     0.090000        1.0080           0
     42906 WT15     709      MECN     H13      HGA3     0.090000        1.0080           0
     42907 WT15     709      MECN     C2       CG1N1    0.360000       12.0110           0
     42908 WT15     709      MECN     N3       NG1T1   -0.460000       14.0070           0
     42909 WT15     710      MECN     C1       CG331   -0.170000       12.0110           0
     42910 WT15     710      MECN     H11      HGA3     0.090000        1.0080           0
     42911 WT15     710      MECN     H12      HGA3     0.090000        1.0080           0
     42912 WT15     710      MECN     H13      HGA3     0.090000        1.0080           0
     42913 WT15     710      MECN     C2       CG1N1    0.360000       12.0110           0
     42914 WT15     710      MECN     N3       NG1T1   -0.460000       14.0070           0
     42915 WT15     711      MECN     C1       CG331   -0.170000       12.0110           0
     42916 WT15     711      MECN     H11      HGA3     0.090000        1.0080           0
     42917 WT15     711      MECN     H12      HGA3     0.090000        1.0080           0
     42918 WT15     711      MECN     H13      HGA3     0.090000        1.0080           0
     42919 WT15     711      MECN     C2       CG1N1    0.360000       12.0110           0
     42920 WT15     711      MECN     N3       NG1T1   -0.460000       14.0070           0
     42921 WT15     712      MECN     C1       CG331   -0.170000       12.0110           0
     42922 WT15     712      MECN     H11      HGA3     0.090000        1.0080           0
     42923 WT15     712      MECN     H12      HGA3     0.090000        1.0080           0
     42924 WT15     712      MECN     H13      HGA3     0.090000        1.0080           0
     42925 WT15     712      MECN     C2       CG1N1    0.360000       12.0110           0
     42926 WT15     712      MECN     N3       NG1T1   -0.460000       14.0070           0
     42927 WT15     713      MECN     C1       CG331   -0.170000       12.0110           0
     42928 WT15     713      MECN     H11      HGA3     0.090000        1.0080           0
     42929 WT15     713      MECN     H12      HGA3     0.090000        1.0080           0
     42930 WT15     713      MECN     H13      HGA3     0.090000        1.0080           0
     42931 WT15     713      MECN     C2       CG1N1    0.360000       12.0110           0
     42932 WT15     713      MECN     N3       NG1T1   -0.460000       14.0070           0
     42933 WT15     714      MECN     C1       CG331   -0.170000       12.0110           0
     42934 WT15     714      MECN     H11      HGA3     0.090000        1.0080           0
     42935 WT15     714      MECN     H12      HGA3     0.090000        1.0080           0
     42936 WT15     714      MECN     H13      HGA3     0.090000        1.0080           0
     42937 WT15     714      MECN     C2       CG1N1    0.360000       12.0110           0
     42938 WT15     714      MECN     N3       NG1T1   -0.460000       14.0070           0
     42939 WT15     716      MECN     C1       CG331   -0.170000       12.0110           0
     42940 WT15     716      MECN     H11      HGA3     0.090000        1.0080           0
     42941 WT15     716      MECN     H12      HGA3     0.090000        1.0080           0
     42942 WT15     716      MECN     H13      HGA3     0.090000        1.0080           0
     42943 WT15     716      MECN     C2       CG1N1    0.360000       12.0110           0
     42944 WT15     716      MECN     N3       NG1T1   -0.460000       14.0070           0
     42945 WT15     717      MECN     C1       CG331   -0.170000       12.0110           0
     42946 WT15     717      MECN     H11      HGA3     0.090000        1.0080           0
     42947 WT15     717      MECN     H12      HGA3     0.090000        1.0080           0
     42948 WT15     717      MECN     H13      HGA3     0.090000        1.0080           0
     42949 WT15     717      MECN     C2       CG1N1    0.360000       12.0110           0
     42950 WT15     717      MECN     N3       NG1T1   -0.460000       14.0070           0
     42951 WT15     718      MECN     C1       CG331   -0.170000       12.0110           0
     42952 WT15     718      MECN     H11      HGA3     0.090000        1.0080           0
     42953 WT15     718      MECN     H12      HGA3     0.090000        1.0080           0
     42954 WT15     718      MECN     H13      HGA3     0.090000        1.0080           0
     42955 WT15     718      MECN     C2       CG1N1    0.360000       12.0110           0
     42956 WT15     718      MECN     N3       NG1T1   -0.460000       14.0070           0
     42957 WT15     719      MECN     C1       CG331   -0.170000       12.0110           0
     42958 WT15     719      MECN     H11      HGA3     0.090000        1.0080           0
     42959 WT15     719      MECN     H12      HGA3     0.090000        1.0080           0
     42960 WT15     719      MECN     H13      HGA3     0.090000        1.0080           0
     42961 WT15     719      MECN     C2       CG1N1    0.360000       12.0110           0
     42962 WT15     719      MECN     N3       NG1T1   -0.460000       14.0070           0
     42963 WT15     720      MECN     C1       CG331   -0.170000       12.0110           0
     42964 WT15     720      MECN     H11      HGA3     0.090000        1.0080           0
     42965 WT15     720      MECN     H12      HGA3     0.090000        1.0080           0
     42966 WT15     720      MECN     H13      HGA3     0.090000        1.0080           0
     42967 WT15     720      MECN     C2       CG1N1    0.360000       12.0110           0
     42968 WT15     720      MECN     N3       NG1T1   -0.460000       14.0070           0
     42969 WT15     725      MECN     C1       CG331   -0.170000       12.0110           0
     42970 WT15     725      MECN     H11      HGA3     0.090000        1.0080           0
     42971 WT15     725      MECN     H12      HGA3     0.090000        1.0080           0
     42972 WT15     725      MECN     H13      HGA3     0.090000        1.0080           0
     42973 WT15     725      MECN     C2       CG1N1    0.360000       12.0110           0
     42974 WT15     725      MECN     N3       NG1T1   -0.460000       14.0070           0
     42975 WT15     726      MECN     C1       CG331   -0.170000       12.0110           0
     42976 WT15     726      MECN     H11      HGA3     0.090000        1.0080           0
     42977 WT15     726      MECN     H12      HGA3     0.090000        1.0080           0
     42978 WT15     726      MECN     H13      HGA3     0.090000        1.0080           0
     42979 WT15     726      MECN     C2       CG1N1    0.360000       12.0110           0
     42980 WT15     726      MECN     N3       NG1T1   -0.460000       14.0070           0
     42981 WT15     728      MECN     C1       CG331   -0.170000       12.0110           0
     42982 WT15     728      MECN     H11      HGA3     0.090000        1.0080           0
     42983 WT15     728      MECN     H12      HGA3     0.090000        1.0080           0
     42984 WT15     728      MECN     H13      HGA3     0.090000        1.0080           0
     42985 WT15     728      MECN     C2       CG1N1    0.360000       12.0110           0
     42986 WT15     728      MECN     N3       NG1T1   -0.460000       14.0070           0
     42987 WT15     729      MECN     C1       CG331   -0.170000       12.0110           0
     42988 WT15     729      MECN     H11      HGA3     0.090000        1.0080           0
     42989 WT15     729      MECN     H12      HGA3     0.090000        1.0080           0
     42990 WT15     729      MECN     H13      HGA3     0.090000        1.0080           0
     42991 WT15     729      MECN     C2       CG1N1    0.360000       12.0110           0
     42992 WT15     729      MECN     N3       NG1T1   -0.460000       14.0070           0
     42993 WT15     730      MECN     C1       CG331   -0.170000       12.0110           0
     42994 WT15     730      MECN     H11      HGA3     0.090000        1.0080           0
     42995 WT15     730      MECN     H12      HGA3     0.090000        1.0080           0
     42996 WT15     730      MECN     H13      HGA3     0.090000        1.0080           0
     42997 WT15     730      MECN     C2       CG1N1    0.360000       12.0110           0
     42998 WT15     730      MECN     N3       NG1T1   -0.460000       14.0070           0
     42999 WT15     731      MECN     C1       CG331   -0.170000       12.0110           0
     43000 WT15     731      MECN     H11      HGA3     0.090000        1.0080           0
     43001 WT15     731      MECN     H12      HGA3     0.090000        1.0080           0
     43002 WT15     731      MECN     H13      HGA3     0.090000        1.0080           0
     43003 WT15     731      MECN     C2       CG1N1    0.360000       12.0110           0
     43004 WT15     731      MECN     N3       NG1T1   -0.460000       14.0070           0
     43005 WT15     732      MECN     C1       CG331   -0.170000       12.0110           0
     43006 WT15     732      MECN     H11      HGA3     0.090000        1.0080           0
     43007 WT15     732      MECN     H12      HGA3     0.090000        1.0080           0
     43008 WT15     732      MECN     H13      HGA3     0.090000        1.0080           0
     43009 WT15     732      MECN     C2       CG1N1    0.360000       12.0110           0
     43010 WT15     732      MECN     N3       NG1T1   -0.460000       14.0070           0
     43011 WT15     733      MECN     C1       CG331   -0.170000       12.0110           0
     43012 WT15     733      MECN     H11      HGA3     0.090000        1.0080           0
     43013 WT15     733      MECN     H12      HGA3     0.090000        1.0080           0
     43014 WT15     733      MECN     H13      HGA3     0.090000        1.0080           0
     43015 WT15     733      MECN     C2       CG1N1    0.360000       12.0110           0
     43016 WT15     733      MECN     N3       NG1T1   -0.460000       14.0070           0
     43017 WT15     734      MECN     C1       CG331   -0.170000       12.0110           0
     43018 WT15     734      MECN     H11      HGA3     0.090000        1.0080           0
     43019 WT15     734      MECN     H12      HGA3     0.090000        1.0080           0
     43020 WT15     734      MECN     H13      HGA3     0.090000        1.0080           0
     43021 WT15     734      MECN     C2       CG1N1    0.360000       12.0110           0
     43022 WT15     734      MECN     N3       NG1T1   -0.460000       14.0070           0
     43023 WT15     735      MECN     C1       CG331   -0.170000       12.0110           0
     43024 WT15     735      MECN     H11      HGA3     0.090000        1.0080           0
     43025 WT15     735      MECN     H12      HGA3     0.090000        1.0080           0
     43026 WT15     735      MECN     H13      HGA3     0.090000        1.0080           0
     43027 WT15     735      MECN     C2       CG1N1    0.360000       12.0110           0
     43028 WT15     735      MECN     N3       NG1T1   -0.460000       14.0070           0
     43029 WT15     736      MECN     C1       CG331   -0.170000       12.0110           0
     43030 WT15     736      MECN     H11      HGA3     0.090000        1.0080           0
     43031 WT15     736      MECN     H12      HGA3     0.090000        1.0080           0
     43032 WT15     736      MECN     H13      HGA3     0.090000        1.0080           0
     43033 WT15     736      MECN     C2       CG1N1    0.360000       12.0110           0
     43034 WT15     736      MECN     N3       NG1T1   -0.460000       14.0070           0
     43035 WT15     737      MECN     C1       CG331   -0.170000       12.0110           0
     43036 WT15     737      MECN     H11      HGA3     0.090000        1.0080           0
     43037 WT15     737      MECN     H12      HGA3     0.090000        1.0080           0
     43038 WT15     737      MECN     H13      HGA3     0.090000        1.0080           0
     43039 WT15     737      MECN     C2       CG1N1    0.360000       12.0110           0
     43040 WT15     737      MECN     N3       NG1T1   -0.460000       14.0070           0
     43041 WT15     738      MECN     C1       CG331   -0.170000       12.0110           0
     43042 WT15     738      MECN     H11      HGA3     0.090000        1.0080           0
     43043 WT15     738      MECN     H12      HGA3     0.090000        1.0080           0
     43044 WT15     738      MECN     H13      HGA3     0.090000        1.0080           0
     43045 WT15     738      MECN     C2       CG1N1    0.360000       12.0110           0
     43046 WT15     738      MECN     N3       NG1T1   -0.460000       14.0070           0
     43047 WT15     739      MECN     C1       CG331   -0.170000       12.0110           0
     43048 WT15     739      MECN     H11      HGA3     0.090000        1.0080           0
     43049 WT15     739      MECN     H12      HGA3     0.090000        1.0080           0
     43050 WT15     739      MECN     H13      HGA3     0.090000        1.0080           0
     43051 WT15     739      MECN     C2       CG1N1    0.360000       12.0110           0
     43052 WT15     739      MECN     N3       NG1T1   -0.460000       14.0070           0
     43053 WT15     740      MECN     C1       CG331   -0.170000       12.0110           0
     43054 WT15     740      MECN     H11      HGA3     0.090000        1.0080           0
     43055 WT15     740      MECN     H12      HGA3     0.090000        1.0080           0
     43056 WT15     740      MECN     H13      HGA3     0.090000        1.0080           0
     43057 WT15     740      MECN     C2       CG1N1    0.360000       12.0110           0
     43058 WT15     740      MECN     N3       NG1T1   -0.460000       14.0070           0
     43059 WT15     741      MECN     C1       CG331   -0.170000       12.0110           0
     43060 WT15     741      MECN     H11      HGA3     0.090000        1.0080           0
     43061 WT15     741      MECN     H12      HGA3     0.090000        1.0080           0
     43062 WT15     741      MECN     H13      HGA3     0.090000        1.0080           0
     43063 WT15     741      MECN     C2       CG1N1    0.360000       12.0110           0
     43064 WT15     741      MECN     N3       NG1T1   -0.460000       14.0070           0
     43065 WT15     742      MECN     C1       CG331   -0.170000       12.0110           0
     43066 WT15     742      MECN     H11      HGA3     0.090000        1.0080           0
     43067 WT15     742      MECN     H12      HGA3     0.090000        1.0080           0
     43068 WT15     742      MECN     H13      HGA3     0.090000        1.0080           0
     43069 WT15     742      MECN     C2       CG1N1    0.360000       12.0110           0
     43070 WT15     742      MECN     N3       NG1T1   -0.460000       14.0070           0
     43071 WT15     743      MECN     C1       CG331   -0.170000       12.0110           0
     43072 WT15     743      MECN     H11      HGA3     0.090000        1.0080           0
     43073 WT15     743      MECN     H12      HGA3     0.090000        1.0080           0
     43074 WT15     743      MECN     H13      HGA3     0.090000        1.0080           0
     43075 WT15     743      MECN     C2       CG1N1    0.360000       12.0110           0
     43076 WT15     743      MECN     N3       NG1T1   -0.460000       14.0070           0
     43077 WT15     744      MECN     C1       CG331   -0.170000       12.0110           0
     43078 WT15     744      MECN     H11      HGA3     0.090000        1.0080           0
     43079 WT15     744      MECN     H12      HGA3     0.090000        1.0080           0
     43080 WT15     744      MECN     H13      HGA3     0.090000        1.0080           0
     43081 WT15     744      MECN     C2       CG1N1    0.360000       12.0110           0
     43082 WT15     744      MECN     N3       NG1T1   -0.460000       14.0070           0
     43083 WT15     745      MECN     C1       CG331   -0.170000       12.0110           0
     43084 WT15     745      MECN     H11      HGA3     0.090000        1.0080           0
     43085 WT15     745      MECN     H12      HGA3     0.090000        1.0080           0
     43086 WT15     745      MECN     H13      HGA3     0.090000        1.0080           0
     43087 WT15     745      MECN     C2       CG1N1    0.360000       12.0110           0
     43088 WT15     745      MECN     N3       NG1T1   -0.460000       14.0070           0
     43089 WT15     746      MECN     C1       CG331   -0.170000       12.0110           0
     43090 WT15     746      MECN     H11      HGA3     0.090000        1.0080           0
     43091 WT15     746      MECN     H12      HGA3     0.090000        1.0080           0
     43092 WT15     746      MECN     H13      HGA3     0.090000        1.0080           0
     43093 WT15     746      MECN     C2       CG1N1    0.360000       12.0110           0
     43094 WT15     746      MECN     N3       NG1T1   -0.460000       14.0070           0
     43095 WT15     747      MECN     C1       CG331   -0.170000       12.0110           0
     43096 WT15     747      MECN     H11      HGA3     0.090000        1.0080           0
     43097 WT15     747      MECN     H12      HGA3     0.090000        1.0080           0
     43098 WT15     747      MECN     H13      HGA3     0.090000        1.0080           0
     43099 WT15     747      MECN     C2       CG1N1    0.360000       12.0110           0
     43100 WT15     747      MECN     N3       NG1T1   -0.460000       14.0070           0
     43101 WT15     750      MECN     C1       CG331   -0.170000       12.0110           0
     43102 WT15     750      MECN     H11      HGA3     0.090000        1.0080           0
     43103 WT15     750      MECN     H12      HGA3     0.090000        1.0080           0
     43104 WT15     750      MECN     H13      HGA3     0.090000        1.0080           0
     43105 WT15     750      MECN     C2       CG1N1    0.360000       12.0110           0
     43106 WT15     750      MECN     N3       NG1T1   -0.460000       14.0070           0
     43107 WT15     751      MECN     C1       CG331   -0.170000       12.0110           0
     43108 WT15     751      MECN     H11      HGA3     0.090000        1.0080           0
     43109 WT15     751      MECN     H12      HGA3     0.090000        1.0080           0
     43110 WT15     751      MECN     H13      HGA3     0.090000        1.0080           0
     43111 WT15     751      MECN     C2       CG1N1    0.360000       12.0110           0
     43112 WT15     751      MECN     N3       NG1T1   -0.460000       14.0070           0
     43113 WT15     752      MECN     C1       CG331   -0.170000       12.0110           0
     43114 WT15     752      MECN     H11      HGA3     0.090000        1.0080           0
     43115 WT15     752      MECN     H12      HGA3     0.090000        1.0080           0
     43116 WT15     752      MECN     H13      HGA3     0.090000        1.0080           0
     43117 WT15     752      MECN     C2       CG1N1    0.360000       12.0110           0
     43118 WT15     752      MECN     N3       NG1T1   -0.460000       14.0070           0
     43119 WT15     753      MECN     C1       CG331   -0.170000       12.0110           0
     43120 WT15     753      MECN     H11      HGA3     0.090000        1.0080           0
     43121 WT15     753      MECN     H12      HGA3     0.090000        1.0080           0
     43122 WT15     753      MECN     H13      HGA3     0.090000        1.0080           0
     43123 WT15     753      MECN     C2       CG1N1    0.360000       12.0110           0
     43124 WT15     753      MECN     N3       NG1T1   -0.460000       14.0070           0
     43125 WT15     754      MECN     C1       CG331   -0.170000       12.0110           0
     43126 WT15     754      MECN     H11      HGA3     0.090000        1.0080           0
     43127 WT15     754      MECN     H12      HGA3     0.090000        1.0080           0
     43128 WT15     754      MECN     H13      HGA3     0.090000        1.0080           0
     43129 WT15     754      MECN     C2       CG1N1    0.360000       12.0110           0
     43130 WT15     754      MECN     N3       NG1T1   -0.460000       14.0070           0
     43131 WT15     755      MECN     C1       CG331   -0.170000       12.0110           0
     43132 WT15     755      MECN     H11      HGA3     0.090000        1.0080           0
     43133 WT15     755      MECN     H12      HGA3     0.090000        1.0080           0
     43134 WT15     755      MECN     H13      HGA3     0.090000        1.0080           0
     43135 WT15     755      MECN     C2       CG1N1    0.360000       12.0110           0
     43136 WT15     755      MECN     N3       NG1T1   -0.460000       14.0070           0
     43137 WT15     756      MECN     C1       CG331   -0.170000       12.0110           0
     43138 WT15     756      MECN     H11      HGA3     0.090000        1.0080           0
     43139 WT15     756      MECN     H12      HGA3     0.090000        1.0080           0
     43140 WT15     756      MECN     H13      HGA3     0.090000        1.0080           0
     43141 WT15     756      MECN     C2       CG1N1    0.360000       12.0110           0
     43142 WT15     756      MECN     N3       NG1T1   -0.460000       14.0070           0
     43143 WT15     757      MECN     C1       CG331   -0.170000       12.0110           0
     43144 WT15     757      MECN     H11      HGA3     0.090000        1.0080           0
     43145 WT15     757      MECN     H12      HGA3     0.090000        1.0080           0
     43146 WT15     757      MECN     H13      HGA3     0.090000        1.0080           0
     43147 WT15     757      MECN     C2       CG1N1    0.360000       12.0110           0
     43148 WT15     757      MECN     N3       NG1T1   -0.460000       14.0070           0
     43149 WT15     758      MECN     C1       CG331   -0.170000       12.0110           0
     43150 WT15     758      MECN     H11      HGA3     0.090000        1.0080           0
     43151 WT15     758      MECN     H12      HGA3     0.090000        1.0080           0
     43152 WT15     758      MECN     H13      HGA3     0.090000        1.0080           0
     43153 WT15     758      MECN     C2       CG1N1    0.360000       12.0110           0
     43154 WT15     758      MECN     N3       NG1T1   -0.460000       14.0070           0
     43155 WT15     759      MECN     C1       CG331   -0.170000       12.0110           0
     43156 WT15     759      MECN     H11      HGA3     0.090000        1.0080           0
     43157 WT15     759      MECN     H12      HGA3     0.090000        1.0080           0
     43158 WT15     759      MECN     H13      HGA3     0.090000        1.0080           0
     43159 WT15     759      MECN     C2       CG1N1    0.360000       12.0110           0
     43160 WT15     759      MECN     N3       NG1T1   -0.460000       14.0070           0
     43161 WT15     760      MECN     C1       CG331   -0.170000       12.0110           0
     43162 WT15     760      MECN     H11      HGA3     0.090000        1.0080           0
     43163 WT15     760      MECN     H12      HGA3     0.090000        1.0080           0
     43164 WT15     760      MECN     H13      HGA3     0.090000        1.0080           0
     43165 WT15     760      MECN     C2       CG1N1    0.360000       12.0110           0
     43166 WT15     760      MECN     N3       NG1T1   -0.460000       14.0070           0
     43167 WT15     761      MECN     C1       CG331   -0.170000       12.0110           0
     43168 WT15     761      MECN     H11      HGA3     0.090000        1.0080           0
     43169 WT15     761      MECN     H12      HGA3     0.090000        1.0080           0
     43170 WT15     761      MECN     H13      HGA3     0.090000        1.0080           0
     43171 WT15     761      MECN     C2       CG1N1    0.360000       12.0110           0
     43172 WT15     761      MECN     N3       NG1T1   -0.460000       14.0070           0
     43173 WT15     762      MECN     C1       CG331   -0.170000       12.0110           0
     43174 WT15     762      MECN     H11      HGA3     0.090000        1.0080           0
     43175 WT15     762      MECN     H12      HGA3     0.090000        1.0080           0
     43176 WT15     762      MECN     H13      HGA3     0.090000        1.0080           0
     43177 WT15     762      MECN     C2       CG1N1    0.360000       12.0110           0
     43178 WT15     762      MECN     N3       NG1T1   -0.460000       14.0070           0
     43179 WT15     763      MECN     C1       CG331   -0.170000       12.0110           0
     43180 WT15     763      MECN     H11      HGA3     0.090000        1.0080           0
     43181 WT15     763      MECN     H12      HGA3     0.090000        1.0080           0
     43182 WT15     763      MECN     H13      HGA3     0.090000        1.0080           0
     43183 WT15     763      MECN     C2       CG1N1    0.360000       12.0110           0
     43184 WT15     763      MECN     N3       NG1T1   -0.460000       14.0070           0
     43185 WT15     764      MECN     C1       CG331   -0.170000       12.0110           0
     43186 WT15     764      MECN     H11      HGA3     0.090000        1.0080           0
     43187 WT15     764      MECN     H12      HGA3     0.090000        1.0080           0
     43188 WT15     764      MECN     H13      HGA3     0.090000        1.0080           0
     43189 WT15     764      MECN     C2       CG1N1    0.360000       12.0110           0
     43190 WT15     764      MECN     N3       NG1T1   -0.460000       14.0070           0
     43191 WT15     766      MECN     C1       CG331   -0.170000       12.0110           0
     43192 WT15     766      MECN     H11      HGA3     0.090000        1.0080           0
     43193 WT15     766      MECN     H12      HGA3     0.090000        1.0080           0
     43194 WT15     766      MECN     H13      HGA3     0.090000        1.0080           0
     43195 WT15     766      MECN     C2       CG1N1    0.360000       12.0110           0
     43196 WT15     766      MECN     N3       NG1T1   -0.460000       14.0070           0
     43197 WT15     769      MECN     C1       CG331   -0.170000       12.0110           0
     43198 WT15     769      MECN     H11      HGA3     0.090000        1.0080           0
     43199 WT15     769      MECN     H12      HGA3     0.090000        1.0080           0
     43200 WT15     769      MECN     H13      HGA3     0.090000        1.0080           0
     43201 WT15     769      MECN     C2       CG1N1    0.360000       12.0110           0
     43202 WT15     769      MECN     N3       NG1T1   -0.460000       14.0070           0
     43203 WT15     773      MECN     C1       CG331   -0.170000       12.0110           0
     43204 WT15     773      MECN     H11      HGA3     0.090000        1.0080           0
     43205 WT15     773      MECN     H12      HGA3     0.090000        1.0080           0
     43206 WT15     773      MECN     H13      HGA3     0.090000        1.0080           0
     43207 WT15     773      MECN     C2       CG1N1    0.360000       12.0110           0
     43208 WT15     773      MECN     N3       NG1T1   -0.460000       14.0070           0
     43209 WT15     775      MECN     C1       CG331   -0.170000       12.0110           0
     43210 WT15     775      MECN     H11      HGA3     0.090000        1.0080           0
     43211 WT15     775      MECN     H12      HGA3     0.090000        1.0080           0
     43212 WT15     775      MECN     H13      HGA3     0.090000        1.0080           0
     43213 WT15     775      MECN     C2       CG1N1    0.360000       12.0110           0
     43214 WT15     775      MECN     N3       NG1T1   -0.460000       14.0070           0
     43215 WT15     777      MECN     C1       CG331   -0.170000       12.0110           0
     43216 WT15     777      MECN     H11      HGA3     0.090000        1.0080           0
     43217 WT15     777      MECN     H12      HGA3     0.090000        1.0080           0
     43218 WT15     777      MECN     H13      HGA3     0.090000        1.0080           0
     43219 WT15     777      MECN     C2       CG1N1    0.360000       12.0110           0
     43220 WT15     777      MECN     N3       NG1T1   -0.460000       14.0070           0
     43221 WT15     779      MECN     C1       CG331   -0.170000       12.0110           0
     43222 WT15     779      MECN     H11      HGA3     0.090000        1.0080           0
     43223 WT15     779      MECN     H12      HGA3     0.090000        1.0080           0
     43224 WT15     779      MECN     H13      HGA3     0.090000        1.0080           0
     43225 WT15     779      MECN     C2       CG1N1    0.360000       12.0110           0
     43226 WT15     779      MECN     N3       NG1T1   -0.460000       14.0070           0
     43227 WT15     780      MECN     C1       CG331   -0.170000       12.0110           0
     43228 WT15     780      MECN     H11      HGA3     0.090000        1.0080           0
     43229 WT15     780      MECN     H12      HGA3     0.090000        1.0080           0
     43230 WT15     780      MECN     H13      HGA3     0.090000        1.0080           0
     43231 WT15     780      MECN     C2       CG1N1    0.360000       12.0110           0
     43232 WT15     780      MECN     N3       NG1T1   -0.460000       14.0070           0
     43233 WT15     781      MECN     C1       CG331   -0.170000       12.0110           0
     43234 WT15     781      MECN     H11      HGA3     0.090000        1.0080           0
     43235 WT15     781      MECN     H12      HGA3     0.090000        1.0080           0
     43236 WT15     781      MECN     H13      HGA3     0.090000        1.0080           0
     43237 WT15     781      MECN     C2       CG1N1    0.360000       12.0110           0
     43238 WT15     781      MECN     N3       NG1T1   -0.460000       14.0070           0
     43239 WT15     782      MECN     C1       CG331   -0.170000       12.0110           0
     43240 WT15     782      MECN     H11      HGA3     0.090000        1.0080           0
     43241 WT15     782      MECN     H12      HGA3     0.090000        1.0080           0
     43242 WT15     782      MECN     H13      HGA3     0.090000        1.0080           0
     43243 WT15     782      MECN     C2       CG1N1    0.360000       12.0110           0
     43244 WT15     782      MECN     N3       NG1T1   -0.460000       14.0070           0
     43245 WT15     784      MECN     C1       CG331   -0.170000       12.0110           0
     43246 WT15     784      MECN     H11      HGA3     0.090000        1.0080           0
     43247 WT15     784      MECN     H12      HGA3     0.090000        1.0080           0
     43248 WT15     784      MECN     H13      HGA3     0.090000        1.0080           0
     43249 WT15     784      MECN     C2       CG1N1    0.360000       12.0110           0
     43250 WT15     784      MECN     N3       NG1T1   -0.460000       14.0070           0
     43251 WT15     786      MECN     C1       CG331   -0.170000       12.0110           0
     43252 WT15     786      MECN     H11      HGA3     0.090000        1.0080           0
     43253 WT15     786      MECN     H12      HGA3     0.090000        1.0080           0
     43254 WT15     786      MECN     H13      HGA3     0.090000        1.0080           0
     43255 WT15     786      MECN     C2       CG1N1    0.360000       12.0110           0
     43256 WT15     786      MECN     N3       NG1T1   -0.460000       14.0070           0
     43257 WT15     787      MECN     C1       CG331   -0.170000       12.0110           0
     43258 WT15     787      MECN     H11      HGA3     0.090000        1.0080           0
     43259 WT15     787      MECN     H12      HGA3     0.090000        1.0080           0
     43260 WT15     787      MECN     H13      HGA3     0.090000        1.0080           0
     43261 WT15     787      MECN     C2       CG1N1    0.360000       12.0110           0
     43262 WT15     787      MECN     N3       NG1T1   -0.460000       14.0070           0
     43263 WT15     788      MECN     C1       CG331   -0.170000       12.0110           0
     43264 WT15     788      MECN     H11      HGA3     0.090000        1.0080           0
     43265 WT15     788      MECN     H12      HGA3     0.090000        1.0080           0
     43266 WT15     788      MECN     H13      HGA3     0.090000        1.0080           0
     43267 WT15     788      MECN     C2       CG1N1    0.360000       12.0110           0
     43268 WT15     788      MECN     N3       NG1T1   -0.460000       14.0070           0
     43269 WT15     789      MECN     C1       CG331   -0.170000       12.0110           0
     43270 WT15     789      MECN     H11      HGA3     0.090000        1.0080           0
     43271 WT15     789      MECN     H12      HGA3     0.090000        1.0080           0
     43272 WT15     789      MECN     H13      HGA3     0.090000        1.0080           0
     43273 WT15     789      MECN     C2       CG1N1    0.360000       12.0110           0
     43274 WT15     789      MECN     N3       NG1T1   -0.460000       14.0070           0
     43275 WT15     790      MECN     C1       CG331   -0.170000       12.0110           0
     43276 WT15     790      MECN     H11      HGA3     0.090000        1.0080           0
     43277 WT15     790      MECN     H12      HGA3     0.090000        1.0080           0
     43278 WT15     790      MECN     H13      HGA3     0.090000        1.0080           0
     43279 WT15     790      MECN     C2       CG1N1    0.360000       12.0110           0
     43280 WT15     790      MECN     N3       NG1T1   -0.460000       14.0070           0
     43281 WT15     792      MECN     C1       CG331   -0.170000       12.0110           0
     43282 WT15     792      MECN     H11      HGA3     0.090000        1.0080           0
     43283 WT15     792      MECN     H12      HGA3     0.090000        1.0080           0
     43284 WT15     792      MECN     H13      HGA3     0.090000        1.0080           0
     43285 WT15     792      MECN     C2       CG1N1    0.360000       12.0110           0
     43286 WT15     792      MECN     N3       NG1T1   -0.460000       14.0070           0
     43287 WT15     794      MECN     C1       CG331   -0.170000       12.0110           0
     43288 WT15     794      MECN     H11      HGA3     0.090000        1.0080           0
     43289 WT15     794      MECN     H12      HGA3     0.090000        1.0080           0
     43290 WT15     794      MECN     H13      HGA3     0.090000        1.0080           0
     43291 WT15     794      MECN     C2       CG1N1    0.360000       12.0110           0
     43292 WT15     794      MECN     N3       NG1T1   -0.460000       14.0070           0
     43293 WT15     795      MECN     C1       CG331   -0.170000       12.0110           0
     43294 WT15     795      MECN     H11      HGA3     0.090000        1.0080           0
     43295 WT15     795      MECN     H12      HGA3     0.090000        1.0080           0
     43296 WT15     795      MECN     H13      HGA3     0.090000        1.0080           0
     43297 WT15     795      MECN     C2       CG1N1    0.360000       12.0110           0
     43298 WT15     795      MECN     N3       NG1T1   -0.460000       14.0070           0
     43299 WT15     796      MECN     C1       CG331   -0.170000       12.0110           0
     43300 WT15     796      MECN     H11      HGA3     0.090000        1.0080           0
     43301 WT15     796      MECN     H12      HGA3     0.090000        1.0080           0
     43302 WT15     796      MECN     H13      HGA3     0.090000        1.0080           0
     43303 WT15     796      MECN     C2       CG1N1    0.360000       12.0110           0
     43304 WT15     796      MECN     N3       NG1T1   -0.460000       14.0070           0
     43305 WT15     798      MECN     C1       CG331   -0.170000       12.0110           0
     43306 WT15     798      MECN     H11      HGA3     0.090000        1.0080           0
     43307 WT15     798      MECN     H12      HGA3     0.090000        1.0080           0
     43308 WT15     798      MECN     H13      HGA3     0.090000        1.0080           0
     43309 WT15     798      MECN     C2       CG1N1    0.360000       12.0110           0
     43310 WT15     798      MECN     N3       NG1T1   -0.460000       14.0070           0
     43311 WT15     800      MECN     C1       CG331   -0.170000       12.0110           0
     43312 WT15     800      MECN     H11      HGA3     0.090000        1.0080           0
     43313 WT15     800      MECN     H12      HGA3     0.090000        1.0080           0
     43314 WT15     800      MECN     H13      HGA3     0.090000        1.0080           0
     43315 WT15     800      MECN     C2       CG1N1    0.360000       12.0110           0
     43316 WT15     800      MECN     N3       NG1T1   -0.460000       14.0070           0
     43317 WT15     801      MECN     C1       CG331   -0.170000       12.0110           0
     43318 WT15     801      MECN     H11      HGA3     0.090000        1.0080           0
     43319 WT15     801      MECN     H12      HGA3     0.090000        1.0080           0
     43320 WT15     801      MECN     H13      HGA3     0.090000        1.0080           0
     43321 WT15     801      MECN     C2       CG1N1    0.360000       12.0110           0
     43322 WT15     801      MECN     N3       NG1T1   -0.460000       14.0070           0
     43323 WT15     802      MECN     C1       CG331   -0.170000       12.0110           0
     43324 WT15     802      MECN     H11      HGA3     0.090000        1.0080           0
     43325 WT15     802      MECN     H12      HGA3     0.090000        1.0080           0
     43326 WT15     802      MECN     H13      HGA3     0.090000        1.0080           0
     43327 WT15     802      MECN     C2       CG1N1    0.360000       12.0110           0
     43328 WT15     802      MECN     N3       NG1T1   -0.460000       14.0070           0
     43329 WT15     803      MECN     C1       CG331   -0.170000       12.0110           0
     43330 WT15     803      MECN     H11      HGA3     0.090000        1.0080           0
     43331 WT15     803      MECN     H12      HGA3     0.090000        1.0080           0
     43332 WT15     803      MECN     H13      HGA3     0.090000        1.0080           0
     43333 WT15     803      MECN     C2       CG1N1    0.360000       12.0110           0
     43334 WT15     803      MECN     N3       NG1T1   -0.460000       14.0070           0
     43335 WT15     804      MECN     C1       CG331   -0.170000       12.0110           0
     43336 WT15     804      MECN     H11      HGA3     0.090000        1.0080           0
     43337 WT15     804      MECN     H12      HGA3     0.090000        1.0080           0
     43338 WT15     804      MECN     H13      HGA3     0.090000        1.0080           0
     43339 WT15     804      MECN     C2       CG1N1    0.360000       12.0110           0
     43340 WT15     804      MECN     N3       NG1T1   -0.460000       14.0070           0
     43341 WT15     805      MECN     C1       CG331   -0.170000       12.0110           0
     43342 WT15     805      MECN     H11      HGA3     0.090000        1.0080           0
     43343 WT15     805      MECN     H12      HGA3     0.090000        1.0080           0
     43344 WT15     805      MECN     H13      HGA3     0.090000        1.0080           0
     43345 WT15     805      MECN     C2       CG1N1    0.360000       12.0110           0
     43346 WT15     805      MECN     N3       NG1T1   -0.460000       14.0070           0
     43347 WT15     809      MECN     C1       CG331   -0.170000       12.0110           0
     43348 WT15     809      MECN     H11      HGA3     0.090000        1.0080           0
     43349 WT15     809      MECN     H12      HGA3     0.090000        1.0080           0
     43350 WT15     809      MECN     H13      HGA3     0.090000        1.0080           0
     43351 WT15     809      MECN     C2       CG1N1    0.360000       12.0110           0
     43352 WT15     809      MECN     N3       NG1T1   -0.460000       14.0070           0
     43353 WT15     810      MECN     C1       CG331   -0.170000       12.0110           0
     43354 WT15     810      MECN     H11      HGA3     0.090000        1.0080           0
     43355 WT15     810      MECN     H12      HGA3     0.090000        1.0080           0
     43356 WT15     810      MECN     H13      HGA3     0.090000        1.0080           0
     43357 WT15     810      MECN     C2       CG1N1    0.360000       12.0110           0
     43358 WT15     810      MECN     N3       NG1T1   -0.460000       14.0070           0
     43359 WT15     811      MECN     C1       CG331   -0.170000       12.0110           0
     43360 WT15     811      MECN     H11      HGA3     0.090000        1.0080           0
     43361 WT15     811      MECN     H12      HGA3     0.090000        1.0080           0
     43362 WT15     811      MECN     H13      HGA3     0.090000        1.0080           0
     43363 WT15     811      MECN     C2       CG1N1    0.360000       12.0110           0
     43364 WT15     811      MECN     N3       NG1T1   -0.460000       14.0070           0
     43365 WT15     812      MECN     C1       CG331   -0.170000       12.0110           0
     43366 WT15     812      MECN     H11      HGA3     0.090000        1.0080           0
     43367 WT15     812      MECN     H12      HGA3     0.090000        1.0080           0
     43368 WT15     812      MECN     H13      HGA3     0.090000        1.0080           0
     43369 WT15     812      MECN     C2       CG1N1    0.360000       12.0110           0
     43370 WT15     812      MECN     N3       NG1T1   -0.460000       14.0070           0
     43371 WT15     813      MECN     C1       CG331   -0.170000       12.0110           0
     43372 WT15     813      MECN     H11      HGA3     0.090000        1.0080           0
     43373 WT15     813      MECN     H12      HGA3     0.090000        1.0080           0
     43374 WT15     813      MECN     H13      HGA3     0.090000        1.0080           0
     43375 WT15     813      MECN     C2       CG1N1    0.360000       12.0110           0
     43376 WT15     813      MECN     N3       NG1T1   -0.460000       14.0070           0
     43377 WT15     814      MECN     C1       CG331   -0.170000       12.0110           0
     43378 WT15     814      MECN     H11      HGA3     0.090000        1.0080           0
     43379 WT15     814      MECN     H12      HGA3     0.090000        1.0080           0
     43380 WT15     814      MECN     H13      HGA3     0.090000        1.0080           0
     43381 WT15     814      MECN     C2       CG1N1    0.360000       12.0110           0
     43382 WT15     814      MECN     N3       NG1T1   -0.460000       14.0070           0
     43383 WT15     815      MECN     C1       CG331   -0.170000       12.0110           0
     43384 WT15     815      MECN     H11      HGA3     0.090000        1.0080           0
     43385 WT15     815      MECN     H12      HGA3     0.090000        1.0080           0
     43386 WT15     815      MECN     H13      HGA3     0.090000        1.0080           0
     43387 WT15     815      MECN     C2       CG1N1    0.360000       12.0110           0
     43388 WT15     815      MECN     N3       NG1T1   -0.460000       14.0070           0
     43389 WT15     816      MECN     C1       CG331   -0.170000       12.0110           0
     43390 WT15     816      MECN     H11      HGA3     0.090000        1.0080           0
     43391 WT15     816      MECN     H12      HGA3     0.090000        1.0080           0
     43392 WT15     816      MECN     H13      HGA3     0.090000        1.0080           0
     43393 WT15     816      MECN     C2       CG1N1    0.360000       12.0110           0
     43394 WT15     816      MECN     N3       NG1T1   -0.460000       14.0070           0
     43395 WT15     818      MECN     C1       CG331   -0.170000       12.0110           0
     43396 WT15     818      MECN     H11      HGA3     0.090000        1.0080           0
     43397 WT15     818      MECN     H12      HGA3     0.090000        1.0080           0
     43398 WT15     818      MECN     H13      HGA3     0.090000        1.0080           0
     43399 WT15     818      MECN     C2       CG1N1    0.360000       12.0110           0
     43400 WT15     818      MECN     N3       NG1T1   -0.460000       14.0070           0
     43401 WT15     819      MECN     C1       CG331   -0.170000       12.0110           0
     43402 WT15     819      MECN     H11      HGA3     0.090000        1.0080           0
     43403 WT15     819      MECN     H12      HGA3     0.090000        1.0080           0
     43404 WT15     819      MECN     H13      HGA3     0.090000        1.0080           0
     43405 WT15     819      MECN     C2       CG1N1    0.360000       12.0110           0
     43406 WT15     819      MECN     N3       NG1T1   -0.460000       14.0070           0
     43407 WT15     820      MECN     C1       CG331   -0.170000       12.0110           0
     43408 WT15     820      MECN     H11      HGA3     0.090000        1.0080           0
     43409 WT15     820      MECN     H12      HGA3     0.090000        1.0080           0
     43410 WT15     820      MECN     H13      HGA3     0.090000        1.0080           0
     43411 WT15     820      MECN     C2       CG1N1    0.360000       12.0110           0
     43412 WT15     820      MECN     N3       NG1T1   -0.460000       14.0070           0
     43413 WT15     822      MECN     C1       CG331   -0.170000       12.0110           0
     43414 WT15     822      MECN     H11      HGA3     0.090000        1.0080           0
     43415 WT15     822      MECN     H12      HGA3     0.090000        1.0080           0
     43416 WT15     822      MECN     H13      HGA3     0.090000        1.0080           0
     43417 WT15     822      MECN     C2       CG1N1    0.360000       12.0110           0
     43418 WT15     822      MECN     N3       NG1T1   -0.460000       14.0070           0
     43419 WT15     824      MECN     C1       CG331   -0.170000       12.0110           0
     43420 WT15     824      MECN     H11      HGA3     0.090000        1.0080           0
     43421 WT15     824      MECN     H12      HGA3     0.090000        1.0080           0
     43422 WT15     824      MECN     H13      HGA3     0.090000        1.0080           0
     43423 WT15     824      MECN     C2       CG1N1    0.360000       12.0110           0
     43424 WT15     824      MECN     N3       NG1T1   -0.460000       14.0070           0
     43425 WT15     825      MECN     C1       CG331   -0.170000       12.0110           0
     43426 WT15     825      MECN     H11      HGA3     0.090000        1.0080           0
     43427 WT15     825      MECN     H12      HGA3     0.090000        1.0080           0
     43428 WT15     825      MECN     H13      HGA3     0.090000        1.0080           0
     43429 WT15     825      MECN     C2       CG1N1    0.360000       12.0110           0
     43430 WT15     825      MECN     N3       NG1T1   -0.460000       14.0070           0
     43431 WT15     826      MECN     C1       CG331   -0.170000       12.0110           0
     43432 WT15     826      MECN     H11      HGA3     0.090000        1.0080           0
     43433 WT15     826      MECN     H12      HGA3     0.090000        1.0080           0
     43434 WT15     826      MECN     H13      HGA3     0.090000        1.0080           0
     43435 WT15     826      MECN     C2       CG1N1    0.360000       12.0110           0
     43436 WT15     826      MECN     N3       NG1T1   -0.460000       14.0070           0
     43437 WT15     829      MECN     C1       CG331   -0.170000       12.0110           0
     43438 WT15     829      MECN     H11      HGA3     0.090000        1.0080           0
     43439 WT15     829      MECN     H12      HGA3     0.090000        1.0080           0
     43440 WT15     829      MECN     H13      HGA3     0.090000        1.0080           0
     43441 WT15     829      MECN     C2       CG1N1    0.360000       12.0110           0
     43442 WT15     829      MECN     N3       NG1T1   -0.460000       14.0070           0
     43443 WT15     830      MECN     C1       CG331   -0.170000       12.0110           0
     43444 WT15     830      MECN     H11      HGA3     0.090000        1.0080           0
     43445 WT15     830      MECN     H12      HGA3     0.090000        1.0080           0
     43446 WT15     830      MECN     H13      HGA3     0.090000        1.0080           0
     43447 WT15     830      MECN     C2       CG1N1    0.360000       12.0110           0
     43448 WT15     830      MECN     N3       NG1T1   -0.460000       14.0070           0
     43449 WT15     831      MECN     C1       CG331   -0.170000       12.0110           0
     43450 WT15     831      MECN     H11      HGA3     0.090000        1.0080           0
     43451 WT15     831      MECN     H12      HGA3     0.090000        1.0080           0
     43452 WT15     831      MECN     H13      HGA3     0.090000        1.0080           0
     43453 WT15     831      MECN     C2       CG1N1    0.360000       12.0110           0
     43454 WT15     831      MECN     N3       NG1T1   -0.460000       14.0070           0
     43455 WT15     832      MECN     C1       CG331   -0.170000       12.0110           0
     43456 WT15     832      MECN     H11      HGA3     0.090000        1.0080           0
     43457 WT15     832      MECN     H12      HGA3     0.090000        1.0080           0
     43458 WT15     832      MECN     H13      HGA3     0.090000        1.0080           0
     43459 WT15     832      MECN     C2       CG1N1    0.360000       12.0110           0
     43460 WT15     832      MECN     N3       NG1T1   -0.460000       14.0070           0
     43461 WT15     835      MECN     C1       CG331   -0.170000       12.0110           0
     43462 WT15     835      MECN     H11      HGA3     0.090000        1.0080           0
     43463 WT15     835      MECN     H12      HGA3     0.090000        1.0080           0
     43464 WT15     835      MECN     H13      HGA3     0.090000        1.0080           0
     43465 WT15     835      MECN     C2       CG1N1    0.360000       12.0110           0
     43466 WT15     835      MECN     N3       NG1T1   -0.460000       14.0070           0
     43467 WT15     836      MECN     C1       CG331   -0.170000       12.0110           0
     43468 WT15     836      MECN     H11      HGA3     0.090000        1.0080           0
     43469 WT15     836      MECN     H12      HGA3     0.090000        1.0080           0
     43470 WT15     836      MECN     H13      HGA3     0.090000        1.0080           0
     43471 WT15     836      MECN     C2       CG1N1    0.360000       12.0110           0
     43472 WT15     836      MECN     N3       NG1T1   -0.460000       14.0070           0
     43473 WT15     837      MECN     C1       CG331   -0.170000       12.0110           0
     43474 WT15     837      MECN     H11      HGA3     0.090000        1.0080           0
     43475 WT15     837      MECN     H12      HGA3     0.090000        1.0080           0
     43476 WT15     837      MECN     H13      HGA3     0.090000        1.0080           0
     43477 WT15     837      MECN     C2       CG1N1    0.360000       12.0110           0
     43478 WT15     837      MECN     N3       NG1T1   -0.460000       14.0070           0
     43479 WT15     838      MECN     C1       CG331   -0.170000       12.0110           0
     43480 WT15     838      MECN     H11      HGA3     0.090000        1.0080           0
     43481 WT15     838      MECN     H12      HGA3     0.090000        1.0080           0
     43482 WT15     838      MECN     H13      HGA3     0.090000        1.0080           0
     43483 WT15     838      MECN     C2       CG1N1    0.360000       12.0110           0
     43484 WT15     838      MECN     N3       NG1T1   -0.460000       14.0070           0
     43485 WT15     839      MECN     C1       CG331   -0.170000       12.0110           0
     43486 WT15     839      MECN     H11      HGA3     0.090000        1.0080           0
     43487 WT15     839      MECN     H12      HGA3     0.090000        1.0080           0
     43488 WT15     839      MECN     H13      HGA3     0.090000        1.0080           0
     43489 WT15     839      MECN     C2       CG1N1    0.360000       12.0110           0
     43490 WT15     839      MECN     N3       NG1T1   -0.460000       14.0070           0
     43491 WT15     842      MECN     C1       CG331   -0.170000       12.0110           0
     43492 WT15     842      MECN     H11      HGA3     0.090000        1.0080           0
     43493 WT15     842      MECN     H12      HGA3     0.090000        1.0080           0
     43494 WT15     842      MECN     H13      HGA3     0.090000        1.0080           0
     43495 WT15     842      MECN     C2       CG1N1    0.360000       12.0110           0
     43496 WT15     842      MECN     N3       NG1T1   -0.460000       14.0070           0
     43497 WT15     843      MECN     C1       CG331   -0.170000       12.0110           0
     43498 WT15     843      MECN     H11      HGA3     0.090000        1.0080           0
     43499 WT15     843      MECN     H12      HGA3     0.090000        1.0080           0
     43500 WT15     843      MECN     H13      HGA3     0.090000        1.0080           0
     43501 WT15     843      MECN     C2       CG1N1    0.360000       12.0110           0
     43502 WT15     843      MECN     N3       NG1T1   -0.460000       14.0070           0
     43503 WT15     844      MECN     C1       CG331   -0.170000       12.0110           0
     43504 WT15     844      MECN     H11      HGA3     0.090000        1.0080           0
     43505 WT15     844      MECN     H12      HGA3     0.090000        1.0080           0
     43506 WT15     844      MECN     H13      HGA3     0.090000        1.0080           0
     43507 WT15     844      MECN     C2       CG1N1    0.360000       12.0110           0
     43508 WT15     844      MECN     N3       NG1T1   -0.460000       14.0070           0
     43509 WT15     845      MECN     C1       CG331   -0.170000       12.0110           0
     43510 WT15     845      MECN     H11      HGA3     0.090000        1.0080           0
     43511 WT15     845      MECN     H12      HGA3     0.090000        1.0080           0
     43512 WT15     845      MECN     H13      HGA3     0.090000        1.0080           0
     43513 WT15     845      MECN     C2       CG1N1    0.360000       12.0110           0
     43514 WT15     845      MECN     N3       NG1T1   -0.460000       14.0070           0
     43515 WT15     847      MECN     C1       CG331   -0.170000       12.0110           0
     43516 WT15     847      MECN     H11      HGA3     0.090000        1.0080           0
     43517 WT15     847      MECN     H12      HGA3     0.090000        1.0080           0
     43518 WT15     847      MECN     H13      HGA3     0.090000        1.0080           0
     43519 WT15     847      MECN     C2       CG1N1    0.360000       12.0110           0
     43520 WT15     847      MECN     N3       NG1T1   -0.460000       14.0070           0
     43521 WT15     848      MECN     C1       CG331   -0.170000       12.0110           0
     43522 WT15     848      MECN     H11      HGA3     0.090000        1.0080           0
     43523 WT15     848      MECN     H12      HGA3     0.090000        1.0080           0
     43524 WT15     848      MECN     H13      HGA3     0.090000        1.0080           0
     43525 WT15     848      MECN     C2       CG1N1    0.360000       12.0110           0
     43526 WT15     848      MECN     N3       NG1T1   -0.460000       14.0070           0
     43527 WT15     850      MECN     C1       CG331   -0.170000       12.0110           0
     43528 WT15     850      MECN     H11      HGA3     0.090000        1.0080           0
     43529 WT15     850      MECN     H12      HGA3     0.090000        1.0080           0
     43530 WT15     850      MECN     H13      HGA3     0.090000        1.0080           0
     43531 WT15     850      MECN     C2       CG1N1    0.360000       12.0110           0
     43532 WT15     850      MECN     N3       NG1T1   -0.460000       14.0070           0
     43533 WT15     851      MECN     C1       CG331   -0.170000       12.0110           0
     43534 WT15     851      MECN     H11      HGA3     0.090000        1.0080           0
     43535 WT15     851      MECN     H12      HGA3     0.090000        1.0080           0
     43536 WT15     851      MECN     H13      HGA3     0.090000        1.0080           0
     43537 WT15     851      MECN     C2       CG1N1    0.360000       12.0110           0
     43538 WT15     851      MECN     N3       NG1T1   -0.460000       14.0070           0
     43539 WT15     852      MECN     C1       CG331   -0.170000       12.0110           0
     43540 WT15     852      MECN     H11      HGA3     0.090000        1.0080           0
     43541 WT15     852      MECN     H12      HGA3     0.090000        1.0080           0
     43542 WT15     852      MECN     H13      HGA3     0.090000        1.0080           0
     43543 WT15     852      MECN     C2       CG1N1    0.360000       12.0110           0
     43544 WT15     852      MECN     N3       NG1T1   -0.460000       14.0070           0
     43545 WT15     853      MECN     C1       CG331   -0.170000       12.0110           0
     43546 WT15     853      MECN     H11      HGA3     0.090000        1.0080           0
     43547 WT15     853      MECN     H12      HGA3     0.090000        1.0080           0
     43548 WT15     853      MECN     H13      HGA3     0.090000        1.0080           0
     43549 WT15     853      MECN     C2       CG1N1    0.360000       12.0110           0
     43550 WT15     853      MECN     N3       NG1T1   -0.460000       14.0070           0
     43551 WT15     854      MECN     C1       CG331   -0.170000       12.0110           0
     43552 WT15     854      MECN     H11      HGA3     0.090000        1.0080           0
     43553 WT15     854      MECN     H12      HGA3     0.090000        1.0080           0
     43554 WT15     854      MECN     H13      HGA3     0.090000        1.0080           0
     43555 WT15     854      MECN     C2       CG1N1    0.360000       12.0110           0
     43556 WT15     854      MECN     N3       NG1T1   -0.460000       14.0070           0
     43557 WT15     855      MECN     C1       CG331   -0.170000       12.0110           0
     43558 WT15     855      MECN     H11      HGA3     0.090000        1.0080           0
     43559 WT15     855      MECN     H12      HGA3     0.090000        1.0080           0
     43560 WT15     855      MECN     H13      HGA3     0.090000        1.0080           0
     43561 WT15     855      MECN     C2       CG1N1    0.360000       12.0110           0
     43562 WT15     855      MECN     N3       NG1T1   -0.460000       14.0070           0
     43563 WT15     856      MECN     C1       CG331   -0.170000       12.0110           0
     43564 WT15     856      MECN     H11      HGA3     0.090000        1.0080           0
     43565 WT15     856      MECN     H12      HGA3     0.090000        1.0080           0
     43566 WT15     856      MECN     H13      HGA3     0.090000        1.0080           0
     43567 WT15     856      MECN     C2       CG1N1    0.360000       12.0110           0
     43568 WT15     856      MECN     N3       NG1T1   -0.460000       14.0070           0
     43569 WT15     857      MECN     C1       CG331   -0.170000       12.0110           0
     43570 WT15     857      MECN     H11      HGA3     0.090000        1.0080           0
     43571 WT15     857      MECN     H12      HGA3     0.090000        1.0080           0
     43572 WT15     857      MECN     H13      HGA3     0.090000        1.0080           0
     43573 WT15     857      MECN     C2       CG1N1    0.360000       12.0110           0
     43574 WT15     857      MECN     N3       NG1T1   -0.460000       14.0070           0
     43575 WT15     858      MECN     C1       CG331   -0.170000       12.0110           0
     43576 WT15     858      MECN     H11      HGA3     0.090000        1.0080           0
     43577 WT15     858      MECN     H12      HGA3     0.090000        1.0080           0
     43578 WT15     858      MECN     H13      HGA3     0.090000        1.0080           0
     43579 WT15     858      MECN     C2       CG1N1    0.360000       12.0110           0
     43580 WT15     858      MECN     N3       NG1T1   -0.460000       14.0070           0
     43581 WT15     859      MECN     C1       CG331   -0.170000       12.0110           0
     43582 WT15     859      MECN     H11      HGA3     0.090000        1.0080           0
     43583 WT15     859      MECN     H12      HGA3     0.090000        1.0080           0
     43584 WT15     859      MECN     H13      HGA3     0.090000        1.0080           0
     43585 WT15     859      MECN     C2       CG1N1    0.360000       12.0110           0
     43586 WT15     859      MECN     N3       NG1T1   -0.460000       14.0070           0
     43587 WT15     861      MECN     C1       CG331   -0.170000       12.0110           0
     43588 WT15     861      MECN     H11      HGA3     0.090000        1.0080           0
     43589 WT15     861      MECN     H12      HGA3     0.090000        1.0080           0
     43590 WT15     861      MECN     H13      HGA3     0.090000        1.0080           0
     43591 WT15     861      MECN     C2       CG1N1    0.360000       12.0110           0
     43592 WT15     861      MECN     N3       NG1T1   -0.460000       14.0070           0
     43593 WT15     862      MECN     C1       CG331   -0.170000       12.0110           0
     43594 WT15     862      MECN     H11      HGA3     0.090000        1.0080           0
     43595 WT15     862      MECN     H12      HGA3     0.090000        1.0080           0
     43596 WT15     862      MECN     H13      HGA3     0.090000        1.0080           0
     43597 WT15     862      MECN     C2       CG1N1    0.360000       12.0110           0
     43598 WT15     862      MECN     N3       NG1T1   -0.460000       14.0070           0
     43599 WT15     865      MECN     C1       CG331   -0.170000       12.0110           0
     43600 WT15     865      MECN     H11      HGA3     0.090000        1.0080           0
     43601 WT15     865      MECN     H12      HGA3     0.090000        1.0080           0
     43602 WT15     865      MECN     H13      HGA3     0.090000        1.0080           0
     43603 WT15     865      MECN     C2       CG1N1    0.360000       12.0110           0
     43604 WT15     865      MECN     N3       NG1T1   -0.460000       14.0070           0
     43605 WT15     866      MECN     C1       CG331   -0.170000       12.0110           0
     43606 WT15     866      MECN     H11      HGA3     0.090000        1.0080           0
     43607 WT15     866      MECN     H12      HGA3     0.090000        1.0080           0
     43608 WT15     866      MECN     H13      HGA3     0.090000        1.0080           0
     43609 WT15     866      MECN     C2       CG1N1    0.360000       12.0110           0
     43610 WT15     866      MECN     N3       NG1T1   -0.460000       14.0070           0
     43611 WT15     867      MECN     C1       CG331   -0.170000       12.0110           0
     43612 WT15     867      MECN     H11      HGA3     0.090000        1.0080           0
     43613 WT15     867      MECN     H12      HGA3     0.090000        1.0080           0
     43614 WT15     867      MECN     H13      HGA3     0.090000        1.0080           0
     43615 WT15     867      MECN     C2       CG1N1    0.360000       12.0110           0
     43616 WT15     867      MECN     N3       NG1T1   -0.460000       14.0070           0
     43617 WT15     868      MECN     C1       CG331   -0.170000       12.0110           0
     43618 WT15     868      MECN     H11      HGA3     0.090000        1.0080           0
     43619 WT15     868      MECN     H12      HGA3     0.090000        1.0080           0
     43620 WT15     868      MECN     H13      HGA3     0.090000        1.0080           0
     43621 WT15     868      MECN     C2       CG1N1    0.360000       12.0110           0
     43622 WT15     868      MECN     N3       NG1T1   -0.460000       14.0070           0
     43623 WT15     869      MECN     C1       CG331   -0.170000       12.0110           0
     43624 WT15     869      MECN     H11      HGA3     0.090000        1.0080           0
     43625 WT15     869      MECN     H12      HGA3     0.090000        1.0080           0
     43626 WT15     869      MECN     H13      HGA3     0.090000        1.0080           0
     43627 WT15     869      MECN     C2       CG1N1    0.360000       12.0110           0
     43628 WT15     869      MECN     N3       NG1T1   -0.460000       14.0070           0
     43629 WT15     870      MECN     C1       CG331   -0.170000       12.0110           0
     43630 WT15     870      MECN     H11      HGA3     0.090000        1.0080           0
     43631 WT15     870      MECN     H12      HGA3     0.090000        1.0080           0
     43632 WT15     870      MECN     H13      HGA3     0.090000        1.0080           0
     43633 WT15     870      MECN     C2       CG1N1    0.360000       12.0110           0
     43634 WT15     870      MECN     N3       NG1T1   -0.460000       14.0070           0
     43635 WT15     871      MECN     C1       CG331   -0.170000       12.0110           0
     43636 WT15     871      MECN     H11      HGA3     0.090000        1.0080           0
     43637 WT15     871      MECN     H12      HGA3     0.090000        1.0080           0
     43638 WT15     871      MECN     H13      HGA3     0.090000        1.0080           0
     43639 WT15     871      MECN     C2       CG1N1    0.360000       12.0110           0
     43640 WT15     871      MECN     N3       NG1T1   -0.460000       14.0070           0
     43641 WT15     872      MECN     C1       CG331   -0.170000       12.0110           0
     43642 WT15     872      MECN     H11      HGA3     0.090000        1.0080           0
     43643 WT15     872      MECN     H12      HGA3     0.090000        1.0080           0
     43644 WT15     872      MECN     H13      HGA3     0.090000        1.0080           0
     43645 WT15     872      MECN     C2       CG1N1    0.360000       12.0110           0
     43646 WT15     872      MECN     N3       NG1T1   -0.460000       14.0070           0
     43647 WT15     873      MECN     C1       CG331   -0.170000       12.0110           0
     43648 WT15     873      MECN     H11      HGA3     0.090000        1.0080           0
     43649 WT15     873      MECN     H12      HGA3     0.090000        1.0080           0
     43650 WT15     873      MECN     H13      HGA3     0.090000        1.0080           0
     43651 WT15     873      MECN     C2       CG1N1    0.360000       12.0110           0
     43652 WT15     873      MECN     N3       NG1T1   -0.460000       14.0070           0
     43653 WT15     874      MECN     C1       CG331   -0.170000       12.0110           0
     43654 WT15     874      MECN     H11      HGA3     0.090000        1.0080           0
     43655 WT15     874      MECN     H12      HGA3     0.090000        1.0080           0
     43656 WT15     874      MECN     H13      HGA3     0.090000        1.0080           0
     43657 WT15     874      MECN     C2       CG1N1    0.360000       12.0110           0
     43658 WT15     874      MECN     N3       NG1T1   -0.460000       14.0070           0
     43659 WT15     876      MECN     C1       CG331   -0.170000       12.0110           0
     43660 WT15     876      MECN     H11      HGA3     0.090000        1.0080           0
     43661 WT15     876      MECN     H12      HGA3     0.090000        1.0080           0
     43662 WT15     876      MECN     H13      HGA3     0.090000        1.0080           0
     43663 WT15     876      MECN     C2       CG1N1    0.360000       12.0110           0
     43664 WT15     876      MECN     N3       NG1T1   -0.460000       14.0070           0
     43665 WT15     877      MECN     C1       CG331   -0.170000       12.0110           0
     43666 WT15     877      MECN     H11      HGA3     0.090000        1.0080           0
     43667 WT15     877      MECN     H12      HGA3     0.090000        1.0080           0
     43668 WT15     877      MECN     H13      HGA3     0.090000        1.0080           0
     43669 WT15     877      MECN     C2       CG1N1    0.360000       12.0110           0
     43670 WT15     877      MECN     N3       NG1T1   -0.460000       14.0070           0
     43671 WT15     878      MECN     C1       CG331   -0.170000       12.0110           0
     43672 WT15     878      MECN     H11      HGA3     0.090000        1.0080           0
     43673 WT15     878      MECN     H12      HGA3     0.090000        1.0080           0
     43674 WT15     878      MECN     H13      HGA3     0.090000        1.0080           0
     43675 WT15     878      MECN     C2       CG1N1    0.360000       12.0110           0
     43676 WT15     878      MECN     N3       NG1T1   -0.460000       14.0070           0
     43677 WT15     879      MECN     C1       CG331   -0.170000       12.0110           0
     43678 WT15     879      MECN     H11      HGA3     0.090000        1.0080           0
     43679 WT15     879      MECN     H12      HGA3     0.090000        1.0080           0
     43680 WT15     879      MECN     H13      HGA3     0.090000        1.0080           0
     43681 WT15     879      MECN     C2       CG1N1    0.360000       12.0110           0
     43682 WT15     879      MECN     N3       NG1T1   -0.460000       14.0070           0
     43683 WT15     880      MECN     C1       CG331   -0.170000       12.0110           0
     43684 WT15     880      MECN     H11      HGA3     0.090000        1.0080           0
     43685 WT15     880      MECN     H12      HGA3     0.090000        1.0080           0
     43686 WT15     880      MECN     H13      HGA3     0.090000        1.0080           0
     43687 WT15     880      MECN     C2       CG1N1    0.360000       12.0110           0
     43688 WT15     880      MECN     N3       NG1T1   -0.460000       14.0070           0
     43689 WT15     881      MECN     C1       CG331   -0.170000       12.0110           0
     43690 WT15     881      MECN     H11      HGA3     0.090000        1.0080           0
     43691 WT15     881      MECN     H12      HGA3     0.090000        1.0080           0
     43692 WT15     881      MECN     H13      HGA3     0.090000        1.0080           0
     43693 WT15     881      MECN     C2       CG1N1    0.360000       12.0110           0
     43694 WT15     881      MECN     N3       NG1T1   -0.460000       14.0070           0
     43695 WT15     882      MECN     C1       CG331   -0.170000       12.0110           0
     43696 WT15     882      MECN     H11      HGA3     0.090000        1.0080           0
     43697 WT15     882      MECN     H12      HGA3     0.090000        1.0080           0
     43698 WT15     882      MECN     H13      HGA3     0.090000        1.0080           0
     43699 WT15     882      MECN     C2       CG1N1    0.360000       12.0110           0
     43700 WT15     882      MECN     N3       NG1T1   -0.460000       14.0070           0
     43701 WT15     883      MECN     C1       CG331   -0.170000       12.0110           0
     43702 WT15     883      MECN     H11      HGA3     0.090000        1.0080           0
     43703 WT15     883      MECN     H12      HGA3     0.090000        1.0080           0
     43704 WT15     883      MECN     H13      HGA3     0.090000        1.0080           0
     43705 WT15     883      MECN     C2       CG1N1    0.360000       12.0110           0
     43706 WT15     883      MECN     N3       NG1T1   -0.460000       14.0070           0
     43707 WT15     884      MECN     C1       CG331   -0.170000       12.0110           0
     43708 WT15     884      MECN     H11      HGA3     0.090000        1.0080           0
     43709 WT15     884      MECN     H12      HGA3     0.090000        1.0080           0
     43710 WT15     884      MECN     H13      HGA3     0.090000        1.0080           0
     43711 WT15     884      MECN     C2       CG1N1    0.360000       12.0110           0
     43712 WT15     884      MECN     N3       NG1T1   -0.460000       14.0070           0
     43713 WT15     885      MECN     C1       CG331   -0.170000       12.0110           0
     43714 WT15     885      MECN     H11      HGA3     0.090000        1.0080           0
     43715 WT15     885      MECN     H12      HGA3     0.090000        1.0080           0
     43716 WT15     885      MECN     H13      HGA3     0.090000        1.0080           0
     43717 WT15     885      MECN     C2       CG1N1    0.360000       12.0110           0
     43718 WT15     885      MECN     N3       NG1T1   -0.460000       14.0070           0
     43719 WT15     886      MECN     C1       CG331   -0.170000       12.0110           0
     43720 WT15     886      MECN     H11      HGA3     0.090000        1.0080           0
     43721 WT15     886      MECN     H12      HGA3     0.090000        1.0080           0
     43722 WT15     886      MECN     H13      HGA3     0.090000        1.0080           0
     43723 WT15     886      MECN     C2       CG1N1    0.360000       12.0110           0
     43724 WT15     886      MECN     N3       NG1T1   -0.460000       14.0070           0
     43725 WT15     887      MECN     C1       CG331   -0.170000       12.0110           0
     43726 WT15     887      MECN     H11      HGA3     0.090000        1.0080           0
     43727 WT15     887      MECN     H12      HGA3     0.090000        1.0080           0
     43728 WT15     887      MECN     H13      HGA3     0.090000        1.0080           0
     43729 WT15     887      MECN     C2       CG1N1    0.360000       12.0110           0
     43730 WT15     887      MECN     N3       NG1T1   -0.460000       14.0070           0
     43731 WT15     889      MECN     C1       CG331   -0.170000       12.0110           0
     43732 WT15     889      MECN     H11      HGA3     0.090000        1.0080           0
     43733 WT15     889      MECN     H12      HGA3     0.090000        1.0080           0
     43734 WT15     889      MECN     H13      HGA3     0.090000        1.0080           0
     43735 WT15     889      MECN     C2       CG1N1    0.360000       12.0110           0
     43736 WT15     889      MECN     N3       NG1T1   -0.460000       14.0070           0
     43737 WT15     894      MECN     C1       CG331   -0.170000       12.0110           0
     43738 WT15     894      MECN     H11      HGA3     0.090000        1.0080           0
     43739 WT15     894      MECN     H12      HGA3     0.090000        1.0080           0
     43740 WT15     894      MECN     H13      HGA3     0.090000        1.0080           0
     43741 WT15     894      MECN     C2       CG1N1    0.360000       12.0110           0
     43742 WT15     894      MECN     N3       NG1T1   -0.460000       14.0070           0
     43743 WT15     896      MECN     C1       CG331   -0.170000       12.0110           0
     43744 WT15     896      MECN     H11      HGA3     0.090000        1.0080           0
     43745 WT15     896      MECN     H12      HGA3     0.090000        1.0080           0
     43746 WT15     896      MECN     H13      HGA3     0.090000        1.0080           0
     43747 WT15     896      MECN     C2       CG1N1    0.360000       12.0110           0
     43748 WT15     896      MECN     N3       NG1T1   -0.460000       14.0070           0
     43749 WT15     900      MECN     C1       CG331   -0.170000       12.0110           0
     43750 WT15     900      MECN     H11      HGA3     0.090000        1.0080           0
     43751 WT15     900      MECN     H12      HGA3     0.090000        1.0080           0
     43752 WT15     900      MECN     H13      HGA3     0.090000        1.0080           0
     43753 WT15     900      MECN     C2       CG1N1    0.360000       12.0110           0
     43754 WT15     900      MECN     N3       NG1T1   -0.460000       14.0070           0
     43755 WT15     901      MECN     C1       CG331   -0.170000       12.0110           0
     43756 WT15     901      MECN     H11      HGA3     0.090000        1.0080           0
     43757 WT15     901      MECN     H12      HGA3     0.090000        1.0080           0
     43758 WT15     901      MECN     H13      HGA3     0.090000        1.0080           0
     43759 WT15     901      MECN     C2       CG1N1    0.360000       12.0110           0
     43760 WT15     901      MECN     N3       NG1T1   -0.460000       14.0070           0
     43761 WT15     902      MECN     C1       CG331   -0.170000       12.0110           0
     43762 WT15     902      MECN     H11      HGA3     0.090000        1.0080           0
     43763 WT15     902      MECN     H12      HGA3     0.090000        1.0080           0
     43764 WT15     902      MECN     H13      HGA3     0.090000        1.0080           0
     43765 WT15     902      MECN     C2       CG1N1    0.360000       12.0110           0
     43766 WT15     902      MECN     N3       NG1T1   -0.460000       14.0070           0
     43767 WT15     903      MECN     C1       CG331   -0.170000       12.0110           0
     43768 WT15     903      MECN     H11      HGA3     0.090000        1.0080           0
     43769 WT15     903      MECN     H12      HGA3     0.090000        1.0080           0
     43770 WT15     903      MECN     H13      HGA3     0.090000        1.0080           0
     43771 WT15     903      MECN     C2       CG1N1    0.360000       12.0110           0
     43772 WT15     903      MECN     N3       NG1T1   -0.460000       14.0070           0
     43773 WT15     904      MECN     C1       CG331   -0.170000       12.0110           0
     43774 WT15     904      MECN     H11      HGA3     0.090000        1.0080           0
     43775 WT15     904      MECN     H12      HGA3     0.090000        1.0080           0
     43776 WT15     904      MECN     H13      HGA3     0.090000        1.0080           0
     43777 WT15     904      MECN     C2       CG1N1    0.360000       12.0110           0
     43778 WT15     904      MECN     N3       NG1T1   -0.460000       14.0070           0
     43779 WT15     906      MECN     C1       CG331   -0.170000       12.0110           0
     43780 WT15     906      MECN     H11      HGA3     0.090000        1.0080           0
     43781 WT15     906      MECN     H12      HGA3     0.090000        1.0080           0
     43782 WT15     906      MECN     H13      HGA3     0.090000        1.0080           0
     43783 WT15     906      MECN     C2       CG1N1    0.360000       12.0110           0
     43784 WT15     906      MECN     N3       NG1T1   -0.460000       14.0070           0
     43785 WT15     907      MECN     C1       CG331   -0.170000       12.0110           0
     43786 WT15     907      MECN     H11      HGA3     0.090000        1.0080           0
     43787 WT15     907      MECN     H12      HGA3     0.090000        1.0080           0
     43788 WT15     907      MECN     H13      HGA3     0.090000        1.0080           0
     43789 WT15     907      MECN     C2       CG1N1    0.360000       12.0110           0
     43790 WT15     907      MECN     N3       NG1T1   -0.460000       14.0070           0
     43791 WT15     909      MECN     C1       CG331   -0.170000       12.0110           0
     43792 WT15     909      MECN     H11      HGA3     0.090000        1.0080           0
     43793 WT15     909      MECN     H12      HGA3     0.090000        1.0080           0
     43794 WT15     909      MECN     H13      HGA3     0.090000        1.0080           0
     43795 WT15     909      MECN     C2       CG1N1    0.360000       12.0110           0
     43796 WT15     909      MECN     N3       NG1T1   -0.460000       14.0070           0
     43797 WT15     911      MECN     C1       CG331   -0.170000       12.0110           0
     43798 WT15     911      MECN     H11      HGA3     0.090000        1.0080           0
     43799 WT15     911      MECN     H12      HGA3     0.090000        1.0080           0
     43800 WT15     911      MECN     H13      HGA3     0.090000        1.0080           0
     43801 WT15     911      MECN     C2       CG1N1    0.360000       12.0110           0
     43802 WT15     911      MECN     N3       NG1T1   -0.460000       14.0070           0
     43803 WT15     912      MECN     C1       CG331   -0.170000       12.0110           0
     43804 WT15     912      MECN     H11      HGA3     0.090000        1.0080           0
     43805 WT15     912      MECN     H12      HGA3     0.090000        1.0080           0
     43806 WT15     912      MECN     H13      HGA3     0.090000        1.0080           0
     43807 WT15     912      MECN     C2       CG1N1    0.360000       12.0110           0
     43808 WT15     912      MECN     N3       NG1T1   -0.460000       14.0070           0
     43809 WT15     913      MECN     C1       CG331   -0.170000       12.0110           0
     43810 WT15     913      MECN     H11      HGA3     0.090000        1.0080           0
     43811 WT15     913      MECN     H12      HGA3     0.090000        1.0080           0
     43812 WT15     913      MECN     H13      HGA3     0.090000        1.0080           0
     43813 WT15     913      MECN     C2       CG1N1    0.360000       12.0110           0
     43814 WT15     913      MECN     N3       NG1T1   -0.460000       14.0070           0
     43815 WT15     917      MECN     C1       CG331   -0.170000       12.0110           0
     43816 WT15     917      MECN     H11      HGA3     0.090000        1.0080           0
     43817 WT15     917      MECN     H12      HGA3     0.090000        1.0080           0
     43818 WT15     917      MECN     H13      HGA3     0.090000        1.0080           0
     43819 WT15     917      MECN     C2       CG1N1    0.360000       12.0110           0
     43820 WT15     917      MECN     N3       NG1T1   -0.460000       14.0070           0
     43821 WT15     921      MECN     C1       CG331   -0.170000       12.0110           0
     43822 WT15     921      MECN     H11      HGA3     0.090000        1.0080           0
     43823 WT15     921      MECN     H12      HGA3     0.090000        1.0080           0
     43824 WT15     921      MECN     H13      HGA3     0.090000        1.0080           0
     43825 WT15     921      MECN     C2       CG1N1    0.360000       12.0110           0
     43826 WT15     921      MECN     N3       NG1T1   -0.460000       14.0070           0
     43827 WT15     923      MECN     C1       CG331   -0.170000       12.0110           0
     43828 WT15     923      MECN     H11      HGA3     0.090000        1.0080           0
     43829 WT15     923      MECN     H12      HGA3     0.090000        1.0080           0
     43830 WT15     923      MECN     H13      HGA3     0.090000        1.0080           0
     43831 WT15     923      MECN     C2       CG1N1    0.360000       12.0110           0
     43832 WT15     923      MECN     N3       NG1T1   -0.460000       14.0070           0
     43833 WT15     925      MECN     C1       CG331   -0.170000       12.0110           0
     43834 WT15     925      MECN     H11      HGA3     0.090000        1.0080           0
     43835 WT15     925      MECN     H12      HGA3     0.090000        1.0080           0
     43836 WT15     925      MECN     H13      HGA3     0.090000        1.0080           0
     43837 WT15     925      MECN     C2       CG1N1    0.360000       12.0110           0
     43838 WT15     925      MECN     N3       NG1T1   -0.460000       14.0070           0
     43839 WT15     927      MECN     C1       CG331   -0.170000       12.0110           0
     43840 WT15     927      MECN     H11      HGA3     0.090000        1.0080           0
     43841 WT15     927      MECN     H12      HGA3     0.090000        1.0080           0
     43842 WT15     927      MECN     H13      HGA3     0.090000        1.0080           0
     43843 WT15     927      MECN     C2       CG1N1    0.360000       12.0110           0
     43844 WT15     927      MECN     N3       NG1T1   -0.460000       14.0070           0
     43845 WT15     928      MECN     C1       CG331   -0.170000       12.0110           0
     43846 WT15     928      MECN     H11      HGA3     0.090000        1.0080           0
     43847 WT15     928      MECN     H12      HGA3     0.090000        1.0080           0
     43848 WT15     928      MECN     H13      HGA3     0.090000        1.0080           0
     43849 WT15     928      MECN     C2       CG1N1    0.360000       12.0110           0
     43850 WT15     928      MECN     N3       NG1T1   -0.460000       14.0070           0
     43851 WT15     929      MECN     C1       CG331   -0.170000       12.0110           0
     43852 WT15     929      MECN     H11      HGA3     0.090000        1.0080           0
     43853 WT15     929      MECN     H12      HGA3     0.090000        1.0080           0
     43854 WT15     929      MECN     H13      HGA3     0.090000        1.0080           0
     43855 WT15     929      MECN     C2       CG1N1    0.360000       12.0110           0
     43856 WT15     929      MECN     N3       NG1T1   -0.460000       14.0070           0
     43857 WT15     930      MECN     C1       CG331   -0.170000       12.0110           0
     43858 WT15     930      MECN     H11      HGA3     0.090000        1.0080           0
     43859 WT15     930      MECN     H12      HGA3     0.090000        1.0080           0
     43860 WT15     930      MECN     H13      HGA3     0.090000        1.0080           0
     43861 WT15     930      MECN     C2       CG1N1    0.360000       12.0110           0
     43862 WT15     930      MECN     N3       NG1T1   -0.460000       14.0070           0
     43863 WT15     931      MECN     C1       CG331   -0.170000       12.0110           0
     43864 WT15     931      MECN     H11      HGA3     0.090000        1.0080           0
     43865 WT15     931      MECN     H12      HGA3     0.090000        1.0080           0
     43866 WT15     931      MECN     H13      HGA3     0.090000        1.0080           0
     43867 WT15     931      MECN     C2       CG1N1    0.360000       12.0110           0
     43868 WT15     931      MECN     N3       NG1T1   -0.460000       14.0070           0
     43869 WT15     932      MECN     C1       CG331   -0.170000       12.0110           0
     43870 WT15     932      MECN     H11      HGA3     0.090000        1.0080           0
     43871 WT15     932      MECN     H12      HGA3     0.090000        1.0080           0
     43872 WT15     932      MECN     H13      HGA3     0.090000        1.0080           0
     43873 WT15     932      MECN     C2       CG1N1    0.360000       12.0110           0
     43874 WT15     932      MECN     N3       NG1T1   -0.460000       14.0070           0
     43875 WT15     934      MECN     C1       CG331   -0.170000       12.0110           0
     43876 WT15     934      MECN     H11      HGA3     0.090000        1.0080           0
     43877 WT15     934      MECN     H12      HGA3     0.090000        1.0080           0
     43878 WT15     934      MECN     H13      HGA3     0.090000        1.0080           0
     43879 WT15     934      MECN     C2       CG1N1    0.360000       12.0110           0
     43880 WT15     934      MECN     N3       NG1T1   -0.460000       14.0070           0
     43881 WT15     936      MECN     C1       CG331   -0.170000       12.0110           0
     43882 WT15     936      MECN     H11      HGA3     0.090000        1.0080           0
     43883 WT15     936      MECN     H12      HGA3     0.090000        1.0080           0
     43884 WT15     936      MECN     H13      HGA3     0.090000        1.0080           0
     43885 WT15     936      MECN     C2       CG1N1    0.360000       12.0110           0
     43886 WT15     936      MECN     N3       NG1T1   -0.460000       14.0070           0
     43887 WT15     937      MECN     C1       CG331   -0.170000       12.0110           0
     43888 WT15     937      MECN     H11      HGA3     0.090000        1.0080           0
     43889 WT15     937      MECN     H12      HGA3     0.090000        1.0080           0
     43890 WT15     937      MECN     H13      HGA3     0.090000        1.0080           0
     43891 WT15     937      MECN     C2       CG1N1    0.360000       12.0110           0
     43892 WT15     937      MECN     N3       NG1T1   -0.460000       14.0070           0
     43893 WT15     938      MECN     C1       CG331   -0.170000       12.0110           0
     43894 WT15     938      MECN     H11      HGA3     0.090000        1.0080           0
     43895 WT15     938      MECN     H12      HGA3     0.090000        1.0080           0
     43896 WT15     938      MECN     H13      HGA3     0.090000        1.0080           0
     43897 WT15     938      MECN     C2       CG1N1    0.360000       12.0110           0
     43898 WT15     938      MECN     N3       NG1T1   -0.460000       14.0070           0
     43899 WT15     940      MECN     C1       CG331   -0.170000       12.0110           0
     43900 WT15     940      MECN     H11      HGA3     0.090000        1.0080           0
     43901 WT15     940      MECN     H12      HGA3     0.090000        1.0080           0
     43902 WT15     940      MECN     H13      HGA3     0.090000        1.0080           0
     43903 WT15     940      MECN     C2       CG1N1    0.360000       12.0110           0
     43904 WT15     940      MECN     N3       NG1T1   -0.460000       14.0070           0
     43905 WT15     942      MECN     C1       CG331   -0.170000       12.0110           0
     43906 WT15     942      MECN     H11      HGA3     0.090000        1.0080           0
     43907 WT15     942      MECN     H12      HGA3     0.090000        1.0080           0
     43908 WT15     942      MECN     H13      HGA3     0.090000        1.0080           0
     43909 WT15     942      MECN     C2       CG1N1    0.360000       12.0110           0
     43910 WT15     942      MECN     N3       NG1T1   -0.460000       14.0070           0
     43911 WT15     943      MECN     C1       CG331   -0.170000       12.0110           0
     43912 WT15     943      MECN     H11      HGA3     0.090000        1.0080           0
     43913 WT15     943      MECN     H12      HGA3     0.090000        1.0080           0
     43914 WT15     943      MECN     H13      HGA3     0.090000        1.0080           0
     43915 WT15     943      MECN     C2       CG1N1    0.360000       12.0110           0
     43916 WT15     943      MECN     N3       NG1T1   -0.460000       14.0070           0
     43917 WT15     944      MECN     C1       CG331   -0.170000       12.0110           0
     43918 WT15     944      MECN     H11      HGA3     0.090000        1.0080           0
     43919 WT15     944      MECN     H12      HGA3     0.090000        1.0080           0
     43920 WT15     944      MECN     H13      HGA3     0.090000        1.0080           0
     43921 WT15     944      MECN     C2       CG1N1    0.360000       12.0110           0
     43922 WT15     944      MECN     N3       NG1T1   -0.460000       14.0070           0
     43923 WT15     945      MECN     C1       CG331   -0.170000       12.0110           0
     43924 WT15     945      MECN     H11      HGA3     0.090000        1.0080           0
     43925 WT15     945      MECN     H12      HGA3     0.090000        1.0080           0
     43926 WT15     945      MECN     H13      HGA3     0.090000        1.0080           0
     43927 WT15     945      MECN     C2       CG1N1    0.360000       12.0110           0
     43928 WT15     945      MECN     N3       NG1T1   -0.460000       14.0070           0
     43929 WT15     946      MECN     C1       CG331   -0.170000       12.0110           0
     43930 WT15     946      MECN     H11      HGA3     0.090000        1.0080           0
     43931 WT15     946      MECN     H12      HGA3     0.090000        1.0080           0
     43932 WT15     946      MECN     H13      HGA3     0.090000        1.0080           0
     43933 WT15     946      MECN     C2       CG1N1    0.360000       12.0110           0
     43934 WT15     946      MECN     N3       NG1T1   -0.460000       14.0070           0
     43935 WT15     947      MECN     C1       CG331   -0.170000       12.0110           0
     43936 WT15     947      MECN     H11      HGA3     0.090000        1.0080           0
     43937 WT15     947      MECN     H12      HGA3     0.090000        1.0080           0
     43938 WT15     947      MECN     H13      HGA3     0.090000        1.0080           0
     43939 WT15     947      MECN     C2       CG1N1    0.360000       12.0110           0
     43940 WT15     947      MECN     N3       NG1T1   -0.460000       14.0070           0
     43941 WT15     948      MECN     C1       CG331   -0.170000       12.0110           0
     43942 WT15     948      MECN     H11      HGA3     0.090000        1.0080           0
     43943 WT15     948      MECN     H12      HGA3     0.090000        1.0080           0
     43944 WT15     948      MECN     H13      HGA3     0.090000        1.0080           0
     43945 WT15     948      MECN     C2       CG1N1    0.360000       12.0110           0
     43946 WT15     948      MECN     N3       NG1T1   -0.460000       14.0070           0
     43947 WT15     949      MECN     C1       CG331   -0.170000       12.0110           0
     43948 WT15     949      MECN     H11      HGA3     0.090000        1.0080           0
     43949 WT15     949      MECN     H12      HGA3     0.090000        1.0080           0
     43950 WT15     949      MECN     H13      HGA3     0.090000        1.0080           0
     43951 WT15     949      MECN     C2       CG1N1    0.360000       12.0110           0
     43952 WT15     949      MECN     N3       NG1T1   -0.460000       14.0070           0
     43953 WT15     950      MECN     C1       CG331   -0.170000       12.0110           0
     43954 WT15     950      MECN     H11      HGA3     0.090000        1.0080           0
     43955 WT15     950      MECN     H12      HGA3     0.090000        1.0080           0
     43956 WT15     950      MECN     H13      HGA3     0.090000        1.0080           0
     43957 WT15     950      MECN     C2       CG1N1    0.360000       12.0110           0
     43958 WT15     950      MECN     N3       NG1T1   -0.460000       14.0070           0
     43959 WT15     952      MECN     C1       CG331   -0.170000       12.0110           0
     43960 WT15     952      MECN     H11      HGA3     0.090000        1.0080           0
     43961 WT15     952      MECN     H12      HGA3     0.090000        1.0080           0
     43962 WT15     952      MECN     H13      HGA3     0.090000        1.0080           0
     43963 WT15     952      MECN     C2       CG1N1    0.360000       12.0110           0
     43964 WT15     952      MECN     N3       NG1T1   -0.460000       14.0070           0
     43965 WT15     953      MECN     C1       CG331   -0.170000       12.0110           0
     43966 WT15     953      MECN     H11      HGA3     0.090000        1.0080           0
     43967 WT15     953      MECN     H12      HGA3     0.090000        1.0080           0
     43968 WT15     953      MECN     H13      HGA3     0.090000        1.0080           0
     43969 WT15     953      MECN     C2       CG1N1    0.360000       12.0110           0
     43970 WT15     953      MECN     N3       NG1T1   -0.460000       14.0070           0
     43971 WT15     954      MECN     C1       CG331   -0.170000       12.0110           0
     43972 WT15     954      MECN     H11      HGA3     0.090000        1.0080           0
     43973 WT15     954      MECN     H12      HGA3     0.090000        1.0080           0
     43974 WT15     954      MECN     H13      HGA3     0.090000        1.0080           0
     43975 WT15     954      MECN     C2       CG1N1    0.360000       12.0110           0
     43976 WT15     954      MECN     N3       NG1T1   -0.460000       14.0070           0
     43977 WT15     955      MECN     C1       CG331   -0.170000       12.0110           0
     43978 WT15     955      MECN     H11      HGA3     0.090000        1.0080           0
     43979 WT15     955      MECN     H12      HGA3     0.090000        1.0080           0
     43980 WT15     955      MECN     H13      HGA3     0.090000        1.0080           0
     43981 WT15     955      MECN     C2       CG1N1    0.360000       12.0110           0
     43982 WT15     955      MECN     N3       NG1T1   -0.460000       14.0070           0
     43983 WT15     957      MECN     C1       CG331   -0.170000       12.0110           0
     43984 WT15     957      MECN     H11      HGA3     0.090000        1.0080           0
     43985 WT15     957      MECN     H12      HGA3     0.090000        1.0080           0
     43986 WT15     957      MECN     H13      HGA3     0.090000        1.0080           0
     43987 WT15     957      MECN     C2       CG1N1    0.360000       12.0110           0
     43988 WT15     957      MECN     N3       NG1T1   -0.460000       14.0070           0
     43989 WT15     958      MECN     C1       CG331   -0.170000       12.0110           0
     43990 WT15     958      MECN     H11      HGA3     0.090000        1.0080           0
     43991 WT15     958      MECN     H12      HGA3     0.090000        1.0080           0
     43992 WT15     958      MECN     H13      HGA3     0.090000        1.0080           0
     43993 WT15     958      MECN     C2       CG1N1    0.360000       12.0110           0
     43994 WT15     958      MECN     N3       NG1T1   -0.460000       14.0070           0
     43995 WT15     959      MECN     C1       CG331   -0.170000       12.0110           0
     43996 WT15     959      MECN     H11      HGA3     0.090000        1.0080           0
     43997 WT15     959      MECN     H12      HGA3     0.090000        1.0080           0
     43998 WT15     959      MECN     H13      HGA3     0.090000        1.0080           0
     43999 WT15     959      MECN     C2       CG1N1    0.360000       12.0110           0
     44000 WT15     959      MECN     N3       NG1T1   -0.460000       14.0070           0
     44001 WT15     960      MECN     C1       CG331   -0.170000       12.0110           0
     44002 WT15     960      MECN     H11      HGA3     0.090000        1.0080           0
     44003 WT15     960      MECN     H12      HGA3     0.090000        1.0080           0
     44004 WT15     960      MECN     H13      HGA3     0.090000        1.0080           0
     44005 WT15     960      MECN     C2       CG1N1    0.360000       12.0110           0
     44006 WT15     960      MECN     N3       NG1T1   -0.460000       14.0070           0
     44007 WT15     962      MECN     C1       CG331   -0.170000       12.0110           0
     44008 WT15     962      MECN     H11      HGA3     0.090000        1.0080           0
     44009 WT15     962      MECN     H12      HGA3     0.090000        1.0080           0
     44010 WT15     962      MECN     H13      HGA3     0.090000        1.0080           0
     44011 WT15     962      MECN     C2       CG1N1    0.360000       12.0110           0
     44012 WT15     962      MECN     N3       NG1T1   -0.460000       14.0070           0
     44013 WT15     963      MECN     C1       CG331   -0.170000       12.0110           0
     44014 WT15     963      MECN     H11      HGA3     0.090000        1.0080           0
     44015 WT15     963      MECN     H12      HGA3     0.090000        1.0080           0
     44016 WT15     963      MECN     H13      HGA3     0.090000        1.0080           0
     44017 WT15     963      MECN     C2       CG1N1    0.360000       12.0110           0
     44018 WT15     963      MECN     N3       NG1T1   -0.460000       14.0070           0
     44019 WT15     964      MECN     C1       CG331   -0.170000       12.0110           0
     44020 WT15     964      MECN     H11      HGA3     0.090000        1.0080           0
     44021 WT15     964      MECN     H12      HGA3     0.090000        1.0080           0
     44022 WT15     964      MECN     H13      HGA3     0.090000        1.0080           0
     44023 WT15     964      MECN     C2       CG1N1    0.360000       12.0110           0
     44024 WT15     964      MECN     N3       NG1T1   -0.460000       14.0070           0
     44025 WT15     965      MECN     C1       CG331   -0.170000       12.0110           0
     44026 WT15     965      MECN     H11      HGA3     0.090000        1.0080           0
     44027 WT15     965      MECN     H12      HGA3     0.090000        1.0080           0
     44028 WT15     965      MECN     H13      HGA3     0.090000        1.0080           0
     44029 WT15     965      MECN     C2       CG1N1    0.360000       12.0110           0
     44030 WT15     965      MECN     N3       NG1T1   -0.460000       14.0070           0
     44031 WT15     966      MECN     C1       CG331   -0.170000       12.0110           0
     44032 WT15     966      MECN     H11      HGA3     0.090000        1.0080           0
     44033 WT15     966      MECN     H12      HGA3     0.090000        1.0080           0
     44034 WT15     966      MECN     H13      HGA3     0.090000        1.0080           0
     44035 WT15     966      MECN     C2       CG1N1    0.360000       12.0110           0
     44036 WT15     966      MECN     N3       NG1T1   -0.460000       14.0070           0
     44037 WT15     967      MECN     C1       CG331   -0.170000       12.0110           0
     44038 WT15     967      MECN     H11      HGA3     0.090000        1.0080           0
     44039 WT15     967      MECN     H12      HGA3     0.090000        1.0080           0
     44040 WT15     967      MECN     H13      HGA3     0.090000        1.0080           0
     44041 WT15     967      MECN     C2       CG1N1    0.360000       12.0110           0
     44042 WT15     967      MECN     N3       NG1T1   -0.460000       14.0070           0
     44043 WT15     969      MECN     C1       CG331   -0.170000       12.0110           0
     44044 WT15     969      MECN     H11      HGA3     0.090000        1.0080           0
     44045 WT15     969      MECN     H12      HGA3     0.090000        1.0080           0
     44046 WT15     969      MECN     H13      HGA3     0.090000        1.0080           0
     44047 WT15     969      MECN     C2       CG1N1    0.360000       12.0110           0
     44048 WT15     969      MECN     N3       NG1T1   -0.460000       14.0070           0
     44049 WT15     970      MECN     C1       CG331   -0.170000       12.0110           0
     44050 WT15     970      MECN     H11      HGA3     0.090000        1.0080           0
     44051 WT15     970      MECN     H12      HGA3     0.090000        1.0080           0
     44052 WT15     970      MECN     H13      HGA3     0.090000        1.0080           0
     44053 WT15     970      MECN     C2       CG1N1    0.360000       12.0110           0
     44054 WT15     970      MECN     N3       NG1T1   -0.460000       14.0070           0
     44055 WT15     971      MECN     C1       CG331   -0.170000       12.0110           0
     44056 WT15     971      MECN     H11      HGA3     0.090000        1.0080           0
     44057 WT15     971      MECN     H12      HGA3     0.090000        1.0080           0
     44058 WT15     971      MECN     H13      HGA3     0.090000        1.0080           0
     44059 WT15     971      MECN     C2       CG1N1    0.360000       12.0110           0
     44060 WT15     971      MECN     N3       NG1T1   -0.460000       14.0070           0
     44061 WT15     972      MECN     C1       CG331   -0.170000       12.0110           0
     44062 WT15     972      MECN     H11      HGA3     0.090000        1.0080           0
     44063 WT15     972      MECN     H12      HGA3     0.090000        1.0080           0
     44064 WT15     972      MECN     H13      HGA3     0.090000        1.0080           0
     44065 WT15     972      MECN     C2       CG1N1    0.360000       12.0110           0
     44066 WT15     972      MECN     N3       NG1T1   -0.460000       14.0070           0
     44067 WT15     973      MECN     C1       CG331   -0.170000       12.0110           0
     44068 WT15     973      MECN     H11      HGA3     0.090000        1.0080           0
     44069 WT15     973      MECN     H12      HGA3     0.090000        1.0080           0
     44070 WT15     973      MECN     H13      HGA3     0.090000        1.0080           0
     44071 WT15     973      MECN     C2       CG1N1    0.360000       12.0110           0
     44072 WT15     973      MECN     N3       NG1T1   -0.460000       14.0070           0
     44073 WT15     974      MECN     C1       CG331   -0.170000       12.0110           0
     44074 WT15     974      MECN     H11      HGA3     0.090000        1.0080           0
     44075 WT15     974      MECN     H12      HGA3     0.090000        1.0080           0
     44076 WT15     974      MECN     H13      HGA3     0.090000        1.0080           0
     44077 WT15     974      MECN     C2       CG1N1    0.360000       12.0110           0
     44078 WT15     974      MECN     N3       NG1T1   -0.460000       14.0070           0
     44079 WT15     975      MECN     C1       CG331   -0.170000       12.0110           0
     44080 WT15     975      MECN     H11      HGA3     0.090000        1.0080           0
     44081 WT15     975      MECN     H12      HGA3     0.090000        1.0080           0
     44082 WT15     975      MECN     H13      HGA3     0.090000        1.0080           0
     44083 WT15     975      MECN     C2       CG1N1    0.360000       12.0110           0
     44084 WT15     975      MECN     N3       NG1T1   -0.460000       14.0070           0
     44085 WT15     976      MECN     C1       CG331   -0.170000       12.0110           0
     44086 WT15     976      MECN     H11      HGA3     0.090000        1.0080           0
     44087 WT15     976      MECN     H12      HGA3     0.090000        1.0080           0
     44088 WT15     976      MECN     H13      HGA3     0.090000        1.0080           0
     44089 WT15     976      MECN     C2       CG1N1    0.360000       12.0110           0
     44090 WT15     976      MECN     N3       NG1T1   -0.460000       14.0070           0
     44091 WT15     979      MECN     C1       CG331   -0.170000       12.0110           0
     44092 WT15     979      MECN     H11      HGA3     0.090000        1.0080           0
     44093 WT15     979      MECN     H12      HGA3     0.090000        1.0080           0
     44094 WT15     979      MECN     H13      HGA3     0.090000        1.0080           0
     44095 WT15     979      MECN     C2       CG1N1    0.360000       12.0110           0
     44096 WT15     979      MECN     N3       NG1T1   -0.460000       14.0070           0
     44097 WT15     980      MECN     C1       CG331   -0.170000       12.0110           0
     44098 WT15     980      MECN     H11      HGA3     0.090000        1.0080           0
     44099 WT15     980      MECN     H12      HGA3     0.090000        1.0080           0
     44100 WT15     980      MECN     H13      HGA3     0.090000        1.0080           0
     44101 WT15     980      MECN     C2       CG1N1    0.360000       12.0110           0
     44102 WT15     980      MECN     N3       NG1T1   -0.460000       14.0070           0
     44103 WT15     981      MECN     C1       CG331   -0.170000       12.0110           0
     44104 WT15     981      MECN     H11      HGA3     0.090000        1.0080           0
     44105 WT15     981      MECN     H12      HGA3     0.090000        1.0080           0
     44106 WT15     981      MECN     H13      HGA3     0.090000        1.0080           0
     44107 WT15     981      MECN     C2       CG1N1    0.360000       12.0110           0
     44108 WT15     981      MECN     N3       NG1T1   -0.460000       14.0070           0
     44109 WT15     984      MECN     C1       CG331   -0.170000       12.0110           0
     44110 WT15     984      MECN     H11      HGA3     0.090000        1.0080           0
     44111 WT15     984      MECN     H12      HGA3     0.090000        1.0080           0
     44112 WT15     984      MECN     H13      HGA3     0.090000        1.0080           0
     44113 WT15     984      MECN     C2       CG1N1    0.360000       12.0110           0
     44114 WT15     984      MECN     N3       NG1T1   -0.460000       14.0070           0
     44115 WT15     988      MECN     C1       CG331   -0.170000       12.0110           0
     44116 WT15     988      MECN     H11      HGA3     0.090000        1.0080           0
     44117 WT15     988      MECN     H12      HGA3     0.090000        1.0080           0
     44118 WT15     988      MECN     H13      HGA3     0.090000        1.0080           0
     44119 WT15     988      MECN     C2       CG1N1    0.360000       12.0110           0
     44120 WT15     988      MECN     N3       NG1T1   -0.460000       14.0070           0
     44121 WT15     993      MECN     C1       CG331   -0.170000       12.0110           0
     44122 WT15     993      MECN     H11      HGA3     0.090000        1.0080           0
     44123 WT15     993      MECN     H12      HGA3     0.090000        1.0080           0
     44124 WT15     993      MECN     H13      HGA3     0.090000        1.0080           0
     44125 WT15     993      MECN     C2       CG1N1    0.360000       12.0110           0
     44126 WT15     993      MECN     N3       NG1T1   -0.460000       14.0070           0
     44127 WT15     996      MECN     C1       CG331   -0.170000       12.0110           0
     44128 WT15     996      MECN     H11      HGA3     0.090000        1.0080           0
     44129 WT15     996      MECN     H12      HGA3     0.090000        1.0080           0
     44130 WT15     996      MECN     H13      HGA3     0.090000        1.0080           0
     44131 WT15     996      MECN     C2       CG1N1    0.360000       12.0110           0
     44132 WT15     996      MECN     N3       NG1T1   -0.460000       14.0070           0
     44133 WT15     997      MECN     C1       CG331   -0.170000       12.0110           0
     44134 WT15     997      MECN     H11      HGA3     0.090000        1.0080           0
     44135 WT15     997      MECN     H12      HGA3     0.090000        1.0080           0
     44136 WT15     997      MECN     H13      HGA3     0.090000        1.0080           0
     44137 WT15     997      MECN     C2       CG1N1    0.360000       12.0110           0
     44138 WT15     997      MECN     N3       NG1T1   -0.460000       14.0070           0
     44139 WT15     998      MECN     C1       CG331   -0.170000       12.0110           0
     44140 WT15     998      MECN     H11      HGA3     0.090000        1.0080           0
     44141 WT15     998      MECN     H12      HGA3     0.090000        1.0080           0
     44142 WT15     998      MECN     H13      HGA3     0.090000        1.0080           0
     44143 WT15     998      MECN     C2       CG1N1    0.360000       12.0110           0
     44144 WT15     998      MECN     N3       NG1T1   -0.460000       14.0070           0
     44145 WT15     999      MECN     C1       CG331   -0.170000       12.0110           0
     44146 WT15     999      MECN     H11      HGA3     0.090000        1.0080           0
     44147 WT15     999      MECN     H12      HGA3     0.090000        1.0080           0
     44148 WT15     999      MECN     H13      HGA3     0.090000        1.0080           0
     44149 WT15     999      MECN     C2       CG1N1    0.360000       12.0110           0
     44150 WT15     999      MECN     N3       NG1T1   -0.460000       14.0070           0
     44151 WT15     1000     MECN     C1       CG331   -0.170000       12.0110           0
     44152 WT15     1000     MECN     H11      HGA3     0.090000        1.0080           0
     44153 WT15     1000     MECN     H12      HGA3     0.090000        1.0080           0
     44154 WT15     1000     MECN     H13      HGA3     0.090000        1.0080           0
     44155 WT15     1000     MECN     C2       CG1N1    0.360000       12.0110           0
     44156 WT15     1000     MECN     N3       NG1T1   -0.460000       14.0070           0
     44157 WT15     1001     MECN     C1       CG331   -0.170000       12.0110           0
     44158 WT15     1001     MECN     H11      HGA3     0.090000        1.0080           0
     44159 WT15     1001     MECN     H12      HGA3     0.090000        1.0080           0
     44160 WT15     1001     MECN     H13      HGA3     0.090000        1.0080           0
     44161 WT15     1001     MECN     C2       CG1N1    0.360000       12.0110           0
     44162 WT15     1001     MECN     N3       NG1T1   -0.460000       14.0070           0
     44163 WT15     1002     MECN     C1       CG331   -0.170000       12.0110           0
     44164 WT15     1002     MECN     H11      HGA3     0.090000        1.0080           0
     44165 WT15     1002     MECN     H12      HGA3     0.090000        1.0080           0
     44166 WT15     1002     MECN     H13      HGA3     0.090000        1.0080           0
     44167 WT15     1002     MECN     C2       CG1N1    0.360000       12.0110           0
     44168 WT15     1002     MECN     N3       NG1T1   -0.460000       14.0070           0
     44169 WT15     1003     MECN     C1       CG331   -0.170000       12.0110           0
     44170 WT15     1003     MECN     H11      HGA3     0.090000        1.0080           0
     44171 WT15     1003     MECN     H12      HGA3     0.090000        1.0080           0
     44172 WT15     1003     MECN     H13      HGA3     0.090000        1.0080           0
     44173 WT15     1003     MECN     C2       CG1N1    0.360000       12.0110           0
     44174 WT15     1003     MECN     N3       NG1T1   -0.460000       14.0070           0
     44175 WT15     1004     MECN     C1       CG331   -0.170000       12.0110           0
     44176 WT15     1004     MECN     H11      HGA3     0.090000        1.0080           0
     44177 WT15     1004     MECN     H12      HGA3     0.090000        1.0080           0
     44178 WT15     1004     MECN     H13      HGA3     0.090000        1.0080           0
     44179 WT15     1004     MECN     C2       CG1N1    0.360000       12.0110           0
     44180 WT15     1004     MECN     N3       NG1T1   -0.460000       14.0070           0
     44181 WT15     1005     MECN     C1       CG331   -0.170000       12.0110           0
     44182 WT15     1005     MECN     H11      HGA3     0.090000        1.0080           0
     44183 WT15     1005     MECN     H12      HGA3     0.090000        1.0080           0
     44184 WT15     1005     MECN     H13      HGA3     0.090000        1.0080           0
     44185 WT15     1005     MECN     C2       CG1N1    0.360000       12.0110           0
     44186 WT15     1005     MECN     N3       NG1T1   -0.460000       14.0070           0
     44187 WT15     1006     MECN     C1       CG331   -0.170000       12.0110           0
     44188 WT15     1006     MECN     H11      HGA3     0.090000        1.0080           0
     44189 WT15     1006     MECN     H12      HGA3     0.090000        1.0080           0
     44190 WT15     1006     MECN     H13      HGA3     0.090000        1.0080           0
     44191 WT15     1006     MECN     C2       CG1N1    0.360000       12.0110           0
     44192 WT15     1006     MECN     N3       NG1T1   -0.460000       14.0070           0
     44193 WT15     1007     MECN     C1       CG331   -0.170000       12.0110           0
     44194 WT15     1007     MECN     H11      HGA3     0.090000        1.0080           0
     44195 WT15     1007     MECN     H12      HGA3     0.090000        1.0080           0
     44196 WT15     1007     MECN     H13      HGA3     0.090000        1.0080           0
     44197 WT15     1007     MECN     C2       CG1N1    0.360000       12.0110           0
     44198 WT15     1007     MECN     N3       NG1T1   -0.460000       14.0070           0
     44199 WT15     1009     MECN     C1       CG331   -0.170000       12.0110           0
     44200 WT15     1009     MECN     H11      HGA3     0.090000        1.0080           0
     44201 WT15     1009     MECN     H12      HGA3     0.090000        1.0080           0
     44202 WT15     1009     MECN     H13      HGA3     0.090000        1.0080           0
     44203 WT15     1009     MECN     C2       CG1N1    0.360000       12.0110           0
     44204 WT15     1009     MECN     N3       NG1T1   -0.460000       14.0070           0
     44205 WT15     1011     MECN     C1       CG331   -0.170000       12.0110           0
     44206 WT15     1011     MECN     H11      HGA3     0.090000        1.0080           0
     44207 WT15     1011     MECN     H12      HGA3     0.090000        1.0080           0
     44208 WT15     1011     MECN     H13      HGA3     0.090000        1.0080           0
     44209 WT15     1011     MECN     C2       CG1N1    0.360000       12.0110           0
     44210 WT15     1011     MECN     N3       NG1T1   -0.460000       14.0070           0
     44211 WT15     1013     MECN     C1       CG331   -0.170000       12.0110           0
     44212 WT15     1013     MECN     H11      HGA3     0.090000        1.0080           0
     44213 WT15     1013     MECN     H12      HGA3     0.090000        1.0080           0
     44214 WT15     1013     MECN     H13      HGA3     0.090000        1.0080           0
     44215 WT15     1013     MECN     C2       CG1N1    0.360000       12.0110           0
     44216 WT15     1013     MECN     N3       NG1T1   -0.460000       14.0070           0
     44217 WT15     1014     MECN     C1       CG331   -0.170000       12.0110           0
     44218 WT15     1014     MECN     H11      HGA3     0.090000        1.0080           0
     44219 WT15     1014     MECN     H12      HGA3     0.090000        1.0080           0
     44220 WT15     1014     MECN     H13      HGA3     0.090000        1.0080           0
     44221 WT15     1014     MECN     C2       CG1N1    0.360000       12.0110           0
     44222 WT15     1014     MECN     N3       NG1T1   -0.460000       14.0070           0
     44223 WT15     1015     MECN     C1       CG331   -0.170000       12.0110           0
     44224 WT15     1015     MECN     H11      HGA3     0.090000        1.0080           0
     44225 WT15     1015     MECN     H12      HGA3     0.090000        1.0080           0
     44226 WT15     1015     MECN     H13      HGA3     0.090000        1.0080           0
     44227 WT15     1015     MECN     C2       CG1N1    0.360000       12.0110           0
     44228 WT15     1015     MECN     N3       NG1T1   -0.460000       14.0070           0
     44229 WT15     1016     MECN     C1       CG331   -0.170000       12.0110           0
     44230 WT15     1016     MECN     H11      HGA3     0.090000        1.0080           0
     44231 WT15     1016     MECN     H12      HGA3     0.090000        1.0080           0
     44232 WT15     1016     MECN     H13      HGA3     0.090000        1.0080           0
     44233 WT15     1016     MECN     C2       CG1N1    0.360000       12.0110           0
     44234 WT15     1016     MECN     N3       NG1T1   -0.460000       14.0070           0
     44235 WT15     1017     MECN     C1       CG331   -0.170000       12.0110           0
     44236 WT15     1017     MECN     H11      HGA3     0.090000        1.0080           0
     44237 WT15     1017     MECN     H12      HGA3     0.090000        1.0080           0
     44238 WT15     1017     MECN     H13      HGA3     0.090000        1.0080           0
     44239 WT15     1017     MECN     C2       CG1N1    0.360000       12.0110           0
     44240 WT15     1017     MECN     N3       NG1T1   -0.460000       14.0070           0
     44241 WT15     1018     MECN     C1       CG331   -0.170000       12.0110           0
     44242 WT15     1018     MECN     H11      HGA3     0.090000        1.0080           0
     44243 WT15     1018     MECN     H12      HGA3     0.090000        1.0080           0
     44244 WT15     1018     MECN     H13      HGA3     0.090000        1.0080           0
     44245 WT15     1018     MECN     C2       CG1N1    0.360000       12.0110           0
     44246 WT15     1018     MECN     N3       NG1T1   -0.460000       14.0070           0
     44247 WT15     1022     MECN     C1       CG331   -0.170000       12.0110           0
     44248 WT15     1022     MECN     H11      HGA3     0.090000        1.0080           0
     44249 WT15     1022     MECN     H12      HGA3     0.090000        1.0080           0
     44250 WT15     1022     MECN     H13      HGA3     0.090000        1.0080           0
     44251 WT15     1022     MECN     C2       CG1N1    0.360000       12.0110           0
     44252 WT15     1022     MECN     N3       NG1T1   -0.460000       14.0070           0
     44253 WT15     1024     MECN     C1       CG331   -0.170000       12.0110           0
     44254 WT15     1024     MECN     H11      HGA3     0.090000        1.0080           0
     44255 WT15     1024     MECN     H12      HGA3     0.090000        1.0080           0
     44256 WT15     1024     MECN     H13      HGA3     0.090000        1.0080           0
     44257 WT15     1024     MECN     C2       CG1N1    0.360000       12.0110           0
     44258 WT15     1024     MECN     N3       NG1T1   -0.460000       14.0070           0
     44259 WT15     1025     MECN     C1       CG331   -0.170000       12.0110           0
     44260 WT15     1025     MECN     H11      HGA3     0.090000        1.0080           0
     44261 WT15     1025     MECN     H12      HGA3     0.090000        1.0080           0
     44262 WT15     1025     MECN     H13      HGA3     0.090000        1.0080           0
     44263 WT15     1025     MECN     C2       CG1N1    0.360000       12.0110           0
     44264 WT15     1025     MECN     N3       NG1T1   -0.460000       14.0070           0
     44265 WT15     1026     MECN     C1       CG331   -0.170000       12.0110           0
     44266 WT15     1026     MECN     H11      HGA3     0.090000        1.0080           0
     44267 WT15     1026     MECN     H12      HGA3     0.090000        1.0080           0
     44268 WT15     1026     MECN     H13      HGA3     0.090000        1.0080           0
     44269 WT15     1026     MECN     C2       CG1N1    0.360000       12.0110           0
     44270 WT15     1026     MECN     N3       NG1T1   -0.460000       14.0070           0
     44271 WT15     1027     MECN     C1       CG331   -0.170000       12.0110           0
     44272 WT15     1027     MECN     H11      HGA3     0.090000        1.0080           0
     44273 WT15     1027     MECN     H12      HGA3     0.090000        1.0080           0
     44274 WT15     1027     MECN     H13      HGA3     0.090000        1.0080           0
     44275 WT15     1027     MECN     C2       CG1N1    0.360000       12.0110           0
     44276 WT15     1027     MECN     N3       NG1T1   -0.460000       14.0070           0
     44277 WT15     1028     MECN     C1       CG331   -0.170000       12.0110           0
     44278 WT15     1028     MECN     H11      HGA3     0.090000        1.0080           0
     44279 WT15     1028     MECN     H12      HGA3     0.090000        1.0080           0
     44280 WT15     1028     MECN     H13      HGA3     0.090000        1.0080           0
     44281 WT15     1028     MECN     C2       CG1N1    0.360000       12.0110           0
     44282 WT15     1028     MECN     N3       NG1T1   -0.460000       14.0070           0
     44283 WT15     1031     MECN     C1       CG331   -0.170000       12.0110           0
     44284 WT15     1031     MECN     H11      HGA3     0.090000        1.0080           0
     44285 WT15     1031     MECN     H12      HGA3     0.090000        1.0080           0
     44286 WT15     1031     MECN     H13      HGA3     0.090000        1.0080           0
     44287 WT15     1031     MECN     C2       CG1N1    0.360000       12.0110           0
     44288 WT15     1031     MECN     N3       NG1T1   -0.460000       14.0070           0
     44289 WT15     1032     MECN     C1       CG331   -0.170000       12.0110           0
     44290 WT15     1032     MECN     H11      HGA3     0.090000        1.0080           0
     44291 WT15     1032     MECN     H12      HGA3     0.090000        1.0080           0
     44292 WT15     1032     MECN     H13      HGA3     0.090000        1.0080           0
     44293 WT15     1032     MECN     C2       CG1N1    0.360000       12.0110           0
     44294 WT15     1032     MECN     N3       NG1T1   -0.460000       14.0070           0
     44295 WT15     1035     MECN     C1       CG331   -0.170000       12.0110           0
     44296 WT15     1035     MECN     H11      HGA3     0.090000        1.0080           0
     44297 WT15     1035     MECN     H12      HGA3     0.090000        1.0080           0
     44298 WT15     1035     MECN     H13      HGA3     0.090000        1.0080           0
     44299 WT15     1035     MECN     C2       CG1N1    0.360000       12.0110           0
     44300 WT15     1035     MECN     N3       NG1T1   -0.460000       14.0070           0
     44301 WT15     1036     MECN     C1       CG331   -0.170000       12.0110           0
     44302 WT15     1036     MECN     H11      HGA3     0.090000        1.0080           0
     44303 WT15     1036     MECN     H12      HGA3     0.090000        1.0080           0
     44304 WT15     1036     MECN     H13      HGA3     0.090000        1.0080           0
     44305 WT15     1036     MECN     C2       CG1N1    0.360000       12.0110           0
     44306 WT15     1036     MECN     N3       NG1T1   -0.460000       14.0070           0
     44307 WT15     1037     MECN     C1       CG331   -0.170000       12.0110           0
     44308 WT15     1037     MECN     H11      HGA3     0.090000        1.0080           0
     44309 WT15     1037     MECN     H12      HGA3     0.090000        1.0080           0
     44310 WT15     1037     MECN     H13      HGA3     0.090000        1.0080           0
     44311 WT15     1037     MECN     C2       CG1N1    0.360000       12.0110           0
     44312 WT15     1037     MECN     N3       NG1T1   -0.460000       14.0070           0
     44313 WT15     1038     MECN     C1       CG331   -0.170000       12.0110           0
     44314 WT15     1038     MECN     H11      HGA3     0.090000        1.0080           0
     44315 WT15     1038     MECN     H12      HGA3     0.090000        1.0080           0
     44316 WT15     1038     MECN     H13      HGA3     0.090000        1.0080           0
     44317 WT15     1038     MECN     C2       CG1N1    0.360000       12.0110           0
     44318 WT15     1038     MECN     N3       NG1T1   -0.460000       14.0070           0
     44319 WT15     1042     MECN     C1       CG331   -0.170000       12.0110           0
     44320 WT15     1042     MECN     H11      HGA3     0.090000        1.0080           0
     44321 WT15     1042     MECN     H12      HGA3     0.090000        1.0080           0
     44322 WT15     1042     MECN     H13      HGA3     0.090000        1.0080           0
     44323 WT15     1042     MECN     C2       CG1N1    0.360000       12.0110           0
     44324 WT15     1042     MECN     N3       NG1T1   -0.460000       14.0070           0
     44325 WT15     1044     MECN     C1       CG331   -0.170000       12.0110           0
     44326 WT15     1044     MECN     H11      HGA3     0.090000        1.0080           0
     44327 WT15     1044     MECN     H12      HGA3     0.090000        1.0080           0
     44328 WT15     1044     MECN     H13      HGA3     0.090000        1.0080           0
     44329 WT15     1044     MECN     C2       CG1N1    0.360000       12.0110           0
     44330 WT15     1044     MECN     N3       NG1T1   -0.460000       14.0070           0
     44331 WT15     1045     MECN     C1       CG331   -0.170000       12.0110           0
     44332 WT15     1045     MECN     H11      HGA3     0.090000        1.0080           0
     44333 WT15     1045     MECN     H12      HGA3     0.090000        1.0080           0
     44334 WT15     1045     MECN     H13      HGA3     0.090000        1.0080           0
     44335 WT15     1045     MECN     C2       CG1N1    0.360000       12.0110           0
     44336 WT15     1045     MECN     N3       NG1T1   -0.460000       14.0070           0
     44337 WT15     1046     MECN     C1       CG331   -0.170000       12.0110           0
     44338 WT15     1046     MECN     H11      HGA3     0.090000        1.0080           0
     44339 WT15     1046     MECN     H12      HGA3     0.090000        1.0080           0
     44340 WT15     1046     MECN     H13      HGA3     0.090000        1.0080           0
     44341 WT15     1046     MECN     C2       CG1N1    0.360000       12.0110           0
     44342 WT15     1046     MECN     N3       NG1T1   -0.460000       14.0070           0
     44343 WT15     1047     MECN     C1       CG331   -0.170000       12.0110           0
     44344 WT15     1047     MECN     H11      HGA3     0.090000        1.0080           0
     44345 WT15     1047     MECN     H12      HGA3     0.090000        1.0080           0
     44346 WT15     1047     MECN     H13      HGA3     0.090000        1.0080           0
     44347 WT15     1047     MECN     C2       CG1N1    0.360000       12.0110           0
     44348 WT15     1047     MECN     N3       NG1T1   -0.460000       14.0070           0
     44349 WT15     1049     MECN     C1       CG331   -0.170000       12.0110           0
     44350 WT15     1049     MECN     H11      HGA3     0.090000        1.0080           0
     44351 WT15     1049     MECN     H12      HGA3     0.090000        1.0080           0
     44352 WT15     1049     MECN     H13      HGA3     0.090000        1.0080           0
     44353 WT15     1049     MECN     C2       CG1N1    0.360000       12.0110           0
     44354 WT15     1049     MECN     N3       NG1T1   -0.460000       14.0070           0
     44355 WT15     1054     MECN     C1       CG331   -0.170000       12.0110           0
     44356 WT15     1054     MECN     H11      HGA3     0.090000        1.0080           0
     44357 WT15     1054     MECN     H12      HGA3     0.090000        1.0080           0
     44358 WT15     1054     MECN     H13      HGA3     0.090000        1.0080           0
     44359 WT15     1054     MECN     C2       CG1N1    0.360000       12.0110           0
     44360 WT15     1054     MECN     N3       NG1T1   -0.460000       14.0070           0
     44361 WT15     1056     MECN     C1       CG331   -0.170000       12.0110           0
     44362 WT15     1056     MECN     H11      HGA3     0.090000        1.0080           0
     44363 WT15     1056     MECN     H12      HGA3     0.090000        1.0080           0
     44364 WT15     1056     MECN     H13      HGA3     0.090000        1.0080           0
     44365 WT15     1056     MECN     C2       CG1N1    0.360000       12.0110           0
     44366 WT15     1056     MECN     N3       NG1T1   -0.460000       14.0070           0
     44367 WT15     1059     MECN     C1       CG331   -0.170000       12.0110           0
     44368 WT15     1059     MECN     H11      HGA3     0.090000        1.0080           0
     44369 WT15     1059     MECN     H12      HGA3     0.090000        1.0080           0
     44370 WT15     1059     MECN     H13      HGA3     0.090000        1.0080           0
     44371 WT15     1059     MECN     C2       CG1N1    0.360000       12.0110           0
     44372 WT15     1059     MECN     N3       NG1T1   -0.460000       14.0070           0
     44373 WT15     1060     MECN     C1       CG331   -0.170000       12.0110           0
     44374 WT15     1060     MECN     H11      HGA3     0.090000        1.0080           0
     44375 WT15     1060     MECN     H12      HGA3     0.090000        1.0080           0
     44376 WT15     1060     MECN     H13      HGA3     0.090000        1.0080           0
     44377 WT15     1060     MECN     C2       CG1N1    0.360000       12.0110           0
     44378 WT15     1060     MECN     N3       NG1T1   -0.460000       14.0070           0
     44379 WT15     1061     MECN     C1       CG331   -0.170000       12.0110           0
     44380 WT15     1061     MECN     H11      HGA3     0.090000        1.0080           0
     44381 WT15     1061     MECN     H12      HGA3     0.090000        1.0080           0
     44382 WT15     1061     MECN     H13      HGA3     0.090000        1.0080           0
     44383 WT15     1061     MECN     C2       CG1N1    0.360000       12.0110           0
     44384 WT15     1061     MECN     N3       NG1T1   -0.460000       14.0070           0
     44385 WT15     1064     MECN     C1       CG331   -0.170000       12.0110           0
     44386 WT15     1064     MECN     H11      HGA3     0.090000        1.0080           0
     44387 WT15     1064     MECN     H12      HGA3     0.090000        1.0080           0
     44388 WT15     1064     MECN     H13      HGA3     0.090000        1.0080           0
     44389 WT15     1064     MECN     C2       CG1N1    0.360000       12.0110           0
     44390 WT15     1064     MECN     N3       NG1T1   -0.460000       14.0070           0
     44391 WT15     1066     MECN     C1       CG331   -0.170000       12.0110           0
     44392 WT15     1066     MECN     H11      HGA3     0.090000        1.0080           0
     44393 WT15     1066     MECN     H12      HGA3     0.090000        1.0080           0
     44394 WT15     1066     MECN     H13      HGA3     0.090000        1.0080           0
     44395 WT15     1066     MECN     C2       CG1N1    0.360000       12.0110           0
     44396 WT15     1066     MECN     N3       NG1T1   -0.460000       14.0070           0
     44397 WT15     1067     MECN     C1       CG331   -0.170000       12.0110           0
     44398 WT15     1067     MECN     H11      HGA3     0.090000        1.0080           0
     44399 WT15     1067     MECN     H12      HGA3     0.090000        1.0080           0
     44400 WT15     1067     MECN     H13      HGA3     0.090000        1.0080           0
     44401 WT15     1067     MECN     C2       CG1N1    0.360000       12.0110           0
     44402 WT15     1067     MECN     N3       NG1T1   -0.460000       14.0070           0
     44403 WT15     1068     MECN     C1       CG331   -0.170000       12.0110           0
     44404 WT15     1068     MECN     H11      HGA3     0.090000        1.0080           0
     44405 WT15     1068     MECN     H12      HGA3     0.090000        1.0080           0
     44406 WT15     1068     MECN     H13      HGA3     0.090000        1.0080           0
     44407 WT15     1068     MECN     C2       CG1N1    0.360000       12.0110           0
     44408 WT15     1068     MECN     N3       NG1T1   -0.460000       14.0070           0
     44409 WT15     1069     MECN     C1       CG331   -0.170000       12.0110           0
     44410 WT15     1069     MECN     H11      HGA3     0.090000        1.0080           0
     44411 WT15     1069     MECN     H12      HGA3     0.090000        1.0080           0
     44412 WT15     1069     MECN     H13      HGA3     0.090000        1.0080           0
     44413 WT15     1069     MECN     C2       CG1N1    0.360000       12.0110           0
     44414 WT15     1069     MECN     N3       NG1T1   -0.460000       14.0070           0
     44415 WT15     1070     MECN     C1       CG331   -0.170000       12.0110           0
     44416 WT15     1070     MECN     H11      HGA3     0.090000        1.0080           0
     44417 WT15     1070     MECN     H12      HGA3     0.090000        1.0080           0
     44418 WT15     1070     MECN     H13      HGA3     0.090000        1.0080           0
     44419 WT15     1070     MECN     C2       CG1N1    0.360000       12.0110           0
     44420 WT15     1070     MECN     N3       NG1T1   -0.460000       14.0070           0
     44421 WT15     1073     MECN     C1       CG331   -0.170000       12.0110           0
     44422 WT15     1073     MECN     H11      HGA3     0.090000        1.0080           0
     44423 WT15     1073     MECN     H12      HGA3     0.090000        1.0080           0
     44424 WT15     1073     MECN     H13      HGA3     0.090000        1.0080           0
     44425 WT15     1073     MECN     C2       CG1N1    0.360000       12.0110           0
     44426 WT15     1073     MECN     N3       NG1T1   -0.460000       14.0070           0
     44427 WT15     1074     MECN     C1       CG331   -0.170000       12.0110           0
     44428 WT15     1074     MECN     H11      HGA3     0.090000        1.0080           0
     44429 WT15     1074     MECN     H12      HGA3     0.090000        1.0080           0
     44430 WT15     1074     MECN     H13      HGA3     0.090000        1.0080           0
     44431 WT15     1074     MECN     C2       CG1N1    0.360000       12.0110           0
     44432 WT15     1074     MECN     N3       NG1T1   -0.460000       14.0070           0
     44433 WT15     1076     MECN     C1       CG331   -0.170000       12.0110           0
     44434 WT15     1076     MECN     H11      HGA3     0.090000        1.0080           0
     44435 WT15     1076     MECN     H12      HGA3     0.090000        1.0080           0
     44436 WT15     1076     MECN     H13      HGA3     0.090000        1.0080           0
     44437 WT15     1076     MECN     C2       CG1N1    0.360000       12.0110           0
     44438 WT15     1076     MECN     N3       NG1T1   -0.460000       14.0070           0
     44439 WT15     1077     MECN     C1       CG331   -0.170000       12.0110           0
     44440 WT15     1077     MECN     H11      HGA3     0.090000        1.0080           0
     44441 WT15     1077     MECN     H12      HGA3     0.090000        1.0080           0
     44442 WT15     1077     MECN     H13      HGA3     0.090000        1.0080           0
     44443 WT15     1077     MECN     C2       CG1N1    0.360000       12.0110           0
     44444 WT15     1077     MECN     N3       NG1T1   -0.460000       14.0070           0
     44445 WT15     1079     MECN     C1       CG331   -0.170000       12.0110           0
     44446 WT15     1079     MECN     H11      HGA3     0.090000        1.0080           0
     44447 WT15     1079     MECN     H12      HGA3     0.090000        1.0080           0
     44448 WT15     1079     MECN     H13      HGA3     0.090000        1.0080           0
     44449 WT15     1079     MECN     C2       CG1N1    0.360000       12.0110           0
     44450 WT15     1079     MECN     N3       NG1T1   -0.460000       14.0070           0
     44451 WT15     1082     MECN     C1       CG331   -0.170000       12.0110           0
     44452 WT15     1082     MECN     H11      HGA3     0.090000        1.0080           0
     44453 WT15     1082     MECN     H12      HGA3     0.090000        1.0080           0
     44454 WT15     1082     MECN     H13      HGA3     0.090000        1.0080           0
     44455 WT15     1082     MECN     C2       CG1N1    0.360000       12.0110           0
     44456 WT15     1082     MECN     N3       NG1T1   -0.460000       14.0070           0
     44457 WT15     1083     MECN     C1       CG331   -0.170000       12.0110           0
     44458 WT15     1083     MECN     H11      HGA3     0.090000        1.0080           0
     44459 WT15     1083     MECN     H12      HGA3     0.090000        1.0080           0
     44460 WT15     1083     MECN     H13      HGA3     0.090000        1.0080           0
     44461 WT15     1083     MECN     C2       CG1N1    0.360000       12.0110           0
     44462 WT15     1083     MECN     N3       NG1T1   -0.460000       14.0070           0
     44463 WT15     1086     MECN     C1       CG331   -0.170000       12.0110           0
     44464 WT15     1086     MECN     H11      HGA3     0.090000        1.0080           0
     44465 WT15     1086     MECN     H12      HGA3     0.090000        1.0080           0
     44466 WT15     1086     MECN     H13      HGA3     0.090000        1.0080           0
     44467 WT15     1086     MECN     C2       CG1N1    0.360000       12.0110           0
     44468 WT15     1086     MECN     N3       NG1T1   -0.460000       14.0070           0
     44469 WT15     1088     MECN     C1       CG331   -0.170000       12.0110           0
     44470 WT15     1088     MECN     H11      HGA3     0.090000        1.0080           0
     44471 WT15     1088     MECN     H12      HGA3     0.090000        1.0080           0
     44472 WT15     1088     MECN     H13      HGA3     0.090000        1.0080           0
     44473 WT15     1088     MECN     C2       CG1N1    0.360000       12.0110           0
     44474 WT15     1088     MECN     N3       NG1T1   -0.460000       14.0070           0
     44475 WT15     1089     MECN     C1       CG331   -0.170000       12.0110           0
     44476 WT15     1089     MECN     H11      HGA3     0.090000        1.0080           0
     44477 WT15     1089     MECN     H12      HGA3     0.090000        1.0080           0
     44478 WT15     1089     MECN     H13      HGA3     0.090000        1.0080           0
     44479 WT15     1089     MECN     C2       CG1N1    0.360000       12.0110           0
     44480 WT15     1089     MECN     N3       NG1T1   -0.460000       14.0070           0
     44481 WT15     1090     MECN     C1       CG331   -0.170000       12.0110           0
     44482 WT15     1090     MECN     H11      HGA3     0.090000        1.0080           0
     44483 WT15     1090     MECN     H12      HGA3     0.090000        1.0080           0
     44484 WT15     1090     MECN     H13      HGA3     0.090000        1.0080           0
     44485 WT15     1090     MECN     C2       CG1N1    0.360000       12.0110           0
     44486 WT15     1090     MECN     N3       NG1T1   -0.460000       14.0070           0
     44487 WT15     1092     MECN     C1       CG331   -0.170000       12.0110           0
     44488 WT15     1092     MECN     H11      HGA3     0.090000        1.0080           0
     44489 WT15     1092     MECN     H12      HGA3     0.090000        1.0080           0
     44490 WT15     1092     MECN     H13      HGA3     0.090000        1.0080           0
     44491 WT15     1092     MECN     C2       CG1N1    0.360000       12.0110           0
     44492 WT15     1092     MECN     N3       NG1T1   -0.460000       14.0070           0
     44493 WT15     1096     MECN     C1       CG331   -0.170000       12.0110           0
     44494 WT15     1096     MECN     H11      HGA3     0.090000        1.0080           0
     44495 WT15     1096     MECN     H12      HGA3     0.090000        1.0080           0
     44496 WT15     1096     MECN     H13      HGA3     0.090000        1.0080           0
     44497 WT15     1096     MECN     C2       CG1N1    0.360000       12.0110           0
     44498 WT15     1096     MECN     N3       NG1T1   -0.460000       14.0070           0
     44499 WT15     1097     MECN     C1       CG331   -0.170000       12.0110           0
     44500 WT15     1097     MECN     H11      HGA3     0.090000        1.0080           0
     44501 WT15     1097     MECN     H12      HGA3     0.090000        1.0080           0
     44502 WT15     1097     MECN     H13      HGA3     0.090000        1.0080           0
     44503 WT15     1097     MECN     C2       CG1N1    0.360000       12.0110           0
     44504 WT15     1097     MECN     N3       NG1T1   -0.460000       14.0070           0
     44505 WT15     1099     MECN     C1       CG331   -0.170000       12.0110           0
     44506 WT15     1099     MECN     H11      HGA3     0.090000        1.0080           0
     44507 WT15     1099     MECN     H12      HGA3     0.090000        1.0080           0
     44508 WT15     1099     MECN     H13      HGA3     0.090000        1.0080           0
     44509 WT15     1099     MECN     C2       CG1N1    0.360000       12.0110           0
     44510 WT15     1099     MECN     N3       NG1T1   -0.460000       14.0070           0
     44511 WT15     1100     MECN     C1       CG331   -0.170000       12.0110           0
     44512 WT15     1100     MECN     H11      HGA3     0.090000        1.0080           0
     44513 WT15     1100     MECN     H12      HGA3     0.090000        1.0080           0
     44514 WT15     1100     MECN     H13      HGA3     0.090000        1.0080           0
     44515 WT15     1100     MECN     C2       CG1N1    0.360000       12.0110           0
     44516 WT15     1100     MECN     N3       NG1T1   -0.460000       14.0070           0
     44517 WT15     1101     MECN     C1       CG331   -0.170000       12.0110           0
     44518 WT15     1101     MECN     H11      HGA3     0.090000        1.0080           0
     44519 WT15     1101     MECN     H12      HGA3     0.090000        1.0080           0
     44520 WT15     1101     MECN     H13      HGA3     0.090000        1.0080           0
     44521 WT15     1101     MECN     C2       CG1N1    0.360000       12.0110           0
     44522 WT15     1101     MECN     N3       NG1T1   -0.460000       14.0070           0
     44523 WT15     1102     MECN     C1       CG331   -0.170000       12.0110           0
     44524 WT15     1102     MECN     H11      HGA3     0.090000        1.0080           0
     44525 WT15     1102     MECN     H12      HGA3     0.090000        1.0080           0
     44526 WT15     1102     MECN     H13      HGA3     0.090000        1.0080           0
     44527 WT15     1102     MECN     C2       CG1N1    0.360000       12.0110           0
     44528 WT15     1102     MECN     N3       NG1T1   -0.460000       14.0070           0
     44529 WT15     1103     MECN     C1       CG331   -0.170000       12.0110           0
     44530 WT15     1103     MECN     H11      HGA3     0.090000        1.0080           0
     44531 WT15     1103     MECN     H12      HGA3     0.090000        1.0080           0
     44532 WT15     1103     MECN     H13      HGA3     0.090000        1.0080           0
     44533 WT15     1103     MECN     C2       CG1N1    0.360000       12.0110           0
     44534 WT15     1103     MECN     N3       NG1T1   -0.460000       14.0070           0
     44535 WT15     1104     MECN     C1       CG331   -0.170000       12.0110           0
     44536 WT15     1104     MECN     H11      HGA3     0.090000        1.0080           0
     44537 WT15     1104     MECN     H12      HGA3     0.090000        1.0080           0
     44538 WT15     1104     MECN     H13      HGA3     0.090000        1.0080           0
     44539 WT15     1104     MECN     C2       CG1N1    0.360000       12.0110           0
     44540 WT15     1104     MECN     N3       NG1T1   -0.460000       14.0070           0
     44541 WT15     1105     MECN     C1       CG331   -0.170000       12.0110           0
     44542 WT15     1105     MECN     H11      HGA3     0.090000        1.0080           0
     44543 WT15     1105     MECN     H12      HGA3     0.090000        1.0080           0
     44544 WT15     1105     MECN     H13      HGA3     0.090000        1.0080           0
     44545 WT15     1105     MECN     C2       CG1N1    0.360000       12.0110           0
     44546 WT15     1105     MECN     N3       NG1T1   -0.460000       14.0070           0
     44547 WT15     1107     MECN     C1       CG331   -0.170000       12.0110           0
     44548 WT15     1107     MECN     H11      HGA3     0.090000        1.0080           0
     44549 WT15     1107     MECN     H12      HGA3     0.090000        1.0080           0
     44550 WT15     1107     MECN     H13      HGA3     0.090000        1.0080           0
     44551 WT15     1107     MECN     C2       CG1N1    0.360000       12.0110           0
     44552 WT15     1107     MECN     N3       NG1T1   -0.460000       14.0070           0
     44553 WT15     1108     MECN     C1       CG331   -0.170000       12.0110           0
     44554 WT15     1108     MECN     H11      HGA3     0.090000        1.0080           0
     44555 WT15     1108     MECN     H12      HGA3     0.090000        1.0080           0
     44556 WT15     1108     MECN     H13      HGA3     0.090000        1.0080           0
     44557 WT15     1108     MECN     C2       CG1N1    0.360000       12.0110           0
     44558 WT15     1108     MECN     N3       NG1T1   -0.460000       14.0070           0
     44559 WT15     1110     MECN     C1       CG331   -0.170000       12.0110           0
     44560 WT15     1110     MECN     H11      HGA3     0.090000        1.0080           0
     44561 WT15     1110     MECN     H12      HGA3     0.090000        1.0080           0
     44562 WT15     1110     MECN     H13      HGA3     0.090000        1.0080           0
     44563 WT15     1110     MECN     C2       CG1N1    0.360000       12.0110           0
     44564 WT15     1110     MECN     N3       NG1T1   -0.460000       14.0070           0
     44565 WT15     1111     MECN     C1       CG331   -0.170000       12.0110           0
     44566 WT15     1111     MECN     H11      HGA3     0.090000        1.0080           0
     44567 WT15     1111     MECN     H12      HGA3     0.090000        1.0080           0
     44568 WT15     1111     MECN     H13      HGA3     0.090000        1.0080           0
     44569 WT15     1111     MECN     C2       CG1N1    0.360000       12.0110           0
     44570 WT15     1111     MECN     N3       NG1T1   -0.460000       14.0070           0
     44571 WT15     1112     MECN     C1       CG331   -0.170000       12.0110           0
     44572 WT15     1112     MECN     H11      HGA3     0.090000        1.0080           0
     44573 WT15     1112     MECN     H12      HGA3     0.090000        1.0080           0
     44574 WT15     1112     MECN     H13      HGA3     0.090000        1.0080           0
     44575 WT15     1112     MECN     C2       CG1N1    0.360000       12.0110           0
     44576 WT15     1112     MECN     N3       NG1T1   -0.460000       14.0070           0
     44577 WT15     1113     MECN     C1       CG331   -0.170000       12.0110           0
     44578 WT15     1113     MECN     H11      HGA3     0.090000        1.0080           0
     44579 WT15     1113     MECN     H12      HGA3     0.090000        1.0080           0
     44580 WT15     1113     MECN     H13      HGA3     0.090000        1.0080           0
     44581 WT15     1113     MECN     C2       CG1N1    0.360000       12.0110           0
     44582 WT15     1113     MECN     N3       NG1T1   -0.460000       14.0070           0
     44583 WT15     1114     MECN     C1       CG331   -0.170000       12.0110           0
     44584 WT15     1114     MECN     H11      HGA3     0.090000        1.0080           0
     44585 WT15     1114     MECN     H12      HGA3     0.090000        1.0080           0
     44586 WT15     1114     MECN     H13      HGA3     0.090000        1.0080           0
     44587 WT15     1114     MECN     C2       CG1N1    0.360000       12.0110           0
     44588 WT15     1114     MECN     N3       NG1T1   -0.460000       14.0070           0
     44589 WT15     1116     MECN     C1       CG331   -0.170000       12.0110           0
     44590 WT15     1116     MECN     H11      HGA3     0.090000        1.0080           0
     44591 WT15     1116     MECN     H12      HGA3     0.090000        1.0080           0
     44592 WT15     1116     MECN     H13      HGA3     0.090000        1.0080           0
     44593 WT15     1116     MECN     C2       CG1N1    0.360000       12.0110           0
     44594 WT15     1116     MECN     N3       NG1T1   -0.460000       14.0070           0
     44595 WT15     1117     MECN     C1       CG331   -0.170000       12.0110           0
     44596 WT15     1117     MECN     H11      HGA3     0.090000        1.0080           0
     44597 WT15     1117     MECN     H12      HGA3     0.090000        1.0080           0
     44598 WT15     1117     MECN     H13      HGA3     0.090000        1.0080           0
     44599 WT15     1117     MECN     C2       CG1N1    0.360000       12.0110           0
     44600 WT15     1117     MECN     N3       NG1T1   -0.460000       14.0070           0
     44601 WT15     1118     MECN     C1       CG331   -0.170000       12.0110           0
     44602 WT15     1118     MECN     H11      HGA3     0.090000        1.0080           0
     44603 WT15     1118     MECN     H12      HGA3     0.090000        1.0080           0
     44604 WT15     1118     MECN     H13      HGA3     0.090000        1.0080           0
     44605 WT15     1118     MECN     C2       CG1N1    0.360000       12.0110           0
     44606 WT15     1118     MECN     N3       NG1T1   -0.460000       14.0070           0
     44607 WT15     1119     MECN     C1       CG331   -0.170000       12.0110           0
     44608 WT15     1119     MECN     H11      HGA3     0.090000        1.0080           0
     44609 WT15     1119     MECN     H12      HGA3     0.090000        1.0080           0
     44610 WT15     1119     MECN     H13      HGA3     0.090000        1.0080           0
     44611 WT15     1119     MECN     C2       CG1N1    0.360000       12.0110           0
     44612 WT15     1119     MECN     N3       NG1T1   -0.460000       14.0070           0
     44613 WT15     1121     MECN     C1       CG331   -0.170000       12.0110           0
     44614 WT15     1121     MECN     H11      HGA3     0.090000        1.0080           0
     44615 WT15     1121     MECN     H12      HGA3     0.090000        1.0080           0
     44616 WT15     1121     MECN     H13      HGA3     0.090000        1.0080           0
     44617 WT15     1121     MECN     C2       CG1N1    0.360000       12.0110           0
     44618 WT15     1121     MECN     N3       NG1T1   -0.460000       14.0070           0
     44619 WT15     1122     MECN     C1       CG331   -0.170000       12.0110           0
     44620 WT15     1122     MECN     H11      HGA3     0.090000        1.0080           0
     44621 WT15     1122     MECN     H12      HGA3     0.090000        1.0080           0
     44622 WT15     1122     MECN     H13      HGA3     0.090000        1.0080           0
     44623 WT15     1122     MECN     C2       CG1N1    0.360000       12.0110           0
     44624 WT15     1122     MECN     N3       NG1T1   -0.460000       14.0070           0
     44625 WT15     1123     MECN     C1       CG331   -0.170000       12.0110           0
     44626 WT15     1123     MECN     H11      HGA3     0.090000        1.0080           0
     44627 WT15     1123     MECN     H12      HGA3     0.090000        1.0080           0
     44628 WT15     1123     MECN     H13      HGA3     0.090000        1.0080           0
     44629 WT15     1123     MECN     C2       CG1N1    0.360000       12.0110           0
     44630 WT15     1123     MECN     N3       NG1T1   -0.460000       14.0070           0
     44631 WT15     1124     MECN     C1       CG331   -0.170000       12.0110           0
     44632 WT15     1124     MECN     H11      HGA3     0.090000        1.0080           0
     44633 WT15     1124     MECN     H12      HGA3     0.090000        1.0080           0
     44634 WT15     1124     MECN     H13      HGA3     0.090000        1.0080           0
     44635 WT15     1124     MECN     C2       CG1N1    0.360000       12.0110           0
     44636 WT15     1124     MECN     N3       NG1T1   -0.460000       14.0070           0
     44637 WT15     1126     MECN     C1       CG331   -0.170000       12.0110           0
     44638 WT15     1126     MECN     H11      HGA3     0.090000        1.0080           0
     44639 WT15     1126     MECN     H12      HGA3     0.090000        1.0080           0
     44640 WT15     1126     MECN     H13      HGA3     0.090000        1.0080           0
     44641 WT15     1126     MECN     C2       CG1N1    0.360000       12.0110           0
     44642 WT15     1126     MECN     N3       NG1T1   -0.460000       14.0070           0
     44643 WT15     1127     MECN     C1       CG331   -0.170000       12.0110           0
     44644 WT15     1127     MECN     H11      HGA3     0.090000        1.0080           0
     44645 WT15     1127     MECN     H12      HGA3     0.090000        1.0080           0
     44646 WT15     1127     MECN     H13      HGA3     0.090000        1.0080           0
     44647 WT15     1127     MECN     C2       CG1N1    0.360000       12.0110           0
     44648 WT15     1127     MECN     N3       NG1T1   -0.460000       14.0070           0
     44649 WT15     1128     MECN     C1       CG331   -0.170000       12.0110           0
     44650 WT15     1128     MECN     H11      HGA3     0.090000        1.0080           0
     44651 WT15     1128     MECN     H12      HGA3     0.090000        1.0080           0
     44652 WT15     1128     MECN     H13      HGA3     0.090000        1.0080           0
     44653 WT15     1128     MECN     C2       CG1N1    0.360000       12.0110           0
     44654 WT15     1128     MECN     N3       NG1T1   -0.460000       14.0070           0
     44655 WT15     1129     MECN     C1       CG331   -0.170000       12.0110           0
     44656 WT15     1129     MECN     H11      HGA3     0.090000        1.0080           0
     44657 WT15     1129     MECN     H12      HGA3     0.090000        1.0080           0
     44658 WT15     1129     MECN     H13      HGA3     0.090000        1.0080           0
     44659 WT15     1129     MECN     C2       CG1N1    0.360000       12.0110           0
     44660 WT15     1129     MECN     N3       NG1T1   -0.460000       14.0070           0
     44661 WT15     1131     MECN     C1       CG331   -0.170000       12.0110           0
     44662 WT15     1131     MECN     H11      HGA3     0.090000        1.0080           0
     44663 WT15     1131     MECN     H12      HGA3     0.090000        1.0080           0
     44664 WT15     1131     MECN     H13      HGA3     0.090000        1.0080           0
     44665 WT15     1131     MECN     C2       CG1N1    0.360000       12.0110           0
     44666 WT15     1131     MECN     N3       NG1T1   -0.460000       14.0070           0
     44667 WT15     1132     MECN     C1       CG331   -0.170000       12.0110           0
     44668 WT15     1132     MECN     H11      HGA3     0.090000        1.0080           0
     44669 WT15     1132     MECN     H12      HGA3     0.090000        1.0080           0
     44670 WT15     1132     MECN     H13      HGA3     0.090000        1.0080           0
     44671 WT15     1132     MECN     C2       CG1N1    0.360000       12.0110           0
     44672 WT15     1132     MECN     N3       NG1T1   -0.460000       14.0070           0
     44673 WT15     1133     MECN     C1       CG331   -0.170000       12.0110           0
     44674 WT15     1133     MECN     H11      HGA3     0.090000        1.0080           0
     44675 WT15     1133     MECN     H12      HGA3     0.090000        1.0080           0
     44676 WT15     1133     MECN     H13      HGA3     0.090000        1.0080           0
     44677 WT15     1133     MECN     C2       CG1N1    0.360000       12.0110           0
     44678 WT15     1133     MECN     N3       NG1T1   -0.460000       14.0070           0
     44679 WT15     1134     MECN     C1       CG331   -0.170000       12.0110           0
     44680 WT15     1134     MECN     H11      HGA3     0.090000        1.0080           0
     44681 WT15     1134     MECN     H12      HGA3     0.090000        1.0080           0
     44682 WT15     1134     MECN     H13      HGA3     0.090000        1.0080           0
     44683 WT15     1134     MECN     C2       CG1N1    0.360000       12.0110           0
     44684 WT15     1134     MECN     N3       NG1T1   -0.460000       14.0070           0
     44685 WT15     1135     MECN     C1       CG331   -0.170000       12.0110           0
     44686 WT15     1135     MECN     H11      HGA3     0.090000        1.0080           0
     44687 WT15     1135     MECN     H12      HGA3     0.090000        1.0080           0
     44688 WT15     1135     MECN     H13      HGA3     0.090000        1.0080           0
     44689 WT15     1135     MECN     C2       CG1N1    0.360000       12.0110           0
     44690 WT15     1135     MECN     N3       NG1T1   -0.460000       14.0070           0
     44691 WT15     1136     MECN     C1       CG331   -0.170000       12.0110           0
     44692 WT15     1136     MECN     H11      HGA3     0.090000        1.0080           0
     44693 WT15     1136     MECN     H12      HGA3     0.090000        1.0080           0
     44694 WT15     1136     MECN     H13      HGA3     0.090000        1.0080           0
     44695 WT15     1136     MECN     C2       CG1N1    0.360000       12.0110           0
     44696 WT15     1136     MECN     N3       NG1T1   -0.460000       14.0070           0
     44697 WT15     1138     MECN     C1       CG331   -0.170000       12.0110           0
     44698 WT15     1138     MECN     H11      HGA3     0.090000        1.0080           0
     44699 WT15     1138     MECN     H12      HGA3     0.090000        1.0080           0
     44700 WT15     1138     MECN     H13      HGA3     0.090000        1.0080           0
     44701 WT15     1138     MECN     C2       CG1N1    0.360000       12.0110           0
     44702 WT15     1138     MECN     N3       NG1T1   -0.460000       14.0070           0
     44703 WT15     1139     MECN     C1       CG331   -0.170000       12.0110           0
     44704 WT15     1139     MECN     H11      HGA3     0.090000        1.0080           0
     44705 WT15     1139     MECN     H12      HGA3     0.090000        1.0080           0
     44706 WT15     1139     MECN     H13      HGA3     0.090000        1.0080           0
     44707 WT15     1139     MECN     C2       CG1N1    0.360000       12.0110           0
     44708 WT15     1139     MECN     N3       NG1T1   -0.460000       14.0070           0
     44709 WT15     1140     MECN     C1       CG331   -0.170000       12.0110           0
     44710 WT15     1140     MECN     H11      HGA3     0.090000        1.0080           0
     44711 WT15     1140     MECN     H12      HGA3     0.090000        1.0080           0
     44712 WT15     1140     MECN     H13      HGA3     0.090000        1.0080           0
     44713 WT15     1140     MECN     C2       CG1N1    0.360000       12.0110           0
     44714 WT15     1140     MECN     N3       NG1T1   -0.460000       14.0070           0
     44715 WT15     1141     MECN     C1       CG331   -0.170000       12.0110           0
     44716 WT15     1141     MECN     H11      HGA3     0.090000        1.0080           0
     44717 WT15     1141     MECN     H12      HGA3     0.090000        1.0080           0
     44718 WT15     1141     MECN     H13      HGA3     0.090000        1.0080           0
     44719 WT15     1141     MECN     C2       CG1N1    0.360000       12.0110           0
     44720 WT15     1141     MECN     N3       NG1T1   -0.460000       14.0070           0
     44721 WT15     1144     MECN     C1       CG331   -0.170000       12.0110           0
     44722 WT15     1144     MECN     H11      HGA3     0.090000        1.0080           0
     44723 WT15     1144     MECN     H12      HGA3     0.090000        1.0080           0
     44724 WT15     1144     MECN     H13      HGA3     0.090000        1.0080           0
     44725 WT15     1144     MECN     C2       CG1N1    0.360000       12.0110           0
     44726 WT15     1144     MECN     N3       NG1T1   -0.460000       14.0070           0
     44727 WT15     1145     MECN     C1       CG331   -0.170000       12.0110           0
     44728 WT15     1145     MECN     H11      HGA3     0.090000        1.0080           0
     44729 WT15     1145     MECN     H12      HGA3     0.090000        1.0080           0
     44730 WT15     1145     MECN     H13      HGA3     0.090000        1.0080           0
     44731 WT15     1145     MECN     C2       CG1N1    0.360000       12.0110           0
     44732 WT15     1145     MECN     N3       NG1T1   -0.460000       14.0070           0
     44733 WT15     1147     MECN     C1       CG331   -0.170000       12.0110           0
     44734 WT15     1147     MECN     H11      HGA3     0.090000        1.0080           0
     44735 WT15     1147     MECN     H12      HGA3     0.090000        1.0080           0
     44736 WT15     1147     MECN     H13      HGA3     0.090000        1.0080           0
     44737 WT15     1147     MECN     C2       CG1N1    0.360000       12.0110           0
     44738 WT15     1147     MECN     N3       NG1T1   -0.460000       14.0070           0
     44739 WT15     1149     MECN     C1       CG331   -0.170000       12.0110           0
     44740 WT15     1149     MECN     H11      HGA3     0.090000        1.0080           0
     44741 WT15     1149     MECN     H12      HGA3     0.090000        1.0080           0
     44742 WT15     1149     MECN     H13      HGA3     0.090000        1.0080           0
     44743 WT15     1149     MECN     C2       CG1N1    0.360000       12.0110           0
     44744 WT15     1149     MECN     N3       NG1T1   -0.460000       14.0070           0
     44745 WT15     1150     MECN     C1       CG331   -0.170000       12.0110           0
     44746 WT15     1150     MECN     H11      HGA3     0.090000        1.0080           0
     44747 WT15     1150     MECN     H12      HGA3     0.090000        1.0080           0
     44748 WT15     1150     MECN     H13      HGA3     0.090000        1.0080           0
     44749 WT15     1150     MECN     C2       CG1N1    0.360000       12.0110           0
     44750 WT15     1150     MECN     N3       NG1T1   -0.460000       14.0070           0
     44751 WT15     1151     MECN     C1       CG331   -0.170000       12.0110           0
     44752 WT15     1151     MECN     H11      HGA3     0.090000        1.0080           0
     44753 WT15     1151     MECN     H12      HGA3     0.090000        1.0080           0
     44754 WT15     1151     MECN     H13      HGA3     0.090000        1.0080           0
     44755 WT15     1151     MECN     C2       CG1N1    0.360000       12.0110           0
     44756 WT15     1151     MECN     N3       NG1T1   -0.460000       14.0070           0
     44757 WT15     1152     MECN     C1       CG331   -0.170000       12.0110           0
     44758 WT15     1152     MECN     H11      HGA3     0.090000        1.0080           0
     44759 WT15     1152     MECN     H12      HGA3     0.090000        1.0080           0
     44760 WT15     1152     MECN     H13      HGA3     0.090000        1.0080           0
     44761 WT15     1152     MECN     C2       CG1N1    0.360000       12.0110           0
     44762 WT15     1152     MECN     N3       NG1T1   -0.460000       14.0070           0
     44763 WT15     1153     MECN     C1       CG331   -0.170000       12.0110           0
     44764 WT15     1153     MECN     H11      HGA3     0.090000        1.0080           0
     44765 WT15     1153     MECN     H12      HGA3     0.090000        1.0080           0
     44766 WT15     1153     MECN     H13      HGA3     0.090000        1.0080           0
     44767 WT15     1153     MECN     C2       CG1N1    0.360000       12.0110           0
     44768 WT15     1153     MECN     N3       NG1T1   -0.460000       14.0070           0
     44769 WT15     1154     MECN     C1       CG331   -0.170000       12.0110           0
     44770 WT15     1154     MECN     H11      HGA3     0.090000        1.0080           0
     44771 WT15     1154     MECN     H12      HGA3     0.090000        1.0080           0
     44772 WT15     1154     MECN     H13      HGA3     0.090000        1.0080           0
     44773 WT15     1154     MECN     C2       CG1N1    0.360000       12.0110           0
     44774 WT15     1154     MECN     N3       NG1T1   -0.460000       14.0070           0
     44775 WT15     1155     MECN     C1       CG331   -0.170000       12.0110           0
     44776 WT15     1155     MECN     H11      HGA3     0.090000        1.0080           0
     44777 WT15     1155     MECN     H12      HGA3     0.090000        1.0080           0
     44778 WT15     1155     MECN     H13      HGA3     0.090000        1.0080           0
     44779 WT15     1155     MECN     C2       CG1N1    0.360000       12.0110           0
     44780 WT15     1155     MECN     N3       NG1T1   -0.460000       14.0070           0
     44781 WT15     1156     MECN     C1       CG331   -0.170000       12.0110           0
     44782 WT15     1156     MECN     H11      HGA3     0.090000        1.0080           0
     44783 WT15     1156     MECN     H12      HGA3     0.090000        1.0080           0
     44784 WT15     1156     MECN     H13      HGA3     0.090000        1.0080           0
     44785 WT15     1156     MECN     C2       CG1N1    0.360000       12.0110           0
     44786 WT15     1156     MECN     N3       NG1T1   -0.460000       14.0070           0
     44787 WT15     1157     MECN     C1       CG331   -0.170000       12.0110           0
     44788 WT15     1157     MECN     H11      HGA3     0.090000        1.0080           0
     44789 WT15     1157     MECN     H12      HGA3     0.090000        1.0080           0
     44790 WT15     1157     MECN     H13      HGA3     0.090000        1.0080           0
     44791 WT15     1157     MECN     C2       CG1N1    0.360000       12.0110           0
     44792 WT15     1157     MECN     N3       NG1T1   -0.460000       14.0070           0
     44793 WT15     1158     MECN     C1       CG331   -0.170000       12.0110           0
     44794 WT15     1158     MECN     H11      HGA3     0.090000        1.0080           0
     44795 WT15     1158     MECN     H12      HGA3     0.090000        1.0080           0
     44796 WT15     1158     MECN     H13      HGA3     0.090000        1.0080           0
     44797 WT15     1158     MECN     C2       CG1N1    0.360000       12.0110           0
     44798 WT15     1158     MECN     N3       NG1T1   -0.460000       14.0070           0
     44799 WT15     1159     MECN     C1       CG331   -0.170000       12.0110           0
     44800 WT15     1159     MECN     H11      HGA3     0.090000        1.0080           0
     44801 WT15     1159     MECN     H12      HGA3     0.090000        1.0080           0
     44802 WT15     1159     MECN     H13      HGA3     0.090000        1.0080           0
     44803 WT15     1159     MECN     C2       CG1N1    0.360000       12.0110           0
     44804 WT15     1159     MECN     N3       NG1T1   -0.460000       14.0070           0
     44805 WT15     1160     MECN     C1       CG331   -0.170000       12.0110           0
     44806 WT15     1160     MECN     H11      HGA3     0.090000        1.0080           0
     44807 WT15     1160     MECN     H12      HGA3     0.090000        1.0080           0
     44808 WT15     1160     MECN     H13      HGA3     0.090000        1.0080           0
     44809 WT15     1160     MECN     C2       CG1N1    0.360000       12.0110           0
     44810 WT15     1160     MECN     N3       NG1T1   -0.460000       14.0070           0
     44811 WT15     1162     MECN     C1       CG331   -0.170000       12.0110           0
     44812 WT15     1162     MECN     H11      HGA3     0.090000        1.0080           0
     44813 WT15     1162     MECN     H12      HGA3     0.090000        1.0080           0
     44814 WT15     1162     MECN     H13      HGA3     0.090000        1.0080           0
     44815 WT15     1162     MECN     C2       CG1N1    0.360000       12.0110           0
     44816 WT15     1162     MECN     N3       NG1T1   -0.460000       14.0070           0
     44817 WT15     1163     MECN     C1       CG331   -0.170000       12.0110           0
     44818 WT15     1163     MECN     H11      HGA3     0.090000        1.0080           0
     44819 WT15     1163     MECN     H12      HGA3     0.090000        1.0080           0
     44820 WT15     1163     MECN     H13      HGA3     0.090000        1.0080           0
     44821 WT15     1163     MECN     C2       CG1N1    0.360000       12.0110           0
     44822 WT15     1163     MECN     N3       NG1T1   -0.460000       14.0070           0
     44823 WT15     1164     MECN     C1       CG331   -0.170000       12.0110           0
     44824 WT15     1164     MECN     H11      HGA3     0.090000        1.0080           0
     44825 WT15     1164     MECN     H12      HGA3     0.090000        1.0080           0
     44826 WT15     1164     MECN     H13      HGA3     0.090000        1.0080           0
     44827 WT15     1164     MECN     C2       CG1N1    0.360000       12.0110           0
     44828 WT15     1164     MECN     N3       NG1T1   -0.460000       14.0070           0
     44829 WT15     1165     MECN     C1       CG331   -0.170000       12.0110           0
     44830 WT15     1165     MECN     H11      HGA3     0.090000        1.0080           0
     44831 WT15     1165     MECN     H12      HGA3     0.090000        1.0080           0
     44832 WT15     1165     MECN     H13      HGA3     0.090000        1.0080           0
     44833 WT15     1165     MECN     C2       CG1N1    0.360000       12.0110           0
     44834 WT15     1165     MECN     N3       NG1T1   -0.460000       14.0070           0
     44835 WT15     1166     MECN     C1       CG331   -0.170000       12.0110           0
     44836 WT15     1166     MECN     H11      HGA3     0.090000        1.0080           0
     44837 WT15     1166     MECN     H12      HGA3     0.090000        1.0080           0
     44838 WT15     1166     MECN     H13      HGA3     0.090000        1.0080           0
     44839 WT15     1166     MECN     C2       CG1N1    0.360000       12.0110           0
     44840 WT15     1166     MECN     N3       NG1T1   -0.460000       14.0070           0
     44841 WT15     1167     MECN     C1       CG331   -0.170000       12.0110           0
     44842 WT15     1167     MECN     H11      HGA3     0.090000        1.0080           0
     44843 WT15     1167     MECN     H12      HGA3     0.090000        1.0080           0
     44844 WT15     1167     MECN     H13      HGA3     0.090000        1.0080           0
     44845 WT15     1167     MECN     C2       CG1N1    0.360000       12.0110           0
     44846 WT15     1167     MECN     N3       NG1T1   -0.460000       14.0070           0
     44847 WT15     1168     MECN     C1       CG331   -0.170000       12.0110           0
     44848 WT15     1168     MECN     H11      HGA3     0.090000        1.0080           0
     44849 WT15     1168     MECN     H12      HGA3     0.090000        1.0080           0
     44850 WT15     1168     MECN     H13      HGA3     0.090000        1.0080           0
     44851 WT15     1168     MECN     C2       CG1N1    0.360000       12.0110           0
     44852 WT15     1168     MECN     N3       NG1T1   -0.460000       14.0070           0
     44853 WT15     1169     MECN     C1       CG331   -0.170000       12.0110           0
     44854 WT15     1169     MECN     H11      HGA3     0.090000        1.0080           0
     44855 WT15     1169     MECN     H12      HGA3     0.090000        1.0080           0
     44856 WT15     1169     MECN     H13      HGA3     0.090000        1.0080           0
     44857 WT15     1169     MECN     C2       CG1N1    0.360000       12.0110           0
     44858 WT15     1169     MECN     N3       NG1T1   -0.460000       14.0070           0
     44859 WT15     1170     MECN     C1       CG331   -0.170000       12.0110           0
     44860 WT15     1170     MECN     H11      HGA3     0.090000        1.0080           0
     44861 WT15     1170     MECN     H12      HGA3     0.090000        1.0080           0
     44862 WT15     1170     MECN     H13      HGA3     0.090000        1.0080           0
     44863 WT15     1170     MECN     C2       CG1N1    0.360000       12.0110           0
     44864 WT15     1170     MECN     N3       NG1T1   -0.460000       14.0070           0
     44865 WT15     1171     MECN     C1       CG331   -0.170000       12.0110           0
     44866 WT15     1171     MECN     H11      HGA3     0.090000        1.0080           0
     44867 WT15     1171     MECN     H12      HGA3     0.090000        1.0080           0
     44868 WT15     1171     MECN     H13      HGA3     0.090000        1.0080           0
     44869 WT15     1171     MECN     C2       CG1N1    0.360000       12.0110           0
     44870 WT15     1171     MECN     N3       NG1T1   -0.460000       14.0070           0
     44871 WT15     1172     MECN     C1       CG331   -0.170000       12.0110           0
     44872 WT15     1172     MECN     H11      HGA3     0.090000        1.0080           0
     44873 WT15     1172     MECN     H12      HGA3     0.090000        1.0080           0
     44874 WT15     1172     MECN     H13      HGA3     0.090000        1.0080           0
     44875 WT15     1172     MECN     C2       CG1N1    0.360000       12.0110           0
     44876 WT15     1172     MECN     N3       NG1T1   -0.460000       14.0070           0
     44877 WT15     1173     MECN     C1       CG331   -0.170000       12.0110           0
     44878 WT15     1173     MECN     H11      HGA3     0.090000        1.0080           0
     44879 WT15     1173     MECN     H12      HGA3     0.090000        1.0080           0
     44880 WT15     1173     MECN     H13      HGA3     0.090000        1.0080           0
     44881 WT15     1173     MECN     C2       CG1N1    0.360000       12.0110           0
     44882 WT15     1173     MECN     N3       NG1T1   -0.460000       14.0070           0
     44883 WT15     1175     MECN     C1       CG331   -0.170000       12.0110           0
     44884 WT15     1175     MECN     H11      HGA3     0.090000        1.0080           0
     44885 WT15     1175     MECN     H12      HGA3     0.090000        1.0080           0
     44886 WT15     1175     MECN     H13      HGA3     0.090000        1.0080           0
     44887 WT15     1175     MECN     C2       CG1N1    0.360000       12.0110           0
     44888 WT15     1175     MECN     N3       NG1T1   -0.460000       14.0070           0
     44889 WT15     1176     MECN     C1       CG331   -0.170000       12.0110           0
     44890 WT15     1176     MECN     H11      HGA3     0.090000        1.0080           0
     44891 WT15     1176     MECN     H12      HGA3     0.090000        1.0080           0
     44892 WT15     1176     MECN     H13      HGA3     0.090000        1.0080           0
     44893 WT15     1176     MECN     C2       CG1N1    0.360000       12.0110           0
     44894 WT15     1176     MECN     N3       NG1T1   -0.460000       14.0070           0
     44895 WT15     1177     MECN     C1       CG331   -0.170000       12.0110           0
     44896 WT15     1177     MECN     H11      HGA3     0.090000        1.0080           0
     44897 WT15     1177     MECN     H12      HGA3     0.090000        1.0080           0
     44898 WT15     1177     MECN     H13      HGA3     0.090000        1.0080           0
     44899 WT15     1177     MECN     C2       CG1N1    0.360000       12.0110           0
     44900 WT15     1177     MECN     N3       NG1T1   -0.460000       14.0070           0
     44901 WT15     1179     MECN     C1       CG331   -0.170000       12.0110           0
     44902 WT15     1179     MECN     H11      HGA3     0.090000        1.0080           0
     44903 WT15     1179     MECN     H12      HGA3     0.090000        1.0080           0
     44904 WT15     1179     MECN     H13      HGA3     0.090000        1.0080           0
     44905 WT15     1179     MECN     C2       CG1N1    0.360000       12.0110           0
     44906 WT15     1179     MECN     N3       NG1T1   -0.460000       14.0070           0
     44907 WT15     1180     MECN     C1       CG331   -0.170000       12.0110           0
     44908 WT15     1180     MECN     H11      HGA3     0.090000        1.0080           0
     44909 WT15     1180     MECN     H12      HGA3     0.090000        1.0080           0
     44910 WT15     1180     MECN     H13      HGA3     0.090000        1.0080           0
     44911 WT15     1180     MECN     C2       CG1N1    0.360000       12.0110           0
     44912 WT15     1180     MECN     N3       NG1T1   -0.460000       14.0070           0
     44913 WT15     1183     MECN     C1       CG331   -0.170000       12.0110           0
     44914 WT15     1183     MECN     H11      HGA3     0.090000        1.0080           0
     44915 WT15     1183     MECN     H12      HGA3     0.090000        1.0080           0
     44916 WT15     1183     MECN     H13      HGA3     0.090000        1.0080           0
     44917 WT15     1183     MECN     C2       CG1N1    0.360000       12.0110           0
     44918 WT15     1183     MECN     N3       NG1T1   -0.460000       14.0070           0
     44919 WT15     1185     MECN     C1       CG331   -0.170000       12.0110           0
     44920 WT15     1185     MECN     H11      HGA3     0.090000        1.0080           0
     44921 WT15     1185     MECN     H12      HGA3     0.090000        1.0080           0
     44922 WT15     1185     MECN     H13      HGA3     0.090000        1.0080           0
     44923 WT15     1185     MECN     C2       CG1N1    0.360000       12.0110           0
     44924 WT15     1185     MECN     N3       NG1T1   -0.460000       14.0070           0
     44925 WT15     1186     MECN     C1       CG331   -0.170000       12.0110           0
     44926 WT15     1186     MECN     H11      HGA3     0.090000        1.0080           0
     44927 WT15     1186     MECN     H12      HGA3     0.090000        1.0080           0
     44928 WT15     1186     MECN     H13      HGA3     0.090000        1.0080           0
     44929 WT15     1186     MECN     C2       CG1N1    0.360000       12.0110           0
     44930 WT15     1186     MECN     N3       NG1T1   -0.460000       14.0070           0
     44931 WT15     1187     MECN     C1       CG331   -0.170000       12.0110           0
     44932 WT15     1187     MECN     H11      HGA3     0.090000        1.0080           0
     44933 WT15     1187     MECN     H12      HGA3     0.090000        1.0080           0
     44934 WT15     1187     MECN     H13      HGA3     0.090000        1.0080           0
     44935 WT15     1187     MECN     C2       CG1N1    0.360000       12.0110           0
     44936 WT15     1187     MECN     N3       NG1T1   -0.460000       14.0070           0
     44937 WT15     1189     MECN     C1       CG331   -0.170000       12.0110           0
     44938 WT15     1189     MECN     H11      HGA3     0.090000        1.0080           0
     44939 WT15     1189     MECN     H12      HGA3     0.090000        1.0080           0
     44940 WT15     1189     MECN     H13      HGA3     0.090000        1.0080           0
     44941 WT15     1189     MECN     C2       CG1N1    0.360000       12.0110           0
     44942 WT15     1189     MECN     N3       NG1T1   -0.460000       14.0070           0
     44943 WT15     1190     MECN     C1       CG331   -0.170000       12.0110           0
     44944 WT15     1190     MECN     H11      HGA3     0.090000        1.0080           0
     44945 WT15     1190     MECN     H12      HGA3     0.090000        1.0080           0
     44946 WT15     1190     MECN     H13      HGA3     0.090000        1.0080           0
     44947 WT15     1190     MECN     C2       CG1N1    0.360000       12.0110           0
     44948 WT15     1190     MECN     N3       NG1T1   -0.460000       14.0070           0
     44949 WT15     1192     MECN     C1       CG331   -0.170000       12.0110           0
     44950 WT15     1192     MECN     H11      HGA3     0.090000        1.0080           0
     44951 WT15     1192     MECN     H12      HGA3     0.090000        1.0080           0
     44952 WT15     1192     MECN     H13      HGA3     0.090000        1.0080           0
     44953 WT15     1192     MECN     C2       CG1N1    0.360000       12.0110           0
     44954 WT15     1192     MECN     N3       NG1T1   -0.460000       14.0070           0
     44955 WT15     1193     MECN     C1       CG331   -0.170000       12.0110           0
     44956 WT15     1193     MECN     H11      HGA3     0.090000        1.0080           0
     44957 WT15     1193     MECN     H12      HGA3     0.090000        1.0080           0
     44958 WT15     1193     MECN     H13      HGA3     0.090000        1.0080           0
     44959 WT15     1193     MECN     C2       CG1N1    0.360000       12.0110           0
     44960 WT15     1193     MECN     N3       NG1T1   -0.460000       14.0070           0
     44961 WT15     1194     MECN     C1       CG331   -0.170000       12.0110           0
     44962 WT15     1194     MECN     H11      HGA3     0.090000        1.0080           0
     44963 WT15     1194     MECN     H12      HGA3     0.090000        1.0080           0
     44964 WT15     1194     MECN     H13      HGA3     0.090000        1.0080           0
     44965 WT15     1194     MECN     C2       CG1N1    0.360000       12.0110           0
     44966 WT15     1194     MECN     N3       NG1T1   -0.460000       14.0070           0
     44967 WT15     1196     MECN     C1       CG331   -0.170000       12.0110           0
     44968 WT15     1196     MECN     H11      HGA3     0.090000        1.0080           0
     44969 WT15     1196     MECN     H12      HGA3     0.090000        1.0080           0
     44970 WT15     1196     MECN     H13      HGA3     0.090000        1.0080           0
     44971 WT15     1196     MECN     C2       CG1N1    0.360000       12.0110           0
     44972 WT15     1196     MECN     N3       NG1T1   -0.460000       14.0070           0
     44973 WT15     1197     MECN     C1       CG331   -0.170000       12.0110           0
     44974 WT15     1197     MECN     H11      HGA3     0.090000        1.0080           0
     44975 WT15     1197     MECN     H12      HGA3     0.090000        1.0080           0
     44976 WT15     1197     MECN     H13      HGA3     0.090000        1.0080           0
     44977 WT15     1197     MECN     C2       CG1N1    0.360000       12.0110           0
     44978 WT15     1197     MECN     N3       NG1T1   -0.460000       14.0070           0
     44979 WT15     1198     MECN     C1       CG331   -0.170000       12.0110           0
     44980 WT15     1198     MECN     H11      HGA3     0.090000        1.0080           0
     44981 WT15     1198     MECN     H12      HGA3     0.090000        1.0080           0
     44982 WT15     1198     MECN     H13      HGA3     0.090000        1.0080           0
     44983 WT15     1198     MECN     C2       CG1N1    0.360000       12.0110           0
     44984 WT15     1198     MECN     N3       NG1T1   -0.460000       14.0070           0
     44985 WT15     1201     MECN     C1       CG331   -0.170000       12.0110           0
     44986 WT15     1201     MECN     H11      HGA3     0.090000        1.0080           0
     44987 WT15     1201     MECN     H12      HGA3     0.090000        1.0080           0
     44988 WT15     1201     MECN     H13      HGA3     0.090000        1.0080           0
     44989 WT15     1201     MECN     C2       CG1N1    0.360000       12.0110           0
     44990 WT15     1201     MECN     N3       NG1T1   -0.460000       14.0070           0
     44991 WT15     1202     MECN     C1       CG331   -0.170000       12.0110           0
     44992 WT15     1202     MECN     H11      HGA3     0.090000        1.0080           0
     44993 WT15     1202     MECN     H12      HGA3     0.090000        1.0080           0
     44994 WT15     1202     MECN     H13      HGA3     0.090000        1.0080           0
     44995 WT15     1202     MECN     C2       CG1N1    0.360000       12.0110           0
     44996 WT15     1202     MECN     N3       NG1T1   -0.460000       14.0070           0
     44997 WT15     1203     MECN     C1       CG331   -0.170000       12.0110           0
     44998 WT15     1203     MECN     H11      HGA3     0.090000        1.0080           0
     44999 WT15     1203     MECN     H12      HGA3     0.090000        1.0080           0
     45000 WT15     1203     MECN     H13      HGA3     0.090000        1.0080           0
     45001 WT15     1203     MECN     C2       CG1N1    0.360000       12.0110           0
     45002 WT15     1203     MECN     N3       NG1T1   -0.460000       14.0070           0
     45003 WT15     1204     MECN     C1       CG331   -0.170000       12.0110           0
     45004 WT15     1204     MECN     H11      HGA3     0.090000        1.0080           0
     45005 WT15     1204     MECN     H12      HGA3     0.090000        1.0080           0
     45006 WT15     1204     MECN     H13      HGA3     0.090000        1.0080           0
     45007 WT15     1204     MECN     C2       CG1N1    0.360000       12.0110           0
     45008 WT15     1204     MECN     N3       NG1T1   -0.460000       14.0070           0
     45009 WT15     1205     MECN     C1       CG331   -0.170000       12.0110           0
     45010 WT15     1205     MECN     H11      HGA3     0.090000        1.0080           0
     45011 WT15     1205     MECN     H12      HGA3     0.090000        1.0080           0
     45012 WT15     1205     MECN     H13      HGA3     0.090000        1.0080           0
     45013 WT15     1205     MECN     C2       CG1N1    0.360000       12.0110           0
     45014 WT15     1205     MECN     N3       NG1T1   -0.460000       14.0070           0
     45015 WT15     1206     MECN     C1       CG331   -0.170000       12.0110           0
     45016 WT15     1206     MECN     H11      HGA3     0.090000        1.0080           0
     45017 WT15     1206     MECN     H12      HGA3     0.090000        1.0080           0
     45018 WT15     1206     MECN     H13      HGA3     0.090000        1.0080           0
     45019 WT15     1206     MECN     C2       CG1N1    0.360000       12.0110           0
     45020 WT15     1206     MECN     N3       NG1T1   -0.460000       14.0070           0
     45021 WT15     1207     MECN     C1       CG331   -0.170000       12.0110           0
     45022 WT15     1207     MECN     H11      HGA3     0.090000        1.0080           0
     45023 WT15     1207     MECN     H12      HGA3     0.090000        1.0080           0
     45024 WT15     1207     MECN     H13      HGA3     0.090000        1.0080           0
     45025 WT15     1207     MECN     C2       CG1N1    0.360000       12.0110           0
     45026 WT15     1207     MECN     N3       NG1T1   -0.460000       14.0070           0
     45027 WT15     1208     MECN     C1       CG331   -0.170000       12.0110           0
     45028 WT15     1208     MECN     H11      HGA3     0.090000        1.0080           0
     45029 WT15     1208     MECN     H12      HGA3     0.090000        1.0080           0
     45030 WT15     1208     MECN     H13      HGA3     0.090000        1.0080           0
     45031 WT15     1208     MECN     C2       CG1N1    0.360000       12.0110           0
     45032 WT15     1208     MECN     N3       NG1T1   -0.460000       14.0070           0
     45033 WT15     1209     MECN     C1       CG331   -0.170000       12.0110           0
     45034 WT15     1209     MECN     H11      HGA3     0.090000        1.0080           0
     45035 WT15     1209     MECN     H12      HGA3     0.090000        1.0080           0
     45036 WT15     1209     MECN     H13      HGA3     0.090000        1.0080           0
     45037 WT15     1209     MECN     C2       CG1N1    0.360000       12.0110           0
     45038 WT15     1209     MECN     N3       NG1T1   -0.460000       14.0070           0
     45039 WT15     1210     MECN     C1       CG331   -0.170000       12.0110           0
     45040 WT15     1210     MECN     H11      HGA3     0.090000        1.0080           0
     45041 WT15     1210     MECN     H12      HGA3     0.090000        1.0080           0
     45042 WT15     1210     MECN     H13      HGA3     0.090000        1.0080           0
     45043 WT15     1210     MECN     C2       CG1N1    0.360000       12.0110           0
     45044 WT15     1210     MECN     N3       NG1T1   -0.460000       14.0070           0
     45045 WT15     1211     MECN     C1       CG331   -0.170000       12.0110           0
     45046 WT15     1211     MECN     H11      HGA3     0.090000        1.0080           0
     45047 WT15     1211     MECN     H12      HGA3     0.090000        1.0080           0
     45048 WT15     1211     MECN     H13      HGA3     0.090000        1.0080           0
     45049 WT15     1211     MECN     C2       CG1N1    0.360000       12.0110           0
     45050 WT15     1211     MECN     N3       NG1T1   -0.460000       14.0070           0
     45051 WT15     1212     MECN     C1       CG331   -0.170000       12.0110           0
     45052 WT15     1212     MECN     H11      HGA3     0.090000        1.0080           0
     45053 WT15     1212     MECN     H12      HGA3     0.090000        1.0080           0
     45054 WT15     1212     MECN     H13      HGA3     0.090000        1.0080           0
     45055 WT15     1212     MECN     C2       CG1N1    0.360000       12.0110           0
     45056 WT15     1212     MECN     N3       NG1T1   -0.460000       14.0070           0
     45057 WT15     1213     MECN     C1       CG331   -0.170000       12.0110           0
     45058 WT15     1213     MECN     H11      HGA3     0.090000        1.0080           0
     45059 WT15     1213     MECN     H12      HGA3     0.090000        1.0080           0
     45060 WT15     1213     MECN     H13      HGA3     0.090000        1.0080           0
     45061 WT15     1213     MECN     C2       CG1N1    0.360000       12.0110           0
     45062 WT15     1213     MECN     N3       NG1T1   -0.460000       14.0070           0
     45063 WT15     1214     MECN     C1       CG331   -0.170000       12.0110           0
     45064 WT15     1214     MECN     H11      HGA3     0.090000        1.0080           0
     45065 WT15     1214     MECN     H12      HGA3     0.090000        1.0080           0
     45066 WT15     1214     MECN     H13      HGA3     0.090000        1.0080           0
     45067 WT15     1214     MECN     C2       CG1N1    0.360000       12.0110           0
     45068 WT15     1214     MECN     N3       NG1T1   -0.460000       14.0070           0
     45069 WT15     1215     MECN     C1       CG331   -0.170000       12.0110           0
     45070 WT15     1215     MECN     H11      HGA3     0.090000        1.0080           0
     45071 WT15     1215     MECN     H12      HGA3     0.090000        1.0080           0
     45072 WT15     1215     MECN     H13      HGA3     0.090000        1.0080           0
     45073 WT15     1215     MECN     C2       CG1N1    0.360000       12.0110           0
     45074 WT15     1215     MECN     N3       NG1T1   -0.460000       14.0070           0
     45075 WT15     1216     MECN     C1       CG331   -0.170000       12.0110           0
     45076 WT15     1216     MECN     H11      HGA3     0.090000        1.0080           0
     45077 WT15     1216     MECN     H12      HGA3     0.090000        1.0080           0
     45078 WT15     1216     MECN     H13      HGA3     0.090000        1.0080           0
     45079 WT15     1216     MECN     C2       CG1N1    0.360000       12.0110           0
     45080 WT15     1216     MECN     N3       NG1T1   -0.460000       14.0070           0
     45081 WT15     1217     MECN     C1       CG331   -0.170000       12.0110           0
     45082 WT15     1217     MECN     H11      HGA3     0.090000        1.0080           0
     45083 WT15     1217     MECN     H12      HGA3     0.090000        1.0080           0
     45084 WT15     1217     MECN     H13      HGA3     0.090000        1.0080           0
     45085 WT15     1217     MECN     C2       CG1N1    0.360000       12.0110           0
     45086 WT15     1217     MECN     N3       NG1T1   -0.460000       14.0070           0
     45087 WT15     1219     MECN     C1       CG331   -0.170000       12.0110           0
     45088 WT15     1219     MECN     H11      HGA3     0.090000        1.0080           0
     45089 WT15     1219     MECN     H12      HGA3     0.090000        1.0080           0
     45090 WT15     1219     MECN     H13      HGA3     0.090000        1.0080           0
     45091 WT15     1219     MECN     C2       CG1N1    0.360000       12.0110           0
     45092 WT15     1219     MECN     N3       NG1T1   -0.460000       14.0070           0
     45093 WT15     1220     MECN     C1       CG331   -0.170000       12.0110           0
     45094 WT15     1220     MECN     H11      HGA3     0.090000        1.0080           0
     45095 WT15     1220     MECN     H12      HGA3     0.090000        1.0080           0
     45096 WT15     1220     MECN     H13      HGA3     0.090000        1.0080           0
     45097 WT15     1220     MECN     C2       CG1N1    0.360000       12.0110           0
     45098 WT15     1220     MECN     N3       NG1T1   -0.460000       14.0070           0
     45099 WT15     1221     MECN     C1       CG331   -0.170000       12.0110           0
     45100 WT15     1221     MECN     H11      HGA3     0.090000        1.0080           0
     45101 WT15     1221     MECN     H12      HGA3     0.090000        1.0080           0
     45102 WT15     1221     MECN     H13      HGA3     0.090000        1.0080           0
     45103 WT15     1221     MECN     C2       CG1N1    0.360000       12.0110           0
     45104 WT15     1221     MECN     N3       NG1T1   -0.460000       14.0070           0
     45105 WT15     1222     MECN     C1       CG331   -0.170000       12.0110           0
     45106 WT15     1222     MECN     H11      HGA3     0.090000        1.0080           0
     45107 WT15     1222     MECN     H12      HGA3     0.090000        1.0080           0
     45108 WT15     1222     MECN     H13      HGA3     0.090000        1.0080           0
     45109 WT15     1222     MECN     C2       CG1N1    0.360000       12.0110           0
     45110 WT15     1222     MECN     N3       NG1T1   -0.460000       14.0070           0
     45111 WT15     1224     MECN     C1       CG331   -0.170000       12.0110           0
     45112 WT15     1224     MECN     H11      HGA3     0.090000        1.0080           0
     45113 WT15     1224     MECN     H12      HGA3     0.090000        1.0080           0
     45114 WT15     1224     MECN     H13      HGA3     0.090000        1.0080           0
     45115 WT15     1224     MECN     C2       CG1N1    0.360000       12.0110           0
     45116 WT15     1224     MECN     N3       NG1T1   -0.460000       14.0070           0
     45117 WT15     1225     MECN     C1       CG331   -0.170000       12.0110           0
     45118 WT15     1225     MECN     H11      HGA3     0.090000        1.0080           0
     45119 WT15     1225     MECN     H12      HGA3     0.090000        1.0080           0
     45120 WT15     1225     MECN     H13      HGA3     0.090000        1.0080           0
     45121 WT15     1225     MECN     C2       CG1N1    0.360000       12.0110           0
     45122 WT15     1225     MECN     N3       NG1T1   -0.460000       14.0070           0
     45123 WT15     1226     MECN     C1       CG331   -0.170000       12.0110           0
     45124 WT15     1226     MECN     H11      HGA3     0.090000        1.0080           0
     45125 WT15     1226     MECN     H12      HGA3     0.090000        1.0080           0
     45126 WT15     1226     MECN     H13      HGA3     0.090000        1.0080           0
     45127 WT15     1226     MECN     C2       CG1N1    0.360000       12.0110           0
     45128 WT15     1226     MECN     N3       NG1T1   -0.460000       14.0070           0
     45129 WT15     1227     MECN     C1       CG331   -0.170000       12.0110           0
     45130 WT15     1227     MECN     H11      HGA3     0.090000        1.0080           0
     45131 WT15     1227     MECN     H12      HGA3     0.090000        1.0080           0
     45132 WT15     1227     MECN     H13      HGA3     0.090000        1.0080           0
     45133 WT15     1227     MECN     C2       CG1N1    0.360000       12.0110           0
     45134 WT15     1227     MECN     N3       NG1T1   -0.460000       14.0070           0
     45135 WT15     1228     MECN     C1       CG331   -0.170000       12.0110           0
     45136 WT15     1228     MECN     H11      HGA3     0.090000        1.0080           0
     45137 WT15     1228     MECN     H12      HGA3     0.090000        1.0080           0
     45138 WT15     1228     MECN     H13      HGA3     0.090000        1.0080           0
     45139 WT15     1228     MECN     C2       CG1N1    0.360000       12.0110           0
     45140 WT15     1228     MECN     N3       NG1T1   -0.460000       14.0070           0
     45141 WT15     1231     MECN     C1       CG331   -0.170000       12.0110           0
     45142 WT15     1231     MECN     H11      HGA3     0.090000        1.0080           0
     45143 WT15     1231     MECN     H12      HGA3     0.090000        1.0080           0
     45144 WT15     1231     MECN     H13      HGA3     0.090000        1.0080           0
     45145 WT15     1231     MECN     C2       CG1N1    0.360000       12.0110           0
     45146 WT15     1231     MECN     N3       NG1T1   -0.460000       14.0070           0
     45147 WT15     1232     MECN     C1       CG331   -0.170000       12.0110           0
     45148 WT15     1232     MECN     H11      HGA3     0.090000        1.0080           0
     45149 WT15     1232     MECN     H12      HGA3     0.090000        1.0080           0
     45150 WT15     1232     MECN     H13      HGA3     0.090000        1.0080           0
     45151 WT15     1232     MECN     C2       CG1N1    0.360000       12.0110           0
     45152 WT15     1232     MECN     N3       NG1T1   -0.460000       14.0070           0
     45153 WT15     1233     MECN     C1       CG331   -0.170000       12.0110           0
     45154 WT15     1233     MECN     H11      HGA3     0.090000        1.0080           0
     45155 WT15     1233     MECN     H12      HGA3     0.090000        1.0080           0
     45156 WT15     1233     MECN     H13      HGA3     0.090000        1.0080           0
     45157 WT15     1233     MECN     C2       CG1N1    0.360000       12.0110           0
     45158 WT15     1233     MECN     N3       NG1T1   -0.460000       14.0070           0
     45159 WT15     1234     MECN     C1       CG331   -0.170000       12.0110           0
     45160 WT15     1234     MECN     H11      HGA3     0.090000        1.0080           0
     45161 WT15     1234     MECN     H12      HGA3     0.090000        1.0080           0
     45162 WT15     1234     MECN     H13      HGA3     0.090000        1.0080           0
     45163 WT15     1234     MECN     C2       CG1N1    0.360000       12.0110           0
     45164 WT15     1234     MECN     N3       NG1T1   -0.460000       14.0070           0
     45165 WT15     1235     MECN     C1       CG331   -0.170000       12.0110           0
     45166 WT15     1235     MECN     H11      HGA3     0.090000        1.0080           0
     45167 WT15     1235     MECN     H12      HGA3     0.090000        1.0080           0
     45168 WT15     1235     MECN     H13      HGA3     0.090000        1.0080           0
     45169 WT15     1235     MECN     C2       CG1N1    0.360000       12.0110           0
     45170 WT15     1235     MECN     N3       NG1T1   -0.460000       14.0070           0
     45171 WT15     1236     MECN     C1       CG331   -0.170000       12.0110           0
     45172 WT15     1236     MECN     H11      HGA3     0.090000        1.0080           0
     45173 WT15     1236     MECN     H12      HGA3     0.090000        1.0080           0
     45174 WT15     1236     MECN     H13      HGA3     0.090000        1.0080           0
     45175 WT15     1236     MECN     C2       CG1N1    0.360000       12.0110           0
     45176 WT15     1236     MECN     N3       NG1T1   -0.460000       14.0070           0
     45177 WT15     1237     MECN     C1       CG331   -0.170000       12.0110           0
     45178 WT15     1237     MECN     H11      HGA3     0.090000        1.0080           0
     45179 WT15     1237     MECN     H12      HGA3     0.090000        1.0080           0
     45180 WT15     1237     MECN     H13      HGA3     0.090000        1.0080           0
     45181 WT15     1237     MECN     C2       CG1N1    0.360000       12.0110           0
     45182 WT15     1237     MECN     N3       NG1T1   -0.460000       14.0070           0
     45183 WT15     1238     MECN     C1       CG331   -0.170000       12.0110           0
     45184 WT15     1238     MECN     H11      HGA3     0.090000        1.0080           0
     45185 WT15     1238     MECN     H12      HGA3     0.090000        1.0080           0
     45186 WT15     1238     MECN     H13      HGA3     0.090000        1.0080           0
     45187 WT15     1238     MECN     C2       CG1N1    0.360000       12.0110           0
     45188 WT15     1238     MECN     N3       NG1T1   -0.460000       14.0070           0
     45189 WT15     1240     MECN     C1       CG331   -0.170000       12.0110           0
     45190 WT15     1240     MECN     H11      HGA3     0.090000        1.0080           0
     45191 WT15     1240     MECN     H12      HGA3     0.090000        1.0080           0
     45192 WT15     1240     MECN     H13      HGA3     0.090000        1.0080           0
     45193 WT15     1240     MECN     C2       CG1N1    0.360000       12.0110           0
     45194 WT15     1240     MECN     N3       NG1T1   -0.460000       14.0070           0
     45195 WT15     1241     MECN     C1       CG331   -0.170000       12.0110           0
     45196 WT15     1241     MECN     H11      HGA3     0.090000        1.0080           0
     45197 WT15     1241     MECN     H12      HGA3     0.090000        1.0080           0
     45198 WT15     1241     MECN     H13      HGA3     0.090000        1.0080           0
     45199 WT15     1241     MECN     C2       CG1N1    0.360000       12.0110           0
     45200 WT15     1241     MECN     N3       NG1T1   -0.460000       14.0070           0
     45201 WT15     1243     MECN     C1       CG331   -0.170000       12.0110           0
     45202 WT15     1243     MECN     H11      HGA3     0.090000        1.0080           0
     45203 WT15     1243     MECN     H12      HGA3     0.090000        1.0080           0
     45204 WT15     1243     MECN     H13      HGA3     0.090000        1.0080           0
     45205 WT15     1243     MECN     C2       CG1N1    0.360000       12.0110           0
     45206 WT15     1243     MECN     N3       NG1T1   -0.460000       14.0070           0
     45207 WT15     1244     MECN     C1       CG331   -0.170000       12.0110           0
     45208 WT15     1244     MECN     H11      HGA3     0.090000        1.0080           0
     45209 WT15     1244     MECN     H12      HGA3     0.090000        1.0080           0
     45210 WT15     1244     MECN     H13      HGA3     0.090000        1.0080           0
     45211 WT15     1244     MECN     C2       CG1N1    0.360000       12.0110           0
     45212 WT15     1244     MECN     N3       NG1T1   -0.460000       14.0070           0
     45213 WT15     1245     MECN     C1       CG331   -0.170000       12.0110           0
     45214 WT15     1245     MECN     H11      HGA3     0.090000        1.0080           0
     45215 WT15     1245     MECN     H12      HGA3     0.090000        1.0080           0
     45216 WT15     1245     MECN     H13      HGA3     0.090000        1.0080           0
     45217 WT15     1245     MECN     C2       CG1N1    0.360000       12.0110           0
     45218 WT15     1245     MECN     N3       NG1T1   -0.460000       14.0070           0
     45219 WT15     1246     MECN     C1       CG331   -0.170000       12.0110           0
     45220 WT15     1246     MECN     H11      HGA3     0.090000        1.0080           0
     45221 WT15     1246     MECN     H12      HGA3     0.090000        1.0080           0
     45222 WT15     1246     MECN     H13      HGA3     0.090000        1.0080           0
     45223 WT15     1246     MECN     C2       CG1N1    0.360000       12.0110           0
     45224 WT15     1246     MECN     N3       NG1T1   -0.460000       14.0070           0
     45225 WT15     1247     MECN     C1       CG331   -0.170000       12.0110           0
     45226 WT15     1247     MECN     H11      HGA3     0.090000        1.0080           0
     45227 WT15     1247     MECN     H12      HGA3     0.090000        1.0080           0
     45228 WT15     1247     MECN     H13      HGA3     0.090000        1.0080           0
     45229 WT15     1247     MECN     C2       CG1N1    0.360000       12.0110           0
     45230 WT15     1247     MECN     N3       NG1T1   -0.460000       14.0070           0
     45231 WT15     1248     MECN     C1       CG331   -0.170000       12.0110           0
     45232 WT15     1248     MECN     H11      HGA3     0.090000        1.0080           0
     45233 WT15     1248     MECN     H12      HGA3     0.090000        1.0080           0
     45234 WT15     1248     MECN     H13      HGA3     0.090000        1.0080           0
     45235 WT15     1248     MECN     C2       CG1N1    0.360000       12.0110           0
     45236 WT15     1248     MECN     N3       NG1T1   -0.460000       14.0070           0
     45237 WT15     1250     MECN     C1       CG331   -0.170000       12.0110           0
     45238 WT15     1250     MECN     H11      HGA3     0.090000        1.0080           0
     45239 WT15     1250     MECN     H12      HGA3     0.090000        1.0080           0
     45240 WT15     1250     MECN     H13      HGA3     0.090000        1.0080           0
     45241 WT15     1250     MECN     C2       CG1N1    0.360000       12.0110           0
     45242 WT15     1250     MECN     N3       NG1T1   -0.460000       14.0070           0
     45243 WT15     1251     MECN     C1       CG331   -0.170000       12.0110           0
     45244 WT15     1251     MECN     H11      HGA3     0.090000        1.0080           0
     45245 WT15     1251     MECN     H12      HGA3     0.090000        1.0080           0
     45246 WT15     1251     MECN     H13      HGA3     0.090000        1.0080           0
     45247 WT15     1251     MECN     C2       CG1N1    0.360000       12.0110           0
     45248 WT15     1251     MECN     N3       NG1T1   -0.460000       14.0070           0
     45249 WT15     1252     MECN     C1       CG331   -0.170000       12.0110           0
     45250 WT15     1252     MECN     H11      HGA3     0.090000        1.0080           0
     45251 WT15     1252     MECN     H12      HGA3     0.090000        1.0080           0
     45252 WT15     1252     MECN     H13      HGA3     0.090000        1.0080           0
     45253 WT15     1252     MECN     C2       CG1N1    0.360000       12.0110           0
     45254 WT15     1252     MECN     N3       NG1T1   -0.460000       14.0070           0
     45255 WT15     1254     MECN     C1       CG331   -0.170000       12.0110           0
     45256 WT15     1254     MECN     H11      HGA3     0.090000        1.0080           0
     45257 WT15     1254     MECN     H12      HGA3     0.090000        1.0080           0
     45258 WT15     1254     MECN     H13      HGA3     0.090000        1.0080           0
     45259 WT15     1254     MECN     C2       CG1N1    0.360000       12.0110           0
     45260 WT15     1254     MECN     N3       NG1T1   -0.460000       14.0070           0
     45261 WT15     1255     MECN     C1       CG331   -0.170000       12.0110           0
     45262 WT15     1255     MECN     H11      HGA3     0.090000        1.0080           0
     45263 WT15     1255     MECN     H12      HGA3     0.090000        1.0080           0
     45264 WT15     1255     MECN     H13      HGA3     0.090000        1.0080           0
     45265 WT15     1255     MECN     C2       CG1N1    0.360000       12.0110           0
     45266 WT15     1255     MECN     N3       NG1T1   -0.460000       14.0070           0
     45267 WT15     1256     MECN     C1       CG331   -0.170000       12.0110           0
     45268 WT15     1256     MECN     H11      HGA3     0.090000        1.0080           0
     45269 WT15     1256     MECN     H12      HGA3     0.090000        1.0080           0
     45270 WT15     1256     MECN     H13      HGA3     0.090000        1.0080           0
     45271 WT15     1256     MECN     C2       CG1N1    0.360000       12.0110           0
     45272 WT15     1256     MECN     N3       NG1T1   -0.460000       14.0070           0
     45273 WT15     1258     MECN     C1       CG331   -0.170000       12.0110           0
     45274 WT15     1258     MECN     H11      HGA3     0.090000        1.0080           0
     45275 WT15     1258     MECN     H12      HGA3     0.090000        1.0080           0
     45276 WT15     1258     MECN     H13      HGA3     0.090000        1.0080           0
     45277 WT15     1258     MECN     C2       CG1N1    0.360000       12.0110           0
     45278 WT15     1258     MECN     N3       NG1T1   -0.460000       14.0070           0
     45279 WT15     1259     MECN     C1       CG331   -0.170000       12.0110           0
     45280 WT15     1259     MECN     H11      HGA3     0.090000        1.0080           0
     45281 WT15     1259     MECN     H12      HGA3     0.090000        1.0080           0
     45282 WT15     1259     MECN     H13      HGA3     0.090000        1.0080           0
     45283 WT15     1259     MECN     C2       CG1N1    0.360000       12.0110           0
     45284 WT15     1259     MECN     N3       NG1T1   -0.460000       14.0070           0
     45285 WT15     1260     MECN     C1       CG331   -0.170000       12.0110           0
     45286 WT15     1260     MECN     H11      HGA3     0.090000        1.0080           0
     45287 WT15     1260     MECN     H12      HGA3     0.090000        1.0080           0
     45288 WT15     1260     MECN     H13      HGA3     0.090000        1.0080           0
     45289 WT15     1260     MECN     C2       CG1N1    0.360000       12.0110           0
     45290 WT15     1260     MECN     N3       NG1T1   -0.460000       14.0070           0
     45291 WT15     1263     MECN     C1       CG331   -0.170000       12.0110           0
     45292 WT15     1263     MECN     H11      HGA3     0.090000        1.0080           0
     45293 WT15     1263     MECN     H12      HGA3     0.090000        1.0080           0
     45294 WT15     1263     MECN     H13      HGA3     0.090000        1.0080           0
     45295 WT15     1263     MECN     C2       CG1N1    0.360000       12.0110           0
     45296 WT15     1263     MECN     N3       NG1T1   -0.460000       14.0070           0
     45297 WT15     1264     MECN     C1       CG331   -0.170000       12.0110           0
     45298 WT15     1264     MECN     H11      HGA3     0.090000        1.0080           0
     45299 WT15     1264     MECN     H12      HGA3     0.090000        1.0080           0
     45300 WT15     1264     MECN     H13      HGA3     0.090000        1.0080           0
     45301 WT15     1264     MECN     C2       CG1N1    0.360000       12.0110           0
     45302 WT15     1264     MECN     N3       NG1T1   -0.460000       14.0070           0
     45303 WT15     1265     MECN     C1       CG331   -0.170000       12.0110           0
     45304 WT15     1265     MECN     H11      HGA3     0.090000        1.0080           0
     45305 WT15     1265     MECN     H12      HGA3     0.090000        1.0080           0
     45306 WT15     1265     MECN     H13      HGA3     0.090000        1.0080           0
     45307 WT15     1265     MECN     C2       CG1N1    0.360000       12.0110           0
     45308 WT15     1265     MECN     N3       NG1T1   -0.460000       14.0070           0
     45309 WT15     1266     MECN     C1       CG331   -0.170000       12.0110           0
     45310 WT15     1266     MECN     H11      HGA3     0.090000        1.0080           0
     45311 WT15     1266     MECN     H12      HGA3     0.090000        1.0080           0
     45312 WT15     1266     MECN     H13      HGA3     0.090000        1.0080           0
     45313 WT15     1266     MECN     C2       CG1N1    0.360000       12.0110           0
     45314 WT15     1266     MECN     N3       NG1T1   -0.460000       14.0070           0
     45315 WT15     1268     MECN     C1       CG331   -0.170000       12.0110           0
     45316 WT15     1268     MECN     H11      HGA3     0.090000        1.0080           0
     45317 WT15     1268     MECN     H12      HGA3     0.090000        1.0080           0
     45318 WT15     1268     MECN     H13      HGA3     0.090000        1.0080           0
     45319 WT15     1268     MECN     C2       CG1N1    0.360000       12.0110           0
     45320 WT15     1268     MECN     N3       NG1T1   -0.460000       14.0070           0
     45321 WT15     1269     MECN     C1       CG331   -0.170000       12.0110           0
     45322 WT15     1269     MECN     H11      HGA3     0.090000        1.0080           0
     45323 WT15     1269     MECN     H12      HGA3     0.090000        1.0080           0
     45324 WT15     1269     MECN     H13      HGA3     0.090000        1.0080           0
     45325 WT15     1269     MECN     C2       CG1N1    0.360000       12.0110           0
     45326 WT15     1269     MECN     N3       NG1T1   -0.460000       14.0070           0
     45327 WT15     1275     MECN     C1       CG331   -0.170000       12.0110           0
     45328 WT15     1275     MECN     H11      HGA3     0.090000        1.0080           0
     45329 WT15     1275     MECN     H12      HGA3     0.090000        1.0080           0
     45330 WT15     1275     MECN     H13      HGA3     0.090000        1.0080           0
     45331 WT15     1275     MECN     C2       CG1N1    0.360000       12.0110           0
     45332 WT15     1275     MECN     N3       NG1T1   -0.460000       14.0070           0
     45333 WT15     1277     MECN     C1       CG331   -0.170000       12.0110           0
     45334 WT15     1277     MECN     H11      HGA3     0.090000        1.0080           0
     45335 WT15     1277     MECN     H12      HGA3     0.090000        1.0080           0
     45336 WT15     1277     MECN     H13      HGA3     0.090000        1.0080           0
     45337 WT15     1277     MECN     C2       CG1N1    0.360000       12.0110           0
     45338 WT15     1277     MECN     N3       NG1T1   -0.460000       14.0070           0
     45339 WT15     1278     MECN     C1       CG331   -0.170000       12.0110           0
     45340 WT15     1278     MECN     H11      HGA3     0.090000        1.0080           0
     45341 WT15     1278     MECN     H12      HGA3     0.090000        1.0080           0
     45342 WT15     1278     MECN     H13      HGA3     0.090000        1.0080           0
     45343 WT15     1278     MECN     C2       CG1N1    0.360000       12.0110           0
     45344 WT15     1278     MECN     N3       NG1T1   -0.460000       14.0070           0
     45345 WT15     1279     MECN     C1       CG331   -0.170000       12.0110           0
     45346 WT15     1279     MECN     H11      HGA3     0.090000        1.0080           0
     45347 WT15     1279     MECN     H12      HGA3     0.090000        1.0080           0
     45348 WT15     1279     MECN     H13      HGA3     0.090000        1.0080           0
     45349 WT15     1279     MECN     C2       CG1N1    0.360000       12.0110           0
     45350 WT15     1279     MECN     N3       NG1T1   -0.460000       14.0070           0
     45351 WT15     1280     MECN     C1       CG331   -0.170000       12.0110           0
     45352 WT15     1280     MECN     H11      HGA3     0.090000        1.0080           0
     45353 WT15     1280     MECN     H12      HGA3     0.090000        1.0080           0
     45354 WT15     1280     MECN     H13      HGA3     0.090000        1.0080           0
     45355 WT15     1280     MECN     C2       CG1N1    0.360000       12.0110           0
     45356 WT15     1280     MECN     N3       NG1T1   -0.460000       14.0070           0
     45357 WT15     1282     MECN     C1       CG331   -0.170000       12.0110           0
     45358 WT15     1282     MECN     H11      HGA3     0.090000        1.0080           0
     45359 WT15     1282     MECN     H12      HGA3     0.090000        1.0080           0
     45360 WT15     1282     MECN     H13      HGA3     0.090000        1.0080           0
     45361 WT15     1282     MECN     C2       CG1N1    0.360000       12.0110           0
     45362 WT15     1282     MECN     N3       NG1T1   -0.460000       14.0070           0
     45363 WT15     1285     MECN     C1       CG331   -0.170000       12.0110           0
     45364 WT15     1285     MECN     H11      HGA3     0.090000        1.0080           0
     45365 WT15     1285     MECN     H12      HGA3     0.090000        1.0080           0
     45366 WT15     1285     MECN     H13      HGA3     0.090000        1.0080           0
     45367 WT15     1285     MECN     C2       CG1N1    0.360000       12.0110           0
     45368 WT15     1285     MECN     N3       NG1T1   -0.460000       14.0070           0
     45369 WT15     1286     MECN     C1       CG331   -0.170000       12.0110           0
     45370 WT15     1286     MECN     H11      HGA3     0.090000        1.0080           0
     45371 WT15     1286     MECN     H12      HGA3     0.090000        1.0080           0
     45372 WT15     1286     MECN     H13      HGA3     0.090000        1.0080           0
     45373 WT15     1286     MECN     C2       CG1N1    0.360000       12.0110           0
     45374 WT15     1286     MECN     N3       NG1T1   -0.460000       14.0070           0
     45375 WT15     1288     MECN     C1       CG331   -0.170000       12.0110           0
     45376 WT15     1288     MECN     H11      HGA3     0.090000        1.0080           0
     45377 WT15     1288     MECN     H12      HGA3     0.090000        1.0080           0
     45378 WT15     1288     MECN     H13      HGA3     0.090000        1.0080           0
     45379 WT15     1288     MECN     C2       CG1N1    0.360000       12.0110           0
     45380 WT15     1288     MECN     N3       NG1T1   -0.460000       14.0070           0
     45381 WT15     1290     MECN     C1       CG331   -0.170000       12.0110           0
     45382 WT15     1290     MECN     H11      HGA3     0.090000        1.0080           0
     45383 WT15     1290     MECN     H12      HGA3     0.090000        1.0080           0
     45384 WT15     1290     MECN     H13      HGA3     0.090000        1.0080           0
     45385 WT15     1290     MECN     C2       CG1N1    0.360000       12.0110           0
     45386 WT15     1290     MECN     N3       NG1T1   -0.460000       14.0070           0
     45387 WT15     1291     MECN     C1       CG331   -0.170000       12.0110           0
     45388 WT15     1291     MECN     H11      HGA3     0.090000        1.0080           0
     45389 WT15     1291     MECN     H12      HGA3     0.090000        1.0080           0
     45390 WT15     1291     MECN     H13      HGA3     0.090000        1.0080           0
     45391 WT15     1291     MECN     C2       CG1N1    0.360000       12.0110           0
     45392 WT15     1291     MECN     N3       NG1T1   -0.460000       14.0070           0
     45393 WT15     1296     MECN     C1       CG331   -0.170000       12.0110           0
     45394 WT15     1296     MECN     H11      HGA3     0.090000        1.0080           0
     45395 WT15     1296     MECN     H12      HGA3     0.090000        1.0080           0
     45396 WT15     1296     MECN     H13      HGA3     0.090000        1.0080           0
     45397 WT15     1296     MECN     C2       CG1N1    0.360000       12.0110           0
     45398 WT15     1296     MECN     N3       NG1T1   -0.460000       14.0070           0
     45399 WT15     1299     MECN     C1       CG331   -0.170000       12.0110           0
     45400 WT15     1299     MECN     H11      HGA3     0.090000        1.0080           0
     45401 WT15     1299     MECN     H12      HGA3     0.090000        1.0080           0
     45402 WT15     1299     MECN     H13      HGA3     0.090000        1.0080           0
     45403 WT15     1299     MECN     C2       CG1N1    0.360000       12.0110           0
     45404 WT15     1299     MECN     N3       NG1T1   -0.460000       14.0070           0
     45405 WT15     1301     MECN     C1       CG331   -0.170000       12.0110           0
     45406 WT15     1301     MECN     H11      HGA3     0.090000        1.0080           0
     45407 WT15     1301     MECN     H12      HGA3     0.090000        1.0080           0
     45408 WT15     1301     MECN     H13      HGA3     0.090000        1.0080           0
     45409 WT15     1301     MECN     C2       CG1N1    0.360000       12.0110           0
     45410 WT15     1301     MECN     N3       NG1T1   -0.460000       14.0070           0
     45411 WT15     1302     MECN     C1       CG331   -0.170000       12.0110           0
     45412 WT15     1302     MECN     H11      HGA3     0.090000        1.0080           0
     45413 WT15     1302     MECN     H12      HGA3     0.090000        1.0080           0
     45414 WT15     1302     MECN     H13      HGA3     0.090000        1.0080           0
     45415 WT15     1302     MECN     C2       CG1N1    0.360000       12.0110           0
     45416 WT15     1302     MECN     N3       NG1T1   -0.460000       14.0070           0
     45417 WT15     1305     MECN     C1       CG331   -0.170000       12.0110           0
     45418 WT15     1305     MECN     H11      HGA3     0.090000        1.0080           0
     45419 WT15     1305     MECN     H12      HGA3     0.090000        1.0080           0
     45420 WT15     1305     MECN     H13      HGA3     0.090000        1.0080           0
     45421 WT15     1305     MECN     C2       CG1N1    0.360000       12.0110           0
     45422 WT15     1305     MECN     N3       NG1T1   -0.460000       14.0070           0
     45423 WT15     1308     MECN     C1       CG331   -0.170000       12.0110           0
     45424 WT15     1308     MECN     H11      HGA3     0.090000        1.0080           0
     45425 WT15     1308     MECN     H12      HGA3     0.090000        1.0080           0
     45426 WT15     1308     MECN     H13      HGA3     0.090000        1.0080           0
     45427 WT15     1308     MECN     C2       CG1N1    0.360000       12.0110           0
     45428 WT15     1308     MECN     N3       NG1T1   -0.460000       14.0070           0
     45429 WT15     1309     MECN     C1       CG331   -0.170000       12.0110           0
     45430 WT15     1309     MECN     H11      HGA3     0.090000        1.0080           0
     45431 WT15     1309     MECN     H12      HGA3     0.090000        1.0080           0
     45432 WT15     1309     MECN     H13      HGA3     0.090000        1.0080           0
     45433 WT15     1309     MECN     C2       CG1N1    0.360000       12.0110           0
     45434 WT15     1309     MECN     N3       NG1T1   -0.460000       14.0070           0
     45435 WT15     1311     MECN     C1       CG331   -0.170000       12.0110           0
     45436 WT15     1311     MECN     H11      HGA3     0.090000        1.0080           0
     45437 WT15     1311     MECN     H12      HGA3     0.090000        1.0080           0
     45438 WT15     1311     MECN     H13      HGA3     0.090000        1.0080           0
     45439 WT15     1311     MECN     C2       CG1N1    0.360000       12.0110           0
     45440 WT15     1311     MECN     N3       NG1T1   -0.460000       14.0070           0
     45441 WT15     1312     MECN     C1       CG331   -0.170000       12.0110           0
     45442 WT15     1312     MECN     H11      HGA3     0.090000        1.0080           0
     45443 WT15     1312     MECN     H12      HGA3     0.090000        1.0080           0
     45444 WT15     1312     MECN     H13      HGA3     0.090000        1.0080           0
     45445 WT15     1312     MECN     C2       CG1N1    0.360000       12.0110           0
     45446 WT15     1312     MECN     N3       NG1T1   -0.460000       14.0070           0
     45447 WT15     1313     MECN     C1       CG331   -0.170000       12.0110           0
     45448 WT15     1313     MECN     H11      HGA3     0.090000        1.0080           0
     45449 WT15     1313     MECN     H12      HGA3     0.090000        1.0080           0
     45450 WT15     1313     MECN     H13      HGA3     0.090000        1.0080           0
     45451 WT15     1313     MECN     C2       CG1N1    0.360000       12.0110           0
     45452 WT15     1313     MECN     N3       NG1T1   -0.460000       14.0070           0
     45453 WT15     1314     MECN     C1       CG331   -0.170000       12.0110           0
     45454 WT15     1314     MECN     H11      HGA3     0.090000        1.0080           0
     45455 WT15     1314     MECN     H12      HGA3     0.090000        1.0080           0
     45456 WT15     1314     MECN     H13      HGA3     0.090000        1.0080           0
     45457 WT15     1314     MECN     C2       CG1N1    0.360000       12.0110           0
     45458 WT15     1314     MECN     N3       NG1T1   -0.460000       14.0070           0
     45459 WT15     1316     MECN     C1       CG331   -0.170000       12.0110           0
     45460 WT15     1316     MECN     H11      HGA3     0.090000        1.0080           0
     45461 WT15     1316     MECN     H12      HGA3     0.090000        1.0080           0
     45462 WT15     1316     MECN     H13      HGA3     0.090000        1.0080           0
     45463 WT15     1316     MECN     C2       CG1N1    0.360000       12.0110           0
     45464 WT15     1316     MECN     N3       NG1T1   -0.460000       14.0070           0
     45465 WT15     1318     MECN     C1       CG331   -0.170000       12.0110           0
     45466 WT15     1318     MECN     H11      HGA3     0.090000        1.0080           0
     45467 WT15     1318     MECN     H12      HGA3     0.090000        1.0080           0
     45468 WT15     1318     MECN     H13      HGA3     0.090000        1.0080           0
     45469 WT15     1318     MECN     C2       CG1N1    0.360000       12.0110           0
     45470 WT15     1318     MECN     N3       NG1T1   -0.460000       14.0070           0
     45471 WT15     1319     MECN     C1       CG331   -0.170000       12.0110           0
     45472 WT15     1319     MECN     H11      HGA3     0.090000        1.0080           0
     45473 WT15     1319     MECN     H12      HGA3     0.090000        1.0080           0
     45474 WT15     1319     MECN     H13      HGA3     0.090000        1.0080           0
     45475 WT15     1319     MECN     C2       CG1N1    0.360000       12.0110           0
     45476 WT15     1319     MECN     N3       NG1T1   -0.460000       14.0070           0
     45477 WT15     1320     MECN     C1       CG331   -0.170000       12.0110           0
     45478 WT15     1320     MECN     H11      HGA3     0.090000        1.0080           0
     45479 WT15     1320     MECN     H12      HGA3     0.090000        1.0080           0
     45480 WT15     1320     MECN     H13      HGA3     0.090000        1.0080           0
     45481 WT15     1320     MECN     C2       CG1N1    0.360000       12.0110           0
     45482 WT15     1320     MECN     N3       NG1T1   -0.460000       14.0070           0
     45483 WT15     1321     MECN     C1       CG331   -0.170000       12.0110           0
     45484 WT15     1321     MECN     H11      HGA3     0.090000        1.0080           0
     45485 WT15     1321     MECN     H12      HGA3     0.090000        1.0080           0
     45486 WT15     1321     MECN     H13      HGA3     0.090000        1.0080           0
     45487 WT15     1321     MECN     C2       CG1N1    0.360000       12.0110           0
     45488 WT15     1321     MECN     N3       NG1T1   -0.460000       14.0070           0
     45489 WT15     1322     MECN     C1       CG331   -0.170000       12.0110           0
     45490 WT15     1322     MECN     H11      HGA3     0.090000        1.0080           0
     45491 WT15     1322     MECN     H12      HGA3     0.090000        1.0080           0
     45492 WT15     1322     MECN     H13      HGA3     0.090000        1.0080           0
     45493 WT15     1322     MECN     C2       CG1N1    0.360000       12.0110           0
     45494 WT15     1322     MECN     N3       NG1T1   -0.460000       14.0070           0
     45495 WT15     1323     MECN     C1       CG331   -0.170000       12.0110           0
     45496 WT15     1323     MECN     H11      HGA3     0.090000        1.0080           0
     45497 WT15     1323     MECN     H12      HGA3     0.090000        1.0080           0
     45498 WT15     1323     MECN     H13      HGA3     0.090000        1.0080           0
     45499 WT15     1323     MECN     C2       CG1N1    0.360000       12.0110           0
     45500 WT15     1323     MECN     N3       NG1T1   -0.460000       14.0070           0
     45501 WT15     1324     MECN     C1       CG331   -0.170000       12.0110           0
     45502 WT15     1324     MECN     H11      HGA3     0.090000        1.0080           0
     45503 WT15     1324     MECN     H12      HGA3     0.090000        1.0080           0
     45504 WT15     1324     MECN     H13      HGA3     0.090000        1.0080           0
     45505 WT15     1324     MECN     C2       CG1N1    0.360000       12.0110           0
     45506 WT15     1324     MECN     N3       NG1T1   -0.460000       14.0070           0
     45507 WT15     1327     MECN     C1       CG331   -0.170000       12.0110           0
     45508 WT15     1327     MECN     H11      HGA3     0.090000        1.0080           0
     45509 WT15     1327     MECN     H12      HGA3     0.090000        1.0080           0
     45510 WT15     1327     MECN     H13      HGA3     0.090000        1.0080           0
     45511 WT15     1327     MECN     C2       CG1N1    0.360000       12.0110           0
     45512 WT15     1327     MECN     N3       NG1T1   -0.460000       14.0070           0
     45513 WT15     1328     MECN     C1       CG331   -0.170000       12.0110           0
     45514 WT15     1328     MECN     H11      HGA3     0.090000        1.0080           0
     45515 WT15     1328     MECN     H12      HGA3     0.090000        1.0080           0
     45516 WT15     1328     MECN     H13      HGA3     0.090000        1.0080           0
     45517 WT15     1328     MECN     C2       CG1N1    0.360000       12.0110           0
     45518 WT15     1328     MECN     N3       NG1T1   -0.460000       14.0070           0
     45519 WT15     1329     MECN     C1       CG331   -0.170000       12.0110           0
     45520 WT15     1329     MECN     H11      HGA3     0.090000        1.0080           0
     45521 WT15     1329     MECN     H12      HGA3     0.090000        1.0080           0
     45522 WT15     1329     MECN     H13      HGA3     0.090000        1.0080           0
     45523 WT15     1329     MECN     C2       CG1N1    0.360000       12.0110           0
     45524 WT15     1329     MECN     N3       NG1T1   -0.460000       14.0070           0
     45525 WT15     1330     MECN     C1       CG331   -0.170000       12.0110           0
     45526 WT15     1330     MECN     H11      HGA3     0.090000        1.0080           0
     45527 WT15     1330     MECN     H12      HGA3     0.090000        1.0080           0
     45528 WT15     1330     MECN     H13      HGA3     0.090000        1.0080           0
     45529 WT15     1330     MECN     C2       CG1N1    0.360000       12.0110           0
     45530 WT15     1330     MECN     N3       NG1T1   -0.460000       14.0070           0
     45531 WT15     1331     MECN     C1       CG331   -0.170000       12.0110           0
     45532 WT15     1331     MECN     H11      HGA3     0.090000        1.0080           0
     45533 WT15     1331     MECN     H12      HGA3     0.090000        1.0080           0
     45534 WT15     1331     MECN     H13      HGA3     0.090000        1.0080           0
     45535 WT15     1331     MECN     C2       CG1N1    0.360000       12.0110           0
     45536 WT15     1331     MECN     N3       NG1T1   -0.460000       14.0070           0
     45537 WT16     1        MECN     C1       CG331   -0.170000       12.0110           0
     45538 WT16     1        MECN     H11      HGA3     0.090000        1.0080           0
     45539 WT16     1        MECN     H12      HGA3     0.090000        1.0080           0
     45540 WT16     1        MECN     H13      HGA3     0.090000        1.0080           0
     45541 WT16     1        MECN     C2       CG1N1    0.360000       12.0110           0
     45542 WT16     1        MECN     N3       NG1T1   -0.460000       14.0070           0
     45543 WT16     4        MECN     C1       CG331   -0.170000       12.0110           0
     45544 WT16     4        MECN     H11      HGA3     0.090000        1.0080           0
     45545 WT16     4        MECN     H12      HGA3     0.090000        1.0080           0
     45546 WT16     4        MECN     H13      HGA3     0.090000        1.0080           0
     45547 WT16     4        MECN     C2       CG1N1    0.360000       12.0110           0
     45548 WT16     4        MECN     N3       NG1T1   -0.460000       14.0070           0
     45549 WT16     8        MECN     C1       CG331   -0.170000       12.0110           0
     45550 WT16     8        MECN     H11      HGA3     0.090000        1.0080           0
     45551 WT16     8        MECN     H12      HGA3     0.090000        1.0080           0
     45552 WT16     8        MECN     H13      HGA3     0.090000        1.0080           0
     45553 WT16     8        MECN     C2       CG1N1    0.360000       12.0110           0
     45554 WT16     8        MECN     N3       NG1T1   -0.460000       14.0070           0
     45555 WT16     9        MECN     C1       CG331   -0.170000       12.0110           0
     45556 WT16     9        MECN     H11      HGA3     0.090000        1.0080           0
     45557 WT16     9        MECN     H12      HGA3     0.090000        1.0080           0
     45558 WT16     9        MECN     H13      HGA3     0.090000        1.0080           0
     45559 WT16     9        MECN     C2       CG1N1    0.360000       12.0110           0
     45560 WT16     9        MECN     N3       NG1T1   -0.460000       14.0070           0
     45561 WT16     17       MECN     C1       CG331   -0.170000       12.0110           0
     45562 WT16     17       MECN     H11      HGA3     0.090000        1.0080           0
     45563 WT16     17       MECN     H12      HGA3     0.090000        1.0080           0
     45564 WT16     17       MECN     H13      HGA3     0.090000        1.0080           0
     45565 WT16     17       MECN     C2       CG1N1    0.360000       12.0110           0
     45566 WT16     17       MECN     N3       NG1T1   -0.460000       14.0070           0
     45567 WT16     25       MECN     C1       CG331   -0.170000       12.0110           0
     45568 WT16     25       MECN     H11      HGA3     0.090000        1.0080           0
     45569 WT16     25       MECN     H12      HGA3     0.090000        1.0080           0
     45570 WT16     25       MECN     H13      HGA3     0.090000        1.0080           0
     45571 WT16     25       MECN     C2       CG1N1    0.360000       12.0110           0
     45572 WT16     25       MECN     N3       NG1T1   -0.460000       14.0070           0
     45573 WT16     31       MECN     C1       CG331   -0.170000       12.0110           0
     45574 WT16     31       MECN     H11      HGA3     0.090000        1.0080           0
     45575 WT16     31       MECN     H12      HGA3     0.090000        1.0080           0
     45576 WT16     31       MECN     H13      HGA3     0.090000        1.0080           0
     45577 WT16     31       MECN     C2       CG1N1    0.360000       12.0110           0
     45578 WT16     31       MECN     N3       NG1T1   -0.460000       14.0070           0
     45579 WT16     33       MECN     C1       CG331   -0.170000       12.0110           0
     45580 WT16     33       MECN     H11      HGA3     0.090000        1.0080           0
     45581 WT16     33       MECN     H12      HGA3     0.090000        1.0080           0
     45582 WT16     33       MECN     H13      HGA3     0.090000        1.0080           0
     45583 WT16     33       MECN     C2       CG1N1    0.360000       12.0110           0
     45584 WT16     33       MECN     N3       NG1T1   -0.460000       14.0070           0
     45585 WT16     34       MECN     C1       CG331   -0.170000       12.0110           0
     45586 WT16     34       MECN     H11      HGA3     0.090000        1.0080           0
     45587 WT16     34       MECN     H12      HGA3     0.090000        1.0080           0
     45588 WT16     34       MECN     H13      HGA3     0.090000        1.0080           0
     45589 WT16     34       MECN     C2       CG1N1    0.360000       12.0110           0
     45590 WT16     34       MECN     N3       NG1T1   -0.460000       14.0070           0
     45591 WT16     36       MECN     C1       CG331   -0.170000       12.0110           0
     45592 WT16     36       MECN     H11      HGA3     0.090000        1.0080           0
     45593 WT16     36       MECN     H12      HGA3     0.090000        1.0080           0
     45594 WT16     36       MECN     H13      HGA3     0.090000        1.0080           0
     45595 WT16     36       MECN     C2       CG1N1    0.360000       12.0110           0
     45596 WT16     36       MECN     N3       NG1T1   -0.460000       14.0070           0
     45597 WT16     37       MECN     C1       CG331   -0.170000       12.0110           0
     45598 WT16     37       MECN     H11      HGA3     0.090000        1.0080           0
     45599 WT16     37       MECN     H12      HGA3     0.090000        1.0080           0
     45600 WT16     37       MECN     H13      HGA3     0.090000        1.0080           0
     45601 WT16     37       MECN     C2       CG1N1    0.360000       12.0110           0
     45602 WT16     37       MECN     N3       NG1T1   -0.460000       14.0070           0
     45603 WT16     38       MECN     C1       CG331   -0.170000       12.0110           0
     45604 WT16     38       MECN     H11      HGA3     0.090000        1.0080           0
     45605 WT16     38       MECN     H12      HGA3     0.090000        1.0080           0
     45606 WT16     38       MECN     H13      HGA3     0.090000        1.0080           0
     45607 WT16     38       MECN     C2       CG1N1    0.360000       12.0110           0
     45608 WT16     38       MECN     N3       NG1T1   -0.460000       14.0070           0
     45609 WT16     39       MECN     C1       CG331   -0.170000       12.0110           0
     45610 WT16     39       MECN     H11      HGA3     0.090000        1.0080           0
     45611 WT16     39       MECN     H12      HGA3     0.090000        1.0080           0
     45612 WT16     39       MECN     H13      HGA3     0.090000        1.0080           0
     45613 WT16     39       MECN     C2       CG1N1    0.360000       12.0110           0
     45614 WT16     39       MECN     N3       NG1T1   -0.460000       14.0070           0
     45615 WT16     42       MECN     C1       CG331   -0.170000       12.0110           0
     45616 WT16     42       MECN     H11      HGA3     0.090000        1.0080           0
     45617 WT16     42       MECN     H12      HGA3     0.090000        1.0080           0
     45618 WT16     42       MECN     H13      HGA3     0.090000        1.0080           0
     45619 WT16     42       MECN     C2       CG1N1    0.360000       12.0110           0
     45620 WT16     42       MECN     N3       NG1T1   -0.460000       14.0070           0
     45621 WT16     43       MECN     C1       CG331   -0.170000       12.0110           0
     45622 WT16     43       MECN     H11      HGA3     0.090000        1.0080           0
     45623 WT16     43       MECN     H12      HGA3     0.090000        1.0080           0
     45624 WT16     43       MECN     H13      HGA3     0.090000        1.0080           0
     45625 WT16     43       MECN     C2       CG1N1    0.360000       12.0110           0
     45626 WT16     43       MECN     N3       NG1T1   -0.460000       14.0070           0
     45627 WT16     45       MECN     C1       CG331   -0.170000       12.0110           0
     45628 WT16     45       MECN     H11      HGA3     0.090000        1.0080           0
     45629 WT16     45       MECN     H12      HGA3     0.090000        1.0080           0
     45630 WT16     45       MECN     H13      HGA3     0.090000        1.0080           0
     45631 WT16     45       MECN     C2       CG1N1    0.360000       12.0110           0
     45632 WT16     45       MECN     N3       NG1T1   -0.460000       14.0070           0
     45633 WT16     46       MECN     C1       CG331   -0.170000       12.0110           0
     45634 WT16     46       MECN     H11      HGA3     0.090000        1.0080           0
     45635 WT16     46       MECN     H12      HGA3     0.090000        1.0080           0
     45636 WT16     46       MECN     H13      HGA3     0.090000        1.0080           0
     45637 WT16     46       MECN     C2       CG1N1    0.360000       12.0110           0
     45638 WT16     46       MECN     N3       NG1T1   -0.460000       14.0070           0
     45639 WT16     57       MECN     C1       CG331   -0.170000       12.0110           0
     45640 WT16     57       MECN     H11      HGA3     0.090000        1.0080           0
     45641 WT16     57       MECN     H12      HGA3     0.090000        1.0080           0
     45642 WT16     57       MECN     H13      HGA3     0.090000        1.0080           0
     45643 WT16     57       MECN     C2       CG1N1    0.360000       12.0110           0
     45644 WT16     57       MECN     N3       NG1T1   -0.460000       14.0070           0
     45645 WT16     59       MECN     C1       CG331   -0.170000       12.0110           0
     45646 WT16     59       MECN     H11      HGA3     0.090000        1.0080           0
     45647 WT16     59       MECN     H12      HGA3     0.090000        1.0080           0
     45648 WT16     59       MECN     H13      HGA3     0.090000        1.0080           0
     45649 WT16     59       MECN     C2       CG1N1    0.360000       12.0110           0
     45650 WT16     59       MECN     N3       NG1T1   -0.460000       14.0070           0
     45651 WT16     60       MECN     C1       CG331   -0.170000       12.0110           0
     45652 WT16     60       MECN     H11      HGA3     0.090000        1.0080           0
     45653 WT16     60       MECN     H12      HGA3     0.090000        1.0080           0
     45654 WT16     60       MECN     H13      HGA3     0.090000        1.0080           0
     45655 WT16     60       MECN     C2       CG1N1    0.360000       12.0110           0
     45656 WT16     60       MECN     N3       NG1T1   -0.460000       14.0070           0
     45657 WT16     62       MECN     C1       CG331   -0.170000       12.0110           0
     45658 WT16     62       MECN     H11      HGA3     0.090000        1.0080           0
     45659 WT16     62       MECN     H12      HGA3     0.090000        1.0080           0
     45660 WT16     62       MECN     H13      HGA3     0.090000        1.0080           0
     45661 WT16     62       MECN     C2       CG1N1    0.360000       12.0110           0
     45662 WT16     62       MECN     N3       NG1T1   -0.460000       14.0070           0
     45663 WT16     63       MECN     C1       CG331   -0.170000       12.0110           0
     45664 WT16     63       MECN     H11      HGA3     0.090000        1.0080           0
     45665 WT16     63       MECN     H12      HGA3     0.090000        1.0080           0
     45666 WT16     63       MECN     H13      HGA3     0.090000        1.0080           0
     45667 WT16     63       MECN     C2       CG1N1    0.360000       12.0110           0
     45668 WT16     63       MECN     N3       NG1T1   -0.460000       14.0070           0
     45669 WT16     71       MECN     C1       CG331   -0.170000       12.0110           0
     45670 WT16     71       MECN     H11      HGA3     0.090000        1.0080           0
     45671 WT16     71       MECN     H12      HGA3     0.090000        1.0080           0
     45672 WT16     71       MECN     H13      HGA3     0.090000        1.0080           0
     45673 WT16     71       MECN     C2       CG1N1    0.360000       12.0110           0
     45674 WT16     71       MECN     N3       NG1T1   -0.460000       14.0070           0
     45675 WT16     72       MECN     C1       CG331   -0.170000       12.0110           0
     45676 WT16     72       MECN     H11      HGA3     0.090000        1.0080           0
     45677 WT16     72       MECN     H12      HGA3     0.090000        1.0080           0
     45678 WT16     72       MECN     H13      HGA3     0.090000        1.0080           0
     45679 WT16     72       MECN     C2       CG1N1    0.360000       12.0110           0
     45680 WT16     72       MECN     N3       NG1T1   -0.460000       14.0070           0
     45681 WT16     73       MECN     C1       CG331   -0.170000       12.0110           0
     45682 WT16     73       MECN     H11      HGA3     0.090000        1.0080           0
     45683 WT16     73       MECN     H12      HGA3     0.090000        1.0080           0
     45684 WT16     73       MECN     H13      HGA3     0.090000        1.0080           0
     45685 WT16     73       MECN     C2       CG1N1    0.360000       12.0110           0
     45686 WT16     73       MECN     N3       NG1T1   -0.460000       14.0070           0
     45687 WT16     75       MECN     C1       CG331   -0.170000       12.0110           0
     45688 WT16     75       MECN     H11      HGA3     0.090000        1.0080           0
     45689 WT16     75       MECN     H12      HGA3     0.090000        1.0080           0
     45690 WT16     75       MECN     H13      HGA3     0.090000        1.0080           0
     45691 WT16     75       MECN     C2       CG1N1    0.360000       12.0110           0
     45692 WT16     75       MECN     N3       NG1T1   -0.460000       14.0070           0
     45693 WT16     78       MECN     C1       CG331   -0.170000       12.0110           0
     45694 WT16     78       MECN     H11      HGA3     0.090000        1.0080           0
     45695 WT16     78       MECN     H12      HGA3     0.090000        1.0080           0
     45696 WT16     78       MECN     H13      HGA3     0.090000        1.0080           0
     45697 WT16     78       MECN     C2       CG1N1    0.360000       12.0110           0
     45698 WT16     78       MECN     N3       NG1T1   -0.460000       14.0070           0
     45699 WT16     80       MECN     C1       CG331   -0.170000       12.0110           0
     45700 WT16     80       MECN     H11      HGA3     0.090000        1.0080           0
     45701 WT16     80       MECN     H12      HGA3     0.090000        1.0080           0
     45702 WT16     80       MECN     H13      HGA3     0.090000        1.0080           0
     45703 WT16     80       MECN     C2       CG1N1    0.360000       12.0110           0
     45704 WT16     80       MECN     N3       NG1T1   -0.460000       14.0070           0
     45705 WT16     81       MECN     C1       CG331   -0.170000       12.0110           0
     45706 WT16     81       MECN     H11      HGA3     0.090000        1.0080           0
     45707 WT16     81       MECN     H12      HGA3     0.090000        1.0080           0
     45708 WT16     81       MECN     H13      HGA3     0.090000        1.0080           0
     45709 WT16     81       MECN     C2       CG1N1    0.360000       12.0110           0
     45710 WT16     81       MECN     N3       NG1T1   -0.460000       14.0070           0
     45711 WT16     83       MECN     C1       CG331   -0.170000       12.0110           0
     45712 WT16     83       MECN     H11      HGA3     0.090000        1.0080           0
     45713 WT16     83       MECN     H12      HGA3     0.090000        1.0080           0
     45714 WT16     83       MECN     H13      HGA3     0.090000        1.0080           0
     45715 WT16     83       MECN     C2       CG1N1    0.360000       12.0110           0
     45716 WT16     83       MECN     N3       NG1T1   -0.460000       14.0070           0
     45717 WT16     84       MECN     C1       CG331   -0.170000       12.0110           0
     45718 WT16     84       MECN     H11      HGA3     0.090000        1.0080           0
     45719 WT16     84       MECN     H12      HGA3     0.090000        1.0080           0
     45720 WT16     84       MECN     H13      HGA3     0.090000        1.0080           0
     45721 WT16     84       MECN     C2       CG1N1    0.360000       12.0110           0
     45722 WT16     84       MECN     N3       NG1T1   -0.460000       14.0070           0
     45723 WT16     86       MECN     C1       CG331   -0.170000       12.0110           0
     45724 WT16     86       MECN     H11      HGA3     0.090000        1.0080           0
     45725 WT16     86       MECN     H12      HGA3     0.090000        1.0080           0
     45726 WT16     86       MECN     H13      HGA3     0.090000        1.0080           0
     45727 WT16     86       MECN     C2       CG1N1    0.360000       12.0110           0
     45728 WT16     86       MECN     N3       NG1T1   -0.460000       14.0070           0
     45729 WT16     90       MECN     C1       CG331   -0.170000       12.0110           0
     45730 WT16     90       MECN     H11      HGA3     0.090000        1.0080           0
     45731 WT16     90       MECN     H12      HGA3     0.090000        1.0080           0
     45732 WT16     90       MECN     H13      HGA3     0.090000        1.0080           0
     45733 WT16     90       MECN     C2       CG1N1    0.360000       12.0110           0
     45734 WT16     90       MECN     N3       NG1T1   -0.460000       14.0070           0
     45735 WT16     91       MECN     C1       CG331   -0.170000       12.0110           0
     45736 WT16     91       MECN     H11      HGA3     0.090000        1.0080           0
     45737 WT16     91       MECN     H12      HGA3     0.090000        1.0080           0
     45738 WT16     91       MECN     H13      HGA3     0.090000        1.0080           0
     45739 WT16     91       MECN     C2       CG1N1    0.360000       12.0110           0
     45740 WT16     91       MECN     N3       NG1T1   -0.460000       14.0070           0
     45741 WT16     95       MECN     C1       CG331   -0.170000       12.0110           0
     45742 WT16     95       MECN     H11      HGA3     0.090000        1.0080           0
     45743 WT16     95       MECN     H12      HGA3     0.090000        1.0080           0
     45744 WT16     95       MECN     H13      HGA3     0.090000        1.0080           0
     45745 WT16     95       MECN     C2       CG1N1    0.360000       12.0110           0
     45746 WT16     95       MECN     N3       NG1T1   -0.460000       14.0070           0
     45747 WT16     100      MECN     C1       CG331   -0.170000       12.0110           0
     45748 WT16     100      MECN     H11      HGA3     0.090000        1.0080           0
     45749 WT16     100      MECN     H12      HGA3     0.090000        1.0080           0
     45750 WT16     100      MECN     H13      HGA3     0.090000        1.0080           0
     45751 WT16     100      MECN     C2       CG1N1    0.360000       12.0110           0
     45752 WT16     100      MECN     N3       NG1T1   -0.460000       14.0070           0
     45753 WT16     101      MECN     C1       CG331   -0.170000       12.0110           0
     45754 WT16     101      MECN     H11      HGA3     0.090000        1.0080           0
     45755 WT16     101      MECN     H12      HGA3     0.090000        1.0080           0
     45756 WT16     101      MECN     H13      HGA3     0.090000        1.0080           0
     45757 WT16     101      MECN     C2       CG1N1    0.360000       12.0110           0
     45758 WT16     101      MECN     N3       NG1T1   -0.460000       14.0070           0
     45759 WT16     102      MECN     C1       CG331   -0.170000       12.0110           0
     45760 WT16     102      MECN     H11      HGA3     0.090000        1.0080           0
     45761 WT16     102      MECN     H12      HGA3     0.090000        1.0080           0
     45762 WT16     102      MECN     H13      HGA3     0.090000        1.0080           0
     45763 WT16     102      MECN     C2       CG1N1    0.360000       12.0110           0
     45764 WT16     102      MECN     N3       NG1T1   -0.460000       14.0070           0
     45765 WT16     104      MECN     C1       CG331   -0.170000       12.0110           0
     45766 WT16     104      MECN     H11      HGA3     0.090000        1.0080           0
     45767 WT16     104      MECN     H12      HGA3     0.090000        1.0080           0
     45768 WT16     104      MECN     H13      HGA3     0.090000        1.0080           0
     45769 WT16     104      MECN     C2       CG1N1    0.360000       12.0110           0
     45770 WT16     104      MECN     N3       NG1T1   -0.460000       14.0070           0
     45771 WT16     108      MECN     C1       CG331   -0.170000       12.0110           0
     45772 WT16     108      MECN     H11      HGA3     0.090000        1.0080           0
     45773 WT16     108      MECN     H12      HGA3     0.090000        1.0080           0
     45774 WT16     108      MECN     H13      HGA3     0.090000        1.0080           0
     45775 WT16     108      MECN     C2       CG1N1    0.360000       12.0110           0
     45776 WT16     108      MECN     N3       NG1T1   -0.460000       14.0070           0
     45777 WT16     117      MECN     C1       CG331   -0.170000       12.0110           0
     45778 WT16     117      MECN     H11      HGA3     0.090000        1.0080           0
     45779 WT16     117      MECN     H12      HGA3     0.090000        1.0080           0
     45780 WT16     117      MECN     H13      HGA3     0.090000        1.0080           0
     45781 WT16     117      MECN     C2       CG1N1    0.360000       12.0110           0
     45782 WT16     117      MECN     N3       NG1T1   -0.460000       14.0070           0
     45783 WT16     120      MECN     C1       CG331   -0.170000       12.0110           0
     45784 WT16     120      MECN     H11      HGA3     0.090000        1.0080           0
     45785 WT16     120      MECN     H12      HGA3     0.090000        1.0080           0
     45786 WT16     120      MECN     H13      HGA3     0.090000        1.0080           0
     45787 WT16     120      MECN     C2       CG1N1    0.360000       12.0110           0
     45788 WT16     120      MECN     N3       NG1T1   -0.460000       14.0070           0
     45789 WT16     126      MECN     C1       CG331   -0.170000       12.0110           0
     45790 WT16     126      MECN     H11      HGA3     0.090000        1.0080           0
     45791 WT16     126      MECN     H12      HGA3     0.090000        1.0080           0
     45792 WT16     126      MECN     H13      HGA3     0.090000        1.0080           0
     45793 WT16     126      MECN     C2       CG1N1    0.360000       12.0110           0
     45794 WT16     126      MECN     N3       NG1T1   -0.460000       14.0070           0
     45795 WT16     133      MECN     C1       CG331   -0.170000       12.0110           0
     45796 WT16     133      MECN     H11      HGA3     0.090000        1.0080           0
     45797 WT16     133      MECN     H12      HGA3     0.090000        1.0080           0
     45798 WT16     133      MECN     H13      HGA3     0.090000        1.0080           0
     45799 WT16     133      MECN     C2       CG1N1    0.360000       12.0110           0
     45800 WT16     133      MECN     N3       NG1T1   -0.460000       14.0070           0
     45801 WT16     134      MECN     C1       CG331   -0.170000       12.0110           0
     45802 WT16     134      MECN     H11      HGA3     0.090000        1.0080           0
     45803 WT16     134      MECN     H12      HGA3     0.090000        1.0080           0
     45804 WT16     134      MECN     H13      HGA3     0.090000        1.0080           0
     45805 WT16     134      MECN     C2       CG1N1    0.360000       12.0110           0
     45806 WT16     134      MECN     N3       NG1T1   -0.460000       14.0070           0
     45807 WT16     138      MECN     C1       CG331   -0.170000       12.0110           0
     45808 WT16     138      MECN     H11      HGA3     0.090000        1.0080           0
     45809 WT16     138      MECN     H12      HGA3     0.090000        1.0080           0
     45810 WT16     138      MECN     H13      HGA3     0.090000        1.0080           0
     45811 WT16     138      MECN     C2       CG1N1    0.360000       12.0110           0
     45812 WT16     138      MECN     N3       NG1T1   -0.460000       14.0070           0
     45813 WT16     141      MECN     C1       CG331   -0.170000       12.0110           0
     45814 WT16     141      MECN     H11      HGA3     0.090000        1.0080           0
     45815 WT16     141      MECN     H12      HGA3     0.090000        1.0080           0
     45816 WT16     141      MECN     H13      HGA3     0.090000        1.0080           0
     45817 WT16     141      MECN     C2       CG1N1    0.360000       12.0110           0
     45818 WT16     141      MECN     N3       NG1T1   -0.460000       14.0070           0
     45819 WT16     144      MECN     C1       CG331   -0.170000       12.0110           0
     45820 WT16     144      MECN     H11      HGA3     0.090000        1.0080           0
     45821 WT16     144      MECN     H12      HGA3     0.090000        1.0080           0
     45822 WT16     144      MECN     H13      HGA3     0.090000        1.0080           0
     45823 WT16     144      MECN     C2       CG1N1    0.360000       12.0110           0
     45824 WT16     144      MECN     N3       NG1T1   -0.460000       14.0070           0
     45825 WT16     146      MECN     C1       CG331   -0.170000       12.0110           0
     45826 WT16     146      MECN     H11      HGA3     0.090000        1.0080           0
     45827 WT16     146      MECN     H12      HGA3     0.090000        1.0080           0
     45828 WT16     146      MECN     H13      HGA3     0.090000        1.0080           0
     45829 WT16     146      MECN     C2       CG1N1    0.360000       12.0110           0
     45830 WT16     146      MECN     N3       NG1T1   -0.460000       14.0070           0
     45831 WT16     147      MECN     C1       CG331   -0.170000       12.0110           0
     45832 WT16     147      MECN     H11      HGA3     0.090000        1.0080           0
     45833 WT16     147      MECN     H12      HGA3     0.090000        1.0080           0
     45834 WT16     147      MECN     H13      HGA3     0.090000        1.0080           0
     45835 WT16     147      MECN     C2       CG1N1    0.360000       12.0110           0
     45836 WT16     147      MECN     N3       NG1T1   -0.460000       14.0070           0
     45837 WT16     148      MECN     C1       CG331   -0.170000       12.0110           0
     45838 WT16     148      MECN     H11      HGA3     0.090000        1.0080           0
     45839 WT16     148      MECN     H12      HGA3     0.090000        1.0080           0
     45840 WT16     148      MECN     H13      HGA3     0.090000        1.0080           0
     45841 WT16     148      MECN     C2       CG1N1    0.360000       12.0110           0
     45842 WT16     148      MECN     N3       NG1T1   -0.460000       14.0070           0
     45843 WT16     149      MECN     C1       CG331   -0.170000       12.0110           0
     45844 WT16     149      MECN     H11      HGA3     0.090000        1.0080           0
     45845 WT16     149      MECN     H12      HGA3     0.090000        1.0080           0
     45846 WT16     149      MECN     H13      HGA3     0.090000        1.0080           0
     45847 WT16     149      MECN     C2       CG1N1    0.360000       12.0110           0
     45848 WT16     149      MECN     N3       NG1T1   -0.460000       14.0070           0
     45849 WT16     158      MECN     C1       CG331   -0.170000       12.0110           0
     45850 WT16     158      MECN     H11      HGA3     0.090000        1.0080           0
     45851 WT16     158      MECN     H12      HGA3     0.090000        1.0080           0
     45852 WT16     158      MECN     H13      HGA3     0.090000        1.0080           0
     45853 WT16     158      MECN     C2       CG1N1    0.360000       12.0110           0
     45854 WT16     158      MECN     N3       NG1T1   -0.460000       14.0070           0
     45855 WT16     161      MECN     C1       CG331   -0.170000       12.0110           0
     45856 WT16     161      MECN     H11      HGA3     0.090000        1.0080           0
     45857 WT16     161      MECN     H12      HGA3     0.090000        1.0080           0
     45858 WT16     161      MECN     H13      HGA3     0.090000        1.0080           0
     45859 WT16     161      MECN     C2       CG1N1    0.360000       12.0110           0
     45860 WT16     161      MECN     N3       NG1T1   -0.460000       14.0070           0
     45861 WT16     162      MECN     C1       CG331   -0.170000       12.0110           0
     45862 WT16     162      MECN     H11      HGA3     0.090000        1.0080           0
     45863 WT16     162      MECN     H12      HGA3     0.090000        1.0080           0
     45864 WT16     162      MECN     H13      HGA3     0.090000        1.0080           0
     45865 WT16     162      MECN     C2       CG1N1    0.360000       12.0110           0
     45866 WT16     162      MECN     N3       NG1T1   -0.460000       14.0070           0
     45867 WT16     176      MECN     C1       CG331   -0.170000       12.0110           0
     45868 WT16     176      MECN     H11      HGA3     0.090000        1.0080           0
     45869 WT16     176      MECN     H12      HGA3     0.090000        1.0080           0
     45870 WT16     176      MECN     H13      HGA3     0.090000        1.0080           0
     45871 WT16     176      MECN     C2       CG1N1    0.360000       12.0110           0
     45872 WT16     176      MECN     N3       NG1T1   -0.460000       14.0070           0
     45873 WT16     177      MECN     C1       CG331   -0.170000       12.0110           0
     45874 WT16     177      MECN     H11      HGA3     0.090000        1.0080           0
     45875 WT16     177      MECN     H12      HGA3     0.090000        1.0080           0
     45876 WT16     177      MECN     H13      HGA3     0.090000        1.0080           0
     45877 WT16     177      MECN     C2       CG1N1    0.360000       12.0110           0
     45878 WT16     177      MECN     N3       NG1T1   -0.460000       14.0070           0
     45879 WT16     179      MECN     C1       CG331   -0.170000       12.0110           0
     45880 WT16     179      MECN     H11      HGA3     0.090000        1.0080           0
     45881 WT16     179      MECN     H12      HGA3     0.090000        1.0080           0
     45882 WT16     179      MECN     H13      HGA3     0.090000        1.0080           0
     45883 WT16     179      MECN     C2       CG1N1    0.360000       12.0110           0
     45884 WT16     179      MECN     N3       NG1T1   -0.460000       14.0070           0
     45885 WT16     182      MECN     C1       CG331   -0.170000       12.0110           0
     45886 WT16     182      MECN     H11      HGA3     0.090000        1.0080           0
     45887 WT16     182      MECN     H12      HGA3     0.090000        1.0080           0
     45888 WT16     182      MECN     H13      HGA3     0.090000        1.0080           0
     45889 WT16     182      MECN     C2       CG1N1    0.360000       12.0110           0
     45890 WT16     182      MECN     N3       NG1T1   -0.460000       14.0070           0
     45891 WT16     189      MECN     C1       CG331   -0.170000       12.0110           0
     45892 WT16     189      MECN     H11      HGA3     0.090000        1.0080           0
     45893 WT16     189      MECN     H12      HGA3     0.090000        1.0080           0
     45894 WT16     189      MECN     H13      HGA3     0.090000        1.0080           0
     45895 WT16     189      MECN     C2       CG1N1    0.360000       12.0110           0
     45896 WT16     189      MECN     N3       NG1T1   -0.460000       14.0070           0
     45897 WT16     193      MECN     C1       CG331   -0.170000       12.0110           0
     45898 WT16     193      MECN     H11      HGA3     0.090000        1.0080           0
     45899 WT16     193      MECN     H12      HGA3     0.090000        1.0080           0
     45900 WT16     193      MECN     H13      HGA3     0.090000        1.0080           0
     45901 WT16     193      MECN     C2       CG1N1    0.360000       12.0110           0
     45902 WT16     193      MECN     N3       NG1T1   -0.460000       14.0070           0
     45903 WT16     195      MECN     C1       CG331   -0.170000       12.0110           0
     45904 WT16     195      MECN     H11      HGA3     0.090000        1.0080           0
     45905 WT16     195      MECN     H12      HGA3     0.090000        1.0080           0
     45906 WT16     195      MECN     H13      HGA3     0.090000        1.0080           0
     45907 WT16     195      MECN     C2       CG1N1    0.360000       12.0110           0
     45908 WT16     195      MECN     N3       NG1T1   -0.460000       14.0070           0
     45909 WT16     198      MECN     C1       CG331   -0.170000       12.0110           0
     45910 WT16     198      MECN     H11      HGA3     0.090000        1.0080           0
     45911 WT16     198      MECN     H12      HGA3     0.090000        1.0080           0
     45912 WT16     198      MECN     H13      HGA3     0.090000        1.0080           0
     45913 WT16     198      MECN     C2       CG1N1    0.360000       12.0110           0
     45914 WT16     198      MECN     N3       NG1T1   -0.460000       14.0070           0
     45915 WT16     200      MECN     C1       CG331   -0.170000       12.0110           0
     45916 WT16     200      MECN     H11      HGA3     0.090000        1.0080           0
     45917 WT16     200      MECN     H12      HGA3     0.090000        1.0080           0
     45918 WT16     200      MECN     H13      HGA3     0.090000        1.0080           0
     45919 WT16     200      MECN     C2       CG1N1    0.360000       12.0110           0
     45920 WT16     200      MECN     N3       NG1T1   -0.460000       14.0070           0
     45921 WT16     202      MECN     C1       CG331   -0.170000       12.0110           0
     45922 WT16     202      MECN     H11      HGA3     0.090000        1.0080           0
     45923 WT16     202      MECN     H12      HGA3     0.090000        1.0080           0
     45924 WT16     202      MECN     H13      HGA3     0.090000        1.0080           0
     45925 WT16     202      MECN     C2       CG1N1    0.360000       12.0110           0
     45926 WT16     202      MECN     N3       NG1T1   -0.460000       14.0070           0
     45927 WT16     204      MECN     C1       CG331   -0.170000       12.0110           0
     45928 WT16     204      MECN     H11      HGA3     0.090000        1.0080           0
     45929 WT16     204      MECN     H12      HGA3     0.090000        1.0080           0
     45930 WT16     204      MECN     H13      HGA3     0.090000        1.0080           0
     45931 WT16     204      MECN     C2       CG1N1    0.360000       12.0110           0
     45932 WT16     204      MECN     N3       NG1T1   -0.460000       14.0070           0
     45933 WT16     207      MECN     C1       CG331   -0.170000       12.0110           0
     45934 WT16     207      MECN     H11      HGA3     0.090000        1.0080           0
     45935 WT16     207      MECN     H12      HGA3     0.090000        1.0080           0
     45936 WT16     207      MECN     H13      HGA3     0.090000        1.0080           0
     45937 WT16     207      MECN     C2       CG1N1    0.360000       12.0110           0
     45938 WT16     207      MECN     N3       NG1T1   -0.460000       14.0070           0
     45939 WT16     208      MECN     C1       CG331   -0.170000       12.0110           0
     45940 WT16     208      MECN     H11      HGA3     0.090000        1.0080           0
     45941 WT16     208      MECN     H12      HGA3     0.090000        1.0080           0
     45942 WT16     208      MECN     H13      HGA3     0.090000        1.0080           0
     45943 WT16     208      MECN     C2       CG1N1    0.360000       12.0110           0
     45944 WT16     208      MECN     N3       NG1T1   -0.460000       14.0070           0
     45945 WT16     209      MECN     C1       CG331   -0.170000       12.0110           0
     45946 WT16     209      MECN     H11      HGA3     0.090000        1.0080           0
     45947 WT16     209      MECN     H12      HGA3     0.090000        1.0080           0
     45948 WT16     209      MECN     H13      HGA3     0.090000        1.0080           0
     45949 WT16     209      MECN     C2       CG1N1    0.360000       12.0110           0
     45950 WT16     209      MECN     N3       NG1T1   -0.460000       14.0070           0
     45951 WT16     210      MECN     C1       CG331   -0.170000       12.0110           0
     45952 WT16     210      MECN     H11      HGA3     0.090000        1.0080           0
     45953 WT16     210      MECN     H12      HGA3     0.090000        1.0080           0
     45954 WT16     210      MECN     H13      HGA3     0.090000        1.0080           0
     45955 WT16     210      MECN     C2       CG1N1    0.360000       12.0110           0
     45956 WT16     210      MECN     N3       NG1T1   -0.460000       14.0070           0
     45957 WT16     211      MECN     C1       CG331   -0.170000       12.0110           0
     45958 WT16     211      MECN     H11      HGA3     0.090000        1.0080           0
     45959 WT16     211      MECN     H12      HGA3     0.090000        1.0080           0
     45960 WT16     211      MECN     H13      HGA3     0.090000        1.0080           0
     45961 WT16     211      MECN     C2       CG1N1    0.360000       12.0110           0
     45962 WT16     211      MECN     N3       NG1T1   -0.460000       14.0070           0
     45963 WT16     213      MECN     C1       CG331   -0.170000       12.0110           0
     45964 WT16     213      MECN     H11      HGA3     0.090000        1.0080           0
     45965 WT16     213      MECN     H12      HGA3     0.090000        1.0080           0
     45966 WT16     213      MECN     H13      HGA3     0.090000        1.0080           0
     45967 WT16     213      MECN     C2       CG1N1    0.360000       12.0110           0
     45968 WT16     213      MECN     N3       NG1T1   -0.460000       14.0070           0
     45969 WT16     215      MECN     C1       CG331   -0.170000       12.0110           0
     45970 WT16     215      MECN     H11      HGA3     0.090000        1.0080           0
     45971 WT16     215      MECN     H12      HGA3     0.090000        1.0080           0
     45972 WT16     215      MECN     H13      HGA3     0.090000        1.0080           0
     45973 WT16     215      MECN     C2       CG1N1    0.360000       12.0110           0
     45974 WT16     215      MECN     N3       NG1T1   -0.460000       14.0070           0
     45975 WT16     219      MECN     C1       CG331   -0.170000       12.0110           0
     45976 WT16     219      MECN     H11      HGA3     0.090000        1.0080           0
     45977 WT16     219      MECN     H12      HGA3     0.090000        1.0080           0
     45978 WT16     219      MECN     H13      HGA3     0.090000        1.0080           0
     45979 WT16     219      MECN     C2       CG1N1    0.360000       12.0110           0
     45980 WT16     219      MECN     N3       NG1T1   -0.460000       14.0070           0
     45981 WT16     221      MECN     C1       CG331   -0.170000       12.0110           0
     45982 WT16     221      MECN     H11      HGA3     0.090000        1.0080           0
     45983 WT16     221      MECN     H12      HGA3     0.090000        1.0080           0
     45984 WT16     221      MECN     H13      HGA3     0.090000        1.0080           0
     45985 WT16     221      MECN     C2       CG1N1    0.360000       12.0110           0
     45986 WT16     221      MECN     N3       NG1T1   -0.460000       14.0070           0
     45987 WT16     225      MECN     C1       CG331   -0.170000       12.0110           0
     45988 WT16     225      MECN     H11      HGA3     0.090000        1.0080           0
     45989 WT16     225      MECN     H12      HGA3     0.090000        1.0080           0
     45990 WT16     225      MECN     H13      HGA3     0.090000        1.0080           0
     45991 WT16     225      MECN     C2       CG1N1    0.360000       12.0110           0
     45992 WT16     225      MECN     N3       NG1T1   -0.460000       14.0070           0
     45993 WT16     230      MECN     C1       CG331   -0.170000       12.0110           0
     45994 WT16     230      MECN     H11      HGA3     0.090000        1.0080           0
     45995 WT16     230      MECN     H12      HGA3     0.090000        1.0080           0
     45996 WT16     230      MECN     H13      HGA3     0.090000        1.0080           0
     45997 WT16     230      MECN     C2       CG1N1    0.360000       12.0110           0
     45998 WT16     230      MECN     N3       NG1T1   -0.460000       14.0070           0
     45999 WT16     233      MECN     C1       CG331   -0.170000       12.0110           0
     46000 WT16     233      MECN     H11      HGA3     0.090000        1.0080           0
     46001 WT16     233      MECN     H12      HGA3     0.090000        1.0080           0
     46002 WT16     233      MECN     H13      HGA3     0.090000        1.0080           0
     46003 WT16     233      MECN     C2       CG1N1    0.360000       12.0110           0
     46004 WT16     233      MECN     N3       NG1T1   -0.460000       14.0070           0
     46005 WT16     241      MECN     C1       CG331   -0.170000       12.0110           0
     46006 WT16     241      MECN     H11      HGA3     0.090000        1.0080           0
     46007 WT16     241      MECN     H12      HGA3     0.090000        1.0080           0
     46008 WT16     241      MECN     H13      HGA3     0.090000        1.0080           0
     46009 WT16     241      MECN     C2       CG1N1    0.360000       12.0110           0
     46010 WT16     241      MECN     N3       NG1T1   -0.460000       14.0070           0
     46011 WT16     245      MECN     C1       CG331   -0.170000       12.0110           0
     46012 WT16     245      MECN     H11      HGA3     0.090000        1.0080           0
     46013 WT16     245      MECN     H12      HGA3     0.090000        1.0080           0
     46014 WT16     245      MECN     H13      HGA3     0.090000        1.0080           0
     46015 WT16     245      MECN     C2       CG1N1    0.360000       12.0110           0
     46016 WT16     245      MECN     N3       NG1T1   -0.460000       14.0070           0
     46017 WT16     246      MECN     C1       CG331   -0.170000       12.0110           0
     46018 WT16     246      MECN     H11      HGA3     0.090000        1.0080           0
     46019 WT16     246      MECN     H12      HGA3     0.090000        1.0080           0
     46020 WT16     246      MECN     H13      HGA3     0.090000        1.0080           0
     46021 WT16     246      MECN     C2       CG1N1    0.360000       12.0110           0
     46022 WT16     246      MECN     N3       NG1T1   -0.460000       14.0070           0
     46023 WT16     247      MECN     C1       CG331   -0.170000       12.0110           0
     46024 WT16     247      MECN     H11      HGA3     0.090000        1.0080           0
     46025 WT16     247      MECN     H12      HGA3     0.090000        1.0080           0
     46026 WT16     247      MECN     H13      HGA3     0.090000        1.0080           0
     46027 WT16     247      MECN     C2       CG1N1    0.360000       12.0110           0
     46028 WT16     247      MECN     N3       NG1T1   -0.460000       14.0070           0
     46029 WT16     251      MECN     C1       CG331   -0.170000       12.0110           0
     46030 WT16     251      MECN     H11      HGA3     0.090000        1.0080           0
     46031 WT16     251      MECN     H12      HGA3     0.090000        1.0080           0
     46032 WT16     251      MECN     H13      HGA3     0.090000        1.0080           0
     46033 WT16     251      MECN     C2       CG1N1    0.360000       12.0110           0
     46034 WT16     251      MECN     N3       NG1T1   -0.460000       14.0070           0
     46035 WT16     253      MECN     C1       CG331   -0.170000       12.0110           0
     46036 WT16     253      MECN     H11      HGA3     0.090000        1.0080           0
     46037 WT16     253      MECN     H12      HGA3     0.090000        1.0080           0
     46038 WT16     253      MECN     H13      HGA3     0.090000        1.0080           0
     46039 WT16     253      MECN     C2       CG1N1    0.360000       12.0110           0
     46040 WT16     253      MECN     N3       NG1T1   -0.460000       14.0070           0
     46041 WT16     256      MECN     C1       CG331   -0.170000       12.0110           0
     46042 WT16     256      MECN     H11      HGA3     0.090000        1.0080           0
     46043 WT16     256      MECN     H12      HGA3     0.090000        1.0080           0
     46044 WT16     256      MECN     H13      HGA3     0.090000        1.0080           0
     46045 WT16     256      MECN     C2       CG1N1    0.360000       12.0110           0
     46046 WT16     256      MECN     N3       NG1T1   -0.460000       14.0070           0
     46047 WT16     257      MECN     C1       CG331   -0.170000       12.0110           0
     46048 WT16     257      MECN     H11      HGA3     0.090000        1.0080           0
     46049 WT16     257      MECN     H12      HGA3     0.090000        1.0080           0
     46050 WT16     257      MECN     H13      HGA3     0.090000        1.0080           0
     46051 WT16     257      MECN     C2       CG1N1    0.360000       12.0110           0
     46052 WT16     257      MECN     N3       NG1T1   -0.460000       14.0070           0
     46053 WT16     259      MECN     C1       CG331   -0.170000       12.0110           0
     46054 WT16     259      MECN     H11      HGA3     0.090000        1.0080           0
     46055 WT16     259      MECN     H12      HGA3     0.090000        1.0080           0
     46056 WT16     259      MECN     H13      HGA3     0.090000        1.0080           0
     46057 WT16     259      MECN     C2       CG1N1    0.360000       12.0110           0
     46058 WT16     259      MECN     N3       NG1T1   -0.460000       14.0070           0
     46059 WT16     260      MECN     C1       CG331   -0.170000       12.0110           0
     46060 WT16     260      MECN     H11      HGA3     0.090000        1.0080           0
     46061 WT16     260      MECN     H12      HGA3     0.090000        1.0080           0
     46062 WT16     260      MECN     H13      HGA3     0.090000        1.0080           0
     46063 WT16     260      MECN     C2       CG1N1    0.360000       12.0110           0
     46064 WT16     260      MECN     N3       NG1T1   -0.460000       14.0070           0
     46065 WT16     262      MECN     C1       CG331   -0.170000       12.0110           0
     46066 WT16     262      MECN     H11      HGA3     0.090000        1.0080           0
     46067 WT16     262      MECN     H12      HGA3     0.090000        1.0080           0
     46068 WT16     262      MECN     H13      HGA3     0.090000        1.0080           0
     46069 WT16     262      MECN     C2       CG1N1    0.360000       12.0110           0
     46070 WT16     262      MECN     N3       NG1T1   -0.460000       14.0070           0
     46071 WT16     265      MECN     C1       CG331   -0.170000       12.0110           0
     46072 WT16     265      MECN     H11      HGA3     0.090000        1.0080           0
     46073 WT16     265      MECN     H12      HGA3     0.090000        1.0080           0
     46074 WT16     265      MECN     H13      HGA3     0.090000        1.0080           0
     46075 WT16     265      MECN     C2       CG1N1    0.360000       12.0110           0
     46076 WT16     265      MECN     N3       NG1T1   -0.460000       14.0070           0
     46077 WT16     271      MECN     C1       CG331   -0.170000       12.0110           0
     46078 WT16     271      MECN     H11      HGA3     0.090000        1.0080           0
     46079 WT16     271      MECN     H12      HGA3     0.090000        1.0080           0
     46080 WT16     271      MECN     H13      HGA3     0.090000        1.0080           0
     46081 WT16     271      MECN     C2       CG1N1    0.360000       12.0110           0
     46082 WT16     271      MECN     N3       NG1T1   -0.460000       14.0070           0
     46083 WT16     272      MECN     C1       CG331   -0.170000       12.0110           0
     46084 WT16     272      MECN     H11      HGA3     0.090000        1.0080           0
     46085 WT16     272      MECN     H12      HGA3     0.090000        1.0080           0
     46086 WT16     272      MECN     H13      HGA3     0.090000        1.0080           0
     46087 WT16     272      MECN     C2       CG1N1    0.360000       12.0110           0
     46088 WT16     272      MECN     N3       NG1T1   -0.460000       14.0070           0
     46089 WT16     273      MECN     C1       CG331   -0.170000       12.0110           0
     46090 WT16     273      MECN     H11      HGA3     0.090000        1.0080           0
     46091 WT16     273      MECN     H12      HGA3     0.090000        1.0080           0
     46092 WT16     273      MECN     H13      HGA3     0.090000        1.0080           0
     46093 WT16     273      MECN     C2       CG1N1    0.360000       12.0110           0
     46094 WT16     273      MECN     N3       NG1T1   -0.460000       14.0070           0
     46095 WT16     275      MECN     C1       CG331   -0.170000       12.0110           0
     46096 WT16     275      MECN     H11      HGA3     0.090000        1.0080           0
     46097 WT16     275      MECN     H12      HGA3     0.090000        1.0080           0
     46098 WT16     275      MECN     H13      HGA3     0.090000        1.0080           0
     46099 WT16     275      MECN     C2       CG1N1    0.360000       12.0110           0
     46100 WT16     275      MECN     N3       NG1T1   -0.460000       14.0070           0
     46101 WT16     282      MECN     C1       CG331   -0.170000       12.0110           0
     46102 WT16     282      MECN     H11      HGA3     0.090000        1.0080           0
     46103 WT16     282      MECN     H12      HGA3     0.090000        1.0080           0
     46104 WT16     282      MECN     H13      HGA3     0.090000        1.0080           0
     46105 WT16     282      MECN     C2       CG1N1    0.360000       12.0110           0
     46106 WT16     282      MECN     N3       NG1T1   -0.460000       14.0070           0
     46107 WT16     285      MECN     C1       CG331   -0.170000       12.0110           0
     46108 WT16     285      MECN     H11      HGA3     0.090000        1.0080           0
     46109 WT16     285      MECN     H12      HGA3     0.090000        1.0080           0
     46110 WT16     285      MECN     H13      HGA3     0.090000        1.0080           0
     46111 WT16     285      MECN     C2       CG1N1    0.360000       12.0110           0
     46112 WT16     285      MECN     N3       NG1T1   -0.460000       14.0070           0
     46113 WT16     289      MECN     C1       CG331   -0.170000       12.0110           0
     46114 WT16     289      MECN     H11      HGA3     0.090000        1.0080           0
     46115 WT16     289      MECN     H12      HGA3     0.090000        1.0080           0
     46116 WT16     289      MECN     H13      HGA3     0.090000        1.0080           0
     46117 WT16     289      MECN     C2       CG1N1    0.360000       12.0110           0
     46118 WT16     289      MECN     N3       NG1T1   -0.460000       14.0070           0
     46119 WT16     290      MECN     C1       CG331   -0.170000       12.0110           0
     46120 WT16     290      MECN     H11      HGA3     0.090000        1.0080           0
     46121 WT16     290      MECN     H12      HGA3     0.090000        1.0080           0
     46122 WT16     290      MECN     H13      HGA3     0.090000        1.0080           0
     46123 WT16     290      MECN     C2       CG1N1    0.360000       12.0110           0
     46124 WT16     290      MECN     N3       NG1T1   -0.460000       14.0070           0
     46125 WT16     295      MECN     C1       CG331   -0.170000       12.0110           0
     46126 WT16     295      MECN     H11      HGA3     0.090000        1.0080           0
     46127 WT16     295      MECN     H12      HGA3     0.090000        1.0080           0
     46128 WT16     295      MECN     H13      HGA3     0.090000        1.0080           0
     46129 WT16     295      MECN     C2       CG1N1    0.360000       12.0110           0
     46130 WT16     295      MECN     N3       NG1T1   -0.460000       14.0070           0
     46131 WT16     297      MECN     C1       CG331   -0.170000       12.0110           0
     46132 WT16     297      MECN     H11      HGA3     0.090000        1.0080           0
     46133 WT16     297      MECN     H12      HGA3     0.090000        1.0080           0
     46134 WT16     297      MECN     H13      HGA3     0.090000        1.0080           0
     46135 WT16     297      MECN     C2       CG1N1    0.360000       12.0110           0
     46136 WT16     297      MECN     N3       NG1T1   -0.460000       14.0070           0
     46137 WT16     299      MECN     C1       CG331   -0.170000       12.0110           0
     46138 WT16     299      MECN     H11      HGA3     0.090000        1.0080           0
     46139 WT16     299      MECN     H12      HGA3     0.090000        1.0080           0
     46140 WT16     299      MECN     H13      HGA3     0.090000        1.0080           0
     46141 WT16     299      MECN     C2       CG1N1    0.360000       12.0110           0
     46142 WT16     299      MECN     N3       NG1T1   -0.460000       14.0070           0
     46143 WT16     300      MECN     C1       CG331   -0.170000       12.0110           0
     46144 WT16     300      MECN     H11      HGA3     0.090000        1.0080           0
     46145 WT16     300      MECN     H12      HGA3     0.090000        1.0080           0
     46146 WT16     300      MECN     H13      HGA3     0.090000        1.0080           0
     46147 WT16     300      MECN     C2       CG1N1    0.360000       12.0110           0
     46148 WT16     300      MECN     N3       NG1T1   -0.460000       14.0070           0
     46149 WT16     301      MECN     C1       CG331   -0.170000       12.0110           0
     46150 WT16     301      MECN     H11      HGA3     0.090000        1.0080           0
     46151 WT16     301      MECN     H12      HGA3     0.090000        1.0080           0
     46152 WT16     301      MECN     H13      HGA3     0.090000        1.0080           0
     46153 WT16     301      MECN     C2       CG1N1    0.360000       12.0110           0
     46154 WT16     301      MECN     N3       NG1T1   -0.460000       14.0070           0
     46155 WT16     302      MECN     C1       CG331   -0.170000       12.0110           0
     46156 WT16     302      MECN     H11      HGA3     0.090000        1.0080           0
     46157 WT16     302      MECN     H12      HGA3     0.090000        1.0080           0
     46158 WT16     302      MECN     H13      HGA3     0.090000        1.0080           0
     46159 WT16     302      MECN     C2       CG1N1    0.360000       12.0110           0
     46160 WT16     302      MECN     N3       NG1T1   -0.460000       14.0070           0
     46161 WT16     303      MECN     C1       CG331   -0.170000       12.0110           0
     46162 WT16     303      MECN     H11      HGA3     0.090000        1.0080           0
     46163 WT16     303      MECN     H12      HGA3     0.090000        1.0080           0
     46164 WT16     303      MECN     H13      HGA3     0.090000        1.0080           0
     46165 WT16     303      MECN     C2       CG1N1    0.360000       12.0110           0
     46166 WT16     303      MECN     N3       NG1T1   -0.460000       14.0070           0
     46167 WT16     304      MECN     C1       CG331   -0.170000       12.0110           0
     46168 WT16     304      MECN     H11      HGA3     0.090000        1.0080           0
     46169 WT16     304      MECN     H12      HGA3     0.090000        1.0080           0
     46170 WT16     304      MECN     H13      HGA3     0.090000        1.0080           0
     46171 WT16     304      MECN     C2       CG1N1    0.360000       12.0110           0
     46172 WT16     304      MECN     N3       NG1T1   -0.460000       14.0070           0
     46173 WT16     308      MECN     C1       CG331   -0.170000       12.0110           0
     46174 WT16     308      MECN     H11      HGA3     0.090000        1.0080           0
     46175 WT16     308      MECN     H12      HGA3     0.090000        1.0080           0
     46176 WT16     308      MECN     H13      HGA3     0.090000        1.0080           0
     46177 WT16     308      MECN     C2       CG1N1    0.360000       12.0110           0
     46178 WT16     308      MECN     N3       NG1T1   -0.460000       14.0070           0
     46179 WT16     311      MECN     C1       CG331   -0.170000       12.0110           0
     46180 WT16     311      MECN     H11      HGA3     0.090000        1.0080           0
     46181 WT16     311      MECN     H12      HGA3     0.090000        1.0080           0
     46182 WT16     311      MECN     H13      HGA3     0.090000        1.0080           0
     46183 WT16     311      MECN     C2       CG1N1    0.360000       12.0110           0
     46184 WT16     311      MECN     N3       NG1T1   -0.460000       14.0070           0
     46185 WT16     312      MECN     C1       CG331   -0.170000       12.0110           0
     46186 WT16     312      MECN     H11      HGA3     0.090000        1.0080           0
     46187 WT16     312      MECN     H12      HGA3     0.090000        1.0080           0
     46188 WT16     312      MECN     H13      HGA3     0.090000        1.0080           0
     46189 WT16     312      MECN     C2       CG1N1    0.360000       12.0110           0
     46190 WT16     312      MECN     N3       NG1T1   -0.460000       14.0070           0
     46191 WT16     313      MECN     C1       CG331   -0.170000       12.0110           0
     46192 WT16     313      MECN     H11      HGA3     0.090000        1.0080           0
     46193 WT16     313      MECN     H12      HGA3     0.090000        1.0080           0
     46194 WT16     313      MECN     H13      HGA3     0.090000        1.0080           0
     46195 WT16     313      MECN     C2       CG1N1    0.360000       12.0110           0
     46196 WT16     313      MECN     N3       NG1T1   -0.460000       14.0070           0
     46197 WT16     315      MECN     C1       CG331   -0.170000       12.0110           0
     46198 WT16     315      MECN     H11      HGA3     0.090000        1.0080           0
     46199 WT16     315      MECN     H12      HGA3     0.090000        1.0080           0
     46200 WT16     315      MECN     H13      HGA3     0.090000        1.0080           0
     46201 WT16     315      MECN     C2       CG1N1    0.360000       12.0110           0
     46202 WT16     315      MECN     N3       NG1T1   -0.460000       14.0070           0
     46203 WT16     323      MECN     C1       CG331   -0.170000       12.0110           0
     46204 WT16     323      MECN     H11      HGA3     0.090000        1.0080           0
     46205 WT16     323      MECN     H12      HGA3     0.090000        1.0080           0
     46206 WT16     323      MECN     H13      HGA3     0.090000        1.0080           0
     46207 WT16     323      MECN     C2       CG1N1    0.360000       12.0110           0
     46208 WT16     323      MECN     N3       NG1T1   -0.460000       14.0070           0
     46209 WT16     325      MECN     C1       CG331   -0.170000       12.0110           0
     46210 WT16     325      MECN     H11      HGA3     0.090000        1.0080           0
     46211 WT16     325      MECN     H12      HGA3     0.090000        1.0080           0
     46212 WT16     325      MECN     H13      HGA3     0.090000        1.0080           0
     46213 WT16     325      MECN     C2       CG1N1    0.360000       12.0110           0
     46214 WT16     325      MECN     N3       NG1T1   -0.460000       14.0070           0
     46215 WT16     326      MECN     C1       CG331   -0.170000       12.0110           0
     46216 WT16     326      MECN     H11      HGA3     0.090000        1.0080           0
     46217 WT16     326      MECN     H12      HGA3     0.090000        1.0080           0
     46218 WT16     326      MECN     H13      HGA3     0.090000        1.0080           0
     46219 WT16     326      MECN     C2       CG1N1    0.360000       12.0110           0
     46220 WT16     326      MECN     N3       NG1T1   -0.460000       14.0070           0
     46221 WT16     332      MECN     C1       CG331   -0.170000       12.0110           0
     46222 WT16     332      MECN     H11      HGA3     0.090000        1.0080           0
     46223 WT16     332      MECN     H12      HGA3     0.090000        1.0080           0
     46224 WT16     332      MECN     H13      HGA3     0.090000        1.0080           0
     46225 WT16     332      MECN     C2       CG1N1    0.360000       12.0110           0
     46226 WT16     332      MECN     N3       NG1T1   -0.460000       14.0070           0
     46227 WT16     335      MECN     C1       CG331   -0.170000       12.0110           0
     46228 WT16     335      MECN     H11      HGA3     0.090000        1.0080           0
     46229 WT16     335      MECN     H12      HGA3     0.090000        1.0080           0
     46230 WT16     335      MECN     H13      HGA3     0.090000        1.0080           0
     46231 WT16     335      MECN     C2       CG1N1    0.360000       12.0110           0
     46232 WT16     335      MECN     N3       NG1T1   -0.460000       14.0070           0
     46233 WT16     336      MECN     C1       CG331   -0.170000       12.0110           0
     46234 WT16     336      MECN     H11      HGA3     0.090000        1.0080           0
     46235 WT16     336      MECN     H12      HGA3     0.090000        1.0080           0
     46236 WT16     336      MECN     H13      HGA3     0.090000        1.0080           0
     46237 WT16     336      MECN     C2       CG1N1    0.360000       12.0110           0
     46238 WT16     336      MECN     N3       NG1T1   -0.460000       14.0070           0
     46239 WT16     339      MECN     C1       CG331   -0.170000       12.0110           0
     46240 WT16     339      MECN     H11      HGA3     0.090000        1.0080           0
     46241 WT16     339      MECN     H12      HGA3     0.090000        1.0080           0
     46242 WT16     339      MECN     H13      HGA3     0.090000        1.0080           0
     46243 WT16     339      MECN     C2       CG1N1    0.360000       12.0110           0
     46244 WT16     339      MECN     N3       NG1T1   -0.460000       14.0070           0
     46245 WT16     343      MECN     C1       CG331   -0.170000       12.0110           0
     46246 WT16     343      MECN     H11      HGA3     0.090000        1.0080           0
     46247 WT16     343      MECN     H12      HGA3     0.090000        1.0080           0
     46248 WT16     343      MECN     H13      HGA3     0.090000        1.0080           0
     46249 WT16     343      MECN     C2       CG1N1    0.360000       12.0110           0
     46250 WT16     343      MECN     N3       NG1T1   -0.460000       14.0070           0
     46251 WT16     344      MECN     C1       CG331   -0.170000       12.0110           0
     46252 WT16     344      MECN     H11      HGA3     0.090000        1.0080           0
     46253 WT16     344      MECN     H12      HGA3     0.090000        1.0080           0
     46254 WT16     344      MECN     H13      HGA3     0.090000        1.0080           0
     46255 WT16     344      MECN     C2       CG1N1    0.360000       12.0110           0
     46256 WT16     344      MECN     N3       NG1T1   -0.460000       14.0070           0
     46257 WT16     346      MECN     C1       CG331   -0.170000       12.0110           0
     46258 WT16     346      MECN     H11      HGA3     0.090000        1.0080           0
     46259 WT16     346      MECN     H12      HGA3     0.090000        1.0080           0
     46260 WT16     346      MECN     H13      HGA3     0.090000        1.0080           0
     46261 WT16     346      MECN     C2       CG1N1    0.360000       12.0110           0
     46262 WT16     346      MECN     N3       NG1T1   -0.460000       14.0070           0
     46263 WT16     348      MECN     C1       CG331   -0.170000       12.0110           0
     46264 WT16     348      MECN     H11      HGA3     0.090000        1.0080           0
     46265 WT16     348      MECN     H12      HGA3     0.090000        1.0080           0
     46266 WT16     348      MECN     H13      HGA3     0.090000        1.0080           0
     46267 WT16     348      MECN     C2       CG1N1    0.360000       12.0110           0
     46268 WT16     348      MECN     N3       NG1T1   -0.460000       14.0070           0
     46269 WT16     356      MECN     C1       CG331   -0.170000       12.0110           0
     46270 WT16     356      MECN     H11      HGA3     0.090000        1.0080           0
     46271 WT16     356      MECN     H12      HGA3     0.090000        1.0080           0
     46272 WT16     356      MECN     H13      HGA3     0.090000        1.0080           0
     46273 WT16     356      MECN     C2       CG1N1    0.360000       12.0110           0
     46274 WT16     356      MECN     N3       NG1T1   -0.460000       14.0070           0
     46275 WT16     360      MECN     C1       CG331   -0.170000       12.0110           0
     46276 WT16     360      MECN     H11      HGA3     0.090000        1.0080           0
     46277 WT16     360      MECN     H12      HGA3     0.090000        1.0080           0
     46278 WT16     360      MECN     H13      HGA3     0.090000        1.0080           0
     46279 WT16     360      MECN     C2       CG1N1    0.360000       12.0110           0
     46280 WT16     360      MECN     N3       NG1T1   -0.460000       14.0070           0
     46281 WT16     366      MECN     C1       CG331   -0.170000       12.0110           0
     46282 WT16     366      MECN     H11      HGA3     0.090000        1.0080           0
     46283 WT16     366      MECN     H12      HGA3     0.090000        1.0080           0
     46284 WT16     366      MECN     H13      HGA3     0.090000        1.0080           0
     46285 WT16     366      MECN     C2       CG1N1    0.360000       12.0110           0
     46286 WT16     366      MECN     N3       NG1T1   -0.460000       14.0070           0
     46287 WT16     371      MECN     C1       CG331   -0.170000       12.0110           0
     46288 WT16     371      MECN     H11      HGA3     0.090000        1.0080           0
     46289 WT16     371      MECN     H12      HGA3     0.090000        1.0080           0
     46290 WT16     371      MECN     H13      HGA3     0.090000        1.0080           0
     46291 WT16     371      MECN     C2       CG1N1    0.360000       12.0110           0
     46292 WT16     371      MECN     N3       NG1T1   -0.460000       14.0070           0
     46293 WT16     374      MECN     C1       CG331   -0.170000       12.0110           0
     46294 WT16     374      MECN     H11      HGA3     0.090000        1.0080           0
     46295 WT16     374      MECN     H12      HGA3     0.090000        1.0080           0
     46296 WT16     374      MECN     H13      HGA3     0.090000        1.0080           0
     46297 WT16     374      MECN     C2       CG1N1    0.360000       12.0110           0
     46298 WT16     374      MECN     N3       NG1T1   -0.460000       14.0070           0
     46299 WT16     376      MECN     C1       CG331   -0.170000       12.0110           0
     46300 WT16     376      MECN     H11      HGA3     0.090000        1.0080           0
     46301 WT16     376      MECN     H12      HGA3     0.090000        1.0080           0
     46302 WT16     376      MECN     H13      HGA3     0.090000        1.0080           0
     46303 WT16     376      MECN     C2       CG1N1    0.360000       12.0110           0
     46304 WT16     376      MECN     N3       NG1T1   -0.460000       14.0070           0
     46305 WT16     378      MECN     C1       CG331   -0.170000       12.0110           0
     46306 WT16     378      MECN     H11      HGA3     0.090000        1.0080           0
     46307 WT16     378      MECN     H12      HGA3     0.090000        1.0080           0
     46308 WT16     378      MECN     H13      HGA3     0.090000        1.0080           0
     46309 WT16     378      MECN     C2       CG1N1    0.360000       12.0110           0
     46310 WT16     378      MECN     N3       NG1T1   -0.460000       14.0070           0
     46311 WT16     381      MECN     C1       CG331   -0.170000       12.0110           0
     46312 WT16     381      MECN     H11      HGA3     0.090000        1.0080           0
     46313 WT16     381      MECN     H12      HGA3     0.090000        1.0080           0
     46314 WT16     381      MECN     H13      HGA3     0.090000        1.0080           0
     46315 WT16     381      MECN     C2       CG1N1    0.360000       12.0110           0
     46316 WT16     381      MECN     N3       NG1T1   -0.460000       14.0070           0
     46317 WT16     383      MECN     C1       CG331   -0.170000       12.0110           0
     46318 WT16     383      MECN     H11      HGA3     0.090000        1.0080           0
     46319 WT16     383      MECN     H12      HGA3     0.090000        1.0080           0
     46320 WT16     383      MECN     H13      HGA3     0.090000        1.0080           0
     46321 WT16     383      MECN     C2       CG1N1    0.360000       12.0110           0
     46322 WT16     383      MECN     N3       NG1T1   -0.460000       14.0070           0
     46323 WT16     384      MECN     C1       CG331   -0.170000       12.0110           0
     46324 WT16     384      MECN     H11      HGA3     0.090000        1.0080           0
     46325 WT16     384      MECN     H12      HGA3     0.090000        1.0080           0
     46326 WT16     384      MECN     H13      HGA3     0.090000        1.0080           0
     46327 WT16     384      MECN     C2       CG1N1    0.360000       12.0110           0
     46328 WT16     384      MECN     N3       NG1T1   -0.460000       14.0070           0
     46329 WT16     386      MECN     C1       CG331   -0.170000       12.0110           0
     46330 WT16     386      MECN     H11      HGA3     0.090000        1.0080           0
     46331 WT16     386      MECN     H12      HGA3     0.090000        1.0080           0
     46332 WT16     386      MECN     H13      HGA3     0.090000        1.0080           0
     46333 WT16     386      MECN     C2       CG1N1    0.360000       12.0110           0
     46334 WT16     386      MECN     N3       NG1T1   -0.460000       14.0070           0
     46335 WT16     391      MECN     C1       CG331   -0.170000       12.0110           0
     46336 WT16     391      MECN     H11      HGA3     0.090000        1.0080           0
     46337 WT16     391      MECN     H12      HGA3     0.090000        1.0080           0
     46338 WT16     391      MECN     H13      HGA3     0.090000        1.0080           0
     46339 WT16     391      MECN     C2       CG1N1    0.360000       12.0110           0
     46340 WT16     391      MECN     N3       NG1T1   -0.460000       14.0070           0
     46341 WT16     392      MECN     C1       CG331   -0.170000       12.0110           0
     46342 WT16     392      MECN     H11      HGA3     0.090000        1.0080           0
     46343 WT16     392      MECN     H12      HGA3     0.090000        1.0080           0
     46344 WT16     392      MECN     H13      HGA3     0.090000        1.0080           0
     46345 WT16     392      MECN     C2       CG1N1    0.360000       12.0110           0
     46346 WT16     392      MECN     N3       NG1T1   -0.460000       14.0070           0
     46347 WT16     395      MECN     C1       CG331   -0.170000       12.0110           0
     46348 WT16     395      MECN     H11      HGA3     0.090000        1.0080           0
     46349 WT16     395      MECN     H12      HGA3     0.090000        1.0080           0
     46350 WT16     395      MECN     H13      HGA3     0.090000        1.0080           0
     46351 WT16     395      MECN     C2       CG1N1    0.360000       12.0110           0
     46352 WT16     395      MECN     N3       NG1T1   -0.460000       14.0070           0
     46353 WT16     400      MECN     C1       CG331   -0.170000       12.0110           0
     46354 WT16     400      MECN     H11      HGA3     0.090000        1.0080           0
     46355 WT16     400      MECN     H12      HGA3     0.090000        1.0080           0
     46356 WT16     400      MECN     H13      HGA3     0.090000        1.0080           0
     46357 WT16     400      MECN     C2       CG1N1    0.360000       12.0110           0
     46358 WT16     400      MECN     N3       NG1T1   -0.460000       14.0070           0
     46359 WT16     402      MECN     C1       CG331   -0.170000       12.0110           0
     46360 WT16     402      MECN     H11      HGA3     0.090000        1.0080           0
     46361 WT16     402      MECN     H12      HGA3     0.090000        1.0080           0
     46362 WT16     402      MECN     H13      HGA3     0.090000        1.0080           0
     46363 WT16     402      MECN     C2       CG1N1    0.360000       12.0110           0
     46364 WT16     402      MECN     N3       NG1T1   -0.460000       14.0070           0
     46365 WT16     404      MECN     C1       CG331   -0.170000       12.0110           0
     46366 WT16     404      MECN     H11      HGA3     0.090000        1.0080           0
     46367 WT16     404      MECN     H12      HGA3     0.090000        1.0080           0
     46368 WT16     404      MECN     H13      HGA3     0.090000        1.0080           0
     46369 WT16     404      MECN     C2       CG1N1    0.360000       12.0110           0
     46370 WT16     404      MECN     N3       NG1T1   -0.460000       14.0070           0
     46371 WT16     407      MECN     C1       CG331   -0.170000       12.0110           0
     46372 WT16     407      MECN     H11      HGA3     0.090000        1.0080           0
     46373 WT16     407      MECN     H12      HGA3     0.090000        1.0080           0
     46374 WT16     407      MECN     H13      HGA3     0.090000        1.0080           0
     46375 WT16     407      MECN     C2       CG1N1    0.360000       12.0110           0
     46376 WT16     407      MECN     N3       NG1T1   -0.460000       14.0070           0
     46377 WT16     412      MECN     C1       CG331   -0.170000       12.0110           0
     46378 WT16     412      MECN     H11      HGA3     0.090000        1.0080           0
     46379 WT16     412      MECN     H12      HGA3     0.090000        1.0080           0
     46380 WT16     412      MECN     H13      HGA3     0.090000        1.0080           0
     46381 WT16     412      MECN     C2       CG1N1    0.360000       12.0110           0
     46382 WT16     412      MECN     N3       NG1T1   -0.460000       14.0070           0
     46383 WT16     414      MECN     C1       CG331   -0.170000       12.0110           0
     46384 WT16     414      MECN     H11      HGA3     0.090000        1.0080           0
     46385 WT16     414      MECN     H12      HGA3     0.090000        1.0080           0
     46386 WT16     414      MECN     H13      HGA3     0.090000        1.0080           0
     46387 WT16     414      MECN     C2       CG1N1    0.360000       12.0110           0
     46388 WT16     414      MECN     N3       NG1T1   -0.460000       14.0070           0
     46389 WT16     416      MECN     C1       CG331   -0.170000       12.0110           0
     46390 WT16     416      MECN     H11      HGA3     0.090000        1.0080           0
     46391 WT16     416      MECN     H12      HGA3     0.090000        1.0080           0
     46392 WT16     416      MECN     H13      HGA3     0.090000        1.0080           0
     46393 WT16     416      MECN     C2       CG1N1    0.360000       12.0110           0
     46394 WT16     416      MECN     N3       NG1T1   -0.460000       14.0070           0
     46395 WT16     421      MECN     C1       CG331   -0.170000       12.0110           0
     46396 WT16     421      MECN     H11      HGA3     0.090000        1.0080           0
     46397 WT16     421      MECN     H12      HGA3     0.090000        1.0080           0
     46398 WT16     421      MECN     H13      HGA3     0.090000        1.0080           0
     46399 WT16     421      MECN     C2       CG1N1    0.360000       12.0110           0
     46400 WT16     421      MECN     N3       NG1T1   -0.460000       14.0070           0
     46401 WT16     423      MECN     C1       CG331   -0.170000       12.0110           0
     46402 WT16     423      MECN     H11      HGA3     0.090000        1.0080           0
     46403 WT16     423      MECN     H12      HGA3     0.090000        1.0080           0
     46404 WT16     423      MECN     H13      HGA3     0.090000        1.0080           0
     46405 WT16     423      MECN     C2       CG1N1    0.360000       12.0110           0
     46406 WT16     423      MECN     N3       NG1T1   -0.460000       14.0070           0
     46407 WT16     430      MECN     C1       CG331   -0.170000       12.0110           0
     46408 WT16     430      MECN     H11      HGA3     0.090000        1.0080           0
     46409 WT16     430      MECN     H12      HGA3     0.090000        1.0080           0
     46410 WT16     430      MECN     H13      HGA3     0.090000        1.0080           0
     46411 WT16     430      MECN     C2       CG1N1    0.360000       12.0110           0
     46412 WT16     430      MECN     N3       NG1T1   -0.460000       14.0070           0
     46413 WT16     432      MECN     C1       CG331   -0.170000       12.0110           0
     46414 WT16     432      MECN     H11      HGA3     0.090000        1.0080           0
     46415 WT16     432      MECN     H12      HGA3     0.090000        1.0080           0
     46416 WT16     432      MECN     H13      HGA3     0.090000        1.0080           0
     46417 WT16     432      MECN     C2       CG1N1    0.360000       12.0110           0
     46418 WT16     432      MECN     N3       NG1T1   -0.460000       14.0070           0
     46419 WT16     433      MECN     C1       CG331   -0.170000       12.0110           0
     46420 WT16     433      MECN     H11      HGA3     0.090000        1.0080           0
     46421 WT16     433      MECN     H12      HGA3     0.090000        1.0080           0
     46422 WT16     433      MECN     H13      HGA3     0.090000        1.0080           0
     46423 WT16     433      MECN     C2       CG1N1    0.360000       12.0110           0
     46424 WT16     433      MECN     N3       NG1T1   -0.460000       14.0070           0
     46425 WT16     437      MECN     C1       CG331   -0.170000       12.0110           0
     46426 WT16     437      MECN     H11      HGA3     0.090000        1.0080           0
     46427 WT16     437      MECN     H12      HGA3     0.090000        1.0080           0
     46428 WT16     437      MECN     H13      HGA3     0.090000        1.0080           0
     46429 WT16     437      MECN     C2       CG1N1    0.360000       12.0110           0
     46430 WT16     437      MECN     N3       NG1T1   -0.460000       14.0070           0
     46431 WT16     438      MECN     C1       CG331   -0.170000       12.0110           0
     46432 WT16     438      MECN     H11      HGA3     0.090000        1.0080           0
     46433 WT16     438      MECN     H12      HGA3     0.090000        1.0080           0
     46434 WT16     438      MECN     H13      HGA3     0.090000        1.0080           0
     46435 WT16     438      MECN     C2       CG1N1    0.360000       12.0110           0
     46436 WT16     438      MECN     N3       NG1T1   -0.460000       14.0070           0
     46437 WT16     439      MECN     C1       CG331   -0.170000       12.0110           0
     46438 WT16     439      MECN     H11      HGA3     0.090000        1.0080           0
     46439 WT16     439      MECN     H12      HGA3     0.090000        1.0080           0
     46440 WT16     439      MECN     H13      HGA3     0.090000        1.0080           0
     46441 WT16     439      MECN     C2       CG1N1    0.360000       12.0110           0
     46442 WT16     439      MECN     N3       NG1T1   -0.460000       14.0070           0
     46443 WT16     442      MECN     C1       CG331   -0.170000       12.0110           0
     46444 WT16     442      MECN     H11      HGA3     0.090000        1.0080           0
     46445 WT16     442      MECN     H12      HGA3     0.090000        1.0080           0
     46446 WT16     442      MECN     H13      HGA3     0.090000        1.0080           0
     46447 WT16     442      MECN     C2       CG1N1    0.360000       12.0110           0
     46448 WT16     442      MECN     N3       NG1T1   -0.460000       14.0070           0
     46449 WT16     443      MECN     C1       CG331   -0.170000       12.0110           0
     46450 WT16     443      MECN     H11      HGA3     0.090000        1.0080           0
     46451 WT16     443      MECN     H12      HGA3     0.090000        1.0080           0
     46452 WT16     443      MECN     H13      HGA3     0.090000        1.0080           0
     46453 WT16     443      MECN     C2       CG1N1    0.360000       12.0110           0
     46454 WT16     443      MECN     N3       NG1T1   -0.460000       14.0070           0
     46455 WT16     444      MECN     C1       CG331   -0.170000       12.0110           0
     46456 WT16     444      MECN     H11      HGA3     0.090000        1.0080           0
     46457 WT16     444      MECN     H12      HGA3     0.090000        1.0080           0
     46458 WT16     444      MECN     H13      HGA3     0.090000        1.0080           0
     46459 WT16     444      MECN     C2       CG1N1    0.360000       12.0110           0
     46460 WT16     444      MECN     N3       NG1T1   -0.460000       14.0070           0
     46461 WT16     446      MECN     C1       CG331   -0.170000       12.0110           0
     46462 WT16     446      MECN     H11      HGA3     0.090000        1.0080           0
     46463 WT16     446      MECN     H12      HGA3     0.090000        1.0080           0
     46464 WT16     446      MECN     H13      HGA3     0.090000        1.0080           0
     46465 WT16     446      MECN     C2       CG1N1    0.360000       12.0110           0
     46466 WT16     446      MECN     N3       NG1T1   -0.460000       14.0070           0
     46467 WT16     449      MECN     C1       CG331   -0.170000       12.0110           0
     46468 WT16     449      MECN     H11      HGA3     0.090000        1.0080           0
     46469 WT16     449      MECN     H12      HGA3     0.090000        1.0080           0
     46470 WT16     449      MECN     H13      HGA3     0.090000        1.0080           0
     46471 WT16     449      MECN     C2       CG1N1    0.360000       12.0110           0
     46472 WT16     449      MECN     N3       NG1T1   -0.460000       14.0070           0
     46473 WT16     451      MECN     C1       CG331   -0.170000       12.0110           0
     46474 WT16     451      MECN     H11      HGA3     0.090000        1.0080           0
     46475 WT16     451      MECN     H12      HGA3     0.090000        1.0080           0
     46476 WT16     451      MECN     H13      HGA3     0.090000        1.0080           0
     46477 WT16     451      MECN     C2       CG1N1    0.360000       12.0110           0
     46478 WT16     451      MECN     N3       NG1T1   -0.460000       14.0070           0
     46479 WT16     452      MECN     C1       CG331   -0.170000       12.0110           0
     46480 WT16     452      MECN     H11      HGA3     0.090000        1.0080           0
     46481 WT16     452      MECN     H12      HGA3     0.090000        1.0080           0
     46482 WT16     452      MECN     H13      HGA3     0.090000        1.0080           0
     46483 WT16     452      MECN     C2       CG1N1    0.360000       12.0110           0
     46484 WT16     452      MECN     N3       NG1T1   -0.460000       14.0070           0
     46485 WT16     453      MECN     C1       CG331   -0.170000       12.0110           0
     46486 WT16     453      MECN     H11      HGA3     0.090000        1.0080           0
     46487 WT16     453      MECN     H12      HGA3     0.090000        1.0080           0
     46488 WT16     453      MECN     H13      HGA3     0.090000        1.0080           0
     46489 WT16     453      MECN     C2       CG1N1    0.360000       12.0110           0
     46490 WT16     453      MECN     N3       NG1T1   -0.460000       14.0070           0
     46491 WT16     456      MECN     C1       CG331   -0.170000       12.0110           0
     46492 WT16     456      MECN     H11      HGA3     0.090000        1.0080           0
     46493 WT16     456      MECN     H12      HGA3     0.090000        1.0080           0
     46494 WT16     456      MECN     H13      HGA3     0.090000        1.0080           0
     46495 WT16     456      MECN     C2       CG1N1    0.360000       12.0110           0
     46496 WT16     456      MECN     N3       NG1T1   -0.460000       14.0070           0
     46497 WT16     464      MECN     C1       CG331   -0.170000       12.0110           0
     46498 WT16     464      MECN     H11      HGA3     0.090000        1.0080           0
     46499 WT16     464      MECN     H12      HGA3     0.090000        1.0080           0
     46500 WT16     464      MECN     H13      HGA3     0.090000        1.0080           0
     46501 WT16     464      MECN     C2       CG1N1    0.360000       12.0110           0
     46502 WT16     464      MECN     N3       NG1T1   -0.460000       14.0070           0
     46503 WT16     465      MECN     C1       CG331   -0.170000       12.0110           0
     46504 WT16     465      MECN     H11      HGA3     0.090000        1.0080           0
     46505 WT16     465      MECN     H12      HGA3     0.090000        1.0080           0
     46506 WT16     465      MECN     H13      HGA3     0.090000        1.0080           0
     46507 WT16     465      MECN     C2       CG1N1    0.360000       12.0110           0
     46508 WT16     465      MECN     N3       NG1T1   -0.460000       14.0070           0
     46509 WT16     469      MECN     C1       CG331   -0.170000       12.0110           0
     46510 WT16     469      MECN     H11      HGA3     0.090000        1.0080           0
     46511 WT16     469      MECN     H12      HGA3     0.090000        1.0080           0
     46512 WT16     469      MECN     H13      HGA3     0.090000        1.0080           0
     46513 WT16     469      MECN     C2       CG1N1    0.360000       12.0110           0
     46514 WT16     469      MECN     N3       NG1T1   -0.460000       14.0070           0
     46515 WT16     474      MECN     C1       CG331   -0.170000       12.0110           0
     46516 WT16     474      MECN     H11      HGA3     0.090000        1.0080           0
     46517 WT16     474      MECN     H12      HGA3     0.090000        1.0080           0
     46518 WT16     474      MECN     H13      HGA3     0.090000        1.0080           0
     46519 WT16     474      MECN     C2       CG1N1    0.360000       12.0110           0
     46520 WT16     474      MECN     N3       NG1T1   -0.460000       14.0070           0
     46521 WT16     478      MECN     C1       CG331   -0.170000       12.0110           0
     46522 WT16     478      MECN     H11      HGA3     0.090000        1.0080           0
     46523 WT16     478      MECN     H12      HGA3     0.090000        1.0080           0
     46524 WT16     478      MECN     H13      HGA3     0.090000        1.0080           0
     46525 WT16     478      MECN     C2       CG1N1    0.360000       12.0110           0
     46526 WT16     478      MECN     N3       NG1T1   -0.460000       14.0070           0
     46527 WT16     479      MECN     C1       CG331   -0.170000       12.0110           0
     46528 WT16     479      MECN     H11      HGA3     0.090000        1.0080           0
     46529 WT16     479      MECN     H12      HGA3     0.090000        1.0080           0
     46530 WT16     479      MECN     H13      HGA3     0.090000        1.0080           0
     46531 WT16     479      MECN     C2       CG1N1    0.360000       12.0110           0
     46532 WT16     479      MECN     N3       NG1T1   -0.460000       14.0070           0
     46533 WT16     480      MECN     C1       CG331   -0.170000       12.0110           0
     46534 WT16     480      MECN     H11      HGA3     0.090000        1.0080           0
     46535 WT16     480      MECN     H12      HGA3     0.090000        1.0080           0
     46536 WT16     480      MECN     H13      HGA3     0.090000        1.0080           0
     46537 WT16     480      MECN     C2       CG1N1    0.360000       12.0110           0
     46538 WT16     480      MECN     N3       NG1T1   -0.460000       14.0070           0
     46539 WT16     481      MECN     C1       CG331   -0.170000       12.0110           0
     46540 WT16     481      MECN     H11      HGA3     0.090000        1.0080           0
     46541 WT16     481      MECN     H12      HGA3     0.090000        1.0080           0
     46542 WT16     481      MECN     H13      HGA3     0.090000        1.0080           0
     46543 WT16     481      MECN     C2       CG1N1    0.360000       12.0110           0
     46544 WT16     481      MECN     N3       NG1T1   -0.460000       14.0070           0
     46545 WT16     484      MECN     C1       CG331   -0.170000       12.0110           0
     46546 WT16     484      MECN     H11      HGA3     0.090000        1.0080           0
     46547 WT16     484      MECN     H12      HGA3     0.090000        1.0080           0
     46548 WT16     484      MECN     H13      HGA3     0.090000        1.0080           0
     46549 WT16     484      MECN     C2       CG1N1    0.360000       12.0110           0
     46550 WT16     484      MECN     N3       NG1T1   -0.460000       14.0070           0
     46551 WT16     497      MECN     C1       CG331   -0.170000       12.0110           0
     46552 WT16     497      MECN     H11      HGA3     0.090000        1.0080           0
     46553 WT16     497      MECN     H12      HGA3     0.090000        1.0080           0
     46554 WT16     497      MECN     H13      HGA3     0.090000        1.0080           0
     46555 WT16     497      MECN     C2       CG1N1    0.360000       12.0110           0
     46556 WT16     497      MECN     N3       NG1T1   -0.460000       14.0070           0
     46557 WT16     505      MECN     C1       CG331   -0.170000       12.0110           0
     46558 WT16     505      MECN     H11      HGA3     0.090000        1.0080           0
     46559 WT16     505      MECN     H12      HGA3     0.090000        1.0080           0
     46560 WT16     505      MECN     H13      HGA3     0.090000        1.0080           0
     46561 WT16     505      MECN     C2       CG1N1    0.360000       12.0110           0
     46562 WT16     505      MECN     N3       NG1T1   -0.460000       14.0070           0
     46563 WT16     508      MECN     C1       CG331   -0.170000       12.0110           0
     46564 WT16     508      MECN     H11      HGA3     0.090000        1.0080           0
     46565 WT16     508      MECN     H12      HGA3     0.090000        1.0080           0
     46566 WT16     508      MECN     H13      HGA3     0.090000        1.0080           0
     46567 WT16     508      MECN     C2       CG1N1    0.360000       12.0110           0
     46568 WT16     508      MECN     N3       NG1T1   -0.460000       14.0070           0
     46569 WT16     510      MECN     C1       CG331   -0.170000       12.0110           0
     46570 WT16     510      MECN     H11      HGA3     0.090000        1.0080           0
     46571 WT16     510      MECN     H12      HGA3     0.090000        1.0080           0
     46572 WT16     510      MECN     H13      HGA3     0.090000        1.0080           0
     46573 WT16     510      MECN     C2       CG1N1    0.360000       12.0110           0
     46574 WT16     510      MECN     N3       NG1T1   -0.460000       14.0070           0
     46575 WT16     511      MECN     C1       CG331   -0.170000       12.0110           0
     46576 WT16     511      MECN     H11      HGA3     0.090000        1.0080           0
     46577 WT16     511      MECN     H12      HGA3     0.090000        1.0080           0
     46578 WT16     511      MECN     H13      HGA3     0.090000        1.0080           0
     46579 WT16     511      MECN     C2       CG1N1    0.360000       12.0110           0
     46580 WT16     511      MECN     N3       NG1T1   -0.460000       14.0070           0
     46581 WT16     512      MECN     C1       CG331   -0.170000       12.0110           0
     46582 WT16     512      MECN     H11      HGA3     0.090000        1.0080           0
     46583 WT16     512      MECN     H12      HGA3     0.090000        1.0080           0
     46584 WT16     512      MECN     H13      HGA3     0.090000        1.0080           0
     46585 WT16     512      MECN     C2       CG1N1    0.360000       12.0110           0
     46586 WT16     512      MECN     N3       NG1T1   -0.460000       14.0070           0
     46587 WT16     517      MECN     C1       CG331   -0.170000       12.0110           0
     46588 WT16     517      MECN     H11      HGA3     0.090000        1.0080           0
     46589 WT16     517      MECN     H12      HGA3     0.090000        1.0080           0
     46590 WT16     517      MECN     H13      HGA3     0.090000        1.0080           0
     46591 WT16     517      MECN     C2       CG1N1    0.360000       12.0110           0
     46592 WT16     517      MECN     N3       NG1T1   -0.460000       14.0070           0
     46593 WT16     518      MECN     C1       CG331   -0.170000       12.0110           0
     46594 WT16     518      MECN     H11      HGA3     0.090000        1.0080           0
     46595 WT16     518      MECN     H12      HGA3     0.090000        1.0080           0
     46596 WT16     518      MECN     H13      HGA3     0.090000        1.0080           0
     46597 WT16     518      MECN     C2       CG1N1    0.360000       12.0110           0
     46598 WT16     518      MECN     N3       NG1T1   -0.460000       14.0070           0
     46599 WT16     525      MECN     C1       CG331   -0.170000       12.0110           0
     46600 WT16     525      MECN     H11      HGA3     0.090000        1.0080           0
     46601 WT16     525      MECN     H12      HGA3     0.090000        1.0080           0
     46602 WT16     525      MECN     H13      HGA3     0.090000        1.0080           0
     46603 WT16     525      MECN     C2       CG1N1    0.360000       12.0110           0
     46604 WT16     525      MECN     N3       NG1T1   -0.460000       14.0070           0
     46605 WT16     526      MECN     C1       CG331   -0.170000       12.0110           0
     46606 WT16     526      MECN     H11      HGA3     0.090000        1.0080           0
     46607 WT16     526      MECN     H12      HGA3     0.090000        1.0080           0
     46608 WT16     526      MECN     H13      HGA3     0.090000        1.0080           0
     46609 WT16     526      MECN     C2       CG1N1    0.360000       12.0110           0
     46610 WT16     526      MECN     N3       NG1T1   -0.460000       14.0070           0
     46611 WT16     527      MECN     C1       CG331   -0.170000       12.0110           0
     46612 WT16     527      MECN     H11      HGA3     0.090000        1.0080           0
     46613 WT16     527      MECN     H12      HGA3     0.090000        1.0080           0
     46614 WT16     527      MECN     H13      HGA3     0.090000        1.0080           0
     46615 WT16     527      MECN     C2       CG1N1    0.360000       12.0110           0
     46616 WT16     527      MECN     N3       NG1T1   -0.460000       14.0070           0
     46617 WT16     528      MECN     C1       CG331   -0.170000       12.0110           0
     46618 WT16     528      MECN     H11      HGA3     0.090000        1.0080           0
     46619 WT16     528      MECN     H12      HGA3     0.090000        1.0080           0
     46620 WT16     528      MECN     H13      HGA3     0.090000        1.0080           0
     46621 WT16     528      MECN     C2       CG1N1    0.360000       12.0110           0
     46622 WT16     528      MECN     N3       NG1T1   -0.460000       14.0070           0
     46623 WT16     541      MECN     C1       CG331   -0.170000       12.0110           0
     46624 WT16     541      MECN     H11      HGA3     0.090000        1.0080           0
     46625 WT16     541      MECN     H12      HGA3     0.090000        1.0080           0
     46626 WT16     541      MECN     H13      HGA3     0.090000        1.0080           0
     46627 WT16     541      MECN     C2       CG1N1    0.360000       12.0110           0
     46628 WT16     541      MECN     N3       NG1T1   -0.460000       14.0070           0
     46629 WT16     542      MECN     C1       CG331   -0.170000       12.0110           0
     46630 WT16     542      MECN     H11      HGA3     0.090000        1.0080           0
     46631 WT16     542      MECN     H12      HGA3     0.090000        1.0080           0
     46632 WT16     542      MECN     H13      HGA3     0.090000        1.0080           0
     46633 WT16     542      MECN     C2       CG1N1    0.360000       12.0110           0
     46634 WT16     542      MECN     N3       NG1T1   -0.460000       14.0070           0
     46635 WT16     544      MECN     C1       CG331   -0.170000       12.0110           0
     46636 WT16     544      MECN     H11      HGA3     0.090000        1.0080           0
     46637 WT16     544      MECN     H12      HGA3     0.090000        1.0080           0
     46638 WT16     544      MECN     H13      HGA3     0.090000        1.0080           0
     46639 WT16     544      MECN     C2       CG1N1    0.360000       12.0110           0
     46640 WT16     544      MECN     N3       NG1T1   -0.460000       14.0070           0
     46641 WT16     546      MECN     C1       CG331   -0.170000       12.0110           0
     46642 WT16     546      MECN     H11      HGA3     0.090000        1.0080           0
     46643 WT16     546      MECN     H12      HGA3     0.090000        1.0080           0
     46644 WT16     546      MECN     H13      HGA3     0.090000        1.0080           0
     46645 WT16     546      MECN     C2       CG1N1    0.360000       12.0110           0
     46646 WT16     546      MECN     N3       NG1T1   -0.460000       14.0070           0
     46647 WT16     554      MECN     C1       CG331   -0.170000       12.0110           0
     46648 WT16     554      MECN     H11      HGA3     0.090000        1.0080           0
     46649 WT16     554      MECN     H12      HGA3     0.090000        1.0080           0
     46650 WT16     554      MECN     H13      HGA3     0.090000        1.0080           0
     46651 WT16     554      MECN     C2       CG1N1    0.360000       12.0110           0
     46652 WT16     554      MECN     N3       NG1T1   -0.460000       14.0070           0
     46653 WT16     556      MECN     C1       CG331   -0.170000       12.0110           0
     46654 WT16     556      MECN     H11      HGA3     0.090000        1.0080           0
     46655 WT16     556      MECN     H12      HGA3     0.090000        1.0080           0
     46656 WT16     556      MECN     H13      HGA3     0.090000        1.0080           0
     46657 WT16     556      MECN     C2       CG1N1    0.360000       12.0110           0
     46658 WT16     556      MECN     N3       NG1T1   -0.460000       14.0070           0
     46659 WT16     558      MECN     C1       CG331   -0.170000       12.0110           0
     46660 WT16     558      MECN     H11      HGA3     0.090000        1.0080           0
     46661 WT16     558      MECN     H12      HGA3     0.090000        1.0080           0
     46662 WT16     558      MECN     H13      HGA3     0.090000        1.0080           0
     46663 WT16     558      MECN     C2       CG1N1    0.360000       12.0110           0
     46664 WT16     558      MECN     N3       NG1T1   -0.460000       14.0070           0
     46665 WT16     559      MECN     C1       CG331   -0.170000       12.0110           0
     46666 WT16     559      MECN     H11      HGA3     0.090000        1.0080           0
     46667 WT16     559      MECN     H12      HGA3     0.090000        1.0080           0
     46668 WT16     559      MECN     H13      HGA3     0.090000        1.0080           0
     46669 WT16     559      MECN     C2       CG1N1    0.360000       12.0110           0
     46670 WT16     559      MECN     N3       NG1T1   -0.460000       14.0070           0
     46671 WT16     562      MECN     C1       CG331   -0.170000       12.0110           0
     46672 WT16     562      MECN     H11      HGA3     0.090000        1.0080           0
     46673 WT16     562      MECN     H12      HGA3     0.090000        1.0080           0
     46674 WT16     562      MECN     H13      HGA3     0.090000        1.0080           0
     46675 WT16     562      MECN     C2       CG1N1    0.360000       12.0110           0
     46676 WT16     562      MECN     N3       NG1T1   -0.460000       14.0070           0
     46677 WT16     566      MECN     C1       CG331   -0.170000       12.0110           0
     46678 WT16     566      MECN     H11      HGA3     0.090000        1.0080           0
     46679 WT16     566      MECN     H12      HGA3     0.090000        1.0080           0
     46680 WT16     566      MECN     H13      HGA3     0.090000        1.0080           0
     46681 WT16     566      MECN     C2       CG1N1    0.360000       12.0110           0
     46682 WT16     566      MECN     N3       NG1T1   -0.460000       14.0070           0
     46683 WT16     569      MECN     C1       CG331   -0.170000       12.0110           0
     46684 WT16     569      MECN     H11      HGA3     0.090000        1.0080           0
     46685 WT16     569      MECN     H12      HGA3     0.090000        1.0080           0
     46686 WT16     569      MECN     H13      HGA3     0.090000        1.0080           0
     46687 WT16     569      MECN     C2       CG1N1    0.360000       12.0110           0
     46688 WT16     569      MECN     N3       NG1T1   -0.460000       14.0070           0
     46689 WT16     584      MECN     C1       CG331   -0.170000       12.0110           0
     46690 WT16     584      MECN     H11      HGA3     0.090000        1.0080           0
     46691 WT16     584      MECN     H12      HGA3     0.090000        1.0080           0
     46692 WT16     584      MECN     H13      HGA3     0.090000        1.0080           0
     46693 WT16     584      MECN     C2       CG1N1    0.360000       12.0110           0
     46694 WT16     584      MECN     N3       NG1T1   -0.460000       14.0070           0
     46695 WT16     585      MECN     C1       CG331   -0.170000       12.0110           0
     46696 WT16     585      MECN     H11      HGA3     0.090000        1.0080           0
     46697 WT16     585      MECN     H12      HGA3     0.090000        1.0080           0
     46698 WT16     585      MECN     H13      HGA3     0.090000        1.0080           0
     46699 WT16     585      MECN     C2       CG1N1    0.360000       12.0110           0
     46700 WT16     585      MECN     N3       NG1T1   -0.460000       14.0070           0
     46701 WT16     588      MECN     C1       CG331   -0.170000       12.0110           0
     46702 WT16     588      MECN     H11      HGA3     0.090000        1.0080           0
     46703 WT16     588      MECN     H12      HGA3     0.090000        1.0080           0
     46704 WT16     588      MECN     H13      HGA3     0.090000        1.0080           0
     46705 WT16     588      MECN     C2       CG1N1    0.360000       12.0110           0
     46706 WT16     588      MECN     N3       NG1T1   -0.460000       14.0070           0
     46707 WT16     594      MECN     C1       CG331   -0.170000       12.0110           0
     46708 WT16     594      MECN     H11      HGA3     0.090000        1.0080           0
     46709 WT16     594      MECN     H12      HGA3     0.090000        1.0080           0
     46710 WT16     594      MECN     H13      HGA3     0.090000        1.0080           0
     46711 WT16     594      MECN     C2       CG1N1    0.360000       12.0110           0
     46712 WT16     594      MECN     N3       NG1T1   -0.460000       14.0070           0
     46713 WT16     595      MECN     C1       CG331   -0.170000       12.0110           0
     46714 WT16     595      MECN     H11      HGA3     0.090000        1.0080           0
     46715 WT16     595      MECN     H12      HGA3     0.090000        1.0080           0
     46716 WT16     595      MECN     H13      HGA3     0.090000        1.0080           0
     46717 WT16     595      MECN     C2       CG1N1    0.360000       12.0110           0
     46718 WT16     595      MECN     N3       NG1T1   -0.460000       14.0070           0
     46719 WT16     599      MECN     C1       CG331   -0.170000       12.0110           0
     46720 WT16     599      MECN     H11      HGA3     0.090000        1.0080           0
     46721 WT16     599      MECN     H12      HGA3     0.090000        1.0080           0
     46722 WT16     599      MECN     H13      HGA3     0.090000        1.0080           0
     46723 WT16     599      MECN     C2       CG1N1    0.360000       12.0110           0
     46724 WT16     599      MECN     N3       NG1T1   -0.460000       14.0070           0
     46725 WT16     601      MECN     C1       CG331   -0.170000       12.0110           0
     46726 WT16     601      MECN     H11      HGA3     0.090000        1.0080           0
     46727 WT16     601      MECN     H12      HGA3     0.090000        1.0080           0
     46728 WT16     601      MECN     H13      HGA3     0.090000        1.0080           0
     46729 WT16     601      MECN     C2       CG1N1    0.360000       12.0110           0
     46730 WT16     601      MECN     N3       NG1T1   -0.460000       14.0070           0
     46731 WT16     602      MECN     C1       CG331   -0.170000       12.0110           0
     46732 WT16     602      MECN     H11      HGA3     0.090000        1.0080           0
     46733 WT16     602      MECN     H12      HGA3     0.090000        1.0080           0
     46734 WT16     602      MECN     H13      HGA3     0.090000        1.0080           0
     46735 WT16     602      MECN     C2       CG1N1    0.360000       12.0110           0
     46736 WT16     602      MECN     N3       NG1T1   -0.460000       14.0070           0
     46737 WT16     605      MECN     C1       CG331   -0.170000       12.0110           0
     46738 WT16     605      MECN     H11      HGA3     0.090000        1.0080           0
     46739 WT16     605      MECN     H12      HGA3     0.090000        1.0080           0
     46740 WT16     605      MECN     H13      HGA3     0.090000        1.0080           0
     46741 WT16     605      MECN     C2       CG1N1    0.360000       12.0110           0
     46742 WT16     605      MECN     N3       NG1T1   -0.460000       14.0070           0
     46743 WT16     608      MECN     C1       CG331   -0.170000       12.0110           0
     46744 WT16     608      MECN     H11      HGA3     0.090000        1.0080           0
     46745 WT16     608      MECN     H12      HGA3     0.090000        1.0080           0
     46746 WT16     608      MECN     H13      HGA3     0.090000        1.0080           0
     46747 WT16     608      MECN     C2       CG1N1    0.360000       12.0110           0
     46748 WT16     608      MECN     N3       NG1T1   -0.460000       14.0070           0
     46749 WT16     611      MECN     C1       CG331   -0.170000       12.0110           0
     46750 WT16     611      MECN     H11      HGA3     0.090000        1.0080           0
     46751 WT16     611      MECN     H12      HGA3     0.090000        1.0080           0
     46752 WT16     611      MECN     H13      HGA3     0.090000        1.0080           0
     46753 WT16     611      MECN     C2       CG1N1    0.360000       12.0110           0
     46754 WT16     611      MECN     N3       NG1T1   -0.460000       14.0070           0
     46755 WT16     615      MECN     C1       CG331   -0.170000       12.0110           0
     46756 WT16     615      MECN     H11      HGA3     0.090000        1.0080           0
     46757 WT16     615      MECN     H12      HGA3     0.090000        1.0080           0
     46758 WT16     615      MECN     H13      HGA3     0.090000        1.0080           0
     46759 WT16     615      MECN     C2       CG1N1    0.360000       12.0110           0
     46760 WT16     615      MECN     N3       NG1T1   -0.460000       14.0070           0
     46761 WT16     617      MECN     C1       CG331   -0.170000       12.0110           0
     46762 WT16     617      MECN     H11      HGA3     0.090000        1.0080           0
     46763 WT16     617      MECN     H12      HGA3     0.090000        1.0080           0
     46764 WT16     617      MECN     H13      HGA3     0.090000        1.0080           0
     46765 WT16     617      MECN     C2       CG1N1    0.360000       12.0110           0
     46766 WT16     617      MECN     N3       NG1T1   -0.460000       14.0070           0
     46767 WT16     618      MECN     C1       CG331   -0.170000       12.0110           0
     46768 WT16     618      MECN     H11      HGA3     0.090000        1.0080           0
     46769 WT16     618      MECN     H12      HGA3     0.090000        1.0080           0
     46770 WT16     618      MECN     H13      HGA3     0.090000        1.0080           0
     46771 WT16     618      MECN     C2       CG1N1    0.360000       12.0110           0
     46772 WT16     618      MECN     N3       NG1T1   -0.460000       14.0070           0
     46773 WT16     619      MECN     C1       CG331   -0.170000       12.0110           0
     46774 WT16     619      MECN     H11      HGA3     0.090000        1.0080           0
     46775 WT16     619      MECN     H12      HGA3     0.090000        1.0080           0
     46776 WT16     619      MECN     H13      HGA3     0.090000        1.0080           0
     46777 WT16     619      MECN     C2       CG1N1    0.360000       12.0110           0
     46778 WT16     619      MECN     N3       NG1T1   -0.460000       14.0070           0
     46779 WT16     621      MECN     C1       CG331   -0.170000       12.0110           0
     46780 WT16     621      MECN     H11      HGA3     0.090000        1.0080           0
     46781 WT16     621      MECN     H12      HGA3     0.090000        1.0080           0
     46782 WT16     621      MECN     H13      HGA3     0.090000        1.0080           0
     46783 WT16     621      MECN     C2       CG1N1    0.360000       12.0110           0
     46784 WT16     621      MECN     N3       NG1T1   -0.460000       14.0070           0
     46785 WT16     622      MECN     C1       CG331   -0.170000       12.0110           0
     46786 WT16     622      MECN     H11      HGA3     0.090000        1.0080           0
     46787 WT16     622      MECN     H12      HGA3     0.090000        1.0080           0
     46788 WT16     622      MECN     H13      HGA3     0.090000        1.0080           0
     46789 WT16     622      MECN     C2       CG1N1    0.360000       12.0110           0
     46790 WT16     622      MECN     N3       NG1T1   -0.460000       14.0070           0
     46791 WT16     623      MECN     C1       CG331   -0.170000       12.0110           0
     46792 WT16     623      MECN     H11      HGA3     0.090000        1.0080           0
     46793 WT16     623      MECN     H12      HGA3     0.090000        1.0080           0
     46794 WT16     623      MECN     H13      HGA3     0.090000        1.0080           0
     46795 WT16     623      MECN     C2       CG1N1    0.360000       12.0110           0
     46796 WT16     623      MECN     N3       NG1T1   -0.460000       14.0070           0
     46797 WT16     625      MECN     C1       CG331   -0.170000       12.0110           0
     46798 WT16     625      MECN     H11      HGA3     0.090000        1.0080           0
     46799 WT16     625      MECN     H12      HGA3     0.090000        1.0080           0
     46800 WT16     625      MECN     H13      HGA3     0.090000        1.0080           0
     46801 WT16     625      MECN     C2       CG1N1    0.360000       12.0110           0
     46802 WT16     625      MECN     N3       NG1T1   -0.460000       14.0070           0
     46803 WT16     627      MECN     C1       CG331   -0.170000       12.0110           0
     46804 WT16     627      MECN     H11      HGA3     0.090000        1.0080           0
     46805 WT16     627      MECN     H12      HGA3     0.090000        1.0080           0
     46806 WT16     627      MECN     H13      HGA3     0.090000        1.0080           0
     46807 WT16     627      MECN     C2       CG1N1    0.360000       12.0110           0
     46808 WT16     627      MECN     N3       NG1T1   -0.460000       14.0070           0
     46809 WT16     633      MECN     C1       CG331   -0.170000       12.0110           0
     46810 WT16     633      MECN     H11      HGA3     0.090000        1.0080           0
     46811 WT16     633      MECN     H12      HGA3     0.090000        1.0080           0
     46812 WT16     633      MECN     H13      HGA3     0.090000        1.0080           0
     46813 WT16     633      MECN     C2       CG1N1    0.360000       12.0110           0
     46814 WT16     633      MECN     N3       NG1T1   -0.460000       14.0070           0
     46815 WT16     634      MECN     C1       CG331   -0.170000       12.0110           0
     46816 WT16     634      MECN     H11      HGA3     0.090000        1.0080           0
     46817 WT16     634      MECN     H12      HGA3     0.090000        1.0080           0
     46818 WT16     634      MECN     H13      HGA3     0.090000        1.0080           0
     46819 WT16     634      MECN     C2       CG1N1    0.360000       12.0110           0
     46820 WT16     634      MECN     N3       NG1T1   -0.460000       14.0070           0
     46821 WT16     640      MECN     C1       CG331   -0.170000       12.0110           0
     46822 WT16     640      MECN     H11      HGA3     0.090000        1.0080           0
     46823 WT16     640      MECN     H12      HGA3     0.090000        1.0080           0
     46824 WT16     640      MECN     H13      HGA3     0.090000        1.0080           0
     46825 WT16     640      MECN     C2       CG1N1    0.360000       12.0110           0
     46826 WT16     640      MECN     N3       NG1T1   -0.460000       14.0070           0
     46827 WT16     641      MECN     C1       CG331   -0.170000       12.0110           0
     46828 WT16     641      MECN     H11      HGA3     0.090000        1.0080           0
     46829 WT16     641      MECN     H12      HGA3     0.090000        1.0080           0
     46830 WT16     641      MECN     H13      HGA3     0.090000        1.0080           0
     46831 WT16     641      MECN     C2       CG1N1    0.360000       12.0110           0
     46832 WT16     641      MECN     N3       NG1T1   -0.460000       14.0070           0
     46833 WT16     644      MECN     C1       CG331   -0.170000       12.0110           0
     46834 WT16     644      MECN     H11      HGA3     0.090000        1.0080           0
     46835 WT16     644      MECN     H12      HGA3     0.090000        1.0080           0
     46836 WT16     644      MECN     H13      HGA3     0.090000        1.0080           0
     46837 WT16     644      MECN     C2       CG1N1    0.360000       12.0110           0
     46838 WT16     644      MECN     N3       NG1T1   -0.460000       14.0070           0
     46839 WT16     645      MECN     C1       CG331   -0.170000       12.0110           0
     46840 WT16     645      MECN     H11      HGA3     0.090000        1.0080           0
     46841 WT16     645      MECN     H12      HGA3     0.090000        1.0080           0
     46842 WT16     645      MECN     H13      HGA3     0.090000        1.0080           0
     46843 WT16     645      MECN     C2       CG1N1    0.360000       12.0110           0
     46844 WT16     645      MECN     N3       NG1T1   -0.460000       14.0070           0
     46845 WT16     646      MECN     C1       CG331   -0.170000       12.0110           0
     46846 WT16     646      MECN     H11      HGA3     0.090000        1.0080           0
     46847 WT16     646      MECN     H12      HGA3     0.090000        1.0080           0
     46848 WT16     646      MECN     H13      HGA3     0.090000        1.0080           0
     46849 WT16     646      MECN     C2       CG1N1    0.360000       12.0110           0
     46850 WT16     646      MECN     N3       NG1T1   -0.460000       14.0070           0
     46851 WT16     649      MECN     C1       CG331   -0.170000       12.0110           0
     46852 WT16     649      MECN     H11      HGA3     0.090000        1.0080           0
     46853 WT16     649      MECN     H12      HGA3     0.090000        1.0080           0
     46854 WT16     649      MECN     H13      HGA3     0.090000        1.0080           0
     46855 WT16     649      MECN     C2       CG1N1    0.360000       12.0110           0
     46856 WT16     649      MECN     N3       NG1T1   -0.460000       14.0070           0
     46857 WT16     655      MECN     C1       CG331   -0.170000       12.0110           0
     46858 WT16     655      MECN     H11      HGA3     0.090000        1.0080           0
     46859 WT16     655      MECN     H12      HGA3     0.090000        1.0080           0
     46860 WT16     655      MECN     H13      HGA3     0.090000        1.0080           0
     46861 WT16     655      MECN     C2       CG1N1    0.360000       12.0110           0
     46862 WT16     655      MECN     N3       NG1T1   -0.460000       14.0070           0
     46863 WT16     656      MECN     C1       CG331   -0.170000       12.0110           0
     46864 WT16     656      MECN     H11      HGA3     0.090000        1.0080           0
     46865 WT16     656      MECN     H12      HGA3     0.090000        1.0080           0
     46866 WT16     656      MECN     H13      HGA3     0.090000        1.0080           0
     46867 WT16     656      MECN     C2       CG1N1    0.360000       12.0110           0
     46868 WT16     656      MECN     N3       NG1T1   -0.460000       14.0070           0
     46869 WT16     657      MECN     C1       CG331   -0.170000       12.0110           0
     46870 WT16     657      MECN     H11      HGA3     0.090000        1.0080           0
     46871 WT16     657      MECN     H12      HGA3     0.090000        1.0080           0
     46872 WT16     657      MECN     H13      HGA3     0.090000        1.0080           0
     46873 WT16     657      MECN     C2       CG1N1    0.360000       12.0110           0
     46874 WT16     657      MECN     N3       NG1T1   -0.460000       14.0070           0
     46875 WT16     664      MECN     C1       CG331   -0.170000       12.0110           0
     46876 WT16     664      MECN     H11      HGA3     0.090000        1.0080           0
     46877 WT16     664      MECN     H12      HGA3     0.090000        1.0080           0
     46878 WT16     664      MECN     H13      HGA3     0.090000        1.0080           0
     46879 WT16     664      MECN     C2       CG1N1    0.360000       12.0110           0
     46880 WT16     664      MECN     N3       NG1T1   -0.460000       14.0070           0
     46881 WT16     665      MECN     C1       CG331   -0.170000       12.0110           0
     46882 WT16     665      MECN     H11      HGA3     0.090000        1.0080           0
     46883 WT16     665      MECN     H12      HGA3     0.090000        1.0080           0
     46884 WT16     665      MECN     H13      HGA3     0.090000        1.0080           0
     46885 WT16     665      MECN     C2       CG1N1    0.360000       12.0110           0
     46886 WT16     665      MECN     N3       NG1T1   -0.460000       14.0070           0
     46887 WT16     667      MECN     C1       CG331   -0.170000       12.0110           0
     46888 WT16     667      MECN     H11      HGA3     0.090000        1.0080           0
     46889 WT16     667      MECN     H12      HGA3     0.090000        1.0080           0
     46890 WT16     667      MECN     H13      HGA3     0.090000        1.0080           0
     46891 WT16     667      MECN     C2       CG1N1    0.360000       12.0110           0
     46892 WT16     667      MECN     N3       NG1T1   -0.460000       14.0070           0
     46893 WT16     672      MECN     C1       CG331   -0.170000       12.0110           0
     46894 WT16     672      MECN     H11      HGA3     0.090000        1.0080           0
     46895 WT16     672      MECN     H12      HGA3     0.090000        1.0080           0
     46896 WT16     672      MECN     H13      HGA3     0.090000        1.0080           0
     46897 WT16     672      MECN     C2       CG1N1    0.360000       12.0110           0
     46898 WT16     672      MECN     N3       NG1T1   -0.460000       14.0070           0
     46899 WT16     674      MECN     C1       CG331   -0.170000       12.0110           0
     46900 WT16     674      MECN     H11      HGA3     0.090000        1.0080           0
     46901 WT16     674      MECN     H12      HGA3     0.090000        1.0080           0
     46902 WT16     674      MECN     H13      HGA3     0.090000        1.0080           0
     46903 WT16     674      MECN     C2       CG1N1    0.360000       12.0110           0
     46904 WT16     674      MECN     N3       NG1T1   -0.460000       14.0070           0
     46905 WT16     678      MECN     C1       CG331   -0.170000       12.0110           0
     46906 WT16     678      MECN     H11      HGA3     0.090000        1.0080           0
     46907 WT16     678      MECN     H12      HGA3     0.090000        1.0080           0
     46908 WT16     678      MECN     H13      HGA3     0.090000        1.0080           0
     46909 WT16     678      MECN     C2       CG1N1    0.360000       12.0110           0
     46910 WT16     678      MECN     N3       NG1T1   -0.460000       14.0070           0
     46911 WT16     680      MECN     C1       CG331   -0.170000       12.0110           0
     46912 WT16     680      MECN     H11      HGA3     0.090000        1.0080           0
     46913 WT16     680      MECN     H12      HGA3     0.090000        1.0080           0
     46914 WT16     680      MECN     H13      HGA3     0.090000        1.0080           0
     46915 WT16     680      MECN     C2       CG1N1    0.360000       12.0110           0
     46916 WT16     680      MECN     N3       NG1T1   -0.460000       14.0070           0
     46917 WT16     681      MECN     C1       CG331   -0.170000       12.0110           0
     46918 WT16     681      MECN     H11      HGA3     0.090000        1.0080           0
     46919 WT16     681      MECN     H12      HGA3     0.090000        1.0080           0
     46920 WT16     681      MECN     H13      HGA3     0.090000        1.0080           0
     46921 WT16     681      MECN     C2       CG1N1    0.360000       12.0110           0
     46922 WT16     681      MECN     N3       NG1T1   -0.460000       14.0070           0
     46923 WT16     682      MECN     C1       CG331   -0.170000       12.0110           0
     46924 WT16     682      MECN     H11      HGA3     0.090000        1.0080           0
     46925 WT16     682      MECN     H12      HGA3     0.090000        1.0080           0
     46926 WT16     682      MECN     H13      HGA3     0.090000        1.0080           0
     46927 WT16     682      MECN     C2       CG1N1    0.360000       12.0110           0
     46928 WT16     682      MECN     N3       NG1T1   -0.460000       14.0070           0
     46929 WT16     691      MECN     C1       CG331   -0.170000       12.0110           0
     46930 WT16     691      MECN     H11      HGA3     0.090000        1.0080           0
     46931 WT16     691      MECN     H12      HGA3     0.090000        1.0080           0
     46932 WT16     691      MECN     H13      HGA3     0.090000        1.0080           0
     46933 WT16     691      MECN     C2       CG1N1    0.360000       12.0110           0
     46934 WT16     691      MECN     N3       NG1T1   -0.460000       14.0070           0
     46935 WT16     694      MECN     C1       CG331   -0.170000       12.0110           0
     46936 WT16     694      MECN     H11      HGA3     0.090000        1.0080           0
     46937 WT16     694      MECN     H12      HGA3     0.090000        1.0080           0
     46938 WT16     694      MECN     H13      HGA3     0.090000        1.0080           0
     46939 WT16     694      MECN     C2       CG1N1    0.360000       12.0110           0
     46940 WT16     694      MECN     N3       NG1T1   -0.460000       14.0070           0
     46941 WT16     696      MECN     C1       CG331   -0.170000       12.0110           0
     46942 WT16     696      MECN     H11      HGA3     0.090000        1.0080           0
     46943 WT16     696      MECN     H12      HGA3     0.090000        1.0080           0
     46944 WT16     696      MECN     H13      HGA3     0.090000        1.0080           0
     46945 WT16     696      MECN     C2       CG1N1    0.360000       12.0110           0
     46946 WT16     696      MECN     N3       NG1T1   -0.460000       14.0070           0
     46947 WT16     698      MECN     C1       CG331   -0.170000       12.0110           0
     46948 WT16     698      MECN     H11      HGA3     0.090000        1.0080           0
     46949 WT16     698      MECN     H12      HGA3     0.090000        1.0080           0
     46950 WT16     698      MECN     H13      HGA3     0.090000        1.0080           0
     46951 WT16     698      MECN     C2       CG1N1    0.360000       12.0110           0
     46952 WT16     698      MECN     N3       NG1T1   -0.460000       14.0070           0
     46953 WT16     700      MECN     C1       CG331   -0.170000       12.0110           0
     46954 WT16     700      MECN     H11      HGA3     0.090000        1.0080           0
     46955 WT16     700      MECN     H12      HGA3     0.090000        1.0080           0
     46956 WT16     700      MECN     H13      HGA3     0.090000        1.0080           0
     46957 WT16     700      MECN     C2       CG1N1    0.360000       12.0110           0
     46958 WT16     700      MECN     N3       NG1T1   -0.460000       14.0070           0
     46959 WT16     709      MECN     C1       CG331   -0.170000       12.0110           0
     46960 WT16     709      MECN     H11      HGA3     0.090000        1.0080           0
     46961 WT16     709      MECN     H12      HGA3     0.090000        1.0080           0
     46962 WT16     709      MECN     H13      HGA3     0.090000        1.0080           0
     46963 WT16     709      MECN     C2       CG1N1    0.360000       12.0110           0
     46964 WT16     709      MECN     N3       NG1T1   -0.460000       14.0070           0
     46965 WT16     710      MECN     C1       CG331   -0.170000       12.0110           0
     46966 WT16     710      MECN     H11      HGA3     0.090000        1.0080           0
     46967 WT16     710      MECN     H12      HGA3     0.090000        1.0080           0
     46968 WT16     710      MECN     H13      HGA3     0.090000        1.0080           0
     46969 WT16     710      MECN     C2       CG1N1    0.360000       12.0110           0
     46970 WT16     710      MECN     N3       NG1T1   -0.460000       14.0070           0
     46971 WT16     711      MECN     C1       CG331   -0.170000       12.0110           0
     46972 WT16     711      MECN     H11      HGA3     0.090000        1.0080           0
     46973 WT16     711      MECN     H12      HGA3     0.090000        1.0080           0
     46974 WT16     711      MECN     H13      HGA3     0.090000        1.0080           0
     46975 WT16     711      MECN     C2       CG1N1    0.360000       12.0110           0
     46976 WT16     711      MECN     N3       NG1T1   -0.460000       14.0070           0
     46977 WT16     714      MECN     C1       CG331   -0.170000       12.0110           0
     46978 WT16     714      MECN     H11      HGA3     0.090000        1.0080           0
     46979 WT16     714      MECN     H12      HGA3     0.090000        1.0080           0
     46980 WT16     714      MECN     H13      HGA3     0.090000        1.0080           0
     46981 WT16     714      MECN     C2       CG1N1    0.360000       12.0110           0
     46982 WT16     714      MECN     N3       NG1T1   -0.460000       14.0070           0
     46983 WT16     717      MECN     C1       CG331   -0.170000       12.0110           0
     46984 WT16     717      MECN     H11      HGA3     0.090000        1.0080           0
     46985 WT16     717      MECN     H12      HGA3     0.090000        1.0080           0
     46986 WT16     717      MECN     H13      HGA3     0.090000        1.0080           0
     46987 WT16     717      MECN     C2       CG1N1    0.360000       12.0110           0
     46988 WT16     717      MECN     N3       NG1T1   -0.460000       14.0070           0
     46989 WT16     721      MECN     C1       CG331   -0.170000       12.0110           0
     46990 WT16     721      MECN     H11      HGA3     0.090000        1.0080           0
     46991 WT16     721      MECN     H12      HGA3     0.090000        1.0080           0
     46992 WT16     721      MECN     H13      HGA3     0.090000        1.0080           0
     46993 WT16     721      MECN     C2       CG1N1    0.360000       12.0110           0
     46994 WT16     721      MECN     N3       NG1T1   -0.460000       14.0070           0
     46995 WT16     723      MECN     C1       CG331   -0.170000       12.0110           0
     46996 WT16     723      MECN     H11      HGA3     0.090000        1.0080           0
     46997 WT16     723      MECN     H12      HGA3     0.090000        1.0080           0
     46998 WT16     723      MECN     H13      HGA3     0.090000        1.0080           0
     46999 WT16     723      MECN     C2       CG1N1    0.360000       12.0110           0
     47000 WT16     723      MECN     N3       NG1T1   -0.460000       14.0070           0
     47001 WT16     724      MECN     C1       CG331   -0.170000       12.0110           0
     47002 WT16     724      MECN     H11      HGA3     0.090000        1.0080           0
     47003 WT16     724      MECN     H12      HGA3     0.090000        1.0080           0
     47004 WT16     724      MECN     H13      HGA3     0.090000        1.0080           0
     47005 WT16     724      MECN     C2       CG1N1    0.360000       12.0110           0
     47006 WT16     724      MECN     N3       NG1T1   -0.460000       14.0070           0
     47007 WT16     725      MECN     C1       CG331   -0.170000       12.0110           0
     47008 WT16     725      MECN     H11      HGA3     0.090000        1.0080           0
     47009 WT16     725      MECN     H12      HGA3     0.090000        1.0080           0
     47010 WT16     725      MECN     H13      HGA3     0.090000        1.0080           0
     47011 WT16     725      MECN     C2       CG1N1    0.360000       12.0110           0
     47012 WT16     725      MECN     N3       NG1T1   -0.460000       14.0070           0
     47013 WT16     727      MECN     C1       CG331   -0.170000       12.0110           0
     47014 WT16     727      MECN     H11      HGA3     0.090000        1.0080           0
     47015 WT16     727      MECN     H12      HGA3     0.090000        1.0080           0
     47016 WT16     727      MECN     H13      HGA3     0.090000        1.0080           0
     47017 WT16     727      MECN     C2       CG1N1    0.360000       12.0110           0
     47018 WT16     727      MECN     N3       NG1T1   -0.460000       14.0070           0
     47019 WT16     735      MECN     C1       CG331   -0.170000       12.0110           0
     47020 WT16     735      MECN     H11      HGA3     0.090000        1.0080           0
     47021 WT16     735      MECN     H12      HGA3     0.090000        1.0080           0
     47022 WT16     735      MECN     H13      HGA3     0.090000        1.0080           0
     47023 WT16     735      MECN     C2       CG1N1    0.360000       12.0110           0
     47024 WT16     735      MECN     N3       NG1T1   -0.460000       14.0070           0
     47025 WT16     748      MECN     C1       CG331   -0.170000       12.0110           0
     47026 WT16     748      MECN     H11      HGA3     0.090000        1.0080           0
     47027 WT16     748      MECN     H12      HGA3     0.090000        1.0080           0
     47028 WT16     748      MECN     H13      HGA3     0.090000        1.0080           0
     47029 WT16     748      MECN     C2       CG1N1    0.360000       12.0110           0
     47030 WT16     748      MECN     N3       NG1T1   -0.460000       14.0070           0
     47031 WT16     751      MECN     C1       CG331   -0.170000       12.0110           0
     47032 WT16     751      MECN     H11      HGA3     0.090000        1.0080           0
     47033 WT16     751      MECN     H12      HGA3     0.090000        1.0080           0
     47034 WT16     751      MECN     H13      HGA3     0.090000        1.0080           0
     47035 WT16     751      MECN     C2       CG1N1    0.360000       12.0110           0
     47036 WT16     751      MECN     N3       NG1T1   -0.460000       14.0070           0
     47037 WT16     760      MECN     C1       CG331   -0.170000       12.0110           0
     47038 WT16     760      MECN     H11      HGA3     0.090000        1.0080           0
     47039 WT16     760      MECN     H12      HGA3     0.090000        1.0080           0
     47040 WT16     760      MECN     H13      HGA3     0.090000        1.0080           0
     47041 WT16     760      MECN     C2       CG1N1    0.360000       12.0110           0
     47042 WT16     760      MECN     N3       NG1T1   -0.460000       14.0070           0
     47043 WT16     763      MECN     C1       CG331   -0.170000       12.0110           0
     47044 WT16     763      MECN     H11      HGA3     0.090000        1.0080           0
     47045 WT16     763      MECN     H12      HGA3     0.090000        1.0080           0
     47046 WT16     763      MECN     H13      HGA3     0.090000        1.0080           0
     47047 WT16     763      MECN     C2       CG1N1    0.360000       12.0110           0
     47048 WT16     763      MECN     N3       NG1T1   -0.460000       14.0070           0
     47049 WT16     766      MECN     C1       CG331   -0.170000       12.0110           0
     47050 WT16     766      MECN     H11      HGA3     0.090000        1.0080           0
     47051 WT16     766      MECN     H12      HGA3     0.090000        1.0080           0
     47052 WT16     766      MECN     H13      HGA3     0.090000        1.0080           0
     47053 WT16     766      MECN     C2       CG1N1    0.360000       12.0110           0
     47054 WT16     766      MECN     N3       NG1T1   -0.460000       14.0070           0
     47055 WT16     767      MECN     C1       CG331   -0.170000       12.0110           0
     47056 WT16     767      MECN     H11      HGA3     0.090000        1.0080           0
     47057 WT16     767      MECN     H12      HGA3     0.090000        1.0080           0
     47058 WT16     767      MECN     H13      HGA3     0.090000        1.0080           0
     47059 WT16     767      MECN     C2       CG1N1    0.360000       12.0110           0
     47060 WT16     767      MECN     N3       NG1T1   -0.460000       14.0070           0
     47061 WT16     768      MECN     C1       CG331   -0.170000       12.0110           0
     47062 WT16     768      MECN     H11      HGA3     0.090000        1.0080           0
     47063 WT16     768      MECN     H12      HGA3     0.090000        1.0080           0
     47064 WT16     768      MECN     H13      HGA3     0.090000        1.0080           0
     47065 WT16     768      MECN     C2       CG1N1    0.360000       12.0110           0
     47066 WT16     768      MECN     N3       NG1T1   -0.460000       14.0070           0
     47067 WT16     769      MECN     C1       CG331   -0.170000       12.0110           0
     47068 WT16     769      MECN     H11      HGA3     0.090000        1.0080           0
     47069 WT16     769      MECN     H12      HGA3     0.090000        1.0080           0
     47070 WT16     769      MECN     H13      HGA3     0.090000        1.0080           0
     47071 WT16     769      MECN     C2       CG1N1    0.360000       12.0110           0
     47072 WT16     769      MECN     N3       NG1T1   -0.460000       14.0070           0
     47073 WT16     771      MECN     C1       CG331   -0.170000       12.0110           0
     47074 WT16     771      MECN     H11      HGA3     0.090000        1.0080           0
     47075 WT16     771      MECN     H12      HGA3     0.090000        1.0080           0
     47076 WT16     771      MECN     H13      HGA3     0.090000        1.0080           0
     47077 WT16     771      MECN     C2       CG1N1    0.360000       12.0110           0
     47078 WT16     771      MECN     N3       NG1T1   -0.460000       14.0070           0
     47079 WT16     772      MECN     C1       CG331   -0.170000       12.0110           0
     47080 WT16     772      MECN     H11      HGA3     0.090000        1.0080           0
     47081 WT16     772      MECN     H12      HGA3     0.090000        1.0080           0
     47082 WT16     772      MECN     H13      HGA3     0.090000        1.0080           0
     47083 WT16     772      MECN     C2       CG1N1    0.360000       12.0110           0
     47084 WT16     772      MECN     N3       NG1T1   -0.460000       14.0070           0
     47085 WT16     773      MECN     C1       CG331   -0.170000       12.0110           0
     47086 WT16     773      MECN     H11      HGA3     0.090000        1.0080           0
     47087 WT16     773      MECN     H12      HGA3     0.090000        1.0080           0
     47088 WT16     773      MECN     H13      HGA3     0.090000        1.0080           0
     47089 WT16     773      MECN     C2       CG1N1    0.360000       12.0110           0
     47090 WT16     773      MECN     N3       NG1T1   -0.460000       14.0070           0
     47091 WT16     774      MECN     C1       CG331   -0.170000       12.0110           0
     47092 WT16     774      MECN     H11      HGA3     0.090000        1.0080           0
     47093 WT16     774      MECN     H12      HGA3     0.090000        1.0080           0
     47094 WT16     774      MECN     H13      HGA3     0.090000        1.0080           0
     47095 WT16     774      MECN     C2       CG1N1    0.360000       12.0110           0
     47096 WT16     774      MECN     N3       NG1T1   -0.460000       14.0070           0
     47097 WT16     775      MECN     C1       CG331   -0.170000       12.0110           0
     47098 WT16     775      MECN     H11      HGA3     0.090000        1.0080           0
     47099 WT16     775      MECN     H12      HGA3     0.090000        1.0080           0
     47100 WT16     775      MECN     H13      HGA3     0.090000        1.0080           0
     47101 WT16     775      MECN     C2       CG1N1    0.360000       12.0110           0
     47102 WT16     775      MECN     N3       NG1T1   -0.460000       14.0070           0
     47103 WT16     776      MECN     C1       CG331   -0.170000       12.0110           0
     47104 WT16     776      MECN     H11      HGA3     0.090000        1.0080           0
     47105 WT16     776      MECN     H12      HGA3     0.090000        1.0080           0
     47106 WT16     776      MECN     H13      HGA3     0.090000        1.0080           0
     47107 WT16     776      MECN     C2       CG1N1    0.360000       12.0110           0
     47108 WT16     776      MECN     N3       NG1T1   -0.460000       14.0070           0
     47109 WT16     786      MECN     C1       CG331   -0.170000       12.0110           0
     47110 WT16     786      MECN     H11      HGA3     0.090000        1.0080           0
     47111 WT16     786      MECN     H12      HGA3     0.090000        1.0080           0
     47112 WT16     786      MECN     H13      HGA3     0.090000        1.0080           0
     47113 WT16     786      MECN     C2       CG1N1    0.360000       12.0110           0
     47114 WT16     786      MECN     N3       NG1T1   -0.460000       14.0070           0
     47115 WT16     788      MECN     C1       CG331   -0.170000       12.0110           0
     47116 WT16     788      MECN     H11      HGA3     0.090000        1.0080           0
     47117 WT16     788      MECN     H12      HGA3     0.090000        1.0080           0
     47118 WT16     788      MECN     H13      HGA3     0.090000        1.0080           0
     47119 WT16     788      MECN     C2       CG1N1    0.360000       12.0110           0
     47120 WT16     788      MECN     N3       NG1T1   -0.460000       14.0070           0
     47121 WT16     793      MECN     C1       CG331   -0.170000       12.0110           0
     47122 WT16     793      MECN     H11      HGA3     0.090000        1.0080           0
     47123 WT16     793      MECN     H12      HGA3     0.090000        1.0080           0
     47124 WT16     793      MECN     H13      HGA3     0.090000        1.0080           0
     47125 WT16     793      MECN     C2       CG1N1    0.360000       12.0110           0
     47126 WT16     793      MECN     N3       NG1T1   -0.460000       14.0070           0
     47127 WT16     794      MECN     C1       CG331   -0.170000       12.0110           0
     47128 WT16     794      MECN     H11      HGA3     0.090000        1.0080           0
     47129 WT16     794      MECN     H12      HGA3     0.090000        1.0080           0
     47130 WT16     794      MECN     H13      HGA3     0.090000        1.0080           0
     47131 WT16     794      MECN     C2       CG1N1    0.360000       12.0110           0
     47132 WT16     794      MECN     N3       NG1T1   -0.460000       14.0070           0
     47133 WT16     797      MECN     C1       CG331   -0.170000       12.0110           0
     47134 WT16     797      MECN     H11      HGA3     0.090000        1.0080           0
     47135 WT16     797      MECN     H12      HGA3     0.090000        1.0080           0
     47136 WT16     797      MECN     H13      HGA3     0.090000        1.0080           0
     47137 WT16     797      MECN     C2       CG1N1    0.360000       12.0110           0
     47138 WT16     797      MECN     N3       NG1T1   -0.460000       14.0070           0
     47139 WT16     806      MECN     C1       CG331   -0.170000       12.0110           0
     47140 WT16     806      MECN     H11      HGA3     0.090000        1.0080           0
     47141 WT16     806      MECN     H12      HGA3     0.090000        1.0080           0
     47142 WT16     806      MECN     H13      HGA3     0.090000        1.0080           0
     47143 WT16     806      MECN     C2       CG1N1    0.360000       12.0110           0
     47144 WT16     806      MECN     N3       NG1T1   -0.460000       14.0070           0
     47145 WT16     807      MECN     C1       CG331   -0.170000       12.0110           0
     47146 WT16     807      MECN     H11      HGA3     0.090000        1.0080           0
     47147 WT16     807      MECN     H12      HGA3     0.090000        1.0080           0
     47148 WT16     807      MECN     H13      HGA3     0.090000        1.0080           0
     47149 WT16     807      MECN     C2       CG1N1    0.360000       12.0110           0
     47150 WT16     807      MECN     N3       NG1T1   -0.460000       14.0070           0
     47151 WT16     808      MECN     C1       CG331   -0.170000       12.0110           0
     47152 WT16     808      MECN     H11      HGA3     0.090000        1.0080           0
     47153 WT16     808      MECN     H12      HGA3     0.090000        1.0080           0
     47154 WT16     808      MECN     H13      HGA3     0.090000        1.0080           0
     47155 WT16     808      MECN     C2       CG1N1    0.360000       12.0110           0
     47156 WT16     808      MECN     N3       NG1T1   -0.460000       14.0070           0
     47157 WT16     809      MECN     C1       CG331   -0.170000       12.0110           0
     47158 WT16     809      MECN     H11      HGA3     0.090000        1.0080           0
     47159 WT16     809      MECN     H12      HGA3     0.090000        1.0080           0
     47160 WT16     809      MECN     H13      HGA3     0.090000        1.0080           0
     47161 WT16     809      MECN     C2       CG1N1    0.360000       12.0110           0
     47162 WT16     809      MECN     N3       NG1T1   -0.460000       14.0070           0
     47163 WT16     815      MECN     C1       CG331   -0.170000       12.0110           0
     47164 WT16     815      MECN     H11      HGA3     0.090000        1.0080           0
     47165 WT16     815      MECN     H12      HGA3     0.090000        1.0080           0
     47166 WT16     815      MECN     H13      HGA3     0.090000        1.0080           0
     47167 WT16     815      MECN     C2       CG1N1    0.360000       12.0110           0
     47168 WT16     815      MECN     N3       NG1T1   -0.460000       14.0070           0
     47169 WT16     821      MECN     C1       CG331   -0.170000       12.0110           0
     47170 WT16     821      MECN     H11      HGA3     0.090000        1.0080           0
     47171 WT16     821      MECN     H12      HGA3     0.090000        1.0080           0
     47172 WT16     821      MECN     H13      HGA3     0.090000        1.0080           0
     47173 WT16     821      MECN     C2       CG1N1    0.360000       12.0110           0
     47174 WT16     821      MECN     N3       NG1T1   -0.460000       14.0070           0
     47175 WT16     823      MECN     C1       CG331   -0.170000       12.0110           0
     47176 WT16     823      MECN     H11      HGA3     0.090000        1.0080           0
     47177 WT16     823      MECN     H12      HGA3     0.090000        1.0080           0
     47178 WT16     823      MECN     H13      HGA3     0.090000        1.0080           0
     47179 WT16     823      MECN     C2       CG1N1    0.360000       12.0110           0
     47180 WT16     823      MECN     N3       NG1T1   -0.460000       14.0070           0
     47181 WT16     827      MECN     C1       CG331   -0.170000       12.0110           0
     47182 WT16     827      MECN     H11      HGA3     0.090000        1.0080           0
     47183 WT16     827      MECN     H12      HGA3     0.090000        1.0080           0
     47184 WT16     827      MECN     H13      HGA3     0.090000        1.0080           0
     47185 WT16     827      MECN     C2       CG1N1    0.360000       12.0110           0
     47186 WT16     827      MECN     N3       NG1T1   -0.460000       14.0070           0
     47187 WT16     828      MECN     C1       CG331   -0.170000       12.0110           0
     47188 WT16     828      MECN     H11      HGA3     0.090000        1.0080           0
     47189 WT16     828      MECN     H12      HGA3     0.090000        1.0080           0
     47190 WT16     828      MECN     H13      HGA3     0.090000        1.0080           0
     47191 WT16     828      MECN     C2       CG1N1    0.360000       12.0110           0
     47192 WT16     828      MECN     N3       NG1T1   -0.460000       14.0070           0
     47193 WT16     832      MECN     C1       CG331   -0.170000       12.0110           0
     47194 WT16     832      MECN     H11      HGA3     0.090000        1.0080           0
     47195 WT16     832      MECN     H12      HGA3     0.090000        1.0080           0
     47196 WT16     832      MECN     H13      HGA3     0.090000        1.0080           0
     47197 WT16     832      MECN     C2       CG1N1    0.360000       12.0110           0
     47198 WT16     832      MECN     N3       NG1T1   -0.460000       14.0070           0
     47199 WT16     835      MECN     C1       CG331   -0.170000       12.0110           0
     47200 WT16     835      MECN     H11      HGA3     0.090000        1.0080           0
     47201 WT16     835      MECN     H12      HGA3     0.090000        1.0080           0
     47202 WT16     835      MECN     H13      HGA3     0.090000        1.0080           0
     47203 WT16     835      MECN     C2       CG1N1    0.360000       12.0110           0
     47204 WT16     835      MECN     N3       NG1T1   -0.460000       14.0070           0
     47205 WT16     839      MECN     C1       CG331   -0.170000       12.0110           0
     47206 WT16     839      MECN     H11      HGA3     0.090000        1.0080           0
     47207 WT16     839      MECN     H12      HGA3     0.090000        1.0080           0
     47208 WT16     839      MECN     H13      HGA3     0.090000        1.0080           0
     47209 WT16     839      MECN     C2       CG1N1    0.360000       12.0110           0
     47210 WT16     839      MECN     N3       NG1T1   -0.460000       14.0070           0
     47211 WT16     840      MECN     C1       CG331   -0.170000       12.0110           0
     47212 WT16     840      MECN     H11      HGA3     0.090000        1.0080           0
     47213 WT16     840      MECN     H12      HGA3     0.090000        1.0080           0
     47214 WT16     840      MECN     H13      HGA3     0.090000        1.0080           0
     47215 WT16     840      MECN     C2       CG1N1    0.360000       12.0110           0
     47216 WT16     840      MECN     N3       NG1T1   -0.460000       14.0070           0
     47217 WT16     841      MECN     C1       CG331   -0.170000       12.0110           0
     47218 WT16     841      MECN     H11      HGA3     0.090000        1.0080           0
     47219 WT16     841      MECN     H12      HGA3     0.090000        1.0080           0
     47220 WT16     841      MECN     H13      HGA3     0.090000        1.0080           0
     47221 WT16     841      MECN     C2       CG1N1    0.360000       12.0110           0
     47222 WT16     841      MECN     N3       NG1T1   -0.460000       14.0070           0
     47223 WT16     846      MECN     C1       CG331   -0.170000       12.0110           0
     47224 WT16     846      MECN     H11      HGA3     0.090000        1.0080           0
     47225 WT16     846      MECN     H12      HGA3     0.090000        1.0080           0
     47226 WT16     846      MECN     H13      HGA3     0.090000        1.0080           0
     47227 WT16     846      MECN     C2       CG1N1    0.360000       12.0110           0
     47228 WT16     846      MECN     N3       NG1T1   -0.460000       14.0070           0
     47229 WT16     848      MECN     C1       CG331   -0.170000       12.0110           0
     47230 WT16     848      MECN     H11      HGA3     0.090000        1.0080           0
     47231 WT16     848      MECN     H12      HGA3     0.090000        1.0080           0
     47232 WT16     848      MECN     H13      HGA3     0.090000        1.0080           0
     47233 WT16     848      MECN     C2       CG1N1    0.360000       12.0110           0
     47234 WT16     848      MECN     N3       NG1T1   -0.460000       14.0070           0
     47235 WT16     849      MECN     C1       CG331   -0.170000       12.0110           0
     47236 WT16     849      MECN     H11      HGA3     0.090000        1.0080           0
     47237 WT16     849      MECN     H12      HGA3     0.090000        1.0080           0
     47238 WT16     849      MECN     H13      HGA3     0.090000        1.0080           0
     47239 WT16     849      MECN     C2       CG1N1    0.360000       12.0110           0
     47240 WT16     849      MECN     N3       NG1T1   -0.460000       14.0070           0
     47241 WT16     856      MECN     C1       CG331   -0.170000       12.0110           0
     47242 WT16     856      MECN     H11      HGA3     0.090000        1.0080           0
     47243 WT16     856      MECN     H12      HGA3     0.090000        1.0080           0
     47244 WT16     856      MECN     H13      HGA3     0.090000        1.0080           0
     47245 WT16     856      MECN     C2       CG1N1    0.360000       12.0110           0
     47246 WT16     856      MECN     N3       NG1T1   -0.460000       14.0070           0
     47247 WT16     862      MECN     C1       CG331   -0.170000       12.0110           0
     47248 WT16     862      MECN     H11      HGA3     0.090000        1.0080           0
     47249 WT16     862      MECN     H12      HGA3     0.090000        1.0080           0
     47250 WT16     862      MECN     H13      HGA3     0.090000        1.0080           0
     47251 WT16     862      MECN     C2       CG1N1    0.360000       12.0110           0
     47252 WT16     862      MECN     N3       NG1T1   -0.460000       14.0070           0
     47253 WT16     863      MECN     C1       CG331   -0.170000       12.0110           0
     47254 WT16     863      MECN     H11      HGA3     0.090000        1.0080           0
     47255 WT16     863      MECN     H12      HGA3     0.090000        1.0080           0
     47256 WT16     863      MECN     H13      HGA3     0.090000        1.0080           0
     47257 WT16     863      MECN     C2       CG1N1    0.360000       12.0110           0
     47258 WT16     863      MECN     N3       NG1T1   -0.460000       14.0070           0
     47259 WT16     873      MECN     C1       CG331   -0.170000       12.0110           0
     47260 WT16     873      MECN     H11      HGA3     0.090000        1.0080           0
     47261 WT16     873      MECN     H12      HGA3     0.090000        1.0080           0
     47262 WT16     873      MECN     H13      HGA3     0.090000        1.0080           0
     47263 WT16     873      MECN     C2       CG1N1    0.360000       12.0110           0
     47264 WT16     873      MECN     N3       NG1T1   -0.460000       14.0070           0
     47265 WT16     875      MECN     C1       CG331   -0.170000       12.0110           0
     47266 WT16     875      MECN     H11      HGA3     0.090000        1.0080           0
     47267 WT16     875      MECN     H12      HGA3     0.090000        1.0080           0
     47268 WT16     875      MECN     H13      HGA3     0.090000        1.0080           0
     47269 WT16     875      MECN     C2       CG1N1    0.360000       12.0110           0
     47270 WT16     875      MECN     N3       NG1T1   -0.460000       14.0070           0
     47271 WT16     876      MECN     C1       CG331   -0.170000       12.0110           0
     47272 WT16     876      MECN     H11      HGA3     0.090000        1.0080           0
     47273 WT16     876      MECN     H12      HGA3     0.090000        1.0080           0
     47274 WT16     876      MECN     H13      HGA3     0.090000        1.0080           0
     47275 WT16     876      MECN     C2       CG1N1    0.360000       12.0110           0
     47276 WT16     876      MECN     N3       NG1T1   -0.460000       14.0070           0
     47277 WT16     878      MECN     C1       CG331   -0.170000       12.0110           0
     47278 WT16     878      MECN     H11      HGA3     0.090000        1.0080           0
     47279 WT16     878      MECN     H12      HGA3     0.090000        1.0080           0
     47280 WT16     878      MECN     H13      HGA3     0.090000        1.0080           0
     47281 WT16     878      MECN     C2       CG1N1    0.360000       12.0110           0
     47282 WT16     878      MECN     N3       NG1T1   -0.460000       14.0070           0
     47283 WT16     886      MECN     C1       CG331   -0.170000       12.0110           0
     47284 WT16     886      MECN     H11      HGA3     0.090000        1.0080           0
     47285 WT16     886      MECN     H12      HGA3     0.090000        1.0080           0
     47286 WT16     886      MECN     H13      HGA3     0.090000        1.0080           0
     47287 WT16     886      MECN     C2       CG1N1    0.360000       12.0110           0
     47288 WT16     886      MECN     N3       NG1T1   -0.460000       14.0070           0
     47289 WT16     888      MECN     C1       CG331   -0.170000       12.0110           0
     47290 WT16     888      MECN     H11      HGA3     0.090000        1.0080           0
     47291 WT16     888      MECN     H12      HGA3     0.090000        1.0080           0
     47292 WT16     888      MECN     H13      HGA3     0.090000        1.0080           0
     47293 WT16     888      MECN     C2       CG1N1    0.360000       12.0110           0
     47294 WT16     888      MECN     N3       NG1T1   -0.460000       14.0070           0
     47295 WT16     892      MECN     C1       CG331   -0.170000       12.0110           0
     47296 WT16     892      MECN     H11      HGA3     0.090000        1.0080           0
     47297 WT16     892      MECN     H12      HGA3     0.090000        1.0080           0
     47298 WT16     892      MECN     H13      HGA3     0.090000        1.0080           0
     47299 WT16     892      MECN     C2       CG1N1    0.360000       12.0110           0
     47300 WT16     892      MECN     N3       NG1T1   -0.460000       14.0070           0
     47301 WT16     895      MECN     C1       CG331   -0.170000       12.0110           0
     47302 WT16     895      MECN     H11      HGA3     0.090000        1.0080           0
     47303 WT16     895      MECN     H12      HGA3     0.090000        1.0080           0
     47304 WT16     895      MECN     H13      HGA3     0.090000        1.0080           0
     47305 WT16     895      MECN     C2       CG1N1    0.360000       12.0110           0
     47306 WT16     895      MECN     N3       NG1T1   -0.460000       14.0070           0
     47307 WT16     898      MECN     C1       CG331   -0.170000       12.0110           0
     47308 WT16     898      MECN     H11      HGA3     0.090000        1.0080           0
     47309 WT16     898      MECN     H12      HGA3     0.090000        1.0080           0
     47310 WT16     898      MECN     H13      HGA3     0.090000        1.0080           0
     47311 WT16     898      MECN     C2       CG1N1    0.360000       12.0110           0
     47312 WT16     898      MECN     N3       NG1T1   -0.460000       14.0070           0
     47313 WT16     902      MECN     C1       CG331   -0.170000       12.0110           0
     47314 WT16     902      MECN     H11      HGA3     0.090000        1.0080           0
     47315 WT16     902      MECN     H12      HGA3     0.090000        1.0080           0
     47316 WT16     902      MECN     H13      HGA3     0.090000        1.0080           0
     47317 WT16     902      MECN     C2       CG1N1    0.360000       12.0110           0
     47318 WT16     902      MECN     N3       NG1T1   -0.460000       14.0070           0
     47319 WT16     905      MECN     C1       CG331   -0.170000       12.0110           0
     47320 WT16     905      MECN     H11      HGA3     0.090000        1.0080           0
     47321 WT16     905      MECN     H12      HGA3     0.090000        1.0080           0
     47322 WT16     905      MECN     H13      HGA3     0.090000        1.0080           0
     47323 WT16     905      MECN     C2       CG1N1    0.360000       12.0110           0
     47324 WT16     905      MECN     N3       NG1T1   -0.460000       14.0070           0
     47325 WT16     908      MECN     C1       CG331   -0.170000       12.0110           0
     47326 WT16     908      MECN     H11      HGA3     0.090000        1.0080           0
     47327 WT16     908      MECN     H12      HGA3     0.090000        1.0080           0
     47328 WT16     908      MECN     H13      HGA3     0.090000        1.0080           0
     47329 WT16     908      MECN     C2       CG1N1    0.360000       12.0110           0
     47330 WT16     908      MECN     N3       NG1T1   -0.460000       14.0070           0
     47331 WT16     909      MECN     C1       CG331   -0.170000       12.0110           0
     47332 WT16     909      MECN     H11      HGA3     0.090000        1.0080           0
     47333 WT16     909      MECN     H12      HGA3     0.090000        1.0080           0
     47334 WT16     909      MECN     H13      HGA3     0.090000        1.0080           0
     47335 WT16     909      MECN     C2       CG1N1    0.360000       12.0110           0
     47336 WT16     909      MECN     N3       NG1T1   -0.460000       14.0070           0
     47337 WT16     910      MECN     C1       CG331   -0.170000       12.0110           0
     47338 WT16     910      MECN     H11      HGA3     0.090000        1.0080           0
     47339 WT16     910      MECN     H12      HGA3     0.090000        1.0080           0
     47340 WT16     910      MECN     H13      HGA3     0.090000        1.0080           0
     47341 WT16     910      MECN     C2       CG1N1    0.360000       12.0110           0
     47342 WT16     910      MECN     N3       NG1T1   -0.460000       14.0070           0
     47343 WT16     911      MECN     C1       CG331   -0.170000       12.0110           0
     47344 WT16     911      MECN     H11      HGA3     0.090000        1.0080           0
     47345 WT16     911      MECN     H12      HGA3     0.090000        1.0080           0
     47346 WT16     911      MECN     H13      HGA3     0.090000        1.0080           0
     47347 WT16     911      MECN     C2       CG1N1    0.360000       12.0110           0
     47348 WT16     911      MECN     N3       NG1T1   -0.460000       14.0070           0
     47349 WT16     913      MECN     C1       CG331   -0.170000       12.0110           0
     47350 WT16     913      MECN     H11      HGA3     0.090000        1.0080           0
     47351 WT16     913      MECN     H12      HGA3     0.090000        1.0080           0
     47352 WT16     913      MECN     H13      HGA3     0.090000        1.0080           0
     47353 WT16     913      MECN     C2       CG1N1    0.360000       12.0110           0
     47354 WT16     913      MECN     N3       NG1T1   -0.460000       14.0070           0
     47355 WT16     914      MECN     C1       CG331   -0.170000       12.0110           0
     47356 WT16     914      MECN     H11      HGA3     0.090000        1.0080           0
     47357 WT16     914      MECN     H12      HGA3     0.090000        1.0080           0
     47358 WT16     914      MECN     H13      HGA3     0.090000        1.0080           0
     47359 WT16     914      MECN     C2       CG1N1    0.360000       12.0110           0
     47360 WT16     914      MECN     N3       NG1T1   -0.460000       14.0070           0
     47361 WT16     915      MECN     C1       CG331   -0.170000       12.0110           0
     47362 WT16     915      MECN     H11      HGA3     0.090000        1.0080           0
     47363 WT16     915      MECN     H12      HGA3     0.090000        1.0080           0
     47364 WT16     915      MECN     H13      HGA3     0.090000        1.0080           0
     47365 WT16     915      MECN     C2       CG1N1    0.360000       12.0110           0
     47366 WT16     915      MECN     N3       NG1T1   -0.460000       14.0070           0
     47367 WT16     916      MECN     C1       CG331   -0.170000       12.0110           0
     47368 WT16     916      MECN     H11      HGA3     0.090000        1.0080           0
     47369 WT16     916      MECN     H12      HGA3     0.090000        1.0080           0
     47370 WT16     916      MECN     H13      HGA3     0.090000        1.0080           0
     47371 WT16     916      MECN     C2       CG1N1    0.360000       12.0110           0
     47372 WT16     916      MECN     N3       NG1T1   -0.460000       14.0070           0
     47373 WT16     917      MECN     C1       CG331   -0.170000       12.0110           0
     47374 WT16     917      MECN     H11      HGA3     0.090000        1.0080           0
     47375 WT16     917      MECN     H12      HGA3     0.090000        1.0080           0
     47376 WT16     917      MECN     H13      HGA3     0.090000        1.0080           0
     47377 WT16     917      MECN     C2       CG1N1    0.360000       12.0110           0
     47378 WT16     917      MECN     N3       NG1T1   -0.460000       14.0070           0
     47379 WT16     918      MECN     C1       CG331   -0.170000       12.0110           0
     47380 WT16     918      MECN     H11      HGA3     0.090000        1.0080           0
     47381 WT16     918      MECN     H12      HGA3     0.090000        1.0080           0
     47382 WT16     918      MECN     H13      HGA3     0.090000        1.0080           0
     47383 WT16     918      MECN     C2       CG1N1    0.360000       12.0110           0
     47384 WT16     918      MECN     N3       NG1T1   -0.460000       14.0070           0
     47385 WT16     919      MECN     C1       CG331   -0.170000       12.0110           0
     47386 WT16     919      MECN     H11      HGA3     0.090000        1.0080           0
     47387 WT16     919      MECN     H12      HGA3     0.090000        1.0080           0
     47388 WT16     919      MECN     H13      HGA3     0.090000        1.0080           0
     47389 WT16     919      MECN     C2       CG1N1    0.360000       12.0110           0
     47390 WT16     919      MECN     N3       NG1T1   -0.460000       14.0070           0
     47391 WT16     922      MECN     C1       CG331   -0.170000       12.0110           0
     47392 WT16     922      MECN     H11      HGA3     0.090000        1.0080           0
     47393 WT16     922      MECN     H12      HGA3     0.090000        1.0080           0
     47394 WT16     922      MECN     H13      HGA3     0.090000        1.0080           0
     47395 WT16     922      MECN     C2       CG1N1    0.360000       12.0110           0
     47396 WT16     922      MECN     N3       NG1T1   -0.460000       14.0070           0
     47397 WT16     923      MECN     C1       CG331   -0.170000       12.0110           0
     47398 WT16     923      MECN     H11      HGA3     0.090000        1.0080           0
     47399 WT16     923      MECN     H12      HGA3     0.090000        1.0080           0
     47400 WT16     923      MECN     H13      HGA3     0.090000        1.0080           0
     47401 WT16     923      MECN     C2       CG1N1    0.360000       12.0110           0
     47402 WT16     923      MECN     N3       NG1T1   -0.460000       14.0070           0
     47403 WT16     924      MECN     C1       CG331   -0.170000       12.0110           0
     47404 WT16     924      MECN     H11      HGA3     0.090000        1.0080           0
     47405 WT16     924      MECN     H12      HGA3     0.090000        1.0080           0
     47406 WT16     924      MECN     H13      HGA3     0.090000        1.0080           0
     47407 WT16     924      MECN     C2       CG1N1    0.360000       12.0110           0
     47408 WT16     924      MECN     N3       NG1T1   -0.460000       14.0070           0
     47409 WT16     928      MECN     C1       CG331   -0.170000       12.0110           0
     47410 WT16     928      MECN     H11      HGA3     0.090000        1.0080           0
     47411 WT16     928      MECN     H12      HGA3     0.090000        1.0080           0
     47412 WT16     928      MECN     H13      HGA3     0.090000        1.0080           0
     47413 WT16     928      MECN     C2       CG1N1    0.360000       12.0110           0
     47414 WT16     928      MECN     N3       NG1T1   -0.460000       14.0070           0
     47415 WT16     935      MECN     C1       CG331   -0.170000       12.0110           0
     47416 WT16     935      MECN     H11      HGA3     0.090000        1.0080           0
     47417 WT16     935      MECN     H12      HGA3     0.090000        1.0080           0
     47418 WT16     935      MECN     H13      HGA3     0.090000        1.0080           0
     47419 WT16     935      MECN     C2       CG1N1    0.360000       12.0110           0
     47420 WT16     935      MECN     N3       NG1T1   -0.460000       14.0070           0
     47421 WT16     938      MECN     C1       CG331   -0.170000       12.0110           0
     47422 WT16     938      MECN     H11      HGA3     0.090000        1.0080           0
     47423 WT16     938      MECN     H12      HGA3     0.090000        1.0080           0
     47424 WT16     938      MECN     H13      HGA3     0.090000        1.0080           0
     47425 WT16     938      MECN     C2       CG1N1    0.360000       12.0110           0
     47426 WT16     938      MECN     N3       NG1T1   -0.460000       14.0070           0
     47427 WT16     941      MECN     C1       CG331   -0.170000       12.0110           0
     47428 WT16     941      MECN     H11      HGA3     0.090000        1.0080           0
     47429 WT16     941      MECN     H12      HGA3     0.090000        1.0080           0
     47430 WT16     941      MECN     H13      HGA3     0.090000        1.0080           0
     47431 WT16     941      MECN     C2       CG1N1    0.360000       12.0110           0
     47432 WT16     941      MECN     N3       NG1T1   -0.460000       14.0070           0
     47433 WT16     943      MECN     C1       CG331   -0.170000       12.0110           0
     47434 WT16     943      MECN     H11      HGA3     0.090000        1.0080           0
     47435 WT16     943      MECN     H12      HGA3     0.090000        1.0080           0
     47436 WT16     943      MECN     H13      HGA3     0.090000        1.0080           0
     47437 WT16     943      MECN     C2       CG1N1    0.360000       12.0110           0
     47438 WT16     943      MECN     N3       NG1T1   -0.460000       14.0070           0
     47439 WT16     945      MECN     C1       CG331   -0.170000       12.0110           0
     47440 WT16     945      MECN     H11      HGA3     0.090000        1.0080           0
     47441 WT16     945      MECN     H12      HGA3     0.090000        1.0080           0
     47442 WT16     945      MECN     H13      HGA3     0.090000        1.0080           0
     47443 WT16     945      MECN     C2       CG1N1    0.360000       12.0110           0
     47444 WT16     945      MECN     N3       NG1T1   -0.460000       14.0070           0
     47445 WT16     949      MECN     C1       CG331   -0.170000       12.0110           0
     47446 WT16     949      MECN     H11      HGA3     0.090000        1.0080           0
     47447 WT16     949      MECN     H12      HGA3     0.090000        1.0080           0
     47448 WT16     949      MECN     H13      HGA3     0.090000        1.0080           0
     47449 WT16     949      MECN     C2       CG1N1    0.360000       12.0110           0
     47450 WT16     949      MECN     N3       NG1T1   -0.460000       14.0070           0
     47451 WT16     951      MECN     C1       CG331   -0.170000       12.0110           0
     47452 WT16     951      MECN     H11      HGA3     0.090000        1.0080           0
     47453 WT16     951      MECN     H12      HGA3     0.090000        1.0080           0
     47454 WT16     951      MECN     H13      HGA3     0.090000        1.0080           0
     47455 WT16     951      MECN     C2       CG1N1    0.360000       12.0110           0
     47456 WT16     951      MECN     N3       NG1T1   -0.460000       14.0070           0
     47457 WT16     955      MECN     C1       CG331   -0.170000       12.0110           0
     47458 WT16     955      MECN     H11      HGA3     0.090000        1.0080           0
     47459 WT16     955      MECN     H12      HGA3     0.090000        1.0080           0
     47460 WT16     955      MECN     H13      HGA3     0.090000        1.0080           0
     47461 WT16     955      MECN     C2       CG1N1    0.360000       12.0110           0
     47462 WT16     955      MECN     N3       NG1T1   -0.460000       14.0070           0
     47463 WT16     956      MECN     C1       CG331   -0.170000       12.0110           0
     47464 WT16     956      MECN     H11      HGA3     0.090000        1.0080           0
     47465 WT16     956      MECN     H12      HGA3     0.090000        1.0080           0
     47466 WT16     956      MECN     H13      HGA3     0.090000        1.0080           0
     47467 WT16     956      MECN     C2       CG1N1    0.360000       12.0110           0
     47468 WT16     956      MECN     N3       NG1T1   -0.460000       14.0070           0
     47469 WT16     957      MECN     C1       CG331   -0.170000       12.0110           0
     47470 WT16     957      MECN     H11      HGA3     0.090000        1.0080           0
     47471 WT16     957      MECN     H12      HGA3     0.090000        1.0080           0
     47472 WT16     957      MECN     H13      HGA3     0.090000        1.0080           0
     47473 WT16     957      MECN     C2       CG1N1    0.360000       12.0110           0
     47474 WT16     957      MECN     N3       NG1T1   -0.460000       14.0070           0
     47475 WT16     961      MECN     C1       CG331   -0.170000       12.0110           0
     47476 WT16     961      MECN     H11      HGA3     0.090000        1.0080           0
     47477 WT16     961      MECN     H12      HGA3     0.090000        1.0080           0
     47478 WT16     961      MECN     H13      HGA3     0.090000        1.0080           0
     47479 WT16     961      MECN     C2       CG1N1    0.360000       12.0110           0
     47480 WT16     961      MECN     N3       NG1T1   -0.460000       14.0070           0
     47481 WT16     965      MECN     C1       CG331   -0.170000       12.0110           0
     47482 WT16     965      MECN     H11      HGA3     0.090000        1.0080           0
     47483 WT16     965      MECN     H12      HGA3     0.090000        1.0080           0
     47484 WT16     965      MECN     H13      HGA3     0.090000        1.0080           0
     47485 WT16     965      MECN     C2       CG1N1    0.360000       12.0110           0
     47486 WT16     965      MECN     N3       NG1T1   -0.460000       14.0070           0
     47487 WT16     966      MECN     C1       CG331   -0.170000       12.0110           0
     47488 WT16     966      MECN     H11      HGA3     0.090000        1.0080           0
     47489 WT16     966      MECN     H12      HGA3     0.090000        1.0080           0
     47490 WT16     966      MECN     H13      HGA3     0.090000        1.0080           0
     47491 WT16     966      MECN     C2       CG1N1    0.360000       12.0110           0
     47492 WT16     966      MECN     N3       NG1T1   -0.460000       14.0070           0
     47493 WT16     968      MECN     C1       CG331   -0.170000       12.0110           0
     47494 WT16     968      MECN     H11      HGA3     0.090000        1.0080           0
     47495 WT16     968      MECN     H12      HGA3     0.090000        1.0080           0
     47496 WT16     968      MECN     H13      HGA3     0.090000        1.0080           0
     47497 WT16     968      MECN     C2       CG1N1    0.360000       12.0110           0
     47498 WT16     968      MECN     N3       NG1T1   -0.460000       14.0070           0
     47499 WT16     978      MECN     C1       CG331   -0.170000       12.0110           0
     47500 WT16     978      MECN     H11      HGA3     0.090000        1.0080           0
     47501 WT16     978      MECN     H12      HGA3     0.090000        1.0080           0
     47502 WT16     978      MECN     H13      HGA3     0.090000        1.0080           0
     47503 WT16     978      MECN     C2       CG1N1    0.360000       12.0110           0
     47504 WT16     978      MECN     N3       NG1T1   -0.460000       14.0070           0
     47505 WT16     982      MECN     C1       CG331   -0.170000       12.0110           0
     47506 WT16     982      MECN     H11      HGA3     0.090000        1.0080           0
     47507 WT16     982      MECN     H12      HGA3     0.090000        1.0080           0
     47508 WT16     982      MECN     H13      HGA3     0.090000        1.0080           0
     47509 WT16     982      MECN     C2       CG1N1    0.360000       12.0110           0
     47510 WT16     982      MECN     N3       NG1T1   -0.460000       14.0070           0
     47511 WT16     984      MECN     C1       CG331   -0.170000       12.0110           0
     47512 WT16     984      MECN     H11      HGA3     0.090000        1.0080           0
     47513 WT16     984      MECN     H12      HGA3     0.090000        1.0080           0
     47514 WT16     984      MECN     H13      HGA3     0.090000        1.0080           0
     47515 WT16     984      MECN     C2       CG1N1    0.360000       12.0110           0
     47516 WT16     984      MECN     N3       NG1T1   -0.460000       14.0070           0
     47517 WT16     987      MECN     C1       CG331   -0.170000       12.0110           0
     47518 WT16     987      MECN     H11      HGA3     0.090000        1.0080           0
     47519 WT16     987      MECN     H12      HGA3     0.090000        1.0080           0
     47520 WT16     987      MECN     H13      HGA3     0.090000        1.0080           0
     47521 WT16     987      MECN     C2       CG1N1    0.360000       12.0110           0
     47522 WT16     987      MECN     N3       NG1T1   -0.460000       14.0070           0
     47523 WT16     988      MECN     C1       CG331   -0.170000       12.0110           0
     47524 WT16     988      MECN     H11      HGA3     0.090000        1.0080           0
     47525 WT16     988      MECN     H12      HGA3     0.090000        1.0080           0
     47526 WT16     988      MECN     H13      HGA3     0.090000        1.0080           0
     47527 WT16     988      MECN     C2       CG1N1    0.360000       12.0110           0
     47528 WT16     988      MECN     N3       NG1T1   -0.460000       14.0070           0
     47529 WT16     989      MECN     C1       CG331   -0.170000       12.0110           0
     47530 WT16     989      MECN     H11      HGA3     0.090000        1.0080           0
     47531 WT16     989      MECN     H12      HGA3     0.090000        1.0080           0
     47532 WT16     989      MECN     H13      HGA3     0.090000        1.0080           0
     47533 WT16     989      MECN     C2       CG1N1    0.360000       12.0110           0
     47534 WT16     989      MECN     N3       NG1T1   -0.460000       14.0070           0
     47535 WT16     990      MECN     C1       CG331   -0.170000       12.0110           0
     47536 WT16     990      MECN     H11      HGA3     0.090000        1.0080           0
     47537 WT16     990      MECN     H12      HGA3     0.090000        1.0080           0
     47538 WT16     990      MECN     H13      HGA3     0.090000        1.0080           0
     47539 WT16     990      MECN     C2       CG1N1    0.360000       12.0110           0
     47540 WT16     990      MECN     N3       NG1T1   -0.460000       14.0070           0
     47541 WT16     991      MECN     C1       CG331   -0.170000       12.0110           0
     47542 WT16     991      MECN     H11      HGA3     0.090000        1.0080           0
     47543 WT16     991      MECN     H12      HGA3     0.090000        1.0080           0
     47544 WT16     991      MECN     H13      HGA3     0.090000        1.0080           0
     47545 WT16     991      MECN     C2       CG1N1    0.360000       12.0110           0
     47546 WT16     991      MECN     N3       NG1T1   -0.460000       14.0070           0
     47547 WT16     993      MECN     C1       CG331   -0.170000       12.0110           0
     47548 WT16     993      MECN     H11      HGA3     0.090000        1.0080           0
     47549 WT16     993      MECN     H12      HGA3     0.090000        1.0080           0
     47550 WT16     993      MECN     H13      HGA3     0.090000        1.0080           0
     47551 WT16     993      MECN     C2       CG1N1    0.360000       12.0110           0
     47552 WT16     993      MECN     N3       NG1T1   -0.460000       14.0070           0
     47553 WT16     994      MECN     C1       CG331   -0.170000       12.0110           0
     47554 WT16     994      MECN     H11      HGA3     0.090000        1.0080           0
     47555 WT16     994      MECN     H12      HGA3     0.090000        1.0080           0
     47556 WT16     994      MECN     H13      HGA3     0.090000        1.0080           0
     47557 WT16     994      MECN     C2       CG1N1    0.360000       12.0110           0
     47558 WT16     994      MECN     N3       NG1T1   -0.460000       14.0070           0
     47559 WT16     999      MECN     C1       CG331   -0.170000       12.0110           0
     47560 WT16     999      MECN     H11      HGA3     0.090000        1.0080           0
     47561 WT16     999      MECN     H12      HGA3     0.090000        1.0080           0
     47562 WT16     999      MECN     H13      HGA3     0.090000        1.0080           0
     47563 WT16     999      MECN     C2       CG1N1    0.360000       12.0110           0
     47564 WT16     999      MECN     N3       NG1T1   -0.460000       14.0070           0
     47565 WT16     1004     MECN     C1       CG331   -0.170000       12.0110           0
     47566 WT16     1004     MECN     H11      HGA3     0.090000        1.0080           0
     47567 WT16     1004     MECN     H12      HGA3     0.090000        1.0080           0
     47568 WT16     1004     MECN     H13      HGA3     0.090000        1.0080           0
     47569 WT16     1004     MECN     C2       CG1N1    0.360000       12.0110           0
     47570 WT16     1004     MECN     N3       NG1T1   -0.460000       14.0070           0
     47571 WT16     1008     MECN     C1       CG331   -0.170000       12.0110           0
     47572 WT16     1008     MECN     H11      HGA3     0.090000        1.0080           0
     47573 WT16     1008     MECN     H12      HGA3     0.090000        1.0080           0
     47574 WT16     1008     MECN     H13      HGA3     0.090000        1.0080           0
     47575 WT16     1008     MECN     C2       CG1N1    0.360000       12.0110           0
     47576 WT16     1008     MECN     N3       NG1T1   -0.460000       14.0070           0
     47577 WT16     1009     MECN     C1       CG331   -0.170000       12.0110           0
     47578 WT16     1009     MECN     H11      HGA3     0.090000        1.0080           0
     47579 WT16     1009     MECN     H12      HGA3     0.090000        1.0080           0
     47580 WT16     1009     MECN     H13      HGA3     0.090000        1.0080           0
     47581 WT16     1009     MECN     C2       CG1N1    0.360000       12.0110           0
     47582 WT16     1009     MECN     N3       NG1T1   -0.460000       14.0070           0
     47583 WT16     1010     MECN     C1       CG331   -0.170000       12.0110           0
     47584 WT16     1010     MECN     H11      HGA3     0.090000        1.0080           0
     47585 WT16     1010     MECN     H12      HGA3     0.090000        1.0080           0
     47586 WT16     1010     MECN     H13      HGA3     0.090000        1.0080           0
     47587 WT16     1010     MECN     C2       CG1N1    0.360000       12.0110           0
     47588 WT16     1010     MECN     N3       NG1T1   -0.460000       14.0070           0
     47589 WT16     1011     MECN     C1       CG331   -0.170000       12.0110           0
     47590 WT16     1011     MECN     H11      HGA3     0.090000        1.0080           0
     47591 WT16     1011     MECN     H12      HGA3     0.090000        1.0080           0
     47592 WT16     1011     MECN     H13      HGA3     0.090000        1.0080           0
     47593 WT16     1011     MECN     C2       CG1N1    0.360000       12.0110           0
     47594 WT16     1011     MECN     N3       NG1T1   -0.460000       14.0070           0
     47595 WT16     1012     MECN     C1       CG331   -0.170000       12.0110           0
     47596 WT16     1012     MECN     H11      HGA3     0.090000        1.0080           0
     47597 WT16     1012     MECN     H12      HGA3     0.090000        1.0080           0
     47598 WT16     1012     MECN     H13      HGA3     0.090000        1.0080           0
     47599 WT16     1012     MECN     C2       CG1N1    0.360000       12.0110           0
     47600 WT16     1012     MECN     N3       NG1T1   -0.460000       14.0070           0
     47601 WT16     1014     MECN     C1       CG331   -0.170000       12.0110           0
     47602 WT16     1014     MECN     H11      HGA3     0.090000        1.0080           0
     47603 WT16     1014     MECN     H12      HGA3     0.090000        1.0080           0
     47604 WT16     1014     MECN     H13      HGA3     0.090000        1.0080           0
     47605 WT16     1014     MECN     C2       CG1N1    0.360000       12.0110           0
     47606 WT16     1014     MECN     N3       NG1T1   -0.460000       14.0070           0
     47607 WT16     1015     MECN     C1       CG331   -0.170000       12.0110           0
     47608 WT16     1015     MECN     H11      HGA3     0.090000        1.0080           0
     47609 WT16     1015     MECN     H12      HGA3     0.090000        1.0080           0
     47610 WT16     1015     MECN     H13      HGA3     0.090000        1.0080           0
     47611 WT16     1015     MECN     C2       CG1N1    0.360000       12.0110           0
     47612 WT16     1015     MECN     N3       NG1T1   -0.460000       14.0070           0
     47613 WT16     1019     MECN     C1       CG331   -0.170000       12.0110           0
     47614 WT16     1019     MECN     H11      HGA3     0.090000        1.0080           0
     47615 WT16     1019     MECN     H12      HGA3     0.090000        1.0080           0
     47616 WT16     1019     MECN     H13      HGA3     0.090000        1.0080           0
     47617 WT16     1019     MECN     C2       CG1N1    0.360000       12.0110           0
     47618 WT16     1019     MECN     N3       NG1T1   -0.460000       14.0070           0
     47619 WT16     1020     MECN     C1       CG331   -0.170000       12.0110           0
     47620 WT16     1020     MECN     H11      HGA3     0.090000        1.0080           0
     47621 WT16     1020     MECN     H12      HGA3     0.090000        1.0080           0
     47622 WT16     1020     MECN     H13      HGA3     0.090000        1.0080           0
     47623 WT16     1020     MECN     C2       CG1N1    0.360000       12.0110           0
     47624 WT16     1020     MECN     N3       NG1T1   -0.460000       14.0070           0
     47625 WT16     1023     MECN     C1       CG331   -0.170000       12.0110           0
     47626 WT16     1023     MECN     H11      HGA3     0.090000        1.0080           0
     47627 WT16     1023     MECN     H12      HGA3     0.090000        1.0080           0
     47628 WT16     1023     MECN     H13      HGA3     0.090000        1.0080           0
     47629 WT16     1023     MECN     C2       CG1N1    0.360000       12.0110           0
     47630 WT16     1023     MECN     N3       NG1T1   -0.460000       14.0070           0
     47631 WT16     1030     MECN     C1       CG331   -0.170000       12.0110           0
     47632 WT16     1030     MECN     H11      HGA3     0.090000        1.0080           0
     47633 WT16     1030     MECN     H12      HGA3     0.090000        1.0080           0
     47634 WT16     1030     MECN     H13      HGA3     0.090000        1.0080           0
     47635 WT16     1030     MECN     C2       CG1N1    0.360000       12.0110           0
     47636 WT16     1030     MECN     N3       NG1T1   -0.460000       14.0070           0
     47637 WT16     1033     MECN     C1       CG331   -0.170000       12.0110           0
     47638 WT16     1033     MECN     H11      HGA3     0.090000        1.0080           0
     47639 WT16     1033     MECN     H12      HGA3     0.090000        1.0080           0
     47640 WT16     1033     MECN     H13      HGA3     0.090000        1.0080           0
     47641 WT16     1033     MECN     C2       CG1N1    0.360000       12.0110           0
     47642 WT16     1033     MECN     N3       NG1T1   -0.460000       14.0070           0
     47643 WT16     1034     MECN     C1       CG331   -0.170000       12.0110           0
     47644 WT16     1034     MECN     H11      HGA3     0.090000        1.0080           0
     47645 WT16     1034     MECN     H12      HGA3     0.090000        1.0080           0
     47646 WT16     1034     MECN     H13      HGA3     0.090000        1.0080           0
     47647 WT16     1034     MECN     C2       CG1N1    0.360000       12.0110           0
     47648 WT16     1034     MECN     N3       NG1T1   -0.460000       14.0070           0
     47649 WT16     1035     MECN     C1       CG331   -0.170000       12.0110           0
     47650 WT16     1035     MECN     H11      HGA3     0.090000        1.0080           0
     47651 WT16     1035     MECN     H12      HGA3     0.090000        1.0080           0
     47652 WT16     1035     MECN     H13      HGA3     0.090000        1.0080           0
     47653 WT16     1035     MECN     C2       CG1N1    0.360000       12.0110           0
     47654 WT16     1035     MECN     N3       NG1T1   -0.460000       14.0070           0
     47655 WT16     1039     MECN     C1       CG331   -0.170000       12.0110           0
     47656 WT16     1039     MECN     H11      HGA3     0.090000        1.0080           0
     47657 WT16     1039     MECN     H12      HGA3     0.090000        1.0080           0
     47658 WT16     1039     MECN     H13      HGA3     0.090000        1.0080           0
     47659 WT16     1039     MECN     C2       CG1N1    0.360000       12.0110           0
     47660 WT16     1039     MECN     N3       NG1T1   -0.460000       14.0070           0
     47661 WT16     1043     MECN     C1       CG331   -0.170000       12.0110           0
     47662 WT16     1043     MECN     H11      HGA3     0.090000        1.0080           0
     47663 WT16     1043     MECN     H12      HGA3     0.090000        1.0080           0
     47664 WT16     1043     MECN     H13      HGA3     0.090000        1.0080           0
     47665 WT16     1043     MECN     C2       CG1N1    0.360000       12.0110           0
     47666 WT16     1043     MECN     N3       NG1T1   -0.460000       14.0070           0
     47667 WT16     1044     MECN     C1       CG331   -0.170000       12.0110           0
     47668 WT16     1044     MECN     H11      HGA3     0.090000        1.0080           0
     47669 WT16     1044     MECN     H12      HGA3     0.090000        1.0080           0
     47670 WT16     1044     MECN     H13      HGA3     0.090000        1.0080           0
     47671 WT16     1044     MECN     C2       CG1N1    0.360000       12.0110           0
     47672 WT16     1044     MECN     N3       NG1T1   -0.460000       14.0070           0
     47673 WT16     1048     MECN     C1       CG331   -0.170000       12.0110           0
     47674 WT16     1048     MECN     H11      HGA3     0.090000        1.0080           0
     47675 WT16     1048     MECN     H12      HGA3     0.090000        1.0080           0
     47676 WT16     1048     MECN     H13      HGA3     0.090000        1.0080           0
     47677 WT16     1048     MECN     C2       CG1N1    0.360000       12.0110           0
     47678 WT16     1048     MECN     N3       NG1T1   -0.460000       14.0070           0
     47679 WT16     1051     MECN     C1       CG331   -0.170000       12.0110           0
     47680 WT16     1051     MECN     H11      HGA3     0.090000        1.0080           0
     47681 WT16     1051     MECN     H12      HGA3     0.090000        1.0080           0
     47682 WT16     1051     MECN     H13      HGA3     0.090000        1.0080           0
     47683 WT16     1051     MECN     C2       CG1N1    0.360000       12.0110           0
     47684 WT16     1051     MECN     N3       NG1T1   -0.460000       14.0070           0
     47685 WT16     1053     MECN     C1       CG331   -0.170000       12.0110           0
     47686 WT16     1053     MECN     H11      HGA3     0.090000        1.0080           0
     47687 WT16     1053     MECN     H12      HGA3     0.090000        1.0080           0
     47688 WT16     1053     MECN     H13      HGA3     0.090000        1.0080           0
     47689 WT16     1053     MECN     C2       CG1N1    0.360000       12.0110           0
     47690 WT16     1053     MECN     N3       NG1T1   -0.460000       14.0070           0
     47691 WT16     1055     MECN     C1       CG331   -0.170000       12.0110           0
     47692 WT16     1055     MECN     H11      HGA3     0.090000        1.0080           0
     47693 WT16     1055     MECN     H12      HGA3     0.090000        1.0080           0
     47694 WT16     1055     MECN     H13      HGA3     0.090000        1.0080           0
     47695 WT16     1055     MECN     C2       CG1N1    0.360000       12.0110           0
     47696 WT16     1055     MECN     N3       NG1T1   -0.460000       14.0070           0
     47697 WT16     1057     MECN     C1       CG331   -0.170000       12.0110           0
     47698 WT16     1057     MECN     H11      HGA3     0.090000        1.0080           0
     47699 WT16     1057     MECN     H12      HGA3     0.090000        1.0080           0
     47700 WT16     1057     MECN     H13      HGA3     0.090000        1.0080           0
     47701 WT16     1057     MECN     C2       CG1N1    0.360000       12.0110           0
     47702 WT16     1057     MECN     N3       NG1T1   -0.460000       14.0070           0
     47703 WT16     1058     MECN     C1       CG331   -0.170000       12.0110           0
     47704 WT16     1058     MECN     H11      HGA3     0.090000        1.0080           0
     47705 WT16     1058     MECN     H12      HGA3     0.090000        1.0080           0
     47706 WT16     1058     MECN     H13      HGA3     0.090000        1.0080           0
     47707 WT16     1058     MECN     C2       CG1N1    0.360000       12.0110           0
     47708 WT16     1058     MECN     N3       NG1T1   -0.460000       14.0070           0
     47709 WT16     1059     MECN     C1       CG331   -0.170000       12.0110           0
     47710 WT16     1059     MECN     H11      HGA3     0.090000        1.0080           0
     47711 WT16     1059     MECN     H12      HGA3     0.090000        1.0080           0
     47712 WT16     1059     MECN     H13      HGA3     0.090000        1.0080           0
     47713 WT16     1059     MECN     C2       CG1N1    0.360000       12.0110           0
     47714 WT16     1059     MECN     N3       NG1T1   -0.460000       14.0070           0
     47715 WT16     1062     MECN     C1       CG331   -0.170000       12.0110           0
     47716 WT16     1062     MECN     H11      HGA3     0.090000        1.0080           0
     47717 WT16     1062     MECN     H12      HGA3     0.090000        1.0080           0
     47718 WT16     1062     MECN     H13      HGA3     0.090000        1.0080           0
     47719 WT16     1062     MECN     C2       CG1N1    0.360000       12.0110           0
     47720 WT16     1062     MECN     N3       NG1T1   -0.460000       14.0070           0
     47721 WT16     1063     MECN     C1       CG331   -0.170000       12.0110           0
     47722 WT16     1063     MECN     H11      HGA3     0.090000        1.0080           0
     47723 WT16     1063     MECN     H12      HGA3     0.090000        1.0080           0
     47724 WT16     1063     MECN     H13      HGA3     0.090000        1.0080           0
     47725 WT16     1063     MECN     C2       CG1N1    0.360000       12.0110           0
     47726 WT16     1063     MECN     N3       NG1T1   -0.460000       14.0070           0
     47727 WT16     1068     MECN     C1       CG331   -0.170000       12.0110           0
     47728 WT16     1068     MECN     H11      HGA3     0.090000        1.0080           0
     47729 WT16     1068     MECN     H12      HGA3     0.090000        1.0080           0
     47730 WT16     1068     MECN     H13      HGA3     0.090000        1.0080           0
     47731 WT16     1068     MECN     C2       CG1N1    0.360000       12.0110           0
     47732 WT16     1068     MECN     N3       NG1T1   -0.460000       14.0070           0
     47733 WT16     1071     MECN     C1       CG331   -0.170000       12.0110           0
     47734 WT16     1071     MECN     H11      HGA3     0.090000        1.0080           0
     47735 WT16     1071     MECN     H12      HGA3     0.090000        1.0080           0
     47736 WT16     1071     MECN     H13      HGA3     0.090000        1.0080           0
     47737 WT16     1071     MECN     C2       CG1N1    0.360000       12.0110           0
     47738 WT16     1071     MECN     N3       NG1T1   -0.460000       14.0070           0
     47739 WT16     1072     MECN     C1       CG331   -0.170000       12.0110           0
     47740 WT16     1072     MECN     H11      HGA3     0.090000        1.0080           0
     47741 WT16     1072     MECN     H12      HGA3     0.090000        1.0080           0
     47742 WT16     1072     MECN     H13      HGA3     0.090000        1.0080           0
     47743 WT16     1072     MECN     C2       CG1N1    0.360000       12.0110           0
     47744 WT16     1072     MECN     N3       NG1T1   -0.460000       14.0070           0
     47745 WT16     1075     MECN     C1       CG331   -0.170000       12.0110           0
     47746 WT16     1075     MECN     H11      HGA3     0.090000        1.0080           0
     47747 WT16     1075     MECN     H12      HGA3     0.090000        1.0080           0
     47748 WT16     1075     MECN     H13      HGA3     0.090000        1.0080           0
     47749 WT16     1075     MECN     C2       CG1N1    0.360000       12.0110           0
     47750 WT16     1075     MECN     N3       NG1T1   -0.460000       14.0070           0
     47751 WT16     1076     MECN     C1       CG331   -0.170000       12.0110           0
     47752 WT16     1076     MECN     H11      HGA3     0.090000        1.0080           0
     47753 WT16     1076     MECN     H12      HGA3     0.090000        1.0080           0
     47754 WT16     1076     MECN     H13      HGA3     0.090000        1.0080           0
     47755 WT16     1076     MECN     C2       CG1N1    0.360000       12.0110           0
     47756 WT16     1076     MECN     N3       NG1T1   -0.460000       14.0070           0
     47757 WT16     1080     MECN     C1       CG331   -0.170000       12.0110           0
     47758 WT16     1080     MECN     H11      HGA3     0.090000        1.0080           0
     47759 WT16     1080     MECN     H12      HGA3     0.090000        1.0080           0
     47760 WT16     1080     MECN     H13      HGA3     0.090000        1.0080           0
     47761 WT16     1080     MECN     C2       CG1N1    0.360000       12.0110           0
     47762 WT16     1080     MECN     N3       NG1T1   -0.460000       14.0070           0
     47763 WT16     1081     MECN     C1       CG331   -0.170000       12.0110           0
     47764 WT16     1081     MECN     H11      HGA3     0.090000        1.0080           0
     47765 WT16     1081     MECN     H12      HGA3     0.090000        1.0080           0
     47766 WT16     1081     MECN     H13      HGA3     0.090000        1.0080           0
     47767 WT16     1081     MECN     C2       CG1N1    0.360000       12.0110           0
     47768 WT16     1081     MECN     N3       NG1T1   -0.460000       14.0070           0
     47769 WT16     1084     MECN     C1       CG331   -0.170000       12.0110           0
     47770 WT16     1084     MECN     H11      HGA3     0.090000        1.0080           0
     47771 WT16     1084     MECN     H12      HGA3     0.090000        1.0080           0
     47772 WT16     1084     MECN     H13      HGA3     0.090000        1.0080           0
     47773 WT16     1084     MECN     C2       CG1N1    0.360000       12.0110           0
     47774 WT16     1084     MECN     N3       NG1T1   -0.460000       14.0070           0
     47775 WT16     1085     MECN     C1       CG331   -0.170000       12.0110           0
     47776 WT16     1085     MECN     H11      HGA3     0.090000        1.0080           0
     47777 WT16     1085     MECN     H12      HGA3     0.090000        1.0080           0
     47778 WT16     1085     MECN     H13      HGA3     0.090000        1.0080           0
     47779 WT16     1085     MECN     C2       CG1N1    0.360000       12.0110           0
     47780 WT16     1085     MECN     N3       NG1T1   -0.460000       14.0070           0
     47781 WT16     1089     MECN     C1       CG331   -0.170000       12.0110           0
     47782 WT16     1089     MECN     H11      HGA3     0.090000        1.0080           0
     47783 WT16     1089     MECN     H12      HGA3     0.090000        1.0080           0
     47784 WT16     1089     MECN     H13      HGA3     0.090000        1.0080           0
     47785 WT16     1089     MECN     C2       CG1N1    0.360000       12.0110           0
     47786 WT16     1089     MECN     N3       NG1T1   -0.460000       14.0070           0
     47787 WT16     1091     MECN     C1       CG331   -0.170000       12.0110           0
     47788 WT16     1091     MECN     H11      HGA3     0.090000        1.0080           0
     47789 WT16     1091     MECN     H12      HGA3     0.090000        1.0080           0
     47790 WT16     1091     MECN     H13      HGA3     0.090000        1.0080           0
     47791 WT16     1091     MECN     C2       CG1N1    0.360000       12.0110           0
     47792 WT16     1091     MECN     N3       NG1T1   -0.460000       14.0070           0
     47793 WT16     1093     MECN     C1       CG331   -0.170000       12.0110           0
     47794 WT16     1093     MECN     H11      HGA3     0.090000        1.0080           0
     47795 WT16     1093     MECN     H12      HGA3     0.090000        1.0080           0
     47796 WT16     1093     MECN     H13      HGA3     0.090000        1.0080           0
     47797 WT16     1093     MECN     C2       CG1N1    0.360000       12.0110           0
     47798 WT16     1093     MECN     N3       NG1T1   -0.460000       14.0070           0
     47799 WT16     1094     MECN     C1       CG331   -0.170000       12.0110           0
     47800 WT16     1094     MECN     H11      HGA3     0.090000        1.0080           0
     47801 WT16     1094     MECN     H12      HGA3     0.090000        1.0080           0
     47802 WT16     1094     MECN     H13      HGA3     0.090000        1.0080           0
     47803 WT16     1094     MECN     C2       CG1N1    0.360000       12.0110           0
     47804 WT16     1094     MECN     N3       NG1T1   -0.460000       14.0070           0
     47805 WT16     1095     MECN     C1       CG331   -0.170000       12.0110           0
     47806 WT16     1095     MECN     H11      HGA3     0.090000        1.0080           0
     47807 WT16     1095     MECN     H12      HGA3     0.090000        1.0080           0
     47808 WT16     1095     MECN     H13      HGA3     0.090000        1.0080           0
     47809 WT16     1095     MECN     C2       CG1N1    0.360000       12.0110           0
     47810 WT16     1095     MECN     N3       NG1T1   -0.460000       14.0070           0
     47811 WT16     1102     MECN     C1       CG331   -0.170000       12.0110           0
     47812 WT16     1102     MECN     H11      HGA3     0.090000        1.0080           0
     47813 WT16     1102     MECN     H12      HGA3     0.090000        1.0080           0
     47814 WT16     1102     MECN     H13      HGA3     0.090000        1.0080           0
     47815 WT16     1102     MECN     C2       CG1N1    0.360000       12.0110           0
     47816 WT16     1102     MECN     N3       NG1T1   -0.460000       14.0070           0
     47817 WT16     1106     MECN     C1       CG331   -0.170000       12.0110           0
     47818 WT16     1106     MECN     H11      HGA3     0.090000        1.0080           0
     47819 WT16     1106     MECN     H12      HGA3     0.090000        1.0080           0
     47820 WT16     1106     MECN     H13      HGA3     0.090000        1.0080           0
     47821 WT16     1106     MECN     C2       CG1N1    0.360000       12.0110           0
     47822 WT16     1106     MECN     N3       NG1T1   -0.460000       14.0070           0
     47823 WT16     1107     MECN     C1       CG331   -0.170000       12.0110           0
     47824 WT16     1107     MECN     H11      HGA3     0.090000        1.0080           0
     47825 WT16     1107     MECN     H12      HGA3     0.090000        1.0080           0
     47826 WT16     1107     MECN     H13      HGA3     0.090000        1.0080           0
     47827 WT16     1107     MECN     C2       CG1N1    0.360000       12.0110           0
     47828 WT16     1107     MECN     N3       NG1T1   -0.460000       14.0070           0
     47829 WT16     1109     MECN     C1       CG331   -0.170000       12.0110           0
     47830 WT16     1109     MECN     H11      HGA3     0.090000        1.0080           0
     47831 WT16     1109     MECN     H12      HGA3     0.090000        1.0080           0
     47832 WT16     1109     MECN     H13      HGA3     0.090000        1.0080           0
     47833 WT16     1109     MECN     C2       CG1N1    0.360000       12.0110           0
     47834 WT16     1109     MECN     N3       NG1T1   -0.460000       14.0070           0
     47835 WT16     1115     MECN     C1       CG331   -0.170000       12.0110           0
     47836 WT16     1115     MECN     H11      HGA3     0.090000        1.0080           0
     47837 WT16     1115     MECN     H12      HGA3     0.090000        1.0080           0
     47838 WT16     1115     MECN     H13      HGA3     0.090000        1.0080           0
     47839 WT16     1115     MECN     C2       CG1N1    0.360000       12.0110           0
     47840 WT16     1115     MECN     N3       NG1T1   -0.460000       14.0070           0
     47841 WT16     1117     MECN     C1       CG331   -0.170000       12.0110           0
     47842 WT16     1117     MECN     H11      HGA3     0.090000        1.0080           0
     47843 WT16     1117     MECN     H12      HGA3     0.090000        1.0080           0
     47844 WT16     1117     MECN     H13      HGA3     0.090000        1.0080           0
     47845 WT16     1117     MECN     C2       CG1N1    0.360000       12.0110           0
     47846 WT16     1117     MECN     N3       NG1T1   -0.460000       14.0070           0
     47847 WT16     1120     MECN     C1       CG331   -0.170000       12.0110           0
     47848 WT16     1120     MECN     H11      HGA3     0.090000        1.0080           0
     47849 WT16     1120     MECN     H12      HGA3     0.090000        1.0080           0
     47850 WT16     1120     MECN     H13      HGA3     0.090000        1.0080           0
     47851 WT16     1120     MECN     C2       CG1N1    0.360000       12.0110           0
     47852 WT16     1120     MECN     N3       NG1T1   -0.460000       14.0070           0
     47853 WT16     1122     MECN     C1       CG331   -0.170000       12.0110           0
     47854 WT16     1122     MECN     H11      HGA3     0.090000        1.0080           0
     47855 WT16     1122     MECN     H12      HGA3     0.090000        1.0080           0
     47856 WT16     1122     MECN     H13      HGA3     0.090000        1.0080           0
     47857 WT16     1122     MECN     C2       CG1N1    0.360000       12.0110           0
     47858 WT16     1122     MECN     N3       NG1T1   -0.460000       14.0070           0
     47859 WT16     1124     MECN     C1       CG331   -0.170000       12.0110           0
     47860 WT16     1124     MECN     H11      HGA3     0.090000        1.0080           0
     47861 WT16     1124     MECN     H12      HGA3     0.090000        1.0080           0
     47862 WT16     1124     MECN     H13      HGA3     0.090000        1.0080           0
     47863 WT16     1124     MECN     C2       CG1N1    0.360000       12.0110           0
     47864 WT16     1124     MECN     N3       NG1T1   -0.460000       14.0070           0
     47865 WT16     1125     MECN     C1       CG331   -0.170000       12.0110           0
     47866 WT16     1125     MECN     H11      HGA3     0.090000        1.0080           0
     47867 WT16     1125     MECN     H12      HGA3     0.090000        1.0080           0
     47868 WT16     1125     MECN     H13      HGA3     0.090000        1.0080           0
     47869 WT16     1125     MECN     C2       CG1N1    0.360000       12.0110           0
     47870 WT16     1125     MECN     N3       NG1T1   -0.460000       14.0070           0
     47871 WT16     1126     MECN     C1       CG331   -0.170000       12.0110           0
     47872 WT16     1126     MECN     H11      HGA3     0.090000        1.0080           0
     47873 WT16     1126     MECN     H12      HGA3     0.090000        1.0080           0
     47874 WT16     1126     MECN     H13      HGA3     0.090000        1.0080           0
     47875 WT16     1126     MECN     C2       CG1N1    0.360000       12.0110           0
     47876 WT16     1126     MECN     N3       NG1T1   -0.460000       14.0070           0
     47877 WT16     1131     MECN     C1       CG331   -0.170000       12.0110           0
     47878 WT16     1131     MECN     H11      HGA3     0.090000        1.0080           0
     47879 WT16     1131     MECN     H12      HGA3     0.090000        1.0080           0
     47880 WT16     1131     MECN     H13      HGA3     0.090000        1.0080           0
     47881 WT16     1131     MECN     C2       CG1N1    0.360000       12.0110           0
     47882 WT16     1131     MECN     N3       NG1T1   -0.460000       14.0070           0
     47883 WT16     1132     MECN     C1       CG331   -0.170000       12.0110           0
     47884 WT16     1132     MECN     H11      HGA3     0.090000        1.0080           0
     47885 WT16     1132     MECN     H12      HGA3     0.090000        1.0080           0
     47886 WT16     1132     MECN     H13      HGA3     0.090000        1.0080           0
     47887 WT16     1132     MECN     C2       CG1N1    0.360000       12.0110           0
     47888 WT16     1132     MECN     N3       NG1T1   -0.460000       14.0070           0
     47889 WT16     1136     MECN     C1       CG331   -0.170000       12.0110           0
     47890 WT16     1136     MECN     H11      HGA3     0.090000        1.0080           0
     47891 WT16     1136     MECN     H12      HGA3     0.090000        1.0080           0
     47892 WT16     1136     MECN     H13      HGA3     0.090000        1.0080           0
     47893 WT16     1136     MECN     C2       CG1N1    0.360000       12.0110           0
     47894 WT16     1136     MECN     N3       NG1T1   -0.460000       14.0070           0
     47895 WT16     1137     MECN     C1       CG331   -0.170000       12.0110           0
     47896 WT16     1137     MECN     H11      HGA3     0.090000        1.0080           0
     47897 WT16     1137     MECN     H12      HGA3     0.090000        1.0080           0
     47898 WT16     1137     MECN     H13      HGA3     0.090000        1.0080           0
     47899 WT16     1137     MECN     C2       CG1N1    0.360000       12.0110           0
     47900 WT16     1137     MECN     N3       NG1T1   -0.460000       14.0070           0
     47901 WT16     1146     MECN     C1       CG331   -0.170000       12.0110           0
     47902 WT16     1146     MECN     H11      HGA3     0.090000        1.0080           0
     47903 WT16     1146     MECN     H12      HGA3     0.090000        1.0080           0
     47904 WT16     1146     MECN     H13      HGA3     0.090000        1.0080           0
     47905 WT16     1146     MECN     C2       CG1N1    0.360000       12.0110           0
     47906 WT16     1146     MECN     N3       NG1T1   -0.460000       14.0070           0
     47907 WT16     1147     MECN     C1       CG331   -0.170000       12.0110           0
     47908 WT16     1147     MECN     H11      HGA3     0.090000        1.0080           0
     47909 WT16     1147     MECN     H12      HGA3     0.090000        1.0080           0
     47910 WT16     1147     MECN     H13      HGA3     0.090000        1.0080           0
     47911 WT16     1147     MECN     C2       CG1N1    0.360000       12.0110           0
     47912 WT16     1147     MECN     N3       NG1T1   -0.460000       14.0070           0
     47913 WT16     1148     MECN     C1       CG331   -0.170000       12.0110           0
     47914 WT16     1148     MECN     H11      HGA3     0.090000        1.0080           0
     47915 WT16     1148     MECN     H12      HGA3     0.090000        1.0080           0
     47916 WT16     1148     MECN     H13      HGA3     0.090000        1.0080           0
     47917 WT16     1148     MECN     C2       CG1N1    0.360000       12.0110           0
     47918 WT16     1148     MECN     N3       NG1T1   -0.460000       14.0070           0
     47919 WT16     1155     MECN     C1       CG331   -0.170000       12.0110           0
     47920 WT16     1155     MECN     H11      HGA3     0.090000        1.0080           0
     47921 WT16     1155     MECN     H12      HGA3     0.090000        1.0080           0
     47922 WT16     1155     MECN     H13      HGA3     0.090000        1.0080           0
     47923 WT16     1155     MECN     C2       CG1N1    0.360000       12.0110           0
     47924 WT16     1155     MECN     N3       NG1T1   -0.460000       14.0070           0
     47925 WT16     1156     MECN     C1       CG331   -0.170000       12.0110           0
     47926 WT16     1156     MECN     H11      HGA3     0.090000        1.0080           0
     47927 WT16     1156     MECN     H12      HGA3     0.090000        1.0080           0
     47928 WT16     1156     MECN     H13      HGA3     0.090000        1.0080           0
     47929 WT16     1156     MECN     C2       CG1N1    0.360000       12.0110           0
     47930 WT16     1156     MECN     N3       NG1T1   -0.460000       14.0070           0
     47931 WT16     1158     MECN     C1       CG331   -0.170000       12.0110           0
     47932 WT16     1158     MECN     H11      HGA3     0.090000        1.0080           0
     47933 WT16     1158     MECN     H12      HGA3     0.090000        1.0080           0
     47934 WT16     1158     MECN     H13      HGA3     0.090000        1.0080           0
     47935 WT16     1158     MECN     C2       CG1N1    0.360000       12.0110           0
     47936 WT16     1158     MECN     N3       NG1T1   -0.460000       14.0070           0
     47937 WT16     1161     MECN     C1       CG331   -0.170000       12.0110           0
     47938 WT16     1161     MECN     H11      HGA3     0.090000        1.0080           0
     47939 WT16     1161     MECN     H12      HGA3     0.090000        1.0080           0
     47940 WT16     1161     MECN     H13      HGA3     0.090000        1.0080           0
     47941 WT16     1161     MECN     C2       CG1N1    0.360000       12.0110           0
     47942 WT16     1161     MECN     N3       NG1T1   -0.460000       14.0070           0
     47943 WT16     1163     MECN     C1       CG331   -0.170000       12.0110           0
     47944 WT16     1163     MECN     H11      HGA3     0.090000        1.0080           0
     47945 WT16     1163     MECN     H12      HGA3     0.090000        1.0080           0
     47946 WT16     1163     MECN     H13      HGA3     0.090000        1.0080           0
     47947 WT16     1163     MECN     C2       CG1N1    0.360000       12.0110           0
     47948 WT16     1163     MECN     N3       NG1T1   -0.460000       14.0070           0
     47949 WT16     1168     MECN     C1       CG331   -0.170000       12.0110           0
     47950 WT16     1168     MECN     H11      HGA3     0.090000        1.0080           0
     47951 WT16     1168     MECN     H12      HGA3     0.090000        1.0080           0
     47952 WT16     1168     MECN     H13      HGA3     0.090000        1.0080           0
     47953 WT16     1168     MECN     C2       CG1N1    0.360000       12.0110           0
     47954 WT16     1168     MECN     N3       NG1T1   -0.460000       14.0070           0
     47955 WT16     1171     MECN     C1       CG331   -0.170000       12.0110           0
     47956 WT16     1171     MECN     H11      HGA3     0.090000        1.0080           0
     47957 WT16     1171     MECN     H12      HGA3     0.090000        1.0080           0
     47958 WT16     1171     MECN     H13      HGA3     0.090000        1.0080           0
     47959 WT16     1171     MECN     C2       CG1N1    0.360000       12.0110           0
     47960 WT16     1171     MECN     N3       NG1T1   -0.460000       14.0070           0
     47961 WT16     1178     MECN     C1       CG331   -0.170000       12.0110           0
     47962 WT16     1178     MECN     H11      HGA3     0.090000        1.0080           0
     47963 WT16     1178     MECN     H12      HGA3     0.090000        1.0080           0
     47964 WT16     1178     MECN     H13      HGA3     0.090000        1.0080           0
     47965 WT16     1178     MECN     C2       CG1N1    0.360000       12.0110           0
     47966 WT16     1178     MECN     N3       NG1T1   -0.460000       14.0070           0
     47967 WT16     1181     MECN     C1       CG331   -0.170000       12.0110           0
     47968 WT16     1181     MECN     H11      HGA3     0.090000        1.0080           0
     47969 WT16     1181     MECN     H12      HGA3     0.090000        1.0080           0
     47970 WT16     1181     MECN     H13      HGA3     0.090000        1.0080           0
     47971 WT16     1181     MECN     C2       CG1N1    0.360000       12.0110           0
     47972 WT16     1181     MECN     N3       NG1T1   -0.460000       14.0070           0
     47973 WT16     1184     MECN     C1       CG331   -0.170000       12.0110           0
     47974 WT16     1184     MECN     H11      HGA3     0.090000        1.0080           0
     47975 WT16     1184     MECN     H12      HGA3     0.090000        1.0080           0
     47976 WT16     1184     MECN     H13      HGA3     0.090000        1.0080           0
     47977 WT16     1184     MECN     C2       CG1N1    0.360000       12.0110           0
     47978 WT16     1184     MECN     N3       NG1T1   -0.460000       14.0070           0
     47979 WT16     1188     MECN     C1       CG331   -0.170000       12.0110           0
     47980 WT16     1188     MECN     H11      HGA3     0.090000        1.0080           0
     47981 WT16     1188     MECN     H12      HGA3     0.090000        1.0080           0
     47982 WT16     1188     MECN     H13      HGA3     0.090000        1.0080           0
     47983 WT16     1188     MECN     C2       CG1N1    0.360000       12.0110           0
     47984 WT16     1188     MECN     N3       NG1T1   -0.460000       14.0070           0
     47985 WT16     1193     MECN     C1       CG331   -0.170000       12.0110           0
     47986 WT16     1193     MECN     H11      HGA3     0.090000        1.0080           0
     47987 WT16     1193     MECN     H12      HGA3     0.090000        1.0080           0
     47988 WT16     1193     MECN     H13      HGA3     0.090000        1.0080           0
     47989 WT16     1193     MECN     C2       CG1N1    0.360000       12.0110           0
     47990 WT16     1193     MECN     N3       NG1T1   -0.460000       14.0070           0
     47991 WT16     1196     MECN     C1       CG331   -0.170000       12.0110           0
     47992 WT16     1196     MECN     H11      HGA3     0.090000        1.0080           0
     47993 WT16     1196     MECN     H12      HGA3     0.090000        1.0080           0
     47994 WT16     1196     MECN     H13      HGA3     0.090000        1.0080           0
     47995 WT16     1196     MECN     C2       CG1N1    0.360000       12.0110           0
     47996 WT16     1196     MECN     N3       NG1T1   -0.460000       14.0070           0
     47997 WT16     1197     MECN     C1       CG331   -0.170000       12.0110           0
     47998 WT16     1197     MECN     H11      HGA3     0.090000        1.0080           0
     47999 WT16     1197     MECN     H12      HGA3     0.090000        1.0080           0
     48000 WT16     1197     MECN     H13      HGA3     0.090000        1.0080           0
     48001 WT16     1197     MECN     C2       CG1N1    0.360000       12.0110           0
     48002 WT16     1197     MECN     N3       NG1T1   -0.460000       14.0070           0
     48003 WT16     1200     MECN     C1       CG331   -0.170000       12.0110           0
     48004 WT16     1200     MECN     H11      HGA3     0.090000        1.0080           0
     48005 WT16     1200     MECN     H12      HGA3     0.090000        1.0080           0
     48006 WT16     1200     MECN     H13      HGA3     0.090000        1.0080           0
     48007 WT16     1200     MECN     C2       CG1N1    0.360000       12.0110           0
     48008 WT16     1200     MECN     N3       NG1T1   -0.460000       14.0070           0
     48009 WT16     1207     MECN     C1       CG331   -0.170000       12.0110           0
     48010 WT16     1207     MECN     H11      HGA3     0.090000        1.0080           0
     48011 WT16     1207     MECN     H12      HGA3     0.090000        1.0080           0
     48012 WT16     1207     MECN     H13      HGA3     0.090000        1.0080           0
     48013 WT16     1207     MECN     C2       CG1N1    0.360000       12.0110           0
     48014 WT16     1207     MECN     N3       NG1T1   -0.460000       14.0070           0
     48015 WT16     1210     MECN     C1       CG331   -0.170000       12.0110           0
     48016 WT16     1210     MECN     H11      HGA3     0.090000        1.0080           0
     48017 WT16     1210     MECN     H12      HGA3     0.090000        1.0080           0
     48018 WT16     1210     MECN     H13      HGA3     0.090000        1.0080           0
     48019 WT16     1210     MECN     C2       CG1N1    0.360000       12.0110           0
     48020 WT16     1210     MECN     N3       NG1T1   -0.460000       14.0070           0
     48021 WT16     1211     MECN     C1       CG331   -0.170000       12.0110           0
     48022 WT16     1211     MECN     H11      HGA3     0.090000        1.0080           0
     48023 WT16     1211     MECN     H12      HGA3     0.090000        1.0080           0
     48024 WT16     1211     MECN     H13      HGA3     0.090000        1.0080           0
     48025 WT16     1211     MECN     C2       CG1N1    0.360000       12.0110           0
     48026 WT16     1211     MECN     N3       NG1T1   -0.460000       14.0070           0
     48027 WT16     1215     MECN     C1       CG331   -0.170000       12.0110           0
     48028 WT16     1215     MECN     H11      HGA3     0.090000        1.0080           0
     48029 WT16     1215     MECN     H12      HGA3     0.090000        1.0080           0
     48030 WT16     1215     MECN     H13      HGA3     0.090000        1.0080           0
     48031 WT16     1215     MECN     C2       CG1N1    0.360000       12.0110           0
     48032 WT16     1215     MECN     N3       NG1T1   -0.460000       14.0070           0
     48033 WT16     1218     MECN     C1       CG331   -0.170000       12.0110           0
     48034 WT16     1218     MECN     H11      HGA3     0.090000        1.0080           0
     48035 WT16     1218     MECN     H12      HGA3     0.090000        1.0080           0
     48036 WT16     1218     MECN     H13      HGA3     0.090000        1.0080           0
     48037 WT16     1218     MECN     C2       CG1N1    0.360000       12.0110           0
     48038 WT16     1218     MECN     N3       NG1T1   -0.460000       14.0070           0
     48039 WT16     1220     MECN     C1       CG331   -0.170000       12.0110           0
     48040 WT16     1220     MECN     H11      HGA3     0.090000        1.0080           0
     48041 WT16     1220     MECN     H12      HGA3     0.090000        1.0080           0
     48042 WT16     1220     MECN     H13      HGA3     0.090000        1.0080           0
     48043 WT16     1220     MECN     C2       CG1N1    0.360000       12.0110           0
     48044 WT16     1220     MECN     N3       NG1T1   -0.460000       14.0070           0
     48045 WT16     1222     MECN     C1       CG331   -0.170000       12.0110           0
     48046 WT16     1222     MECN     H11      HGA3     0.090000        1.0080           0
     48047 WT16     1222     MECN     H12      HGA3     0.090000        1.0080           0
     48048 WT16     1222     MECN     H13      HGA3     0.090000        1.0080           0
     48049 WT16     1222     MECN     C2       CG1N1    0.360000       12.0110           0
     48050 WT16     1222     MECN     N3       NG1T1   -0.460000       14.0070           0
     48051 WT16     1229     MECN     C1       CG331   -0.170000       12.0110           0
     48052 WT16     1229     MECN     H11      HGA3     0.090000        1.0080           0
     48053 WT16     1229     MECN     H12      HGA3     0.090000        1.0080           0
     48054 WT16     1229     MECN     H13      HGA3     0.090000        1.0080           0
     48055 WT16     1229     MECN     C2       CG1N1    0.360000       12.0110           0
     48056 WT16     1229     MECN     N3       NG1T1   -0.460000       14.0070           0
     48057 WT16     1230     MECN     C1       CG331   -0.170000       12.0110           0
     48058 WT16     1230     MECN     H11      HGA3     0.090000        1.0080           0
     48059 WT16     1230     MECN     H12      HGA3     0.090000        1.0080           0
     48060 WT16     1230     MECN     H13      HGA3     0.090000        1.0080           0
     48061 WT16     1230     MECN     C2       CG1N1    0.360000       12.0110           0
     48062 WT16     1230     MECN     N3       NG1T1   -0.460000       14.0070           0
     48063 WT16     1234     MECN     C1       CG331   -0.170000       12.0110           0
     48064 WT16     1234     MECN     H11      HGA3     0.090000        1.0080           0
     48065 WT16     1234     MECN     H12      HGA3     0.090000        1.0080           0
     48066 WT16     1234     MECN     H13      HGA3     0.090000        1.0080           0
     48067 WT16     1234     MECN     C2       CG1N1    0.360000       12.0110           0
     48068 WT16     1234     MECN     N3       NG1T1   -0.460000       14.0070           0
     48069 WT16     1239     MECN     C1       CG331   -0.170000       12.0110           0
     48070 WT16     1239     MECN     H11      HGA3     0.090000        1.0080           0
     48071 WT16     1239     MECN     H12      HGA3     0.090000        1.0080           0
     48072 WT16     1239     MECN     H13      HGA3     0.090000        1.0080           0
     48073 WT16     1239     MECN     C2       CG1N1    0.360000       12.0110           0
     48074 WT16     1239     MECN     N3       NG1T1   -0.460000       14.0070           0
     48075 WT16     1245     MECN     C1       CG331   -0.170000       12.0110           0
     48076 WT16     1245     MECN     H11      HGA3     0.090000        1.0080           0
     48077 WT16     1245     MECN     H12      HGA3     0.090000        1.0080           0
     48078 WT16     1245     MECN     H13      HGA3     0.090000        1.0080           0
     48079 WT16     1245     MECN     C2       CG1N1    0.360000       12.0110           0
     48080 WT16     1245     MECN     N3       NG1T1   -0.460000       14.0070           0
     48081 WT16     1248     MECN     C1       CG331   -0.170000       12.0110           0
     48082 WT16     1248     MECN     H11      HGA3     0.090000        1.0080           0
     48083 WT16     1248     MECN     H12      HGA3     0.090000        1.0080           0
     48084 WT16     1248     MECN     H13      HGA3     0.090000        1.0080           0
     48085 WT16     1248     MECN     C2       CG1N1    0.360000       12.0110           0
     48086 WT16     1248     MECN     N3       NG1T1   -0.460000       14.0070           0
     48087 WT16     1253     MECN     C1       CG331   -0.170000       12.0110           0
     48088 WT16     1253     MECN     H11      HGA3     0.090000        1.0080           0
     48089 WT16     1253     MECN     H12      HGA3     0.090000        1.0080           0
     48090 WT16     1253     MECN     H13      HGA3     0.090000        1.0080           0
     48091 WT16     1253     MECN     C2       CG1N1    0.360000       12.0110           0
     48092 WT16     1253     MECN     N3       NG1T1   -0.460000       14.0070           0
     48093 WT16     1261     MECN     C1       CG331   -0.170000       12.0110           0
     48094 WT16     1261     MECN     H11      HGA3     0.090000        1.0080           0
     48095 WT16     1261     MECN     H12      HGA3     0.090000        1.0080           0
     48096 WT16     1261     MECN     H13      HGA3     0.090000        1.0080           0
     48097 WT16     1261     MECN     C2       CG1N1    0.360000       12.0110           0
     48098 WT16     1261     MECN     N3       NG1T1   -0.460000       14.0070           0
     48099 WT16     1263     MECN     C1       CG331   -0.170000       12.0110           0
     48100 WT16     1263     MECN     H11      HGA3     0.090000        1.0080           0
     48101 WT16     1263     MECN     H12      HGA3     0.090000        1.0080           0
     48102 WT16     1263     MECN     H13      HGA3     0.090000        1.0080           0
     48103 WT16     1263     MECN     C2       CG1N1    0.360000       12.0110           0
     48104 WT16     1263     MECN     N3       NG1T1   -0.460000       14.0070           0
     48105 WT16     1264     MECN     C1       CG331   -0.170000       12.0110           0
     48106 WT16     1264     MECN     H11      HGA3     0.090000        1.0080           0
     48107 WT16     1264     MECN     H12      HGA3     0.090000        1.0080           0
     48108 WT16     1264     MECN     H13      HGA3     0.090000        1.0080           0
     48109 WT16     1264     MECN     C2       CG1N1    0.360000       12.0110           0
     48110 WT16     1264     MECN     N3       NG1T1   -0.460000       14.0070           0
     48111 WT16     1265     MECN     C1       CG331   -0.170000       12.0110           0
     48112 WT16     1265     MECN     H11      HGA3     0.090000        1.0080           0
     48113 WT16     1265     MECN     H12      HGA3     0.090000        1.0080           0
     48114 WT16     1265     MECN     H13      HGA3     0.090000        1.0080           0
     48115 WT16     1265     MECN     C2       CG1N1    0.360000       12.0110           0
     48116 WT16     1265     MECN     N3       NG1T1   -0.460000       14.0070           0
     48117 WT16     1270     MECN     C1       CG331   -0.170000       12.0110           0
     48118 WT16     1270     MECN     H11      HGA3     0.090000        1.0080           0
     48119 WT16     1270     MECN     H12      HGA3     0.090000        1.0080           0
     48120 WT16     1270     MECN     H13      HGA3     0.090000        1.0080           0
     48121 WT16     1270     MECN     C2       CG1N1    0.360000       12.0110           0
     48122 WT16     1270     MECN     N3       NG1T1   -0.460000       14.0070           0
     48123 WT16     1273     MECN     C1       CG331   -0.170000       12.0110           0
     48124 WT16     1273     MECN     H11      HGA3     0.090000        1.0080           0
     48125 WT16     1273     MECN     H12      HGA3     0.090000        1.0080           0
     48126 WT16     1273     MECN     H13      HGA3     0.090000        1.0080           0
     48127 WT16     1273     MECN     C2       CG1N1    0.360000       12.0110           0
     48128 WT16     1273     MECN     N3       NG1T1   -0.460000       14.0070           0
     48129 WT16     1274     MECN     C1       CG331   -0.170000       12.0110           0
     48130 WT16     1274     MECN     H11      HGA3     0.090000        1.0080           0
     48131 WT16     1274     MECN     H12      HGA3     0.090000        1.0080           0
     48132 WT16     1274     MECN     H13      HGA3     0.090000        1.0080           0
     48133 WT16     1274     MECN     C2       CG1N1    0.360000       12.0110           0
     48134 WT16     1274     MECN     N3       NG1T1   -0.460000       14.0070           0
     48135 WT16     1284     MECN     C1       CG331   -0.170000       12.0110           0
     48136 WT16     1284     MECN     H11      HGA3     0.090000        1.0080           0
     48137 WT16     1284     MECN     H12      HGA3     0.090000        1.0080           0
     48138 WT16     1284     MECN     H13      HGA3     0.090000        1.0080           0
     48139 WT16     1284     MECN     C2       CG1N1    0.360000       12.0110           0
     48140 WT16     1284     MECN     N3       NG1T1   -0.460000       14.0070           0
     48141 WT16     1287     MECN     C1       CG331   -0.170000       12.0110           0
     48142 WT16     1287     MECN     H11      HGA3     0.090000        1.0080           0
     48143 WT16     1287     MECN     H12      HGA3     0.090000        1.0080           0
     48144 WT16     1287     MECN     H13      HGA3     0.090000        1.0080           0
     48145 WT16     1287     MECN     C2       CG1N1    0.360000       12.0110           0
     48146 WT16     1287     MECN     N3       NG1T1   -0.460000       14.0070           0
     48147 WT16     1292     MECN     C1       CG331   -0.170000       12.0110           0
     48148 WT16     1292     MECN     H11      HGA3     0.090000        1.0080           0
     48149 WT16     1292     MECN     H12      HGA3     0.090000        1.0080           0
     48150 WT16     1292     MECN     H13      HGA3     0.090000        1.0080           0
     48151 WT16     1292     MECN     C2       CG1N1    0.360000       12.0110           0
     48152 WT16     1292     MECN     N3       NG1T1   -0.460000       14.0070           0
     48153 WT16     1293     MECN     C1       CG331   -0.170000       12.0110           0
     48154 WT16     1293     MECN     H11      HGA3     0.090000        1.0080           0
     48155 WT16     1293     MECN     H12      HGA3     0.090000        1.0080           0
     48156 WT16     1293     MECN     H13      HGA3     0.090000        1.0080           0
     48157 WT16     1293     MECN     C2       CG1N1    0.360000       12.0110           0
     48158 WT16     1293     MECN     N3       NG1T1   -0.460000       14.0070           0
     48159 WT16     1294     MECN     C1       CG331   -0.170000       12.0110           0
     48160 WT16     1294     MECN     H11      HGA3     0.090000        1.0080           0
     48161 WT16     1294     MECN     H12      HGA3     0.090000        1.0080           0
     48162 WT16     1294     MECN     H13      HGA3     0.090000        1.0080           0
     48163 WT16     1294     MECN     C2       CG1N1    0.360000       12.0110           0
     48164 WT16     1294     MECN     N3       NG1T1   -0.460000       14.0070           0
     48165 WT16     1295     MECN     C1       CG331   -0.170000       12.0110           0
     48166 WT16     1295     MECN     H11      HGA3     0.090000        1.0080           0
     48167 WT16     1295     MECN     H12      HGA3     0.090000        1.0080           0
     48168 WT16     1295     MECN     H13      HGA3     0.090000        1.0080           0
     48169 WT16     1295     MECN     C2       CG1N1    0.360000       12.0110           0
     48170 WT16     1295     MECN     N3       NG1T1   -0.460000       14.0070           0
     48171 WT16     1298     MECN     C1       CG331   -0.170000       12.0110           0
     48172 WT16     1298     MECN     H11      HGA3     0.090000        1.0080           0
     48173 WT16     1298     MECN     H12      HGA3     0.090000        1.0080           0
     48174 WT16     1298     MECN     H13      HGA3     0.090000        1.0080           0
     48175 WT16     1298     MECN     C2       CG1N1    0.360000       12.0110           0
     48176 WT16     1298     MECN     N3       NG1T1   -0.460000       14.0070           0
     48177 WT16     1300     MECN     C1       CG331   -0.170000       12.0110           0
     48178 WT16     1300     MECN     H11      HGA3     0.090000        1.0080           0
     48179 WT16     1300     MECN     H12      HGA3     0.090000        1.0080           0
     48180 WT16     1300     MECN     H13      HGA3     0.090000        1.0080           0
     48181 WT16     1300     MECN     C2       CG1N1    0.360000       12.0110           0
     48182 WT16     1300     MECN     N3       NG1T1   -0.460000       14.0070           0
     48183 WT16     1303     MECN     C1       CG331   -0.170000       12.0110           0
     48184 WT16     1303     MECN     H11      HGA3     0.090000        1.0080           0
     48185 WT16     1303     MECN     H12      HGA3     0.090000        1.0080           0
     48186 WT16     1303     MECN     H13      HGA3     0.090000        1.0080           0
     48187 WT16     1303     MECN     C2       CG1N1    0.360000       12.0110           0
     48188 WT16     1303     MECN     N3       NG1T1   -0.460000       14.0070           0
     48189 WT16     1305     MECN     C1       CG331   -0.170000       12.0110           0
     48190 WT16     1305     MECN     H11      HGA3     0.090000        1.0080           0
     48191 WT16     1305     MECN     H12      HGA3     0.090000        1.0080           0
     48192 WT16     1305     MECN     H13      HGA3     0.090000        1.0080           0
     48193 WT16     1305     MECN     C2       CG1N1    0.360000       12.0110           0
     48194 WT16     1305     MECN     N3       NG1T1   -0.460000       14.0070           0
     48195 WT16     1306     MECN     C1       CG331   -0.170000       12.0110           0
     48196 WT16     1306     MECN     H11      HGA3     0.090000        1.0080           0
     48197 WT16     1306     MECN     H12      HGA3     0.090000        1.0080           0
     48198 WT16     1306     MECN     H13      HGA3     0.090000        1.0080           0
     48199 WT16     1306     MECN     C2       CG1N1    0.360000       12.0110           0
     48200 WT16     1306     MECN     N3       NG1T1   -0.460000       14.0070           0
     48201 WT16     1307     MECN     C1       CG331   -0.170000       12.0110           0
     48202 WT16     1307     MECN     H11      HGA3     0.090000        1.0080           0
     48203 WT16     1307     MECN     H12      HGA3     0.090000        1.0080           0
     48204 WT16     1307     MECN     H13      HGA3     0.090000        1.0080           0
     48205 WT16     1307     MECN     C2       CG1N1    0.360000       12.0110           0
     48206 WT16     1307     MECN     N3       NG1T1   -0.460000       14.0070           0
     48207 WT16     1310     MECN     C1       CG331   -0.170000       12.0110           0
     48208 WT16     1310     MECN     H11      HGA3     0.090000        1.0080           0
     48209 WT16     1310     MECN     H12      HGA3     0.090000        1.0080           0
     48210 WT16     1310     MECN     H13      HGA3     0.090000        1.0080           0
     48211 WT16     1310     MECN     C2       CG1N1    0.360000       12.0110           0
     48212 WT16     1310     MECN     N3       NG1T1   -0.460000       14.0070           0
     48213 WT16     1315     MECN     C1       CG331   -0.170000       12.0110           0
     48214 WT16     1315     MECN     H11      HGA3     0.090000        1.0080           0
     48215 WT16     1315     MECN     H12      HGA3     0.090000        1.0080           0
     48216 WT16     1315     MECN     H13      HGA3     0.090000        1.0080           0
     48217 WT16     1315     MECN     C2       CG1N1    0.360000       12.0110           0
     48218 WT16     1315     MECN     N3       NG1T1   -0.460000       14.0070           0
     48219 WT16     1317     MECN     C1       CG331   -0.170000       12.0110           0
     48220 WT16     1317     MECN     H11      HGA3     0.090000        1.0080           0
     48221 WT16     1317     MECN     H12      HGA3     0.090000        1.0080           0
     48222 WT16     1317     MECN     H13      HGA3     0.090000        1.0080           0
     48223 WT16     1317     MECN     C2       CG1N1    0.360000       12.0110           0
     48224 WT16     1317     MECN     N3       NG1T1   -0.460000       14.0070           0
     48225 WT16     1325     MECN     C1       CG331   -0.170000       12.0110           0
     48226 WT16     1325     MECN     H11      HGA3     0.090000        1.0080           0
     48227 WT16     1325     MECN     H12      HGA3     0.090000        1.0080           0
     48228 WT16     1325     MECN     H13      HGA3     0.090000        1.0080           0
     48229 WT16     1325     MECN     C2       CG1N1    0.360000       12.0110           0
     48230 WT16     1325     MECN     N3       NG1T1   -0.460000       14.0070           0
     48231 WT16     1326     MECN     C1       CG331   -0.170000       12.0110           0
     48232 WT16     1326     MECN     H11      HGA3     0.090000        1.0080           0
     48233 WT16     1326     MECN     H12      HGA3     0.090000        1.0080           0
     48234 WT16     1326     MECN     H13      HGA3     0.090000        1.0080           0
     48235 WT16     1326     MECN     C2       CG1N1    0.360000       12.0110           0
     48236 WT16     1326     MECN     N3       NG1T1   -0.460000       14.0070           0
     48237 WT16     1328     MECN     C1       CG331   -0.170000       12.0110           0
     48238 WT16     1328     MECN     H11      HGA3     0.090000        1.0080           0
     48239 WT16     1328     MECN     H12      HGA3     0.090000        1.0080           0
     48240 WT16     1328     MECN     H13      HGA3     0.090000        1.0080           0
     48241 WT16     1328     MECN     C2       CG1N1    0.360000       12.0110           0
     48242 WT16     1328     MECN     N3       NG1T1   -0.460000       14.0070           0
     48243 WT16     1329     MECN     C1       CG331   -0.170000       12.0110           0
     48244 WT16     1329     MECN     H11      HGA3     0.090000        1.0080           0
     48245 WT16     1329     MECN     H12      HGA3     0.090000        1.0080           0
     48246 WT16     1329     MECN     H13      HGA3     0.090000        1.0080           0
     48247 WT16     1329     MECN     C2       CG1N1    0.360000       12.0110           0
     48248 WT16     1329     MECN     N3       NG1T1   -0.460000       14.0070           0
     48249 WT17     1        MECN     C1       CG331   -0.170000       12.0110           0
     48250 WT17     1        MECN     H11      HGA3     0.090000        1.0080           0
     48251 WT17     1        MECN     H12      HGA3     0.090000        1.0080           0
     48252 WT17     1        MECN     H13      HGA3     0.090000        1.0080           0
     48253 WT17     1        MECN     C2       CG1N1    0.360000       12.0110           0
     48254 WT17     1        MECN     N3       NG1T1   -0.460000       14.0070           0
     48255 WT17     2        MECN     C1       CG331   -0.170000       12.0110           0
     48256 WT17     2        MECN     H11      HGA3     0.090000        1.0080           0
     48257 WT17     2        MECN     H12      HGA3     0.090000        1.0080           0
     48258 WT17     2        MECN     H13      HGA3     0.090000        1.0080           0
     48259 WT17     2        MECN     C2       CG1N1    0.360000       12.0110           0
     48260 WT17     2        MECN     N3       NG1T1   -0.460000       14.0070           0
     48261 WT17     4        MECN     C1       CG331   -0.170000       12.0110           0
     48262 WT17     4        MECN     H11      HGA3     0.090000        1.0080           0
     48263 WT17     4        MECN     H12      HGA3     0.090000        1.0080           0
     48264 WT17     4        MECN     H13      HGA3     0.090000        1.0080           0
     48265 WT17     4        MECN     C2       CG1N1    0.360000       12.0110           0
     48266 WT17     4        MECN     N3       NG1T1   -0.460000       14.0070           0
     48267 WT17     6        MECN     C1       CG331   -0.170000       12.0110           0
     48268 WT17     6        MECN     H11      HGA3     0.090000        1.0080           0
     48269 WT17     6        MECN     H12      HGA3     0.090000        1.0080           0
     48270 WT17     6        MECN     H13      HGA3     0.090000        1.0080           0
     48271 WT17     6        MECN     C2       CG1N1    0.360000       12.0110           0
     48272 WT17     6        MECN     N3       NG1T1   -0.460000       14.0070           0
     48273 WT17     9        MECN     C1       CG331   -0.170000       12.0110           0
     48274 WT17     9        MECN     H11      HGA3     0.090000        1.0080           0
     48275 WT17     9        MECN     H12      HGA3     0.090000        1.0080           0
     48276 WT17     9        MECN     H13      HGA3     0.090000        1.0080           0
     48277 WT17     9        MECN     C2       CG1N1    0.360000       12.0110           0
     48278 WT17     9        MECN     N3       NG1T1   -0.460000       14.0070           0
     48279 WT17     11       MECN     C1       CG331   -0.170000       12.0110           0
     48280 WT17     11       MECN     H11      HGA3     0.090000        1.0080           0
     48281 WT17     11       MECN     H12      HGA3     0.090000        1.0080           0
     48282 WT17     11       MECN     H13      HGA3     0.090000        1.0080           0
     48283 WT17     11       MECN     C2       CG1N1    0.360000       12.0110           0
     48284 WT17     11       MECN     N3       NG1T1   -0.460000       14.0070           0
     48285 WT17     14       MECN     C1       CG331   -0.170000       12.0110           0
     48286 WT17     14       MECN     H11      HGA3     0.090000        1.0080           0
     48287 WT17     14       MECN     H12      HGA3     0.090000        1.0080           0
     48288 WT17     14       MECN     H13      HGA3     0.090000        1.0080           0
     48289 WT17     14       MECN     C2       CG1N1    0.360000       12.0110           0
     48290 WT17     14       MECN     N3       NG1T1   -0.460000       14.0070           0
     48291 WT17     15       MECN     C1       CG331   -0.170000       12.0110           0
     48292 WT17     15       MECN     H11      HGA3     0.090000        1.0080           0
     48293 WT17     15       MECN     H12      HGA3     0.090000        1.0080           0
     48294 WT17     15       MECN     H13      HGA3     0.090000        1.0080           0
     48295 WT17     15       MECN     C2       CG1N1    0.360000       12.0110           0
     48296 WT17     15       MECN     N3       NG1T1   -0.460000       14.0070           0
     48297 WT17     18       MECN     C1       CG331   -0.170000       12.0110           0
     48298 WT17     18       MECN     H11      HGA3     0.090000        1.0080           0
     48299 WT17     18       MECN     H12      HGA3     0.090000        1.0080           0
     48300 WT17     18       MECN     H13      HGA3     0.090000        1.0080           0
     48301 WT17     18       MECN     C2       CG1N1    0.360000       12.0110           0
     48302 WT17     18       MECN     N3       NG1T1   -0.460000       14.0070           0
     48303 WT17     19       MECN     C1       CG331   -0.170000       12.0110           0
     48304 WT17     19       MECN     H11      HGA3     0.090000        1.0080           0
     48305 WT17     19       MECN     H12      HGA3     0.090000        1.0080           0
     48306 WT17     19       MECN     H13      HGA3     0.090000        1.0080           0
     48307 WT17     19       MECN     C2       CG1N1    0.360000       12.0110           0
     48308 WT17     19       MECN     N3       NG1T1   -0.460000       14.0070           0
     48309 WT17     20       MECN     C1       CG331   -0.170000       12.0110           0
     48310 WT17     20       MECN     H11      HGA3     0.090000        1.0080           0
     48311 WT17     20       MECN     H12      HGA3     0.090000        1.0080           0
     48312 WT17     20       MECN     H13      HGA3     0.090000        1.0080           0
     48313 WT17     20       MECN     C2       CG1N1    0.360000       12.0110           0
     48314 WT17     20       MECN     N3       NG1T1   -0.460000       14.0070           0
     48315 WT17     24       MECN     C1       CG331   -0.170000       12.0110           0
     48316 WT17     24       MECN     H11      HGA3     0.090000        1.0080           0
     48317 WT17     24       MECN     H12      HGA3     0.090000        1.0080           0
     48318 WT17     24       MECN     H13      HGA3     0.090000        1.0080           0
     48319 WT17     24       MECN     C2       CG1N1    0.360000       12.0110           0
     48320 WT17     24       MECN     N3       NG1T1   -0.460000       14.0070           0
     48321 WT17     26       MECN     C1       CG331   -0.170000       12.0110           0
     48322 WT17     26       MECN     H11      HGA3     0.090000        1.0080           0
     48323 WT17     26       MECN     H12      HGA3     0.090000        1.0080           0
     48324 WT17     26       MECN     H13      HGA3     0.090000        1.0080           0
     48325 WT17     26       MECN     C2       CG1N1    0.360000       12.0110           0
     48326 WT17     26       MECN     N3       NG1T1   -0.460000       14.0070           0
     48327 WT17     27       MECN     C1       CG331   -0.170000       12.0110           0
     48328 WT17     27       MECN     H11      HGA3     0.090000        1.0080           0
     48329 WT17     27       MECN     H12      HGA3     0.090000        1.0080           0
     48330 WT17     27       MECN     H13      HGA3     0.090000        1.0080           0
     48331 WT17     27       MECN     C2       CG1N1    0.360000       12.0110           0
     48332 WT17     27       MECN     N3       NG1T1   -0.460000       14.0070           0
     48333 WT17     28       MECN     C1       CG331   -0.170000       12.0110           0
     48334 WT17     28       MECN     H11      HGA3     0.090000        1.0080           0
     48335 WT17     28       MECN     H12      HGA3     0.090000        1.0080           0
     48336 WT17     28       MECN     H13      HGA3     0.090000        1.0080           0
     48337 WT17     28       MECN     C2       CG1N1    0.360000       12.0110           0
     48338 WT17     28       MECN     N3       NG1T1   -0.460000       14.0070           0
     48339 WT17     30       MECN     C1       CG331   -0.170000       12.0110           0
     48340 WT17     30       MECN     H11      HGA3     0.090000        1.0080           0
     48341 WT17     30       MECN     H12      HGA3     0.090000        1.0080           0
     48342 WT17     30       MECN     H13      HGA3     0.090000        1.0080           0
     48343 WT17     30       MECN     C2       CG1N1    0.360000       12.0110           0
     48344 WT17     30       MECN     N3       NG1T1   -0.460000       14.0070           0
     48345 WT17     31       MECN     C1       CG331   -0.170000       12.0110           0
     48346 WT17     31       MECN     H11      HGA3     0.090000        1.0080           0
     48347 WT17     31       MECN     H12      HGA3     0.090000        1.0080           0
     48348 WT17     31       MECN     H13      HGA3     0.090000        1.0080           0
     48349 WT17     31       MECN     C2       CG1N1    0.360000       12.0110           0
     48350 WT17     31       MECN     N3       NG1T1   -0.460000       14.0070           0
     48351 WT17     32       MECN     C1       CG331   -0.170000       12.0110           0
     48352 WT17     32       MECN     H11      HGA3     0.090000        1.0080           0
     48353 WT17     32       MECN     H12      HGA3     0.090000        1.0080           0
     48354 WT17     32       MECN     H13      HGA3     0.090000        1.0080           0
     48355 WT17     32       MECN     C2       CG1N1    0.360000       12.0110           0
     48356 WT17     32       MECN     N3       NG1T1   -0.460000       14.0070           0
     48357 WT17     33       MECN     C1       CG331   -0.170000       12.0110           0
     48358 WT17     33       MECN     H11      HGA3     0.090000        1.0080           0
     48359 WT17     33       MECN     H12      HGA3     0.090000        1.0080           0
     48360 WT17     33       MECN     H13      HGA3     0.090000        1.0080           0
     48361 WT17     33       MECN     C2       CG1N1    0.360000       12.0110           0
     48362 WT17     33       MECN     N3       NG1T1   -0.460000       14.0070           0
     48363 WT17     34       MECN     C1       CG331   -0.170000       12.0110           0
     48364 WT17     34       MECN     H11      HGA3     0.090000        1.0080           0
     48365 WT17     34       MECN     H12      HGA3     0.090000        1.0080           0
     48366 WT17     34       MECN     H13      HGA3     0.090000        1.0080           0
     48367 WT17     34       MECN     C2       CG1N1    0.360000       12.0110           0
     48368 WT17     34       MECN     N3       NG1T1   -0.460000       14.0070           0
     48369 WT17     35       MECN     C1       CG331   -0.170000       12.0110           0
     48370 WT17     35       MECN     H11      HGA3     0.090000        1.0080           0
     48371 WT17     35       MECN     H12      HGA3     0.090000        1.0080           0
     48372 WT17     35       MECN     H13      HGA3     0.090000        1.0080           0
     48373 WT17     35       MECN     C2       CG1N1    0.360000       12.0110           0
     48374 WT17     35       MECN     N3       NG1T1   -0.460000       14.0070           0
     48375 WT17     36       MECN     C1       CG331   -0.170000       12.0110           0
     48376 WT17     36       MECN     H11      HGA3     0.090000        1.0080           0
     48377 WT17     36       MECN     H12      HGA3     0.090000        1.0080           0
     48378 WT17     36       MECN     H13      HGA3     0.090000        1.0080           0
     48379 WT17     36       MECN     C2       CG1N1    0.360000       12.0110           0
     48380 WT17     36       MECN     N3       NG1T1   -0.460000       14.0070           0
     48381 WT17     37       MECN     C1       CG331   -0.170000       12.0110           0
     48382 WT17     37       MECN     H11      HGA3     0.090000        1.0080           0
     48383 WT17     37       MECN     H12      HGA3     0.090000        1.0080           0
     48384 WT17     37       MECN     H13      HGA3     0.090000        1.0080           0
     48385 WT17     37       MECN     C2       CG1N1    0.360000       12.0110           0
     48386 WT17     37       MECN     N3       NG1T1   -0.460000       14.0070           0
     48387 WT17     40       MECN     C1       CG331   -0.170000       12.0110           0
     48388 WT17     40       MECN     H11      HGA3     0.090000        1.0080           0
     48389 WT17     40       MECN     H12      HGA3     0.090000        1.0080           0
     48390 WT17     40       MECN     H13      HGA3     0.090000        1.0080           0
     48391 WT17     40       MECN     C2       CG1N1    0.360000       12.0110           0
     48392 WT17     40       MECN     N3       NG1T1   -0.460000       14.0070           0
     48393 WT17     41       MECN     C1       CG331   -0.170000       12.0110           0
     48394 WT17     41       MECN     H11      HGA3     0.090000        1.0080           0
     48395 WT17     41       MECN     H12      HGA3     0.090000        1.0080           0
     48396 WT17     41       MECN     H13      HGA3     0.090000        1.0080           0
     48397 WT17     41       MECN     C2       CG1N1    0.360000       12.0110           0
     48398 WT17     41       MECN     N3       NG1T1   -0.460000       14.0070           0
     48399 WT17     42       MECN     C1       CG331   -0.170000       12.0110           0
     48400 WT17     42       MECN     H11      HGA3     0.090000        1.0080           0
     48401 WT17     42       MECN     H12      HGA3     0.090000        1.0080           0
     48402 WT17     42       MECN     H13      HGA3     0.090000        1.0080           0
     48403 WT17     42       MECN     C2       CG1N1    0.360000       12.0110           0
     48404 WT17     42       MECN     N3       NG1T1   -0.460000       14.0070           0
     48405 WT17     43       MECN     C1       CG331   -0.170000       12.0110           0
     48406 WT17     43       MECN     H11      HGA3     0.090000        1.0080           0
     48407 WT17     43       MECN     H12      HGA3     0.090000        1.0080           0
     48408 WT17     43       MECN     H13      HGA3     0.090000        1.0080           0
     48409 WT17     43       MECN     C2       CG1N1    0.360000       12.0110           0
     48410 WT17     43       MECN     N3       NG1T1   -0.460000       14.0070           0
     48411 WT17     45       MECN     C1       CG331   -0.170000       12.0110           0
     48412 WT17     45       MECN     H11      HGA3     0.090000        1.0080           0
     48413 WT17     45       MECN     H12      HGA3     0.090000        1.0080           0
     48414 WT17     45       MECN     H13      HGA3     0.090000        1.0080           0
     48415 WT17     45       MECN     C2       CG1N1    0.360000       12.0110           0
     48416 WT17     45       MECN     N3       NG1T1   -0.460000       14.0070           0
     48417 WT17     47       MECN     C1       CG331   -0.170000       12.0110           0
     48418 WT17     47       MECN     H11      HGA3     0.090000        1.0080           0
     48419 WT17     47       MECN     H12      HGA3     0.090000        1.0080           0
     48420 WT17     47       MECN     H13      HGA3     0.090000        1.0080           0
     48421 WT17     47       MECN     C2       CG1N1    0.360000       12.0110           0
     48422 WT17     47       MECN     N3       NG1T1   -0.460000       14.0070           0
     48423 WT17     48       MECN     C1       CG331   -0.170000       12.0110           0
     48424 WT17     48       MECN     H11      HGA3     0.090000        1.0080           0
     48425 WT17     48       MECN     H12      HGA3     0.090000        1.0080           0
     48426 WT17     48       MECN     H13      HGA3     0.090000        1.0080           0
     48427 WT17     48       MECN     C2       CG1N1    0.360000       12.0110           0
     48428 WT17     48       MECN     N3       NG1T1   -0.460000       14.0070           0
     48429 WT17     51       MECN     C1       CG331   -0.170000       12.0110           0
     48430 WT17     51       MECN     H11      HGA3     0.090000        1.0080           0
     48431 WT17     51       MECN     H12      HGA3     0.090000        1.0080           0
     48432 WT17     51       MECN     H13      HGA3     0.090000        1.0080           0
     48433 WT17     51       MECN     C2       CG1N1    0.360000       12.0110           0
     48434 WT17     51       MECN     N3       NG1T1   -0.460000       14.0070           0
     48435 WT17     53       MECN     C1       CG331   -0.170000       12.0110           0
     48436 WT17     53       MECN     H11      HGA3     0.090000        1.0080           0
     48437 WT17     53       MECN     H12      HGA3     0.090000        1.0080           0
     48438 WT17     53       MECN     H13      HGA3     0.090000        1.0080           0
     48439 WT17     53       MECN     C2       CG1N1    0.360000       12.0110           0
     48440 WT17     53       MECN     N3       NG1T1   -0.460000       14.0070           0
     48441 WT17     57       MECN     C1       CG331   -0.170000       12.0110           0
     48442 WT17     57       MECN     H11      HGA3     0.090000        1.0080           0
     48443 WT17     57       MECN     H12      HGA3     0.090000        1.0080           0
     48444 WT17     57       MECN     H13      HGA3     0.090000        1.0080           0
     48445 WT17     57       MECN     C2       CG1N1    0.360000       12.0110           0
     48446 WT17     57       MECN     N3       NG1T1   -0.460000       14.0070           0
     48447 WT17     59       MECN     C1       CG331   -0.170000       12.0110           0
     48448 WT17     59       MECN     H11      HGA3     0.090000        1.0080           0
     48449 WT17     59       MECN     H12      HGA3     0.090000        1.0080           0
     48450 WT17     59       MECN     H13      HGA3     0.090000        1.0080           0
     48451 WT17     59       MECN     C2       CG1N1    0.360000       12.0110           0
     48452 WT17     59       MECN     N3       NG1T1   -0.460000       14.0070           0
     48453 WT17     60       MECN     C1       CG331   -0.170000       12.0110           0
     48454 WT17     60       MECN     H11      HGA3     0.090000        1.0080           0
     48455 WT17     60       MECN     H12      HGA3     0.090000        1.0080           0
     48456 WT17     60       MECN     H13      HGA3     0.090000        1.0080           0
     48457 WT17     60       MECN     C2       CG1N1    0.360000       12.0110           0
     48458 WT17     60       MECN     N3       NG1T1   -0.460000       14.0070           0
     48459 WT17     63       MECN     C1       CG331   -0.170000       12.0110           0
     48460 WT17     63       MECN     H11      HGA3     0.090000        1.0080           0
     48461 WT17     63       MECN     H12      HGA3     0.090000        1.0080           0
     48462 WT17     63       MECN     H13      HGA3     0.090000        1.0080           0
     48463 WT17     63       MECN     C2       CG1N1    0.360000       12.0110           0
     48464 WT17     63       MECN     N3       NG1T1   -0.460000       14.0070           0
     48465 WT17     65       MECN     C1       CG331   -0.170000       12.0110           0
     48466 WT17     65       MECN     H11      HGA3     0.090000        1.0080           0
     48467 WT17     65       MECN     H12      HGA3     0.090000        1.0080           0
     48468 WT17     65       MECN     H13      HGA3     0.090000        1.0080           0
     48469 WT17     65       MECN     C2       CG1N1    0.360000       12.0110           0
     48470 WT17     65       MECN     N3       NG1T1   -0.460000       14.0070           0
     48471 WT17     66       MECN     C1       CG331   -0.170000       12.0110           0
     48472 WT17     66       MECN     H11      HGA3     0.090000        1.0080           0
     48473 WT17     66       MECN     H12      HGA3     0.090000        1.0080           0
     48474 WT17     66       MECN     H13      HGA3     0.090000        1.0080           0
     48475 WT17     66       MECN     C2       CG1N1    0.360000       12.0110           0
     48476 WT17     66       MECN     N3       NG1T1   -0.460000       14.0070           0
     48477 WT17     67       MECN     C1       CG331   -0.170000       12.0110           0
     48478 WT17     67       MECN     H11      HGA3     0.090000        1.0080           0
     48479 WT17     67       MECN     H12      HGA3     0.090000        1.0080           0
     48480 WT17     67       MECN     H13      HGA3     0.090000        1.0080           0
     48481 WT17     67       MECN     C2       CG1N1    0.360000       12.0110           0
     48482 WT17     67       MECN     N3       NG1T1   -0.460000       14.0070           0
     48483 WT17     68       MECN     C1       CG331   -0.170000       12.0110           0
     48484 WT17     68       MECN     H11      HGA3     0.090000        1.0080           0
     48485 WT17     68       MECN     H12      HGA3     0.090000        1.0080           0
     48486 WT17     68       MECN     H13      HGA3     0.090000        1.0080           0
     48487 WT17     68       MECN     C2       CG1N1    0.360000       12.0110           0
     48488 WT17     68       MECN     N3       NG1T1   -0.460000       14.0070           0
     48489 WT17     69       MECN     C1       CG331   -0.170000       12.0110           0
     48490 WT17     69       MECN     H11      HGA3     0.090000        1.0080           0
     48491 WT17     69       MECN     H12      HGA3     0.090000        1.0080           0
     48492 WT17     69       MECN     H13      HGA3     0.090000        1.0080           0
     48493 WT17     69       MECN     C2       CG1N1    0.360000       12.0110           0
     48494 WT17     69       MECN     N3       NG1T1   -0.460000       14.0070           0
     48495 WT17     70       MECN     C1       CG331   -0.170000       12.0110           0
     48496 WT17     70       MECN     H11      HGA3     0.090000        1.0080           0
     48497 WT17     70       MECN     H12      HGA3     0.090000        1.0080           0
     48498 WT17     70       MECN     H13      HGA3     0.090000        1.0080           0
     48499 WT17     70       MECN     C2       CG1N1    0.360000       12.0110           0
     48500 WT17     70       MECN     N3       NG1T1   -0.460000       14.0070           0
     48501 WT17     71       MECN     C1       CG331   -0.170000       12.0110           0
     48502 WT17     71       MECN     H11      HGA3     0.090000        1.0080           0
     48503 WT17     71       MECN     H12      HGA3     0.090000        1.0080           0
     48504 WT17     71       MECN     H13      HGA3     0.090000        1.0080           0
     48505 WT17     71       MECN     C2       CG1N1    0.360000       12.0110           0
     48506 WT17     71       MECN     N3       NG1T1   -0.460000       14.0070           0
     48507 WT17     72       MECN     C1       CG331   -0.170000       12.0110           0
     48508 WT17     72       MECN     H11      HGA3     0.090000        1.0080           0
     48509 WT17     72       MECN     H12      HGA3     0.090000        1.0080           0
     48510 WT17     72       MECN     H13      HGA3     0.090000        1.0080           0
     48511 WT17     72       MECN     C2       CG1N1    0.360000       12.0110           0
     48512 WT17     72       MECN     N3       NG1T1   -0.460000       14.0070           0
     48513 WT17     73       MECN     C1       CG331   -0.170000       12.0110           0
     48514 WT17     73       MECN     H11      HGA3     0.090000        1.0080           0
     48515 WT17     73       MECN     H12      HGA3     0.090000        1.0080           0
     48516 WT17     73       MECN     H13      HGA3     0.090000        1.0080           0
     48517 WT17     73       MECN     C2       CG1N1    0.360000       12.0110           0
     48518 WT17     73       MECN     N3       NG1T1   -0.460000       14.0070           0
     48519 WT17     75       MECN     C1       CG331   -0.170000       12.0110           0
     48520 WT17     75       MECN     H11      HGA3     0.090000        1.0080           0
     48521 WT17     75       MECN     H12      HGA3     0.090000        1.0080           0
     48522 WT17     75       MECN     H13      HGA3     0.090000        1.0080           0
     48523 WT17     75       MECN     C2       CG1N1    0.360000       12.0110           0
     48524 WT17     75       MECN     N3       NG1T1   -0.460000       14.0070           0
     48525 WT17     77       MECN     C1       CG331   -0.170000       12.0110           0
     48526 WT17     77       MECN     H11      HGA3     0.090000        1.0080           0
     48527 WT17     77       MECN     H12      HGA3     0.090000        1.0080           0
     48528 WT17     77       MECN     H13      HGA3     0.090000        1.0080           0
     48529 WT17     77       MECN     C2       CG1N1    0.360000       12.0110           0
     48530 WT17     77       MECN     N3       NG1T1   -0.460000       14.0070           0
     48531 WT17     81       MECN     C1       CG331   -0.170000       12.0110           0
     48532 WT17     81       MECN     H11      HGA3     0.090000        1.0080           0
     48533 WT17     81       MECN     H12      HGA3     0.090000        1.0080           0
     48534 WT17     81       MECN     H13      HGA3     0.090000        1.0080           0
     48535 WT17     81       MECN     C2       CG1N1    0.360000       12.0110           0
     48536 WT17     81       MECN     N3       NG1T1   -0.460000       14.0070           0
     48537 WT17     82       MECN     C1       CG331   -0.170000       12.0110           0
     48538 WT17     82       MECN     H11      HGA3     0.090000        1.0080           0
     48539 WT17     82       MECN     H12      HGA3     0.090000        1.0080           0
     48540 WT17     82       MECN     H13      HGA3     0.090000        1.0080           0
     48541 WT17     82       MECN     C2       CG1N1    0.360000       12.0110           0
     48542 WT17     82       MECN     N3       NG1T1   -0.460000       14.0070           0
     48543 WT17     83       MECN     C1       CG331   -0.170000       12.0110           0
     48544 WT17     83       MECN     H11      HGA3     0.090000        1.0080           0
     48545 WT17     83       MECN     H12      HGA3     0.090000        1.0080           0
     48546 WT17     83       MECN     H13      HGA3     0.090000        1.0080           0
     48547 WT17     83       MECN     C2       CG1N1    0.360000       12.0110           0
     48548 WT17     83       MECN     N3       NG1T1   -0.460000       14.0070           0
     48549 WT17     84       MECN     C1       CG331   -0.170000       12.0110           0
     48550 WT17     84       MECN     H11      HGA3     0.090000        1.0080           0
     48551 WT17     84       MECN     H12      HGA3     0.090000        1.0080           0
     48552 WT17     84       MECN     H13      HGA3     0.090000        1.0080           0
     48553 WT17     84       MECN     C2       CG1N1    0.360000       12.0110           0
     48554 WT17     84       MECN     N3       NG1T1   -0.460000       14.0070           0
     48555 WT17     86       MECN     C1       CG331   -0.170000       12.0110           0
     48556 WT17     86       MECN     H11      HGA3     0.090000        1.0080           0
     48557 WT17     86       MECN     H12      HGA3     0.090000        1.0080           0
     48558 WT17     86       MECN     H13      HGA3     0.090000        1.0080           0
     48559 WT17     86       MECN     C2       CG1N1    0.360000       12.0110           0
     48560 WT17     86       MECN     N3       NG1T1   -0.460000       14.0070           0
     48561 WT17     87       MECN     C1       CG331   -0.170000       12.0110           0
     48562 WT17     87       MECN     H11      HGA3     0.090000        1.0080           0
     48563 WT17     87       MECN     H12      HGA3     0.090000        1.0080           0
     48564 WT17     87       MECN     H13      HGA3     0.090000        1.0080           0
     48565 WT17     87       MECN     C2       CG1N1    0.360000       12.0110           0
     48566 WT17     87       MECN     N3       NG1T1   -0.460000       14.0070           0
     48567 WT17     88       MECN     C1       CG331   -0.170000       12.0110           0
     48568 WT17     88       MECN     H11      HGA3     0.090000        1.0080           0
     48569 WT17     88       MECN     H12      HGA3     0.090000        1.0080           0
     48570 WT17     88       MECN     H13      HGA3     0.090000        1.0080           0
     48571 WT17     88       MECN     C2       CG1N1    0.360000       12.0110           0
     48572 WT17     88       MECN     N3       NG1T1   -0.460000       14.0070           0
     48573 WT17     89       MECN     C1       CG331   -0.170000       12.0110           0
     48574 WT17     89       MECN     H11      HGA3     0.090000        1.0080           0
     48575 WT17     89       MECN     H12      HGA3     0.090000        1.0080           0
     48576 WT17     89       MECN     H13      HGA3     0.090000        1.0080           0
     48577 WT17     89       MECN     C2       CG1N1    0.360000       12.0110           0
     48578 WT17     89       MECN     N3       NG1T1   -0.460000       14.0070           0
     48579 WT17     90       MECN     C1       CG331   -0.170000       12.0110           0
     48580 WT17     90       MECN     H11      HGA3     0.090000        1.0080           0
     48581 WT17     90       MECN     H12      HGA3     0.090000        1.0080           0
     48582 WT17     90       MECN     H13      HGA3     0.090000        1.0080           0
     48583 WT17     90       MECN     C2       CG1N1    0.360000       12.0110           0
     48584 WT17     90       MECN     N3       NG1T1   -0.460000       14.0070           0
     48585 WT17     91       MECN     C1       CG331   -0.170000       12.0110           0
     48586 WT17     91       MECN     H11      HGA3     0.090000        1.0080           0
     48587 WT17     91       MECN     H12      HGA3     0.090000        1.0080           0
     48588 WT17     91       MECN     H13      HGA3     0.090000        1.0080           0
     48589 WT17     91       MECN     C2       CG1N1    0.360000       12.0110           0
     48590 WT17     91       MECN     N3       NG1T1   -0.460000       14.0070           0
     48591 WT17     93       MECN     C1       CG331   -0.170000       12.0110           0
     48592 WT17     93       MECN     H11      HGA3     0.090000        1.0080           0
     48593 WT17     93       MECN     H12      HGA3     0.090000        1.0080           0
     48594 WT17     93       MECN     H13      HGA3     0.090000        1.0080           0
     48595 WT17     93       MECN     C2       CG1N1    0.360000       12.0110           0
     48596 WT17     93       MECN     N3       NG1T1   -0.460000       14.0070           0
     48597 WT17     94       MECN     C1       CG331   -0.170000       12.0110           0
     48598 WT17     94       MECN     H11      HGA3     0.090000        1.0080           0
     48599 WT17     94       MECN     H12      HGA3     0.090000        1.0080           0
     48600 WT17     94       MECN     H13      HGA3     0.090000        1.0080           0
     48601 WT17     94       MECN     C2       CG1N1    0.360000       12.0110           0
     48602 WT17     94       MECN     N3       NG1T1   -0.460000       14.0070           0
     48603 WT17     95       MECN     C1       CG331   -0.170000       12.0110           0
     48604 WT17     95       MECN     H11      HGA3     0.090000        1.0080           0
     48605 WT17     95       MECN     H12      HGA3     0.090000        1.0080           0
     48606 WT17     95       MECN     H13      HGA3     0.090000        1.0080           0
     48607 WT17     95       MECN     C2       CG1N1    0.360000       12.0110           0
     48608 WT17     95       MECN     N3       NG1T1   -0.460000       14.0070           0
     48609 WT17     97       MECN     C1       CG331   -0.170000       12.0110           0
     48610 WT17     97       MECN     H11      HGA3     0.090000        1.0080           0
     48611 WT17     97       MECN     H12      HGA3     0.090000        1.0080           0
     48612 WT17     97       MECN     H13      HGA3     0.090000        1.0080           0
     48613 WT17     97       MECN     C2       CG1N1    0.360000       12.0110           0
     48614 WT17     97       MECN     N3       NG1T1   -0.460000       14.0070           0
     48615 WT17     98       MECN     C1       CG331   -0.170000       12.0110           0
     48616 WT17     98       MECN     H11      HGA3     0.090000        1.0080           0
     48617 WT17     98       MECN     H12      HGA3     0.090000        1.0080           0
     48618 WT17     98       MECN     H13      HGA3     0.090000        1.0080           0
     48619 WT17     98       MECN     C2       CG1N1    0.360000       12.0110           0
     48620 WT17     98       MECN     N3       NG1T1   -0.460000       14.0070           0
     48621 WT17     101      MECN     C1       CG331   -0.170000       12.0110           0
     48622 WT17     101      MECN     H11      HGA3     0.090000        1.0080           0
     48623 WT17     101      MECN     H12      HGA3     0.090000        1.0080           0
     48624 WT17     101      MECN     H13      HGA3     0.090000        1.0080           0
     48625 WT17     101      MECN     C2       CG1N1    0.360000       12.0110           0
     48626 WT17     101      MECN     N3       NG1T1   -0.460000       14.0070           0
     48627 WT17     103      MECN     C1       CG331   -0.170000       12.0110           0
     48628 WT17     103      MECN     H11      HGA3     0.090000        1.0080           0
     48629 WT17     103      MECN     H12      HGA3     0.090000        1.0080           0
     48630 WT17     103      MECN     H13      HGA3     0.090000        1.0080           0
     48631 WT17     103      MECN     C2       CG1N1    0.360000       12.0110           0
     48632 WT17     103      MECN     N3       NG1T1   -0.460000       14.0070           0
     48633 WT17     104      MECN     C1       CG331   -0.170000       12.0110           0
     48634 WT17     104      MECN     H11      HGA3     0.090000        1.0080           0
     48635 WT17     104      MECN     H12      HGA3     0.090000        1.0080           0
     48636 WT17     104      MECN     H13      HGA3     0.090000        1.0080           0
     48637 WT17     104      MECN     C2       CG1N1    0.360000       12.0110           0
     48638 WT17     104      MECN     N3       NG1T1   -0.460000       14.0070           0
     48639 WT17     107      MECN     C1       CG331   -0.170000       12.0110           0
     48640 WT17     107      MECN     H11      HGA3     0.090000        1.0080           0
     48641 WT17     107      MECN     H12      HGA3     0.090000        1.0080           0
     48642 WT17     107      MECN     H13      HGA3     0.090000        1.0080           0
     48643 WT17     107      MECN     C2       CG1N1    0.360000       12.0110           0
     48644 WT17     107      MECN     N3       NG1T1   -0.460000       14.0070           0
     48645 WT17     114      MECN     C1       CG331   -0.170000       12.0110           0
     48646 WT17     114      MECN     H11      HGA3     0.090000        1.0080           0
     48647 WT17     114      MECN     H12      HGA3     0.090000        1.0080           0
     48648 WT17     114      MECN     H13      HGA3     0.090000        1.0080           0
     48649 WT17     114      MECN     C2       CG1N1    0.360000       12.0110           0
     48650 WT17     114      MECN     N3       NG1T1   -0.460000       14.0070           0
     48651 WT17     116      MECN     C1       CG331   -0.170000       12.0110           0
     48652 WT17     116      MECN     H11      HGA3     0.090000        1.0080           0
     48653 WT17     116      MECN     H12      HGA3     0.090000        1.0080           0
     48654 WT17     116      MECN     H13      HGA3     0.090000        1.0080           0
     48655 WT17     116      MECN     C2       CG1N1    0.360000       12.0110           0
     48656 WT17     116      MECN     N3       NG1T1   -0.460000       14.0070           0
     48657 WT17     117      MECN     C1       CG331   -0.170000       12.0110           0
     48658 WT17     117      MECN     H11      HGA3     0.090000        1.0080           0
     48659 WT17     117      MECN     H12      HGA3     0.090000        1.0080           0
     48660 WT17     117      MECN     H13      HGA3     0.090000        1.0080           0
     48661 WT17     117      MECN     C2       CG1N1    0.360000       12.0110           0
     48662 WT17     117      MECN     N3       NG1T1   -0.460000       14.0070           0
     48663 WT17     119      MECN     C1       CG331   -0.170000       12.0110           0
     48664 WT17     119      MECN     H11      HGA3     0.090000        1.0080           0
     48665 WT17     119      MECN     H12      HGA3     0.090000        1.0080           0
     48666 WT17     119      MECN     H13      HGA3     0.090000        1.0080           0
     48667 WT17     119      MECN     C2       CG1N1    0.360000       12.0110           0
     48668 WT17     119      MECN     N3       NG1T1   -0.460000       14.0070           0
     48669 WT17     120      MECN     C1       CG331   -0.170000       12.0110           0
     48670 WT17     120      MECN     H11      HGA3     0.090000        1.0080           0
     48671 WT17     120      MECN     H12      HGA3     0.090000        1.0080           0
     48672 WT17     120      MECN     H13      HGA3     0.090000        1.0080           0
     48673 WT17     120      MECN     C2       CG1N1    0.360000       12.0110           0
     48674 WT17     120      MECN     N3       NG1T1   -0.460000       14.0070           0
     48675 WT17     126      MECN     C1       CG331   -0.170000       12.0110           0
     48676 WT17     126      MECN     H11      HGA3     0.090000        1.0080           0
     48677 WT17     126      MECN     H12      HGA3     0.090000        1.0080           0
     48678 WT17     126      MECN     H13      HGA3     0.090000        1.0080           0
     48679 WT17     126      MECN     C2       CG1N1    0.360000       12.0110           0
     48680 WT17     126      MECN     N3       NG1T1   -0.460000       14.0070           0
     48681 WT17     128      MECN     C1       CG331   -0.170000       12.0110           0
     48682 WT17     128      MECN     H11      HGA3     0.090000        1.0080           0
     48683 WT17     128      MECN     H12      HGA3     0.090000        1.0080           0
     48684 WT17     128      MECN     H13      HGA3     0.090000        1.0080           0
     48685 WT17     128      MECN     C2       CG1N1    0.360000       12.0110           0
     48686 WT17     128      MECN     N3       NG1T1   -0.460000       14.0070           0
     48687 WT17     130      MECN     C1       CG331   -0.170000       12.0110           0
     48688 WT17     130      MECN     H11      HGA3     0.090000        1.0080           0
     48689 WT17     130      MECN     H12      HGA3     0.090000        1.0080           0
     48690 WT17     130      MECN     H13      HGA3     0.090000        1.0080           0
     48691 WT17     130      MECN     C2       CG1N1    0.360000       12.0110           0
     48692 WT17     130      MECN     N3       NG1T1   -0.460000       14.0070           0
     48693 WT17     131      MECN     C1       CG331   -0.170000       12.0110           0
     48694 WT17     131      MECN     H11      HGA3     0.090000        1.0080           0
     48695 WT17     131      MECN     H12      HGA3     0.090000        1.0080           0
     48696 WT17     131      MECN     H13      HGA3     0.090000        1.0080           0
     48697 WT17     131      MECN     C2       CG1N1    0.360000       12.0110           0
     48698 WT17     131      MECN     N3       NG1T1   -0.460000       14.0070           0
     48699 WT17     132      MECN     C1       CG331   -0.170000       12.0110           0
     48700 WT17     132      MECN     H11      HGA3     0.090000        1.0080           0
     48701 WT17     132      MECN     H12      HGA3     0.090000        1.0080           0
     48702 WT17     132      MECN     H13      HGA3     0.090000        1.0080           0
     48703 WT17     132      MECN     C2       CG1N1    0.360000       12.0110           0
     48704 WT17     132      MECN     N3       NG1T1   -0.460000       14.0070           0
     48705 WT17     133      MECN     C1       CG331   -0.170000       12.0110           0
     48706 WT17     133      MECN     H11      HGA3     0.090000        1.0080           0
     48707 WT17     133      MECN     H12      HGA3     0.090000        1.0080           0
     48708 WT17     133      MECN     H13      HGA3     0.090000        1.0080           0
     48709 WT17     133      MECN     C2       CG1N1    0.360000       12.0110           0
     48710 WT17     133      MECN     N3       NG1T1   -0.460000       14.0070           0
     48711 WT17     134      MECN     C1       CG331   -0.170000       12.0110           0
     48712 WT17     134      MECN     H11      HGA3     0.090000        1.0080           0
     48713 WT17     134      MECN     H12      HGA3     0.090000        1.0080           0
     48714 WT17     134      MECN     H13      HGA3     0.090000        1.0080           0
     48715 WT17     134      MECN     C2       CG1N1    0.360000       12.0110           0
     48716 WT17     134      MECN     N3       NG1T1   -0.460000       14.0070           0
     48717 WT17     136      MECN     C1       CG331   -0.170000       12.0110           0
     48718 WT17     136      MECN     H11      HGA3     0.090000        1.0080           0
     48719 WT17     136      MECN     H12      HGA3     0.090000        1.0080           0
     48720 WT17     136      MECN     H13      HGA3     0.090000        1.0080           0
     48721 WT17     136      MECN     C2       CG1N1    0.360000       12.0110           0
     48722 WT17     136      MECN     N3       NG1T1   -0.460000       14.0070           0
     48723 WT17     137      MECN     C1       CG331   -0.170000       12.0110           0
     48724 WT17     137      MECN     H11      HGA3     0.090000        1.0080           0
     48725 WT17     137      MECN     H12      HGA3     0.090000        1.0080           0
     48726 WT17     137      MECN     H13      HGA3     0.090000        1.0080           0
     48727 WT17     137      MECN     C2       CG1N1    0.360000       12.0110           0
     48728 WT17     137      MECN     N3       NG1T1   -0.460000       14.0070           0
     48729 WT17     138      MECN     C1       CG331   -0.170000       12.0110           0
     48730 WT17     138      MECN     H11      HGA3     0.090000        1.0080           0
     48731 WT17     138      MECN     H12      HGA3     0.090000        1.0080           0
     48732 WT17     138      MECN     H13      HGA3     0.090000        1.0080           0
     48733 WT17     138      MECN     C2       CG1N1    0.360000       12.0110           0
     48734 WT17     138      MECN     N3       NG1T1   -0.460000       14.0070           0
     48735 WT17     139      MECN     C1       CG331   -0.170000       12.0110           0
     48736 WT17     139      MECN     H11      HGA3     0.090000        1.0080           0
     48737 WT17     139      MECN     H12      HGA3     0.090000        1.0080           0
     48738 WT17     139      MECN     H13      HGA3     0.090000        1.0080           0
     48739 WT17     139      MECN     C2       CG1N1    0.360000       12.0110           0
     48740 WT17     139      MECN     N3       NG1T1   -0.460000       14.0070           0
     48741 WT17     140      MECN     C1       CG331   -0.170000       12.0110           0
     48742 WT17     140      MECN     H11      HGA3     0.090000        1.0080           0
     48743 WT17     140      MECN     H12      HGA3     0.090000        1.0080           0
     48744 WT17     140      MECN     H13      HGA3     0.090000        1.0080           0
     48745 WT17     140      MECN     C2       CG1N1    0.360000       12.0110           0
     48746 WT17     140      MECN     N3       NG1T1   -0.460000       14.0070           0
     48747 WT17     141      MECN     C1       CG331   -0.170000       12.0110           0
     48748 WT17     141      MECN     H11      HGA3     0.090000        1.0080           0
     48749 WT17     141      MECN     H12      HGA3     0.090000        1.0080           0
     48750 WT17     141      MECN     H13      HGA3     0.090000        1.0080           0
     48751 WT17     141      MECN     C2       CG1N1    0.360000       12.0110           0
     48752 WT17     141      MECN     N3       NG1T1   -0.460000       14.0070           0
     48753 WT17     142      MECN     C1       CG331   -0.170000       12.0110           0
     48754 WT17     142      MECN     H11      HGA3     0.090000        1.0080           0
     48755 WT17     142      MECN     H12      HGA3     0.090000        1.0080           0
     48756 WT17     142      MECN     H13      HGA3     0.090000        1.0080           0
     48757 WT17     142      MECN     C2       CG1N1    0.360000       12.0110           0
     48758 WT17     142      MECN     N3       NG1T1   -0.460000       14.0070           0
     48759 WT17     144      MECN     C1       CG331   -0.170000       12.0110           0
     48760 WT17     144      MECN     H11      HGA3     0.090000        1.0080           0
     48761 WT17     144      MECN     H12      HGA3     0.090000        1.0080           0
     48762 WT17     144      MECN     H13      HGA3     0.090000        1.0080           0
     48763 WT17     144      MECN     C2       CG1N1    0.360000       12.0110           0
     48764 WT17     144      MECN     N3       NG1T1   -0.460000       14.0070           0
     48765 WT17     146      MECN     C1       CG331   -0.170000       12.0110           0
     48766 WT17     146      MECN     H11      HGA3     0.090000        1.0080           0
     48767 WT17     146      MECN     H12      HGA3     0.090000        1.0080           0
     48768 WT17     146      MECN     H13      HGA3     0.090000        1.0080           0
     48769 WT17     146      MECN     C2       CG1N1    0.360000       12.0110           0
     48770 WT17     146      MECN     N3       NG1T1   -0.460000       14.0070           0
     48771 WT17     147      MECN     C1       CG331   -0.170000       12.0110           0
     48772 WT17     147      MECN     H11      HGA3     0.090000        1.0080           0
     48773 WT17     147      MECN     H12      HGA3     0.090000        1.0080           0
     48774 WT17     147      MECN     H13      HGA3     0.090000        1.0080           0
     48775 WT17     147      MECN     C2       CG1N1    0.360000       12.0110           0
     48776 WT17     147      MECN     N3       NG1T1   -0.460000       14.0070           0
     48777 WT17     148      MECN     C1       CG331   -0.170000       12.0110           0
     48778 WT17     148      MECN     H11      HGA3     0.090000        1.0080           0
     48779 WT17     148      MECN     H12      HGA3     0.090000        1.0080           0
     48780 WT17     148      MECN     H13      HGA3     0.090000        1.0080           0
     48781 WT17     148      MECN     C2       CG1N1    0.360000       12.0110           0
     48782 WT17     148      MECN     N3       NG1T1   -0.460000       14.0070           0
     48783 WT17     149      MECN     C1       CG331   -0.170000       12.0110           0
     48784 WT17     149      MECN     H11      HGA3     0.090000        1.0080           0
     48785 WT17     149      MECN     H12      HGA3     0.090000        1.0080           0
     48786 WT17     149      MECN     H13      HGA3     0.090000        1.0080           0
     48787 WT17     149      MECN     C2       CG1N1    0.360000       12.0110           0
     48788 WT17     149      MECN     N3       NG1T1   -0.460000       14.0070           0
     48789 WT17     150      MECN     C1       CG331   -0.170000       12.0110           0
     48790 WT17     150      MECN     H11      HGA3     0.090000        1.0080           0
     48791 WT17     150      MECN     H12      HGA3     0.090000        1.0080           0
     48792 WT17     150      MECN     H13      HGA3     0.090000        1.0080           0
     48793 WT17     150      MECN     C2       CG1N1    0.360000       12.0110           0
     48794 WT17     150      MECN     N3       NG1T1   -0.460000       14.0070           0
     48795 WT17     152      MECN     C1       CG331   -0.170000       12.0110           0
     48796 WT17     152      MECN     H11      HGA3     0.090000        1.0080           0
     48797 WT17     152      MECN     H12      HGA3     0.090000        1.0080           0
     48798 WT17     152      MECN     H13      HGA3     0.090000        1.0080           0
     48799 WT17     152      MECN     C2       CG1N1    0.360000       12.0110           0
     48800 WT17     152      MECN     N3       NG1T1   -0.460000       14.0070           0
     48801 WT17     153      MECN     C1       CG331   -0.170000       12.0110           0
     48802 WT17     153      MECN     H11      HGA3     0.090000        1.0080           0
     48803 WT17     153      MECN     H12      HGA3     0.090000        1.0080           0
     48804 WT17     153      MECN     H13      HGA3     0.090000        1.0080           0
     48805 WT17     153      MECN     C2       CG1N1    0.360000       12.0110           0
     48806 WT17     153      MECN     N3       NG1T1   -0.460000       14.0070           0
     48807 WT17     154      MECN     C1       CG331   -0.170000       12.0110           0
     48808 WT17     154      MECN     H11      HGA3     0.090000        1.0080           0
     48809 WT17     154      MECN     H12      HGA3     0.090000        1.0080           0
     48810 WT17     154      MECN     H13      HGA3     0.090000        1.0080           0
     48811 WT17     154      MECN     C2       CG1N1    0.360000       12.0110           0
     48812 WT17     154      MECN     N3       NG1T1   -0.460000       14.0070           0
     48813 WT17     155      MECN     C1       CG331   -0.170000       12.0110           0
     48814 WT17     155      MECN     H11      HGA3     0.090000        1.0080           0
     48815 WT17     155      MECN     H12      HGA3     0.090000        1.0080           0
     48816 WT17     155      MECN     H13      HGA3     0.090000        1.0080           0
     48817 WT17     155      MECN     C2       CG1N1    0.360000       12.0110           0
     48818 WT17     155      MECN     N3       NG1T1   -0.460000       14.0070           0
     48819 WT17     156      MECN     C1       CG331   -0.170000       12.0110           0
     48820 WT17     156      MECN     H11      HGA3     0.090000        1.0080           0
     48821 WT17     156      MECN     H12      HGA3     0.090000        1.0080           0
     48822 WT17     156      MECN     H13      HGA3     0.090000        1.0080           0
     48823 WT17     156      MECN     C2       CG1N1    0.360000       12.0110           0
     48824 WT17     156      MECN     N3       NG1T1   -0.460000       14.0070           0
     48825 WT17     157      MECN     C1       CG331   -0.170000       12.0110           0
     48826 WT17     157      MECN     H11      HGA3     0.090000        1.0080           0
     48827 WT17     157      MECN     H12      HGA3     0.090000        1.0080           0
     48828 WT17     157      MECN     H13      HGA3     0.090000        1.0080           0
     48829 WT17     157      MECN     C2       CG1N1    0.360000       12.0110           0
     48830 WT17     157      MECN     N3       NG1T1   -0.460000       14.0070           0
     48831 WT17     158      MECN     C1       CG331   -0.170000       12.0110           0
     48832 WT17     158      MECN     H11      HGA3     0.090000        1.0080           0
     48833 WT17     158      MECN     H12      HGA3     0.090000        1.0080           0
     48834 WT17     158      MECN     H13      HGA3     0.090000        1.0080           0
     48835 WT17     158      MECN     C2       CG1N1    0.360000       12.0110           0
     48836 WT17     158      MECN     N3       NG1T1   -0.460000       14.0070           0
     48837 WT17     160      MECN     C1       CG331   -0.170000       12.0110           0
     48838 WT17     160      MECN     H11      HGA3     0.090000        1.0080           0
     48839 WT17     160      MECN     H12      HGA3     0.090000        1.0080           0
     48840 WT17     160      MECN     H13      HGA3     0.090000        1.0080           0
     48841 WT17     160      MECN     C2       CG1N1    0.360000       12.0110           0
     48842 WT17     160      MECN     N3       NG1T1   -0.460000       14.0070           0
     48843 WT17     162      MECN     C1       CG331   -0.170000       12.0110           0
     48844 WT17     162      MECN     H11      HGA3     0.090000        1.0080           0
     48845 WT17     162      MECN     H12      HGA3     0.090000        1.0080           0
     48846 WT17     162      MECN     H13      HGA3     0.090000        1.0080           0
     48847 WT17     162      MECN     C2       CG1N1    0.360000       12.0110           0
     48848 WT17     162      MECN     N3       NG1T1   -0.460000       14.0070           0
     48849 WT17     163      MECN     C1       CG331   -0.170000       12.0110           0
     48850 WT17     163      MECN     H11      HGA3     0.090000        1.0080           0
     48851 WT17     163      MECN     H12      HGA3     0.090000        1.0080           0
     48852 WT17     163      MECN     H13      HGA3     0.090000        1.0080           0
     48853 WT17     163      MECN     C2       CG1N1    0.360000       12.0110           0
     48854 WT17     163      MECN     N3       NG1T1   -0.460000       14.0070           0
     48855 WT17     165      MECN     C1       CG331   -0.170000       12.0110           0
     48856 WT17     165      MECN     H11      HGA3     0.090000        1.0080           0
     48857 WT17     165      MECN     H12      HGA3     0.090000        1.0080           0
     48858 WT17     165      MECN     H13      HGA3     0.090000        1.0080           0
     48859 WT17     165      MECN     C2       CG1N1    0.360000       12.0110           0
     48860 WT17     165      MECN     N3       NG1T1   -0.460000       14.0070           0
     48861 WT17     166      MECN     C1       CG331   -0.170000       12.0110           0
     48862 WT17     166      MECN     H11      HGA3     0.090000        1.0080           0
     48863 WT17     166      MECN     H12      HGA3     0.090000        1.0080           0
     48864 WT17     166      MECN     H13      HGA3     0.090000        1.0080           0
     48865 WT17     166      MECN     C2       CG1N1    0.360000       12.0110           0
     48866 WT17     166      MECN     N3       NG1T1   -0.460000       14.0070           0
     48867 WT17     167      MECN     C1       CG331   -0.170000       12.0110           0
     48868 WT17     167      MECN     H11      HGA3     0.090000        1.0080           0
     48869 WT17     167      MECN     H12      HGA3     0.090000        1.0080           0
     48870 WT17     167      MECN     H13      HGA3     0.090000        1.0080           0
     48871 WT17     167      MECN     C2       CG1N1    0.360000       12.0110           0
     48872 WT17     167      MECN     N3       NG1T1   -0.460000       14.0070           0
     48873 WT17     168      MECN     C1       CG331   -0.170000       12.0110           0
     48874 WT17     168      MECN     H11      HGA3     0.090000        1.0080           0
     48875 WT17     168      MECN     H12      HGA3     0.090000        1.0080           0
     48876 WT17     168      MECN     H13      HGA3     0.090000        1.0080           0
     48877 WT17     168      MECN     C2       CG1N1    0.360000       12.0110           0
     48878 WT17     168      MECN     N3       NG1T1   -0.460000       14.0070           0
     48879 WT17     169      MECN     C1       CG331   -0.170000       12.0110           0
     48880 WT17     169      MECN     H11      HGA3     0.090000        1.0080           0
     48881 WT17     169      MECN     H12      HGA3     0.090000        1.0080           0
     48882 WT17     169      MECN     H13      HGA3     0.090000        1.0080           0
     48883 WT17     169      MECN     C2       CG1N1    0.360000       12.0110           0
     48884 WT17     169      MECN     N3       NG1T1   -0.460000       14.0070           0
     48885 WT17     170      MECN     C1       CG331   -0.170000       12.0110           0
     48886 WT17     170      MECN     H11      HGA3     0.090000        1.0080           0
     48887 WT17     170      MECN     H12      HGA3     0.090000        1.0080           0
     48888 WT17     170      MECN     H13      HGA3     0.090000        1.0080           0
     48889 WT17     170      MECN     C2       CG1N1    0.360000       12.0110           0
     48890 WT17     170      MECN     N3       NG1T1   -0.460000       14.0070           0
     48891 WT17     172      MECN     C1       CG331   -0.170000       12.0110           0
     48892 WT17     172      MECN     H11      HGA3     0.090000        1.0080           0
     48893 WT17     172      MECN     H12      HGA3     0.090000        1.0080           0
     48894 WT17     172      MECN     H13      HGA3     0.090000        1.0080           0
     48895 WT17     172      MECN     C2       CG1N1    0.360000       12.0110           0
     48896 WT17     172      MECN     N3       NG1T1   -0.460000       14.0070           0
     48897 WT17     176      MECN     C1       CG331   -0.170000       12.0110           0
     48898 WT17     176      MECN     H11      HGA3     0.090000        1.0080           0
     48899 WT17     176      MECN     H12      HGA3     0.090000        1.0080           0
     48900 WT17     176      MECN     H13      HGA3     0.090000        1.0080           0
     48901 WT17     176      MECN     C2       CG1N1    0.360000       12.0110           0
     48902 WT17     176      MECN     N3       NG1T1   -0.460000       14.0070           0
     48903 WT17     178      MECN     C1       CG331   -0.170000       12.0110           0
     48904 WT17     178      MECN     H11      HGA3     0.090000        1.0080           0
     48905 WT17     178      MECN     H12      HGA3     0.090000        1.0080           0
     48906 WT17     178      MECN     H13      HGA3     0.090000        1.0080           0
     48907 WT17     178      MECN     C2       CG1N1    0.360000       12.0110           0
     48908 WT17     178      MECN     N3       NG1T1   -0.460000       14.0070           0
     48909 WT17     179      MECN     C1       CG331   -0.170000       12.0110           0
     48910 WT17     179      MECN     H11      HGA3     0.090000        1.0080           0
     48911 WT17     179      MECN     H12      HGA3     0.090000        1.0080           0
     48912 WT17     179      MECN     H13      HGA3     0.090000        1.0080           0
     48913 WT17     179      MECN     C2       CG1N1    0.360000       12.0110           0
     48914 WT17     179      MECN     N3       NG1T1   -0.460000       14.0070           0
     48915 WT17     180      MECN     C1       CG331   -0.170000       12.0110           0
     48916 WT17     180      MECN     H11      HGA3     0.090000        1.0080           0
     48917 WT17     180      MECN     H12      HGA3     0.090000        1.0080           0
     48918 WT17     180      MECN     H13      HGA3     0.090000        1.0080           0
     48919 WT17     180      MECN     C2       CG1N1    0.360000       12.0110           0
     48920 WT17     180      MECN     N3       NG1T1   -0.460000       14.0070           0
     48921 WT17     181      MECN     C1       CG331   -0.170000       12.0110           0
     48922 WT17     181      MECN     H11      HGA3     0.090000        1.0080           0
     48923 WT17     181      MECN     H12      HGA3     0.090000        1.0080           0
     48924 WT17     181      MECN     H13      HGA3     0.090000        1.0080           0
     48925 WT17     181      MECN     C2       CG1N1    0.360000       12.0110           0
     48926 WT17     181      MECN     N3       NG1T1   -0.460000       14.0070           0
     48927 WT17     183      MECN     C1       CG331   -0.170000       12.0110           0
     48928 WT17     183      MECN     H11      HGA3     0.090000        1.0080           0
     48929 WT17     183      MECN     H12      HGA3     0.090000        1.0080           0
     48930 WT17     183      MECN     H13      HGA3     0.090000        1.0080           0
     48931 WT17     183      MECN     C2       CG1N1    0.360000       12.0110           0
     48932 WT17     183      MECN     N3       NG1T1   -0.460000       14.0070           0
     48933 WT17     186      MECN     C1       CG331   -0.170000       12.0110           0
     48934 WT17     186      MECN     H11      HGA3     0.090000        1.0080           0
     48935 WT17     186      MECN     H12      HGA3     0.090000        1.0080           0
     48936 WT17     186      MECN     H13      HGA3     0.090000        1.0080           0
     48937 WT17     186      MECN     C2       CG1N1    0.360000       12.0110           0
     48938 WT17     186      MECN     N3       NG1T1   -0.460000       14.0070           0
     48939 WT17     187      MECN     C1       CG331   -0.170000       12.0110           0
     48940 WT17     187      MECN     H11      HGA3     0.090000        1.0080           0
     48941 WT17     187      MECN     H12      HGA3     0.090000        1.0080           0
     48942 WT17     187      MECN     H13      HGA3     0.090000        1.0080           0
     48943 WT17     187      MECN     C2       CG1N1    0.360000       12.0110           0
     48944 WT17     187      MECN     N3       NG1T1   -0.460000       14.0070           0
     48945 WT17     188      MECN     C1       CG331   -0.170000       12.0110           0
     48946 WT17     188      MECN     H11      HGA3     0.090000        1.0080           0
     48947 WT17     188      MECN     H12      HGA3     0.090000        1.0080           0
     48948 WT17     188      MECN     H13      HGA3     0.090000        1.0080           0
     48949 WT17     188      MECN     C2       CG1N1    0.360000       12.0110           0
     48950 WT17     188      MECN     N3       NG1T1   -0.460000       14.0070           0
     48951 WT17     189      MECN     C1       CG331   -0.170000       12.0110           0
     48952 WT17     189      MECN     H11      HGA3     0.090000        1.0080           0
     48953 WT17     189      MECN     H12      HGA3     0.090000        1.0080           0
     48954 WT17     189      MECN     H13      HGA3     0.090000        1.0080           0
     48955 WT17     189      MECN     C2       CG1N1    0.360000       12.0110           0
     48956 WT17     189      MECN     N3       NG1T1   -0.460000       14.0070           0
     48957 WT17     196      MECN     C1       CG331   -0.170000       12.0110           0
     48958 WT17     196      MECN     H11      HGA3     0.090000        1.0080           0
     48959 WT17     196      MECN     H12      HGA3     0.090000        1.0080           0
     48960 WT17     196      MECN     H13      HGA3     0.090000        1.0080           0
     48961 WT17     196      MECN     C2       CG1N1    0.360000       12.0110           0
     48962 WT17     196      MECN     N3       NG1T1   -0.460000       14.0070           0
     48963 WT17     198      MECN     C1       CG331   -0.170000       12.0110           0
     48964 WT17     198      MECN     H11      HGA3     0.090000        1.0080           0
     48965 WT17     198      MECN     H12      HGA3     0.090000        1.0080           0
     48966 WT17     198      MECN     H13      HGA3     0.090000        1.0080           0
     48967 WT17     198      MECN     C2       CG1N1    0.360000       12.0110           0
     48968 WT17     198      MECN     N3       NG1T1   -0.460000       14.0070           0
     48969 WT17     199      MECN     C1       CG331   -0.170000       12.0110           0
     48970 WT17     199      MECN     H11      HGA3     0.090000        1.0080           0
     48971 WT17     199      MECN     H12      HGA3     0.090000        1.0080           0
     48972 WT17     199      MECN     H13      HGA3     0.090000        1.0080           0
     48973 WT17     199      MECN     C2       CG1N1    0.360000       12.0110           0
     48974 WT17     199      MECN     N3       NG1T1   -0.460000       14.0070           0
     48975 WT17     200      MECN     C1       CG331   -0.170000       12.0110           0
     48976 WT17     200      MECN     H11      HGA3     0.090000        1.0080           0
     48977 WT17     200      MECN     H12      HGA3     0.090000        1.0080           0
     48978 WT17     200      MECN     H13      HGA3     0.090000        1.0080           0
     48979 WT17     200      MECN     C2       CG1N1    0.360000       12.0110           0
     48980 WT17     200      MECN     N3       NG1T1   -0.460000       14.0070           0
     48981 WT17     202      MECN     C1       CG331   -0.170000       12.0110           0
     48982 WT17     202      MECN     H11      HGA3     0.090000        1.0080           0
     48983 WT17     202      MECN     H12      HGA3     0.090000        1.0080           0
     48984 WT17     202      MECN     H13      HGA3     0.090000        1.0080           0
     48985 WT17     202      MECN     C2       CG1N1    0.360000       12.0110           0
     48986 WT17     202      MECN     N3       NG1T1   -0.460000       14.0070           0
     48987 WT17     203      MECN     C1       CG331   -0.170000       12.0110           0
     48988 WT17     203      MECN     H11      HGA3     0.090000        1.0080           0
     48989 WT17     203      MECN     H12      HGA3     0.090000        1.0080           0
     48990 WT17     203      MECN     H13      HGA3     0.090000        1.0080           0
     48991 WT17     203      MECN     C2       CG1N1    0.360000       12.0110           0
     48992 WT17     203      MECN     N3       NG1T1   -0.460000       14.0070           0
     48993 WT17     204      MECN     C1       CG331   -0.170000       12.0110           0
     48994 WT17     204      MECN     H11      HGA3     0.090000        1.0080           0
     48995 WT17     204      MECN     H12      HGA3     0.090000        1.0080           0
     48996 WT17     204      MECN     H13      HGA3     0.090000        1.0080           0
     48997 WT17     204      MECN     C2       CG1N1    0.360000       12.0110           0
     48998 WT17     204      MECN     N3       NG1T1   -0.460000       14.0070           0
     48999 WT17     205      MECN     C1       CG331   -0.170000       12.0110           0
     49000 WT17     205      MECN     H11      HGA3     0.090000        1.0080           0
     49001 WT17     205      MECN     H12      HGA3     0.090000        1.0080           0
     49002 WT17     205      MECN     H13      HGA3     0.090000        1.0080           0
     49003 WT17     205      MECN     C2       CG1N1    0.360000       12.0110           0
     49004 WT17     205      MECN     N3       NG1T1   -0.460000       14.0070           0
     49005 WT17     206      MECN     C1       CG331   -0.170000       12.0110           0
     49006 WT17     206      MECN     H11      HGA3     0.090000        1.0080           0
     49007 WT17     206      MECN     H12      HGA3     0.090000        1.0080           0
     49008 WT17     206      MECN     H13      HGA3     0.090000        1.0080           0
     49009 WT17     206      MECN     C2       CG1N1    0.360000       12.0110           0
     49010 WT17     206      MECN     N3       NG1T1   -0.460000       14.0070           0
     49011 WT17     207      MECN     C1       CG331   -0.170000       12.0110           0
     49012 WT17     207      MECN     H11      HGA3     0.090000        1.0080           0
     49013 WT17     207      MECN     H12      HGA3     0.090000        1.0080           0
     49014 WT17     207      MECN     H13      HGA3     0.090000        1.0080           0
     49015 WT17     207      MECN     C2       CG1N1    0.360000       12.0110           0
     49016 WT17     207      MECN     N3       NG1T1   -0.460000       14.0070           0
     49017 WT17     208      MECN     C1       CG331   -0.170000       12.0110           0
     49018 WT17     208      MECN     H11      HGA3     0.090000        1.0080           0
     49019 WT17     208      MECN     H12      HGA3     0.090000        1.0080           0
     49020 WT17     208      MECN     H13      HGA3     0.090000        1.0080           0
     49021 WT17     208      MECN     C2       CG1N1    0.360000       12.0110           0
     49022 WT17     208      MECN     N3       NG1T1   -0.460000       14.0070           0
     49023 WT17     209      MECN     C1       CG331   -0.170000       12.0110           0
     49024 WT17     209      MECN     H11      HGA3     0.090000        1.0080           0
     49025 WT17     209      MECN     H12      HGA3     0.090000        1.0080           0
     49026 WT17     209      MECN     H13      HGA3     0.090000        1.0080           0
     49027 WT17     209      MECN     C2       CG1N1    0.360000       12.0110           0
     49028 WT17     209      MECN     N3       NG1T1   -0.460000       14.0070           0
     49029 WT17     210      MECN     C1       CG331   -0.170000       12.0110           0
     49030 WT17     210      MECN     H11      HGA3     0.090000        1.0080           0
     49031 WT17     210      MECN     H12      HGA3     0.090000        1.0080           0
     49032 WT17     210      MECN     H13      HGA3     0.090000        1.0080           0
     49033 WT17     210      MECN     C2       CG1N1    0.360000       12.0110           0
     49034 WT17     210      MECN     N3       NG1T1   -0.460000       14.0070           0
     49035 WT17     215      MECN     C1       CG331   -0.170000       12.0110           0
     49036 WT17     215      MECN     H11      HGA3     0.090000        1.0080           0
     49037 WT17     215      MECN     H12      HGA3     0.090000        1.0080           0
     49038 WT17     215      MECN     H13      HGA3     0.090000        1.0080           0
     49039 WT17     215      MECN     C2       CG1N1    0.360000       12.0110           0
     49040 WT17     215      MECN     N3       NG1T1   -0.460000       14.0070           0
     49041 WT17     217      MECN     C1       CG331   -0.170000       12.0110           0
     49042 WT17     217      MECN     H11      HGA3     0.090000        1.0080           0
     49043 WT17     217      MECN     H12      HGA3     0.090000        1.0080           0
     49044 WT17     217      MECN     H13      HGA3     0.090000        1.0080           0
     49045 WT17     217      MECN     C2       CG1N1    0.360000       12.0110           0
     49046 WT17     217      MECN     N3       NG1T1   -0.460000       14.0070           0
     49047 WT17     218      MECN     C1       CG331   -0.170000       12.0110           0
     49048 WT17     218      MECN     H11      HGA3     0.090000        1.0080           0
     49049 WT17     218      MECN     H12      HGA3     0.090000        1.0080           0
     49050 WT17     218      MECN     H13      HGA3     0.090000        1.0080           0
     49051 WT17     218      MECN     C2       CG1N1    0.360000       12.0110           0
     49052 WT17     218      MECN     N3       NG1T1   -0.460000       14.0070           0
     49053 WT17     221      MECN     C1       CG331   -0.170000       12.0110           0
     49054 WT17     221      MECN     H11      HGA3     0.090000        1.0080           0
     49055 WT17     221      MECN     H12      HGA3     0.090000        1.0080           0
     49056 WT17     221      MECN     H13      HGA3     0.090000        1.0080           0
     49057 WT17     221      MECN     C2       CG1N1    0.360000       12.0110           0
     49058 WT17     221      MECN     N3       NG1T1   -0.460000       14.0070           0
     49059 WT17     222      MECN     C1       CG331   -0.170000       12.0110           0
     49060 WT17     222      MECN     H11      HGA3     0.090000        1.0080           0
     49061 WT17     222      MECN     H12      HGA3     0.090000        1.0080           0
     49062 WT17     222      MECN     H13      HGA3     0.090000        1.0080           0
     49063 WT17     222      MECN     C2       CG1N1    0.360000       12.0110           0
     49064 WT17     222      MECN     N3       NG1T1   -0.460000       14.0070           0
     49065 WT17     223      MECN     C1       CG331   -0.170000       12.0110           0
     49066 WT17     223      MECN     H11      HGA3     0.090000        1.0080           0
     49067 WT17     223      MECN     H12      HGA3     0.090000        1.0080           0
     49068 WT17     223      MECN     H13      HGA3     0.090000        1.0080           0
     49069 WT17     223      MECN     C2       CG1N1    0.360000       12.0110           0
     49070 WT17     223      MECN     N3       NG1T1   -0.460000       14.0070           0
     49071 WT17     226      MECN     C1       CG331   -0.170000       12.0110           0
     49072 WT17     226      MECN     H11      HGA3     0.090000        1.0080           0
     49073 WT17     226      MECN     H12      HGA3     0.090000        1.0080           0
     49074 WT17     226      MECN     H13      HGA3     0.090000        1.0080           0
     49075 WT17     226      MECN     C2       CG1N1    0.360000       12.0110           0
     49076 WT17     226      MECN     N3       NG1T1   -0.460000       14.0070           0
     49077 WT17     227      MECN     C1       CG331   -0.170000       12.0110           0
     49078 WT17     227      MECN     H11      HGA3     0.090000        1.0080           0
     49079 WT17     227      MECN     H12      HGA3     0.090000        1.0080           0
     49080 WT17     227      MECN     H13      HGA3     0.090000        1.0080           0
     49081 WT17     227      MECN     C2       CG1N1    0.360000       12.0110           0
     49082 WT17     227      MECN     N3       NG1T1   -0.460000       14.0070           0
     49083 WT17     228      MECN     C1       CG331   -0.170000       12.0110           0
     49084 WT17     228      MECN     H11      HGA3     0.090000        1.0080           0
     49085 WT17     228      MECN     H12      HGA3     0.090000        1.0080           0
     49086 WT17     228      MECN     H13      HGA3     0.090000        1.0080           0
     49087 WT17     228      MECN     C2       CG1N1    0.360000       12.0110           0
     49088 WT17     228      MECN     N3       NG1T1   -0.460000       14.0070           0
     49089 WT17     230      MECN     C1       CG331   -0.170000       12.0110           0
     49090 WT17     230      MECN     H11      HGA3     0.090000        1.0080           0
     49091 WT17     230      MECN     H12      HGA3     0.090000        1.0080           0
     49092 WT17     230      MECN     H13      HGA3     0.090000        1.0080           0
     49093 WT17     230      MECN     C2       CG1N1    0.360000       12.0110           0
     49094 WT17     230      MECN     N3       NG1T1   -0.460000       14.0070           0
     49095 WT17     232      MECN     C1       CG331   -0.170000       12.0110           0
     49096 WT17     232      MECN     H11      HGA3     0.090000        1.0080           0
     49097 WT17     232      MECN     H12      HGA3     0.090000        1.0080           0
     49098 WT17     232      MECN     H13      HGA3     0.090000        1.0080           0
     49099 WT17     232      MECN     C2       CG1N1    0.360000       12.0110           0
     49100 WT17     232      MECN     N3       NG1T1   -0.460000       14.0070           0
     49101 WT17     234      MECN     C1       CG331   -0.170000       12.0110           0
     49102 WT17     234      MECN     H11      HGA3     0.090000        1.0080           0
     49103 WT17     234      MECN     H12      HGA3     0.090000        1.0080           0
     49104 WT17     234      MECN     H13      HGA3     0.090000        1.0080           0
     49105 WT17     234      MECN     C2       CG1N1    0.360000       12.0110           0
     49106 WT17     234      MECN     N3       NG1T1   -0.460000       14.0070           0
     49107 WT17     235      MECN     C1       CG331   -0.170000       12.0110           0
     49108 WT17     235      MECN     H11      HGA3     0.090000        1.0080           0
     49109 WT17     235      MECN     H12      HGA3     0.090000        1.0080           0
     49110 WT17     235      MECN     H13      HGA3     0.090000        1.0080           0
     49111 WT17     235      MECN     C2       CG1N1    0.360000       12.0110           0
     49112 WT17     235      MECN     N3       NG1T1   -0.460000       14.0070           0
     49113 WT17     237      MECN     C1       CG331   -0.170000       12.0110           0
     49114 WT17     237      MECN     H11      HGA3     0.090000        1.0080           0
     49115 WT17     237      MECN     H12      HGA3     0.090000        1.0080           0
     49116 WT17     237      MECN     H13      HGA3     0.090000        1.0080           0
     49117 WT17     237      MECN     C2       CG1N1    0.360000       12.0110           0
     49118 WT17     237      MECN     N3       NG1T1   -0.460000       14.0070           0
     49119 WT17     239      MECN     C1       CG331   -0.170000       12.0110           0
     49120 WT17     239      MECN     H11      HGA3     0.090000        1.0080           0
     49121 WT17     239      MECN     H12      HGA3     0.090000        1.0080           0
     49122 WT17     239      MECN     H13      HGA3     0.090000        1.0080           0
     49123 WT17     239      MECN     C2       CG1N1    0.360000       12.0110           0
     49124 WT17     239      MECN     N3       NG1T1   -0.460000       14.0070           0
     49125 WT17     240      MECN     C1       CG331   -0.170000       12.0110           0
     49126 WT17     240      MECN     H11      HGA3     0.090000        1.0080           0
     49127 WT17     240      MECN     H12      HGA3     0.090000        1.0080           0
     49128 WT17     240      MECN     H13      HGA3     0.090000        1.0080           0
     49129 WT17     240      MECN     C2       CG1N1    0.360000       12.0110           0
     49130 WT17     240      MECN     N3       NG1T1   -0.460000       14.0070           0
     49131 WT17     241      MECN     C1       CG331   -0.170000       12.0110           0
     49132 WT17     241      MECN     H11      HGA3     0.090000        1.0080           0
     49133 WT17     241      MECN     H12      HGA3     0.090000        1.0080           0
     49134 WT17     241      MECN     H13      HGA3     0.090000        1.0080           0
     49135 WT17     241      MECN     C2       CG1N1    0.360000       12.0110           0
     49136 WT17     241      MECN     N3       NG1T1   -0.460000       14.0070           0
     49137 WT17     242      MECN     C1       CG331   -0.170000       12.0110           0
     49138 WT17     242      MECN     H11      HGA3     0.090000        1.0080           0
     49139 WT17     242      MECN     H12      HGA3     0.090000        1.0080           0
     49140 WT17     242      MECN     H13      HGA3     0.090000        1.0080           0
     49141 WT17     242      MECN     C2       CG1N1    0.360000       12.0110           0
     49142 WT17     242      MECN     N3       NG1T1   -0.460000       14.0070           0
     49143 WT17     243      MECN     C1       CG331   -0.170000       12.0110           0
     49144 WT17     243      MECN     H11      HGA3     0.090000        1.0080           0
     49145 WT17     243      MECN     H12      HGA3     0.090000        1.0080           0
     49146 WT17     243      MECN     H13      HGA3     0.090000        1.0080           0
     49147 WT17     243      MECN     C2       CG1N1    0.360000       12.0110           0
     49148 WT17     243      MECN     N3       NG1T1   -0.460000       14.0070           0
     49149 WT17     244      MECN     C1       CG331   -0.170000       12.0110           0
     49150 WT17     244      MECN     H11      HGA3     0.090000        1.0080           0
     49151 WT17     244      MECN     H12      HGA3     0.090000        1.0080           0
     49152 WT17     244      MECN     H13      HGA3     0.090000        1.0080           0
     49153 WT17     244      MECN     C2       CG1N1    0.360000       12.0110           0
     49154 WT17     244      MECN     N3       NG1T1   -0.460000       14.0070           0
     49155 WT17     245      MECN     C1       CG331   -0.170000       12.0110           0
     49156 WT17     245      MECN     H11      HGA3     0.090000        1.0080           0
     49157 WT17     245      MECN     H12      HGA3     0.090000        1.0080           0
     49158 WT17     245      MECN     H13      HGA3     0.090000        1.0080           0
     49159 WT17     245      MECN     C2       CG1N1    0.360000       12.0110           0
     49160 WT17     245      MECN     N3       NG1T1   -0.460000       14.0070           0
     49161 WT17     246      MECN     C1       CG331   -0.170000       12.0110           0
     49162 WT17     246      MECN     H11      HGA3     0.090000        1.0080           0
     49163 WT17     246      MECN     H12      HGA3     0.090000        1.0080           0
     49164 WT17     246      MECN     H13      HGA3     0.090000        1.0080           0
     49165 WT17     246      MECN     C2       CG1N1    0.360000       12.0110           0
     49166 WT17     246      MECN     N3       NG1T1   -0.460000       14.0070           0
     49167 WT17     247      MECN     C1       CG331   -0.170000       12.0110           0
     49168 WT17     247      MECN     H11      HGA3     0.090000        1.0080           0
     49169 WT17     247      MECN     H12      HGA3     0.090000        1.0080           0
     49170 WT17     247      MECN     H13      HGA3     0.090000        1.0080           0
     49171 WT17     247      MECN     C2       CG1N1    0.360000       12.0110           0
     49172 WT17     247      MECN     N3       NG1T1   -0.460000       14.0070           0
     49173 WT17     249      MECN     C1       CG331   -0.170000       12.0110           0
     49174 WT17     249      MECN     H11      HGA3     0.090000        1.0080           0
     49175 WT17     249      MECN     H12      HGA3     0.090000        1.0080           0
     49176 WT17     249      MECN     H13      HGA3     0.090000        1.0080           0
     49177 WT17     249      MECN     C2       CG1N1    0.360000       12.0110           0
     49178 WT17     249      MECN     N3       NG1T1   -0.460000       14.0070           0
     49179 WT17     250      MECN     C1       CG331   -0.170000       12.0110           0
     49180 WT17     250      MECN     H11      HGA3     0.090000        1.0080           0
     49181 WT17     250      MECN     H12      HGA3     0.090000        1.0080           0
     49182 WT17     250      MECN     H13      HGA3     0.090000        1.0080           0
     49183 WT17     250      MECN     C2       CG1N1    0.360000       12.0110           0
     49184 WT17     250      MECN     N3       NG1T1   -0.460000       14.0070           0
     49185 WT17     252      MECN     C1       CG331   -0.170000       12.0110           0
     49186 WT17     252      MECN     H11      HGA3     0.090000        1.0080           0
     49187 WT17     252      MECN     H12      HGA3     0.090000        1.0080           0
     49188 WT17     252      MECN     H13      HGA3     0.090000        1.0080           0
     49189 WT17     252      MECN     C2       CG1N1    0.360000       12.0110           0
     49190 WT17     252      MECN     N3       NG1T1   -0.460000       14.0070           0
     49191 WT17     253      MECN     C1       CG331   -0.170000       12.0110           0
     49192 WT17     253      MECN     H11      HGA3     0.090000        1.0080           0
     49193 WT17     253      MECN     H12      HGA3     0.090000        1.0080           0
     49194 WT17     253      MECN     H13      HGA3     0.090000        1.0080           0
     49195 WT17     253      MECN     C2       CG1N1    0.360000       12.0110           0
     49196 WT17     253      MECN     N3       NG1T1   -0.460000       14.0070           0
     49197 WT17     254      MECN     C1       CG331   -0.170000       12.0110           0
     49198 WT17     254      MECN     H11      HGA3     0.090000        1.0080           0
     49199 WT17     254      MECN     H12      HGA3     0.090000        1.0080           0
     49200 WT17     254      MECN     H13      HGA3     0.090000        1.0080           0
     49201 WT17     254      MECN     C2       CG1N1    0.360000       12.0110           0
     49202 WT17     254      MECN     N3       NG1T1   -0.460000       14.0070           0
     49203 WT17     256      MECN     C1       CG331   -0.170000       12.0110           0
     49204 WT17     256      MECN     H11      HGA3     0.090000        1.0080           0
     49205 WT17     256      MECN     H12      HGA3     0.090000        1.0080           0
     49206 WT17     256      MECN     H13      HGA3     0.090000        1.0080           0
     49207 WT17     256      MECN     C2       CG1N1    0.360000       12.0110           0
     49208 WT17     256      MECN     N3       NG1T1   -0.460000       14.0070           0
     49209 WT17     258      MECN     C1       CG331   -0.170000       12.0110           0
     49210 WT17     258      MECN     H11      HGA3     0.090000        1.0080           0
     49211 WT17     258      MECN     H12      HGA3     0.090000        1.0080           0
     49212 WT17     258      MECN     H13      HGA3     0.090000        1.0080           0
     49213 WT17     258      MECN     C2       CG1N1    0.360000       12.0110           0
     49214 WT17     258      MECN     N3       NG1T1   -0.460000       14.0070           0
     49215 WT17     259      MECN     C1       CG331   -0.170000       12.0110           0
     49216 WT17     259      MECN     H11      HGA3     0.090000        1.0080           0
     49217 WT17     259      MECN     H12      HGA3     0.090000        1.0080           0
     49218 WT17     259      MECN     H13      HGA3     0.090000        1.0080           0
     49219 WT17     259      MECN     C2       CG1N1    0.360000       12.0110           0
     49220 WT17     259      MECN     N3       NG1T1   -0.460000       14.0070           0
     49221 WT17     260      MECN     C1       CG331   -0.170000       12.0110           0
     49222 WT17     260      MECN     H11      HGA3     0.090000        1.0080           0
     49223 WT17     260      MECN     H12      HGA3     0.090000        1.0080           0
     49224 WT17     260      MECN     H13      HGA3     0.090000        1.0080           0
     49225 WT17     260      MECN     C2       CG1N1    0.360000       12.0110           0
     49226 WT17     260      MECN     N3       NG1T1   -0.460000       14.0070           0
     49227 WT17     261      MECN     C1       CG331   -0.170000       12.0110           0
     49228 WT17     261      MECN     H11      HGA3     0.090000        1.0080           0
     49229 WT17     261      MECN     H12      HGA3     0.090000        1.0080           0
     49230 WT17     261      MECN     H13      HGA3     0.090000        1.0080           0
     49231 WT17     261      MECN     C2       CG1N1    0.360000       12.0110           0
     49232 WT17     261      MECN     N3       NG1T1   -0.460000       14.0070           0
     49233 WT17     263      MECN     C1       CG331   -0.170000       12.0110           0
     49234 WT17     263      MECN     H11      HGA3     0.090000        1.0080           0
     49235 WT17     263      MECN     H12      HGA3     0.090000        1.0080           0
     49236 WT17     263      MECN     H13      HGA3     0.090000        1.0080           0
     49237 WT17     263      MECN     C2       CG1N1    0.360000       12.0110           0
     49238 WT17     263      MECN     N3       NG1T1   -0.460000       14.0070           0
     49239 WT17     264      MECN     C1       CG331   -0.170000       12.0110           0
     49240 WT17     264      MECN     H11      HGA3     0.090000        1.0080           0
     49241 WT17     264      MECN     H12      HGA3     0.090000        1.0080           0
     49242 WT17     264      MECN     H13      HGA3     0.090000        1.0080           0
     49243 WT17     264      MECN     C2       CG1N1    0.360000       12.0110           0
     49244 WT17     264      MECN     N3       NG1T1   -0.460000       14.0070           0
     49245 WT17     265      MECN     C1       CG331   -0.170000       12.0110           0
     49246 WT17     265      MECN     H11      HGA3     0.090000        1.0080           0
     49247 WT17     265      MECN     H12      HGA3     0.090000        1.0080           0
     49248 WT17     265      MECN     H13      HGA3     0.090000        1.0080           0
     49249 WT17     265      MECN     C2       CG1N1    0.360000       12.0110           0
     49250 WT17     265      MECN     N3       NG1T1   -0.460000       14.0070           0
     49251 WT17     266      MECN     C1       CG331   -0.170000       12.0110           0
     49252 WT17     266      MECN     H11      HGA3     0.090000        1.0080           0
     49253 WT17     266      MECN     H12      HGA3     0.090000        1.0080           0
     49254 WT17     266      MECN     H13      HGA3     0.090000        1.0080           0
     49255 WT17     266      MECN     C2       CG1N1    0.360000       12.0110           0
     49256 WT17     266      MECN     N3       NG1T1   -0.460000       14.0070           0
     49257 WT17     268      MECN     C1       CG331   -0.170000       12.0110           0
     49258 WT17     268      MECN     H11      HGA3     0.090000        1.0080           0
     49259 WT17     268      MECN     H12      HGA3     0.090000        1.0080           0
     49260 WT17     268      MECN     H13      HGA3     0.090000        1.0080           0
     49261 WT17     268      MECN     C2       CG1N1    0.360000       12.0110           0
     49262 WT17     268      MECN     N3       NG1T1   -0.460000       14.0070           0
     49263 WT17     269      MECN     C1       CG331   -0.170000       12.0110           0
     49264 WT17     269      MECN     H11      HGA3     0.090000        1.0080           0
     49265 WT17     269      MECN     H12      HGA3     0.090000        1.0080           0
     49266 WT17     269      MECN     H13      HGA3     0.090000        1.0080           0
     49267 WT17     269      MECN     C2       CG1N1    0.360000       12.0110           0
     49268 WT17     269      MECN     N3       NG1T1   -0.460000       14.0070           0
     49269 WT17     271      MECN     C1       CG331   -0.170000       12.0110           0
     49270 WT17     271      MECN     H11      HGA3     0.090000        1.0080           0
     49271 WT17     271      MECN     H12      HGA3     0.090000        1.0080           0
     49272 WT17     271      MECN     H13      HGA3     0.090000        1.0080           0
     49273 WT17     271      MECN     C2       CG1N1    0.360000       12.0110           0
     49274 WT17     271      MECN     N3       NG1T1   -0.460000       14.0070           0
     49275 WT17     272      MECN     C1       CG331   -0.170000       12.0110           0
     49276 WT17     272      MECN     H11      HGA3     0.090000        1.0080           0
     49277 WT17     272      MECN     H12      HGA3     0.090000        1.0080           0
     49278 WT17     272      MECN     H13      HGA3     0.090000        1.0080           0
     49279 WT17     272      MECN     C2       CG1N1    0.360000       12.0110           0
     49280 WT17     272      MECN     N3       NG1T1   -0.460000       14.0070           0
     49281 WT17     273      MECN     C1       CG331   -0.170000       12.0110           0
     49282 WT17     273      MECN     H11      HGA3     0.090000        1.0080           0
     49283 WT17     273      MECN     H12      HGA3     0.090000        1.0080           0
     49284 WT17     273      MECN     H13      HGA3     0.090000        1.0080           0
     49285 WT17     273      MECN     C2       CG1N1    0.360000       12.0110           0
     49286 WT17     273      MECN     N3       NG1T1   -0.460000       14.0070           0
     49287 WT17     275      MECN     C1       CG331   -0.170000       12.0110           0
     49288 WT17     275      MECN     H11      HGA3     0.090000        1.0080           0
     49289 WT17     275      MECN     H12      HGA3     0.090000        1.0080           0
     49290 WT17     275      MECN     H13      HGA3     0.090000        1.0080           0
     49291 WT17     275      MECN     C2       CG1N1    0.360000       12.0110           0
     49292 WT17     275      MECN     N3       NG1T1   -0.460000       14.0070           0
     49293 WT17     276      MECN     C1       CG331   -0.170000       12.0110           0
     49294 WT17     276      MECN     H11      HGA3     0.090000        1.0080           0
     49295 WT17     276      MECN     H12      HGA3     0.090000        1.0080           0
     49296 WT17     276      MECN     H13      HGA3     0.090000        1.0080           0
     49297 WT17     276      MECN     C2       CG1N1    0.360000       12.0110           0
     49298 WT17     276      MECN     N3       NG1T1   -0.460000       14.0070           0
     49299 WT17     277      MECN     C1       CG331   -0.170000       12.0110           0
     49300 WT17     277      MECN     H11      HGA3     0.090000        1.0080           0
     49301 WT17     277      MECN     H12      HGA3     0.090000        1.0080           0
     49302 WT17     277      MECN     H13      HGA3     0.090000        1.0080           0
     49303 WT17     277      MECN     C2       CG1N1    0.360000       12.0110           0
     49304 WT17     277      MECN     N3       NG1T1   -0.460000       14.0070           0
     49305 WT17     278      MECN     C1       CG331   -0.170000       12.0110           0
     49306 WT17     278      MECN     H11      HGA3     0.090000        1.0080           0
     49307 WT17     278      MECN     H12      HGA3     0.090000        1.0080           0
     49308 WT17     278      MECN     H13      HGA3     0.090000        1.0080           0
     49309 WT17     278      MECN     C2       CG1N1    0.360000       12.0110           0
     49310 WT17     278      MECN     N3       NG1T1   -0.460000       14.0070           0
     49311 WT17     281      MECN     C1       CG331   -0.170000       12.0110           0
     49312 WT17     281      MECN     H11      HGA3     0.090000        1.0080           0
     49313 WT17     281      MECN     H12      HGA3     0.090000        1.0080           0
     49314 WT17     281      MECN     H13      HGA3     0.090000        1.0080           0
     49315 WT17     281      MECN     C2       CG1N1    0.360000       12.0110           0
     49316 WT17     281      MECN     N3       NG1T1   -0.460000       14.0070           0
     49317 WT17     283      MECN     C1       CG331   -0.170000       12.0110           0
     49318 WT17     283      MECN     H11      HGA3     0.090000        1.0080           0
     49319 WT17     283      MECN     H12      HGA3     0.090000        1.0080           0
     49320 WT17     283      MECN     H13      HGA3     0.090000        1.0080           0
     49321 WT17     283      MECN     C2       CG1N1    0.360000       12.0110           0
     49322 WT17     283      MECN     N3       NG1T1   -0.460000       14.0070           0
     49323 WT17     284      MECN     C1       CG331   -0.170000       12.0110           0
     49324 WT17     284      MECN     H11      HGA3     0.090000        1.0080           0
     49325 WT17     284      MECN     H12      HGA3     0.090000        1.0080           0
     49326 WT17     284      MECN     H13      HGA3     0.090000        1.0080           0
     49327 WT17     284      MECN     C2       CG1N1    0.360000       12.0110           0
     49328 WT17     284      MECN     N3       NG1T1   -0.460000       14.0070           0
     49329 WT17     289      MECN     C1       CG331   -0.170000       12.0110           0
     49330 WT17     289      MECN     H11      HGA3     0.090000        1.0080           0
     49331 WT17     289      MECN     H12      HGA3     0.090000        1.0080           0
     49332 WT17     289      MECN     H13      HGA3     0.090000        1.0080           0
     49333 WT17     289      MECN     C2       CG1N1    0.360000       12.0110           0
     49334 WT17     289      MECN     N3       NG1T1   -0.460000       14.0070           0
     49335 WT17     290      MECN     C1       CG331   -0.170000       12.0110           0
     49336 WT17     290      MECN     H11      HGA3     0.090000        1.0080           0
     49337 WT17     290      MECN     H12      HGA3     0.090000        1.0080           0
     49338 WT17     290      MECN     H13      HGA3     0.090000        1.0080           0
     49339 WT17     290      MECN     C2       CG1N1    0.360000       12.0110           0
     49340 WT17     290      MECN     N3       NG1T1   -0.460000       14.0070           0
     49341 WT17     291      MECN     C1       CG331   -0.170000       12.0110           0
     49342 WT17     291      MECN     H11      HGA3     0.090000        1.0080           0
     49343 WT17     291      MECN     H12      HGA3     0.090000        1.0080           0
     49344 WT17     291      MECN     H13      HGA3     0.090000        1.0080           0
     49345 WT17     291      MECN     C2       CG1N1    0.360000       12.0110           0
     49346 WT17     291      MECN     N3       NG1T1   -0.460000       14.0070           0
     49347 WT17     293      MECN     C1       CG331   -0.170000       12.0110           0
     49348 WT17     293      MECN     H11      HGA3     0.090000        1.0080           0
     49349 WT17     293      MECN     H12      HGA3     0.090000        1.0080           0
     49350 WT17     293      MECN     H13      HGA3     0.090000        1.0080           0
     49351 WT17     293      MECN     C2       CG1N1    0.360000       12.0110           0
     49352 WT17     293      MECN     N3       NG1T1   -0.460000       14.0070           0
     49353 WT17     297      MECN     C1       CG331   -0.170000       12.0110           0
     49354 WT17     297      MECN     H11      HGA3     0.090000        1.0080           0
     49355 WT17     297      MECN     H12      HGA3     0.090000        1.0080           0
     49356 WT17     297      MECN     H13      HGA3     0.090000        1.0080           0
     49357 WT17     297      MECN     C2       CG1N1    0.360000       12.0110           0
     49358 WT17     297      MECN     N3       NG1T1   -0.460000       14.0070           0
     49359 WT17     299      MECN     C1       CG331   -0.170000       12.0110           0
     49360 WT17     299      MECN     H11      HGA3     0.090000        1.0080           0
     49361 WT17     299      MECN     H12      HGA3     0.090000        1.0080           0
     49362 WT17     299      MECN     H13      HGA3     0.090000        1.0080           0
     49363 WT17     299      MECN     C2       CG1N1    0.360000       12.0110           0
     49364 WT17     299      MECN     N3       NG1T1   -0.460000       14.0070           0
     49365 WT17     301      MECN     C1       CG331   -0.170000       12.0110           0
     49366 WT17     301      MECN     H11      HGA3     0.090000        1.0080           0
     49367 WT17     301      MECN     H12      HGA3     0.090000        1.0080           0
     49368 WT17     301      MECN     H13      HGA3     0.090000        1.0080           0
     49369 WT17     301      MECN     C2       CG1N1    0.360000       12.0110           0
     49370 WT17     301      MECN     N3       NG1T1   -0.460000       14.0070           0
     49371 WT17     303      MECN     C1       CG331   -0.170000       12.0110           0
     49372 WT17     303      MECN     H11      HGA3     0.090000        1.0080           0
     49373 WT17     303      MECN     H12      HGA3     0.090000        1.0080           0
     49374 WT17     303      MECN     H13      HGA3     0.090000        1.0080           0
     49375 WT17     303      MECN     C2       CG1N1    0.360000       12.0110           0
     49376 WT17     303      MECN     N3       NG1T1   -0.460000       14.0070           0
     49377 WT17     304      MECN     C1       CG331   -0.170000       12.0110           0
     49378 WT17     304      MECN     H11      HGA3     0.090000        1.0080           0
     49379 WT17     304      MECN     H12      HGA3     0.090000        1.0080           0
     49380 WT17     304      MECN     H13      HGA3     0.090000        1.0080           0
     49381 WT17     304      MECN     C2       CG1N1    0.360000       12.0110           0
     49382 WT17     304      MECN     N3       NG1T1   -0.460000       14.0070           0
     49383 WT17     305      MECN     C1       CG331   -0.170000       12.0110           0
     49384 WT17     305      MECN     H11      HGA3     0.090000        1.0080           0
     49385 WT17     305      MECN     H12      HGA3     0.090000        1.0080           0
     49386 WT17     305      MECN     H13      HGA3     0.090000        1.0080           0
     49387 WT17     305      MECN     C2       CG1N1    0.360000       12.0110           0
     49388 WT17     305      MECN     N3       NG1T1   -0.460000       14.0070           0
     49389 WT17     307      MECN     C1       CG331   -0.170000       12.0110           0
     49390 WT17     307      MECN     H11      HGA3     0.090000        1.0080           0
     49391 WT17     307      MECN     H12      HGA3     0.090000        1.0080           0
     49392 WT17     307      MECN     H13      HGA3     0.090000        1.0080           0
     49393 WT17     307      MECN     C2       CG1N1    0.360000       12.0110           0
     49394 WT17     307      MECN     N3       NG1T1   -0.460000       14.0070           0
     49395 WT17     309      MECN     C1       CG331   -0.170000       12.0110           0
     49396 WT17     309      MECN     H11      HGA3     0.090000        1.0080           0
     49397 WT17     309      MECN     H12      HGA3     0.090000        1.0080           0
     49398 WT17     309      MECN     H13      HGA3     0.090000        1.0080           0
     49399 WT17     309      MECN     C2       CG1N1    0.360000       12.0110           0
     49400 WT17     309      MECN     N3       NG1T1   -0.460000       14.0070           0
     49401 WT17     311      MECN     C1       CG331   -0.170000       12.0110           0
     49402 WT17     311      MECN     H11      HGA3     0.090000        1.0080           0
     49403 WT17     311      MECN     H12      HGA3     0.090000        1.0080           0
     49404 WT17     311      MECN     H13      HGA3     0.090000        1.0080           0
     49405 WT17     311      MECN     C2       CG1N1    0.360000       12.0110           0
     49406 WT17     311      MECN     N3       NG1T1   -0.460000       14.0070           0
     49407 WT17     312      MECN     C1       CG331   -0.170000       12.0110           0
     49408 WT17     312      MECN     H11      HGA3     0.090000        1.0080           0
     49409 WT17     312      MECN     H12      HGA3     0.090000        1.0080           0
     49410 WT17     312      MECN     H13      HGA3     0.090000        1.0080           0
     49411 WT17     312      MECN     C2       CG1N1    0.360000       12.0110           0
     49412 WT17     312      MECN     N3       NG1T1   -0.460000       14.0070           0
     49413 WT17     313      MECN     C1       CG331   -0.170000       12.0110           0
     49414 WT17     313      MECN     H11      HGA3     0.090000        1.0080           0
     49415 WT17     313      MECN     H12      HGA3     0.090000        1.0080           0
     49416 WT17     313      MECN     H13      HGA3     0.090000        1.0080           0
     49417 WT17     313      MECN     C2       CG1N1    0.360000       12.0110           0
     49418 WT17     313      MECN     N3       NG1T1   -0.460000       14.0070           0
     49419 WT17     314      MECN     C1       CG331   -0.170000       12.0110           0
     49420 WT17     314      MECN     H11      HGA3     0.090000        1.0080           0
     49421 WT17     314      MECN     H12      HGA3     0.090000        1.0080           0
     49422 WT17     314      MECN     H13      HGA3     0.090000        1.0080           0
     49423 WT17     314      MECN     C2       CG1N1    0.360000       12.0110           0
     49424 WT17     314      MECN     N3       NG1T1   -0.460000       14.0070           0
     49425 WT17     315      MECN     C1       CG331   -0.170000       12.0110           0
     49426 WT17     315      MECN     H11      HGA3     0.090000        1.0080           0
     49427 WT17     315      MECN     H12      HGA3     0.090000        1.0080           0
     49428 WT17     315      MECN     H13      HGA3     0.090000        1.0080           0
     49429 WT17     315      MECN     C2       CG1N1    0.360000       12.0110           0
     49430 WT17     315      MECN     N3       NG1T1   -0.460000       14.0070           0
     49431 WT17     320      MECN     C1       CG331   -0.170000       12.0110           0
     49432 WT17     320      MECN     H11      HGA3     0.090000        1.0080           0
     49433 WT17     320      MECN     H12      HGA3     0.090000        1.0080           0
     49434 WT17     320      MECN     H13      HGA3     0.090000        1.0080           0
     49435 WT17     320      MECN     C2       CG1N1    0.360000       12.0110           0
     49436 WT17     320      MECN     N3       NG1T1   -0.460000       14.0070           0
     49437 WT17     321      MECN     C1       CG331   -0.170000       12.0110           0
     49438 WT17     321      MECN     H11      HGA3     0.090000        1.0080           0
     49439 WT17     321      MECN     H12      HGA3     0.090000        1.0080           0
     49440 WT17     321      MECN     H13      HGA3     0.090000        1.0080           0
     49441 WT17     321      MECN     C2       CG1N1    0.360000       12.0110           0
     49442 WT17     321      MECN     N3       NG1T1   -0.460000       14.0070           0
     49443 WT17     324      MECN     C1       CG331   -0.170000       12.0110           0
     49444 WT17     324      MECN     H11      HGA3     0.090000        1.0080           0
     49445 WT17     324      MECN     H12      HGA3     0.090000        1.0080           0
     49446 WT17     324      MECN     H13      HGA3     0.090000        1.0080           0
     49447 WT17     324      MECN     C2       CG1N1    0.360000       12.0110           0
     49448 WT17     324      MECN     N3       NG1T1   -0.460000       14.0070           0
     49449 WT17     325      MECN     C1       CG331   -0.170000       12.0110           0
     49450 WT17     325      MECN     H11      HGA3     0.090000        1.0080           0
     49451 WT17     325      MECN     H12      HGA3     0.090000        1.0080           0
     49452 WT17     325      MECN     H13      HGA3     0.090000        1.0080           0
     49453 WT17     325      MECN     C2       CG1N1    0.360000       12.0110           0
     49454 WT17     325      MECN     N3       NG1T1   -0.460000       14.0070           0
     49455 WT17     329      MECN     C1       CG331   -0.170000       12.0110           0
     49456 WT17     329      MECN     H11      HGA3     0.090000        1.0080           0
     49457 WT17     329      MECN     H12      HGA3     0.090000        1.0080           0
     49458 WT17     329      MECN     H13      HGA3     0.090000        1.0080           0
     49459 WT17     329      MECN     C2       CG1N1    0.360000       12.0110           0
     49460 WT17     329      MECN     N3       NG1T1   -0.460000       14.0070           0
     49461 WT17     330      MECN     C1       CG331   -0.170000       12.0110           0
     49462 WT17     330      MECN     H11      HGA3     0.090000        1.0080           0
     49463 WT17     330      MECN     H12      HGA3     0.090000        1.0080           0
     49464 WT17     330      MECN     H13      HGA3     0.090000        1.0080           0
     49465 WT17     330      MECN     C2       CG1N1    0.360000       12.0110           0
     49466 WT17     330      MECN     N3       NG1T1   -0.460000       14.0070           0
     49467 WT17     331      MECN     C1       CG331   -0.170000       12.0110           0
     49468 WT17     331      MECN     H11      HGA3     0.090000        1.0080           0
     49469 WT17     331      MECN     H12      HGA3     0.090000        1.0080           0
     49470 WT17     331      MECN     H13      HGA3     0.090000        1.0080           0
     49471 WT17     331      MECN     C2       CG1N1    0.360000       12.0110           0
     49472 WT17     331      MECN     N3       NG1T1   -0.460000       14.0070           0
     49473 WT17     332      MECN     C1       CG331   -0.170000       12.0110           0
     49474 WT17     332      MECN     H11      HGA3     0.090000        1.0080           0
     49475 WT17     332      MECN     H12      HGA3     0.090000        1.0080           0
     49476 WT17     332      MECN     H13      HGA3     0.090000        1.0080           0
     49477 WT17     332      MECN     C2       CG1N1    0.360000       12.0110           0
     49478 WT17     332      MECN     N3       NG1T1   -0.460000       14.0070           0
     49479 WT17     334      MECN     C1       CG331   -0.170000       12.0110           0
     49480 WT17     334      MECN     H11      HGA3     0.090000        1.0080           0
     49481 WT17     334      MECN     H12      HGA3     0.090000        1.0080           0
     49482 WT17     334      MECN     H13      HGA3     0.090000        1.0080           0
     49483 WT17     334      MECN     C2       CG1N1    0.360000       12.0110           0
     49484 WT17     334      MECN     N3       NG1T1   -0.460000       14.0070           0
     49485 WT17     335      MECN     C1       CG331   -0.170000       12.0110           0
     49486 WT17     335      MECN     H11      HGA3     0.090000        1.0080           0
     49487 WT17     335      MECN     H12      HGA3     0.090000        1.0080           0
     49488 WT17     335      MECN     H13      HGA3     0.090000        1.0080           0
     49489 WT17     335      MECN     C2       CG1N1    0.360000       12.0110           0
     49490 WT17     335      MECN     N3       NG1T1   -0.460000       14.0070           0
     49491 WT17     336      MECN     C1       CG331   -0.170000       12.0110           0
     49492 WT17     336      MECN     H11      HGA3     0.090000        1.0080           0
     49493 WT17     336      MECN     H12      HGA3     0.090000        1.0080           0
     49494 WT17     336      MECN     H13      HGA3     0.090000        1.0080           0
     49495 WT17     336      MECN     C2       CG1N1    0.360000       12.0110           0
     49496 WT17     336      MECN     N3       NG1T1   -0.460000       14.0070           0
     49497 WT17     339      MECN     C1       CG331   -0.170000       12.0110           0
     49498 WT17     339      MECN     H11      HGA3     0.090000        1.0080           0
     49499 WT17     339      MECN     H12      HGA3     0.090000        1.0080           0
     49500 WT17     339      MECN     H13      HGA3     0.090000        1.0080           0
     49501 WT17     339      MECN     C2       CG1N1    0.360000       12.0110           0
     49502 WT17     339      MECN     N3       NG1T1   -0.460000       14.0070           0
     49503 WT17     343      MECN     C1       CG331   -0.170000       12.0110           0
     49504 WT17     343      MECN     H11      HGA3     0.090000        1.0080           0
     49505 WT17     343      MECN     H12      HGA3     0.090000        1.0080           0
     49506 WT17     343      MECN     H13      HGA3     0.090000        1.0080           0
     49507 WT17     343      MECN     C2       CG1N1    0.360000       12.0110           0
     49508 WT17     343      MECN     N3       NG1T1   -0.460000       14.0070           0
     49509 WT17     344      MECN     C1       CG331   -0.170000       12.0110           0
     49510 WT17     344      MECN     H11      HGA3     0.090000        1.0080           0
     49511 WT17     344      MECN     H12      HGA3     0.090000        1.0080           0
     49512 WT17     344      MECN     H13      HGA3     0.090000        1.0080           0
     49513 WT17     344      MECN     C2       CG1N1    0.360000       12.0110           0
     49514 WT17     344      MECN     N3       NG1T1   -0.460000       14.0070           0
     49515 WT17     345      MECN     C1       CG331   -0.170000       12.0110           0
     49516 WT17     345      MECN     H11      HGA3     0.090000        1.0080           0
     49517 WT17     345      MECN     H12      HGA3     0.090000        1.0080           0
     49518 WT17     345      MECN     H13      HGA3     0.090000        1.0080           0
     49519 WT17     345      MECN     C2       CG1N1    0.360000       12.0110           0
     49520 WT17     345      MECN     N3       NG1T1   -0.460000       14.0070           0
     49521 WT17     347      MECN     C1       CG331   -0.170000       12.0110           0
     49522 WT17     347      MECN     H11      HGA3     0.090000        1.0080           0
     49523 WT17     347      MECN     H12      HGA3     0.090000        1.0080           0
     49524 WT17     347      MECN     H13      HGA3     0.090000        1.0080           0
     49525 WT17     347      MECN     C2       CG1N1    0.360000       12.0110           0
     49526 WT17     347      MECN     N3       NG1T1   -0.460000       14.0070           0
     49527 WT17     350      MECN     C1       CG331   -0.170000       12.0110           0
     49528 WT17     350      MECN     H11      HGA3     0.090000        1.0080           0
     49529 WT17     350      MECN     H12      HGA3     0.090000        1.0080           0
     49530 WT17     350      MECN     H13      HGA3     0.090000        1.0080           0
     49531 WT17     350      MECN     C2       CG1N1    0.360000       12.0110           0
     49532 WT17     350      MECN     N3       NG1T1   -0.460000       14.0070           0
     49533 WT17     352      MECN     C1       CG331   -0.170000       12.0110           0
     49534 WT17     352      MECN     H11      HGA3     0.090000        1.0080           0
     49535 WT17     352      MECN     H12      HGA3     0.090000        1.0080           0
     49536 WT17     352      MECN     H13      HGA3     0.090000        1.0080           0
     49537 WT17     352      MECN     C2       CG1N1    0.360000       12.0110           0
     49538 WT17     352      MECN     N3       NG1T1   -0.460000       14.0070           0
     49539 WT17     353      MECN     C1       CG331   -0.170000       12.0110           0
     49540 WT17     353      MECN     H11      HGA3     0.090000        1.0080           0
     49541 WT17     353      MECN     H12      HGA3     0.090000        1.0080           0
     49542 WT17     353      MECN     H13      HGA3     0.090000        1.0080           0
     49543 WT17     353      MECN     C2       CG1N1    0.360000       12.0110           0
     49544 WT17     353      MECN     N3       NG1T1   -0.460000       14.0070           0
     49545 WT17     354      MECN     C1       CG331   -0.170000       12.0110           0
     49546 WT17     354      MECN     H11      HGA3     0.090000        1.0080           0
     49547 WT17     354      MECN     H12      HGA3     0.090000        1.0080           0
     49548 WT17     354      MECN     H13      HGA3     0.090000        1.0080           0
     49549 WT17     354      MECN     C2       CG1N1    0.360000       12.0110           0
     49550 WT17     354      MECN     N3       NG1T1   -0.460000       14.0070           0
     49551 WT17     355      MECN     C1       CG331   -0.170000       12.0110           0
     49552 WT17     355      MECN     H11      HGA3     0.090000        1.0080           0
     49553 WT17     355      MECN     H12      HGA3     0.090000        1.0080           0
     49554 WT17     355      MECN     H13      HGA3     0.090000        1.0080           0
     49555 WT17     355      MECN     C2       CG1N1    0.360000       12.0110           0
     49556 WT17     355      MECN     N3       NG1T1   -0.460000       14.0070           0
     49557 WT17     357      MECN     C1       CG331   -0.170000       12.0110           0
     49558 WT17     357      MECN     H11      HGA3     0.090000        1.0080           0
     49559 WT17     357      MECN     H12      HGA3     0.090000        1.0080           0
     49560 WT17     357      MECN     H13      HGA3     0.090000        1.0080           0
     49561 WT17     357      MECN     C2       CG1N1    0.360000       12.0110           0
     49562 WT17     357      MECN     N3       NG1T1   -0.460000       14.0070           0
     49563 WT17     360      MECN     C1       CG331   -0.170000       12.0110           0
     49564 WT17     360      MECN     H11      HGA3     0.090000        1.0080           0
     49565 WT17     360      MECN     H12      HGA3     0.090000        1.0080           0
     49566 WT17     360      MECN     H13      HGA3     0.090000        1.0080           0
     49567 WT17     360      MECN     C2       CG1N1    0.360000       12.0110           0
     49568 WT17     360      MECN     N3       NG1T1   -0.460000       14.0070           0
     49569 WT17     362      MECN     C1       CG331   -0.170000       12.0110           0
     49570 WT17     362      MECN     H11      HGA3     0.090000        1.0080           0
     49571 WT17     362      MECN     H12      HGA3     0.090000        1.0080           0
     49572 WT17     362      MECN     H13      HGA3     0.090000        1.0080           0
     49573 WT17     362      MECN     C2       CG1N1    0.360000       12.0110           0
     49574 WT17     362      MECN     N3       NG1T1   -0.460000       14.0070           0
     49575 WT17     363      MECN     C1       CG331   -0.170000       12.0110           0
     49576 WT17     363      MECN     H11      HGA3     0.090000        1.0080           0
     49577 WT17     363      MECN     H12      HGA3     0.090000        1.0080           0
     49578 WT17     363      MECN     H13      HGA3     0.090000        1.0080           0
     49579 WT17     363      MECN     C2       CG1N1    0.360000       12.0110           0
     49580 WT17     363      MECN     N3       NG1T1   -0.460000       14.0070           0
     49581 WT17     364      MECN     C1       CG331   -0.170000       12.0110           0
     49582 WT17     364      MECN     H11      HGA3     0.090000        1.0080           0
     49583 WT17     364      MECN     H12      HGA3     0.090000        1.0080           0
     49584 WT17     364      MECN     H13      HGA3     0.090000        1.0080           0
     49585 WT17     364      MECN     C2       CG1N1    0.360000       12.0110           0
     49586 WT17     364      MECN     N3       NG1T1   -0.460000       14.0070           0
     49587 WT17     365      MECN     C1       CG331   -0.170000       12.0110           0
     49588 WT17     365      MECN     H11      HGA3     0.090000        1.0080           0
     49589 WT17     365      MECN     H12      HGA3     0.090000        1.0080           0
     49590 WT17     365      MECN     H13      HGA3     0.090000        1.0080           0
     49591 WT17     365      MECN     C2       CG1N1    0.360000       12.0110           0
     49592 WT17     365      MECN     N3       NG1T1   -0.460000       14.0070           0
     49593 WT17     366      MECN     C1       CG331   -0.170000       12.0110           0
     49594 WT17     366      MECN     H11      HGA3     0.090000        1.0080           0
     49595 WT17     366      MECN     H12      HGA3     0.090000        1.0080           0
     49596 WT17     366      MECN     H13      HGA3     0.090000        1.0080           0
     49597 WT17     366      MECN     C2       CG1N1    0.360000       12.0110           0
     49598 WT17     366      MECN     N3       NG1T1   -0.460000       14.0070           0
     49599 WT17     370      MECN     C1       CG331   -0.170000       12.0110           0
     49600 WT17     370      MECN     H11      HGA3     0.090000        1.0080           0
     49601 WT17     370      MECN     H12      HGA3     0.090000        1.0080           0
     49602 WT17     370      MECN     H13      HGA3     0.090000        1.0080           0
     49603 WT17     370      MECN     C2       CG1N1    0.360000       12.0110           0
     49604 WT17     370      MECN     N3       NG1T1   -0.460000       14.0070           0
     49605 WT17     372      MECN     C1       CG331   -0.170000       12.0110           0
     49606 WT17     372      MECN     H11      HGA3     0.090000        1.0080           0
     49607 WT17     372      MECN     H12      HGA3     0.090000        1.0080           0
     49608 WT17     372      MECN     H13      HGA3     0.090000        1.0080           0
     49609 WT17     372      MECN     C2       CG1N1    0.360000       12.0110           0
     49610 WT17     372      MECN     N3       NG1T1   -0.460000       14.0070           0
     49611 WT17     374      MECN     C1       CG331   -0.170000       12.0110           0
     49612 WT17     374      MECN     H11      HGA3     0.090000        1.0080           0
     49613 WT17     374      MECN     H12      HGA3     0.090000        1.0080           0
     49614 WT17     374      MECN     H13      HGA3     0.090000        1.0080           0
     49615 WT17     374      MECN     C2       CG1N1    0.360000       12.0110           0
     49616 WT17     374      MECN     N3       NG1T1   -0.460000       14.0070           0
     49617 WT17     375      MECN     C1       CG331   -0.170000       12.0110           0
     49618 WT17     375      MECN     H11      HGA3     0.090000        1.0080           0
     49619 WT17     375      MECN     H12      HGA3     0.090000        1.0080           0
     49620 WT17     375      MECN     H13      HGA3     0.090000        1.0080           0
     49621 WT17     375      MECN     C2       CG1N1    0.360000       12.0110           0
     49622 WT17     375      MECN     N3       NG1T1   -0.460000       14.0070           0
     49623 WT17     376      MECN     C1       CG331   -0.170000       12.0110           0
     49624 WT17     376      MECN     H11      HGA3     0.090000        1.0080           0
     49625 WT17     376      MECN     H12      HGA3     0.090000        1.0080           0
     49626 WT17     376      MECN     H13      HGA3     0.090000        1.0080           0
     49627 WT17     376      MECN     C2       CG1N1    0.360000       12.0110           0
     49628 WT17     376      MECN     N3       NG1T1   -0.460000       14.0070           0
     49629 WT17     377      MECN     C1       CG331   -0.170000       12.0110           0
     49630 WT17     377      MECN     H11      HGA3     0.090000        1.0080           0
     49631 WT17     377      MECN     H12      HGA3     0.090000        1.0080           0
     49632 WT17     377      MECN     H13      HGA3     0.090000        1.0080           0
     49633 WT17     377      MECN     C2       CG1N1    0.360000       12.0110           0
     49634 WT17     377      MECN     N3       NG1T1   -0.460000       14.0070           0
     49635 WT17     378      MECN     C1       CG331   -0.170000       12.0110           0
     49636 WT17     378      MECN     H11      HGA3     0.090000        1.0080           0
     49637 WT17     378      MECN     H12      HGA3     0.090000        1.0080           0
     49638 WT17     378      MECN     H13      HGA3     0.090000        1.0080           0
     49639 WT17     378      MECN     C2       CG1N1    0.360000       12.0110           0
     49640 WT17     378      MECN     N3       NG1T1   -0.460000       14.0070           0
     49641 WT17     379      MECN     C1       CG331   -0.170000       12.0110           0
     49642 WT17     379      MECN     H11      HGA3     0.090000        1.0080           0
     49643 WT17     379      MECN     H12      HGA3     0.090000        1.0080           0
     49644 WT17     379      MECN     H13      HGA3     0.090000        1.0080           0
     49645 WT17     379      MECN     C2       CG1N1    0.360000       12.0110           0
     49646 WT17     379      MECN     N3       NG1T1   -0.460000       14.0070           0
     49647 WT17     380      MECN     C1       CG331   -0.170000       12.0110           0
     49648 WT17     380      MECN     H11      HGA3     0.090000        1.0080           0
     49649 WT17     380      MECN     H12      HGA3     0.090000        1.0080           0
     49650 WT17     380      MECN     H13      HGA3     0.090000        1.0080           0
     49651 WT17     380      MECN     C2       CG1N1    0.360000       12.0110           0
     49652 WT17     380      MECN     N3       NG1T1   -0.460000       14.0070           0
     49653 WT17     381      MECN     C1       CG331   -0.170000       12.0110           0
     49654 WT17     381      MECN     H11      HGA3     0.090000        1.0080           0
     49655 WT17     381      MECN     H12      HGA3     0.090000        1.0080           0
     49656 WT17     381      MECN     H13      HGA3     0.090000        1.0080           0
     49657 WT17     381      MECN     C2       CG1N1    0.360000       12.0110           0
     49658 WT17     381      MECN     N3       NG1T1   -0.460000       14.0070           0
     49659 WT17     382      MECN     C1       CG331   -0.170000       12.0110           0
     49660 WT17     382      MECN     H11      HGA3     0.090000        1.0080           0
     49661 WT17     382      MECN     H12      HGA3     0.090000        1.0080           0
     49662 WT17     382      MECN     H13      HGA3     0.090000        1.0080           0
     49663 WT17     382      MECN     C2       CG1N1    0.360000       12.0110           0
     49664 WT17     382      MECN     N3       NG1T1   -0.460000       14.0070           0
     49665 WT17     383      MECN     C1       CG331   -0.170000       12.0110           0
     49666 WT17     383      MECN     H11      HGA3     0.090000        1.0080           0
     49667 WT17     383      MECN     H12      HGA3     0.090000        1.0080           0
     49668 WT17     383      MECN     H13      HGA3     0.090000        1.0080           0
     49669 WT17     383      MECN     C2       CG1N1    0.360000       12.0110           0
     49670 WT17     383      MECN     N3       NG1T1   -0.460000       14.0070           0
     49671 WT17     384      MECN     C1       CG331   -0.170000       12.0110           0
     49672 WT17     384      MECN     H11      HGA3     0.090000        1.0080           0
     49673 WT17     384      MECN     H12      HGA3     0.090000        1.0080           0
     49674 WT17     384      MECN     H13      HGA3     0.090000        1.0080           0
     49675 WT17     384      MECN     C2       CG1N1    0.360000       12.0110           0
     49676 WT17     384      MECN     N3       NG1T1   -0.460000       14.0070           0
     49677 WT17     386      MECN     C1       CG331   -0.170000       12.0110           0
     49678 WT17     386      MECN     H11      HGA3     0.090000        1.0080           0
     49679 WT17     386      MECN     H12      HGA3     0.090000        1.0080           0
     49680 WT17     386      MECN     H13      HGA3     0.090000        1.0080           0
     49681 WT17     386      MECN     C2       CG1N1    0.360000       12.0110           0
     49682 WT17     386      MECN     N3       NG1T1   -0.460000       14.0070           0
     49683 WT17     389      MECN     C1       CG331   -0.170000       12.0110           0
     49684 WT17     389      MECN     H11      HGA3     0.090000        1.0080           0
     49685 WT17     389      MECN     H12      HGA3     0.090000        1.0080           0
     49686 WT17     389      MECN     H13      HGA3     0.090000        1.0080           0
     49687 WT17     389      MECN     C2       CG1N1    0.360000       12.0110           0
     49688 WT17     389      MECN     N3       NG1T1   -0.460000       14.0070           0
     49689 WT17     390      MECN     C1       CG331   -0.170000       12.0110           0
     49690 WT17     390      MECN     H11      HGA3     0.090000        1.0080           0
     49691 WT17     390      MECN     H12      HGA3     0.090000        1.0080           0
     49692 WT17     390      MECN     H13      HGA3     0.090000        1.0080           0
     49693 WT17     390      MECN     C2       CG1N1    0.360000       12.0110           0
     49694 WT17     390      MECN     N3       NG1T1   -0.460000       14.0070           0
     49695 WT17     392      MECN     C1       CG331   -0.170000       12.0110           0
     49696 WT17     392      MECN     H11      HGA3     0.090000        1.0080           0
     49697 WT17     392      MECN     H12      HGA3     0.090000        1.0080           0
     49698 WT17     392      MECN     H13      HGA3     0.090000        1.0080           0
     49699 WT17     392      MECN     C2       CG1N1    0.360000       12.0110           0
     49700 WT17     392      MECN     N3       NG1T1   -0.460000       14.0070           0
     49701 WT17     393      MECN     C1       CG331   -0.170000       12.0110           0
     49702 WT17     393      MECN     H11      HGA3     0.090000        1.0080           0
     49703 WT17     393      MECN     H12      HGA3     0.090000        1.0080           0
     49704 WT17     393      MECN     H13      HGA3     0.090000        1.0080           0
     49705 WT17     393      MECN     C2       CG1N1    0.360000       12.0110           0
     49706 WT17     393      MECN     N3       NG1T1   -0.460000       14.0070           0
     49707 WT17     394      MECN     C1       CG331   -0.170000       12.0110           0
     49708 WT17     394      MECN     H11      HGA3     0.090000        1.0080           0
     49709 WT17     394      MECN     H12      HGA3     0.090000        1.0080           0
     49710 WT17     394      MECN     H13      HGA3     0.090000        1.0080           0
     49711 WT17     394      MECN     C2       CG1N1    0.360000       12.0110           0
     49712 WT17     394      MECN     N3       NG1T1   -0.460000       14.0070           0
     49713 WT17     397      MECN     C1       CG331   -0.170000       12.0110           0
     49714 WT17     397      MECN     H11      HGA3     0.090000        1.0080           0
     49715 WT17     397      MECN     H12      HGA3     0.090000        1.0080           0
     49716 WT17     397      MECN     H13      HGA3     0.090000        1.0080           0
     49717 WT17     397      MECN     C2       CG1N1    0.360000       12.0110           0
     49718 WT17     397      MECN     N3       NG1T1   -0.460000       14.0070           0
     49719 WT17     398      MECN     C1       CG331   -0.170000       12.0110           0
     49720 WT17     398      MECN     H11      HGA3     0.090000        1.0080           0
     49721 WT17     398      MECN     H12      HGA3     0.090000        1.0080           0
     49722 WT17     398      MECN     H13      HGA3     0.090000        1.0080           0
     49723 WT17     398      MECN     C2       CG1N1    0.360000       12.0110           0
     49724 WT17     398      MECN     N3       NG1T1   -0.460000       14.0070           0
     49725 WT17     399      MECN     C1       CG331   -0.170000       12.0110           0
     49726 WT17     399      MECN     H11      HGA3     0.090000        1.0080           0
     49727 WT17     399      MECN     H12      HGA3     0.090000        1.0080           0
     49728 WT17     399      MECN     H13      HGA3     0.090000        1.0080           0
     49729 WT17     399      MECN     C2       CG1N1    0.360000       12.0110           0
     49730 WT17     399      MECN     N3       NG1T1   -0.460000       14.0070           0
     49731 WT17     400      MECN     C1       CG331   -0.170000       12.0110           0
     49732 WT17     400      MECN     H11      HGA3     0.090000        1.0080           0
     49733 WT17     400      MECN     H12      HGA3     0.090000        1.0080           0
     49734 WT17     400      MECN     H13      HGA3     0.090000        1.0080           0
     49735 WT17     400      MECN     C2       CG1N1    0.360000       12.0110           0
     49736 WT17     400      MECN     N3       NG1T1   -0.460000       14.0070           0
     49737 WT17     402      MECN     C1       CG331   -0.170000       12.0110           0
     49738 WT17     402      MECN     H11      HGA3     0.090000        1.0080           0
     49739 WT17     402      MECN     H12      HGA3     0.090000        1.0080           0
     49740 WT17     402      MECN     H13      HGA3     0.090000        1.0080           0
     49741 WT17     402      MECN     C2       CG1N1    0.360000       12.0110           0
     49742 WT17     402      MECN     N3       NG1T1   -0.460000       14.0070           0
     49743 WT17     404      MECN     C1       CG331   -0.170000       12.0110           0
     49744 WT17     404      MECN     H11      HGA3     0.090000        1.0080           0
     49745 WT17     404      MECN     H12      HGA3     0.090000        1.0080           0
     49746 WT17     404      MECN     H13      HGA3     0.090000        1.0080           0
     49747 WT17     404      MECN     C2       CG1N1    0.360000       12.0110           0
     49748 WT17     404      MECN     N3       NG1T1   -0.460000       14.0070           0
     49749 WT17     405      MECN     C1       CG331   -0.170000       12.0110           0
     49750 WT17     405      MECN     H11      HGA3     0.090000        1.0080           0
     49751 WT17     405      MECN     H12      HGA3     0.090000        1.0080           0
     49752 WT17     405      MECN     H13      HGA3     0.090000        1.0080           0
     49753 WT17     405      MECN     C2       CG1N1    0.360000       12.0110           0
     49754 WT17     405      MECN     N3       NG1T1   -0.460000       14.0070           0
     49755 WT17     407      MECN     C1       CG331   -0.170000       12.0110           0
     49756 WT17     407      MECN     H11      HGA3     0.090000        1.0080           0
     49757 WT17     407      MECN     H12      HGA3     0.090000        1.0080           0
     49758 WT17     407      MECN     H13      HGA3     0.090000        1.0080           0
     49759 WT17     407      MECN     C2       CG1N1    0.360000       12.0110           0
     49760 WT17     407      MECN     N3       NG1T1   -0.460000       14.0070           0
     49761 WT17     409      MECN     C1       CG331   -0.170000       12.0110           0
     49762 WT17     409      MECN     H11      HGA3     0.090000        1.0080           0
     49763 WT17     409      MECN     H12      HGA3     0.090000        1.0080           0
     49764 WT17     409      MECN     H13      HGA3     0.090000        1.0080           0
     49765 WT17     409      MECN     C2       CG1N1    0.360000       12.0110           0
     49766 WT17     409      MECN     N3       NG1T1   -0.460000       14.0070           0
     49767 WT17     411      MECN     C1       CG331   -0.170000       12.0110           0
     49768 WT17     411      MECN     H11      HGA3     0.090000        1.0080           0
     49769 WT17     411      MECN     H12      HGA3     0.090000        1.0080           0
     49770 WT17     411      MECN     H13      HGA3     0.090000        1.0080           0
     49771 WT17     411      MECN     C2       CG1N1    0.360000       12.0110           0
     49772 WT17     411      MECN     N3       NG1T1   -0.460000       14.0070           0
     49773 WT17     412      MECN     C1       CG331   -0.170000       12.0110           0
     49774 WT17     412      MECN     H11      HGA3     0.090000        1.0080           0
     49775 WT17     412      MECN     H12      HGA3     0.090000        1.0080           0
     49776 WT17     412      MECN     H13      HGA3     0.090000        1.0080           0
     49777 WT17     412      MECN     C2       CG1N1    0.360000       12.0110           0
     49778 WT17     412      MECN     N3       NG1T1   -0.460000       14.0070           0
     49779 WT17     413      MECN     C1       CG331   -0.170000       12.0110           0
     49780 WT17     413      MECN     H11      HGA3     0.090000        1.0080           0
     49781 WT17     413      MECN     H12      HGA3     0.090000        1.0080           0
     49782 WT17     413      MECN     H13      HGA3     0.090000        1.0080           0
     49783 WT17     413      MECN     C2       CG1N1    0.360000       12.0110           0
     49784 WT17     413      MECN     N3       NG1T1   -0.460000       14.0070           0
     49785 WT17     417      MECN     C1       CG331   -0.170000       12.0110           0
     49786 WT17     417      MECN     H11      HGA3     0.090000        1.0080           0
     49787 WT17     417      MECN     H12      HGA3     0.090000        1.0080           0
     49788 WT17     417      MECN     H13      HGA3     0.090000        1.0080           0
     49789 WT17     417      MECN     C2       CG1N1    0.360000       12.0110           0
     49790 WT17     417      MECN     N3       NG1T1   -0.460000       14.0070           0
     49791 WT17     419      MECN     C1       CG331   -0.170000       12.0110           0
     49792 WT17     419      MECN     H11      HGA3     0.090000        1.0080           0
     49793 WT17     419      MECN     H12      HGA3     0.090000        1.0080           0
     49794 WT17     419      MECN     H13      HGA3     0.090000        1.0080           0
     49795 WT17     419      MECN     C2       CG1N1    0.360000       12.0110           0
     49796 WT17     419      MECN     N3       NG1T1   -0.460000       14.0070           0
     49797 WT17     421      MECN     C1       CG331   -0.170000       12.0110           0
     49798 WT17     421      MECN     H11      HGA3     0.090000        1.0080           0
     49799 WT17     421      MECN     H12      HGA3     0.090000        1.0080           0
     49800 WT17     421      MECN     H13      HGA3     0.090000        1.0080           0
     49801 WT17     421      MECN     C2       CG1N1    0.360000       12.0110           0
     49802 WT17     421      MECN     N3       NG1T1   -0.460000       14.0070           0
     49803 WT17     422      MECN     C1       CG331   -0.170000       12.0110           0
     49804 WT17     422      MECN     H11      HGA3     0.090000        1.0080           0
     49805 WT17     422      MECN     H12      HGA3     0.090000        1.0080           0
     49806 WT17     422      MECN     H13      HGA3     0.090000        1.0080           0
     49807 WT17     422      MECN     C2       CG1N1    0.360000       12.0110           0
     49808 WT17     422      MECN     N3       NG1T1   -0.460000       14.0070           0
     49809 WT17     423      MECN     C1       CG331   -0.170000       12.0110           0
     49810 WT17     423      MECN     H11      HGA3     0.090000        1.0080           0
     49811 WT17     423      MECN     H12      HGA3     0.090000        1.0080           0
     49812 WT17     423      MECN     H13      HGA3     0.090000        1.0080           0
     49813 WT17     423      MECN     C2       CG1N1    0.360000       12.0110           0
     49814 WT17     423      MECN     N3       NG1T1   -0.460000       14.0070           0
     49815 WT17     424      MECN     C1       CG331   -0.170000       12.0110           0
     49816 WT17     424      MECN     H11      HGA3     0.090000        1.0080           0
     49817 WT17     424      MECN     H12      HGA3     0.090000        1.0080           0
     49818 WT17     424      MECN     H13      HGA3     0.090000        1.0080           0
     49819 WT17     424      MECN     C2       CG1N1    0.360000       12.0110           0
     49820 WT17     424      MECN     N3       NG1T1   -0.460000       14.0070           0
     49821 WT17     425      MECN     C1       CG331   -0.170000       12.0110           0
     49822 WT17     425      MECN     H11      HGA3     0.090000        1.0080           0
     49823 WT17     425      MECN     H12      HGA3     0.090000        1.0080           0
     49824 WT17     425      MECN     H13      HGA3     0.090000        1.0080           0
     49825 WT17     425      MECN     C2       CG1N1    0.360000       12.0110           0
     49826 WT17     425      MECN     N3       NG1T1   -0.460000       14.0070           0
     49827 WT17     426      MECN     C1       CG331   -0.170000       12.0110           0
     49828 WT17     426      MECN     H11      HGA3     0.090000        1.0080           0
     49829 WT17     426      MECN     H12      HGA3     0.090000        1.0080           0
     49830 WT17     426      MECN     H13      HGA3     0.090000        1.0080           0
     49831 WT17     426      MECN     C2       CG1N1    0.360000       12.0110           0
     49832 WT17     426      MECN     N3       NG1T1   -0.460000       14.0070           0
     49833 WT17     428      MECN     C1       CG331   -0.170000       12.0110           0
     49834 WT17     428      MECN     H11      HGA3     0.090000        1.0080           0
     49835 WT17     428      MECN     H12      HGA3     0.090000        1.0080           0
     49836 WT17     428      MECN     H13      HGA3     0.090000        1.0080           0
     49837 WT17     428      MECN     C2       CG1N1    0.360000       12.0110           0
     49838 WT17     428      MECN     N3       NG1T1   -0.460000       14.0070           0
     49839 WT17     429      MECN     C1       CG331   -0.170000       12.0110           0
     49840 WT17     429      MECN     H11      HGA3     0.090000        1.0080           0
     49841 WT17     429      MECN     H12      HGA3     0.090000        1.0080           0
     49842 WT17     429      MECN     H13      HGA3     0.090000        1.0080           0
     49843 WT17     429      MECN     C2       CG1N1    0.360000       12.0110           0
     49844 WT17     429      MECN     N3       NG1T1   -0.460000       14.0070           0
     49845 WT17     431      MECN     C1       CG331   -0.170000       12.0110           0
     49846 WT17     431      MECN     H11      HGA3     0.090000        1.0080           0
     49847 WT17     431      MECN     H12      HGA3     0.090000        1.0080           0
     49848 WT17     431      MECN     H13      HGA3     0.090000        1.0080           0
     49849 WT17     431      MECN     C2       CG1N1    0.360000       12.0110           0
     49850 WT17     431      MECN     N3       NG1T1   -0.460000       14.0070           0
     49851 WT17     432      MECN     C1       CG331   -0.170000       12.0110           0
     49852 WT17     432      MECN     H11      HGA3     0.090000        1.0080           0
     49853 WT17     432      MECN     H12      HGA3     0.090000        1.0080           0
     49854 WT17     432      MECN     H13      HGA3     0.090000        1.0080           0
     49855 WT17     432      MECN     C2       CG1N1    0.360000       12.0110           0
     49856 WT17     432      MECN     N3       NG1T1   -0.460000       14.0070           0
     49857 WT17     433      MECN     C1       CG331   -0.170000       12.0110           0
     49858 WT17     433      MECN     H11      HGA3     0.090000        1.0080           0
     49859 WT17     433      MECN     H12      HGA3     0.090000        1.0080           0
     49860 WT17     433      MECN     H13      HGA3     0.090000        1.0080           0
     49861 WT17     433      MECN     C2       CG1N1    0.360000       12.0110           0
     49862 WT17     433      MECN     N3       NG1T1   -0.460000       14.0070           0
     49863 WT17     434      MECN     C1       CG331   -0.170000       12.0110           0
     49864 WT17     434      MECN     H11      HGA3     0.090000        1.0080           0
     49865 WT17     434      MECN     H12      HGA3     0.090000        1.0080           0
     49866 WT17     434      MECN     H13      HGA3     0.090000        1.0080           0
     49867 WT17     434      MECN     C2       CG1N1    0.360000       12.0110           0
     49868 WT17     434      MECN     N3       NG1T1   -0.460000       14.0070           0
     49869 WT17     435      MECN     C1       CG331   -0.170000       12.0110           0
     49870 WT17     435      MECN     H11      HGA3     0.090000        1.0080           0
     49871 WT17     435      MECN     H12      HGA3     0.090000        1.0080           0
     49872 WT17     435      MECN     H13      HGA3     0.090000        1.0080           0
     49873 WT17     435      MECN     C2       CG1N1    0.360000       12.0110           0
     49874 WT17     435      MECN     N3       NG1T1   -0.460000       14.0070           0
     49875 WT17     437      MECN     C1       CG331   -0.170000       12.0110           0
     49876 WT17     437      MECN     H11      HGA3     0.090000        1.0080           0
     49877 WT17     437      MECN     H12      HGA3     0.090000        1.0080           0
     49878 WT17     437      MECN     H13      HGA3     0.090000        1.0080           0
     49879 WT17     437      MECN     C2       CG1N1    0.360000       12.0110           0
     49880 WT17     437      MECN     N3       NG1T1   -0.460000       14.0070           0
     49881 WT17     438      MECN     C1       CG331   -0.170000       12.0110           0
     49882 WT17     438      MECN     H11      HGA3     0.090000        1.0080           0
     49883 WT17     438      MECN     H12      HGA3     0.090000        1.0080           0
     49884 WT17     438      MECN     H13      HGA3     0.090000        1.0080           0
     49885 WT17     438      MECN     C2       CG1N1    0.360000       12.0110           0
     49886 WT17     438      MECN     N3       NG1T1   -0.460000       14.0070           0
     49887 WT17     441      MECN     C1       CG331   -0.170000       12.0110           0
     49888 WT17     441      MECN     H11      HGA3     0.090000        1.0080           0
     49889 WT17     441      MECN     H12      HGA3     0.090000        1.0080           0
     49890 WT17     441      MECN     H13      HGA3     0.090000        1.0080           0
     49891 WT17     441      MECN     C2       CG1N1    0.360000       12.0110           0
     49892 WT17     441      MECN     N3       NG1T1   -0.460000       14.0070           0
     49893 WT17     442      MECN     C1       CG331   -0.170000       12.0110           0
     49894 WT17     442      MECN     H11      HGA3     0.090000        1.0080           0
     49895 WT17     442      MECN     H12      HGA3     0.090000        1.0080           0
     49896 WT17     442      MECN     H13      HGA3     0.090000        1.0080           0
     49897 WT17     442      MECN     C2       CG1N1    0.360000       12.0110           0
     49898 WT17     442      MECN     N3       NG1T1   -0.460000       14.0070           0
     49899 WT17     443      MECN     C1       CG331   -0.170000       12.0110           0
     49900 WT17     443      MECN     H11      HGA3     0.090000        1.0080           0
     49901 WT17     443      MECN     H12      HGA3     0.090000        1.0080           0
     49902 WT17     443      MECN     H13      HGA3     0.090000        1.0080           0
     49903 WT17     443      MECN     C2       CG1N1    0.360000       12.0110           0
     49904 WT17     443      MECN     N3       NG1T1   -0.460000       14.0070           0
     49905 WT17     444      MECN     C1       CG331   -0.170000       12.0110           0
     49906 WT17     444      MECN     H11      HGA3     0.090000        1.0080           0
     49907 WT17     444      MECN     H12      HGA3     0.090000        1.0080           0
     49908 WT17     444      MECN     H13      HGA3     0.090000        1.0080           0
     49909 WT17     444      MECN     C2       CG1N1    0.360000       12.0110           0
     49910 WT17     444      MECN     N3       NG1T1   -0.460000       14.0070           0
     49911 WT17     446      MECN     C1       CG331   -0.170000       12.0110           0
     49912 WT17     446      MECN     H11      HGA3     0.090000        1.0080           0
     49913 WT17     446      MECN     H12      HGA3     0.090000        1.0080           0
     49914 WT17     446      MECN     H13      HGA3     0.090000        1.0080           0
     49915 WT17     446      MECN     C2       CG1N1    0.360000       12.0110           0
     49916 WT17     446      MECN     N3       NG1T1   -0.460000       14.0070           0
     49917 WT17     447      MECN     C1       CG331   -0.170000       12.0110           0
     49918 WT17     447      MECN     H11      HGA3     0.090000        1.0080           0
     49919 WT17     447      MECN     H12      HGA3     0.090000        1.0080           0
     49920 WT17     447      MECN     H13      HGA3     0.090000        1.0080           0
     49921 WT17     447      MECN     C2       CG1N1    0.360000       12.0110           0
     49922 WT17     447      MECN     N3       NG1T1   -0.460000       14.0070           0
     49923 WT17     448      MECN     C1       CG331   -0.170000       12.0110           0
     49924 WT17     448      MECN     H11      HGA3     0.090000        1.0080           0
     49925 WT17     448      MECN     H12      HGA3     0.090000        1.0080           0
     49926 WT17     448      MECN     H13      HGA3     0.090000        1.0080           0
     49927 WT17     448      MECN     C2       CG1N1    0.360000       12.0110           0
     49928 WT17     448      MECN     N3       NG1T1   -0.460000       14.0070           0
     49929 WT17     452      MECN     C1       CG331   -0.170000       12.0110           0
     49930 WT17     452      MECN     H11      HGA3     0.090000        1.0080           0
     49931 WT17     452      MECN     H12      HGA3     0.090000        1.0080           0
     49932 WT17     452      MECN     H13      HGA3     0.090000        1.0080           0
     49933 WT17     452      MECN     C2       CG1N1    0.360000       12.0110           0
     49934 WT17     452      MECN     N3       NG1T1   -0.460000       14.0070           0
     49935 WT17     453      MECN     C1       CG331   -0.170000       12.0110           0
     49936 WT17     453      MECN     H11      HGA3     0.090000        1.0080           0
     49937 WT17     453      MECN     H12      HGA3     0.090000        1.0080           0
     49938 WT17     453      MECN     H13      HGA3     0.090000        1.0080           0
     49939 WT17     453      MECN     C2       CG1N1    0.360000       12.0110           0
     49940 WT17     453      MECN     N3       NG1T1   -0.460000       14.0070           0
     49941 WT17     455      MECN     C1       CG331   -0.170000       12.0110           0
     49942 WT17     455      MECN     H11      HGA3     0.090000        1.0080           0
     49943 WT17     455      MECN     H12      HGA3     0.090000        1.0080           0
     49944 WT17     455      MECN     H13      HGA3     0.090000        1.0080           0
     49945 WT17     455      MECN     C2       CG1N1    0.360000       12.0110           0
     49946 WT17     455      MECN     N3       NG1T1   -0.460000       14.0070           0
     49947 WT17     459      MECN     C1       CG331   -0.170000       12.0110           0
     49948 WT17     459      MECN     H11      HGA3     0.090000        1.0080           0
     49949 WT17     459      MECN     H12      HGA3     0.090000        1.0080           0
     49950 WT17     459      MECN     H13      HGA3     0.090000        1.0080           0
     49951 WT17     459      MECN     C2       CG1N1    0.360000       12.0110           0
     49952 WT17     459      MECN     N3       NG1T1   -0.460000       14.0070           0
     49953 WT17     460      MECN     C1       CG331   -0.170000       12.0110           0
     49954 WT17     460      MECN     H11      HGA3     0.090000        1.0080           0
     49955 WT17     460      MECN     H12      HGA3     0.090000        1.0080           0
     49956 WT17     460      MECN     H13      HGA3     0.090000        1.0080           0
     49957 WT17     460      MECN     C2       CG1N1    0.360000       12.0110           0
     49958 WT17     460      MECN     N3       NG1T1   -0.460000       14.0070           0
     49959 WT17     462      MECN     C1       CG331   -0.170000       12.0110           0
     49960 WT17     462      MECN     H11      HGA3     0.090000        1.0080           0
     49961 WT17     462      MECN     H12      HGA3     0.090000        1.0080           0
     49962 WT17     462      MECN     H13      HGA3     0.090000        1.0080           0
     49963 WT17     462      MECN     C2       CG1N1    0.360000       12.0110           0
     49964 WT17     462      MECN     N3       NG1T1   -0.460000       14.0070           0
     49965 WT17     463      MECN     C1       CG331   -0.170000       12.0110           0
     49966 WT17     463      MECN     H11      HGA3     0.090000        1.0080           0
     49967 WT17     463      MECN     H12      HGA3     0.090000        1.0080           0
     49968 WT17     463      MECN     H13      HGA3     0.090000        1.0080           0
     49969 WT17     463      MECN     C2       CG1N1    0.360000       12.0110           0
     49970 WT17     463      MECN     N3       NG1T1   -0.460000       14.0070           0
     49971 WT17     465      MECN     C1       CG331   -0.170000       12.0110           0
     49972 WT17     465      MECN     H11      HGA3     0.090000        1.0080           0
     49973 WT17     465      MECN     H12      HGA3     0.090000        1.0080           0
     49974 WT17     465      MECN     H13      HGA3     0.090000        1.0080           0
     49975 WT17     465      MECN     C2       CG1N1    0.360000       12.0110           0
     49976 WT17     465      MECN     N3       NG1T1   -0.460000       14.0070           0
     49977 WT17     466      MECN     C1       CG331   -0.170000       12.0110           0
     49978 WT17     466      MECN     H11      HGA3     0.090000        1.0080           0
     49979 WT17     466      MECN     H12      HGA3     0.090000        1.0080           0
     49980 WT17     466      MECN     H13      HGA3     0.090000        1.0080           0
     49981 WT17     466      MECN     C2       CG1N1    0.360000       12.0110           0
     49982 WT17     466      MECN     N3       NG1T1   -0.460000       14.0070           0
     49983 WT17     473      MECN     C1       CG331   -0.170000       12.0110           0
     49984 WT17     473      MECN     H11      HGA3     0.090000        1.0080           0
     49985 WT17     473      MECN     H12      HGA3     0.090000        1.0080           0
     49986 WT17     473      MECN     H13      HGA3     0.090000        1.0080           0
     49987 WT17     473      MECN     C2       CG1N1    0.360000       12.0110           0
     49988 WT17     473      MECN     N3       NG1T1   -0.460000       14.0070           0
     49989 WT17     474      MECN     C1       CG331   -0.170000       12.0110           0
     49990 WT17     474      MECN     H11      HGA3     0.090000        1.0080           0
     49991 WT17     474      MECN     H12      HGA3     0.090000        1.0080           0
     49992 WT17     474      MECN     H13      HGA3     0.090000        1.0080           0
     49993 WT17     474      MECN     C2       CG1N1    0.360000       12.0110           0
     49994 WT17     474      MECN     N3       NG1T1   -0.460000       14.0070           0
     49995 WT17     476      MECN     C1       CG331   -0.170000       12.0110           0
     49996 WT17     476      MECN     H11      HGA3     0.090000        1.0080           0
     49997 WT17     476      MECN     H12      HGA3     0.090000        1.0080           0
     49998 WT17     476      MECN     H13      HGA3     0.090000        1.0080           0
     49999 WT17     476      MECN     C2       CG1N1    0.360000       12.0110           0
     50000 WT17     476      MECN     N3       NG1T1   -0.460000       14.0070           0
     50001 WT17     478      MECN     C1       CG331   -0.170000       12.0110           0
     50002 WT17     478      MECN     H11      HGA3     0.090000        1.0080           0
     50003 WT17     478      MECN     H12      HGA3     0.090000        1.0080           0
     50004 WT17     478      MECN     H13      HGA3     0.090000        1.0080           0
     50005 WT17     478      MECN     C2       CG1N1    0.360000       12.0110           0
     50006 WT17     478      MECN     N3       NG1T1   -0.460000       14.0070           0
     50007 WT17     479      MECN     C1       CG331   -0.170000       12.0110           0
     50008 WT17     479      MECN     H11      HGA3     0.090000        1.0080           0
     50009 WT17     479      MECN     H12      HGA3     0.090000        1.0080           0
     50010 WT17     479      MECN     H13      HGA3     0.090000        1.0080           0
     50011 WT17     479      MECN     C2       CG1N1    0.360000       12.0110           0
     50012 WT17     479      MECN     N3       NG1T1   -0.460000       14.0070           0
     50013 WT17     481      MECN     C1       CG331   -0.170000       12.0110           0
     50014 WT17     481      MECN     H11      HGA3     0.090000        1.0080           0
     50015 WT17     481      MECN     H12      HGA3     0.090000        1.0080           0
     50016 WT17     481      MECN     H13      HGA3     0.090000        1.0080           0
     50017 WT17     481      MECN     C2       CG1N1    0.360000       12.0110           0
     50018 WT17     481      MECN     N3       NG1T1   -0.460000       14.0070           0
     50019 WT17     483      MECN     C1       CG331   -0.170000       12.0110           0
     50020 WT17     483      MECN     H11      HGA3     0.090000        1.0080           0
     50021 WT17     483      MECN     H12      HGA3     0.090000        1.0080           0
     50022 WT17     483      MECN     H13      HGA3     0.090000        1.0080           0
     50023 WT17     483      MECN     C2       CG1N1    0.360000       12.0110           0
     50024 WT17     483      MECN     N3       NG1T1   -0.460000       14.0070           0
     50025 WT17     487      MECN     C1       CG331   -0.170000       12.0110           0
     50026 WT17     487      MECN     H11      HGA3     0.090000        1.0080           0
     50027 WT17     487      MECN     H12      HGA3     0.090000        1.0080           0
     50028 WT17     487      MECN     H13      HGA3     0.090000        1.0080           0
     50029 WT17     487      MECN     C2       CG1N1    0.360000       12.0110           0
     50030 WT17     487      MECN     N3       NG1T1   -0.460000       14.0070           0
     50031 WT17     491      MECN     C1       CG331   -0.170000       12.0110           0
     50032 WT17     491      MECN     H11      HGA3     0.090000        1.0080           0
     50033 WT17     491      MECN     H12      HGA3     0.090000        1.0080           0
     50034 WT17     491      MECN     H13      HGA3     0.090000        1.0080           0
     50035 WT17     491      MECN     C2       CG1N1    0.360000       12.0110           0
     50036 WT17     491      MECN     N3       NG1T1   -0.460000       14.0070           0
     50037 WT17     493      MECN     C1       CG331   -0.170000       12.0110           0
     50038 WT17     493      MECN     H11      HGA3     0.090000        1.0080           0
     50039 WT17     493      MECN     H12      HGA3     0.090000        1.0080           0
     50040 WT17     493      MECN     H13      HGA3     0.090000        1.0080           0
     50041 WT17     493      MECN     C2       CG1N1    0.360000       12.0110           0
     50042 WT17     493      MECN     N3       NG1T1   -0.460000       14.0070           0
     50043 WT17     496      MECN     C1       CG331   -0.170000       12.0110           0
     50044 WT17     496      MECN     H11      HGA3     0.090000        1.0080           0
     50045 WT17     496      MECN     H12      HGA3     0.090000        1.0080           0
     50046 WT17     496      MECN     H13      HGA3     0.090000        1.0080           0
     50047 WT17     496      MECN     C2       CG1N1    0.360000       12.0110           0
     50048 WT17     496      MECN     N3       NG1T1   -0.460000       14.0070           0
     50049 WT17     499      MECN     C1       CG331   -0.170000       12.0110           0
     50050 WT17     499      MECN     H11      HGA3     0.090000        1.0080           0
     50051 WT17     499      MECN     H12      HGA3     0.090000        1.0080           0
     50052 WT17     499      MECN     H13      HGA3     0.090000        1.0080           0
     50053 WT17     499      MECN     C2       CG1N1    0.360000       12.0110           0
     50054 WT17     499      MECN     N3       NG1T1   -0.460000       14.0070           0
     50055 WT17     500      MECN     C1       CG331   -0.170000       12.0110           0
     50056 WT17     500      MECN     H11      HGA3     0.090000        1.0080           0
     50057 WT17     500      MECN     H12      HGA3     0.090000        1.0080           0
     50058 WT17     500      MECN     H13      HGA3     0.090000        1.0080           0
     50059 WT17     500      MECN     C2       CG1N1    0.360000       12.0110           0
     50060 WT17     500      MECN     N3       NG1T1   -0.460000       14.0070           0
     50061 WT17     502      MECN     C1       CG331   -0.170000       12.0110           0
     50062 WT17     502      MECN     H11      HGA3     0.090000        1.0080           0
     50063 WT17     502      MECN     H12      HGA3     0.090000        1.0080           0
     50064 WT17     502      MECN     H13      HGA3     0.090000        1.0080           0
     50065 WT17     502      MECN     C2       CG1N1    0.360000       12.0110           0
     50066 WT17     502      MECN     N3       NG1T1   -0.460000       14.0070           0
     50067 WT17     503      MECN     C1       CG331   -0.170000       12.0110           0
     50068 WT17     503      MECN     H11      HGA3     0.090000        1.0080           0
     50069 WT17     503      MECN     H12      HGA3     0.090000        1.0080           0
     50070 WT17     503      MECN     H13      HGA3     0.090000        1.0080           0
     50071 WT17     503      MECN     C2       CG1N1    0.360000       12.0110           0
     50072 WT17     503      MECN     N3       NG1T1   -0.460000       14.0070           0
     50073 WT17     505      MECN     C1       CG331   -0.170000       12.0110           0
     50074 WT17     505      MECN     H11      HGA3     0.090000        1.0080           0
     50075 WT17     505      MECN     H12      HGA3     0.090000        1.0080           0
     50076 WT17     505      MECN     H13      HGA3     0.090000        1.0080           0
     50077 WT17     505      MECN     C2       CG1N1    0.360000       12.0110           0
     50078 WT17     505      MECN     N3       NG1T1   -0.460000       14.0070           0
     50079 WT17     506      MECN     C1       CG331   -0.170000       12.0110           0
     50080 WT17     506      MECN     H11      HGA3     0.090000        1.0080           0
     50081 WT17     506      MECN     H12      HGA3     0.090000        1.0080           0
     50082 WT17     506      MECN     H13      HGA3     0.090000        1.0080           0
     50083 WT17     506      MECN     C2       CG1N1    0.360000       12.0110           0
     50084 WT17     506      MECN     N3       NG1T1   -0.460000       14.0070           0
     50085 WT17     507      MECN     C1       CG331   -0.170000       12.0110           0
     50086 WT17     507      MECN     H11      HGA3     0.090000        1.0080           0
     50087 WT17     507      MECN     H12      HGA3     0.090000        1.0080           0
     50088 WT17     507      MECN     H13      HGA3     0.090000        1.0080           0
     50089 WT17     507      MECN     C2       CG1N1    0.360000       12.0110           0
     50090 WT17     507      MECN     N3       NG1T1   -0.460000       14.0070           0
     50091 WT17     510      MECN     C1       CG331   -0.170000       12.0110           0
     50092 WT17     510      MECN     H11      HGA3     0.090000        1.0080           0
     50093 WT17     510      MECN     H12      HGA3     0.090000        1.0080           0
     50094 WT17     510      MECN     H13      HGA3     0.090000        1.0080           0
     50095 WT17     510      MECN     C2       CG1N1    0.360000       12.0110           0
     50096 WT17     510      MECN     N3       NG1T1   -0.460000       14.0070           0
     50097 WT17     512      MECN     C1       CG331   -0.170000       12.0110           0
     50098 WT17     512      MECN     H11      HGA3     0.090000        1.0080           0
     50099 WT17     512      MECN     H12      HGA3     0.090000        1.0080           0
     50100 WT17     512      MECN     H13      HGA3     0.090000        1.0080           0
     50101 WT17     512      MECN     C2       CG1N1    0.360000       12.0110           0
     50102 WT17     512      MECN     N3       NG1T1   -0.460000       14.0070           0
     50103 WT17     513      MECN     C1       CG331   -0.170000       12.0110           0
     50104 WT17     513      MECN     H11      HGA3     0.090000        1.0080           0
     50105 WT17     513      MECN     H12      HGA3     0.090000        1.0080           0
     50106 WT17     513      MECN     H13      HGA3     0.090000        1.0080           0
     50107 WT17     513      MECN     C2       CG1N1    0.360000       12.0110           0
     50108 WT17     513      MECN     N3       NG1T1   -0.460000       14.0070           0
     50109 WT17     514      MECN     C1       CG331   -0.170000       12.0110           0
     50110 WT17     514      MECN     H11      HGA3     0.090000        1.0080           0
     50111 WT17     514      MECN     H12      HGA3     0.090000        1.0080           0
     50112 WT17     514      MECN     H13      HGA3     0.090000        1.0080           0
     50113 WT17     514      MECN     C2       CG1N1    0.360000       12.0110           0
     50114 WT17     514      MECN     N3       NG1T1   -0.460000       14.0070           0
     50115 WT17     515      MECN     C1       CG331   -0.170000       12.0110           0
     50116 WT17     515      MECN     H11      HGA3     0.090000        1.0080           0
     50117 WT17     515      MECN     H12      HGA3     0.090000        1.0080           0
     50118 WT17     515      MECN     H13      HGA3     0.090000        1.0080           0
     50119 WT17     515      MECN     C2       CG1N1    0.360000       12.0110           0
     50120 WT17     515      MECN     N3       NG1T1   -0.460000       14.0070           0
     50121 WT17     516      MECN     C1       CG331   -0.170000       12.0110           0
     50122 WT17     516      MECN     H11      HGA3     0.090000        1.0080           0
     50123 WT17     516      MECN     H12      HGA3     0.090000        1.0080           0
     50124 WT17     516      MECN     H13      HGA3     0.090000        1.0080           0
     50125 WT17     516      MECN     C2       CG1N1    0.360000       12.0110           0
     50126 WT17     516      MECN     N3       NG1T1   -0.460000       14.0070           0
     50127 WT17     517      MECN     C1       CG331   -0.170000       12.0110           0
     50128 WT17     517      MECN     H11      HGA3     0.090000        1.0080           0
     50129 WT17     517      MECN     H12      HGA3     0.090000        1.0080           0
     50130 WT17     517      MECN     H13      HGA3     0.090000        1.0080           0
     50131 WT17     517      MECN     C2       CG1N1    0.360000       12.0110           0
     50132 WT17     517      MECN     N3       NG1T1   -0.460000       14.0070           0
     50133 WT17     521      MECN     C1       CG331   -0.170000       12.0110           0
     50134 WT17     521      MECN     H11      HGA3     0.090000        1.0080           0
     50135 WT17     521      MECN     H12      HGA3     0.090000        1.0080           0
     50136 WT17     521      MECN     H13      HGA3     0.090000        1.0080           0
     50137 WT17     521      MECN     C2       CG1N1    0.360000       12.0110           0
     50138 WT17     521      MECN     N3       NG1T1   -0.460000       14.0070           0
     50139 WT17     524      MECN     C1       CG331   -0.170000       12.0110           0
     50140 WT17     524      MECN     H11      HGA3     0.090000        1.0080           0
     50141 WT17     524      MECN     H12      HGA3     0.090000        1.0080           0
     50142 WT17     524      MECN     H13      HGA3     0.090000        1.0080           0
     50143 WT17     524      MECN     C2       CG1N1    0.360000       12.0110           0
     50144 WT17     524      MECN     N3       NG1T1   -0.460000       14.0070           0
     50145 WT17     525      MECN     C1       CG331   -0.170000       12.0110           0
     50146 WT17     525      MECN     H11      HGA3     0.090000        1.0080           0
     50147 WT17     525      MECN     H12      HGA3     0.090000        1.0080           0
     50148 WT17     525      MECN     H13      HGA3     0.090000        1.0080           0
     50149 WT17     525      MECN     C2       CG1N1    0.360000       12.0110           0
     50150 WT17     525      MECN     N3       NG1T1   -0.460000       14.0070           0
     50151 WT17     527      MECN     C1       CG331   -0.170000       12.0110           0
     50152 WT17     527      MECN     H11      HGA3     0.090000        1.0080           0
     50153 WT17     527      MECN     H12      HGA3     0.090000        1.0080           0
     50154 WT17     527      MECN     H13      HGA3     0.090000        1.0080           0
     50155 WT17     527      MECN     C2       CG1N1    0.360000       12.0110           0
     50156 WT17     527      MECN     N3       NG1T1   -0.460000       14.0070           0
     50157 WT17     528      MECN     C1       CG331   -0.170000       12.0110           0
     50158 WT17     528      MECN     H11      HGA3     0.090000        1.0080           0
     50159 WT17     528      MECN     H12      HGA3     0.090000        1.0080           0
     50160 WT17     528      MECN     H13      HGA3     0.090000        1.0080           0
     50161 WT17     528      MECN     C2       CG1N1    0.360000       12.0110           0
     50162 WT17     528      MECN     N3       NG1T1   -0.460000       14.0070           0
     50163 WT17     529      MECN     C1       CG331   -0.170000       12.0110           0
     50164 WT17     529      MECN     H11      HGA3     0.090000        1.0080           0
     50165 WT17     529      MECN     H12      HGA3     0.090000        1.0080           0
     50166 WT17     529      MECN     H13      HGA3     0.090000        1.0080           0
     50167 WT17     529      MECN     C2       CG1N1    0.360000       12.0110           0
     50168 WT17     529      MECN     N3       NG1T1   -0.460000       14.0070           0
     50169 WT17     533      MECN     C1       CG331   -0.170000       12.0110           0
     50170 WT17     533      MECN     H11      HGA3     0.090000        1.0080           0
     50171 WT17     533      MECN     H12      HGA3     0.090000        1.0080           0
     50172 WT17     533      MECN     H13      HGA3     0.090000        1.0080           0
     50173 WT17     533      MECN     C2       CG1N1    0.360000       12.0110           0
     50174 WT17     533      MECN     N3       NG1T1   -0.460000       14.0070           0
     50175 WT17     534      MECN     C1       CG331   -0.170000       12.0110           0
     50176 WT17     534      MECN     H11      HGA3     0.090000        1.0080           0
     50177 WT17     534      MECN     H12      HGA3     0.090000        1.0080           0
     50178 WT17     534      MECN     H13      HGA3     0.090000        1.0080           0
     50179 WT17     534      MECN     C2       CG1N1    0.360000       12.0110           0
     50180 WT17     534      MECN     N3       NG1T1   -0.460000       14.0070           0
     50181 WT17     535      MECN     C1       CG331   -0.170000       12.0110           0
     50182 WT17     535      MECN     H11      HGA3     0.090000        1.0080           0
     50183 WT17     535      MECN     H12      HGA3     0.090000        1.0080           0
     50184 WT17     535      MECN     H13      HGA3     0.090000        1.0080           0
     50185 WT17     535      MECN     C2       CG1N1    0.360000       12.0110           0
     50186 WT17     535      MECN     N3       NG1T1   -0.460000       14.0070           0
     50187 WT17     536      MECN     C1       CG331   -0.170000       12.0110           0
     50188 WT17     536      MECN     H11      HGA3     0.090000        1.0080           0
     50189 WT17     536      MECN     H12      HGA3     0.090000        1.0080           0
     50190 WT17     536      MECN     H13      HGA3     0.090000        1.0080           0
     50191 WT17     536      MECN     C2       CG1N1    0.360000       12.0110           0
     50192 WT17     536      MECN     N3       NG1T1   -0.460000       14.0070           0
     50193 WT17     538      MECN     C1       CG331   -0.170000       12.0110           0
     50194 WT17     538      MECN     H11      HGA3     0.090000        1.0080           0
     50195 WT17     538      MECN     H12      HGA3     0.090000        1.0080           0
     50196 WT17     538      MECN     H13      HGA3     0.090000        1.0080           0
     50197 WT17     538      MECN     C2       CG1N1    0.360000       12.0110           0
     50198 WT17     538      MECN     N3       NG1T1   -0.460000       14.0070           0
     50199 WT17     539      MECN     C1       CG331   -0.170000       12.0110           0
     50200 WT17     539      MECN     H11      HGA3     0.090000        1.0080           0
     50201 WT17     539      MECN     H12      HGA3     0.090000        1.0080           0
     50202 WT17     539      MECN     H13      HGA3     0.090000        1.0080           0
     50203 WT17     539      MECN     C2       CG1N1    0.360000       12.0110           0
     50204 WT17     539      MECN     N3       NG1T1   -0.460000       14.0070           0
     50205 WT17     540      MECN     C1       CG331   -0.170000       12.0110           0
     50206 WT17     540      MECN     H11      HGA3     0.090000        1.0080           0
     50207 WT17     540      MECN     H12      HGA3     0.090000        1.0080           0
     50208 WT17     540      MECN     H13      HGA3     0.090000        1.0080           0
     50209 WT17     540      MECN     C2       CG1N1    0.360000       12.0110           0
     50210 WT17     540      MECN     N3       NG1T1   -0.460000       14.0070           0
     50211 WT17     544      MECN     C1       CG331   -0.170000       12.0110           0
     50212 WT17     544      MECN     H11      HGA3     0.090000        1.0080           0
     50213 WT17     544      MECN     H12      HGA3     0.090000        1.0080           0
     50214 WT17     544      MECN     H13      HGA3     0.090000        1.0080           0
     50215 WT17     544      MECN     C2       CG1N1    0.360000       12.0110           0
     50216 WT17     544      MECN     N3       NG1T1   -0.460000       14.0070           0
     50217 WT17     545      MECN     C1       CG331   -0.170000       12.0110           0
     50218 WT17     545      MECN     H11      HGA3     0.090000        1.0080           0
     50219 WT17     545      MECN     H12      HGA3     0.090000        1.0080           0
     50220 WT17     545      MECN     H13      HGA3     0.090000        1.0080           0
     50221 WT17     545      MECN     C2       CG1N1    0.360000       12.0110           0
     50222 WT17     545      MECN     N3       NG1T1   -0.460000       14.0070           0
     50223 WT17     548      MECN     C1       CG331   -0.170000       12.0110           0
     50224 WT17     548      MECN     H11      HGA3     0.090000        1.0080           0
     50225 WT17     548      MECN     H12      HGA3     0.090000        1.0080           0
     50226 WT17     548      MECN     H13      HGA3     0.090000        1.0080           0
     50227 WT17     548      MECN     C2       CG1N1    0.360000       12.0110           0
     50228 WT17     548      MECN     N3       NG1T1   -0.460000       14.0070           0
     50229 WT17     549      MECN     C1       CG331   -0.170000       12.0110           0
     50230 WT17     549      MECN     H11      HGA3     0.090000        1.0080           0
     50231 WT17     549      MECN     H12      HGA3     0.090000        1.0080           0
     50232 WT17     549      MECN     H13      HGA3     0.090000        1.0080           0
     50233 WT17     549      MECN     C2       CG1N1    0.360000       12.0110           0
     50234 WT17     549      MECN     N3       NG1T1   -0.460000       14.0070           0
     50235 WT17     550      MECN     C1       CG331   -0.170000       12.0110           0
     50236 WT17     550      MECN     H11      HGA3     0.090000        1.0080           0
     50237 WT17     550      MECN     H12      HGA3     0.090000        1.0080           0
     50238 WT17     550      MECN     H13      HGA3     0.090000        1.0080           0
     50239 WT17     550      MECN     C2       CG1N1    0.360000       12.0110           0
     50240 WT17     550      MECN     N3       NG1T1   -0.460000       14.0070           0
     50241 WT17     551      MECN     C1       CG331   -0.170000       12.0110           0
     50242 WT17     551      MECN     H11      HGA3     0.090000        1.0080           0
     50243 WT17     551      MECN     H12      HGA3     0.090000        1.0080           0
     50244 WT17     551      MECN     H13      HGA3     0.090000        1.0080           0
     50245 WT17     551      MECN     C2       CG1N1    0.360000       12.0110           0
     50246 WT17     551      MECN     N3       NG1T1   -0.460000       14.0070           0
     50247 WT17     552      MECN     C1       CG331   -0.170000       12.0110           0
     50248 WT17     552      MECN     H11      HGA3     0.090000        1.0080           0
     50249 WT17     552      MECN     H12      HGA3     0.090000        1.0080           0
     50250 WT17     552      MECN     H13      HGA3     0.090000        1.0080           0
     50251 WT17     552      MECN     C2       CG1N1    0.360000       12.0110           0
     50252 WT17     552      MECN     N3       NG1T1   -0.460000       14.0070           0
     50253 WT17     554      MECN     C1       CG331   -0.170000       12.0110           0
     50254 WT17     554      MECN     H11      HGA3     0.090000        1.0080           0
     50255 WT17     554      MECN     H12      HGA3     0.090000        1.0080           0
     50256 WT17     554      MECN     H13      HGA3     0.090000        1.0080           0
     50257 WT17     554      MECN     C2       CG1N1    0.360000       12.0110           0
     50258 WT17     554      MECN     N3       NG1T1   -0.460000       14.0070           0
     50259 WT17     556      MECN     C1       CG331   -0.170000       12.0110           0
     50260 WT17     556      MECN     H11      HGA3     0.090000        1.0080           0
     50261 WT17     556      MECN     H12      HGA3     0.090000        1.0080           0
     50262 WT17     556      MECN     H13      HGA3     0.090000        1.0080           0
     50263 WT17     556      MECN     C2       CG1N1    0.360000       12.0110           0
     50264 WT17     556      MECN     N3       NG1T1   -0.460000       14.0070           0
     50265 WT17     558      MECN     C1       CG331   -0.170000       12.0110           0
     50266 WT17     558      MECN     H11      HGA3     0.090000        1.0080           0
     50267 WT17     558      MECN     H12      HGA3     0.090000        1.0080           0
     50268 WT17     558      MECN     H13      HGA3     0.090000        1.0080           0
     50269 WT17     558      MECN     C2       CG1N1    0.360000       12.0110           0
     50270 WT17     558      MECN     N3       NG1T1   -0.460000       14.0070           0
     50271 WT17     559      MECN     C1       CG331   -0.170000       12.0110           0
     50272 WT17     559      MECN     H11      HGA3     0.090000        1.0080           0
     50273 WT17     559      MECN     H12      HGA3     0.090000        1.0080           0
     50274 WT17     559      MECN     H13      HGA3     0.090000        1.0080           0
     50275 WT17     559      MECN     C2       CG1N1    0.360000       12.0110           0
     50276 WT17     559      MECN     N3       NG1T1   -0.460000       14.0070           0
     50277 WT17     561      MECN     C1       CG331   -0.170000       12.0110           0
     50278 WT17     561      MECN     H11      HGA3     0.090000        1.0080           0
     50279 WT17     561      MECN     H12      HGA3     0.090000        1.0080           0
     50280 WT17     561      MECN     H13      HGA3     0.090000        1.0080           0
     50281 WT17     561      MECN     C2       CG1N1    0.360000       12.0110           0
     50282 WT17     561      MECN     N3       NG1T1   -0.460000       14.0070           0
     50283 WT17     563      MECN     C1       CG331   -0.170000       12.0110           0
     50284 WT17     563      MECN     H11      HGA3     0.090000        1.0080           0
     50285 WT17     563      MECN     H12      HGA3     0.090000        1.0080           0
     50286 WT17     563      MECN     H13      HGA3     0.090000        1.0080           0
     50287 WT17     563      MECN     C2       CG1N1    0.360000       12.0110           0
     50288 WT17     563      MECN     N3       NG1T1   -0.460000       14.0070           0
     50289 WT17     565      MECN     C1       CG331   -0.170000       12.0110           0
     50290 WT17     565      MECN     H11      HGA3     0.090000        1.0080           0
     50291 WT17     565      MECN     H12      HGA3     0.090000        1.0080           0
     50292 WT17     565      MECN     H13      HGA3     0.090000        1.0080           0
     50293 WT17     565      MECN     C2       CG1N1    0.360000       12.0110           0
     50294 WT17     565      MECN     N3       NG1T1   -0.460000       14.0070           0
     50295 WT17     566      MECN     C1       CG331   -0.170000       12.0110           0
     50296 WT17     566      MECN     H11      HGA3     0.090000        1.0080           0
     50297 WT17     566      MECN     H12      HGA3     0.090000        1.0080           0
     50298 WT17     566      MECN     H13      HGA3     0.090000        1.0080           0
     50299 WT17     566      MECN     C2       CG1N1    0.360000       12.0110           0
     50300 WT17     566      MECN     N3       NG1T1   -0.460000       14.0070           0
     50301 WT17     567      MECN     C1       CG331   -0.170000       12.0110           0
     50302 WT17     567      MECN     H11      HGA3     0.090000        1.0080           0
     50303 WT17     567      MECN     H12      HGA3     0.090000        1.0080           0
     50304 WT17     567      MECN     H13      HGA3     0.090000        1.0080           0
     50305 WT17     567      MECN     C2       CG1N1    0.360000       12.0110           0
     50306 WT17     567      MECN     N3       NG1T1   -0.460000       14.0070           0
     50307 WT17     568      MECN     C1       CG331   -0.170000       12.0110           0
     50308 WT17     568      MECN     H11      HGA3     0.090000        1.0080           0
     50309 WT17     568      MECN     H12      HGA3     0.090000        1.0080           0
     50310 WT17     568      MECN     H13      HGA3     0.090000        1.0080           0
     50311 WT17     568      MECN     C2       CG1N1    0.360000       12.0110           0
     50312 WT17     568      MECN     N3       NG1T1   -0.460000       14.0070           0
     50313 WT17     570      MECN     C1       CG331   -0.170000       12.0110           0
     50314 WT17     570      MECN     H11      HGA3     0.090000        1.0080           0
     50315 WT17     570      MECN     H12      HGA3     0.090000        1.0080           0
     50316 WT17     570      MECN     H13      HGA3     0.090000        1.0080           0
     50317 WT17     570      MECN     C2       CG1N1    0.360000       12.0110           0
     50318 WT17     570      MECN     N3       NG1T1   -0.460000       14.0070           0
     50319 WT17     572      MECN     C1       CG331   -0.170000       12.0110           0
     50320 WT17     572      MECN     H11      HGA3     0.090000        1.0080           0
     50321 WT17     572      MECN     H12      HGA3     0.090000        1.0080           0
     50322 WT17     572      MECN     H13      HGA3     0.090000        1.0080           0
     50323 WT17     572      MECN     C2       CG1N1    0.360000       12.0110           0
     50324 WT17     572      MECN     N3       NG1T1   -0.460000       14.0070           0
     50325 WT17     574      MECN     C1       CG331   -0.170000       12.0110           0
     50326 WT17     574      MECN     H11      HGA3     0.090000        1.0080           0
     50327 WT17     574      MECN     H12      HGA3     0.090000        1.0080           0
     50328 WT17     574      MECN     H13      HGA3     0.090000        1.0080           0
     50329 WT17     574      MECN     C2       CG1N1    0.360000       12.0110           0
     50330 WT17     574      MECN     N3       NG1T1   -0.460000       14.0070           0
     50331 WT17     575      MECN     C1       CG331   -0.170000       12.0110           0
     50332 WT17     575      MECN     H11      HGA3     0.090000        1.0080           0
     50333 WT17     575      MECN     H12      HGA3     0.090000        1.0080           0
     50334 WT17     575      MECN     H13      HGA3     0.090000        1.0080           0
     50335 WT17     575      MECN     C2       CG1N1    0.360000       12.0110           0
     50336 WT17     575      MECN     N3       NG1T1   -0.460000       14.0070           0
     50337 WT17     576      MECN     C1       CG331   -0.170000       12.0110           0
     50338 WT17     576      MECN     H11      HGA3     0.090000        1.0080           0
     50339 WT17     576      MECN     H12      HGA3     0.090000        1.0080           0
     50340 WT17     576      MECN     H13      HGA3     0.090000        1.0080           0
     50341 WT17     576      MECN     C2       CG1N1    0.360000       12.0110           0
     50342 WT17     576      MECN     N3       NG1T1   -0.460000       14.0070           0
     50343 WT17     577      MECN     C1       CG331   -0.170000       12.0110           0
     50344 WT17     577      MECN     H11      HGA3     0.090000        1.0080           0
     50345 WT17     577      MECN     H12      HGA3     0.090000        1.0080           0
     50346 WT17     577      MECN     H13      HGA3     0.090000        1.0080           0
     50347 WT17     577      MECN     C2       CG1N1    0.360000       12.0110           0
     50348 WT17     577      MECN     N3       NG1T1   -0.460000       14.0070           0
     50349 WT17     581      MECN     C1       CG331   -0.170000       12.0110           0
     50350 WT17     581      MECN     H11      HGA3     0.090000        1.0080           0
     50351 WT17     581      MECN     H12      HGA3     0.090000        1.0080           0
     50352 WT17     581      MECN     H13      HGA3     0.090000        1.0080           0
     50353 WT17     581      MECN     C2       CG1N1    0.360000       12.0110           0
     50354 WT17     581      MECN     N3       NG1T1   -0.460000       14.0070           0
     50355 WT17     582      MECN     C1       CG331   -0.170000       12.0110           0
     50356 WT17     582      MECN     H11      HGA3     0.090000        1.0080           0
     50357 WT17     582      MECN     H12      HGA3     0.090000        1.0080           0
     50358 WT17     582      MECN     H13      HGA3     0.090000        1.0080           0
     50359 WT17     582      MECN     C2       CG1N1    0.360000       12.0110           0
     50360 WT17     582      MECN     N3       NG1T1   -0.460000       14.0070           0
     50361 WT17     584      MECN     C1       CG331   -0.170000       12.0110           0
     50362 WT17     584      MECN     H11      HGA3     0.090000        1.0080           0
     50363 WT17     584      MECN     H12      HGA3     0.090000        1.0080           0
     50364 WT17     584      MECN     H13      HGA3     0.090000        1.0080           0
     50365 WT17     584      MECN     C2       CG1N1    0.360000       12.0110           0
     50366 WT17     584      MECN     N3       NG1T1   -0.460000       14.0070           0
     50367 WT17     588      MECN     C1       CG331   -0.170000       12.0110           0
     50368 WT17     588      MECN     H11      HGA3     0.090000        1.0080           0
     50369 WT17     588      MECN     H12      HGA3     0.090000        1.0080           0
     50370 WT17     588      MECN     H13      HGA3     0.090000        1.0080           0
     50371 WT17     588      MECN     C2       CG1N1    0.360000       12.0110           0
     50372 WT17     588      MECN     N3       NG1T1   -0.460000       14.0070           0
     50373 WT17     591      MECN     C1       CG331   -0.170000       12.0110           0
     50374 WT17     591      MECN     H11      HGA3     0.090000        1.0080           0
     50375 WT17     591      MECN     H12      HGA3     0.090000        1.0080           0
     50376 WT17     591      MECN     H13      HGA3     0.090000        1.0080           0
     50377 WT17     591      MECN     C2       CG1N1    0.360000       12.0110           0
     50378 WT17     591      MECN     N3       NG1T1   -0.460000       14.0070           0
     50379 WT17     592      MECN     C1       CG331   -0.170000       12.0110           0
     50380 WT17     592      MECN     H11      HGA3     0.090000        1.0080           0
     50381 WT17     592      MECN     H12      HGA3     0.090000        1.0080           0
     50382 WT17     592      MECN     H13      HGA3     0.090000        1.0080           0
     50383 WT17     592      MECN     C2       CG1N1    0.360000       12.0110           0
     50384 WT17     592      MECN     N3       NG1T1   -0.460000       14.0070           0
     50385 WT17     593      MECN     C1       CG331   -0.170000       12.0110           0
     50386 WT17     593      MECN     H11      HGA3     0.090000        1.0080           0
     50387 WT17     593      MECN     H12      HGA3     0.090000        1.0080           0
     50388 WT17     593      MECN     H13      HGA3     0.090000        1.0080           0
     50389 WT17     593      MECN     C2       CG1N1    0.360000       12.0110           0
     50390 WT17     593      MECN     N3       NG1T1   -0.460000       14.0070           0
     50391 WT17     594      MECN     C1       CG331   -0.170000       12.0110           0
     50392 WT17     594      MECN     H11      HGA3     0.090000        1.0080           0
     50393 WT17     594      MECN     H12      HGA3     0.090000        1.0080           0
     50394 WT17     594      MECN     H13      HGA3     0.090000        1.0080           0
     50395 WT17     594      MECN     C2       CG1N1    0.360000       12.0110           0
     50396 WT17     594      MECN     N3       NG1T1   -0.460000       14.0070           0
     50397 WT17     596      MECN     C1       CG331   -0.170000       12.0110           0
     50398 WT17     596      MECN     H11      HGA3     0.090000        1.0080           0
     50399 WT17     596      MECN     H12      HGA3     0.090000        1.0080           0
     50400 WT17     596      MECN     H13      HGA3     0.090000        1.0080           0
     50401 WT17     596      MECN     C2       CG1N1    0.360000       12.0110           0
     50402 WT17     596      MECN     N3       NG1T1   -0.460000       14.0070           0
     50403 WT17     597      MECN     C1       CG331   -0.170000       12.0110           0
     50404 WT17     597      MECN     H11      HGA3     0.090000        1.0080           0
     50405 WT17     597      MECN     H12      HGA3     0.090000        1.0080           0
     50406 WT17     597      MECN     H13      HGA3     0.090000        1.0080           0
     50407 WT17     597      MECN     C2       CG1N1    0.360000       12.0110           0
     50408 WT17     597      MECN     N3       NG1T1   -0.460000       14.0070           0
     50409 WT17     599      MECN     C1       CG331   -0.170000       12.0110           0
     50410 WT17     599      MECN     H11      HGA3     0.090000        1.0080           0
     50411 WT17     599      MECN     H12      HGA3     0.090000        1.0080           0
     50412 WT17     599      MECN     H13      HGA3     0.090000        1.0080           0
     50413 WT17     599      MECN     C2       CG1N1    0.360000       12.0110           0
     50414 WT17     599      MECN     N3       NG1T1   -0.460000       14.0070           0
     50415 WT17     600      MECN     C1       CG331   -0.170000       12.0110           0
     50416 WT17     600      MECN     H11      HGA3     0.090000        1.0080           0
     50417 WT17     600      MECN     H12      HGA3     0.090000        1.0080           0
     50418 WT17     600      MECN     H13      HGA3     0.090000        1.0080           0
     50419 WT17     600      MECN     C2       CG1N1    0.360000       12.0110           0
     50420 WT17     600      MECN     N3       NG1T1   -0.460000       14.0070           0
     50421 WT17     601      MECN     C1       CG331   -0.170000       12.0110           0
     50422 WT17     601      MECN     H11      HGA3     0.090000        1.0080           0
     50423 WT17     601      MECN     H12      HGA3     0.090000        1.0080           0
     50424 WT17     601      MECN     H13      HGA3     0.090000        1.0080           0
     50425 WT17     601      MECN     C2       CG1N1    0.360000       12.0110           0
     50426 WT17     601      MECN     N3       NG1T1   -0.460000       14.0070           0
     50427 WT17     603      MECN     C1       CG331   -0.170000       12.0110           0
     50428 WT17     603      MECN     H11      HGA3     0.090000        1.0080           0
     50429 WT17     603      MECN     H12      HGA3     0.090000        1.0080           0
     50430 WT17     603      MECN     H13      HGA3     0.090000        1.0080           0
     50431 WT17     603      MECN     C2       CG1N1    0.360000       12.0110           0
     50432 WT17     603      MECN     N3       NG1T1   -0.460000       14.0070           0
     50433 WT17     604      MECN     C1       CG331   -0.170000       12.0110           0
     50434 WT17     604      MECN     H11      HGA3     0.090000        1.0080           0
     50435 WT17     604      MECN     H12      HGA3     0.090000        1.0080           0
     50436 WT17     604      MECN     H13      HGA3     0.090000        1.0080           0
     50437 WT17     604      MECN     C2       CG1N1    0.360000       12.0110           0
     50438 WT17     604      MECN     N3       NG1T1   -0.460000       14.0070           0
     50439 WT17     606      MECN     C1       CG331   -0.170000       12.0110           0
     50440 WT17     606      MECN     H11      HGA3     0.090000        1.0080           0
     50441 WT17     606      MECN     H12      HGA3     0.090000        1.0080           0
     50442 WT17     606      MECN     H13      HGA3     0.090000        1.0080           0
     50443 WT17     606      MECN     C2       CG1N1    0.360000       12.0110           0
     50444 WT17     606      MECN     N3       NG1T1   -0.460000       14.0070           0
     50445 WT17     607      MECN     C1       CG331   -0.170000       12.0110           0
     50446 WT17     607      MECN     H11      HGA3     0.090000        1.0080           0
     50447 WT17     607      MECN     H12      HGA3     0.090000        1.0080           0
     50448 WT17     607      MECN     H13      HGA3     0.090000        1.0080           0
     50449 WT17     607      MECN     C2       CG1N1    0.360000       12.0110           0
     50450 WT17     607      MECN     N3       NG1T1   -0.460000       14.0070           0
     50451 WT17     608      MECN     C1       CG331   -0.170000       12.0110           0
     50452 WT17     608      MECN     H11      HGA3     0.090000        1.0080           0
     50453 WT17     608      MECN     H12      HGA3     0.090000        1.0080           0
     50454 WT17     608      MECN     H13      HGA3     0.090000        1.0080           0
     50455 WT17     608      MECN     C2       CG1N1    0.360000       12.0110           0
     50456 WT17     608      MECN     N3       NG1T1   -0.460000       14.0070           0
     50457 WT17     609      MECN     C1       CG331   -0.170000       12.0110           0
     50458 WT17     609      MECN     H11      HGA3     0.090000        1.0080           0
     50459 WT17     609      MECN     H12      HGA3     0.090000        1.0080           0
     50460 WT17     609      MECN     H13      HGA3     0.090000        1.0080           0
     50461 WT17     609      MECN     C2       CG1N1    0.360000       12.0110           0
     50462 WT17     609      MECN     N3       NG1T1   -0.460000       14.0070           0
     50463 WT17     610      MECN     C1       CG331   -0.170000       12.0110           0
     50464 WT17     610      MECN     H11      HGA3     0.090000        1.0080           0
     50465 WT17     610      MECN     H12      HGA3     0.090000        1.0080           0
     50466 WT17     610      MECN     H13      HGA3     0.090000        1.0080           0
     50467 WT17     610      MECN     C2       CG1N1    0.360000       12.0110           0
     50468 WT17     610      MECN     N3       NG1T1   -0.460000       14.0070           0
     50469 WT17     611      MECN     C1       CG331   -0.170000       12.0110           0
     50470 WT17     611      MECN     H11      HGA3     0.090000        1.0080           0
     50471 WT17     611      MECN     H12      HGA3     0.090000        1.0080           0
     50472 WT17     611      MECN     H13      HGA3     0.090000        1.0080           0
     50473 WT17     611      MECN     C2       CG1N1    0.360000       12.0110           0
     50474 WT17     611      MECN     N3       NG1T1   -0.460000       14.0070           0
     50475 WT17     614      MECN     C1       CG331   -0.170000       12.0110           0
     50476 WT17     614      MECN     H11      HGA3     0.090000        1.0080           0
     50477 WT17     614      MECN     H12      HGA3     0.090000        1.0080           0
     50478 WT17     614      MECN     H13      HGA3     0.090000        1.0080           0
     50479 WT17     614      MECN     C2       CG1N1    0.360000       12.0110           0
     50480 WT17     614      MECN     N3       NG1T1   -0.460000       14.0070           0
     50481 WT17     615      MECN     C1       CG331   -0.170000       12.0110           0
     50482 WT17     615      MECN     H11      HGA3     0.090000        1.0080           0
     50483 WT17     615      MECN     H12      HGA3     0.090000        1.0080           0
     50484 WT17     615      MECN     H13      HGA3     0.090000        1.0080           0
     50485 WT17     615      MECN     C2       CG1N1    0.360000       12.0110           0
     50486 WT17     615      MECN     N3       NG1T1   -0.460000       14.0070           0
     50487 WT17     617      MECN     C1       CG331   -0.170000       12.0110           0
     50488 WT17     617      MECN     H11      HGA3     0.090000        1.0080           0
     50489 WT17     617      MECN     H12      HGA3     0.090000        1.0080           0
     50490 WT17     617      MECN     H13      HGA3     0.090000        1.0080           0
     50491 WT17     617      MECN     C2       CG1N1    0.360000       12.0110           0
     50492 WT17     617      MECN     N3       NG1T1   -0.460000       14.0070           0
     50493 WT17     618      MECN     C1       CG331   -0.170000       12.0110           0
     50494 WT17     618      MECN     H11      HGA3     0.090000        1.0080           0
     50495 WT17     618      MECN     H12      HGA3     0.090000        1.0080           0
     50496 WT17     618      MECN     H13      HGA3     0.090000        1.0080           0
     50497 WT17     618      MECN     C2       CG1N1    0.360000       12.0110           0
     50498 WT17     618      MECN     N3       NG1T1   -0.460000       14.0070           0
     50499 WT17     619      MECN     C1       CG331   -0.170000       12.0110           0
     50500 WT17     619      MECN     H11      HGA3     0.090000        1.0080           0
     50501 WT17     619      MECN     H12      HGA3     0.090000        1.0080           0
     50502 WT17     619      MECN     H13      HGA3     0.090000        1.0080           0
     50503 WT17     619      MECN     C2       CG1N1    0.360000       12.0110           0
     50504 WT17     619      MECN     N3       NG1T1   -0.460000       14.0070           0
     50505 WT17     621      MECN     C1       CG331   -0.170000       12.0110           0
     50506 WT17     621      MECN     H11      HGA3     0.090000        1.0080           0
     50507 WT17     621      MECN     H12      HGA3     0.090000        1.0080           0
     50508 WT17     621      MECN     H13      HGA3     0.090000        1.0080           0
     50509 WT17     621      MECN     C2       CG1N1    0.360000       12.0110           0
     50510 WT17     621      MECN     N3       NG1T1   -0.460000       14.0070           0
     50511 WT17     622      MECN     C1       CG331   -0.170000       12.0110           0
     50512 WT17     622      MECN     H11      HGA3     0.090000        1.0080           0
     50513 WT17     622      MECN     H12      HGA3     0.090000        1.0080           0
     50514 WT17     622      MECN     H13      HGA3     0.090000        1.0080           0
     50515 WT17     622      MECN     C2       CG1N1    0.360000       12.0110           0
     50516 WT17     622      MECN     N3       NG1T1   -0.460000       14.0070           0
     50517 WT17     624      MECN     C1       CG331   -0.170000       12.0110           0
     50518 WT17     624      MECN     H11      HGA3     0.090000        1.0080           0
     50519 WT17     624      MECN     H12      HGA3     0.090000        1.0080           0
     50520 WT17     624      MECN     H13      HGA3     0.090000        1.0080           0
     50521 WT17     624      MECN     C2       CG1N1    0.360000       12.0110           0
     50522 WT17     624      MECN     N3       NG1T1   -0.460000       14.0070           0
     50523 WT17     625      MECN     C1       CG331   -0.170000       12.0110           0
     50524 WT17     625      MECN     H11      HGA3     0.090000        1.0080           0
     50525 WT17     625      MECN     H12      HGA3     0.090000        1.0080           0
     50526 WT17     625      MECN     H13      HGA3     0.090000        1.0080           0
     50527 WT17     625      MECN     C2       CG1N1    0.360000       12.0110           0
     50528 WT17     625      MECN     N3       NG1T1   -0.460000       14.0070           0
     50529 WT17     626      MECN     C1       CG331   -0.170000       12.0110           0
     50530 WT17     626      MECN     H11      HGA3     0.090000        1.0080           0
     50531 WT17     626      MECN     H12      HGA3     0.090000        1.0080           0
     50532 WT17     626      MECN     H13      HGA3     0.090000        1.0080           0
     50533 WT17     626      MECN     C2       CG1N1    0.360000       12.0110           0
     50534 WT17     626      MECN     N3       NG1T1   -0.460000       14.0070           0
     50535 WT17     627      MECN     C1       CG331   -0.170000       12.0110           0
     50536 WT17     627      MECN     H11      HGA3     0.090000        1.0080           0
     50537 WT17     627      MECN     H12      HGA3     0.090000        1.0080           0
     50538 WT17     627      MECN     H13      HGA3     0.090000        1.0080           0
     50539 WT17     627      MECN     C2       CG1N1    0.360000       12.0110           0
     50540 WT17     627      MECN     N3       NG1T1   -0.460000       14.0070           0
     50541 WT17     628      MECN     C1       CG331   -0.170000       12.0110           0
     50542 WT17     628      MECN     H11      HGA3     0.090000        1.0080           0
     50543 WT17     628      MECN     H12      HGA3     0.090000        1.0080           0
     50544 WT17     628      MECN     H13      HGA3     0.090000        1.0080           0
     50545 WT17     628      MECN     C2       CG1N1    0.360000       12.0110           0
     50546 WT17     628      MECN     N3       NG1T1   -0.460000       14.0070           0
     50547 WT17     629      MECN     C1       CG331   -0.170000       12.0110           0
     50548 WT17     629      MECN     H11      HGA3     0.090000        1.0080           0
     50549 WT17     629      MECN     H12      HGA3     0.090000        1.0080           0
     50550 WT17     629      MECN     H13      HGA3     0.090000        1.0080           0
     50551 WT17     629      MECN     C2       CG1N1    0.360000       12.0110           0
     50552 WT17     629      MECN     N3       NG1T1   -0.460000       14.0070           0
     50553 WT17     630      MECN     C1       CG331   -0.170000       12.0110           0
     50554 WT17     630      MECN     H11      HGA3     0.090000        1.0080           0
     50555 WT17     630      MECN     H12      HGA3     0.090000        1.0080           0
     50556 WT17     630      MECN     H13      HGA3     0.090000        1.0080           0
     50557 WT17     630      MECN     C2       CG1N1    0.360000       12.0110           0
     50558 WT17     630      MECN     N3       NG1T1   -0.460000       14.0070           0
     50559 WT17     631      MECN     C1       CG331   -0.170000       12.0110           0
     50560 WT17     631      MECN     H11      HGA3     0.090000        1.0080           0
     50561 WT17     631      MECN     H12      HGA3     0.090000        1.0080           0
     50562 WT17     631      MECN     H13      HGA3     0.090000        1.0080           0
     50563 WT17     631      MECN     C2       CG1N1    0.360000       12.0110           0
     50564 WT17     631      MECN     N3       NG1T1   -0.460000       14.0070           0
     50565 WT17     633      MECN     C1       CG331   -0.170000       12.0110           0
     50566 WT17     633      MECN     H11      HGA3     0.090000        1.0080           0
     50567 WT17     633      MECN     H12      HGA3     0.090000        1.0080           0
     50568 WT17     633      MECN     H13      HGA3     0.090000        1.0080           0
     50569 WT17     633      MECN     C2       CG1N1    0.360000       12.0110           0
     50570 WT17     633      MECN     N3       NG1T1   -0.460000       14.0070           0
     50571 WT17     635      MECN     C1       CG331   -0.170000       12.0110           0
     50572 WT17     635      MECN     H11      HGA3     0.090000        1.0080           0
     50573 WT17     635      MECN     H12      HGA3     0.090000        1.0080           0
     50574 WT17     635      MECN     H13      HGA3     0.090000        1.0080           0
     50575 WT17     635      MECN     C2       CG1N1    0.360000       12.0110           0
     50576 WT17     635      MECN     N3       NG1T1   -0.460000       14.0070           0
     50577 WT17     638      MECN     C1       CG331   -0.170000       12.0110           0
     50578 WT17     638      MECN     H11      HGA3     0.090000        1.0080           0
     50579 WT17     638      MECN     H12      HGA3     0.090000        1.0080           0
     50580 WT17     638      MECN     H13      HGA3     0.090000        1.0080           0
     50581 WT17     638      MECN     C2       CG1N1    0.360000       12.0110           0
     50582 WT17     638      MECN     N3       NG1T1   -0.460000       14.0070           0
     50583 WT17     640      MECN     C1       CG331   -0.170000       12.0110           0
     50584 WT17     640      MECN     H11      HGA3     0.090000        1.0080           0
     50585 WT17     640      MECN     H12      HGA3     0.090000        1.0080           0
     50586 WT17     640      MECN     H13      HGA3     0.090000        1.0080           0
     50587 WT17     640      MECN     C2       CG1N1    0.360000       12.0110           0
     50588 WT17     640      MECN     N3       NG1T1   -0.460000       14.0070           0
     50589 WT17     641      MECN     C1       CG331   -0.170000       12.0110           0
     50590 WT17     641      MECN     H11      HGA3     0.090000        1.0080           0
     50591 WT17     641      MECN     H12      HGA3     0.090000        1.0080           0
     50592 WT17     641      MECN     H13      HGA3     0.090000        1.0080           0
     50593 WT17     641      MECN     C2       CG1N1    0.360000       12.0110           0
     50594 WT17     641      MECN     N3       NG1T1   -0.460000       14.0070           0
     50595 WT17     643      MECN     C1       CG331   -0.170000       12.0110           0
     50596 WT17     643      MECN     H11      HGA3     0.090000        1.0080           0
     50597 WT17     643      MECN     H12      HGA3     0.090000        1.0080           0
     50598 WT17     643      MECN     H13      HGA3     0.090000        1.0080           0
     50599 WT17     643      MECN     C2       CG1N1    0.360000       12.0110           0
     50600 WT17     643      MECN     N3       NG1T1   -0.460000       14.0070           0
     50601 WT17     644      MECN     C1       CG331   -0.170000       12.0110           0
     50602 WT17     644      MECN     H11      HGA3     0.090000        1.0080           0
     50603 WT17     644      MECN     H12      HGA3     0.090000        1.0080           0
     50604 WT17     644      MECN     H13      HGA3     0.090000        1.0080           0
     50605 WT17     644      MECN     C2       CG1N1    0.360000       12.0110           0
     50606 WT17     644      MECN     N3       NG1T1   -0.460000       14.0070           0
     50607 WT17     645      MECN     C1       CG331   -0.170000       12.0110           0
     50608 WT17     645      MECN     H11      HGA3     0.090000        1.0080           0
     50609 WT17     645      MECN     H12      HGA3     0.090000        1.0080           0
     50610 WT17     645      MECN     H13      HGA3     0.090000        1.0080           0
     50611 WT17     645      MECN     C2       CG1N1    0.360000       12.0110           0
     50612 WT17     645      MECN     N3       NG1T1   -0.460000       14.0070           0
     50613 WT17     646      MECN     C1       CG331   -0.170000       12.0110           0
     50614 WT17     646      MECN     H11      HGA3     0.090000        1.0080           0
     50615 WT17     646      MECN     H12      HGA3     0.090000        1.0080           0
     50616 WT17     646      MECN     H13      HGA3     0.090000        1.0080           0
     50617 WT17     646      MECN     C2       CG1N1    0.360000       12.0110           0
     50618 WT17     646      MECN     N3       NG1T1   -0.460000       14.0070           0
     50619 WT17     648      MECN     C1       CG331   -0.170000       12.0110           0
     50620 WT17     648      MECN     H11      HGA3     0.090000        1.0080           0
     50621 WT17     648      MECN     H12      HGA3     0.090000        1.0080           0
     50622 WT17     648      MECN     H13      HGA3     0.090000        1.0080           0
     50623 WT17     648      MECN     C2       CG1N1    0.360000       12.0110           0
     50624 WT17     648      MECN     N3       NG1T1   -0.460000       14.0070           0
     50625 WT17     649      MECN     C1       CG331   -0.170000       12.0110           0
     50626 WT17     649      MECN     H11      HGA3     0.090000        1.0080           0
     50627 WT17     649      MECN     H12      HGA3     0.090000        1.0080           0
     50628 WT17     649      MECN     H13      HGA3     0.090000        1.0080           0
     50629 WT17     649      MECN     C2       CG1N1    0.360000       12.0110           0
     50630 WT17     649      MECN     N3       NG1T1   -0.460000       14.0070           0
     50631 WT17     653      MECN     C1       CG331   -0.170000       12.0110           0
     50632 WT17     653      MECN     H11      HGA3     0.090000        1.0080           0
     50633 WT17     653      MECN     H12      HGA3     0.090000        1.0080           0
     50634 WT17     653      MECN     H13      HGA3     0.090000        1.0080           0
     50635 WT17     653      MECN     C2       CG1N1    0.360000       12.0110           0
     50636 WT17     653      MECN     N3       NG1T1   -0.460000       14.0070           0
     50637 WT17     654      MECN     C1       CG331   -0.170000       12.0110           0
     50638 WT17     654      MECN     H11      HGA3     0.090000        1.0080           0
     50639 WT17     654      MECN     H12      HGA3     0.090000        1.0080           0
     50640 WT17     654      MECN     H13      HGA3     0.090000        1.0080           0
     50641 WT17     654      MECN     C2       CG1N1    0.360000       12.0110           0
     50642 WT17     654      MECN     N3       NG1T1   -0.460000       14.0070           0
     50643 WT17     655      MECN     C1       CG331   -0.170000       12.0110           0
     50644 WT17     655      MECN     H11      HGA3     0.090000        1.0080           0
     50645 WT17     655      MECN     H12      HGA3     0.090000        1.0080           0
     50646 WT17     655      MECN     H13      HGA3     0.090000        1.0080           0
     50647 WT17     655      MECN     C2       CG1N1    0.360000       12.0110           0
     50648 WT17     655      MECN     N3       NG1T1   -0.460000       14.0070           0
     50649 WT17     656      MECN     C1       CG331   -0.170000       12.0110           0
     50650 WT17     656      MECN     H11      HGA3     0.090000        1.0080           0
     50651 WT17     656      MECN     H12      HGA3     0.090000        1.0080           0
     50652 WT17     656      MECN     H13      HGA3     0.090000        1.0080           0
     50653 WT17     656      MECN     C2       CG1N1    0.360000       12.0110           0
     50654 WT17     656      MECN     N3       NG1T1   -0.460000       14.0070           0
     50655 WT17     660      MECN     C1       CG331   -0.170000       12.0110           0
     50656 WT17     660      MECN     H11      HGA3     0.090000        1.0080           0
     50657 WT17     660      MECN     H12      HGA3     0.090000        1.0080           0
     50658 WT17     660      MECN     H13      HGA3     0.090000        1.0080           0
     50659 WT17     660      MECN     C2       CG1N1    0.360000       12.0110           0
     50660 WT17     660      MECN     N3       NG1T1   -0.460000       14.0070           0
     50661 WT17     662      MECN     C1       CG331   -0.170000       12.0110           0
     50662 WT17     662      MECN     H11      HGA3     0.090000        1.0080           0
     50663 WT17     662      MECN     H12      HGA3     0.090000        1.0080           0
     50664 WT17     662      MECN     H13      HGA3     0.090000        1.0080           0
     50665 WT17     662      MECN     C2       CG1N1    0.360000       12.0110           0
     50666 WT17     662      MECN     N3       NG1T1   -0.460000       14.0070           0
     50667 WT17     664      MECN     C1       CG331   -0.170000       12.0110           0
     50668 WT17     664      MECN     H11      HGA3     0.090000        1.0080           0
     50669 WT17     664      MECN     H12      HGA3     0.090000        1.0080           0
     50670 WT17     664      MECN     H13      HGA3     0.090000        1.0080           0
     50671 WT17     664      MECN     C2       CG1N1    0.360000       12.0110           0
     50672 WT17     664      MECN     N3       NG1T1   -0.460000       14.0070           0
     50673 WT17     665      MECN     C1       CG331   -0.170000       12.0110           0
     50674 WT17     665      MECN     H11      HGA3     0.090000        1.0080           0
     50675 WT17     665      MECN     H12      HGA3     0.090000        1.0080           0
     50676 WT17     665      MECN     H13      HGA3     0.090000        1.0080           0
     50677 WT17     665      MECN     C2       CG1N1    0.360000       12.0110           0
     50678 WT17     665      MECN     N3       NG1T1   -0.460000       14.0070           0
     50679 WT17     666      MECN     C1       CG331   -0.170000       12.0110           0
     50680 WT17     666      MECN     H11      HGA3     0.090000        1.0080           0
     50681 WT17     666      MECN     H12      HGA3     0.090000        1.0080           0
     50682 WT17     666      MECN     H13      HGA3     0.090000        1.0080           0
     50683 WT17     666      MECN     C2       CG1N1    0.360000       12.0110           0
     50684 WT17     666      MECN     N3       NG1T1   -0.460000       14.0070           0
     50685 WT17     667      MECN     C1       CG331   -0.170000       12.0110           0
     50686 WT17     667      MECN     H11      HGA3     0.090000        1.0080           0
     50687 WT17     667      MECN     H12      HGA3     0.090000        1.0080           0
     50688 WT17     667      MECN     H13      HGA3     0.090000        1.0080           0
     50689 WT17     667      MECN     C2       CG1N1    0.360000       12.0110           0
     50690 WT17     667      MECN     N3       NG1T1   -0.460000       14.0070           0
     50691 WT17     668      MECN     C1       CG331   -0.170000       12.0110           0
     50692 WT17     668      MECN     H11      HGA3     0.090000        1.0080           0
     50693 WT17     668      MECN     H12      HGA3     0.090000        1.0080           0
     50694 WT17     668      MECN     H13      HGA3     0.090000        1.0080           0
     50695 WT17     668      MECN     C2       CG1N1    0.360000       12.0110           0
     50696 WT17     668      MECN     N3       NG1T1   -0.460000       14.0070           0
     50697 WT17     669      MECN     C1       CG331   -0.170000       12.0110           0
     50698 WT17     669      MECN     H11      HGA3     0.090000        1.0080           0
     50699 WT17     669      MECN     H12      HGA3     0.090000        1.0080           0
     50700 WT17     669      MECN     H13      HGA3     0.090000        1.0080           0
     50701 WT17     669      MECN     C2       CG1N1    0.360000       12.0110           0
     50702 WT17     669      MECN     N3       NG1T1   -0.460000       14.0070           0
     50703 WT17     671      MECN     C1       CG331   -0.170000       12.0110           0
     50704 WT17     671      MECN     H11      HGA3     0.090000        1.0080           0
     50705 WT17     671      MECN     H12      HGA3     0.090000        1.0080           0
     50706 WT17     671      MECN     H13      HGA3     0.090000        1.0080           0
     50707 WT17     671      MECN     C2       CG1N1    0.360000       12.0110           0
     50708 WT17     671      MECN     N3       NG1T1   -0.460000       14.0070           0
     50709 WT17     672      MECN     C1       CG331   -0.170000       12.0110           0
     50710 WT17     672      MECN     H11      HGA3     0.090000        1.0080           0
     50711 WT17     672      MECN     H12      HGA3     0.090000        1.0080           0
     50712 WT17     672      MECN     H13      HGA3     0.090000        1.0080           0
     50713 WT17     672      MECN     C2       CG1N1    0.360000       12.0110           0
     50714 WT17     672      MECN     N3       NG1T1   -0.460000       14.0070           0
     50715 WT17     675      MECN     C1       CG331   -0.170000       12.0110           0
     50716 WT17     675      MECN     H11      HGA3     0.090000        1.0080           0
     50717 WT17     675      MECN     H12      HGA3     0.090000        1.0080           0
     50718 WT17     675      MECN     H13      HGA3     0.090000        1.0080           0
     50719 WT17     675      MECN     C2       CG1N1    0.360000       12.0110           0
     50720 WT17     675      MECN     N3       NG1T1   -0.460000       14.0070           0
     50721 WT17     676      MECN     C1       CG331   -0.170000       12.0110           0
     50722 WT17     676      MECN     H11      HGA3     0.090000        1.0080           0
     50723 WT17     676      MECN     H12      HGA3     0.090000        1.0080           0
     50724 WT17     676      MECN     H13      HGA3     0.090000        1.0080           0
     50725 WT17     676      MECN     C2       CG1N1    0.360000       12.0110           0
     50726 WT17     676      MECN     N3       NG1T1   -0.460000       14.0070           0
     50727 WT17     677      MECN     C1       CG331   -0.170000       12.0110           0
     50728 WT17     677      MECN     H11      HGA3     0.090000        1.0080           0
     50729 WT17     677      MECN     H12      HGA3     0.090000        1.0080           0
     50730 WT17     677      MECN     H13      HGA3     0.090000        1.0080           0
     50731 WT17     677      MECN     C2       CG1N1    0.360000       12.0110           0
     50732 WT17     677      MECN     N3       NG1T1   -0.460000       14.0070           0
     50733 WT17     678      MECN     C1       CG331   -0.170000       12.0110           0
     50734 WT17     678      MECN     H11      HGA3     0.090000        1.0080           0
     50735 WT17     678      MECN     H12      HGA3     0.090000        1.0080           0
     50736 WT17     678      MECN     H13      HGA3     0.090000        1.0080           0
     50737 WT17     678      MECN     C2       CG1N1    0.360000       12.0110           0
     50738 WT17     678      MECN     N3       NG1T1   -0.460000       14.0070           0
     50739 WT17     681      MECN     C1       CG331   -0.170000       12.0110           0
     50740 WT17     681      MECN     H11      HGA3     0.090000        1.0080           0
     50741 WT17     681      MECN     H12      HGA3     0.090000        1.0080           0
     50742 WT17     681      MECN     H13      HGA3     0.090000        1.0080           0
     50743 WT17     681      MECN     C2       CG1N1    0.360000       12.0110           0
     50744 WT17     681      MECN     N3       NG1T1   -0.460000       14.0070           0
     50745 WT17     683      MECN     C1       CG331   -0.170000       12.0110           0
     50746 WT17     683      MECN     H11      HGA3     0.090000        1.0080           0
     50747 WT17     683      MECN     H12      HGA3     0.090000        1.0080           0
     50748 WT17     683      MECN     H13      HGA3     0.090000        1.0080           0
     50749 WT17     683      MECN     C2       CG1N1    0.360000       12.0110           0
     50750 WT17     683      MECN     N3       NG1T1   -0.460000       14.0070           0
     50751 WT17     685      MECN     C1       CG331   -0.170000       12.0110           0
     50752 WT17     685      MECN     H11      HGA3     0.090000        1.0080           0
     50753 WT17     685      MECN     H12      HGA3     0.090000        1.0080           0
     50754 WT17     685      MECN     H13      HGA3     0.090000        1.0080           0
     50755 WT17     685      MECN     C2       CG1N1    0.360000       12.0110           0
     50756 WT17     685      MECN     N3       NG1T1   -0.460000       14.0070           0
     50757 WT17     686      MECN     C1       CG331   -0.170000       12.0110           0
     50758 WT17     686      MECN     H11      HGA3     0.090000        1.0080           0
     50759 WT17     686      MECN     H12      HGA3     0.090000        1.0080           0
     50760 WT17     686      MECN     H13      HGA3     0.090000        1.0080           0
     50761 WT17     686      MECN     C2       CG1N1    0.360000       12.0110           0
     50762 WT17     686      MECN     N3       NG1T1   -0.460000       14.0070           0
     50763 WT17     687      MECN     C1       CG331   -0.170000       12.0110           0
     50764 WT17     687      MECN     H11      HGA3     0.090000        1.0080           0
     50765 WT17     687      MECN     H12      HGA3     0.090000        1.0080           0
     50766 WT17     687      MECN     H13      HGA3     0.090000        1.0080           0
     50767 WT17     687      MECN     C2       CG1N1    0.360000       12.0110           0
     50768 WT17     687      MECN     N3       NG1T1   -0.460000       14.0070           0
     50769 WT17     689      MECN     C1       CG331   -0.170000       12.0110           0
     50770 WT17     689      MECN     H11      HGA3     0.090000        1.0080           0
     50771 WT17     689      MECN     H12      HGA3     0.090000        1.0080           0
     50772 WT17     689      MECN     H13      HGA3     0.090000        1.0080           0
     50773 WT17     689      MECN     C2       CG1N1    0.360000       12.0110           0
     50774 WT17     689      MECN     N3       NG1T1   -0.460000       14.0070           0
     50775 WT17     690      MECN     C1       CG331   -0.170000       12.0110           0
     50776 WT17     690      MECN     H11      HGA3     0.090000        1.0080           0
     50777 WT17     690      MECN     H12      HGA3     0.090000        1.0080           0
     50778 WT17     690      MECN     H13      HGA3     0.090000        1.0080           0
     50779 WT17     690      MECN     C2       CG1N1    0.360000       12.0110           0
     50780 WT17     690      MECN     N3       NG1T1   -0.460000       14.0070           0
     50781 WT17     691      MECN     C1       CG331   -0.170000       12.0110           0
     50782 WT17     691      MECN     H11      HGA3     0.090000        1.0080           0
     50783 WT17     691      MECN     H12      HGA3     0.090000        1.0080           0
     50784 WT17     691      MECN     H13      HGA3     0.090000        1.0080           0
     50785 WT17     691      MECN     C2       CG1N1    0.360000       12.0110           0
     50786 WT17     691      MECN     N3       NG1T1   -0.460000       14.0070           0
     50787 WT17     693      MECN     C1       CG331   -0.170000       12.0110           0
     50788 WT17     693      MECN     H11      HGA3     0.090000        1.0080           0
     50789 WT17     693      MECN     H12      HGA3     0.090000        1.0080           0
     50790 WT17     693      MECN     H13      HGA3     0.090000        1.0080           0
     50791 WT17     693      MECN     C2       CG1N1    0.360000       12.0110           0
     50792 WT17     693      MECN     N3       NG1T1   -0.460000       14.0070           0
     50793 WT17     695      MECN     C1       CG331   -0.170000       12.0110           0
     50794 WT17     695      MECN     H11      HGA3     0.090000        1.0080           0
     50795 WT17     695      MECN     H12      HGA3     0.090000        1.0080           0
     50796 WT17     695      MECN     H13      HGA3     0.090000        1.0080           0
     50797 WT17     695      MECN     C2       CG1N1    0.360000       12.0110           0
     50798 WT17     695      MECN     N3       NG1T1   -0.460000       14.0070           0
     50799 WT17     696      MECN     C1       CG331   -0.170000       12.0110           0
     50800 WT17     696      MECN     H11      HGA3     0.090000        1.0080           0
     50801 WT17     696      MECN     H12      HGA3     0.090000        1.0080           0
     50802 WT17     696      MECN     H13      HGA3     0.090000        1.0080           0
     50803 WT17     696      MECN     C2       CG1N1    0.360000       12.0110           0
     50804 WT17     696      MECN     N3       NG1T1   -0.460000       14.0070           0
     50805 WT17     697      MECN     C1       CG331   -0.170000       12.0110           0
     50806 WT17     697      MECN     H11      HGA3     0.090000        1.0080           0
     50807 WT17     697      MECN     H12      HGA3     0.090000        1.0080           0
     50808 WT17     697      MECN     H13      HGA3     0.090000        1.0080           0
     50809 WT17     697      MECN     C2       CG1N1    0.360000       12.0110           0
     50810 WT17     697      MECN     N3       NG1T1   -0.460000       14.0070           0
     50811 WT17     698      MECN     C1       CG331   -0.170000       12.0110           0
     50812 WT17     698      MECN     H11      HGA3     0.090000        1.0080           0
     50813 WT17     698      MECN     H12      HGA3     0.090000        1.0080           0
     50814 WT17     698      MECN     H13      HGA3     0.090000        1.0080           0
     50815 WT17     698      MECN     C2       CG1N1    0.360000       12.0110           0
     50816 WT17     698      MECN     N3       NG1T1   -0.460000       14.0070           0
     50817 WT17     701      MECN     C1       CG331   -0.170000       12.0110           0
     50818 WT17     701      MECN     H11      HGA3     0.090000        1.0080           0
     50819 WT17     701      MECN     H12      HGA3     0.090000        1.0080           0
     50820 WT17     701      MECN     H13      HGA3     0.090000        1.0080           0
     50821 WT17     701      MECN     C2       CG1N1    0.360000       12.0110           0
     50822 WT17     701      MECN     N3       NG1T1   -0.460000       14.0070           0
     50823 WT17     702      MECN     C1       CG331   -0.170000       12.0110           0
     50824 WT17     702      MECN     H11      HGA3     0.090000        1.0080           0
     50825 WT17     702      MECN     H12      HGA3     0.090000        1.0080           0
     50826 WT17     702      MECN     H13      HGA3     0.090000        1.0080           0
     50827 WT17     702      MECN     C2       CG1N1    0.360000       12.0110           0
     50828 WT17     702      MECN     N3       NG1T1   -0.460000       14.0070           0
     50829 WT17     703      MECN     C1       CG331   -0.170000       12.0110           0
     50830 WT17     703      MECN     H11      HGA3     0.090000        1.0080           0
     50831 WT17     703      MECN     H12      HGA3     0.090000        1.0080           0
     50832 WT17     703      MECN     H13      HGA3     0.090000        1.0080           0
     50833 WT17     703      MECN     C2       CG1N1    0.360000       12.0110           0
     50834 WT17     703      MECN     N3       NG1T1   -0.460000       14.0070           0
     50835 WT17     705      MECN     C1       CG331   -0.170000       12.0110           0
     50836 WT17     705      MECN     H11      HGA3     0.090000        1.0080           0
     50837 WT17     705      MECN     H12      HGA3     0.090000        1.0080           0
     50838 WT17     705      MECN     H13      HGA3     0.090000        1.0080           0
     50839 WT17     705      MECN     C2       CG1N1    0.360000       12.0110           0
     50840 WT17     705      MECN     N3       NG1T1   -0.460000       14.0070           0
     50841 WT17     711      MECN     C1       CG331   -0.170000       12.0110           0
     50842 WT17     711      MECN     H11      HGA3     0.090000        1.0080           0
     50843 WT17     711      MECN     H12      HGA3     0.090000        1.0080           0
     50844 WT17     711      MECN     H13      HGA3     0.090000        1.0080           0
     50845 WT17     711      MECN     C2       CG1N1    0.360000       12.0110           0
     50846 WT17     711      MECN     N3       NG1T1   -0.460000       14.0070           0
     50847 WT17     713      MECN     C1       CG331   -0.170000       12.0110           0
     50848 WT17     713      MECN     H11      HGA3     0.090000        1.0080           0
     50849 WT17     713      MECN     H12      HGA3     0.090000        1.0080           0
     50850 WT17     713      MECN     H13      HGA3     0.090000        1.0080           0
     50851 WT17     713      MECN     C2       CG1N1    0.360000       12.0110           0
     50852 WT17     713      MECN     N3       NG1T1   -0.460000       14.0070           0
     50853 WT17     716      MECN     C1       CG331   -0.170000       12.0110           0
     50854 WT17     716      MECN     H11      HGA3     0.090000        1.0080           0
     50855 WT17     716      MECN     H12      HGA3     0.090000        1.0080           0
     50856 WT17     716      MECN     H13      HGA3     0.090000        1.0080           0
     50857 WT17     716      MECN     C2       CG1N1    0.360000       12.0110           0
     50858 WT17     716      MECN     N3       NG1T1   -0.460000       14.0070           0
     50859 WT17     718      MECN     C1       CG331   -0.170000       12.0110           0
     50860 WT17     718      MECN     H11      HGA3     0.090000        1.0080           0
     50861 WT17     718      MECN     H12      HGA3     0.090000        1.0080           0
     50862 WT17     718      MECN     H13      HGA3     0.090000        1.0080           0
     50863 WT17     718      MECN     C2       CG1N1    0.360000       12.0110           0
     50864 WT17     718      MECN     N3       NG1T1   -0.460000       14.0070           0
     50865 WT17     719      MECN     C1       CG331   -0.170000       12.0110           0
     50866 WT17     719      MECN     H11      HGA3     0.090000        1.0080           0
     50867 WT17     719      MECN     H12      HGA3     0.090000        1.0080           0
     50868 WT17     719      MECN     H13      HGA3     0.090000        1.0080           0
     50869 WT17     719      MECN     C2       CG1N1    0.360000       12.0110           0
     50870 WT17     719      MECN     N3       NG1T1   -0.460000       14.0070           0
     50871 WT17     720      MECN     C1       CG331   -0.170000       12.0110           0
     50872 WT17     720      MECN     H11      HGA3     0.090000        1.0080           0
     50873 WT17     720      MECN     H12      HGA3     0.090000        1.0080           0
     50874 WT17     720      MECN     H13      HGA3     0.090000        1.0080           0
     50875 WT17     720      MECN     C2       CG1N1    0.360000       12.0110           0
     50876 WT17     720      MECN     N3       NG1T1   -0.460000       14.0070           0
     50877 WT17     721      MECN     C1       CG331   -0.170000       12.0110           0
     50878 WT17     721      MECN     H11      HGA3     0.090000        1.0080           0
     50879 WT17     721      MECN     H12      HGA3     0.090000        1.0080           0
     50880 WT17     721      MECN     H13      HGA3     0.090000        1.0080           0
     50881 WT17     721      MECN     C2       CG1N1    0.360000       12.0110           0
     50882 WT17     721      MECN     N3       NG1T1   -0.460000       14.0070           0
     50883 WT17     723      MECN     C1       CG331   -0.170000       12.0110           0
     50884 WT17     723      MECN     H11      HGA3     0.090000        1.0080           0
     50885 WT17     723      MECN     H12      HGA3     0.090000        1.0080           0
     50886 WT17     723      MECN     H13      HGA3     0.090000        1.0080           0
     50887 WT17     723      MECN     C2       CG1N1    0.360000       12.0110           0
     50888 WT17     723      MECN     N3       NG1T1   -0.460000       14.0070           0
     50889 WT17     724      MECN     C1       CG331   -0.170000       12.0110           0
     50890 WT17     724      MECN     H11      HGA3     0.090000        1.0080           0
     50891 WT17     724      MECN     H12      HGA3     0.090000        1.0080           0
     50892 WT17     724      MECN     H13      HGA3     0.090000        1.0080           0
     50893 WT17     724      MECN     C2       CG1N1    0.360000       12.0110           0
     50894 WT17     724      MECN     N3       NG1T1   -0.460000       14.0070           0
     50895 WT17     725      MECN     C1       CG331   -0.170000       12.0110           0
     50896 WT17     725      MECN     H11      HGA3     0.090000        1.0080           0
     50897 WT17     725      MECN     H12      HGA3     0.090000        1.0080           0
     50898 WT17     725      MECN     H13      HGA3     0.090000        1.0080           0
     50899 WT17     725      MECN     C2       CG1N1    0.360000       12.0110           0
     50900 WT17     725      MECN     N3       NG1T1   -0.460000       14.0070           0
     50901 WT17     727      MECN     C1       CG331   -0.170000       12.0110           0
     50902 WT17     727      MECN     H11      HGA3     0.090000        1.0080           0
     50903 WT17     727      MECN     H12      HGA3     0.090000        1.0080           0
     50904 WT17     727      MECN     H13      HGA3     0.090000        1.0080           0
     50905 WT17     727      MECN     C2       CG1N1    0.360000       12.0110           0
     50906 WT17     727      MECN     N3       NG1T1   -0.460000       14.0070           0
     50907 WT17     730      MECN     C1       CG331   -0.170000       12.0110           0
     50908 WT17     730      MECN     H11      HGA3     0.090000        1.0080           0
     50909 WT17     730      MECN     H12      HGA3     0.090000        1.0080           0
     50910 WT17     730      MECN     H13      HGA3     0.090000        1.0080           0
     50911 WT17     730      MECN     C2       CG1N1    0.360000       12.0110           0
     50912 WT17     730      MECN     N3       NG1T1   -0.460000       14.0070           0
     50913 WT17     732      MECN     C1       CG331   -0.170000       12.0110           0
     50914 WT17     732      MECN     H11      HGA3     0.090000        1.0080           0
     50915 WT17     732      MECN     H12      HGA3     0.090000        1.0080           0
     50916 WT17     732      MECN     H13      HGA3     0.090000        1.0080           0
     50917 WT17     732      MECN     C2       CG1N1    0.360000       12.0110           0
     50918 WT17     732      MECN     N3       NG1T1   -0.460000       14.0070           0
     50919 WT17     733      MECN     C1       CG331   -0.170000       12.0110           0
     50920 WT17     733      MECN     H11      HGA3     0.090000        1.0080           0
     50921 WT17     733      MECN     H12      HGA3     0.090000        1.0080           0
     50922 WT17     733      MECN     H13      HGA3     0.090000        1.0080           0
     50923 WT17     733      MECN     C2       CG1N1    0.360000       12.0110           0
     50924 WT17     733      MECN     N3       NG1T1   -0.460000       14.0070           0
     50925 WT17     734      MECN     C1       CG331   -0.170000       12.0110           0
     50926 WT17     734      MECN     H11      HGA3     0.090000        1.0080           0
     50927 WT17     734      MECN     H12      HGA3     0.090000        1.0080           0
     50928 WT17     734      MECN     H13      HGA3     0.090000        1.0080           0
     50929 WT17     734      MECN     C2       CG1N1    0.360000       12.0110           0
     50930 WT17     734      MECN     N3       NG1T1   -0.460000       14.0070           0
     50931 WT17     735      MECN     C1       CG331   -0.170000       12.0110           0
     50932 WT17     735      MECN     H11      HGA3     0.090000        1.0080           0
     50933 WT17     735      MECN     H12      HGA3     0.090000        1.0080           0
     50934 WT17     735      MECN     H13      HGA3     0.090000        1.0080           0
     50935 WT17     735      MECN     C2       CG1N1    0.360000       12.0110           0
     50936 WT17     735      MECN     N3       NG1T1   -0.460000       14.0070           0
     50937 WT17     736      MECN     C1       CG331   -0.170000       12.0110           0
     50938 WT17     736      MECN     H11      HGA3     0.090000        1.0080           0
     50939 WT17     736      MECN     H12      HGA3     0.090000        1.0080           0
     50940 WT17     736      MECN     H13      HGA3     0.090000        1.0080           0
     50941 WT17     736      MECN     C2       CG1N1    0.360000       12.0110           0
     50942 WT17     736      MECN     N3       NG1T1   -0.460000       14.0070           0
     50943 WT17     738      MECN     C1       CG331   -0.170000       12.0110           0
     50944 WT17     738      MECN     H11      HGA3     0.090000        1.0080           0
     50945 WT17     738      MECN     H12      HGA3     0.090000        1.0080           0
     50946 WT17     738      MECN     H13      HGA3     0.090000        1.0080           0
     50947 WT17     738      MECN     C2       CG1N1    0.360000       12.0110           0
     50948 WT17     738      MECN     N3       NG1T1   -0.460000       14.0070           0
     50949 WT17     739      MECN     C1       CG331   -0.170000       12.0110           0
     50950 WT17     739      MECN     H11      HGA3     0.090000        1.0080           0
     50951 WT17     739      MECN     H12      HGA3     0.090000        1.0080           0
     50952 WT17     739      MECN     H13      HGA3     0.090000        1.0080           0
     50953 WT17     739      MECN     C2       CG1N1    0.360000       12.0110           0
     50954 WT17     739      MECN     N3       NG1T1   -0.460000       14.0070           0
     50955 WT17     740      MECN     C1       CG331   -0.170000       12.0110           0
     50956 WT17     740      MECN     H11      HGA3     0.090000        1.0080           0
     50957 WT17     740      MECN     H12      HGA3     0.090000        1.0080           0
     50958 WT17     740      MECN     H13      HGA3     0.090000        1.0080           0
     50959 WT17     740      MECN     C2       CG1N1    0.360000       12.0110           0
     50960 WT17     740      MECN     N3       NG1T1   -0.460000       14.0070           0
     50961 WT17     742      MECN     C1       CG331   -0.170000       12.0110           0
     50962 WT17     742      MECN     H11      HGA3     0.090000        1.0080           0
     50963 WT17     742      MECN     H12      HGA3     0.090000        1.0080           0
     50964 WT17     742      MECN     H13      HGA3     0.090000        1.0080           0
     50965 WT17     742      MECN     C2       CG1N1    0.360000       12.0110           0
     50966 WT17     742      MECN     N3       NG1T1   -0.460000       14.0070           0
     50967 WT17     745      MECN     C1       CG331   -0.170000       12.0110           0
     50968 WT17     745      MECN     H11      HGA3     0.090000        1.0080           0
     50969 WT17     745      MECN     H12      HGA3     0.090000        1.0080           0
     50970 WT17     745      MECN     H13      HGA3     0.090000        1.0080           0
     50971 WT17     745      MECN     C2       CG1N1    0.360000       12.0110           0
     50972 WT17     745      MECN     N3       NG1T1   -0.460000       14.0070           0
     50973 WT17     746      MECN     C1       CG331   -0.170000       12.0110           0
     50974 WT17     746      MECN     H11      HGA3     0.090000        1.0080           0
     50975 WT17     746      MECN     H12      HGA3     0.090000        1.0080           0
     50976 WT17     746      MECN     H13      HGA3     0.090000        1.0080           0
     50977 WT17     746      MECN     C2       CG1N1    0.360000       12.0110           0
     50978 WT17     746      MECN     N3       NG1T1   -0.460000       14.0070           0
     50979 WT17     748      MECN     C1       CG331   -0.170000       12.0110           0
     50980 WT17     748      MECN     H11      HGA3     0.090000        1.0080           0
     50981 WT17     748      MECN     H12      HGA3     0.090000        1.0080           0
     50982 WT17     748      MECN     H13      HGA3     0.090000        1.0080           0
     50983 WT17     748      MECN     C2       CG1N1    0.360000       12.0110           0
     50984 WT17     748      MECN     N3       NG1T1   -0.460000       14.0070           0
     50985 WT17     750      MECN     C1       CG331   -0.170000       12.0110           0
     50986 WT17     750      MECN     H11      HGA3     0.090000        1.0080           0
     50987 WT17     750      MECN     H12      HGA3     0.090000        1.0080           0
     50988 WT17     750      MECN     H13      HGA3     0.090000        1.0080           0
     50989 WT17     750      MECN     C2       CG1N1    0.360000       12.0110           0
     50990 WT17     750      MECN     N3       NG1T1   -0.460000       14.0070           0
     50991 WT17     751      MECN     C1       CG331   -0.170000       12.0110           0
     50992 WT17     751      MECN     H11      HGA3     0.090000        1.0080           0
     50993 WT17     751      MECN     H12      HGA3     0.090000        1.0080           0
     50994 WT17     751      MECN     H13      HGA3     0.090000        1.0080           0
     50995 WT17     751      MECN     C2       CG1N1    0.360000       12.0110           0
     50996 WT17     751      MECN     N3       NG1T1   -0.460000       14.0070           0
     50997 WT17     752      MECN     C1       CG331   -0.170000       12.0110           0
     50998 WT17     752      MECN     H11      HGA3     0.090000        1.0080           0
     50999 WT17     752      MECN     H12      HGA3     0.090000        1.0080           0
     51000 WT17     752      MECN     H13      HGA3     0.090000        1.0080           0
     51001 WT17     752      MECN     C2       CG1N1    0.360000       12.0110           0
     51002 WT17     752      MECN     N3       NG1T1   -0.460000       14.0070           0
     51003 WT17     753      MECN     C1       CG331   -0.170000       12.0110           0
     51004 WT17     753      MECN     H11      HGA3     0.090000        1.0080           0
     51005 WT17     753      MECN     H12      HGA3     0.090000        1.0080           0
     51006 WT17     753      MECN     H13      HGA3     0.090000        1.0080           0
     51007 WT17     753      MECN     C2       CG1N1    0.360000       12.0110           0
     51008 WT17     753      MECN     N3       NG1T1   -0.460000       14.0070           0
     51009 WT17     758      MECN     C1       CG331   -0.170000       12.0110           0
     51010 WT17     758      MECN     H11      HGA3     0.090000        1.0080           0
     51011 WT17     758      MECN     H12      HGA3     0.090000        1.0080           0
     51012 WT17     758      MECN     H13      HGA3     0.090000        1.0080           0
     51013 WT17     758      MECN     C2       CG1N1    0.360000       12.0110           0
     51014 WT17     758      MECN     N3       NG1T1   -0.460000       14.0070           0
     51015 WT17     759      MECN     C1       CG331   -0.170000       12.0110           0
     51016 WT17     759      MECN     H11      HGA3     0.090000        1.0080           0
     51017 WT17     759      MECN     H12      HGA3     0.090000        1.0080           0
     51018 WT17     759      MECN     H13      HGA3     0.090000        1.0080           0
     51019 WT17     759      MECN     C2       CG1N1    0.360000       12.0110           0
     51020 WT17     759      MECN     N3       NG1T1   -0.460000       14.0070           0
     51021 WT17     764      MECN     C1       CG331   -0.170000       12.0110           0
     51022 WT17     764      MECN     H11      HGA3     0.090000        1.0080           0
     51023 WT17     764      MECN     H12      HGA3     0.090000        1.0080           0
     51024 WT17     764      MECN     H13      HGA3     0.090000        1.0080           0
     51025 WT17     764      MECN     C2       CG1N1    0.360000       12.0110           0
     51026 WT17     764      MECN     N3       NG1T1   -0.460000       14.0070           0
     51027 WT17     767      MECN     C1       CG331   -0.170000       12.0110           0
     51028 WT17     767      MECN     H11      HGA3     0.090000        1.0080           0
     51029 WT17     767      MECN     H12      HGA3     0.090000        1.0080           0
     51030 WT17     767      MECN     H13      HGA3     0.090000        1.0080           0
     51031 WT17     767      MECN     C2       CG1N1    0.360000       12.0110           0
     51032 WT17     767      MECN     N3       NG1T1   -0.460000       14.0070           0
     51033 WT17     768      MECN     C1       CG331   -0.170000       12.0110           0
     51034 WT17     768      MECN     H11      HGA3     0.090000        1.0080           0
     51035 WT17     768      MECN     H12      HGA3     0.090000        1.0080           0
     51036 WT17     768      MECN     H13      HGA3     0.090000        1.0080           0
     51037 WT17     768      MECN     C2       CG1N1    0.360000       12.0110           0
     51038 WT17     768      MECN     N3       NG1T1   -0.460000       14.0070           0
     51039 WT17     769      MECN     C1       CG331   -0.170000       12.0110           0
     51040 WT17     769      MECN     H11      HGA3     0.090000        1.0080           0
     51041 WT17     769      MECN     H12      HGA3     0.090000        1.0080           0
     51042 WT17     769      MECN     H13      HGA3     0.090000        1.0080           0
     51043 WT17     769      MECN     C2       CG1N1    0.360000       12.0110           0
     51044 WT17     769      MECN     N3       NG1T1   -0.460000       14.0070           0
     51045 WT17     771      MECN     C1       CG331   -0.170000       12.0110           0
     51046 WT17     771      MECN     H11      HGA3     0.090000        1.0080           0
     51047 WT17     771      MECN     H12      HGA3     0.090000        1.0080           0
     51048 WT17     771      MECN     H13      HGA3     0.090000        1.0080           0
     51049 WT17     771      MECN     C2       CG1N1    0.360000       12.0110           0
     51050 WT17     771      MECN     N3       NG1T1   -0.460000       14.0070           0
     51051 WT17     772      MECN     C1       CG331   -0.170000       12.0110           0
     51052 WT17     772      MECN     H11      HGA3     0.090000        1.0080           0
     51053 WT17     772      MECN     H12      HGA3     0.090000        1.0080           0
     51054 WT17     772      MECN     H13      HGA3     0.090000        1.0080           0
     51055 WT17     772      MECN     C2       CG1N1    0.360000       12.0110           0
     51056 WT17     772      MECN     N3       NG1T1   -0.460000       14.0070           0
     51057 WT17     774      MECN     C1       CG331   -0.170000       12.0110           0
     51058 WT17     774      MECN     H11      HGA3     0.090000        1.0080           0
     51059 WT17     774      MECN     H12      HGA3     0.090000        1.0080           0
     51060 WT17     774      MECN     H13      HGA3     0.090000        1.0080           0
     51061 WT17     774      MECN     C2       CG1N1    0.360000       12.0110           0
     51062 WT17     774      MECN     N3       NG1T1   -0.460000       14.0070           0
     51063 WT17     776      MECN     C1       CG331   -0.170000       12.0110           0
     51064 WT17     776      MECN     H11      HGA3     0.090000        1.0080           0
     51065 WT17     776      MECN     H12      HGA3     0.090000        1.0080           0
     51066 WT17     776      MECN     H13      HGA3     0.090000        1.0080           0
     51067 WT17     776      MECN     C2       CG1N1    0.360000       12.0110           0
     51068 WT17     776      MECN     N3       NG1T1   -0.460000       14.0070           0
     51069 WT17     779      MECN     C1       CG331   -0.170000       12.0110           0
     51070 WT17     779      MECN     H11      HGA3     0.090000        1.0080           0
     51071 WT17     779      MECN     H12      HGA3     0.090000        1.0080           0
     51072 WT17     779      MECN     H13      HGA3     0.090000        1.0080           0
     51073 WT17     779      MECN     C2       CG1N1    0.360000       12.0110           0
     51074 WT17     779      MECN     N3       NG1T1   -0.460000       14.0070           0
     51075 WT17     784      MECN     C1       CG331   -0.170000       12.0110           0
     51076 WT17     784      MECN     H11      HGA3     0.090000        1.0080           0
     51077 WT17     784      MECN     H12      HGA3     0.090000        1.0080           0
     51078 WT17     784      MECN     H13      HGA3     0.090000        1.0080           0
     51079 WT17     784      MECN     C2       CG1N1    0.360000       12.0110           0
     51080 WT17     784      MECN     N3       NG1T1   -0.460000       14.0070           0
     51081 WT17     785      MECN     C1       CG331   -0.170000       12.0110           0
     51082 WT17     785      MECN     H11      HGA3     0.090000        1.0080           0
     51083 WT17     785      MECN     H12      HGA3     0.090000        1.0080           0
     51084 WT17     785      MECN     H13      HGA3     0.090000        1.0080           0
     51085 WT17     785      MECN     C2       CG1N1    0.360000       12.0110           0
     51086 WT17     785      MECN     N3       NG1T1   -0.460000       14.0070           0
     51087 WT17     787      MECN     C1       CG331   -0.170000       12.0110           0
     51088 WT17     787      MECN     H11      HGA3     0.090000        1.0080           0
     51089 WT17     787      MECN     H12      HGA3     0.090000        1.0080           0
     51090 WT17     787      MECN     H13      HGA3     0.090000        1.0080           0
     51091 WT17     787      MECN     C2       CG1N1    0.360000       12.0110           0
     51092 WT17     787      MECN     N3       NG1T1   -0.460000       14.0070           0
     51093 WT17     790      MECN     C1       CG331   -0.170000       12.0110           0
     51094 WT17     790      MECN     H11      HGA3     0.090000        1.0080           0
     51095 WT17     790      MECN     H12      HGA3     0.090000        1.0080           0
     51096 WT17     790      MECN     H13      HGA3     0.090000        1.0080           0
     51097 WT17     790      MECN     C2       CG1N1    0.360000       12.0110           0
     51098 WT17     790      MECN     N3       NG1T1   -0.460000       14.0070           0
     51099 WT17     792      MECN     C1       CG331   -0.170000       12.0110           0
     51100 WT17     792      MECN     H11      HGA3     0.090000        1.0080           0
     51101 WT17     792      MECN     H12      HGA3     0.090000        1.0080           0
     51102 WT17     792      MECN     H13      HGA3     0.090000        1.0080           0
     51103 WT17     792      MECN     C2       CG1N1    0.360000       12.0110           0
     51104 WT17     792      MECN     N3       NG1T1   -0.460000       14.0070           0
     51105 WT17     793      MECN     C1       CG331   -0.170000       12.0110           0
     51106 WT17     793      MECN     H11      HGA3     0.090000        1.0080           0
     51107 WT17     793      MECN     H12      HGA3     0.090000        1.0080           0
     51108 WT17     793      MECN     H13      HGA3     0.090000        1.0080           0
     51109 WT17     793      MECN     C2       CG1N1    0.360000       12.0110           0
     51110 WT17     793      MECN     N3       NG1T1   -0.460000       14.0070           0
     51111 WT17     796      MECN     C1       CG331   -0.170000       12.0110           0
     51112 WT17     796      MECN     H11      HGA3     0.090000        1.0080           0
     51113 WT17     796      MECN     H12      HGA3     0.090000        1.0080           0
     51114 WT17     796      MECN     H13      HGA3     0.090000        1.0080           0
     51115 WT17     796      MECN     C2       CG1N1    0.360000       12.0110           0
     51116 WT17     796      MECN     N3       NG1T1   -0.460000       14.0070           0
     51117 WT17     797      MECN     C1       CG331   -0.170000       12.0110           0
     51118 WT17     797      MECN     H11      HGA3     0.090000        1.0080           0
     51119 WT17     797      MECN     H12      HGA3     0.090000        1.0080           0
     51120 WT17     797      MECN     H13      HGA3     0.090000        1.0080           0
     51121 WT17     797      MECN     C2       CG1N1    0.360000       12.0110           0
     51122 WT17     797      MECN     N3       NG1T1   -0.460000       14.0070           0
     51123 WT17     798      MECN     C1       CG331   -0.170000       12.0110           0
     51124 WT17     798      MECN     H11      HGA3     0.090000        1.0080           0
     51125 WT17     798      MECN     H12      HGA3     0.090000        1.0080           0
     51126 WT17     798      MECN     H13      HGA3     0.090000        1.0080           0
     51127 WT17     798      MECN     C2       CG1N1    0.360000       12.0110           0
     51128 WT17     798      MECN     N3       NG1T1   -0.460000       14.0070           0
     51129 WT17     801      MECN     C1       CG331   -0.170000       12.0110           0
     51130 WT17     801      MECN     H11      HGA3     0.090000        1.0080           0
     51131 WT17     801      MECN     H12      HGA3     0.090000        1.0080           0
     51132 WT17     801      MECN     H13      HGA3     0.090000        1.0080           0
     51133 WT17     801      MECN     C2       CG1N1    0.360000       12.0110           0
     51134 WT17     801      MECN     N3       NG1T1   -0.460000       14.0070           0
     51135 WT17     802      MECN     C1       CG331   -0.170000       12.0110           0
     51136 WT17     802      MECN     H11      HGA3     0.090000        1.0080           0
     51137 WT17     802      MECN     H12      HGA3     0.090000        1.0080           0
     51138 WT17     802      MECN     H13      HGA3     0.090000        1.0080           0
     51139 WT17     802      MECN     C2       CG1N1    0.360000       12.0110           0
     51140 WT17     802      MECN     N3       NG1T1   -0.460000       14.0070           0
     51141 WT17     804      MECN     C1       CG331   -0.170000       12.0110           0
     51142 WT17     804      MECN     H11      HGA3     0.090000        1.0080           0
     51143 WT17     804      MECN     H12      HGA3     0.090000        1.0080           0
     51144 WT17     804      MECN     H13      HGA3     0.090000        1.0080           0
     51145 WT17     804      MECN     C2       CG1N1    0.360000       12.0110           0
     51146 WT17     804      MECN     N3       NG1T1   -0.460000       14.0070           0
     51147 WT17     806      MECN     C1       CG331   -0.170000       12.0110           0
     51148 WT17     806      MECN     H11      HGA3     0.090000        1.0080           0
     51149 WT17     806      MECN     H12      HGA3     0.090000        1.0080           0
     51150 WT17     806      MECN     H13      HGA3     0.090000        1.0080           0
     51151 WT17     806      MECN     C2       CG1N1    0.360000       12.0110           0
     51152 WT17     806      MECN     N3       NG1T1   -0.460000       14.0070           0
     51153 WT17     807      MECN     C1       CG331   -0.170000       12.0110           0
     51154 WT17     807      MECN     H11      HGA3     0.090000        1.0080           0
     51155 WT17     807      MECN     H12      HGA3     0.090000        1.0080           0
     51156 WT17     807      MECN     H13      HGA3     0.090000        1.0080           0
     51157 WT17     807      MECN     C2       CG1N1    0.360000       12.0110           0
     51158 WT17     807      MECN     N3       NG1T1   -0.460000       14.0070           0
     51159 WT17     808      MECN     C1       CG331   -0.170000       12.0110           0
     51160 WT17     808      MECN     H11      HGA3     0.090000        1.0080           0
     51161 WT17     808      MECN     H12      HGA3     0.090000        1.0080           0
     51162 WT17     808      MECN     H13      HGA3     0.090000        1.0080           0
     51163 WT17     808      MECN     C2       CG1N1    0.360000       12.0110           0
     51164 WT17     808      MECN     N3       NG1T1   -0.460000       14.0070           0
     51165 WT17     811      MECN     C1       CG331   -0.170000       12.0110           0
     51166 WT17     811      MECN     H11      HGA3     0.090000        1.0080           0
     51167 WT17     811      MECN     H12      HGA3     0.090000        1.0080           0
     51168 WT17     811      MECN     H13      HGA3     0.090000        1.0080           0
     51169 WT17     811      MECN     C2       CG1N1    0.360000       12.0110           0
     51170 WT17     811      MECN     N3       NG1T1   -0.460000       14.0070           0
     51171 WT17     812      MECN     C1       CG331   -0.170000       12.0110           0
     51172 WT17     812      MECN     H11      HGA3     0.090000        1.0080           0
     51173 WT17     812      MECN     H12      HGA3     0.090000        1.0080           0
     51174 WT17     812      MECN     H13      HGA3     0.090000        1.0080           0
     51175 WT17     812      MECN     C2       CG1N1    0.360000       12.0110           0
     51176 WT17     812      MECN     N3       NG1T1   -0.460000       14.0070           0
     51177 WT17     813      MECN     C1       CG331   -0.170000       12.0110           0
     51178 WT17     813      MECN     H11      HGA3     0.090000        1.0080           0
     51179 WT17     813      MECN     H12      HGA3     0.090000        1.0080           0
     51180 WT17     813      MECN     H13      HGA3     0.090000        1.0080           0
     51181 WT17     813      MECN     C2       CG1N1    0.360000       12.0110           0
     51182 WT17     813      MECN     N3       NG1T1   -0.460000       14.0070           0
     51183 WT17     816      MECN     C1       CG331   -0.170000       12.0110           0
     51184 WT17     816      MECN     H11      HGA3     0.090000        1.0080           0
     51185 WT17     816      MECN     H12      HGA3     0.090000        1.0080           0
     51186 WT17     816      MECN     H13      HGA3     0.090000        1.0080           0
     51187 WT17     816      MECN     C2       CG1N1    0.360000       12.0110           0
     51188 WT17     816      MECN     N3       NG1T1   -0.460000       14.0070           0
     51189 WT17     819      MECN     C1       CG331   -0.170000       12.0110           0
     51190 WT17     819      MECN     H11      HGA3     0.090000        1.0080           0
     51191 WT17     819      MECN     H12      HGA3     0.090000        1.0080           0
     51192 WT17     819      MECN     H13      HGA3     0.090000        1.0080           0
     51193 WT17     819      MECN     C2       CG1N1    0.360000       12.0110           0
     51194 WT17     819      MECN     N3       NG1T1   -0.460000       14.0070           0
     51195 WT17     820      MECN     C1       CG331   -0.170000       12.0110           0
     51196 WT17     820      MECN     H11      HGA3     0.090000        1.0080           0
     51197 WT17     820      MECN     H12      HGA3     0.090000        1.0080           0
     51198 WT17     820      MECN     H13      HGA3     0.090000        1.0080           0
     51199 WT17     820      MECN     C2       CG1N1    0.360000       12.0110           0
     51200 WT17     820      MECN     N3       NG1T1   -0.460000       14.0070           0
     51201 WT17     821      MECN     C1       CG331   -0.170000       12.0110           0
     51202 WT17     821      MECN     H11      HGA3     0.090000        1.0080           0
     51203 WT17     821      MECN     H12      HGA3     0.090000        1.0080           0
     51204 WT17     821      MECN     H13      HGA3     0.090000        1.0080           0
     51205 WT17     821      MECN     C2       CG1N1    0.360000       12.0110           0
     51206 WT17     821      MECN     N3       NG1T1   -0.460000       14.0070           0
     51207 WT17     823      MECN     C1       CG331   -0.170000       12.0110           0
     51208 WT17     823      MECN     H11      HGA3     0.090000        1.0080           0
     51209 WT17     823      MECN     H12      HGA3     0.090000        1.0080           0
     51210 WT17     823      MECN     H13      HGA3     0.090000        1.0080           0
     51211 WT17     823      MECN     C2       CG1N1    0.360000       12.0110           0
     51212 WT17     823      MECN     N3       NG1T1   -0.460000       14.0070           0
     51213 WT17     824      MECN     C1       CG331   -0.170000       12.0110           0
     51214 WT17     824      MECN     H11      HGA3     0.090000        1.0080           0
     51215 WT17     824      MECN     H12      HGA3     0.090000        1.0080           0
     51216 WT17     824      MECN     H13      HGA3     0.090000        1.0080           0
     51217 WT17     824      MECN     C2       CG1N1    0.360000       12.0110           0
     51218 WT17     824      MECN     N3       NG1T1   -0.460000       14.0070           0
     51219 WT17     825      MECN     C1       CG331   -0.170000       12.0110           0
     51220 WT17     825      MECN     H11      HGA3     0.090000        1.0080           0
     51221 WT17     825      MECN     H12      HGA3     0.090000        1.0080           0
     51222 WT17     825      MECN     H13      HGA3     0.090000        1.0080           0
     51223 WT17     825      MECN     C2       CG1N1    0.360000       12.0110           0
     51224 WT17     825      MECN     N3       NG1T1   -0.460000       14.0070           0
     51225 WT17     826      MECN     C1       CG331   -0.170000       12.0110           0
     51226 WT17     826      MECN     H11      HGA3     0.090000        1.0080           0
     51227 WT17     826      MECN     H12      HGA3     0.090000        1.0080           0
     51228 WT17     826      MECN     H13      HGA3     0.090000        1.0080           0
     51229 WT17     826      MECN     C2       CG1N1    0.360000       12.0110           0
     51230 WT17     826      MECN     N3       NG1T1   -0.460000       14.0070           0
     51231 WT17     827      MECN     C1       CG331   -0.170000       12.0110           0
     51232 WT17     827      MECN     H11      HGA3     0.090000        1.0080           0
     51233 WT17     827      MECN     H12      HGA3     0.090000        1.0080           0
     51234 WT17     827      MECN     H13      HGA3     0.090000        1.0080           0
     51235 WT17     827      MECN     C2       CG1N1    0.360000       12.0110           0
     51236 WT17     827      MECN     N3       NG1T1   -0.460000       14.0070           0
     51237 WT17     828      MECN     C1       CG331   -0.170000       12.0110           0
     51238 WT17     828      MECN     H11      HGA3     0.090000        1.0080           0
     51239 WT17     828      MECN     H12      HGA3     0.090000        1.0080           0
     51240 WT17     828      MECN     H13      HGA3     0.090000        1.0080           0
     51241 WT17     828      MECN     C2       CG1N1    0.360000       12.0110           0
     51242 WT17     828      MECN     N3       NG1T1   -0.460000       14.0070           0
     51243 WT17     830      MECN     C1       CG331   -0.170000       12.0110           0
     51244 WT17     830      MECN     H11      HGA3     0.090000        1.0080           0
     51245 WT17     830      MECN     H12      HGA3     0.090000        1.0080           0
     51246 WT17     830      MECN     H13      HGA3     0.090000        1.0080           0
     51247 WT17     830      MECN     C2       CG1N1    0.360000       12.0110           0
     51248 WT17     830      MECN     N3       NG1T1   -0.460000       14.0070           0
     51249 WT17     831      MECN     C1       CG331   -0.170000       12.0110           0
     51250 WT17     831      MECN     H11      HGA3     0.090000        1.0080           0
     51251 WT17     831      MECN     H12      HGA3     0.090000        1.0080           0
     51252 WT17     831      MECN     H13      HGA3     0.090000        1.0080           0
     51253 WT17     831      MECN     C2       CG1N1    0.360000       12.0110           0
     51254 WT17     831      MECN     N3       NG1T1   -0.460000       14.0070           0
     51255 WT17     832      MECN     C1       CG331   -0.170000       12.0110           0
     51256 WT17     832      MECN     H11      HGA3     0.090000        1.0080           0
     51257 WT17     832      MECN     H12      HGA3     0.090000        1.0080           0
     51258 WT17     832      MECN     H13      HGA3     0.090000        1.0080           0
     51259 WT17     832      MECN     C2       CG1N1    0.360000       12.0110           0
     51260 WT17     832      MECN     N3       NG1T1   -0.460000       14.0070           0
     51261 WT17     836      MECN     C1       CG331   -0.170000       12.0110           0
     51262 WT17     836      MECN     H11      HGA3     0.090000        1.0080           0
     51263 WT17     836      MECN     H12      HGA3     0.090000        1.0080           0
     51264 WT17     836      MECN     H13      HGA3     0.090000        1.0080           0
     51265 WT17     836      MECN     C2       CG1N1    0.360000       12.0110           0
     51266 WT17     836      MECN     N3       NG1T1   -0.460000       14.0070           0
     51267 WT17     837      MECN     C1       CG331   -0.170000       12.0110           0
     51268 WT17     837      MECN     H11      HGA3     0.090000        1.0080           0
     51269 WT17     837      MECN     H12      HGA3     0.090000        1.0080           0
     51270 WT17     837      MECN     H13      HGA3     0.090000        1.0080           0
     51271 WT17     837      MECN     C2       CG1N1    0.360000       12.0110           0
     51272 WT17     837      MECN     N3       NG1T1   -0.460000       14.0070           0
     51273 WT17     839      MECN     C1       CG331   -0.170000       12.0110           0
     51274 WT17     839      MECN     H11      HGA3     0.090000        1.0080           0
     51275 WT17     839      MECN     H12      HGA3     0.090000        1.0080           0
     51276 WT17     839      MECN     H13      HGA3     0.090000        1.0080           0
     51277 WT17     839      MECN     C2       CG1N1    0.360000       12.0110           0
     51278 WT17     839      MECN     N3       NG1T1   -0.460000       14.0070           0
     51279 WT17     841      MECN     C1       CG331   -0.170000       12.0110           0
     51280 WT17     841      MECN     H11      HGA3     0.090000        1.0080           0
     51281 WT17     841      MECN     H12      HGA3     0.090000        1.0080           0
     51282 WT17     841      MECN     H13      HGA3     0.090000        1.0080           0
     51283 WT17     841      MECN     C2       CG1N1    0.360000       12.0110           0
     51284 WT17     841      MECN     N3       NG1T1   -0.460000       14.0070           0
     51285 WT17     843      MECN     C1       CG331   -0.170000       12.0110           0
     51286 WT17     843      MECN     H11      HGA3     0.090000        1.0080           0
     51287 WT17     843      MECN     H12      HGA3     0.090000        1.0080           0
     51288 WT17     843      MECN     H13      HGA3     0.090000        1.0080           0
     51289 WT17     843      MECN     C2       CG1N1    0.360000       12.0110           0
     51290 WT17     843      MECN     N3       NG1T1   -0.460000       14.0070           0
     51291 WT17     845      MECN     C1       CG331   -0.170000       12.0110           0
     51292 WT17     845      MECN     H11      HGA3     0.090000        1.0080           0
     51293 WT17     845      MECN     H12      HGA3     0.090000        1.0080           0
     51294 WT17     845      MECN     H13      HGA3     0.090000        1.0080           0
     51295 WT17     845      MECN     C2       CG1N1    0.360000       12.0110           0
     51296 WT17     845      MECN     N3       NG1T1   -0.460000       14.0070           0
     51297 WT17     846      MECN     C1       CG331   -0.170000       12.0110           0
     51298 WT17     846      MECN     H11      HGA3     0.090000        1.0080           0
     51299 WT17     846      MECN     H12      HGA3     0.090000        1.0080           0
     51300 WT17     846      MECN     H13      HGA3     0.090000        1.0080           0
     51301 WT17     846      MECN     C2       CG1N1    0.360000       12.0110           0
     51302 WT17     846      MECN     N3       NG1T1   -0.460000       14.0070           0
     51303 WT17     847      MECN     C1       CG331   -0.170000       12.0110           0
     51304 WT17     847      MECN     H11      HGA3     0.090000        1.0080           0
     51305 WT17     847      MECN     H12      HGA3     0.090000        1.0080           0
     51306 WT17     847      MECN     H13      HGA3     0.090000        1.0080           0
     51307 WT17     847      MECN     C2       CG1N1    0.360000       12.0110           0
     51308 WT17     847      MECN     N3       NG1T1   -0.460000       14.0070           0
     51309 WT17     849      MECN     C1       CG331   -0.170000       12.0110           0
     51310 WT17     849      MECN     H11      HGA3     0.090000        1.0080           0
     51311 WT17     849      MECN     H12      HGA3     0.090000        1.0080           0
     51312 WT17     849      MECN     H13      HGA3     0.090000        1.0080           0
     51313 WT17     849      MECN     C2       CG1N1    0.360000       12.0110           0
     51314 WT17     849      MECN     N3       NG1T1   -0.460000       14.0070           0
     51315 WT17     850      MECN     C1       CG331   -0.170000       12.0110           0
     51316 WT17     850      MECN     H11      HGA3     0.090000        1.0080           0
     51317 WT17     850      MECN     H12      HGA3     0.090000        1.0080           0
     51318 WT17     850      MECN     H13      HGA3     0.090000        1.0080           0
     51319 WT17     850      MECN     C2       CG1N1    0.360000       12.0110           0
     51320 WT17     850      MECN     N3       NG1T1   -0.460000       14.0070           0
     51321 WT17     851      MECN     C1       CG331   -0.170000       12.0110           0
     51322 WT17     851      MECN     H11      HGA3     0.090000        1.0080           0
     51323 WT17     851      MECN     H12      HGA3     0.090000        1.0080           0
     51324 WT17     851      MECN     H13      HGA3     0.090000        1.0080           0
     51325 WT17     851      MECN     C2       CG1N1    0.360000       12.0110           0
     51326 WT17     851      MECN     N3       NG1T1   -0.460000       14.0070           0
     51327 WT17     852      MECN     C1       CG331   -0.170000       12.0110           0
     51328 WT17     852      MECN     H11      HGA3     0.090000        1.0080           0
     51329 WT17     852      MECN     H12      HGA3     0.090000        1.0080           0
     51330 WT17     852      MECN     H13      HGA3     0.090000        1.0080           0
     51331 WT17     852      MECN     C2       CG1N1    0.360000       12.0110           0
     51332 WT17     852      MECN     N3       NG1T1   -0.460000       14.0070           0
     51333 WT17     853      MECN     C1       CG331   -0.170000       12.0110           0
     51334 WT17     853      MECN     H11      HGA3     0.090000        1.0080           0
     51335 WT17     853      MECN     H12      HGA3     0.090000        1.0080           0
     51336 WT17     853      MECN     H13      HGA3     0.090000        1.0080           0
     51337 WT17     853      MECN     C2       CG1N1    0.360000       12.0110           0
     51338 WT17     853      MECN     N3       NG1T1   -0.460000       14.0070           0
     51339 WT17     854      MECN     C1       CG331   -0.170000       12.0110           0
     51340 WT17     854      MECN     H11      HGA3     0.090000        1.0080           0
     51341 WT17     854      MECN     H12      HGA3     0.090000        1.0080           0
     51342 WT17     854      MECN     H13      HGA3     0.090000        1.0080           0
     51343 WT17     854      MECN     C2       CG1N1    0.360000       12.0110           0
     51344 WT17     854      MECN     N3       NG1T1   -0.460000       14.0070           0
     51345 WT17     855      MECN     C1       CG331   -0.170000       12.0110           0
     51346 WT17     855      MECN     H11      HGA3     0.090000        1.0080           0
     51347 WT17     855      MECN     H12      HGA3     0.090000        1.0080           0
     51348 WT17     855      MECN     H13      HGA3     0.090000        1.0080           0
     51349 WT17     855      MECN     C2       CG1N1    0.360000       12.0110           0
     51350 WT17     855      MECN     N3       NG1T1   -0.460000       14.0070           0
     51351 WT17     857      MECN     C1       CG331   -0.170000       12.0110           0
     51352 WT17     857      MECN     H11      HGA3     0.090000        1.0080           0
     51353 WT17     857      MECN     H12      HGA3     0.090000        1.0080           0
     51354 WT17     857      MECN     H13      HGA3     0.090000        1.0080           0
     51355 WT17     857      MECN     C2       CG1N1    0.360000       12.0110           0
     51356 WT17     857      MECN     N3       NG1T1   -0.460000       14.0070           0
     51357 WT17     858      MECN     C1       CG331   -0.170000       12.0110           0
     51358 WT17     858      MECN     H11      HGA3     0.090000        1.0080           0
     51359 WT17     858      MECN     H12      HGA3     0.090000        1.0080           0
     51360 WT17     858      MECN     H13      HGA3     0.090000        1.0080           0
     51361 WT17     858      MECN     C2       CG1N1    0.360000       12.0110           0
     51362 WT17     858      MECN     N3       NG1T1   -0.460000       14.0070           0
     51363 WT17     861      MECN     C1       CG331   -0.170000       12.0110           0
     51364 WT17     861      MECN     H11      HGA3     0.090000        1.0080           0
     51365 WT17     861      MECN     H12      HGA3     0.090000        1.0080           0
     51366 WT17     861      MECN     H13      HGA3     0.090000        1.0080           0
     51367 WT17     861      MECN     C2       CG1N1    0.360000       12.0110           0
     51368 WT17     861      MECN     N3       NG1T1   -0.460000       14.0070           0
     51369 WT17     863      MECN     C1       CG331   -0.170000       12.0110           0
     51370 WT17     863      MECN     H11      HGA3     0.090000        1.0080           0
     51371 WT17     863      MECN     H12      HGA3     0.090000        1.0080           0
     51372 WT17     863      MECN     H13      HGA3     0.090000        1.0080           0
     51373 WT17     863      MECN     C2       CG1N1    0.360000       12.0110           0
     51374 WT17     863      MECN     N3       NG1T1   -0.460000       14.0070           0
     51375 WT17     865      MECN     C1       CG331   -0.170000       12.0110           0
     51376 WT17     865      MECN     H11      HGA3     0.090000        1.0080           0
     51377 WT17     865      MECN     H12      HGA3     0.090000        1.0080           0
     51378 WT17     865      MECN     H13      HGA3     0.090000        1.0080           0
     51379 WT17     865      MECN     C2       CG1N1    0.360000       12.0110           0
     51380 WT17     865      MECN     N3       NG1T1   -0.460000       14.0070           0
     51381 WT17     869      MECN     C1       CG331   -0.170000       12.0110           0
     51382 WT17     869      MECN     H11      HGA3     0.090000        1.0080           0
     51383 WT17     869      MECN     H12      HGA3     0.090000        1.0080           0
     51384 WT17     869      MECN     H13      HGA3     0.090000        1.0080           0
     51385 WT17     869      MECN     C2       CG1N1    0.360000       12.0110           0
     51386 WT17     869      MECN     N3       NG1T1   -0.460000       14.0070           0
     51387 WT17     870      MECN     C1       CG331   -0.170000       12.0110           0
     51388 WT17     870      MECN     H11      HGA3     0.090000        1.0080           0
     51389 WT17     870      MECN     H12      HGA3     0.090000        1.0080           0
     51390 WT17     870      MECN     H13      HGA3     0.090000        1.0080           0
     51391 WT17     870      MECN     C2       CG1N1    0.360000       12.0110           0
     51392 WT17     870      MECN     N3       NG1T1   -0.460000       14.0070           0
     51393 WT17     872      MECN     C1       CG331   -0.170000       12.0110           0
     51394 WT17     872      MECN     H11      HGA3     0.090000        1.0080           0
     51395 WT17     872      MECN     H12      HGA3     0.090000        1.0080           0
     51396 WT17     872      MECN     H13      HGA3     0.090000        1.0080           0
     51397 WT17     872      MECN     C2       CG1N1    0.360000       12.0110           0
     51398 WT17     872      MECN     N3       NG1T1   -0.460000       14.0070           0
     51399 WT17     874      MECN     C1       CG331   -0.170000       12.0110           0
     51400 WT17     874      MECN     H11      HGA3     0.090000        1.0080           0
     51401 WT17     874      MECN     H12      HGA3     0.090000        1.0080           0
     51402 WT17     874      MECN     H13      HGA3     0.090000        1.0080           0
     51403 WT17     874      MECN     C2       CG1N1    0.360000       12.0110           0
     51404 WT17     874      MECN     N3       NG1T1   -0.460000       14.0070           0
     51405 WT17     875      MECN     C1       CG331   -0.170000       12.0110           0
     51406 WT17     875      MECN     H11      HGA3     0.090000        1.0080           0
     51407 WT17     875      MECN     H12      HGA3     0.090000        1.0080           0
     51408 WT17     875      MECN     H13      HGA3     0.090000        1.0080           0
     51409 WT17     875      MECN     C2       CG1N1    0.360000       12.0110           0
     51410 WT17     875      MECN     N3       NG1T1   -0.460000       14.0070           0
     51411 WT17     877      MECN     C1       CG331   -0.170000       12.0110           0
     51412 WT17     877      MECN     H11      HGA3     0.090000        1.0080           0
     51413 WT17     877      MECN     H12      HGA3     0.090000        1.0080           0
     51414 WT17     877      MECN     H13      HGA3     0.090000        1.0080           0
     51415 WT17     877      MECN     C2       CG1N1    0.360000       12.0110           0
     51416 WT17     877      MECN     N3       NG1T1   -0.460000       14.0070           0
     51417 WT17     880      MECN     C1       CG331   -0.170000       12.0110           0
     51418 WT17     880      MECN     H11      HGA3     0.090000        1.0080           0
     51419 WT17     880      MECN     H12      HGA3     0.090000        1.0080           0
     51420 WT17     880      MECN     H13      HGA3     0.090000        1.0080           0
     51421 WT17     880      MECN     C2       CG1N1    0.360000       12.0110           0
     51422 WT17     880      MECN     N3       NG1T1   -0.460000       14.0070           0
     51423 WT17     881      MECN     C1       CG331   -0.170000       12.0110           0
     51424 WT17     881      MECN     H11      HGA3     0.090000        1.0080           0
     51425 WT17     881      MECN     H12      HGA3     0.090000        1.0080           0
     51426 WT17     881      MECN     H13      HGA3     0.090000        1.0080           0
     51427 WT17     881      MECN     C2       CG1N1    0.360000       12.0110           0
     51428 WT17     881      MECN     N3       NG1T1   -0.460000       14.0070           0
     51429 WT17     884      MECN     C1       CG331   -0.170000       12.0110           0
     51430 WT17     884      MECN     H11      HGA3     0.090000        1.0080           0
     51431 WT17     884      MECN     H12      HGA3     0.090000        1.0080           0
     51432 WT17     884      MECN     H13      HGA3     0.090000        1.0080           0
     51433 WT17     884      MECN     C2       CG1N1    0.360000       12.0110           0
     51434 WT17     884      MECN     N3       NG1T1   -0.460000       14.0070           0
     51435 WT17     885      MECN     C1       CG331   -0.170000       12.0110           0
     51436 WT17     885      MECN     H11      HGA3     0.090000        1.0080           0
     51437 WT17     885      MECN     H12      HGA3     0.090000        1.0080           0
     51438 WT17     885      MECN     H13      HGA3     0.090000        1.0080           0
     51439 WT17     885      MECN     C2       CG1N1    0.360000       12.0110           0
     51440 WT17     885      MECN     N3       NG1T1   -0.460000       14.0070           0
     51441 WT17     886      MECN     C1       CG331   -0.170000       12.0110           0
     51442 WT17     886      MECN     H11      HGA3     0.090000        1.0080           0
     51443 WT17     886      MECN     H12      HGA3     0.090000        1.0080           0
     51444 WT17     886      MECN     H13      HGA3     0.090000        1.0080           0
     51445 WT17     886      MECN     C2       CG1N1    0.360000       12.0110           0
     51446 WT17     886      MECN     N3       NG1T1   -0.460000       14.0070           0
     51447 WT17     888      MECN     C1       CG331   -0.170000       12.0110           0
     51448 WT17     888      MECN     H11      HGA3     0.090000        1.0080           0
     51449 WT17     888      MECN     H12      HGA3     0.090000        1.0080           0
     51450 WT17     888      MECN     H13      HGA3     0.090000        1.0080           0
     51451 WT17     888      MECN     C2       CG1N1    0.360000       12.0110           0
     51452 WT17     888      MECN     N3       NG1T1   -0.460000       14.0070           0
     51453 WT17     892      MECN     C1       CG331   -0.170000       12.0110           0
     51454 WT17     892      MECN     H11      HGA3     0.090000        1.0080           0
     51455 WT17     892      MECN     H12      HGA3     0.090000        1.0080           0
     51456 WT17     892      MECN     H13      HGA3     0.090000        1.0080           0
     51457 WT17     892      MECN     C2       CG1N1    0.360000       12.0110           0
     51458 WT17     892      MECN     N3       NG1T1   -0.460000       14.0070           0
     51459 WT17     895      MECN     C1       CG331   -0.170000       12.0110           0
     51460 WT17     895      MECN     H11      HGA3     0.090000        1.0080           0
     51461 WT17     895      MECN     H12      HGA3     0.090000        1.0080           0
     51462 WT17     895      MECN     H13      HGA3     0.090000        1.0080           0
     51463 WT17     895      MECN     C2       CG1N1    0.360000       12.0110           0
     51464 WT17     895      MECN     N3       NG1T1   -0.460000       14.0070           0
     51465 WT17     898      MECN     C1       CG331   -0.170000       12.0110           0
     51466 WT17     898      MECN     H11      HGA3     0.090000        1.0080           0
     51467 WT17     898      MECN     H12      HGA3     0.090000        1.0080           0
     51468 WT17     898      MECN     H13      HGA3     0.090000        1.0080           0
     51469 WT17     898      MECN     C2       CG1N1    0.360000       12.0110           0
     51470 WT17     898      MECN     N3       NG1T1   -0.460000       14.0070           0
     51471 WT17     901      MECN     C1       CG331   -0.170000       12.0110           0
     51472 WT17     901      MECN     H11      HGA3     0.090000        1.0080           0
     51473 WT17     901      MECN     H12      HGA3     0.090000        1.0080           0
     51474 WT17     901      MECN     H13      HGA3     0.090000        1.0080           0
     51475 WT17     901      MECN     C2       CG1N1    0.360000       12.0110           0
     51476 WT17     901      MECN     N3       NG1T1   -0.460000       14.0070           0
     51477 WT17     903      MECN     C1       CG331   -0.170000       12.0110           0
     51478 WT17     903      MECN     H11      HGA3     0.090000        1.0080           0
     51479 WT17     903      MECN     H12      HGA3     0.090000        1.0080           0
     51480 WT17     903      MECN     H13      HGA3     0.090000        1.0080           0
     51481 WT17     903      MECN     C2       CG1N1    0.360000       12.0110           0
     51482 WT17     903      MECN     N3       NG1T1   -0.460000       14.0070           0
     51483 WT17     905      MECN     C1       CG331   -0.170000       12.0110           0
     51484 WT17     905      MECN     H11      HGA3     0.090000        1.0080           0
     51485 WT17     905      MECN     H12      HGA3     0.090000        1.0080           0
     51486 WT17     905      MECN     H13      HGA3     0.090000        1.0080           0
     51487 WT17     905      MECN     C2       CG1N1    0.360000       12.0110           0
     51488 WT17     905      MECN     N3       NG1T1   -0.460000       14.0070           0
     51489 WT17     908      MECN     C1       CG331   -0.170000       12.0110           0
     51490 WT17     908      MECN     H11      HGA3     0.090000        1.0080           0
     51491 WT17     908      MECN     H12      HGA3     0.090000        1.0080           0
     51492 WT17     908      MECN     H13      HGA3     0.090000        1.0080           0
     51493 WT17     908      MECN     C2       CG1N1    0.360000       12.0110           0
     51494 WT17     908      MECN     N3       NG1T1   -0.460000       14.0070           0
     51495 WT17     910      MECN     C1       CG331   -0.170000       12.0110           0
     51496 WT17     910      MECN     H11      HGA3     0.090000        1.0080           0
     51497 WT17     910      MECN     H12      HGA3     0.090000        1.0080           0
     51498 WT17     910      MECN     H13      HGA3     0.090000        1.0080           0
     51499 WT17     910      MECN     C2       CG1N1    0.360000       12.0110           0
     51500 WT17     910      MECN     N3       NG1T1   -0.460000       14.0070           0
     51501 WT17     912      MECN     C1       CG331   -0.170000       12.0110           0
     51502 WT17     912      MECN     H11      HGA3     0.090000        1.0080           0
     51503 WT17     912      MECN     H12      HGA3     0.090000        1.0080           0
     51504 WT17     912      MECN     H13      HGA3     0.090000        1.0080           0
     51505 WT17     912      MECN     C2       CG1N1    0.360000       12.0110           0
     51506 WT17     912      MECN     N3       NG1T1   -0.460000       14.0070           0
     51507 WT17     914      MECN     C1       CG331   -0.170000       12.0110           0
     51508 WT17     914      MECN     H11      HGA3     0.090000        1.0080           0
     51509 WT17     914      MECN     H12      HGA3     0.090000        1.0080           0
     51510 WT17     914      MECN     H13      HGA3     0.090000        1.0080           0
     51511 WT17     914      MECN     C2       CG1N1    0.360000       12.0110           0
     51512 WT17     914      MECN     N3       NG1T1   -0.460000       14.0070           0
     51513 WT17     915      MECN     C1       CG331   -0.170000       12.0110           0
     51514 WT17     915      MECN     H11      HGA3     0.090000        1.0080           0
     51515 WT17     915      MECN     H12      HGA3     0.090000        1.0080           0
     51516 WT17     915      MECN     H13      HGA3     0.090000        1.0080           0
     51517 WT17     915      MECN     C2       CG1N1    0.360000       12.0110           0
     51518 WT17     915      MECN     N3       NG1T1   -0.460000       14.0070           0
     51519 WT17     916      MECN     C1       CG331   -0.170000       12.0110           0
     51520 WT17     916      MECN     H11      HGA3     0.090000        1.0080           0
     51521 WT17     916      MECN     H12      HGA3     0.090000        1.0080           0
     51522 WT17     916      MECN     H13      HGA3     0.090000        1.0080           0
     51523 WT17     916      MECN     C2       CG1N1    0.360000       12.0110           0
     51524 WT17     916      MECN     N3       NG1T1   -0.460000       14.0070           0
     51525 WT17     919      MECN     C1       CG331   -0.170000       12.0110           0
     51526 WT17     919      MECN     H11      HGA3     0.090000        1.0080           0
     51527 WT17     919      MECN     H12      HGA3     0.090000        1.0080           0
     51528 WT17     919      MECN     H13      HGA3     0.090000        1.0080           0
     51529 WT17     919      MECN     C2       CG1N1    0.360000       12.0110           0
     51530 WT17     919      MECN     N3       NG1T1   -0.460000       14.0070           0
     51531 WT17     921      MECN     C1       CG331   -0.170000       12.0110           0
     51532 WT17     921      MECN     H11      HGA3     0.090000        1.0080           0
     51533 WT17     921      MECN     H12      HGA3     0.090000        1.0080           0
     51534 WT17     921      MECN     H13      HGA3     0.090000        1.0080           0
     51535 WT17     921      MECN     C2       CG1N1    0.360000       12.0110           0
     51536 WT17     921      MECN     N3       NG1T1   -0.460000       14.0070           0
     51537 WT17     922      MECN     C1       CG331   -0.170000       12.0110           0
     51538 WT17     922      MECN     H11      HGA3     0.090000        1.0080           0
     51539 WT17     922      MECN     H12      HGA3     0.090000        1.0080           0
     51540 WT17     922      MECN     H13      HGA3     0.090000        1.0080           0
     51541 WT17     922      MECN     C2       CG1N1    0.360000       12.0110           0
     51542 WT17     922      MECN     N3       NG1T1   -0.460000       14.0070           0
     51543 WT17     924      MECN     C1       CG331   -0.170000       12.0110           0
     51544 WT17     924      MECN     H11      HGA3     0.090000        1.0080           0
     51545 WT17     924      MECN     H12      HGA3     0.090000        1.0080           0
     51546 WT17     924      MECN     H13      HGA3     0.090000        1.0080           0
     51547 WT17     924      MECN     C2       CG1N1    0.360000       12.0110           0
     51548 WT17     924      MECN     N3       NG1T1   -0.460000       14.0070           0
     51549 WT17     927      MECN     C1       CG331   -0.170000       12.0110           0
     51550 WT17     927      MECN     H11      HGA3     0.090000        1.0080           0
     51551 WT17     927      MECN     H12      HGA3     0.090000        1.0080           0
     51552 WT17     927      MECN     H13      HGA3     0.090000        1.0080           0
     51553 WT17     927      MECN     C2       CG1N1    0.360000       12.0110           0
     51554 WT17     927      MECN     N3       NG1T1   -0.460000       14.0070           0
     51555 WT17     928      MECN     C1       CG331   -0.170000       12.0110           0
     51556 WT17     928      MECN     H11      HGA3     0.090000        1.0080           0
     51557 WT17     928      MECN     H12      HGA3     0.090000        1.0080           0
     51558 WT17     928      MECN     H13      HGA3     0.090000        1.0080           0
     51559 WT17     928      MECN     C2       CG1N1    0.360000       12.0110           0
     51560 WT17     928      MECN     N3       NG1T1   -0.460000       14.0070           0
     51561 WT17     929      MECN     C1       CG331   -0.170000       12.0110           0
     51562 WT17     929      MECN     H11      HGA3     0.090000        1.0080           0
     51563 WT17     929      MECN     H12      HGA3     0.090000        1.0080           0
     51564 WT17     929      MECN     H13      HGA3     0.090000        1.0080           0
     51565 WT17     929      MECN     C2       CG1N1    0.360000       12.0110           0
     51566 WT17     929      MECN     N3       NG1T1   -0.460000       14.0070           0
     51567 WT17     930      MECN     C1       CG331   -0.170000       12.0110           0
     51568 WT17     930      MECN     H11      HGA3     0.090000        1.0080           0
     51569 WT17     930      MECN     H12      HGA3     0.090000        1.0080           0
     51570 WT17     930      MECN     H13      HGA3     0.090000        1.0080           0
     51571 WT17     930      MECN     C2       CG1N1    0.360000       12.0110           0
     51572 WT17     930      MECN     N3       NG1T1   -0.460000       14.0070           0
     51573 WT17     931      MECN     C1       CG331   -0.170000       12.0110           0
     51574 WT17     931      MECN     H11      HGA3     0.090000        1.0080           0
     51575 WT17     931      MECN     H12      HGA3     0.090000        1.0080           0
     51576 WT17     931      MECN     H13      HGA3     0.090000        1.0080           0
     51577 WT17     931      MECN     C2       CG1N1    0.360000       12.0110           0
     51578 WT17     931      MECN     N3       NG1T1   -0.460000       14.0070           0
     51579 WT17     932      MECN     C1       CG331   -0.170000       12.0110           0
     51580 WT17     932      MECN     H11      HGA3     0.090000        1.0080           0
     51581 WT17     932      MECN     H12      HGA3     0.090000        1.0080           0
     51582 WT17     932      MECN     H13      HGA3     0.090000        1.0080           0
     51583 WT17     932      MECN     C2       CG1N1    0.360000       12.0110           0
     51584 WT17     932      MECN     N3       NG1T1   -0.460000       14.0070           0
     51585 WT17     935      MECN     C1       CG331   -0.170000       12.0110           0
     51586 WT17     935      MECN     H11      HGA3     0.090000        1.0080           0
     51587 WT17     935      MECN     H12      HGA3     0.090000        1.0080           0
     51588 WT17     935      MECN     H13      HGA3     0.090000        1.0080           0
     51589 WT17     935      MECN     C2       CG1N1    0.360000       12.0110           0
     51590 WT17     935      MECN     N3       NG1T1   -0.460000       14.0070           0
     51591 WT17     936      MECN     C1       CG331   -0.170000       12.0110           0
     51592 WT17     936      MECN     H11      HGA3     0.090000        1.0080           0
     51593 WT17     936      MECN     H12      HGA3     0.090000        1.0080           0
     51594 WT17     936      MECN     H13      HGA3     0.090000        1.0080           0
     51595 WT17     936      MECN     C2       CG1N1    0.360000       12.0110           0
     51596 WT17     936      MECN     N3       NG1T1   -0.460000       14.0070           0
     51597 WT17     937      MECN     C1       CG331   -0.170000       12.0110           0
     51598 WT17     937      MECN     H11      HGA3     0.090000        1.0080           0
     51599 WT17     937      MECN     H12      HGA3     0.090000        1.0080           0
     51600 WT17     937      MECN     H13      HGA3     0.090000        1.0080           0
     51601 WT17     937      MECN     C2       CG1N1    0.360000       12.0110           0
     51602 WT17     937      MECN     N3       NG1T1   -0.460000       14.0070           0
     51603 WT17     938      MECN     C1       CG331   -0.170000       12.0110           0
     51604 WT17     938      MECN     H11      HGA3     0.090000        1.0080           0
     51605 WT17     938      MECN     H12      HGA3     0.090000        1.0080           0
     51606 WT17     938      MECN     H13      HGA3     0.090000        1.0080           0
     51607 WT17     938      MECN     C2       CG1N1    0.360000       12.0110           0
     51608 WT17     938      MECN     N3       NG1T1   -0.460000       14.0070           0
     51609 WT17     940      MECN     C1       CG331   -0.170000       12.0110           0
     51610 WT17     940      MECN     H11      HGA3     0.090000        1.0080           0
     51611 WT17     940      MECN     H12      HGA3     0.090000        1.0080           0
     51612 WT17     940      MECN     H13      HGA3     0.090000        1.0080           0
     51613 WT17     940      MECN     C2       CG1N1    0.360000       12.0110           0
     51614 WT17     940      MECN     N3       NG1T1   -0.460000       14.0070           0
     51615 WT17     941      MECN     C1       CG331   -0.170000       12.0110           0
     51616 WT17     941      MECN     H11      HGA3     0.090000        1.0080           0
     51617 WT17     941      MECN     H12      HGA3     0.090000        1.0080           0
     51618 WT17     941      MECN     H13      HGA3     0.090000        1.0080           0
     51619 WT17     941      MECN     C2       CG1N1    0.360000       12.0110           0
     51620 WT17     941      MECN     N3       NG1T1   -0.460000       14.0070           0
     51621 WT17     942      MECN     C1       CG331   -0.170000       12.0110           0
     51622 WT17     942      MECN     H11      HGA3     0.090000        1.0080           0
     51623 WT17     942      MECN     H12      HGA3     0.090000        1.0080           0
     51624 WT17     942      MECN     H13      HGA3     0.090000        1.0080           0
     51625 WT17     942      MECN     C2       CG1N1    0.360000       12.0110           0
     51626 WT17     942      MECN     N3       NG1T1   -0.460000       14.0070           0
     51627 WT17     944      MECN     C1       CG331   -0.170000       12.0110           0
     51628 WT17     944      MECN     H11      HGA3     0.090000        1.0080           0
     51629 WT17     944      MECN     H12      HGA3     0.090000        1.0080           0
     51630 WT17     944      MECN     H13      HGA3     0.090000        1.0080           0
     51631 WT17     944      MECN     C2       CG1N1    0.360000       12.0110           0
     51632 WT17     944      MECN     N3       NG1T1   -0.460000       14.0070           0
     51633 WT17     946      MECN     C1       CG331   -0.170000       12.0110           0
     51634 WT17     946      MECN     H11      HGA3     0.090000        1.0080           0
     51635 WT17     946      MECN     H12      HGA3     0.090000        1.0080           0
     51636 WT17     946      MECN     H13      HGA3     0.090000        1.0080           0
     51637 WT17     946      MECN     C2       CG1N1    0.360000       12.0110           0
     51638 WT17     946      MECN     N3       NG1T1   -0.460000       14.0070           0
     51639 WT17     947      MECN     C1       CG331   -0.170000       12.0110           0
     51640 WT17     947      MECN     H11      HGA3     0.090000        1.0080           0
     51641 WT17     947      MECN     H12      HGA3     0.090000        1.0080           0
     51642 WT17     947      MECN     H13      HGA3     0.090000        1.0080           0
     51643 WT17     947      MECN     C2       CG1N1    0.360000       12.0110           0
     51644 WT17     947      MECN     N3       NG1T1   -0.460000       14.0070           0
     51645 WT17     948      MECN     C1       CG331   -0.170000       12.0110           0
     51646 WT17     948      MECN     H11      HGA3     0.090000        1.0080           0
     51647 WT17     948      MECN     H12      HGA3     0.090000        1.0080           0
     51648 WT17     948      MECN     H13      HGA3     0.090000        1.0080           0
     51649 WT17     948      MECN     C2       CG1N1    0.360000       12.0110           0
     51650 WT17     948      MECN     N3       NG1T1   -0.460000       14.0070           0
     51651 WT17     949      MECN     C1       CG331   -0.170000       12.0110           0
     51652 WT17     949      MECN     H11      HGA3     0.090000        1.0080           0
     51653 WT17     949      MECN     H12      HGA3     0.090000        1.0080           0
     51654 WT17     949      MECN     H13      HGA3     0.090000        1.0080           0
     51655 WT17     949      MECN     C2       CG1N1    0.360000       12.0110           0
     51656 WT17     949      MECN     N3       NG1T1   -0.460000       14.0070           0
     51657 WT17     950      MECN     C1       CG331   -0.170000       12.0110           0
     51658 WT17     950      MECN     H11      HGA3     0.090000        1.0080           0
     51659 WT17     950      MECN     H12      HGA3     0.090000        1.0080           0
     51660 WT17     950      MECN     H13      HGA3     0.090000        1.0080           0
     51661 WT17     950      MECN     C2       CG1N1    0.360000       12.0110           0
     51662 WT17     950      MECN     N3       NG1T1   -0.460000       14.0070           0
     51663 WT17     951      MECN     C1       CG331   -0.170000       12.0110           0
     51664 WT17     951      MECN     H11      HGA3     0.090000        1.0080           0
     51665 WT17     951      MECN     H12      HGA3     0.090000        1.0080           0
     51666 WT17     951      MECN     H13      HGA3     0.090000        1.0080           0
     51667 WT17     951      MECN     C2       CG1N1    0.360000       12.0110           0
     51668 WT17     951      MECN     N3       NG1T1   -0.460000       14.0070           0
     51669 WT17     952      MECN     C1       CG331   -0.170000       12.0110           0
     51670 WT17     952      MECN     H11      HGA3     0.090000        1.0080           0
     51671 WT17     952      MECN     H12      HGA3     0.090000        1.0080           0
     51672 WT17     952      MECN     H13      HGA3     0.090000        1.0080           0
     51673 WT17     952      MECN     C2       CG1N1    0.360000       12.0110           0
     51674 WT17     952      MECN     N3       NG1T1   -0.460000       14.0070           0
     51675 WT17     953      MECN     C1       CG331   -0.170000       12.0110           0
     51676 WT17     953      MECN     H11      HGA3     0.090000        1.0080           0
     51677 WT17     953      MECN     H12      HGA3     0.090000        1.0080           0
     51678 WT17     953      MECN     H13      HGA3     0.090000        1.0080           0
     51679 WT17     953      MECN     C2       CG1N1    0.360000       12.0110           0
     51680 WT17     953      MECN     N3       NG1T1   -0.460000       14.0070           0
     51681 WT17     954      MECN     C1       CG331   -0.170000       12.0110           0
     51682 WT17     954      MECN     H11      HGA3     0.090000        1.0080           0
     51683 WT17     954      MECN     H12      HGA3     0.090000        1.0080           0
     51684 WT17     954      MECN     H13      HGA3     0.090000        1.0080           0
     51685 WT17     954      MECN     C2       CG1N1    0.360000       12.0110           0
     51686 WT17     954      MECN     N3       NG1T1   -0.460000       14.0070           0
     51687 WT17     956      MECN     C1       CG331   -0.170000       12.0110           0
     51688 WT17     956      MECN     H11      HGA3     0.090000        1.0080           0
     51689 WT17     956      MECN     H12      HGA3     0.090000        1.0080           0
     51690 WT17     956      MECN     H13      HGA3     0.090000        1.0080           0
     51691 WT17     956      MECN     C2       CG1N1    0.360000       12.0110           0
     51692 WT17     956      MECN     N3       NG1T1   -0.460000       14.0070           0
     51693 WT17     957      MECN     C1       CG331   -0.170000       12.0110           0
     51694 WT17     957      MECN     H11      HGA3     0.090000        1.0080           0
     51695 WT17     957      MECN     H12      HGA3     0.090000        1.0080           0
     51696 WT17     957      MECN     H13      HGA3     0.090000        1.0080           0
     51697 WT17     957      MECN     C2       CG1N1    0.360000       12.0110           0
     51698 WT17     957      MECN     N3       NG1T1   -0.460000       14.0070           0
     51699 WT17     958      MECN     C1       CG331   -0.170000       12.0110           0
     51700 WT17     958      MECN     H11      HGA3     0.090000        1.0080           0
     51701 WT17     958      MECN     H12      HGA3     0.090000        1.0080           0
     51702 WT17     958      MECN     H13      HGA3     0.090000        1.0080           0
     51703 WT17     958      MECN     C2       CG1N1    0.360000       12.0110           0
     51704 WT17     958      MECN     N3       NG1T1   -0.460000       14.0070           0
     51705 WT17     960      MECN     C1       CG331   -0.170000       12.0110           0
     51706 WT17     960      MECN     H11      HGA3     0.090000        1.0080           0
     51707 WT17     960      MECN     H12      HGA3     0.090000        1.0080           0
     51708 WT17     960      MECN     H13      HGA3     0.090000        1.0080           0
     51709 WT17     960      MECN     C2       CG1N1    0.360000       12.0110           0
     51710 WT17     960      MECN     N3       NG1T1   -0.460000       14.0070           0
     51711 WT17     961      MECN     C1       CG331   -0.170000       12.0110           0
     51712 WT17     961      MECN     H11      HGA3     0.090000        1.0080           0
     51713 WT17     961      MECN     H12      HGA3     0.090000        1.0080           0
     51714 WT17     961      MECN     H13      HGA3     0.090000        1.0080           0
     51715 WT17     961      MECN     C2       CG1N1    0.360000       12.0110           0
     51716 WT17     961      MECN     N3       NG1T1   -0.460000       14.0070           0
     51717 WT17     962      MECN     C1       CG331   -0.170000       12.0110           0
     51718 WT17     962      MECN     H11      HGA3     0.090000        1.0080           0
     51719 WT17     962      MECN     H12      HGA3     0.090000        1.0080           0
     51720 WT17     962      MECN     H13      HGA3     0.090000        1.0080           0
     51721 WT17     962      MECN     C2       CG1N1    0.360000       12.0110           0
     51722 WT17     962      MECN     N3       NG1T1   -0.460000       14.0070           0
     51723 WT17     964      MECN     C1       CG331   -0.170000       12.0110           0
     51724 WT17     964      MECN     H11      HGA3     0.090000        1.0080           0
     51725 WT17     964      MECN     H12      HGA3     0.090000        1.0080           0
     51726 WT17     964      MECN     H13      HGA3     0.090000        1.0080           0
     51727 WT17     964      MECN     C2       CG1N1    0.360000       12.0110           0
     51728 WT17     964      MECN     N3       NG1T1   -0.460000       14.0070           0
     51729 WT17     966      MECN     C1       CG331   -0.170000       12.0110           0
     51730 WT17     966      MECN     H11      HGA3     0.090000        1.0080           0
     51731 WT17     966      MECN     H12      HGA3     0.090000        1.0080           0
     51732 WT17     966      MECN     H13      HGA3     0.090000        1.0080           0
     51733 WT17     966      MECN     C2       CG1N1    0.360000       12.0110           0
     51734 WT17     966      MECN     N3       NG1T1   -0.460000       14.0070           0
     51735 WT17     968      MECN     C1       CG331   -0.170000       12.0110           0
     51736 WT17     968      MECN     H11      HGA3     0.090000        1.0080           0
     51737 WT17     968      MECN     H12      HGA3     0.090000        1.0080           0
     51738 WT17     968      MECN     H13      HGA3     0.090000        1.0080           0
     51739 WT17     968      MECN     C2       CG1N1    0.360000       12.0110           0
     51740 WT17     968      MECN     N3       NG1T1   -0.460000       14.0070           0
     51741 WT17     969      MECN     C1       CG331   -0.170000       12.0110           0
     51742 WT17     969      MECN     H11      HGA3     0.090000        1.0080           0
     51743 WT17     969      MECN     H12      HGA3     0.090000        1.0080           0
     51744 WT17     969      MECN     H13      HGA3     0.090000        1.0080           0
     51745 WT17     969      MECN     C2       CG1N1    0.360000       12.0110           0
     51746 WT17     969      MECN     N3       NG1T1   -0.460000       14.0070           0
     51747 WT17     970      MECN     C1       CG331   -0.170000       12.0110           0
     51748 WT17     970      MECN     H11      HGA3     0.090000        1.0080           0
     51749 WT17     970      MECN     H12      HGA3     0.090000        1.0080           0
     51750 WT17     970      MECN     H13      HGA3     0.090000        1.0080           0
     51751 WT17     970      MECN     C2       CG1N1    0.360000       12.0110           0
     51752 WT17     970      MECN     N3       NG1T1   -0.460000       14.0070           0
     51753 WT17     971      MECN     C1       CG331   -0.170000       12.0110           0
     51754 WT17     971      MECN     H11      HGA3     0.090000        1.0080           0
     51755 WT17     971      MECN     H12      HGA3     0.090000        1.0080           0
     51756 WT17     971      MECN     H13      HGA3     0.090000        1.0080           0
     51757 WT17     971      MECN     C2       CG1N1    0.360000       12.0110           0
     51758 WT17     971      MECN     N3       NG1T1   -0.460000       14.0070           0
     51759 WT17     972      MECN     C1       CG331   -0.170000       12.0110           0
     51760 WT17     972      MECN     H11      HGA3     0.090000        1.0080           0
     51761 WT17     972      MECN     H12      HGA3     0.090000        1.0080           0
     51762 WT17     972      MECN     H13      HGA3     0.090000        1.0080           0
     51763 WT17     972      MECN     C2       CG1N1    0.360000       12.0110           0
     51764 WT17     972      MECN     N3       NG1T1   -0.460000       14.0070           0
     51765 WT17     974      MECN     C1       CG331   -0.170000       12.0110           0
     51766 WT17     974      MECN     H11      HGA3     0.090000        1.0080           0
     51767 WT17     974      MECN     H12      HGA3     0.090000        1.0080           0
     51768 WT17     974      MECN     H13      HGA3     0.090000        1.0080           0
     51769 WT17     974      MECN     C2       CG1N1    0.360000       12.0110           0
     51770 WT17     974      MECN     N3       NG1T1   -0.460000       14.0070           0
     51771 WT17     975      MECN     C1       CG331   -0.170000       12.0110           0
     51772 WT17     975      MECN     H11      HGA3     0.090000        1.0080           0
     51773 WT17     975      MECN     H12      HGA3     0.090000        1.0080           0
     51774 WT17     975      MECN     H13      HGA3     0.090000        1.0080           0
     51775 WT17     975      MECN     C2       CG1N1    0.360000       12.0110           0
     51776 WT17     975      MECN     N3       NG1T1   -0.460000       14.0070           0
     51777 WT17     978      MECN     C1       CG331   -0.170000       12.0110           0
     51778 WT17     978      MECN     H11      HGA3     0.090000        1.0080           0
     51779 WT17     978      MECN     H12      HGA3     0.090000        1.0080           0
     51780 WT17     978      MECN     H13      HGA3     0.090000        1.0080           0
     51781 WT17     978      MECN     C2       CG1N1    0.360000       12.0110           0
     51782 WT17     978      MECN     N3       NG1T1   -0.460000       14.0070           0
     51783 WT17     979      MECN     C1       CG331   -0.170000       12.0110           0
     51784 WT17     979      MECN     H11      HGA3     0.090000        1.0080           0
     51785 WT17     979      MECN     H12      HGA3     0.090000        1.0080           0
     51786 WT17     979      MECN     H13      HGA3     0.090000        1.0080           0
     51787 WT17     979      MECN     C2       CG1N1    0.360000       12.0110           0
     51788 WT17     979      MECN     N3       NG1T1   -0.460000       14.0070           0
     51789 WT17     980      MECN     C1       CG331   -0.170000       12.0110           0
     51790 WT17     980      MECN     H11      HGA3     0.090000        1.0080           0
     51791 WT17     980      MECN     H12      HGA3     0.090000        1.0080           0
     51792 WT17     980      MECN     H13      HGA3     0.090000        1.0080           0
     51793 WT17     980      MECN     C2       CG1N1    0.360000       12.0110           0
     51794 WT17     980      MECN     N3       NG1T1   -0.460000       14.0070           0
     51795 WT17     981      MECN     C1       CG331   -0.170000       12.0110           0
     51796 WT17     981      MECN     H11      HGA3     0.090000        1.0080           0
     51797 WT17     981      MECN     H12      HGA3     0.090000        1.0080           0
     51798 WT17     981      MECN     H13      HGA3     0.090000        1.0080           0
     51799 WT17     981      MECN     C2       CG1N1    0.360000       12.0110           0
     51800 WT17     981      MECN     N3       NG1T1   -0.460000       14.0070           0
     51801 WT17     982      MECN     C1       CG331   -0.170000       12.0110           0
     51802 WT17     982      MECN     H11      HGA3     0.090000        1.0080           0
     51803 WT17     982      MECN     H12      HGA3     0.090000        1.0080           0
     51804 WT17     982      MECN     H13      HGA3     0.090000        1.0080           0
     51805 WT17     982      MECN     C2       CG1N1    0.360000       12.0110           0
     51806 WT17     982      MECN     N3       NG1T1   -0.460000       14.0070           0
     51807 WT17     987      MECN     C1       CG331   -0.170000       12.0110           0
     51808 WT17     987      MECN     H11      HGA3     0.090000        1.0080           0
     51809 WT17     987      MECN     H12      HGA3     0.090000        1.0080           0
     51810 WT17     987      MECN     H13      HGA3     0.090000        1.0080           0
     51811 WT17     987      MECN     C2       CG1N1    0.360000       12.0110           0
     51812 WT17     987      MECN     N3       NG1T1   -0.460000       14.0070           0
     51813 WT17     989      MECN     C1       CG331   -0.170000       12.0110           0
     51814 WT17     989      MECN     H11      HGA3     0.090000        1.0080           0
     51815 WT17     989      MECN     H12      HGA3     0.090000        1.0080           0
     51816 WT17     989      MECN     H13      HGA3     0.090000        1.0080           0
     51817 WT17     989      MECN     C2       CG1N1    0.360000       12.0110           0
     51818 WT17     989      MECN     N3       NG1T1   -0.460000       14.0070           0
     51819 WT17     990      MECN     C1       CG331   -0.170000       12.0110           0
     51820 WT17     990      MECN     H11      HGA3     0.090000        1.0080           0
     51821 WT17     990      MECN     H12      HGA3     0.090000        1.0080           0
     51822 WT17     990      MECN     H13      HGA3     0.090000        1.0080           0
     51823 WT17     990      MECN     C2       CG1N1    0.360000       12.0110           0
     51824 WT17     990      MECN     N3       NG1T1   -0.460000       14.0070           0
     51825 WT17     991      MECN     C1       CG331   -0.170000       12.0110           0
     51826 WT17     991      MECN     H11      HGA3     0.090000        1.0080           0
     51827 WT17     991      MECN     H12      HGA3     0.090000        1.0080           0
     51828 WT17     991      MECN     H13      HGA3     0.090000        1.0080           0
     51829 WT17     991      MECN     C2       CG1N1    0.360000       12.0110           0
     51830 WT17     991      MECN     N3       NG1T1   -0.460000       14.0070           0
     51831 WT17     993      MECN     C1       CG331   -0.170000       12.0110           0
     51832 WT17     993      MECN     H11      HGA3     0.090000        1.0080           0
     51833 WT17     993      MECN     H12      HGA3     0.090000        1.0080           0
     51834 WT17     993      MECN     H13      HGA3     0.090000        1.0080           0
     51835 WT17     993      MECN     C2       CG1N1    0.360000       12.0110           0
     51836 WT17     993      MECN     N3       NG1T1   -0.460000       14.0070           0
     51837 WT17     994      MECN     C1       CG331   -0.170000       12.0110           0
     51838 WT17     994      MECN     H11      HGA3     0.090000        1.0080           0
     51839 WT17     994      MECN     H12      HGA3     0.090000        1.0080           0
     51840 WT17     994      MECN     H13      HGA3     0.090000        1.0080           0
     51841 WT17     994      MECN     C2       CG1N1    0.360000       12.0110           0
     51842 WT17     994      MECN     N3       NG1T1   -0.460000       14.0070           0
     51843 WT17     995      MECN     C1       CG331   -0.170000       12.0110           0
     51844 WT17     995      MECN     H11      HGA3     0.090000        1.0080           0
     51845 WT17     995      MECN     H12      HGA3     0.090000        1.0080           0
     51846 WT17     995      MECN     H13      HGA3     0.090000        1.0080           0
     51847 WT17     995      MECN     C2       CG1N1    0.360000       12.0110           0
     51848 WT17     995      MECN     N3       NG1T1   -0.460000       14.0070           0
     51849 WT17     996      MECN     C1       CG331   -0.170000       12.0110           0
     51850 WT17     996      MECN     H11      HGA3     0.090000        1.0080           0
     51851 WT17     996      MECN     H12      HGA3     0.090000        1.0080           0
     51852 WT17     996      MECN     H13      HGA3     0.090000        1.0080           0
     51853 WT17     996      MECN     C2       CG1N1    0.360000       12.0110           0
     51854 WT17     996      MECN     N3       NG1T1   -0.460000       14.0070           0
     51855 WT17     997      MECN     C1       CG331   -0.170000       12.0110           0
     51856 WT17     997      MECN     H11      HGA3     0.090000        1.0080           0
     51857 WT17     997      MECN     H12      HGA3     0.090000        1.0080           0
     51858 WT17     997      MECN     H13      HGA3     0.090000        1.0080           0
     51859 WT17     997      MECN     C2       CG1N1    0.360000       12.0110           0
     51860 WT17     997      MECN     N3       NG1T1   -0.460000       14.0070           0
     51861 WT17     998      MECN     C1       CG331   -0.170000       12.0110           0
     51862 WT17     998      MECN     H11      HGA3     0.090000        1.0080           0
     51863 WT17     998      MECN     H12      HGA3     0.090000        1.0080           0
     51864 WT17     998      MECN     H13      HGA3     0.090000        1.0080           0
     51865 WT17     998      MECN     C2       CG1N1    0.360000       12.0110           0
     51866 WT17     998      MECN     N3       NG1T1   -0.460000       14.0070           0
     51867 WT17     999      MECN     C1       CG331   -0.170000       12.0110           0
     51868 WT17     999      MECN     H11      HGA3     0.090000        1.0080           0
     51869 WT17     999      MECN     H12      HGA3     0.090000        1.0080           0
     51870 WT17     999      MECN     H13      HGA3     0.090000        1.0080           0
     51871 WT17     999      MECN     C2       CG1N1    0.360000       12.0110           0
     51872 WT17     999      MECN     N3       NG1T1   -0.460000       14.0070           0
     51873 WT17     1002     MECN     C1       CG331   -0.170000       12.0110           0
     51874 WT17     1002     MECN     H11      HGA3     0.090000        1.0080           0
     51875 WT17     1002     MECN     H12      HGA3     0.090000        1.0080           0
     51876 WT17     1002     MECN     H13      HGA3     0.090000        1.0080           0
     51877 WT17     1002     MECN     C2       CG1N1    0.360000       12.0110           0
     51878 WT17     1002     MECN     N3       NG1T1   -0.460000       14.0070           0
     51879 WT17     1004     MECN     C1       CG331   -0.170000       12.0110           0
     51880 WT17     1004     MECN     H11      HGA3     0.090000        1.0080           0
     51881 WT17     1004     MECN     H12      HGA3     0.090000        1.0080           0
     51882 WT17     1004     MECN     H13      HGA3     0.090000        1.0080           0
     51883 WT17     1004     MECN     C2       CG1N1    0.360000       12.0110           0
     51884 WT17     1004     MECN     N3       NG1T1   -0.460000       14.0070           0
     51885 WT17     1007     MECN     C1       CG331   -0.170000       12.0110           0
     51886 WT17     1007     MECN     H11      HGA3     0.090000        1.0080           0
     51887 WT17     1007     MECN     H12      HGA3     0.090000        1.0080           0
     51888 WT17     1007     MECN     H13      HGA3     0.090000        1.0080           0
     51889 WT17     1007     MECN     C2       CG1N1    0.360000       12.0110           0
     51890 WT17     1007     MECN     N3       NG1T1   -0.460000       14.0070           0
     51891 WT17     1008     MECN     C1       CG331   -0.170000       12.0110           0
     51892 WT17     1008     MECN     H11      HGA3     0.090000        1.0080           0
     51893 WT17     1008     MECN     H12      HGA3     0.090000        1.0080           0
     51894 WT17     1008     MECN     H13      HGA3     0.090000        1.0080           0
     51895 WT17     1008     MECN     C2       CG1N1    0.360000       12.0110           0
     51896 WT17     1008     MECN     N3       NG1T1   -0.460000       14.0070           0
     51897 WT17     1010     MECN     C1       CG331   -0.170000       12.0110           0
     51898 WT17     1010     MECN     H11      HGA3     0.090000        1.0080           0
     51899 WT17     1010     MECN     H12      HGA3     0.090000        1.0080           0
     51900 WT17     1010     MECN     H13      HGA3     0.090000        1.0080           0
     51901 WT17     1010     MECN     C2       CG1N1    0.360000       12.0110           0
     51902 WT17     1010     MECN     N3       NG1T1   -0.460000       14.0070           0
     51903 WT17     1012     MECN     C1       CG331   -0.170000       12.0110           0
     51904 WT17     1012     MECN     H11      HGA3     0.090000        1.0080           0
     51905 WT17     1012     MECN     H12      HGA3     0.090000        1.0080           0
     51906 WT17     1012     MECN     H13      HGA3     0.090000        1.0080           0
     51907 WT17     1012     MECN     C2       CG1N1    0.360000       12.0110           0
     51908 WT17     1012     MECN     N3       NG1T1   -0.460000       14.0070           0
     51909 WT17     1013     MECN     C1       CG331   -0.170000       12.0110           0
     51910 WT17     1013     MECN     H11      HGA3     0.090000        1.0080           0
     51911 WT17     1013     MECN     H12      HGA3     0.090000        1.0080           0
     51912 WT17     1013     MECN     H13      HGA3     0.090000        1.0080           0
     51913 WT17     1013     MECN     C2       CG1N1    0.360000       12.0110           0
     51914 WT17     1013     MECN     N3       NG1T1   -0.460000       14.0070           0
     51915 WT17     1015     MECN     C1       CG331   -0.170000       12.0110           0
     51916 WT17     1015     MECN     H11      HGA3     0.090000        1.0080           0
     51917 WT17     1015     MECN     H12      HGA3     0.090000        1.0080           0
     51918 WT17     1015     MECN     H13      HGA3     0.090000        1.0080           0
     51919 WT17     1015     MECN     C2       CG1N1    0.360000       12.0110           0
     51920 WT17     1015     MECN     N3       NG1T1   -0.460000       14.0070           0
     51921 WT17     1018     MECN     C1       CG331   -0.170000       12.0110           0
     51922 WT17     1018     MECN     H11      HGA3     0.090000        1.0080           0
     51923 WT17     1018     MECN     H12      HGA3     0.090000        1.0080           0
     51924 WT17     1018     MECN     H13      HGA3     0.090000        1.0080           0
     51925 WT17     1018     MECN     C2       CG1N1    0.360000       12.0110           0
     51926 WT17     1018     MECN     N3       NG1T1   -0.460000       14.0070           0
     51927 WT17     1019     MECN     C1       CG331   -0.170000       12.0110           0
     51928 WT17     1019     MECN     H11      HGA3     0.090000        1.0080           0
     51929 WT17     1019     MECN     H12      HGA3     0.090000        1.0080           0
     51930 WT17     1019     MECN     H13      HGA3     0.090000        1.0080           0
     51931 WT17     1019     MECN     C2       CG1N1    0.360000       12.0110           0
     51932 WT17     1019     MECN     N3       NG1T1   -0.460000       14.0070           0
     51933 WT17     1020     MECN     C1       CG331   -0.170000       12.0110           0
     51934 WT17     1020     MECN     H11      HGA3     0.090000        1.0080           0
     51935 WT17     1020     MECN     H12      HGA3     0.090000        1.0080           0
     51936 WT17     1020     MECN     H13      HGA3     0.090000        1.0080           0
     51937 WT17     1020     MECN     C2       CG1N1    0.360000       12.0110           0
     51938 WT17     1020     MECN     N3       NG1T1   -0.460000       14.0070           0
     51939 WT17     1022     MECN     C1       CG331   -0.170000       12.0110           0
     51940 WT17     1022     MECN     H11      HGA3     0.090000        1.0080           0
     51941 WT17     1022     MECN     H12      HGA3     0.090000        1.0080           0
     51942 WT17     1022     MECN     H13      HGA3     0.090000        1.0080           0
     51943 WT17     1022     MECN     C2       CG1N1    0.360000       12.0110           0
     51944 WT17     1022     MECN     N3       NG1T1   -0.460000       14.0070           0
     51945 WT17     1023     MECN     C1       CG331   -0.170000       12.0110           0
     51946 WT17     1023     MECN     H11      HGA3     0.090000        1.0080           0
     51947 WT17     1023     MECN     H12      HGA3     0.090000        1.0080           0
     51948 WT17     1023     MECN     H13      HGA3     0.090000        1.0080           0
     51949 WT17     1023     MECN     C2       CG1N1    0.360000       12.0110           0
     51950 WT17     1023     MECN     N3       NG1T1   -0.460000       14.0070           0
     51951 WT17     1024     MECN     C1       CG331   -0.170000       12.0110           0
     51952 WT17     1024     MECN     H11      HGA3     0.090000        1.0080           0
     51953 WT17     1024     MECN     H12      HGA3     0.090000        1.0080           0
     51954 WT17     1024     MECN     H13      HGA3     0.090000        1.0080           0
     51955 WT17     1024     MECN     C2       CG1N1    0.360000       12.0110           0
     51956 WT17     1024     MECN     N3       NG1T1   -0.460000       14.0070           0
     51957 WT17     1026     MECN     C1       CG331   -0.170000       12.0110           0
     51958 WT17     1026     MECN     H11      HGA3     0.090000        1.0080           0
     51959 WT17     1026     MECN     H12      HGA3     0.090000        1.0080           0
     51960 WT17     1026     MECN     H13      HGA3     0.090000        1.0080           0
     51961 WT17     1026     MECN     C2       CG1N1    0.360000       12.0110           0
     51962 WT17     1026     MECN     N3       NG1T1   -0.460000       14.0070           0
     51963 WT17     1028     MECN     C1       CG331   -0.170000       12.0110           0
     51964 WT17     1028     MECN     H11      HGA3     0.090000        1.0080           0
     51965 WT17     1028     MECN     H12      HGA3     0.090000        1.0080           0
     51966 WT17     1028     MECN     H13      HGA3     0.090000        1.0080           0
     51967 WT17     1028     MECN     C2       CG1N1    0.360000       12.0110           0
     51968 WT17     1028     MECN     N3       NG1T1   -0.460000       14.0070           0
     51969 WT17     1030     MECN     C1       CG331   -0.170000       12.0110           0
     51970 WT17     1030     MECN     H11      HGA3     0.090000        1.0080           0
     51971 WT17     1030     MECN     H12      HGA3     0.090000        1.0080           0
     51972 WT17     1030     MECN     H13      HGA3     0.090000        1.0080           0
     51973 WT17     1030     MECN     C2       CG1N1    0.360000       12.0110           0
     51974 WT17     1030     MECN     N3       NG1T1   -0.460000       14.0070           0
     51975 WT17     1031     MECN     C1       CG331   -0.170000       12.0110           0
     51976 WT17     1031     MECN     H11      HGA3     0.090000        1.0080           0
     51977 WT17     1031     MECN     H12      HGA3     0.090000        1.0080           0
     51978 WT17     1031     MECN     H13      HGA3     0.090000        1.0080           0
     51979 WT17     1031     MECN     C2       CG1N1    0.360000       12.0110           0
     51980 WT17     1031     MECN     N3       NG1T1   -0.460000       14.0070           0
     51981 WT17     1032     MECN     C1       CG331   -0.170000       12.0110           0
     51982 WT17     1032     MECN     H11      HGA3     0.090000        1.0080           0
     51983 WT17     1032     MECN     H12      HGA3     0.090000        1.0080           0
     51984 WT17     1032     MECN     H13      HGA3     0.090000        1.0080           0
     51985 WT17     1032     MECN     C2       CG1N1    0.360000       12.0110           0
     51986 WT17     1032     MECN     N3       NG1T1   -0.460000       14.0070           0
     51987 WT17     1033     MECN     C1       CG331   -0.170000       12.0110           0
     51988 WT17     1033     MECN     H11      HGA3     0.090000        1.0080           0
     51989 WT17     1033     MECN     H12      HGA3     0.090000        1.0080           0
     51990 WT17     1033     MECN     H13      HGA3     0.090000        1.0080           0
     51991 WT17     1033     MECN     C2       CG1N1    0.360000       12.0110           0
     51992 WT17     1033     MECN     N3       NG1T1   -0.460000       14.0070           0
     51993 WT17     1034     MECN     C1       CG331   -0.170000       12.0110           0
     51994 WT17     1034     MECN     H11      HGA3     0.090000        1.0080           0
     51995 WT17     1034     MECN     H12      HGA3     0.090000        1.0080           0
     51996 WT17     1034     MECN     H13      HGA3     0.090000        1.0080           0
     51997 WT17     1034     MECN     C2       CG1N1    0.360000       12.0110           0
     51998 WT17     1034     MECN     N3       NG1T1   -0.460000       14.0070           0
     51999 WT17     1036     MECN     C1       CG331   -0.170000       12.0110           0
     52000 WT17     1036     MECN     H11      HGA3     0.090000        1.0080           0
     52001 WT17     1036     MECN     H12      HGA3     0.090000        1.0080           0
     52002 WT17     1036     MECN     H13      HGA3     0.090000        1.0080           0
     52003 WT17     1036     MECN     C2       CG1N1    0.360000       12.0110           0
     52004 WT17     1036     MECN     N3       NG1T1   -0.460000       14.0070           0
     52005 WT17     1037     MECN     C1       CG331   -0.170000       12.0110           0
     52006 WT17     1037     MECN     H11      HGA3     0.090000        1.0080           0
     52007 WT17     1037     MECN     H12      HGA3     0.090000        1.0080           0
     52008 WT17     1037     MECN     H13      HGA3     0.090000        1.0080           0
     52009 WT17     1037     MECN     C2       CG1N1    0.360000       12.0110           0
     52010 WT17     1037     MECN     N3       NG1T1   -0.460000       14.0070           0
     52011 WT17     1038     MECN     C1       CG331   -0.170000       12.0110           0
     52012 WT17     1038     MECN     H11      HGA3     0.090000        1.0080           0
     52013 WT17     1038     MECN     H12      HGA3     0.090000        1.0080           0
     52014 WT17     1038     MECN     H13      HGA3     0.090000        1.0080           0
     52015 WT17     1038     MECN     C2       CG1N1    0.360000       12.0110           0
     52016 WT17     1038     MECN     N3       NG1T1   -0.460000       14.0070           0
     52017 WT17     1039     MECN     C1       CG331   -0.170000       12.0110           0
     52018 WT17     1039     MECN     H11      HGA3     0.090000        1.0080           0
     52019 WT17     1039     MECN     H12      HGA3     0.090000        1.0080           0
     52020 WT17     1039     MECN     H13      HGA3     0.090000        1.0080           0
     52021 WT17     1039     MECN     C2       CG1N1    0.360000       12.0110           0
     52022 WT17     1039     MECN     N3       NG1T1   -0.460000       14.0070           0
     52023 WT17     1041     MECN     C1       CG331   -0.170000       12.0110           0
     52024 WT17     1041     MECN     H11      HGA3     0.090000        1.0080           0
     52025 WT17     1041     MECN     H12      HGA3     0.090000        1.0080           0
     52026 WT17     1041     MECN     H13      HGA3     0.090000        1.0080           0
     52027 WT17     1041     MECN     C2       CG1N1    0.360000       12.0110           0
     52028 WT17     1041     MECN     N3       NG1T1   -0.460000       14.0070           0
     52029 WT17     1042     MECN     C1       CG331   -0.170000       12.0110           0
     52030 WT17     1042     MECN     H11      HGA3     0.090000        1.0080           0
     52031 WT17     1042     MECN     H12      HGA3     0.090000        1.0080           0
     52032 WT17     1042     MECN     H13      HGA3     0.090000        1.0080           0
     52033 WT17     1042     MECN     C2       CG1N1    0.360000       12.0110           0
     52034 WT17     1042     MECN     N3       NG1T1   -0.460000       14.0070           0
     52035 WT17     1043     MECN     C1       CG331   -0.170000       12.0110           0
     52036 WT17     1043     MECN     H11      HGA3     0.090000        1.0080           0
     52037 WT17     1043     MECN     H12      HGA3     0.090000        1.0080           0
     52038 WT17     1043     MECN     H13      HGA3     0.090000        1.0080           0
     52039 WT17     1043     MECN     C2       CG1N1    0.360000       12.0110           0
     52040 WT17     1043     MECN     N3       NG1T1   -0.460000       14.0070           0
     52041 WT17     1044     MECN     C1       CG331   -0.170000       12.0110           0
     52042 WT17     1044     MECN     H11      HGA3     0.090000        1.0080           0
     52043 WT17     1044     MECN     H12      HGA3     0.090000        1.0080           0
     52044 WT17     1044     MECN     H13      HGA3     0.090000        1.0080           0
     52045 WT17     1044     MECN     C2       CG1N1    0.360000       12.0110           0
     52046 WT17     1044     MECN     N3       NG1T1   -0.460000       14.0070           0
     52047 WT17     1045     MECN     C1       CG331   -0.170000       12.0110           0
     52048 WT17     1045     MECN     H11      HGA3     0.090000        1.0080           0
     52049 WT17     1045     MECN     H12      HGA3     0.090000        1.0080           0
     52050 WT17     1045     MECN     H13      HGA3     0.090000        1.0080           0
     52051 WT17     1045     MECN     C2       CG1N1    0.360000       12.0110           0
     52052 WT17     1045     MECN     N3       NG1T1   -0.460000       14.0070           0
     52053 WT17     1046     MECN     C1       CG331   -0.170000       12.0110           0
     52054 WT17     1046     MECN     H11      HGA3     0.090000        1.0080           0
     52055 WT17     1046     MECN     H12      HGA3     0.090000        1.0080           0
     52056 WT17     1046     MECN     H13      HGA3     0.090000        1.0080           0
     52057 WT17     1046     MECN     C2       CG1N1    0.360000       12.0110           0
     52058 WT17     1046     MECN     N3       NG1T1   -0.460000       14.0070           0
     52059 WT17     1047     MECN     C1       CG331   -0.170000       12.0110           0
     52060 WT17     1047     MECN     H11      HGA3     0.090000        1.0080           0
     52061 WT17     1047     MECN     H12      HGA3     0.090000        1.0080           0
     52062 WT17     1047     MECN     H13      HGA3     0.090000        1.0080           0
     52063 WT17     1047     MECN     C2       CG1N1    0.360000       12.0110           0
     52064 WT17     1047     MECN     N3       NG1T1   -0.460000       14.0070           0
     52065 WT17     1048     MECN     C1       CG331   -0.170000       12.0110           0
     52066 WT17     1048     MECN     H11      HGA3     0.090000        1.0080           0
     52067 WT17     1048     MECN     H12      HGA3     0.090000        1.0080           0
     52068 WT17     1048     MECN     H13      HGA3     0.090000        1.0080           0
     52069 WT17     1048     MECN     C2       CG1N1    0.360000       12.0110           0
     52070 WT17     1048     MECN     N3       NG1T1   -0.460000       14.0070           0
     52071 WT17     1049     MECN     C1       CG331   -0.170000       12.0110           0
     52072 WT17     1049     MECN     H11      HGA3     0.090000        1.0080           0
     52073 WT17     1049     MECN     H12      HGA3     0.090000        1.0080           0
     52074 WT17     1049     MECN     H13      HGA3     0.090000        1.0080           0
     52075 WT17     1049     MECN     C2       CG1N1    0.360000       12.0110           0
     52076 WT17     1049     MECN     N3       NG1T1   -0.460000       14.0070           0
     52077 WT17     1051     MECN     C1       CG331   -0.170000       12.0110           0
     52078 WT17     1051     MECN     H11      HGA3     0.090000        1.0080           0
     52079 WT17     1051     MECN     H12      HGA3     0.090000        1.0080           0
     52080 WT17     1051     MECN     H13      HGA3     0.090000        1.0080           0
     52081 WT17     1051     MECN     C2       CG1N1    0.360000       12.0110           0
     52082 WT17     1051     MECN     N3       NG1T1   -0.460000       14.0070           0
     52083 WT17     1053     MECN     C1       CG331   -0.170000       12.0110           0
     52084 WT17     1053     MECN     H11      HGA3     0.090000        1.0080           0
     52085 WT17     1053     MECN     H12      HGA3     0.090000        1.0080           0
     52086 WT17     1053     MECN     H13      HGA3     0.090000        1.0080           0
     52087 WT17     1053     MECN     C2       CG1N1    0.360000       12.0110           0
     52088 WT17     1053     MECN     N3       NG1T1   -0.460000       14.0070           0
     52089 WT17     1055     MECN     C1       CG331   -0.170000       12.0110           0
     52090 WT17     1055     MECN     H11      HGA3     0.090000        1.0080           0
     52091 WT17     1055     MECN     H12      HGA3     0.090000        1.0080           0
     52092 WT17     1055     MECN     H13      HGA3     0.090000        1.0080           0
     52093 WT17     1055     MECN     C2       CG1N1    0.360000       12.0110           0
     52094 WT17     1055     MECN     N3       NG1T1   -0.460000       14.0070           0
     52095 WT17     1056     MECN     C1       CG331   -0.170000       12.0110           0
     52096 WT17     1056     MECN     H11      HGA3     0.090000        1.0080           0
     52097 WT17     1056     MECN     H12      HGA3     0.090000        1.0080           0
     52098 WT17     1056     MECN     H13      HGA3     0.090000        1.0080           0
     52099 WT17     1056     MECN     C2       CG1N1    0.360000       12.0110           0
     52100 WT17     1056     MECN     N3       NG1T1   -0.460000       14.0070           0
     52101 WT17     1057     MECN     C1       CG331   -0.170000       12.0110           0
     52102 WT17     1057     MECN     H11      HGA3     0.090000        1.0080           0
     52103 WT17     1057     MECN     H12      HGA3     0.090000        1.0080           0
     52104 WT17     1057     MECN     H13      HGA3     0.090000        1.0080           0
     52105 WT17     1057     MECN     C2       CG1N1    0.360000       12.0110           0
     52106 WT17     1057     MECN     N3       NG1T1   -0.460000       14.0070           0
     52107 WT17     1058     MECN     C1       CG331   -0.170000       12.0110           0
     52108 WT17     1058     MECN     H11      HGA3     0.090000        1.0080           0
     52109 WT17     1058     MECN     H12      HGA3     0.090000        1.0080           0
     52110 WT17     1058     MECN     H13      HGA3     0.090000        1.0080           0
     52111 WT17     1058     MECN     C2       CG1N1    0.360000       12.0110           0
     52112 WT17     1058     MECN     N3       NG1T1   -0.460000       14.0070           0
     52113 WT17     1062     MECN     C1       CG331   -0.170000       12.0110           0
     52114 WT17     1062     MECN     H11      HGA3     0.090000        1.0080           0
     52115 WT17     1062     MECN     H12      HGA3     0.090000        1.0080           0
     52116 WT17     1062     MECN     H13      HGA3     0.090000        1.0080           0
     52117 WT17     1062     MECN     C2       CG1N1    0.360000       12.0110           0
     52118 WT17     1062     MECN     N3       NG1T1   -0.460000       14.0070           0
     52119 WT17     1063     MECN     C1       CG331   -0.170000       12.0110           0
     52120 WT17     1063     MECN     H11      HGA3     0.090000        1.0080           0
     52121 WT17     1063     MECN     H12      HGA3     0.090000        1.0080           0
     52122 WT17     1063     MECN     H13      HGA3     0.090000        1.0080           0
     52123 WT17     1063     MECN     C2       CG1N1    0.360000       12.0110           0
     52124 WT17     1063     MECN     N3       NG1T1   -0.460000       14.0070           0
     52125 WT17     1064     MECN     C1       CG331   -0.170000       12.0110           0
     52126 WT17     1064     MECN     H11      HGA3     0.090000        1.0080           0
     52127 WT17     1064     MECN     H12      HGA3     0.090000        1.0080           0
     52128 WT17     1064     MECN     H13      HGA3     0.090000        1.0080           0
     52129 WT17     1064     MECN     C2       CG1N1    0.360000       12.0110           0
     52130 WT17     1064     MECN     N3       NG1T1   -0.460000       14.0070           0
     52131 WT17     1065     MECN     C1       CG331   -0.170000       12.0110           0
     52132 WT17     1065     MECN     H11      HGA3     0.090000        1.0080           0
     52133 WT17     1065     MECN     H12      HGA3     0.090000        1.0080           0
     52134 WT17     1065     MECN     H13      HGA3     0.090000        1.0080           0
     52135 WT17     1065     MECN     C2       CG1N1    0.360000       12.0110           0
     52136 WT17     1065     MECN     N3       NG1T1   -0.460000       14.0070           0
     52137 WT17     1066     MECN     C1       CG331   -0.170000       12.0110           0
     52138 WT17     1066     MECN     H11      HGA3     0.090000        1.0080           0
     52139 WT17     1066     MECN     H12      HGA3     0.090000        1.0080           0
     52140 WT17     1066     MECN     H13      HGA3     0.090000        1.0080           0
     52141 WT17     1066     MECN     C2       CG1N1    0.360000       12.0110           0
     52142 WT17     1066     MECN     N3       NG1T1   -0.460000       14.0070           0
     52143 WT17     1067     MECN     C1       CG331   -0.170000       12.0110           0
     52144 WT17     1067     MECN     H11      HGA3     0.090000        1.0080           0
     52145 WT17     1067     MECN     H12      HGA3     0.090000        1.0080           0
     52146 WT17     1067     MECN     H13      HGA3     0.090000        1.0080           0
     52147 WT17     1067     MECN     C2       CG1N1    0.360000       12.0110           0
     52148 WT17     1067     MECN     N3       NG1T1   -0.460000       14.0070           0
     52149 WT17     1068     MECN     C1       CG331   -0.170000       12.0110           0
     52150 WT17     1068     MECN     H11      HGA3     0.090000        1.0080           0
     52151 WT17     1068     MECN     H12      HGA3     0.090000        1.0080           0
     52152 WT17     1068     MECN     H13      HGA3     0.090000        1.0080           0
     52153 WT17     1068     MECN     C2       CG1N1    0.360000       12.0110           0
     52154 WT17     1068     MECN     N3       NG1T1   -0.460000       14.0070           0
     52155 WT17     1069     MECN     C1       CG331   -0.170000       12.0110           0
     52156 WT17     1069     MECN     H11      HGA3     0.090000        1.0080           0
     52157 WT17     1069     MECN     H12      HGA3     0.090000        1.0080           0
     52158 WT17     1069     MECN     H13      HGA3     0.090000        1.0080           0
     52159 WT17     1069     MECN     C2       CG1N1    0.360000       12.0110           0
     52160 WT17     1069     MECN     N3       NG1T1   -0.460000       14.0070           0
     52161 WT17     1071     MECN     C1       CG331   -0.170000       12.0110           0
     52162 WT17     1071     MECN     H11      HGA3     0.090000        1.0080           0
     52163 WT17     1071     MECN     H12      HGA3     0.090000        1.0080           0
     52164 WT17     1071     MECN     H13      HGA3     0.090000        1.0080           0
     52165 WT17     1071     MECN     C2       CG1N1    0.360000       12.0110           0
     52166 WT17     1071     MECN     N3       NG1T1   -0.460000       14.0070           0
     52167 WT17     1072     MECN     C1       CG331   -0.170000       12.0110           0
     52168 WT17     1072     MECN     H11      HGA3     0.090000        1.0080           0
     52169 WT17     1072     MECN     H12      HGA3     0.090000        1.0080           0
     52170 WT17     1072     MECN     H13      HGA3     0.090000        1.0080           0
     52171 WT17     1072     MECN     C2       CG1N1    0.360000       12.0110           0
     52172 WT17     1072     MECN     N3       NG1T1   -0.460000       14.0070           0
     52173 WT17     1074     MECN     C1       CG331   -0.170000       12.0110           0
     52174 WT17     1074     MECN     H11      HGA3     0.090000        1.0080           0
     52175 WT17     1074     MECN     H12      HGA3     0.090000        1.0080           0
     52176 WT17     1074     MECN     H13      HGA3     0.090000        1.0080           0
     52177 WT17     1074     MECN     C2       CG1N1    0.360000       12.0110           0
     52178 WT17     1074     MECN     N3       NG1T1   -0.460000       14.0070           0
     52179 WT17     1075     MECN     C1       CG331   -0.170000       12.0110           0
     52180 WT17     1075     MECN     H11      HGA3     0.090000        1.0080           0
     52181 WT17     1075     MECN     H12      HGA3     0.090000        1.0080           0
     52182 WT17     1075     MECN     H13      HGA3     0.090000        1.0080           0
     52183 WT17     1075     MECN     C2       CG1N1    0.360000       12.0110           0
     52184 WT17     1075     MECN     N3       NG1T1   -0.460000       14.0070           0
     52185 WT17     1076     MECN     C1       CG331   -0.170000       12.0110           0
     52186 WT17     1076     MECN     H11      HGA3     0.090000        1.0080           0
     52187 WT17     1076     MECN     H12      HGA3     0.090000        1.0080           0
     52188 WT17     1076     MECN     H13      HGA3     0.090000        1.0080           0
     52189 WT17     1076     MECN     C2       CG1N1    0.360000       12.0110           0
     52190 WT17     1076     MECN     N3       NG1T1   -0.460000       14.0070           0
     52191 WT17     1078     MECN     C1       CG331   -0.170000       12.0110           0
     52192 WT17     1078     MECN     H11      HGA3     0.090000        1.0080           0
     52193 WT17     1078     MECN     H12      HGA3     0.090000        1.0080           0
     52194 WT17     1078     MECN     H13      HGA3     0.090000        1.0080           0
     52195 WT17     1078     MECN     C2       CG1N1    0.360000       12.0110           0
     52196 WT17     1078     MECN     N3       NG1T1   -0.460000       14.0070           0
     52197 WT17     1079     MECN     C1       CG331   -0.170000       12.0110           0
     52198 WT17     1079     MECN     H11      HGA3     0.090000        1.0080           0
     52199 WT17     1079     MECN     H12      HGA3     0.090000        1.0080           0
     52200 WT17     1079     MECN     H13      HGA3     0.090000        1.0080           0
     52201 WT17     1079     MECN     C2       CG1N1    0.360000       12.0110           0
     52202 WT17     1079     MECN     N3       NG1T1   -0.460000       14.0070           0
     52203 WT17     1080     MECN     C1       CG331   -0.170000       12.0110           0
     52204 WT17     1080     MECN     H11      HGA3     0.090000        1.0080           0
     52205 WT17     1080     MECN     H12      HGA3     0.090000        1.0080           0
     52206 WT17     1080     MECN     H13      HGA3     0.090000        1.0080           0
     52207 WT17     1080     MECN     C2       CG1N1    0.360000       12.0110           0
     52208 WT17     1080     MECN     N3       NG1T1   -0.460000       14.0070           0
     52209 WT17     1081     MECN     C1       CG331   -0.170000       12.0110           0
     52210 WT17     1081     MECN     H11      HGA3     0.090000        1.0080           0
     52211 WT17     1081     MECN     H12      HGA3     0.090000        1.0080           0
     52212 WT17     1081     MECN     H13      HGA3     0.090000        1.0080           0
     52213 WT17     1081     MECN     C2       CG1N1    0.360000       12.0110           0
     52214 WT17     1081     MECN     N3       NG1T1   -0.460000       14.0070           0
     52215 WT17     1082     MECN     C1       CG331   -0.170000       12.0110           0
     52216 WT17     1082     MECN     H11      HGA3     0.090000        1.0080           0
     52217 WT17     1082     MECN     H12      HGA3     0.090000        1.0080           0
     52218 WT17     1082     MECN     H13      HGA3     0.090000        1.0080           0
     52219 WT17     1082     MECN     C2       CG1N1    0.360000       12.0110           0
     52220 WT17     1082     MECN     N3       NG1T1   -0.460000       14.0070           0
     52221 WT17     1084     MECN     C1       CG331   -0.170000       12.0110           0
     52222 WT17     1084     MECN     H11      HGA3     0.090000        1.0080           0
     52223 WT17     1084     MECN     H12      HGA3     0.090000        1.0080           0
     52224 WT17     1084     MECN     H13      HGA3     0.090000        1.0080           0
     52225 WT17     1084     MECN     C2       CG1N1    0.360000       12.0110           0
     52226 WT17     1084     MECN     N3       NG1T1   -0.460000       14.0070           0
     52227 WT17     1085     MECN     C1       CG331   -0.170000       12.0110           0
     52228 WT17     1085     MECN     H11      HGA3     0.090000        1.0080           0
     52229 WT17     1085     MECN     H12      HGA3     0.090000        1.0080           0
     52230 WT17     1085     MECN     H13      HGA3     0.090000        1.0080           0
     52231 WT17     1085     MECN     C2       CG1N1    0.360000       12.0110           0
     52232 WT17     1085     MECN     N3       NG1T1   -0.460000       14.0070           0
     52233 WT17     1086     MECN     C1       CG331   -0.170000       12.0110           0
     52234 WT17     1086     MECN     H11      HGA3     0.090000        1.0080           0
     52235 WT17     1086     MECN     H12      HGA3     0.090000        1.0080           0
     52236 WT17     1086     MECN     H13      HGA3     0.090000        1.0080           0
     52237 WT17     1086     MECN     C2       CG1N1    0.360000       12.0110           0
     52238 WT17     1086     MECN     N3       NG1T1   -0.460000       14.0070           0
     52239 WT17     1089     MECN     C1       CG331   -0.170000       12.0110           0
     52240 WT17     1089     MECN     H11      HGA3     0.090000        1.0080           0
     52241 WT17     1089     MECN     H12      HGA3     0.090000        1.0080           0
     52242 WT17     1089     MECN     H13      HGA3     0.090000        1.0080           0
     52243 WT17     1089     MECN     C2       CG1N1    0.360000       12.0110           0
     52244 WT17     1089     MECN     N3       NG1T1   -0.460000       14.0070           0
     52245 WT17     1090     MECN     C1       CG331   -0.170000       12.0110           0
     52246 WT17     1090     MECN     H11      HGA3     0.090000        1.0080           0
     52247 WT17     1090     MECN     H12      HGA3     0.090000        1.0080           0
     52248 WT17     1090     MECN     H13      HGA3     0.090000        1.0080           0
     52249 WT17     1090     MECN     C2       CG1N1    0.360000       12.0110           0
     52250 WT17     1090     MECN     N3       NG1T1   -0.460000       14.0070           0
     52251 WT17     1091     MECN     C1       CG331   -0.170000       12.0110           0
     52252 WT17     1091     MECN     H11      HGA3     0.090000        1.0080           0
     52253 WT17     1091     MECN     H12      HGA3     0.090000        1.0080           0
     52254 WT17     1091     MECN     H13      HGA3     0.090000        1.0080           0
     52255 WT17     1091     MECN     C2       CG1N1    0.360000       12.0110           0
     52256 WT17     1091     MECN     N3       NG1T1   -0.460000       14.0070           0
     52257 WT17     1092     MECN     C1       CG331   -0.170000       12.0110           0
     52258 WT17     1092     MECN     H11      HGA3     0.090000        1.0080           0
     52259 WT17     1092     MECN     H12      HGA3     0.090000        1.0080           0
     52260 WT17     1092     MECN     H13      HGA3     0.090000        1.0080           0
     52261 WT17     1092     MECN     C2       CG1N1    0.360000       12.0110           0
     52262 WT17     1092     MECN     N3       NG1T1   -0.460000       14.0070           0
     52263 WT17     1093     MECN     C1       CG331   -0.170000       12.0110           0
     52264 WT17     1093     MECN     H11      HGA3     0.090000        1.0080           0
     52265 WT17     1093     MECN     H12      HGA3     0.090000        1.0080           0
     52266 WT17     1093     MECN     H13      HGA3     0.090000        1.0080           0
     52267 WT17     1093     MECN     C2       CG1N1    0.360000       12.0110           0
     52268 WT17     1093     MECN     N3       NG1T1   -0.460000       14.0070           0
     52269 WT17     1094     MECN     C1       CG331   -0.170000       12.0110           0
     52270 WT17     1094     MECN     H11      HGA3     0.090000        1.0080           0
     52271 WT17     1094     MECN     H12      HGA3     0.090000        1.0080           0
     52272 WT17     1094     MECN     H13      HGA3     0.090000        1.0080           0
     52273 WT17     1094     MECN     C2       CG1N1    0.360000       12.0110           0
     52274 WT17     1094     MECN     N3       NG1T1   -0.460000       14.0070           0
     52275 WT17     1095     MECN     C1       CG331   -0.170000       12.0110           0
     52276 WT17     1095     MECN     H11      HGA3     0.090000        1.0080           0
     52277 WT17     1095     MECN     H12      HGA3     0.090000        1.0080           0
     52278 WT17     1095     MECN     H13      HGA3     0.090000        1.0080           0
     52279 WT17     1095     MECN     C2       CG1N1    0.360000       12.0110           0
     52280 WT17     1095     MECN     N3       NG1T1   -0.460000       14.0070           0
     52281 WT17     1097     MECN     C1       CG331   -0.170000       12.0110           0
     52282 WT17     1097     MECN     H11      HGA3     0.090000        1.0080           0
     52283 WT17     1097     MECN     H12      HGA3     0.090000        1.0080           0
     52284 WT17     1097     MECN     H13      HGA3     0.090000        1.0080           0
     52285 WT17     1097     MECN     C2       CG1N1    0.360000       12.0110           0
     52286 WT17     1097     MECN     N3       NG1T1   -0.460000       14.0070           0
     52287 WT17     1100     MECN     C1       CG331   -0.170000       12.0110           0
     52288 WT17     1100     MECN     H11      HGA3     0.090000        1.0080           0
     52289 WT17     1100     MECN     H12      HGA3     0.090000        1.0080           0
     52290 WT17     1100     MECN     H13      HGA3     0.090000        1.0080           0
     52291 WT17     1100     MECN     C2       CG1N1    0.360000       12.0110           0
     52292 WT17     1100     MECN     N3       NG1T1   -0.460000       14.0070           0
     52293 WT17     1102     MECN     C1       CG331   -0.170000       12.0110           0
     52294 WT17     1102     MECN     H11      HGA3     0.090000        1.0080           0
     52295 WT17     1102     MECN     H12      HGA3     0.090000        1.0080           0
     52296 WT17     1102     MECN     H13      HGA3     0.090000        1.0080           0
     52297 WT17     1102     MECN     C2       CG1N1    0.360000       12.0110           0
     52298 WT17     1102     MECN     N3       NG1T1   -0.460000       14.0070           0
     52299 WT17     1103     MECN     C1       CG331   -0.170000       12.0110           0
     52300 WT17     1103     MECN     H11      HGA3     0.090000        1.0080           0
     52301 WT17     1103     MECN     H12      HGA3     0.090000        1.0080           0
     52302 WT17     1103     MECN     H13      HGA3     0.090000        1.0080           0
     52303 WT17     1103     MECN     C2       CG1N1    0.360000       12.0110           0
     52304 WT17     1103     MECN     N3       NG1T1   -0.460000       14.0070           0
     52305 WT17     1104     MECN     C1       CG331   -0.170000       12.0110           0
     52306 WT17     1104     MECN     H11      HGA3     0.090000        1.0080           0
     52307 WT17     1104     MECN     H12      HGA3     0.090000        1.0080           0
     52308 WT17     1104     MECN     H13      HGA3     0.090000        1.0080           0
     52309 WT17     1104     MECN     C2       CG1N1    0.360000       12.0110           0
     52310 WT17     1104     MECN     N3       NG1T1   -0.460000       14.0070           0
     52311 WT17     1105     MECN     C1       CG331   -0.170000       12.0110           0
     52312 WT17     1105     MECN     H11      HGA3     0.090000        1.0080           0
     52313 WT17     1105     MECN     H12      HGA3     0.090000        1.0080           0
     52314 WT17     1105     MECN     H13      HGA3     0.090000        1.0080           0
     52315 WT17     1105     MECN     C2       CG1N1    0.360000       12.0110           0
     52316 WT17     1105     MECN     N3       NG1T1   -0.460000       14.0070           0
     52317 WT17     1106     MECN     C1       CG331   -0.170000       12.0110           0
     52318 WT17     1106     MECN     H11      HGA3     0.090000        1.0080           0
     52319 WT17     1106     MECN     H12      HGA3     0.090000        1.0080           0
     52320 WT17     1106     MECN     H13      HGA3     0.090000        1.0080           0
     52321 WT17     1106     MECN     C2       CG1N1    0.360000       12.0110           0
     52322 WT17     1106     MECN     N3       NG1T1   -0.460000       14.0070           0
     52323 WT17     1108     MECN     C1       CG331   -0.170000       12.0110           0
     52324 WT17     1108     MECN     H11      HGA3     0.090000        1.0080           0
     52325 WT17     1108     MECN     H12      HGA3     0.090000        1.0080           0
     52326 WT17     1108     MECN     H13      HGA3     0.090000        1.0080           0
     52327 WT17     1108     MECN     C2       CG1N1    0.360000       12.0110           0
     52328 WT17     1108     MECN     N3       NG1T1   -0.460000       14.0070           0
     52329 WT17     1109     MECN     C1       CG331   -0.170000       12.0110           0
     52330 WT17     1109     MECN     H11      HGA3     0.090000        1.0080           0
     52331 WT17     1109     MECN     H12      HGA3     0.090000        1.0080           0
     52332 WT17     1109     MECN     H13      HGA3     0.090000        1.0080           0
     52333 WT17     1109     MECN     C2       CG1N1    0.360000       12.0110           0
     52334 WT17     1109     MECN     N3       NG1T1   -0.460000       14.0070           0
     52335 WT17     1111     MECN     C1       CG331   -0.170000       12.0110           0
     52336 WT17     1111     MECN     H11      HGA3     0.090000        1.0080           0
     52337 WT17     1111     MECN     H12      HGA3     0.090000        1.0080           0
     52338 WT17     1111     MECN     H13      HGA3     0.090000        1.0080           0
     52339 WT17     1111     MECN     C2       CG1N1    0.360000       12.0110           0
     52340 WT17     1111     MECN     N3       NG1T1   -0.460000       14.0070           0
     52341 WT17     1114     MECN     C1       CG331   -0.170000       12.0110           0
     52342 WT17     1114     MECN     H11      HGA3     0.090000        1.0080           0
     52343 WT17     1114     MECN     H12      HGA3     0.090000        1.0080           0
     52344 WT17     1114     MECN     H13      HGA3     0.090000        1.0080           0
     52345 WT17     1114     MECN     C2       CG1N1    0.360000       12.0110           0
     52346 WT17     1114     MECN     N3       NG1T1   -0.460000       14.0070           0
     52347 WT17     1115     MECN     C1       CG331   -0.170000       12.0110           0
     52348 WT17     1115     MECN     H11      HGA3     0.090000        1.0080           0
     52349 WT17     1115     MECN     H12      HGA3     0.090000        1.0080           0
     52350 WT17     1115     MECN     H13      HGA3     0.090000        1.0080           0
     52351 WT17     1115     MECN     C2       CG1N1    0.360000       12.0110           0
     52352 WT17     1115     MECN     N3       NG1T1   -0.460000       14.0070           0
     52353 WT17     1116     MECN     C1       CG331   -0.170000       12.0110           0
     52354 WT17     1116     MECN     H11      HGA3     0.090000        1.0080           0
     52355 WT17     1116     MECN     H12      HGA3     0.090000        1.0080           0
     52356 WT17     1116     MECN     H13      HGA3     0.090000        1.0080           0
     52357 WT17     1116     MECN     C2       CG1N1    0.360000       12.0110           0
     52358 WT17     1116     MECN     N3       NG1T1   -0.460000       14.0070           0
     52359 WT17     1118     MECN     C1       CG331   -0.170000       12.0110           0
     52360 WT17     1118     MECN     H11      HGA3     0.090000        1.0080           0
     52361 WT17     1118     MECN     H12      HGA3     0.090000        1.0080           0
     52362 WT17     1118     MECN     H13      HGA3     0.090000        1.0080           0
     52363 WT17     1118     MECN     C2       CG1N1    0.360000       12.0110           0
     52364 WT17     1118     MECN     N3       NG1T1   -0.460000       14.0070           0
     52365 WT17     1119     MECN     C1       CG331   -0.170000       12.0110           0
     52366 WT17     1119     MECN     H11      HGA3     0.090000        1.0080           0
     52367 WT17     1119     MECN     H12      HGA3     0.090000        1.0080           0
     52368 WT17     1119     MECN     H13      HGA3     0.090000        1.0080           0
     52369 WT17     1119     MECN     C2       CG1N1    0.360000       12.0110           0
     52370 WT17     1119     MECN     N3       NG1T1   -0.460000       14.0070           0
     52371 WT17     1120     MECN     C1       CG331   -0.170000       12.0110           0
     52372 WT17     1120     MECN     H11      HGA3     0.090000        1.0080           0
     52373 WT17     1120     MECN     H12      HGA3     0.090000        1.0080           0
     52374 WT17     1120     MECN     H13      HGA3     0.090000        1.0080           0
     52375 WT17     1120     MECN     C2       CG1N1    0.360000       12.0110           0
     52376 WT17     1120     MECN     N3       NG1T1   -0.460000       14.0070           0
     52377 WT17     1125     MECN     C1       CG331   -0.170000       12.0110           0
     52378 WT17     1125     MECN     H11      HGA3     0.090000        1.0080           0
     52379 WT17     1125     MECN     H12      HGA3     0.090000        1.0080           0
     52380 WT17     1125     MECN     H13      HGA3     0.090000        1.0080           0
     52381 WT17     1125     MECN     C2       CG1N1    0.360000       12.0110           0
     52382 WT17     1125     MECN     N3       NG1T1   -0.460000       14.0070           0
     52383 WT17     1127     MECN     C1       CG331   -0.170000       12.0110           0
     52384 WT17     1127     MECN     H11      HGA3     0.090000        1.0080           0
     52385 WT17     1127     MECN     H12      HGA3     0.090000        1.0080           0
     52386 WT17     1127     MECN     H13      HGA3     0.090000        1.0080           0
     52387 WT17     1127     MECN     C2       CG1N1    0.360000       12.0110           0
     52388 WT17     1127     MECN     N3       NG1T1   -0.460000       14.0070           0
     52389 WT17     1128     MECN     C1       CG331   -0.170000       12.0110           0
     52390 WT17     1128     MECN     H11      HGA3     0.090000        1.0080           0
     52391 WT17     1128     MECN     H12      HGA3     0.090000        1.0080           0
     52392 WT17     1128     MECN     H13      HGA3     0.090000        1.0080           0
     52393 WT17     1128     MECN     C2       CG1N1    0.360000       12.0110           0
     52394 WT17     1128     MECN     N3       NG1T1   -0.460000       14.0070           0
     52395 WT17     1132     MECN     C1       CG331   -0.170000       12.0110           0
     52396 WT17     1132     MECN     H11      HGA3     0.090000        1.0080           0
     52397 WT17     1132     MECN     H12      HGA3     0.090000        1.0080           0
     52398 WT17     1132     MECN     H13      HGA3     0.090000        1.0080           0
     52399 WT17     1132     MECN     C2       CG1N1    0.360000       12.0110           0
     52400 WT17     1132     MECN     N3       NG1T1   -0.460000       14.0070           0
     52401 WT17     1133     MECN     C1       CG331   -0.170000       12.0110           0
     52402 WT17     1133     MECN     H11      HGA3     0.090000        1.0080           0
     52403 WT17     1133     MECN     H12      HGA3     0.090000        1.0080           0
     52404 WT17     1133     MECN     H13      HGA3     0.090000        1.0080           0
     52405 WT17     1133     MECN     C2       CG1N1    0.360000       12.0110           0
     52406 WT17     1133     MECN     N3       NG1T1   -0.460000       14.0070           0
     52407 WT17     1137     MECN     C1       CG331   -0.170000       12.0110           0
     52408 WT17     1137     MECN     H11      HGA3     0.090000        1.0080           0
     52409 WT17     1137     MECN     H12      HGA3     0.090000        1.0080           0
     52410 WT17     1137     MECN     H13      HGA3     0.090000        1.0080           0
     52411 WT17     1137     MECN     C2       CG1N1    0.360000       12.0110           0
     52412 WT17     1137     MECN     N3       NG1T1   -0.460000       14.0070           0
     52413 WT17     1140     MECN     C1       CG331   -0.170000       12.0110           0
     52414 WT17     1140     MECN     H11      HGA3     0.090000        1.0080           0
     52415 WT17     1140     MECN     H12      HGA3     0.090000        1.0080           0
     52416 WT17     1140     MECN     H13      HGA3     0.090000        1.0080           0
     52417 WT17     1140     MECN     C2       CG1N1    0.360000       12.0110           0
     52418 WT17     1140     MECN     N3       NG1T1   -0.460000       14.0070           0
     52419 WT17     1141     MECN     C1       CG331   -0.170000       12.0110           0
     52420 WT17     1141     MECN     H11      HGA3     0.090000        1.0080           0
     52421 WT17     1141     MECN     H12      HGA3     0.090000        1.0080           0
     52422 WT17     1141     MECN     H13      HGA3     0.090000        1.0080           0
     52423 WT17     1141     MECN     C2       CG1N1    0.360000       12.0110           0
     52424 WT17     1141     MECN     N3       NG1T1   -0.460000       14.0070           0
     52425 WT17     1142     MECN     C1       CG331   -0.170000       12.0110           0
     52426 WT17     1142     MECN     H11      HGA3     0.090000        1.0080           0
     52427 WT17     1142     MECN     H12      HGA3     0.090000        1.0080           0
     52428 WT17     1142     MECN     H13      HGA3     0.090000        1.0080           0
     52429 WT17     1142     MECN     C2       CG1N1    0.360000       12.0110           0
     52430 WT17     1142     MECN     N3       NG1T1   -0.460000       14.0070           0
     52431 WT17     1144     MECN     C1       CG331   -0.170000       12.0110           0
     52432 WT17     1144     MECN     H11      HGA3     0.090000        1.0080           0
     52433 WT17     1144     MECN     H12      HGA3     0.090000        1.0080           0
     52434 WT17     1144     MECN     H13      HGA3     0.090000        1.0080           0
     52435 WT17     1144     MECN     C2       CG1N1    0.360000       12.0110           0
     52436 WT17     1144     MECN     N3       NG1T1   -0.460000       14.0070           0
     52437 WT17     1145     MECN     C1       CG331   -0.170000       12.0110           0
     52438 WT17     1145     MECN     H11      HGA3     0.090000        1.0080           0
     52439 WT17     1145     MECN     H12      HGA3     0.090000        1.0080           0
     52440 WT17     1145     MECN     H13      HGA3     0.090000        1.0080           0
     52441 WT17     1145     MECN     C2       CG1N1    0.360000       12.0110           0
     52442 WT17     1145     MECN     N3       NG1T1   -0.460000       14.0070           0
     52443 WT17     1146     MECN     C1       CG331   -0.170000       12.0110           0
     52444 WT17     1146     MECN     H11      HGA3     0.090000        1.0080           0
     52445 WT17     1146     MECN     H12      HGA3     0.090000        1.0080           0
     52446 WT17     1146     MECN     H13      HGA3     0.090000        1.0080           0
     52447 WT17     1146     MECN     C2       CG1N1    0.360000       12.0110           0
     52448 WT17     1146     MECN     N3       NG1T1   -0.460000       14.0070           0
     52449 WT17     1147     MECN     C1       CG331   -0.170000       12.0110           0
     52450 WT17     1147     MECN     H11      HGA3     0.090000        1.0080           0
     52451 WT17     1147     MECN     H12      HGA3     0.090000        1.0080           0
     52452 WT17     1147     MECN     H13      HGA3     0.090000        1.0080           0
     52453 WT17     1147     MECN     C2       CG1N1    0.360000       12.0110           0
     52454 WT17     1147     MECN     N3       NG1T1   -0.460000       14.0070           0
     52455 WT17     1148     MECN     C1       CG331   -0.170000       12.0110           0
     52456 WT17     1148     MECN     H11      HGA3     0.090000        1.0080           0
     52457 WT17     1148     MECN     H12      HGA3     0.090000        1.0080           0
     52458 WT17     1148     MECN     H13      HGA3     0.090000        1.0080           0
     52459 WT17     1148     MECN     C2       CG1N1    0.360000       12.0110           0
     52460 WT17     1148     MECN     N3       NG1T1   -0.460000       14.0070           0
     52461 WT17     1149     MECN     C1       CG331   -0.170000       12.0110           0
     52462 WT17     1149     MECN     H11      HGA3     0.090000        1.0080           0
     52463 WT17     1149     MECN     H12      HGA3     0.090000        1.0080           0
     52464 WT17     1149     MECN     H13      HGA3     0.090000        1.0080           0
     52465 WT17     1149     MECN     C2       CG1N1    0.360000       12.0110           0
     52466 WT17     1149     MECN     N3       NG1T1   -0.460000       14.0070           0
     52467 WT17     1150     MECN     C1       CG331   -0.170000       12.0110           0
     52468 WT17     1150     MECN     H11      HGA3     0.090000        1.0080           0
     52469 WT17     1150     MECN     H12      HGA3     0.090000        1.0080           0
     52470 WT17     1150     MECN     H13      HGA3     0.090000        1.0080           0
     52471 WT17     1150     MECN     C2       CG1N1    0.360000       12.0110           0
     52472 WT17     1150     MECN     N3       NG1T1   -0.460000       14.0070           0
     52473 WT17     1151     MECN     C1       CG331   -0.170000       12.0110           0
     52474 WT17     1151     MECN     H11      HGA3     0.090000        1.0080           0
     52475 WT17     1151     MECN     H12      HGA3     0.090000        1.0080           0
     52476 WT17     1151     MECN     H13      HGA3     0.090000        1.0080           0
     52477 WT17     1151     MECN     C2       CG1N1    0.360000       12.0110           0
     52478 WT17     1151     MECN     N3       NG1T1   -0.460000       14.0070           0
     52479 WT17     1152     MECN     C1       CG331   -0.170000       12.0110           0
     52480 WT17     1152     MECN     H11      HGA3     0.090000        1.0080           0
     52481 WT17     1152     MECN     H12      HGA3     0.090000        1.0080           0
     52482 WT17     1152     MECN     H13      HGA3     0.090000        1.0080           0
     52483 WT17     1152     MECN     C2       CG1N1    0.360000       12.0110           0
     52484 WT17     1152     MECN     N3       NG1T1   -0.460000       14.0070           0
     52485 WT17     1154     MECN     C1       CG331   -0.170000       12.0110           0
     52486 WT17     1154     MECN     H11      HGA3     0.090000        1.0080           0
     52487 WT17     1154     MECN     H12      HGA3     0.090000        1.0080           0
     52488 WT17     1154     MECN     H13      HGA3     0.090000        1.0080           0
     52489 WT17     1154     MECN     C2       CG1N1    0.360000       12.0110           0
     52490 WT17     1154     MECN     N3       NG1T1   -0.460000       14.0070           0
     52491 WT17     1156     MECN     C1       CG331   -0.170000       12.0110           0
     52492 WT17     1156     MECN     H11      HGA3     0.090000        1.0080           0
     52493 WT17     1156     MECN     H12      HGA3     0.090000        1.0080           0
     52494 WT17     1156     MECN     H13      HGA3     0.090000        1.0080           0
     52495 WT17     1156     MECN     C2       CG1N1    0.360000       12.0110           0
     52496 WT17     1156     MECN     N3       NG1T1   -0.460000       14.0070           0
     52497 WT17     1159     MECN     C1       CG331   -0.170000       12.0110           0
     52498 WT17     1159     MECN     H11      HGA3     0.090000        1.0080           0
     52499 WT17     1159     MECN     H12      HGA3     0.090000        1.0080           0
     52500 WT17     1159     MECN     H13      HGA3     0.090000        1.0080           0
     52501 WT17     1159     MECN     C2       CG1N1    0.360000       12.0110           0
     52502 WT17     1159     MECN     N3       NG1T1   -0.460000       14.0070           0
     52503 WT17     1160     MECN     C1       CG331   -0.170000       12.0110           0
     52504 WT17     1160     MECN     H11      HGA3     0.090000        1.0080           0
     52505 WT17     1160     MECN     H12      HGA3     0.090000        1.0080           0
     52506 WT17     1160     MECN     H13      HGA3     0.090000        1.0080           0
     52507 WT17     1160     MECN     C2       CG1N1    0.360000       12.0110           0
     52508 WT17     1160     MECN     N3       NG1T1   -0.460000       14.0070           0
     52509 WT17     1162     MECN     C1       CG331   -0.170000       12.0110           0
     52510 WT17     1162     MECN     H11      HGA3     0.090000        1.0080           0
     52511 WT17     1162     MECN     H12      HGA3     0.090000        1.0080           0
     52512 WT17     1162     MECN     H13      HGA3     0.090000        1.0080           0
     52513 WT17     1162     MECN     C2       CG1N1    0.360000       12.0110           0
     52514 WT17     1162     MECN     N3       NG1T1   -0.460000       14.0070           0
     52515 WT17     1167     MECN     C1       CG331   -0.170000       12.0110           0
     52516 WT17     1167     MECN     H11      HGA3     0.090000        1.0080           0
     52517 WT17     1167     MECN     H12      HGA3     0.090000        1.0080           0
     52518 WT17     1167     MECN     H13      HGA3     0.090000        1.0080           0
     52519 WT17     1167     MECN     C2       CG1N1    0.360000       12.0110           0
     52520 WT17     1167     MECN     N3       NG1T1   -0.460000       14.0070           0
     52521 WT17     1168     MECN     C1       CG331   -0.170000       12.0110           0
     52522 WT17     1168     MECN     H11      HGA3     0.090000        1.0080           0
     52523 WT17     1168     MECN     H12      HGA3     0.090000        1.0080           0
     52524 WT17     1168     MECN     H13      HGA3     0.090000        1.0080           0
     52525 WT17     1168     MECN     C2       CG1N1    0.360000       12.0110           0
     52526 WT17     1168     MECN     N3       NG1T1   -0.460000       14.0070           0
     52527 WT17     1170     MECN     C1       CG331   -0.170000       12.0110           0
     52528 WT17     1170     MECN     H11      HGA3     0.090000        1.0080           0
     52529 WT17     1170     MECN     H12      HGA3     0.090000        1.0080           0
     52530 WT17     1170     MECN     H13      HGA3     0.090000        1.0080           0
     52531 WT17     1170     MECN     C2       CG1N1    0.360000       12.0110           0
     52532 WT17     1170     MECN     N3       NG1T1   -0.460000       14.0070           0
     52533 WT17     1171     MECN     C1       CG331   -0.170000       12.0110           0
     52534 WT17     1171     MECN     H11      HGA3     0.090000        1.0080           0
     52535 WT17     1171     MECN     H12      HGA3     0.090000        1.0080           0
     52536 WT17     1171     MECN     H13      HGA3     0.090000        1.0080           0
     52537 WT17     1171     MECN     C2       CG1N1    0.360000       12.0110           0
     52538 WT17     1171     MECN     N3       NG1T1   -0.460000       14.0070           0
     52539 WT17     1175     MECN     C1       CG331   -0.170000       12.0110           0
     52540 WT17     1175     MECN     H11      HGA3     0.090000        1.0080           0
     52541 WT17     1175     MECN     H12      HGA3     0.090000        1.0080           0
     52542 WT17     1175     MECN     H13      HGA3     0.090000        1.0080           0
     52543 WT17     1175     MECN     C2       CG1N1    0.360000       12.0110           0
     52544 WT17     1175     MECN     N3       NG1T1   -0.460000       14.0070           0
     52545 WT17     1176     MECN     C1       CG331   -0.170000       12.0110           0
     52546 WT17     1176     MECN     H11      HGA3     0.090000        1.0080           0
     52547 WT17     1176     MECN     H12      HGA3     0.090000        1.0080           0
     52548 WT17     1176     MECN     H13      HGA3     0.090000        1.0080           0
     52549 WT17     1176     MECN     C2       CG1N1    0.360000       12.0110           0
     52550 WT17     1176     MECN     N3       NG1T1   -0.460000       14.0070           0
     52551 WT17     1177     MECN     C1       CG331   -0.170000       12.0110           0
     52552 WT17     1177     MECN     H11      HGA3     0.090000        1.0080           0
     52553 WT17     1177     MECN     H12      HGA3     0.090000        1.0080           0
     52554 WT17     1177     MECN     H13      HGA3     0.090000        1.0080           0
     52555 WT17     1177     MECN     C2       CG1N1    0.360000       12.0110           0
     52556 WT17     1177     MECN     N3       NG1T1   -0.460000       14.0070           0
     52557 WT17     1178     MECN     C1       CG331   -0.170000       12.0110           0
     52558 WT17     1178     MECN     H11      HGA3     0.090000        1.0080           0
     52559 WT17     1178     MECN     H12      HGA3     0.090000        1.0080           0
     52560 WT17     1178     MECN     H13      HGA3     0.090000        1.0080           0
     52561 WT17     1178     MECN     C2       CG1N1    0.360000       12.0110           0
     52562 WT17     1178     MECN     N3       NG1T1   -0.460000       14.0070           0
     52563 WT17     1179     MECN     C1       CG331   -0.170000       12.0110           0
     52564 WT17     1179     MECN     H11      HGA3     0.090000        1.0080           0
     52565 WT17     1179     MECN     H12      HGA3     0.090000        1.0080           0
     52566 WT17     1179     MECN     H13      HGA3     0.090000        1.0080           0
     52567 WT17     1179     MECN     C2       CG1N1    0.360000       12.0110           0
     52568 WT17     1179     MECN     N3       NG1T1   -0.460000       14.0070           0
     52569 WT17     1180     MECN     C1       CG331   -0.170000       12.0110           0
     52570 WT17     1180     MECN     H11      HGA3     0.090000        1.0080           0
     52571 WT17     1180     MECN     H12      HGA3     0.090000        1.0080           0
     52572 WT17     1180     MECN     H13      HGA3     0.090000        1.0080           0
     52573 WT17     1180     MECN     C2       CG1N1    0.360000       12.0110           0
     52574 WT17     1180     MECN     N3       NG1T1   -0.460000       14.0070           0
     52575 WT17     1181     MECN     C1       CG331   -0.170000       12.0110           0
     52576 WT17     1181     MECN     H11      HGA3     0.090000        1.0080           0
     52577 WT17     1181     MECN     H12      HGA3     0.090000        1.0080           0
     52578 WT17     1181     MECN     H13      HGA3     0.090000        1.0080           0
     52579 WT17     1181     MECN     C2       CG1N1    0.360000       12.0110           0
     52580 WT17     1181     MECN     N3       NG1T1   -0.460000       14.0070           0
     52581 WT17     1182     MECN     C1       CG331   -0.170000       12.0110           0
     52582 WT17     1182     MECN     H11      HGA3     0.090000        1.0080           0
     52583 WT17     1182     MECN     H12      HGA3     0.090000        1.0080           0
     52584 WT17     1182     MECN     H13      HGA3     0.090000        1.0080           0
     52585 WT17     1182     MECN     C2       CG1N1    0.360000       12.0110           0
     52586 WT17     1182     MECN     N3       NG1T1   -0.460000       14.0070           0
     52587 WT17     1183     MECN     C1       CG331   -0.170000       12.0110           0
     52588 WT17     1183     MECN     H11      HGA3     0.090000        1.0080           0
     52589 WT17     1183     MECN     H12      HGA3     0.090000        1.0080           0
     52590 WT17     1183     MECN     H13      HGA3     0.090000        1.0080           0
     52591 WT17     1183     MECN     C2       CG1N1    0.360000       12.0110           0
     52592 WT17     1183     MECN     N3       NG1T1   -0.460000       14.0070           0
     52593 WT17     1184     MECN     C1       CG331   -0.170000       12.0110           0
     52594 WT17     1184     MECN     H11      HGA3     0.090000        1.0080           0
     52595 WT17     1184     MECN     H12      HGA3     0.090000        1.0080           0
     52596 WT17     1184     MECN     H13      HGA3     0.090000        1.0080           0
     52597 WT17     1184     MECN     C2       CG1N1    0.360000       12.0110           0
     52598 WT17     1184     MECN     N3       NG1T1   -0.460000       14.0070           0
     52599 WT17     1185     MECN     C1       CG331   -0.170000       12.0110           0
     52600 WT17     1185     MECN     H11      HGA3     0.090000        1.0080           0
     52601 WT17     1185     MECN     H12      HGA3     0.090000        1.0080           0
     52602 WT17     1185     MECN     H13      HGA3     0.090000        1.0080           0
     52603 WT17     1185     MECN     C2       CG1N1    0.360000       12.0110           0
     52604 WT17     1185     MECN     N3       NG1T1   -0.460000       14.0070           0
     52605 WT17     1186     MECN     C1       CG331   -0.170000       12.0110           0
     52606 WT17     1186     MECN     H11      HGA3     0.090000        1.0080           0
     52607 WT17     1186     MECN     H12      HGA3     0.090000        1.0080           0
     52608 WT17     1186     MECN     H13      HGA3     0.090000        1.0080           0
     52609 WT17     1186     MECN     C2       CG1N1    0.360000       12.0110           0
     52610 WT17     1186     MECN     N3       NG1T1   -0.460000       14.0070           0
     52611 WT17     1188     MECN     C1       CG331   -0.170000       12.0110           0
     52612 WT17     1188     MECN     H11      HGA3     0.090000        1.0080           0
     52613 WT17     1188     MECN     H12      HGA3     0.090000        1.0080           0
     52614 WT17     1188     MECN     H13      HGA3     0.090000        1.0080           0
     52615 WT17     1188     MECN     C2       CG1N1    0.360000       12.0110           0
     52616 WT17     1188     MECN     N3       NG1T1   -0.460000       14.0070           0
     52617 WT17     1194     MECN     C1       CG331   -0.170000       12.0110           0
     52618 WT17     1194     MECN     H11      HGA3     0.090000        1.0080           0
     52619 WT17     1194     MECN     H12      HGA3     0.090000        1.0080           0
     52620 WT17     1194     MECN     H13      HGA3     0.090000        1.0080           0
     52621 WT17     1194     MECN     C2       CG1N1    0.360000       12.0110           0
     52622 WT17     1194     MECN     N3       NG1T1   -0.460000       14.0070           0
     52623 WT17     1196     MECN     C1       CG331   -0.170000       12.0110           0
     52624 WT17     1196     MECN     H11      HGA3     0.090000        1.0080           0
     52625 WT17     1196     MECN     H12      HGA3     0.090000        1.0080           0
     52626 WT17     1196     MECN     H13      HGA3     0.090000        1.0080           0
     52627 WT17     1196     MECN     C2       CG1N1    0.360000       12.0110           0
     52628 WT17     1196     MECN     N3       NG1T1   -0.460000       14.0070           0
     52629 WT17     1200     MECN     C1       CG331   -0.170000       12.0110           0
     52630 WT17     1200     MECN     H11      HGA3     0.090000        1.0080           0
     52631 WT17     1200     MECN     H12      HGA3     0.090000        1.0080           0
     52632 WT17     1200     MECN     H13      HGA3     0.090000        1.0080           0
     52633 WT17     1200     MECN     C2       CG1N1    0.360000       12.0110           0
     52634 WT17     1200     MECN     N3       NG1T1   -0.460000       14.0070           0
     52635 WT17     1201     MECN     C1       CG331   -0.170000       12.0110           0
     52636 WT17     1201     MECN     H11      HGA3     0.090000        1.0080           0
     52637 WT17     1201     MECN     H12      HGA3     0.090000        1.0080           0
     52638 WT17     1201     MECN     H13      HGA3     0.090000        1.0080           0
     52639 WT17     1201     MECN     C2       CG1N1    0.360000       12.0110           0
     52640 WT17     1201     MECN     N3       NG1T1   -0.460000       14.0070           0
     52641 WT17     1202     MECN     C1       CG331   -0.170000       12.0110           0
     52642 WT17     1202     MECN     H11      HGA3     0.090000        1.0080           0
     52643 WT17     1202     MECN     H12      HGA3     0.090000        1.0080           0
     52644 WT17     1202     MECN     H13      HGA3     0.090000        1.0080           0
     52645 WT17     1202     MECN     C2       CG1N1    0.360000       12.0110           0
     52646 WT17     1202     MECN     N3       NG1T1   -0.460000       14.0070           0
     52647 WT17     1203     MECN     C1       CG331   -0.170000       12.0110           0
     52648 WT17     1203     MECN     H11      HGA3     0.090000        1.0080           0
     52649 WT17     1203     MECN     H12      HGA3     0.090000        1.0080           0
     52650 WT17     1203     MECN     H13      HGA3     0.090000        1.0080           0
     52651 WT17     1203     MECN     C2       CG1N1    0.360000       12.0110           0
     52652 WT17     1203     MECN     N3       NG1T1   -0.460000       14.0070           0
     52653 WT17     1204     MECN     C1       CG331   -0.170000       12.0110           0
     52654 WT17     1204     MECN     H11      HGA3     0.090000        1.0080           0
     52655 WT17     1204     MECN     H12      HGA3     0.090000        1.0080           0
     52656 WT17     1204     MECN     H13      HGA3     0.090000        1.0080           0
     52657 WT17     1204     MECN     C2       CG1N1    0.360000       12.0110           0
     52658 WT17     1204     MECN     N3       NG1T1   -0.460000       14.0070           0
     52659 WT17     1206     MECN     C1       CG331   -0.170000       12.0110           0
     52660 WT17     1206     MECN     H11      HGA3     0.090000        1.0080           0
     52661 WT17     1206     MECN     H12      HGA3     0.090000        1.0080           0
     52662 WT17     1206     MECN     H13      HGA3     0.090000        1.0080           0
     52663 WT17     1206     MECN     C2       CG1N1    0.360000       12.0110           0
     52664 WT17     1206     MECN     N3       NG1T1   -0.460000       14.0070           0
     52665 WT17     1207     MECN     C1       CG331   -0.170000       12.0110           0
     52666 WT17     1207     MECN     H11      HGA3     0.090000        1.0080           0
     52667 WT17     1207     MECN     H12      HGA3     0.090000        1.0080           0
     52668 WT17     1207     MECN     H13      HGA3     0.090000        1.0080           0
     52669 WT17     1207     MECN     C2       CG1N1    0.360000       12.0110           0
     52670 WT17     1207     MECN     N3       NG1T1   -0.460000       14.0070           0
     52671 WT17     1208     MECN     C1       CG331   -0.170000       12.0110           0
     52672 WT17     1208     MECN     H11      HGA3     0.090000        1.0080           0
     52673 WT17     1208     MECN     H12      HGA3     0.090000        1.0080           0
     52674 WT17     1208     MECN     H13      HGA3     0.090000        1.0080           0
     52675 WT17     1208     MECN     C2       CG1N1    0.360000       12.0110           0
     52676 WT17     1208     MECN     N3       NG1T1   -0.460000       14.0070           0
     52677 WT17     1209     MECN     C1       CG331   -0.170000       12.0110           0
     52678 WT17     1209     MECN     H11      HGA3     0.090000        1.0080           0
     52679 WT17     1209     MECN     H12      HGA3     0.090000        1.0080           0
     52680 WT17     1209     MECN     H13      HGA3     0.090000        1.0080           0
     52681 WT17     1209     MECN     C2       CG1N1    0.360000       12.0110           0
     52682 WT17     1209     MECN     N3       NG1T1   -0.460000       14.0070           0
     52683 WT17     1213     MECN     C1       CG331   -0.170000       12.0110           0
     52684 WT17     1213     MECN     H11      HGA3     0.090000        1.0080           0
     52685 WT17     1213     MECN     H12      HGA3     0.090000        1.0080           0
     52686 WT17     1213     MECN     H13      HGA3     0.090000        1.0080           0
     52687 WT17     1213     MECN     C2       CG1N1    0.360000       12.0110           0
     52688 WT17     1213     MECN     N3       NG1T1   -0.460000       14.0070           0
     52689 WT17     1215     MECN     C1       CG331   -0.170000       12.0110           0
     52690 WT17     1215     MECN     H11      HGA3     0.090000        1.0080           0
     52691 WT17     1215     MECN     H12      HGA3     0.090000        1.0080           0
     52692 WT17     1215     MECN     H13      HGA3     0.090000        1.0080           0
     52693 WT17     1215     MECN     C2       CG1N1    0.360000       12.0110           0
     52694 WT17     1215     MECN     N3       NG1T1   -0.460000       14.0070           0
     52695 WT17     1216     MECN     C1       CG331   -0.170000       12.0110           0
     52696 WT17     1216     MECN     H11      HGA3     0.090000        1.0080           0
     52697 WT17     1216     MECN     H12      HGA3     0.090000        1.0080           0
     52698 WT17     1216     MECN     H13      HGA3     0.090000        1.0080           0
     52699 WT17     1216     MECN     C2       CG1N1    0.360000       12.0110           0
     52700 WT17     1216     MECN     N3       NG1T1   -0.460000       14.0070           0
     52701 WT17     1217     MECN     C1       CG331   -0.170000       12.0110           0
     52702 WT17     1217     MECN     H11      HGA3     0.090000        1.0080           0
     52703 WT17     1217     MECN     H12      HGA3     0.090000        1.0080           0
     52704 WT17     1217     MECN     H13      HGA3     0.090000        1.0080           0
     52705 WT17     1217     MECN     C2       CG1N1    0.360000       12.0110           0
     52706 WT17     1217     MECN     N3       NG1T1   -0.460000       14.0070           0
     52707 WT17     1218     MECN     C1       CG331   -0.170000       12.0110           0
     52708 WT17     1218     MECN     H11      HGA3     0.090000        1.0080           0
     52709 WT17     1218     MECN     H12      HGA3     0.090000        1.0080           0
     52710 WT17     1218     MECN     H13      HGA3     0.090000        1.0080           0
     52711 WT17     1218     MECN     C2       CG1N1    0.360000       12.0110           0
     52712 WT17     1218     MECN     N3       NG1T1   -0.460000       14.0070           0
     52713 WT17     1220     MECN     C1       CG331   -0.170000       12.0110           0
     52714 WT17     1220     MECN     H11      HGA3     0.090000        1.0080           0
     52715 WT17     1220     MECN     H12      HGA3     0.090000        1.0080           0
     52716 WT17     1220     MECN     H13      HGA3     0.090000        1.0080           0
     52717 WT17     1220     MECN     C2       CG1N1    0.360000       12.0110           0
     52718 WT17     1220     MECN     N3       NG1T1   -0.460000       14.0070           0
     52719 WT17     1221     MECN     C1       CG331   -0.170000       12.0110           0
     52720 WT17     1221     MECN     H11      HGA3     0.090000        1.0080           0
     52721 WT17     1221     MECN     H12      HGA3     0.090000        1.0080           0
     52722 WT17     1221     MECN     H13      HGA3     0.090000        1.0080           0
     52723 WT17     1221     MECN     C2       CG1N1    0.360000       12.0110           0
     52724 WT17     1221     MECN     N3       NG1T1   -0.460000       14.0070           0
     52725 WT17     1222     MECN     C1       CG331   -0.170000       12.0110           0
     52726 WT17     1222     MECN     H11      HGA3     0.090000        1.0080           0
     52727 WT17     1222     MECN     H12      HGA3     0.090000        1.0080           0
     52728 WT17     1222     MECN     H13      HGA3     0.090000        1.0080           0
     52729 WT17     1222     MECN     C2       CG1N1    0.360000       12.0110           0
     52730 WT17     1222     MECN     N3       NG1T1   -0.460000       14.0070           0
     52731 WT17     1224     MECN     C1       CG331   -0.170000       12.0110           0
     52732 WT17     1224     MECN     H11      HGA3     0.090000        1.0080           0
     52733 WT17     1224     MECN     H12      HGA3     0.090000        1.0080           0
     52734 WT17     1224     MECN     H13      HGA3     0.090000        1.0080           0
     52735 WT17     1224     MECN     C2       CG1N1    0.360000       12.0110           0
     52736 WT17     1224     MECN     N3       NG1T1   -0.460000       14.0070           0
     52737 WT17     1225     MECN     C1       CG331   -0.170000       12.0110           0
     52738 WT17     1225     MECN     H11      HGA3     0.090000        1.0080           0
     52739 WT17     1225     MECN     H12      HGA3     0.090000        1.0080           0
     52740 WT17     1225     MECN     H13      HGA3     0.090000        1.0080           0
     52741 WT17     1225     MECN     C2       CG1N1    0.360000       12.0110           0
     52742 WT17     1225     MECN     N3       NG1T1   -0.460000       14.0070           0
     52743 WT17     1226     MECN     C1       CG331   -0.170000       12.0110           0
     52744 WT17     1226     MECN     H11      HGA3     0.090000        1.0080           0
     52745 WT17     1226     MECN     H12      HGA3     0.090000        1.0080           0
     52746 WT17     1226     MECN     H13      HGA3     0.090000        1.0080           0
     52747 WT17     1226     MECN     C2       CG1N1    0.360000       12.0110           0
     52748 WT17     1226     MECN     N3       NG1T1   -0.460000       14.0070           0
     52749 WT17     1227     MECN     C1       CG331   -0.170000       12.0110           0
     52750 WT17     1227     MECN     H11      HGA3     0.090000        1.0080           0
     52751 WT17     1227     MECN     H12      HGA3     0.090000        1.0080           0
     52752 WT17     1227     MECN     H13      HGA3     0.090000        1.0080           0
     52753 WT17     1227     MECN     C2       CG1N1    0.360000       12.0110           0
     52754 WT17     1227     MECN     N3       NG1T1   -0.460000       14.0070           0
     52755 WT17     1229     MECN     C1       CG331   -0.170000       12.0110           0
     52756 WT17     1229     MECN     H11      HGA3     0.090000        1.0080           0
     52757 WT17     1229     MECN     H12      HGA3     0.090000        1.0080           0
     52758 WT17     1229     MECN     H13      HGA3     0.090000        1.0080           0
     52759 WT17     1229     MECN     C2       CG1N1    0.360000       12.0110           0
     52760 WT17     1229     MECN     N3       NG1T1   -0.460000       14.0070           0
     52761 WT17     1230     MECN     C1       CG331   -0.170000       12.0110           0
     52762 WT17     1230     MECN     H11      HGA3     0.090000        1.0080           0
     52763 WT17     1230     MECN     H12      HGA3     0.090000        1.0080           0
     52764 WT17     1230     MECN     H13      HGA3     0.090000        1.0080           0
     52765 WT17     1230     MECN     C2       CG1N1    0.360000       12.0110           0
     52766 WT17     1230     MECN     N3       NG1T1   -0.460000       14.0070           0
     52767 WT17     1233     MECN     C1       CG331   -0.170000       12.0110           0
     52768 WT17     1233     MECN     H11      HGA3     0.090000        1.0080           0
     52769 WT17     1233     MECN     H12      HGA3     0.090000        1.0080           0
     52770 WT17     1233     MECN     H13      HGA3     0.090000        1.0080           0
     52771 WT17     1233     MECN     C2       CG1N1    0.360000       12.0110           0
     52772 WT17     1233     MECN     N3       NG1T1   -0.460000       14.0070           0
     52773 WT17     1235     MECN     C1       CG331   -0.170000       12.0110           0
     52774 WT17     1235     MECN     H11      HGA3     0.090000        1.0080           0
     52775 WT17     1235     MECN     H12      HGA3     0.090000        1.0080           0
     52776 WT17     1235     MECN     H13      HGA3     0.090000        1.0080           0
     52777 WT17     1235     MECN     C2       CG1N1    0.360000       12.0110           0
     52778 WT17     1235     MECN     N3       NG1T1   -0.460000       14.0070           0
     52779 WT17     1237     MECN     C1       CG331   -0.170000       12.0110           0
     52780 WT17     1237     MECN     H11      HGA3     0.090000        1.0080           0
     52781 WT17     1237     MECN     H12      HGA3     0.090000        1.0080           0
     52782 WT17     1237     MECN     H13      HGA3     0.090000        1.0080           0
     52783 WT17     1237     MECN     C2       CG1N1    0.360000       12.0110           0
     52784 WT17     1237     MECN     N3       NG1T1   -0.460000       14.0070           0
     52785 WT17     1239     MECN     C1       CG331   -0.170000       12.0110           0
     52786 WT17     1239     MECN     H11      HGA3     0.090000        1.0080           0
     52787 WT17     1239     MECN     H12      HGA3     0.090000        1.0080           0
     52788 WT17     1239     MECN     H13      HGA3     0.090000        1.0080           0
     52789 WT17     1239     MECN     C2       CG1N1    0.360000       12.0110           0
     52790 WT17     1239     MECN     N3       NG1T1   -0.460000       14.0070           0
     52791 WT17     1240     MECN     C1       CG331   -0.170000       12.0110           0
     52792 WT17     1240     MECN     H11      HGA3     0.090000        1.0080           0
     52793 WT17     1240     MECN     H12      HGA3     0.090000        1.0080           0
     52794 WT17     1240     MECN     H13      HGA3     0.090000        1.0080           0
     52795 WT17     1240     MECN     C2       CG1N1    0.360000       12.0110           0
     52796 WT17     1240     MECN     N3       NG1T1   -0.460000       14.0070           0
     52797 WT17     1241     MECN     C1       CG331   -0.170000       12.0110           0
     52798 WT17     1241     MECN     H11      HGA3     0.090000        1.0080           0
     52799 WT17     1241     MECN     H12      HGA3     0.090000        1.0080           0
     52800 WT17     1241     MECN     H13      HGA3     0.090000        1.0080           0
     52801 WT17     1241     MECN     C2       CG1N1    0.360000       12.0110           0
     52802 WT17     1241     MECN     N3       NG1T1   -0.460000       14.0070           0
     52803 WT17     1243     MECN     C1       CG331   -0.170000       12.0110           0
     52804 WT17     1243     MECN     H11      HGA3     0.090000        1.0080           0
     52805 WT17     1243     MECN     H12      HGA3     0.090000        1.0080           0
     52806 WT17     1243     MECN     H13      HGA3     0.090000        1.0080           0
     52807 WT17     1243     MECN     C2       CG1N1    0.360000       12.0110           0
     52808 WT17     1243     MECN     N3       NG1T1   -0.460000       14.0070           0
     52809 WT17     1244     MECN     C1       CG331   -0.170000       12.0110           0
     52810 WT17     1244     MECN     H11      HGA3     0.090000        1.0080           0
     52811 WT17     1244     MECN     H12      HGA3     0.090000        1.0080           0
     52812 WT17     1244     MECN     H13      HGA3     0.090000        1.0080           0
     52813 WT17     1244     MECN     C2       CG1N1    0.360000       12.0110           0
     52814 WT17     1244     MECN     N3       NG1T1   -0.460000       14.0070           0
     52815 WT17     1245     MECN     C1       CG331   -0.170000       12.0110           0
     52816 WT17     1245     MECN     H11      HGA3     0.090000        1.0080           0
     52817 WT17     1245     MECN     H12      HGA3     0.090000        1.0080           0
     52818 WT17     1245     MECN     H13      HGA3     0.090000        1.0080           0
     52819 WT17     1245     MECN     C2       CG1N1    0.360000       12.0110           0
     52820 WT17     1245     MECN     N3       NG1T1   -0.460000       14.0070           0
     52821 WT17     1247     MECN     C1       CG331   -0.170000       12.0110           0
     52822 WT17     1247     MECN     H11      HGA3     0.090000        1.0080           0
     52823 WT17     1247     MECN     H12      HGA3     0.090000        1.0080           0
     52824 WT17     1247     MECN     H13      HGA3     0.090000        1.0080           0
     52825 WT17     1247     MECN     C2       CG1N1    0.360000       12.0110           0
     52826 WT17     1247     MECN     N3       NG1T1   -0.460000       14.0070           0
     52827 WT17     1248     MECN     C1       CG331   -0.170000       12.0110           0
     52828 WT17     1248     MECN     H11      HGA3     0.090000        1.0080           0
     52829 WT17     1248     MECN     H12      HGA3     0.090000        1.0080           0
     52830 WT17     1248     MECN     H13      HGA3     0.090000        1.0080           0
     52831 WT17     1248     MECN     C2       CG1N1    0.360000       12.0110           0
     52832 WT17     1248     MECN     N3       NG1T1   -0.460000       14.0070           0
     52833 WT17     1250     MECN     C1       CG331   -0.170000       12.0110           0
     52834 WT17     1250     MECN     H11      HGA3     0.090000        1.0080           0
     52835 WT17     1250     MECN     H12      HGA3     0.090000        1.0080           0
     52836 WT17     1250     MECN     H13      HGA3     0.090000        1.0080           0
     52837 WT17     1250     MECN     C2       CG1N1    0.360000       12.0110           0
     52838 WT17     1250     MECN     N3       NG1T1   -0.460000       14.0070           0
     52839 WT17     1251     MECN     C1       CG331   -0.170000       12.0110           0
     52840 WT17     1251     MECN     H11      HGA3     0.090000        1.0080           0
     52841 WT17     1251     MECN     H12      HGA3     0.090000        1.0080           0
     52842 WT17     1251     MECN     H13      HGA3     0.090000        1.0080           0
     52843 WT17     1251     MECN     C2       CG1N1    0.360000       12.0110           0
     52844 WT17     1251     MECN     N3       NG1T1   -0.460000       14.0070           0
     52845 WT17     1253     MECN     C1       CG331   -0.170000       12.0110           0
     52846 WT17     1253     MECN     H11      HGA3     0.090000        1.0080           0
     52847 WT17     1253     MECN     H12      HGA3     0.090000        1.0080           0
     52848 WT17     1253     MECN     H13      HGA3     0.090000        1.0080           0
     52849 WT17     1253     MECN     C2       CG1N1    0.360000       12.0110           0
     52850 WT17     1253     MECN     N3       NG1T1   -0.460000       14.0070           0
     52851 WT17     1254     MECN     C1       CG331   -0.170000       12.0110           0
     52852 WT17     1254     MECN     H11      HGA3     0.090000        1.0080           0
     52853 WT17     1254     MECN     H12      HGA3     0.090000        1.0080           0
     52854 WT17     1254     MECN     H13      HGA3     0.090000        1.0080           0
     52855 WT17     1254     MECN     C2       CG1N1    0.360000       12.0110           0
     52856 WT17     1254     MECN     N3       NG1T1   -0.460000       14.0070           0
     52857 WT17     1255     MECN     C1       CG331   -0.170000       12.0110           0
     52858 WT17     1255     MECN     H11      HGA3     0.090000        1.0080           0
     52859 WT17     1255     MECN     H12      HGA3     0.090000        1.0080           0
     52860 WT17     1255     MECN     H13      HGA3     0.090000        1.0080           0
     52861 WT17     1255     MECN     C2       CG1N1    0.360000       12.0110           0
     52862 WT17     1255     MECN     N3       NG1T1   -0.460000       14.0070           0
     52863 WT17     1258     MECN     C1       CG331   -0.170000       12.0110           0
     52864 WT17     1258     MECN     H11      HGA3     0.090000        1.0080           0
     52865 WT17     1258     MECN     H12      HGA3     0.090000        1.0080           0
     52866 WT17     1258     MECN     H13      HGA3     0.090000        1.0080           0
     52867 WT17     1258     MECN     C2       CG1N1    0.360000       12.0110           0
     52868 WT17     1258     MECN     N3       NG1T1   -0.460000       14.0070           0
     52869 WT17     1260     MECN     C1       CG331   -0.170000       12.0110           0
     52870 WT17     1260     MECN     H11      HGA3     0.090000        1.0080           0
     52871 WT17     1260     MECN     H12      HGA3     0.090000        1.0080           0
     52872 WT17     1260     MECN     H13      HGA3     0.090000        1.0080           0
     52873 WT17     1260     MECN     C2       CG1N1    0.360000       12.0110           0
     52874 WT17     1260     MECN     N3       NG1T1   -0.460000       14.0070           0
     52875 WT17     1261     MECN     C1       CG331   -0.170000       12.0110           0
     52876 WT17     1261     MECN     H11      HGA3     0.090000        1.0080           0
     52877 WT17     1261     MECN     H12      HGA3     0.090000        1.0080           0
     52878 WT17     1261     MECN     H13      HGA3     0.090000        1.0080           0
     52879 WT17     1261     MECN     C2       CG1N1    0.360000       12.0110           0
     52880 WT17     1261     MECN     N3       NG1T1   -0.460000       14.0070           0
     52881 WT17     1262     MECN     C1       CG331   -0.170000       12.0110           0
     52882 WT17     1262     MECN     H11      HGA3     0.090000        1.0080           0
     52883 WT17     1262     MECN     H12      HGA3     0.090000        1.0080           0
     52884 WT17     1262     MECN     H13      HGA3     0.090000        1.0080           0
     52885 WT17     1262     MECN     C2       CG1N1    0.360000       12.0110           0
     52886 WT17     1262     MECN     N3       NG1T1   -0.460000       14.0070           0
     52887 WT17     1263     MECN     C1       CG331   -0.170000       12.0110           0
     52888 WT17     1263     MECN     H11      HGA3     0.090000        1.0080           0
     52889 WT17     1263     MECN     H12      HGA3     0.090000        1.0080           0
     52890 WT17     1263     MECN     H13      HGA3     0.090000        1.0080           0
     52891 WT17     1263     MECN     C2       CG1N1    0.360000       12.0110           0
     52892 WT17     1263     MECN     N3       NG1T1   -0.460000       14.0070           0
     52893 WT17     1268     MECN     C1       CG331   -0.170000       12.0110           0
     52894 WT17     1268     MECN     H11      HGA3     0.090000        1.0080           0
     52895 WT17     1268     MECN     H12      HGA3     0.090000        1.0080           0
     52896 WT17     1268     MECN     H13      HGA3     0.090000        1.0080           0
     52897 WT17     1268     MECN     C2       CG1N1    0.360000       12.0110           0
     52898 WT17     1268     MECN     N3       NG1T1   -0.460000       14.0070           0
     52899 WT17     1270     MECN     C1       CG331   -0.170000       12.0110           0
     52900 WT17     1270     MECN     H11      HGA3     0.090000        1.0080           0
     52901 WT17     1270     MECN     H12      HGA3     0.090000        1.0080           0
     52902 WT17     1270     MECN     H13      HGA3     0.090000        1.0080           0
     52903 WT17     1270     MECN     C2       CG1N1    0.360000       12.0110           0
     52904 WT17     1270     MECN     N3       NG1T1   -0.460000       14.0070           0
     52905 WT17     1271     MECN     C1       CG331   -0.170000       12.0110           0
     52906 WT17     1271     MECN     H11      HGA3     0.090000        1.0080           0
     52907 WT17     1271     MECN     H12      HGA3     0.090000        1.0080           0
     52908 WT17     1271     MECN     H13      HGA3     0.090000        1.0080           0
     52909 WT17     1271     MECN     C2       CG1N1    0.360000       12.0110           0
     52910 WT17     1271     MECN     N3       NG1T1   -0.460000       14.0070           0
     52911 WT17     1272     MECN     C1       CG331   -0.170000       12.0110           0
     52912 WT17     1272     MECN     H11      HGA3     0.090000        1.0080           0
     52913 WT17     1272     MECN     H12      HGA3     0.090000        1.0080           0
     52914 WT17     1272     MECN     H13      HGA3     0.090000        1.0080           0
     52915 WT17     1272     MECN     C2       CG1N1    0.360000       12.0110           0
     52916 WT17     1272     MECN     N3       NG1T1   -0.460000       14.0070           0
     52917 WT17     1273     MECN     C1       CG331   -0.170000       12.0110           0
     52918 WT17     1273     MECN     H11      HGA3     0.090000        1.0080           0
     52919 WT17     1273     MECN     H12      HGA3     0.090000        1.0080           0
     52920 WT17     1273     MECN     H13      HGA3     0.090000        1.0080           0
     52921 WT17     1273     MECN     C2       CG1N1    0.360000       12.0110           0
     52922 WT17     1273     MECN     N3       NG1T1   -0.460000       14.0070           0
     52923 WT17     1274     MECN     C1       CG331   -0.170000       12.0110           0
     52924 WT17     1274     MECN     H11      HGA3     0.090000        1.0080           0
     52925 WT17     1274     MECN     H12      HGA3     0.090000        1.0080           0
     52926 WT17     1274     MECN     H13      HGA3     0.090000        1.0080           0
     52927 WT17     1274     MECN     C2       CG1N1    0.360000       12.0110           0
     52928 WT17     1274     MECN     N3       NG1T1   -0.460000       14.0070           0
     52929 WT17     1277     MECN     C1       CG331   -0.170000       12.0110           0
     52930 WT17     1277     MECN     H11      HGA3     0.090000        1.0080           0
     52931 WT17     1277     MECN     H12      HGA3     0.090000        1.0080           0
     52932 WT17     1277     MECN     H13      HGA3     0.090000        1.0080           0
     52933 WT17     1277     MECN     C2       CG1N1    0.360000       12.0110           0
     52934 WT17     1277     MECN     N3       NG1T1   -0.460000       14.0070           0
     52935 WT17     1280     MECN     C1       CG331   -0.170000       12.0110           0
     52936 WT17     1280     MECN     H11      HGA3     0.090000        1.0080           0
     52937 WT17     1280     MECN     H12      HGA3     0.090000        1.0080           0
     52938 WT17     1280     MECN     H13      HGA3     0.090000        1.0080           0
     52939 WT17     1280     MECN     C2       CG1N1    0.360000       12.0110           0
     52940 WT17     1280     MECN     N3       NG1T1   -0.460000       14.0070           0
     52941 WT17     1282     MECN     C1       CG331   -0.170000       12.0110           0
     52942 WT17     1282     MECN     H11      HGA3     0.090000        1.0080           0
     52943 WT17     1282     MECN     H12      HGA3     0.090000        1.0080           0
     52944 WT17     1282     MECN     H13      HGA3     0.090000        1.0080           0
     52945 WT17     1282     MECN     C2       CG1N1    0.360000       12.0110           0
     52946 WT17     1282     MECN     N3       NG1T1   -0.460000       14.0070           0
     52947 WT17     1284     MECN     C1       CG331   -0.170000       12.0110           0
     52948 WT17     1284     MECN     H11      HGA3     0.090000        1.0080           0
     52949 WT17     1284     MECN     H12      HGA3     0.090000        1.0080           0
     52950 WT17     1284     MECN     H13      HGA3     0.090000        1.0080           0
     52951 WT17     1284     MECN     C2       CG1N1    0.360000       12.0110           0
     52952 WT17     1284     MECN     N3       NG1T1   -0.460000       14.0070           0
     52953 WT17     1285     MECN     C1       CG331   -0.170000       12.0110           0
     52954 WT17     1285     MECN     H11      HGA3     0.090000        1.0080           0
     52955 WT17     1285     MECN     H12      HGA3     0.090000        1.0080           0
     52956 WT17     1285     MECN     H13      HGA3     0.090000        1.0080           0
     52957 WT17     1285     MECN     C2       CG1N1    0.360000       12.0110           0
     52958 WT17     1285     MECN     N3       NG1T1   -0.460000       14.0070           0
     52959 WT17     1286     MECN     C1       CG331   -0.170000       12.0110           0
     52960 WT17     1286     MECN     H11      HGA3     0.090000        1.0080           0
     52961 WT17     1286     MECN     H12      HGA3     0.090000        1.0080           0
     52962 WT17     1286     MECN     H13      HGA3     0.090000        1.0080           0
     52963 WT17     1286     MECN     C2       CG1N1    0.360000       12.0110           0
     52964 WT17     1286     MECN     N3       NG1T1   -0.460000       14.0070           0
     52965 WT17     1287     MECN     C1       CG331   -0.170000       12.0110           0
     52966 WT17     1287     MECN     H11      HGA3     0.090000        1.0080           0
     52967 WT17     1287     MECN     H12      HGA3     0.090000        1.0080           0
     52968 WT17     1287     MECN     H13      HGA3     0.090000        1.0080           0
     52969 WT17     1287     MECN     C2       CG1N1    0.360000       12.0110           0
     52970 WT17     1287     MECN     N3       NG1T1   -0.460000       14.0070           0
     52971 WT17     1292     MECN     C1       CG331   -0.170000       12.0110           0
     52972 WT17     1292     MECN     H11      HGA3     0.090000        1.0080           0
     52973 WT17     1292     MECN     H12      HGA3     0.090000        1.0080           0
     52974 WT17     1292     MECN     H13      HGA3     0.090000        1.0080           0
     52975 WT17     1292     MECN     C2       CG1N1    0.360000       12.0110           0
     52976 WT17     1292     MECN     N3       NG1T1   -0.460000       14.0070           0
     52977 WT17     1293     MECN     C1       CG331   -0.170000       12.0110           0
     52978 WT17     1293     MECN     H11      HGA3     0.090000        1.0080           0
     52979 WT17     1293     MECN     H12      HGA3     0.090000        1.0080           0
     52980 WT17     1293     MECN     H13      HGA3     0.090000        1.0080           0
     52981 WT17     1293     MECN     C2       CG1N1    0.360000       12.0110           0
     52982 WT17     1293     MECN     N3       NG1T1   -0.460000       14.0070           0
     52983 WT17     1294     MECN     C1       CG331   -0.170000       12.0110           0
     52984 WT17     1294     MECN     H11      HGA3     0.090000        1.0080           0
     52985 WT17     1294     MECN     H12      HGA3     0.090000        1.0080           0
     52986 WT17     1294     MECN     H13      HGA3     0.090000        1.0080           0
     52987 WT17     1294     MECN     C2       CG1N1    0.360000       12.0110           0
     52988 WT17     1294     MECN     N3       NG1T1   -0.460000       14.0070           0
     52989 WT17     1295     MECN     C1       CG331   -0.170000       12.0110           0
     52990 WT17     1295     MECN     H11      HGA3     0.090000        1.0080           0
     52991 WT17     1295     MECN     H12      HGA3     0.090000        1.0080           0
     52992 WT17     1295     MECN     H13      HGA3     0.090000        1.0080           0
     52993 WT17     1295     MECN     C2       CG1N1    0.360000       12.0110           0
     52994 WT17     1295     MECN     N3       NG1T1   -0.460000       14.0070           0
     52995 WT17     1297     MECN     C1       CG331   -0.170000       12.0110           0
     52996 WT17     1297     MECN     H11      HGA3     0.090000        1.0080           0
     52997 WT17     1297     MECN     H12      HGA3     0.090000        1.0080           0
     52998 WT17     1297     MECN     H13      HGA3     0.090000        1.0080           0
     52999 WT17     1297     MECN     C2       CG1N1    0.360000       12.0110           0
     53000 WT17     1297     MECN     N3       NG1T1   -0.460000       14.0070           0
     53001 WT17     1298     MECN     C1       CG331   -0.170000       12.0110           0
     53002 WT17     1298     MECN     H11      HGA3     0.090000        1.0080           0
     53003 WT17     1298     MECN     H12      HGA3     0.090000        1.0080           0
     53004 WT17     1298     MECN     H13      HGA3     0.090000        1.0080           0
     53005 WT17     1298     MECN     C2       CG1N1    0.360000       12.0110           0
     53006 WT17     1298     MECN     N3       NG1T1   -0.460000       14.0070           0
     53007 WT17     1300     MECN     C1       CG331   -0.170000       12.0110           0
     53008 WT17     1300     MECN     H11      HGA3     0.090000        1.0080           0
     53009 WT17     1300     MECN     H12      HGA3     0.090000        1.0080           0
     53010 WT17     1300     MECN     H13      HGA3     0.090000        1.0080           0
     53011 WT17     1300     MECN     C2       CG1N1    0.360000       12.0110           0
     53012 WT17     1300     MECN     N3       NG1T1   -0.460000       14.0070           0
     53013 WT17     1301     MECN     C1       CG331   -0.170000       12.0110           0
     53014 WT17     1301     MECN     H11      HGA3     0.090000        1.0080           0
     53015 WT17     1301     MECN     H12      HGA3     0.090000        1.0080           0
     53016 WT17     1301     MECN     H13      HGA3     0.090000        1.0080           0
     53017 WT17     1301     MECN     C2       CG1N1    0.360000       12.0110           0
     53018 WT17     1301     MECN     N3       NG1T1   -0.460000       14.0070           0
     53019 WT17     1303     MECN     C1       CG331   -0.170000       12.0110           0
     53020 WT17     1303     MECN     H11      HGA3     0.090000        1.0080           0
     53021 WT17     1303     MECN     H12      HGA3     0.090000        1.0080           0
     53022 WT17     1303     MECN     H13      HGA3     0.090000        1.0080           0
     53023 WT17     1303     MECN     C2       CG1N1    0.360000       12.0110           0
     53024 WT17     1303     MECN     N3       NG1T1   -0.460000       14.0070           0
     53025 WT17     1305     MECN     C1       CG331   -0.170000       12.0110           0
     53026 WT17     1305     MECN     H11      HGA3     0.090000        1.0080           0
     53027 WT17     1305     MECN     H12      HGA3     0.090000        1.0080           0
     53028 WT17     1305     MECN     H13      HGA3     0.090000        1.0080           0
     53029 WT17     1305     MECN     C2       CG1N1    0.360000       12.0110           0
     53030 WT17     1305     MECN     N3       NG1T1   -0.460000       14.0070           0
     53031 WT17     1306     MECN     C1       CG331   -0.170000       12.0110           0
     53032 WT17     1306     MECN     H11      HGA3     0.090000        1.0080           0
     53033 WT17     1306     MECN     H12      HGA3     0.090000        1.0080           0
     53034 WT17     1306     MECN     H13      HGA3     0.090000        1.0080           0
     53035 WT17     1306     MECN     C2       CG1N1    0.360000       12.0110           0
     53036 WT17     1306     MECN     N3       NG1T1   -0.460000       14.0070           0
     53037 WT17     1307     MECN     C1       CG331   -0.170000       12.0110           0
     53038 WT17     1307     MECN     H11      HGA3     0.090000        1.0080           0
     53039 WT17     1307     MECN     H12      HGA3     0.090000        1.0080           0
     53040 WT17     1307     MECN     H13      HGA3     0.090000        1.0080           0
     53041 WT17     1307     MECN     C2       CG1N1    0.360000       12.0110           0
     53042 WT17     1307     MECN     N3       NG1T1   -0.460000       14.0070           0
     53043 WT17     1309     MECN     C1       CG331   -0.170000       12.0110           0
     53044 WT17     1309     MECN     H11      HGA3     0.090000        1.0080           0
     53045 WT17     1309     MECN     H12      HGA3     0.090000        1.0080           0
     53046 WT17     1309     MECN     H13      HGA3     0.090000        1.0080           0
     53047 WT17     1309     MECN     C2       CG1N1    0.360000       12.0110           0
     53048 WT17     1309     MECN     N3       NG1T1   -0.460000       14.0070           0
     53049 WT17     1310     MECN     C1       CG331   -0.170000       12.0110           0
     53050 WT17     1310     MECN     H11      HGA3     0.090000        1.0080           0
     53051 WT17     1310     MECN     H12      HGA3     0.090000        1.0080           0
     53052 WT17     1310     MECN     H13      HGA3     0.090000        1.0080           0
     53053 WT17     1310     MECN     C2       CG1N1    0.360000       12.0110           0
     53054 WT17     1310     MECN     N3       NG1T1   -0.460000       14.0070           0
     53055 WT17     1311     MECN     C1       CG331   -0.170000       12.0110           0
     53056 WT17     1311     MECN     H11      HGA3     0.090000        1.0080           0
     53057 WT17     1311     MECN     H12      HGA3     0.090000        1.0080           0
     53058 WT17     1311     MECN     H13      HGA3     0.090000        1.0080           0
     53059 WT17     1311     MECN     C2       CG1N1    0.360000       12.0110           0
     53060 WT17     1311     MECN     N3       NG1T1   -0.460000       14.0070           0
     53061 WT17     1312     MECN     C1       CG331   -0.170000       12.0110           0
     53062 WT17     1312     MECN     H11      HGA3     0.090000        1.0080           0
     53063 WT17     1312     MECN     H12      HGA3     0.090000        1.0080           0
     53064 WT17     1312     MECN     H13      HGA3     0.090000        1.0080           0
     53065 WT17     1312     MECN     C2       CG1N1    0.360000       12.0110           0
     53066 WT17     1312     MECN     N3       NG1T1   -0.460000       14.0070           0
     53067 WT17     1314     MECN     C1       CG331   -0.170000       12.0110           0
     53068 WT17     1314     MECN     H11      HGA3     0.090000        1.0080           0
     53069 WT17     1314     MECN     H12      HGA3     0.090000        1.0080           0
     53070 WT17     1314     MECN     H13      HGA3     0.090000        1.0080           0
     53071 WT17     1314     MECN     C2       CG1N1    0.360000       12.0110           0
     53072 WT17     1314     MECN     N3       NG1T1   -0.460000       14.0070           0
     53073 WT17     1315     MECN     C1       CG331   -0.170000       12.0110           0
     53074 WT17     1315     MECN     H11      HGA3     0.090000        1.0080           0
     53075 WT17     1315     MECN     H12      HGA3     0.090000        1.0080           0
     53076 WT17     1315     MECN     H13      HGA3     0.090000        1.0080           0
     53077 WT17     1315     MECN     C2       CG1N1    0.360000       12.0110           0
     53078 WT17     1315     MECN     N3       NG1T1   -0.460000       14.0070           0
     53079 WT17     1317     MECN     C1       CG331   -0.170000       12.0110           0
     53080 WT17     1317     MECN     H11      HGA3     0.090000        1.0080           0
     53081 WT17     1317     MECN     H12      HGA3     0.090000        1.0080           0
     53082 WT17     1317     MECN     H13      HGA3     0.090000        1.0080           0
     53083 WT17     1317     MECN     C2       CG1N1    0.360000       12.0110           0
     53084 WT17     1317     MECN     N3       NG1T1   -0.460000       14.0070           0
     53085 WT17     1318     MECN     C1       CG331   -0.170000       12.0110           0
     53086 WT17     1318     MECN     H11      HGA3     0.090000        1.0080           0
     53087 WT17     1318     MECN     H12      HGA3     0.090000        1.0080           0
     53088 WT17     1318     MECN     H13      HGA3     0.090000        1.0080           0
     53089 WT17     1318     MECN     C2       CG1N1    0.360000       12.0110           0
     53090 WT17     1318     MECN     N3       NG1T1   -0.460000       14.0070           0
     53091 WT17     1319     MECN     C1       CG331   -0.170000       12.0110           0
     53092 WT17     1319     MECN     H11      HGA3     0.090000        1.0080           0
     53093 WT17     1319     MECN     H12      HGA3     0.090000        1.0080           0
     53094 WT17     1319     MECN     H13      HGA3     0.090000        1.0080           0
     53095 WT17     1319     MECN     C2       CG1N1    0.360000       12.0110           0
     53096 WT17     1319     MECN     N3       NG1T1   -0.460000       14.0070           0
     53097 WT17     1320     MECN     C1       CG331   -0.170000       12.0110           0
     53098 WT17     1320     MECN     H11      HGA3     0.090000        1.0080           0
     53099 WT17     1320     MECN     H12      HGA3     0.090000        1.0080           0
     53100 WT17     1320     MECN     H13      HGA3     0.090000        1.0080           0
     53101 WT17     1320     MECN     C2       CG1N1    0.360000       12.0110           0
     53102 WT17     1320     MECN     N3       NG1T1   -0.460000       14.0070           0
     53103 WT17     1324     MECN     C1       CG331   -0.170000       12.0110           0
     53104 WT17     1324     MECN     H11      HGA3     0.090000        1.0080           0
     53105 WT17     1324     MECN     H12      HGA3     0.090000        1.0080           0
     53106 WT17     1324     MECN     H13      HGA3     0.090000        1.0080           0
     53107 WT17     1324     MECN     C2       CG1N1    0.360000       12.0110           0
     53108 WT17     1324     MECN     N3       NG1T1   -0.460000       14.0070           0
     53109 WT17     1326     MECN     C1       CG331   -0.170000       12.0110           0
     53110 WT17     1326     MECN     H11      HGA3     0.090000        1.0080           0
     53111 WT17     1326     MECN     H12      HGA3     0.090000        1.0080           0
     53112 WT17     1326     MECN     H13      HGA3     0.090000        1.0080           0
     53113 WT17     1326     MECN     C2       CG1N1    0.360000       12.0110           0
     53114 WT17     1326     MECN     N3       NG1T1   -0.460000       14.0070           0
     53115 WT17     1327     MECN     C1       CG331   -0.170000       12.0110           0
     53116 WT17     1327     MECN     H11      HGA3     0.090000        1.0080           0
     53117 WT17     1327     MECN     H12      HGA3     0.090000        1.0080           0
     53118 WT17     1327     MECN     H13      HGA3     0.090000        1.0080           0
     53119 WT17     1327     MECN     C2       CG1N1    0.360000       12.0110           0
     53120 WT17     1327     MECN     N3       NG1T1   -0.460000       14.0070           0
     53121 WT17     1329     MECN     C1       CG331   -0.170000       12.0110           0
     53122 WT17     1329     MECN     H11      HGA3     0.090000        1.0080           0
     53123 WT17     1329     MECN     H12      HGA3     0.090000        1.0080           0
     53124 WT17     1329     MECN     H13      HGA3     0.090000        1.0080           0
     53125 WT17     1329     MECN     C2       CG1N1    0.360000       12.0110           0
     53126 WT17     1329     MECN     N3       NG1T1   -0.460000       14.0070           0
     53127 WT17     1331     MECN     C1       CG331   -0.170000       12.0110           0
     53128 WT17     1331     MECN     H11      HGA3     0.090000        1.0080           0
     53129 WT17     1331     MECN     H12      HGA3     0.090000        1.0080           0
     53130 WT17     1331     MECN     H13      HGA3     0.090000        1.0080           0
     53131 WT17     1331     MECN     C2       CG1N1    0.360000       12.0110           0
     53132 WT17     1331     MECN     N3       NG1T1   -0.460000       14.0070           0
     53133 WT18     2        MECN     C1       CG331   -0.170000       12.0110           0
     53134 WT18     2        MECN     H11      HGA3     0.090000        1.0080           0
     53135 WT18     2        MECN     H12      HGA3     0.090000        1.0080           0
     53136 WT18     2        MECN     H13      HGA3     0.090000        1.0080           0
     53137 WT18     2        MECN     C2       CG1N1    0.360000       12.0110           0
     53138 WT18     2        MECN     N3       NG1T1   -0.460000       14.0070           0
     53139 WT18     5        MECN     C1       CG331   -0.170000       12.0110           0
     53140 WT18     5        MECN     H11      HGA3     0.090000        1.0080           0
     53141 WT18     5        MECN     H12      HGA3     0.090000        1.0080           0
     53142 WT18     5        MECN     H13      HGA3     0.090000        1.0080           0
     53143 WT18     5        MECN     C2       CG1N1    0.360000       12.0110           0
     53144 WT18     5        MECN     N3       NG1T1   -0.460000       14.0070           0
     53145 WT18     6        MECN     C1       CG331   -0.170000       12.0110           0
     53146 WT18     6        MECN     H11      HGA3     0.090000        1.0080           0
     53147 WT18     6        MECN     H12      HGA3     0.090000        1.0080           0
     53148 WT18     6        MECN     H13      HGA3     0.090000        1.0080           0
     53149 WT18     6        MECN     C2       CG1N1    0.360000       12.0110           0
     53150 WT18     6        MECN     N3       NG1T1   -0.460000       14.0070           0
     53151 WT18     8        MECN     C1       CG331   -0.170000       12.0110           0
     53152 WT18     8        MECN     H11      HGA3     0.090000        1.0080           0
     53153 WT18     8        MECN     H12      HGA3     0.090000        1.0080           0
     53154 WT18     8        MECN     H13      HGA3     0.090000        1.0080           0
     53155 WT18     8        MECN     C2       CG1N1    0.360000       12.0110           0
     53156 WT18     8        MECN     N3       NG1T1   -0.460000       14.0070           0
     53157 WT18     11       MECN     C1       CG331   -0.170000       12.0110           0
     53158 WT18     11       MECN     H11      HGA3     0.090000        1.0080           0
     53159 WT18     11       MECN     H12      HGA3     0.090000        1.0080           0
     53160 WT18     11       MECN     H13      HGA3     0.090000        1.0080           0
     53161 WT18     11       MECN     C2       CG1N1    0.360000       12.0110           0
     53162 WT18     11       MECN     N3       NG1T1   -0.460000       14.0070           0
     53163 WT18     13       MECN     C1       CG331   -0.170000       12.0110           0
     53164 WT18     13       MECN     H11      HGA3     0.090000        1.0080           0
     53165 WT18     13       MECN     H12      HGA3     0.090000        1.0080           0
     53166 WT18     13       MECN     H13      HGA3     0.090000        1.0080           0
     53167 WT18     13       MECN     C2       CG1N1    0.360000       12.0110           0
     53168 WT18     13       MECN     N3       NG1T1   -0.460000       14.0070           0
     53169 WT18     14       MECN     C1       CG331   -0.170000       12.0110           0
     53170 WT18     14       MECN     H11      HGA3     0.090000        1.0080           0
     53171 WT18     14       MECN     H12      HGA3     0.090000        1.0080           0
     53172 WT18     14       MECN     H13      HGA3     0.090000        1.0080           0
     53173 WT18     14       MECN     C2       CG1N1    0.360000       12.0110           0
     53174 WT18     14       MECN     N3       NG1T1   -0.460000       14.0070           0
     53175 WT18     15       MECN     C1       CG331   -0.170000       12.0110           0
     53176 WT18     15       MECN     H11      HGA3     0.090000        1.0080           0
     53177 WT18     15       MECN     H12      HGA3     0.090000        1.0080           0
     53178 WT18     15       MECN     H13      HGA3     0.090000        1.0080           0
     53179 WT18     15       MECN     C2       CG1N1    0.360000       12.0110           0
     53180 WT18     15       MECN     N3       NG1T1   -0.460000       14.0070           0
     53181 WT18     17       MECN     C1       CG331   -0.170000       12.0110           0
     53182 WT18     17       MECN     H11      HGA3     0.090000        1.0080           0
     53183 WT18     17       MECN     H12      HGA3     0.090000        1.0080           0
     53184 WT18     17       MECN     H13      HGA3     0.090000        1.0080           0
     53185 WT18     17       MECN     C2       CG1N1    0.360000       12.0110           0
     53186 WT18     17       MECN     N3       NG1T1   -0.460000       14.0070           0
     53187 WT18     18       MECN     C1       CG331   -0.170000       12.0110           0
     53188 WT18     18       MECN     H11      HGA3     0.090000        1.0080           0
     53189 WT18     18       MECN     H12      HGA3     0.090000        1.0080           0
     53190 WT18     18       MECN     H13      HGA3     0.090000        1.0080           0
     53191 WT18     18       MECN     C2       CG1N1    0.360000       12.0110           0
     53192 WT18     18       MECN     N3       NG1T1   -0.460000       14.0070           0
     53193 WT18     19       MECN     C1       CG331   -0.170000       12.0110           0
     53194 WT18     19       MECN     H11      HGA3     0.090000        1.0080           0
     53195 WT18     19       MECN     H12      HGA3     0.090000        1.0080           0
     53196 WT18     19       MECN     H13      HGA3     0.090000        1.0080           0
     53197 WT18     19       MECN     C2       CG1N1    0.360000       12.0110           0
     53198 WT18     19       MECN     N3       NG1T1   -0.460000       14.0070           0
     53199 WT18     20       MECN     C1       CG331   -0.170000       12.0110           0
     53200 WT18     20       MECN     H11      HGA3     0.090000        1.0080           0
     53201 WT18     20       MECN     H12      HGA3     0.090000        1.0080           0
     53202 WT18     20       MECN     H13      HGA3     0.090000        1.0080           0
     53203 WT18     20       MECN     C2       CG1N1    0.360000       12.0110           0
     53204 WT18     20       MECN     N3       NG1T1   -0.460000       14.0070           0
     53205 WT18     24       MECN     C1       CG331   -0.170000       12.0110           0
     53206 WT18     24       MECN     H11      HGA3     0.090000        1.0080           0
     53207 WT18     24       MECN     H12      HGA3     0.090000        1.0080           0
     53208 WT18     24       MECN     H13      HGA3     0.090000        1.0080           0
     53209 WT18     24       MECN     C2       CG1N1    0.360000       12.0110           0
     53210 WT18     24       MECN     N3       NG1T1   -0.460000       14.0070           0
     53211 WT18     25       MECN     C1       CG331   -0.170000       12.0110           0
     53212 WT18     25       MECN     H11      HGA3     0.090000        1.0080           0
     53213 WT18     25       MECN     H12      HGA3     0.090000        1.0080           0
     53214 WT18     25       MECN     H13      HGA3     0.090000        1.0080           0
     53215 WT18     25       MECN     C2       CG1N1    0.360000       12.0110           0
     53216 WT18     25       MECN     N3       NG1T1   -0.460000       14.0070           0
     53217 WT18     26       MECN     C1       CG331   -0.170000       12.0110           0
     53218 WT18     26       MECN     H11      HGA3     0.090000        1.0080           0
     53219 WT18     26       MECN     H12      HGA3     0.090000        1.0080           0
     53220 WT18     26       MECN     H13      HGA3     0.090000        1.0080           0
     53221 WT18     26       MECN     C2       CG1N1    0.360000       12.0110           0
     53222 WT18     26       MECN     N3       NG1T1   -0.460000       14.0070           0
     53223 WT18     27       MECN     C1       CG331   -0.170000       12.0110           0
     53224 WT18     27       MECN     H11      HGA3     0.090000        1.0080           0
     53225 WT18     27       MECN     H12      HGA3     0.090000        1.0080           0
     53226 WT18     27       MECN     H13      HGA3     0.090000        1.0080           0
     53227 WT18     27       MECN     C2       CG1N1    0.360000       12.0110           0
     53228 WT18     27       MECN     N3       NG1T1   -0.460000       14.0070           0
     53229 WT18     28       MECN     C1       CG331   -0.170000       12.0110           0
     53230 WT18     28       MECN     H11      HGA3     0.090000        1.0080           0
     53231 WT18     28       MECN     H12      HGA3     0.090000        1.0080           0
     53232 WT18     28       MECN     H13      HGA3     0.090000        1.0080           0
     53233 WT18     28       MECN     C2       CG1N1    0.360000       12.0110           0
     53234 WT18     28       MECN     N3       NG1T1   -0.460000       14.0070           0
     53235 WT18     30       MECN     C1       CG331   -0.170000       12.0110           0
     53236 WT18     30       MECN     H11      HGA3     0.090000        1.0080           0
     53237 WT18     30       MECN     H12      HGA3     0.090000        1.0080           0
     53238 WT18     30       MECN     H13      HGA3     0.090000        1.0080           0
     53239 WT18     30       MECN     C2       CG1N1    0.360000       12.0110           0
     53240 WT18     30       MECN     N3       NG1T1   -0.460000       14.0070           0
     53241 WT18     32       MECN     C1       CG331   -0.170000       12.0110           0
     53242 WT18     32       MECN     H11      HGA3     0.090000        1.0080           0
     53243 WT18     32       MECN     H12      HGA3     0.090000        1.0080           0
     53244 WT18     32       MECN     H13      HGA3     0.090000        1.0080           0
     53245 WT18     32       MECN     C2       CG1N1    0.360000       12.0110           0
     53246 WT18     32       MECN     N3       NG1T1   -0.460000       14.0070           0
     53247 WT18     35       MECN     C1       CG331   -0.170000       12.0110           0
     53248 WT18     35       MECN     H11      HGA3     0.090000        1.0080           0
     53249 WT18     35       MECN     H12      HGA3     0.090000        1.0080           0
     53250 WT18     35       MECN     H13      HGA3     0.090000        1.0080           0
     53251 WT18     35       MECN     C2       CG1N1    0.360000       12.0110           0
     53252 WT18     35       MECN     N3       NG1T1   -0.460000       14.0070           0
     53253 WT18     38       MECN     C1       CG331   -0.170000       12.0110           0
     53254 WT18     38       MECN     H11      HGA3     0.090000        1.0080           0
     53255 WT18     38       MECN     H12      HGA3     0.090000        1.0080           0
     53256 WT18     38       MECN     H13      HGA3     0.090000        1.0080           0
     53257 WT18     38       MECN     C2       CG1N1    0.360000       12.0110           0
     53258 WT18     38       MECN     N3       NG1T1   -0.460000       14.0070           0
     53259 WT18     39       MECN     C1       CG331   -0.170000       12.0110           0
     53260 WT18     39       MECN     H11      HGA3     0.090000        1.0080           0
     53261 WT18     39       MECN     H12      HGA3     0.090000        1.0080           0
     53262 WT18     39       MECN     H13      HGA3     0.090000        1.0080           0
     53263 WT18     39       MECN     C2       CG1N1    0.360000       12.0110           0
     53264 WT18     39       MECN     N3       NG1T1   -0.460000       14.0070           0
     53265 WT18     40       MECN     C1       CG331   -0.170000       12.0110           0
     53266 WT18     40       MECN     H11      HGA3     0.090000        1.0080           0
     53267 WT18     40       MECN     H12      HGA3     0.090000        1.0080           0
     53268 WT18     40       MECN     H13      HGA3     0.090000        1.0080           0
     53269 WT18     40       MECN     C2       CG1N1    0.360000       12.0110           0
     53270 WT18     40       MECN     N3       NG1T1   -0.460000       14.0070           0
     53271 WT18     41       MECN     C1       CG331   -0.170000       12.0110           0
     53272 WT18     41       MECN     H11      HGA3     0.090000        1.0080           0
     53273 WT18     41       MECN     H12      HGA3     0.090000        1.0080           0
     53274 WT18     41       MECN     H13      HGA3     0.090000        1.0080           0
     53275 WT18     41       MECN     C2       CG1N1    0.360000       12.0110           0
     53276 WT18     41       MECN     N3       NG1T1   -0.460000       14.0070           0
     53277 WT18     45       MECN     C1       CG331   -0.170000       12.0110           0
     53278 WT18     45       MECN     H11      HGA3     0.090000        1.0080           0
     53279 WT18     45       MECN     H12      HGA3     0.090000        1.0080           0
     53280 WT18     45       MECN     H13      HGA3     0.090000        1.0080           0
     53281 WT18     45       MECN     C2       CG1N1    0.360000       12.0110           0
     53282 WT18     45       MECN     N3       NG1T1   -0.460000       14.0070           0
     53283 WT18     47       MECN     C1       CG331   -0.170000       12.0110           0
     53284 WT18     47       MECN     H11      HGA3     0.090000        1.0080           0
     53285 WT18     47       MECN     H12      HGA3     0.090000        1.0080           0
     53286 WT18     47       MECN     H13      HGA3     0.090000        1.0080           0
     53287 WT18     47       MECN     C2       CG1N1    0.360000       12.0110           0
     53288 WT18     47       MECN     N3       NG1T1   -0.460000       14.0070           0
     53289 WT18     48       MECN     C1       CG331   -0.170000       12.0110           0
     53290 WT18     48       MECN     H11      HGA3     0.090000        1.0080           0
     53291 WT18     48       MECN     H12      HGA3     0.090000        1.0080           0
     53292 WT18     48       MECN     H13      HGA3     0.090000        1.0080           0
     53293 WT18     48       MECN     C2       CG1N1    0.360000       12.0110           0
     53294 WT18     48       MECN     N3       NG1T1   -0.460000       14.0070           0
     53295 WT18     51       MECN     C1       CG331   -0.170000       12.0110           0
     53296 WT18     51       MECN     H11      HGA3     0.090000        1.0080           0
     53297 WT18     51       MECN     H12      HGA3     0.090000        1.0080           0
     53298 WT18     51       MECN     H13      HGA3     0.090000        1.0080           0
     53299 WT18     51       MECN     C2       CG1N1    0.360000       12.0110           0
     53300 WT18     51       MECN     N3       NG1T1   -0.460000       14.0070           0
     53301 WT18     53       MECN     C1       CG331   -0.170000       12.0110           0
     53302 WT18     53       MECN     H11      HGA3     0.090000        1.0080           0
     53303 WT18     53       MECN     H12      HGA3     0.090000        1.0080           0
     53304 WT18     53       MECN     H13      HGA3     0.090000        1.0080           0
     53305 WT18     53       MECN     C2       CG1N1    0.360000       12.0110           0
     53306 WT18     53       MECN     N3       NG1T1   -0.460000       14.0070           0
     53307 WT18     62       MECN     C1       CG331   -0.170000       12.0110           0
     53308 WT18     62       MECN     H11      HGA3     0.090000        1.0080           0
     53309 WT18     62       MECN     H12      HGA3     0.090000        1.0080           0
     53310 WT18     62       MECN     H13      HGA3     0.090000        1.0080           0
     53311 WT18     62       MECN     C2       CG1N1    0.360000       12.0110           0
     53312 WT18     62       MECN     N3       NG1T1   -0.460000       14.0070           0
     53313 WT18     65       MECN     C1       CG331   -0.170000       12.0110           0
     53314 WT18     65       MECN     H11      HGA3     0.090000        1.0080           0
     53315 WT18     65       MECN     H12      HGA3     0.090000        1.0080           0
     53316 WT18     65       MECN     H13      HGA3     0.090000        1.0080           0
     53317 WT18     65       MECN     C2       CG1N1    0.360000       12.0110           0
     53318 WT18     65       MECN     N3       NG1T1   -0.460000       14.0070           0
     53319 WT18     66       MECN     C1       CG331   -0.170000       12.0110           0
     53320 WT18     66       MECN     H11      HGA3     0.090000        1.0080           0
     53321 WT18     66       MECN     H12      HGA3     0.090000        1.0080           0
     53322 WT18     66       MECN     H13      HGA3     0.090000        1.0080           0
     53323 WT18     66       MECN     C2       CG1N1    0.360000       12.0110           0
     53324 WT18     66       MECN     N3       NG1T1   -0.460000       14.0070           0
     53325 WT18     67       MECN     C1       CG331   -0.170000       12.0110           0
     53326 WT18     67       MECN     H11      HGA3     0.090000        1.0080           0
     53327 WT18     67       MECN     H12      HGA3     0.090000        1.0080           0
     53328 WT18     67       MECN     H13      HGA3     0.090000        1.0080           0
     53329 WT18     67       MECN     C2       CG1N1    0.360000       12.0110           0
     53330 WT18     67       MECN     N3       NG1T1   -0.460000       14.0070           0
     53331 WT18     68       MECN     C1       CG331   -0.170000       12.0110           0
     53332 WT18     68       MECN     H11      HGA3     0.090000        1.0080           0
     53333 WT18     68       MECN     H12      HGA3     0.090000        1.0080           0
     53334 WT18     68       MECN     H13      HGA3     0.090000        1.0080           0
     53335 WT18     68       MECN     C2       CG1N1    0.360000       12.0110           0
     53336 WT18     68       MECN     N3       NG1T1   -0.460000       14.0070           0
     53337 WT18     69       MECN     C1       CG331   -0.170000       12.0110           0
     53338 WT18     69       MECN     H11      HGA3     0.090000        1.0080           0
     53339 WT18     69       MECN     H12      HGA3     0.090000        1.0080           0
     53340 WT18     69       MECN     H13      HGA3     0.090000        1.0080           0
     53341 WT18     69       MECN     C2       CG1N1    0.360000       12.0110           0
     53342 WT18     69       MECN     N3       NG1T1   -0.460000       14.0070           0
     53343 WT18     70       MECN     C1       CG331   -0.170000       12.0110           0
     53344 WT18     70       MECN     H11      HGA3     0.090000        1.0080           0
     53345 WT18     70       MECN     H12      HGA3     0.090000        1.0080           0
     53346 WT18     70       MECN     H13      HGA3     0.090000        1.0080           0
     53347 WT18     70       MECN     C2       CG1N1    0.360000       12.0110           0
     53348 WT18     70       MECN     N3       NG1T1   -0.460000       14.0070           0
     53349 WT18     73       MECN     C1       CG331   -0.170000       12.0110           0
     53350 WT18     73       MECN     H11      HGA3     0.090000        1.0080           0
     53351 WT18     73       MECN     H12      HGA3     0.090000        1.0080           0
     53352 WT18     73       MECN     H13      HGA3     0.090000        1.0080           0
     53353 WT18     73       MECN     C2       CG1N1    0.360000       12.0110           0
     53354 WT18     73       MECN     N3       NG1T1   -0.460000       14.0070           0
     53355 WT18     77       MECN     C1       CG331   -0.170000       12.0110           0
     53356 WT18     77       MECN     H11      HGA3     0.090000        1.0080           0
     53357 WT18     77       MECN     H12      HGA3     0.090000        1.0080           0
     53358 WT18     77       MECN     H13      HGA3     0.090000        1.0080           0
     53359 WT18     77       MECN     C2       CG1N1    0.360000       12.0110           0
     53360 WT18     77       MECN     N3       NG1T1   -0.460000       14.0070           0
     53361 WT18     80       MECN     C1       CG331   -0.170000       12.0110           0
     53362 WT18     80       MECN     H11      HGA3     0.090000        1.0080           0
     53363 WT18     80       MECN     H12      HGA3     0.090000        1.0080           0
     53364 WT18     80       MECN     H13      HGA3     0.090000        1.0080           0
     53365 WT18     80       MECN     C2       CG1N1    0.360000       12.0110           0
     53366 WT18     80       MECN     N3       NG1T1   -0.460000       14.0070           0
     53367 WT18     82       MECN     C1       CG331   -0.170000       12.0110           0
     53368 WT18     82       MECN     H11      HGA3     0.090000        1.0080           0
     53369 WT18     82       MECN     H12      HGA3     0.090000        1.0080           0
     53370 WT18     82       MECN     H13      HGA3     0.090000        1.0080           0
     53371 WT18     82       MECN     C2       CG1N1    0.360000       12.0110           0
     53372 WT18     82       MECN     N3       NG1T1   -0.460000       14.0070           0
     53373 WT18     83       MECN     C1       CG331   -0.170000       12.0110           0
     53374 WT18     83       MECN     H11      HGA3     0.090000        1.0080           0
     53375 WT18     83       MECN     H12      HGA3     0.090000        1.0080           0
     53376 WT18     83       MECN     H13      HGA3     0.090000        1.0080           0
     53377 WT18     83       MECN     C2       CG1N1    0.360000       12.0110           0
     53378 WT18     83       MECN     N3       NG1T1   -0.460000       14.0070           0
     53379 WT18     87       MECN     C1       CG331   -0.170000       12.0110           0
     53380 WT18     87       MECN     H11      HGA3     0.090000        1.0080           0
     53381 WT18     87       MECN     H12      HGA3     0.090000        1.0080           0
     53382 WT18     87       MECN     H13      HGA3     0.090000        1.0080           0
     53383 WT18     87       MECN     C2       CG1N1    0.360000       12.0110           0
     53384 WT18     87       MECN     N3       NG1T1   -0.460000       14.0070           0
     53385 WT18     88       MECN     C1       CG331   -0.170000       12.0110           0
     53386 WT18     88       MECN     H11      HGA3     0.090000        1.0080           0
     53387 WT18     88       MECN     H12      HGA3     0.090000        1.0080           0
     53388 WT18     88       MECN     H13      HGA3     0.090000        1.0080           0
     53389 WT18     88       MECN     C2       CG1N1    0.360000       12.0110           0
     53390 WT18     88       MECN     N3       NG1T1   -0.460000       14.0070           0
     53391 WT18     89       MECN     C1       CG331   -0.170000       12.0110           0
     53392 WT18     89       MECN     H11      HGA3     0.090000        1.0080           0
     53393 WT18     89       MECN     H12      HGA3     0.090000        1.0080           0
     53394 WT18     89       MECN     H13      HGA3     0.090000        1.0080           0
     53395 WT18     89       MECN     C2       CG1N1    0.360000       12.0110           0
     53396 WT18     89       MECN     N3       NG1T1   -0.460000       14.0070           0
     53397 WT18     93       MECN     C1       CG331   -0.170000       12.0110           0
     53398 WT18     93       MECN     H11      HGA3     0.090000        1.0080           0
     53399 WT18     93       MECN     H12      HGA3     0.090000        1.0080           0
     53400 WT18     93       MECN     H13      HGA3     0.090000        1.0080           0
     53401 WT18     93       MECN     C2       CG1N1    0.360000       12.0110           0
     53402 WT18     93       MECN     N3       NG1T1   -0.460000       14.0070           0
     53403 WT18     97       MECN     C1       CG331   -0.170000       12.0110           0
     53404 WT18     97       MECN     H11      HGA3     0.090000        1.0080           0
     53405 WT18     97       MECN     H12      HGA3     0.090000        1.0080           0
     53406 WT18     97       MECN     H13      HGA3     0.090000        1.0080           0
     53407 WT18     97       MECN     C2       CG1N1    0.360000       12.0110           0
     53408 WT18     97       MECN     N3       NG1T1   -0.460000       14.0070           0
     53409 WT18     98       MECN     C1       CG331   -0.170000       12.0110           0
     53410 WT18     98       MECN     H11      HGA3     0.090000        1.0080           0
     53411 WT18     98       MECN     H12      HGA3     0.090000        1.0080           0
     53412 WT18     98       MECN     H13      HGA3     0.090000        1.0080           0
     53413 WT18     98       MECN     C2       CG1N1    0.360000       12.0110           0
     53414 WT18     98       MECN     N3       NG1T1   -0.460000       14.0070           0
     53415 WT18     99       MECN     C1       CG331   -0.170000       12.0110           0
     53416 WT18     99       MECN     H11      HGA3     0.090000        1.0080           0
     53417 WT18     99       MECN     H12      HGA3     0.090000        1.0080           0
     53418 WT18     99       MECN     H13      HGA3     0.090000        1.0080           0
     53419 WT18     99       MECN     C2       CG1N1    0.360000       12.0110           0
     53420 WT18     99       MECN     N3       NG1T1   -0.460000       14.0070           0
     53421 WT18     100      MECN     C1       CG331   -0.170000       12.0110           0
     53422 WT18     100      MECN     H11      HGA3     0.090000        1.0080           0
     53423 WT18     100      MECN     H12      HGA3     0.090000        1.0080           0
     53424 WT18     100      MECN     H13      HGA3     0.090000        1.0080           0
     53425 WT18     100      MECN     C2       CG1N1    0.360000       12.0110           0
     53426 WT18     100      MECN     N3       NG1T1   -0.460000       14.0070           0
     53427 WT18     102      MECN     C1       CG331   -0.170000       12.0110           0
     53428 WT18     102      MECN     H11      HGA3     0.090000        1.0080           0
     53429 WT18     102      MECN     H12      HGA3     0.090000        1.0080           0
     53430 WT18     102      MECN     H13      HGA3     0.090000        1.0080           0
     53431 WT18     102      MECN     C2       CG1N1    0.360000       12.0110           0
     53432 WT18     102      MECN     N3       NG1T1   -0.460000       14.0070           0
     53433 WT18     103      MECN     C1       CG331   -0.170000       12.0110           0
     53434 WT18     103      MECN     H11      HGA3     0.090000        1.0080           0
     53435 WT18     103      MECN     H12      HGA3     0.090000        1.0080           0
     53436 WT18     103      MECN     H13      HGA3     0.090000        1.0080           0
     53437 WT18     103      MECN     C2       CG1N1    0.360000       12.0110           0
     53438 WT18     103      MECN     N3       NG1T1   -0.460000       14.0070           0
     53439 WT18     104      MECN     C1       CG331   -0.170000       12.0110           0
     53440 WT18     104      MECN     H11      HGA3     0.090000        1.0080           0
     53441 WT18     104      MECN     H12      HGA3     0.090000        1.0080           0
     53442 WT18     104      MECN     H13      HGA3     0.090000        1.0080           0
     53443 WT18     104      MECN     C2       CG1N1    0.360000       12.0110           0
     53444 WT18     104      MECN     N3       NG1T1   -0.460000       14.0070           0
     53445 WT18     107      MECN     C1       CG331   -0.170000       12.0110           0
     53446 WT18     107      MECN     H11      HGA3     0.090000        1.0080           0
     53447 WT18     107      MECN     H12      HGA3     0.090000        1.0080           0
     53448 WT18     107      MECN     H13      HGA3     0.090000        1.0080           0
     53449 WT18     107      MECN     C2       CG1N1    0.360000       12.0110           0
     53450 WT18     107      MECN     N3       NG1T1   -0.460000       14.0070           0
     53451 WT18     108      MECN     C1       CG331   -0.170000       12.0110           0
     53452 WT18     108      MECN     H11      HGA3     0.090000        1.0080           0
     53453 WT18     108      MECN     H12      HGA3     0.090000        1.0080           0
     53454 WT18     108      MECN     H13      HGA3     0.090000        1.0080           0
     53455 WT18     108      MECN     C2       CG1N1    0.360000       12.0110           0
     53456 WT18     108      MECN     N3       NG1T1   -0.460000       14.0070           0
     53457 WT18     114      MECN     C1       CG331   -0.170000       12.0110           0
     53458 WT18     114      MECN     H11      HGA3     0.090000        1.0080           0
     53459 WT18     114      MECN     H12      HGA3     0.090000        1.0080           0
     53460 WT18     114      MECN     H13      HGA3     0.090000        1.0080           0
     53461 WT18     114      MECN     C2       CG1N1    0.360000       12.0110           0
     53462 WT18     114      MECN     N3       NG1T1   -0.460000       14.0070           0
     53463 WT18     116      MECN     C1       CG331   -0.170000       12.0110           0
     53464 WT18     116      MECN     H11      HGA3     0.090000        1.0080           0
     53465 WT18     116      MECN     H12      HGA3     0.090000        1.0080           0
     53466 WT18     116      MECN     H13      HGA3     0.090000        1.0080           0
     53467 WT18     116      MECN     C2       CG1N1    0.360000       12.0110           0
     53468 WT18     116      MECN     N3       NG1T1   -0.460000       14.0070           0
     53469 WT18     117      MECN     C1       CG331   -0.170000       12.0110           0
     53470 WT18     117      MECN     H11      HGA3     0.090000        1.0080           0
     53471 WT18     117      MECN     H12      HGA3     0.090000        1.0080           0
     53472 WT18     117      MECN     H13      HGA3     0.090000        1.0080           0
     53473 WT18     117      MECN     C2       CG1N1    0.360000       12.0110           0
     53474 WT18     117      MECN     N3       NG1T1   -0.460000       14.0070           0
     53475 WT18     119      MECN     C1       CG331   -0.170000       12.0110           0
     53476 WT18     119      MECN     H11      HGA3     0.090000        1.0080           0
     53477 WT18     119      MECN     H12      HGA3     0.090000        1.0080           0
     53478 WT18     119      MECN     H13      HGA3     0.090000        1.0080           0
     53479 WT18     119      MECN     C2       CG1N1    0.360000       12.0110           0
     53480 WT18     119      MECN     N3       NG1T1   -0.460000       14.0070           0
     53481 WT18     126      MECN     C1       CG331   -0.170000       12.0110           0
     53482 WT18     126      MECN     H11      HGA3     0.090000        1.0080           0
     53483 WT18     126      MECN     H12      HGA3     0.090000        1.0080           0
     53484 WT18     126      MECN     H13      HGA3     0.090000        1.0080           0
     53485 WT18     126      MECN     C2       CG1N1    0.360000       12.0110           0
     53486 WT18     126      MECN     N3       NG1T1   -0.460000       14.0070           0
     53487 WT18     128      MECN     C1       CG331   -0.170000       12.0110           0
     53488 WT18     128      MECN     H11      HGA3     0.090000        1.0080           0
     53489 WT18     128      MECN     H12      HGA3     0.090000        1.0080           0
     53490 WT18     128      MECN     H13      HGA3     0.090000        1.0080           0
     53491 WT18     128      MECN     C2       CG1N1    0.360000       12.0110           0
     53492 WT18     128      MECN     N3       NG1T1   -0.460000       14.0070           0
     53493 WT18     130      MECN     C1       CG331   -0.170000       12.0110           0
     53494 WT18     130      MECN     H11      HGA3     0.090000        1.0080           0
     53495 WT18     130      MECN     H12      HGA3     0.090000        1.0080           0
     53496 WT18     130      MECN     H13      HGA3     0.090000        1.0080           0
     53497 WT18     130      MECN     C2       CG1N1    0.360000       12.0110           0
     53498 WT18     130      MECN     N3       NG1T1   -0.460000       14.0070           0
     53499 WT18     131      MECN     C1       CG331   -0.170000       12.0110           0
     53500 WT18     131      MECN     H11      HGA3     0.090000        1.0080           0
     53501 WT18     131      MECN     H12      HGA3     0.090000        1.0080           0
     53502 WT18     131      MECN     H13      HGA3     0.090000        1.0080           0
     53503 WT18     131      MECN     C2       CG1N1    0.360000       12.0110           0
     53504 WT18     131      MECN     N3       NG1T1   -0.460000       14.0070           0
     53505 WT18     132      MECN     C1       CG331   -0.170000       12.0110           0
     53506 WT18     132      MECN     H11      HGA3     0.090000        1.0080           0
     53507 WT18     132      MECN     H12      HGA3     0.090000        1.0080           0
     53508 WT18     132      MECN     H13      HGA3     0.090000        1.0080           0
     53509 WT18     132      MECN     C2       CG1N1    0.360000       12.0110           0
     53510 WT18     132      MECN     N3       NG1T1   -0.460000       14.0070           0
     53511 WT18     136      MECN     C1       CG331   -0.170000       12.0110           0
     53512 WT18     136      MECN     H11      HGA3     0.090000        1.0080           0
     53513 WT18     136      MECN     H12      HGA3     0.090000        1.0080           0
     53514 WT18     136      MECN     H13      HGA3     0.090000        1.0080           0
     53515 WT18     136      MECN     C2       CG1N1    0.360000       12.0110           0
     53516 WT18     136      MECN     N3       NG1T1   -0.460000       14.0070           0
     53517 WT18     137      MECN     C1       CG331   -0.170000       12.0110           0
     53518 WT18     137      MECN     H11      HGA3     0.090000        1.0080           0
     53519 WT18     137      MECN     H12      HGA3     0.090000        1.0080           0
     53520 WT18     137      MECN     H13      HGA3     0.090000        1.0080           0
     53521 WT18     137      MECN     C2       CG1N1    0.360000       12.0110           0
     53522 WT18     137      MECN     N3       NG1T1   -0.460000       14.0070           0
     53523 WT18     139      MECN     C1       CG331   -0.170000       12.0110           0
     53524 WT18     139      MECN     H11      HGA3     0.090000        1.0080           0
     53525 WT18     139      MECN     H12      HGA3     0.090000        1.0080           0
     53526 WT18     139      MECN     H13      HGA3     0.090000        1.0080           0
     53527 WT18     139      MECN     C2       CG1N1    0.360000       12.0110           0
     53528 WT18     139      MECN     N3       NG1T1   -0.460000       14.0070           0
     53529 WT18     140      MECN     C1       CG331   -0.170000       12.0110           0
     53530 WT18     140      MECN     H11      HGA3     0.090000        1.0080           0
     53531 WT18     140      MECN     H12      HGA3     0.090000        1.0080           0
     53532 WT18     140      MECN     H13      HGA3     0.090000        1.0080           0
     53533 WT18     140      MECN     C2       CG1N1    0.360000       12.0110           0
     53534 WT18     140      MECN     N3       NG1T1   -0.460000       14.0070           0
     53535 WT18     141      MECN     C1       CG331   -0.170000       12.0110           0
     53536 WT18     141      MECN     H11      HGA3     0.090000        1.0080           0
     53537 WT18     141      MECN     H12      HGA3     0.090000        1.0080           0
     53538 WT18     141      MECN     H13      HGA3     0.090000        1.0080           0
     53539 WT18     141      MECN     C2       CG1N1    0.360000       12.0110           0
     53540 WT18     141      MECN     N3       NG1T1   -0.460000       14.0070           0
     53541 WT18     142      MECN     C1       CG331   -0.170000       12.0110           0
     53542 WT18     142      MECN     H11      HGA3     0.090000        1.0080           0
     53543 WT18     142      MECN     H12      HGA3     0.090000        1.0080           0
     53544 WT18     142      MECN     H13      HGA3     0.090000        1.0080           0
     53545 WT18     142      MECN     C2       CG1N1    0.360000       12.0110           0
     53546 WT18     142      MECN     N3       NG1T1   -0.460000       14.0070           0
     53547 WT18     150      MECN     C1       CG331   -0.170000       12.0110           0
     53548 WT18     150      MECN     H11      HGA3     0.090000        1.0080           0
     53549 WT18     150      MECN     H12      HGA3     0.090000        1.0080           0
     53550 WT18     150      MECN     H13      HGA3     0.090000        1.0080           0
     53551 WT18     150      MECN     C2       CG1N1    0.360000       12.0110           0
     53552 WT18     150      MECN     N3       NG1T1   -0.460000       14.0070           0
     53553 WT18     152      MECN     C1       CG331   -0.170000       12.0110           0
     53554 WT18     152      MECN     H11      HGA3     0.090000        1.0080           0
     53555 WT18     152      MECN     H12      HGA3     0.090000        1.0080           0
     53556 WT18     152      MECN     H13      HGA3     0.090000        1.0080           0
     53557 WT18     152      MECN     C2       CG1N1    0.360000       12.0110           0
     53558 WT18     152      MECN     N3       NG1T1   -0.460000       14.0070           0
     53559 WT18     153      MECN     C1       CG331   -0.170000       12.0110           0
     53560 WT18     153      MECN     H11      HGA3     0.090000        1.0080           0
     53561 WT18     153      MECN     H12      HGA3     0.090000        1.0080           0
     53562 WT18     153      MECN     H13      HGA3     0.090000        1.0080           0
     53563 WT18     153      MECN     C2       CG1N1    0.360000       12.0110           0
     53564 WT18     153      MECN     N3       NG1T1   -0.460000       14.0070           0
     53565 WT18     154      MECN     C1       CG331   -0.170000       12.0110           0
     53566 WT18     154      MECN     H11      HGA3     0.090000        1.0080           0
     53567 WT18     154      MECN     H12      HGA3     0.090000        1.0080           0
     53568 WT18     154      MECN     H13      HGA3     0.090000        1.0080           0
     53569 WT18     154      MECN     C2       CG1N1    0.360000       12.0110           0
     53570 WT18     154      MECN     N3       NG1T1   -0.460000       14.0070           0
     53571 WT18     155      MECN     C1       CG331   -0.170000       12.0110           0
     53572 WT18     155      MECN     H11      HGA3     0.090000        1.0080           0
     53573 WT18     155      MECN     H12      HGA3     0.090000        1.0080           0
     53574 WT18     155      MECN     H13      HGA3     0.090000        1.0080           0
     53575 WT18     155      MECN     C2       CG1N1    0.360000       12.0110           0
     53576 WT18     155      MECN     N3       NG1T1   -0.460000       14.0070           0
     53577 WT18     156      MECN     C1       CG331   -0.170000       12.0110           0
     53578 WT18     156      MECN     H11      HGA3     0.090000        1.0080           0
     53579 WT18     156      MECN     H12      HGA3     0.090000        1.0080           0
     53580 WT18     156      MECN     H13      HGA3     0.090000        1.0080           0
     53581 WT18     156      MECN     C2       CG1N1    0.360000       12.0110           0
     53582 WT18     156      MECN     N3       NG1T1   -0.460000       14.0070           0
     53583 WT18     157      MECN     C1       CG331   -0.170000       12.0110           0
     53584 WT18     157      MECN     H11      HGA3     0.090000        1.0080           0
     53585 WT18     157      MECN     H12      HGA3     0.090000        1.0080           0
     53586 WT18     157      MECN     H13      HGA3     0.090000        1.0080           0
     53587 WT18     157      MECN     C2       CG1N1    0.360000       12.0110           0
     53588 WT18     157      MECN     N3       NG1T1   -0.460000       14.0070           0
     53589 WT18     158      MECN     C1       CG331   -0.170000       12.0110           0
     53590 WT18     158      MECN     H11      HGA3     0.090000        1.0080           0
     53591 WT18     158      MECN     H12      HGA3     0.090000        1.0080           0
     53592 WT18     158      MECN     H13      HGA3     0.090000        1.0080           0
     53593 WT18     158      MECN     C2       CG1N1    0.360000       12.0110           0
     53594 WT18     158      MECN     N3       NG1T1   -0.460000       14.0070           0
     53595 WT18     160      MECN     C1       CG331   -0.170000       12.0110           0
     53596 WT18     160      MECN     H11      HGA3     0.090000        1.0080           0
     53597 WT18     160      MECN     H12      HGA3     0.090000        1.0080           0
     53598 WT18     160      MECN     H13      HGA3     0.090000        1.0080           0
     53599 WT18     160      MECN     C2       CG1N1    0.360000       12.0110           0
     53600 WT18     160      MECN     N3       NG1T1   -0.460000       14.0070           0
     53601 WT18     161      MECN     C1       CG331   -0.170000       12.0110           0
     53602 WT18     161      MECN     H11      HGA3     0.090000        1.0080           0
     53603 WT18     161      MECN     H12      HGA3     0.090000        1.0080           0
     53604 WT18     161      MECN     H13      HGA3     0.090000        1.0080           0
     53605 WT18     161      MECN     C2       CG1N1    0.360000       12.0110           0
     53606 WT18     161      MECN     N3       NG1T1   -0.460000       14.0070           0
     53607 WT18     163      MECN     C1       CG331   -0.170000       12.0110           0
     53608 WT18     163      MECN     H11      HGA3     0.090000        1.0080           0
     53609 WT18     163      MECN     H12      HGA3     0.090000        1.0080           0
     53610 WT18     163      MECN     H13      HGA3     0.090000        1.0080           0
     53611 WT18     163      MECN     C2       CG1N1    0.360000       12.0110           0
     53612 WT18     163      MECN     N3       NG1T1   -0.460000       14.0070           0
     53613 WT18     165      MECN     C1       CG331   -0.170000       12.0110           0
     53614 WT18     165      MECN     H11      HGA3     0.090000        1.0080           0
     53615 WT18     165      MECN     H12      HGA3     0.090000        1.0080           0
     53616 WT18     165      MECN     H13      HGA3     0.090000        1.0080           0
     53617 WT18     165      MECN     C2       CG1N1    0.360000       12.0110           0
     53618 WT18     165      MECN     N3       NG1T1   -0.460000       14.0070           0
     53619 WT18     166      MECN     C1       CG331   -0.170000       12.0110           0
     53620 WT18     166      MECN     H11      HGA3     0.090000        1.0080           0
     53621 WT18     166      MECN     H12      HGA3     0.090000        1.0080           0
     53622 WT18     166      MECN     H13      HGA3     0.090000        1.0080           0
     53623 WT18     166      MECN     C2       CG1N1    0.360000       12.0110           0
     53624 WT18     166      MECN     N3       NG1T1   -0.460000       14.0070           0
     53625 WT18     167      MECN     C1       CG331   -0.170000       12.0110           0
     53626 WT18     167      MECN     H11      HGA3     0.090000        1.0080           0
     53627 WT18     167      MECN     H12      HGA3     0.090000        1.0080           0
     53628 WT18     167      MECN     H13      HGA3     0.090000        1.0080           0
     53629 WT18     167      MECN     C2       CG1N1    0.360000       12.0110           0
     53630 WT18     167      MECN     N3       NG1T1   -0.460000       14.0070           0
     53631 WT18     168      MECN     C1       CG331   -0.170000       12.0110           0
     53632 WT18     168      MECN     H11      HGA3     0.090000        1.0080           0
     53633 WT18     168      MECN     H12      HGA3     0.090000        1.0080           0
     53634 WT18     168      MECN     H13      HGA3     0.090000        1.0080           0
     53635 WT18     168      MECN     C2       CG1N1    0.360000       12.0110           0
     53636 WT18     168      MECN     N3       NG1T1   -0.460000       14.0070           0
     53637 WT18     169      MECN     C1       CG331   -0.170000       12.0110           0
     53638 WT18     169      MECN     H11      HGA3     0.090000        1.0080           0
     53639 WT18     169      MECN     H12      HGA3     0.090000        1.0080           0
     53640 WT18     169      MECN     H13      HGA3     0.090000        1.0080           0
     53641 WT18     169      MECN     C2       CG1N1    0.360000       12.0110           0
     53642 WT18     169      MECN     N3       NG1T1   -0.460000       14.0070           0
     53643 WT18     170      MECN     C1       CG331   -0.170000       12.0110           0
     53644 WT18     170      MECN     H11      HGA3     0.090000        1.0080           0
     53645 WT18     170      MECN     H12      HGA3     0.090000        1.0080           0
     53646 WT18     170      MECN     H13      HGA3     0.090000        1.0080           0
     53647 WT18     170      MECN     C2       CG1N1    0.360000       12.0110           0
     53648 WT18     170      MECN     N3       NG1T1   -0.460000       14.0070           0
     53649 WT18     172      MECN     C1       CG331   -0.170000       12.0110           0
     53650 WT18     172      MECN     H11      HGA3     0.090000        1.0080           0
     53651 WT18     172      MECN     H12      HGA3     0.090000        1.0080           0
     53652 WT18     172      MECN     H13      HGA3     0.090000        1.0080           0
     53653 WT18     172      MECN     C2       CG1N1    0.360000       12.0110           0
     53654 WT18     172      MECN     N3       NG1T1   -0.460000       14.0070           0
     53655 WT18     176      MECN     C1       CG331   -0.170000       12.0110           0
     53656 WT18     176      MECN     H11      HGA3     0.090000        1.0080           0
     53657 WT18     176      MECN     H12      HGA3     0.090000        1.0080           0
     53658 WT18     176      MECN     H13      HGA3     0.090000        1.0080           0
     53659 WT18     176      MECN     C2       CG1N1    0.360000       12.0110           0
     53660 WT18     176      MECN     N3       NG1T1   -0.460000       14.0070           0
     53661 WT18     177      MECN     C1       CG331   -0.170000       12.0110           0
     53662 WT18     177      MECN     H11      HGA3     0.090000        1.0080           0
     53663 WT18     177      MECN     H12      HGA3     0.090000        1.0080           0
     53664 WT18     177      MECN     H13      HGA3     0.090000        1.0080           0
     53665 WT18     177      MECN     C2       CG1N1    0.360000       12.0110           0
     53666 WT18     177      MECN     N3       NG1T1   -0.460000       14.0070           0
     53667 WT18     178      MECN     C1       CG331   -0.170000       12.0110           0
     53668 WT18     178      MECN     H11      HGA3     0.090000        1.0080           0
     53669 WT18     178      MECN     H12      HGA3     0.090000        1.0080           0
     53670 WT18     178      MECN     H13      HGA3     0.090000        1.0080           0
     53671 WT18     178      MECN     C2       CG1N1    0.360000       12.0110           0
     53672 WT18     178      MECN     N3       NG1T1   -0.460000       14.0070           0
     53673 WT18     180      MECN     C1       CG331   -0.170000       12.0110           0
     53674 WT18     180      MECN     H11      HGA3     0.090000        1.0080           0
     53675 WT18     180      MECN     H12      HGA3     0.090000        1.0080           0
     53676 WT18     180      MECN     H13      HGA3     0.090000        1.0080           0
     53677 WT18     180      MECN     C2       CG1N1    0.360000       12.0110           0
     53678 WT18     180      MECN     N3       NG1T1   -0.460000       14.0070           0
     53679 WT18     181      MECN     C1       CG331   -0.170000       12.0110           0
     53680 WT18     181      MECN     H11      HGA3     0.090000        1.0080           0
     53681 WT18     181      MECN     H12      HGA3     0.090000        1.0080           0
     53682 WT18     181      MECN     H13      HGA3     0.090000        1.0080           0
     53683 WT18     181      MECN     C2       CG1N1    0.360000       12.0110           0
     53684 WT18     181      MECN     N3       NG1T1   -0.460000       14.0070           0
     53685 WT18     182      MECN     C1       CG331   -0.170000       12.0110           0
     53686 WT18     182      MECN     H11      HGA3     0.090000        1.0080           0
     53687 WT18     182      MECN     H12      HGA3     0.090000        1.0080           0
     53688 WT18     182      MECN     H13      HGA3     0.090000        1.0080           0
     53689 WT18     182      MECN     C2       CG1N1    0.360000       12.0110           0
     53690 WT18     182      MECN     N3       NG1T1   -0.460000       14.0070           0
     53691 WT18     183      MECN     C1       CG331   -0.170000       12.0110           0
     53692 WT18     183      MECN     H11      HGA3     0.090000        1.0080           0
     53693 WT18     183      MECN     H12      HGA3     0.090000        1.0080           0
     53694 WT18     183      MECN     H13      HGA3     0.090000        1.0080           0
     53695 WT18     183      MECN     C2       CG1N1    0.360000       12.0110           0
     53696 WT18     183      MECN     N3       NG1T1   -0.460000       14.0070           0
     53697 WT18     186      MECN     C1       CG331   -0.170000       12.0110           0
     53698 WT18     186      MECN     H11      HGA3     0.090000        1.0080           0
     53699 WT18     186      MECN     H12      HGA3     0.090000        1.0080           0
     53700 WT18     186      MECN     H13      HGA3     0.090000        1.0080           0
     53701 WT18     186      MECN     C2       CG1N1    0.360000       12.0110           0
     53702 WT18     186      MECN     N3       NG1T1   -0.460000       14.0070           0
     53703 WT18     187      MECN     C1       CG331   -0.170000       12.0110           0
     53704 WT18     187      MECN     H11      HGA3     0.090000        1.0080           0
     53705 WT18     187      MECN     H12      HGA3     0.090000        1.0080           0
     53706 WT18     187      MECN     H13      HGA3     0.090000        1.0080           0
     53707 WT18     187      MECN     C2       CG1N1    0.360000       12.0110           0
     53708 WT18     187      MECN     N3       NG1T1   -0.460000       14.0070           0
     53709 WT18     188      MECN     C1       CG331   -0.170000       12.0110           0
     53710 WT18     188      MECN     H11      HGA3     0.090000        1.0080           0
     53711 WT18     188      MECN     H12      HGA3     0.090000        1.0080           0
     53712 WT18     188      MECN     H13      HGA3     0.090000        1.0080           0
     53713 WT18     188      MECN     C2       CG1N1    0.360000       12.0110           0
     53714 WT18     188      MECN     N3       NG1T1   -0.460000       14.0070           0
     53715 WT18     192      MECN     C1       CG331   -0.170000       12.0110           0
     53716 WT18     192      MECN     H11      HGA3     0.090000        1.0080           0
     53717 WT18     192      MECN     H12      HGA3     0.090000        1.0080           0
     53718 WT18     192      MECN     H13      HGA3     0.090000        1.0080           0
     53719 WT18     192      MECN     C2       CG1N1    0.360000       12.0110           0
     53720 WT18     192      MECN     N3       NG1T1   -0.460000       14.0070           0
     53721 WT18     193      MECN     C1       CG331   -0.170000       12.0110           0
     53722 WT18     193      MECN     H11      HGA3     0.090000        1.0080           0
     53723 WT18     193      MECN     H12      HGA3     0.090000        1.0080           0
     53724 WT18     193      MECN     H13      HGA3     0.090000        1.0080           0
     53725 WT18     193      MECN     C2       CG1N1    0.360000       12.0110           0
     53726 WT18     193      MECN     N3       NG1T1   -0.460000       14.0070           0
     53727 WT18     196      MECN     C1       CG331   -0.170000       12.0110           0
     53728 WT18     196      MECN     H11      HGA3     0.090000        1.0080           0
     53729 WT18     196      MECN     H12      HGA3     0.090000        1.0080           0
     53730 WT18     196      MECN     H13      HGA3     0.090000        1.0080           0
     53731 WT18     196      MECN     C2       CG1N1    0.360000       12.0110           0
     53732 WT18     196      MECN     N3       NG1T1   -0.460000       14.0070           0
     53733 WT18     198      MECN     C1       CG331   -0.170000       12.0110           0
     53734 WT18     198      MECN     H11      HGA3     0.090000        1.0080           0
     53735 WT18     198      MECN     H12      HGA3     0.090000        1.0080           0
     53736 WT18     198      MECN     H13      HGA3     0.090000        1.0080           0
     53737 WT18     198      MECN     C2       CG1N1    0.360000       12.0110           0
     53738 WT18     198      MECN     N3       NG1T1   -0.460000       14.0070           0
     53739 WT18     199      MECN     C1       CG331   -0.170000       12.0110           0
     53740 WT18     199      MECN     H11      HGA3     0.090000        1.0080           0
     53741 WT18     199      MECN     H12      HGA3     0.090000        1.0080           0
     53742 WT18     199      MECN     H13      HGA3     0.090000        1.0080           0
     53743 WT18     199      MECN     C2       CG1N1    0.360000       12.0110           0
     53744 WT18     199      MECN     N3       NG1T1   -0.460000       14.0070           0
     53745 WT18     203      MECN     C1       CG331   -0.170000       12.0110           0
     53746 WT18     203      MECN     H11      HGA3     0.090000        1.0080           0
     53747 WT18     203      MECN     H12      HGA3     0.090000        1.0080           0
     53748 WT18     203      MECN     H13      HGA3     0.090000        1.0080           0
     53749 WT18     203      MECN     C2       CG1N1    0.360000       12.0110           0
     53750 WT18     203      MECN     N3       NG1T1   -0.460000       14.0070           0
     53751 WT18     205      MECN     C1       CG331   -0.170000       12.0110           0
     53752 WT18     205      MECN     H11      HGA3     0.090000        1.0080           0
     53753 WT18     205      MECN     H12      HGA3     0.090000        1.0080           0
     53754 WT18     205      MECN     H13      HGA3     0.090000        1.0080           0
     53755 WT18     205      MECN     C2       CG1N1    0.360000       12.0110           0
     53756 WT18     205      MECN     N3       NG1T1   -0.460000       14.0070           0
     53757 WT18     206      MECN     C1       CG331   -0.170000       12.0110           0
     53758 WT18     206      MECN     H11      HGA3     0.090000        1.0080           0
     53759 WT18     206      MECN     H12      HGA3     0.090000        1.0080           0
     53760 WT18     206      MECN     H13      HGA3     0.090000        1.0080           0
     53761 WT18     206      MECN     C2       CG1N1    0.360000       12.0110           0
     53762 WT18     206      MECN     N3       NG1T1   -0.460000       14.0070           0
     53763 WT18     210      MECN     C1       CG331   -0.170000       12.0110           0
     53764 WT18     210      MECN     H11      HGA3     0.090000        1.0080           0
     53765 WT18     210      MECN     H12      HGA3     0.090000        1.0080           0
     53766 WT18     210      MECN     H13      HGA3     0.090000        1.0080           0
     53767 WT18     210      MECN     C2       CG1N1    0.360000       12.0110           0
     53768 WT18     210      MECN     N3       NG1T1   -0.460000       14.0070           0
     53769 WT18     211      MECN     C1       CG331   -0.170000       12.0110           0
     53770 WT18     211      MECN     H11      HGA3     0.090000        1.0080           0
     53771 WT18     211      MECN     H12      HGA3     0.090000        1.0080           0
     53772 WT18     211      MECN     H13      HGA3     0.090000        1.0080           0
     53773 WT18     211      MECN     C2       CG1N1    0.360000       12.0110           0
     53774 WT18     211      MECN     N3       NG1T1   -0.460000       14.0070           0
     53775 WT18     213      MECN     C1       CG331   -0.170000       12.0110           0
     53776 WT18     213      MECN     H11      HGA3     0.090000        1.0080           0
     53777 WT18     213      MECN     H12      HGA3     0.090000        1.0080           0
     53778 WT18     213      MECN     H13      HGA3     0.090000        1.0080           0
     53779 WT18     213      MECN     C2       CG1N1    0.360000       12.0110           0
     53780 WT18     213      MECN     N3       NG1T1   -0.460000       14.0070           0
     53781 WT18     214      MECN     C1       CG331   -0.170000       12.0110           0
     53782 WT18     214      MECN     H11      HGA3     0.090000        1.0080           0
     53783 WT18     214      MECN     H12      HGA3     0.090000        1.0080           0
     53784 WT18     214      MECN     H13      HGA3     0.090000        1.0080           0
     53785 WT18     214      MECN     C2       CG1N1    0.360000       12.0110           0
     53786 WT18     214      MECN     N3       NG1T1   -0.460000       14.0070           0
     53787 WT18     217      MECN     C1       CG331   -0.170000       12.0110           0
     53788 WT18     217      MECN     H11      HGA3     0.090000        1.0080           0
     53789 WT18     217      MECN     H12      HGA3     0.090000        1.0080           0
     53790 WT18     217      MECN     H13      HGA3     0.090000        1.0080           0
     53791 WT18     217      MECN     C2       CG1N1    0.360000       12.0110           0
     53792 WT18     217      MECN     N3       NG1T1   -0.460000       14.0070           0
     53793 WT18     218      MECN     C1       CG331   -0.170000       12.0110           0
     53794 WT18     218      MECN     H11      HGA3     0.090000        1.0080           0
     53795 WT18     218      MECN     H12      HGA3     0.090000        1.0080           0
     53796 WT18     218      MECN     H13      HGA3     0.090000        1.0080           0
     53797 WT18     218      MECN     C2       CG1N1    0.360000       12.0110           0
     53798 WT18     218      MECN     N3       NG1T1   -0.460000       14.0070           0
     53799 WT18     222      MECN     C1       CG331   -0.170000       12.0110           0
     53800 WT18     222      MECN     H11      HGA3     0.090000        1.0080           0
     53801 WT18     222      MECN     H12      HGA3     0.090000        1.0080           0
     53802 WT18     222      MECN     H13      HGA3     0.090000        1.0080           0
     53803 WT18     222      MECN     C2       CG1N1    0.360000       12.0110           0
     53804 WT18     222      MECN     N3       NG1T1   -0.460000       14.0070           0
     53805 WT18     223      MECN     C1       CG331   -0.170000       12.0110           0
     53806 WT18     223      MECN     H11      HGA3     0.090000        1.0080           0
     53807 WT18     223      MECN     H12      HGA3     0.090000        1.0080           0
     53808 WT18     223      MECN     H13      HGA3     0.090000        1.0080           0
     53809 WT18     223      MECN     C2       CG1N1    0.360000       12.0110           0
     53810 WT18     223      MECN     N3       NG1T1   -0.460000       14.0070           0
     53811 WT18     225      MECN     C1       CG331   -0.170000       12.0110           0
     53812 WT18     225      MECN     H11      HGA3     0.090000        1.0080           0
     53813 WT18     225      MECN     H12      HGA3     0.090000        1.0080           0
     53814 WT18     225      MECN     H13      HGA3     0.090000        1.0080           0
     53815 WT18     225      MECN     C2       CG1N1    0.360000       12.0110           0
     53816 WT18     225      MECN     N3       NG1T1   -0.460000       14.0070           0
     53817 WT18     226      MECN     C1       CG331   -0.170000       12.0110           0
     53818 WT18     226      MECN     H11      HGA3     0.090000        1.0080           0
     53819 WT18     226      MECN     H12      HGA3     0.090000        1.0080           0
     53820 WT18     226      MECN     H13      HGA3     0.090000        1.0080           0
     53821 WT18     226      MECN     C2       CG1N1    0.360000       12.0110           0
     53822 WT18     226      MECN     N3       NG1T1   -0.460000       14.0070           0
     53823 WT18     227      MECN     C1       CG331   -0.170000       12.0110           0
     53824 WT18     227      MECN     H11      HGA3     0.090000        1.0080           0
     53825 WT18     227      MECN     H12      HGA3     0.090000        1.0080           0
     53826 WT18     227      MECN     H13      HGA3     0.090000        1.0080           0
     53827 WT18     227      MECN     C2       CG1N1    0.360000       12.0110           0
     53828 WT18     227      MECN     N3       NG1T1   -0.460000       14.0070           0
     53829 WT18     228      MECN     C1       CG331   -0.170000       12.0110           0
     53830 WT18     228      MECN     H11      HGA3     0.090000        1.0080           0
     53831 WT18     228      MECN     H12      HGA3     0.090000        1.0080           0
     53832 WT18     228      MECN     H13      HGA3     0.090000        1.0080           0
     53833 WT18     228      MECN     C2       CG1N1    0.360000       12.0110           0
     53834 WT18     228      MECN     N3       NG1T1   -0.460000       14.0070           0
     53835 WT18     232      MECN     C1       CG331   -0.170000       12.0110           0
     53836 WT18     232      MECN     H11      HGA3     0.090000        1.0080           0
     53837 WT18     232      MECN     H12      HGA3     0.090000        1.0080           0
     53838 WT18     232      MECN     H13      HGA3     0.090000        1.0080           0
     53839 WT18     232      MECN     C2       CG1N1    0.360000       12.0110           0
     53840 WT18     232      MECN     N3       NG1T1   -0.460000       14.0070           0
     53841 WT18     233      MECN     C1       CG331   -0.170000       12.0110           0
     53842 WT18     233      MECN     H11      HGA3     0.090000        1.0080           0
     53843 WT18     233      MECN     H12      HGA3     0.090000        1.0080           0
     53844 WT18     233      MECN     H13      HGA3     0.090000        1.0080           0
     53845 WT18     233      MECN     C2       CG1N1    0.360000       12.0110           0
     53846 WT18     233      MECN     N3       NG1T1   -0.460000       14.0070           0
     53847 WT18     234      MECN     C1       CG331   -0.170000       12.0110           0
     53848 WT18     234      MECN     H11      HGA3     0.090000        1.0080           0
     53849 WT18     234      MECN     H12      HGA3     0.090000        1.0080           0
     53850 WT18     234      MECN     H13      HGA3     0.090000        1.0080           0
     53851 WT18     234      MECN     C2       CG1N1    0.360000       12.0110           0
     53852 WT18     234      MECN     N3       NG1T1   -0.460000       14.0070           0
     53853 WT18     235      MECN     C1       CG331   -0.170000       12.0110           0
     53854 WT18     235      MECN     H11      HGA3     0.090000        1.0080           0
     53855 WT18     235      MECN     H12      HGA3     0.090000        1.0080           0
     53856 WT18     235      MECN     H13      HGA3     0.090000        1.0080           0
     53857 WT18     235      MECN     C2       CG1N1    0.360000       12.0110           0
     53858 WT18     235      MECN     N3       NG1T1   -0.460000       14.0070           0
     53859 WT18     237      MECN     C1       CG331   -0.170000       12.0110           0
     53860 WT18     237      MECN     H11      HGA3     0.090000        1.0080           0
     53861 WT18     237      MECN     H12      HGA3     0.090000        1.0080           0
     53862 WT18     237      MECN     H13      HGA3     0.090000        1.0080           0
     53863 WT18     237      MECN     C2       CG1N1    0.360000       12.0110           0
     53864 WT18     237      MECN     N3       NG1T1   -0.460000       14.0070           0
     53865 WT18     239      MECN     C1       CG331   -0.170000       12.0110           0
     53866 WT18     239      MECN     H11      HGA3     0.090000        1.0080           0
     53867 WT18     239      MECN     H12      HGA3     0.090000        1.0080           0
     53868 WT18     239      MECN     H13      HGA3     0.090000        1.0080           0
     53869 WT18     239      MECN     C2       CG1N1    0.360000       12.0110           0
     53870 WT18     239      MECN     N3       NG1T1   -0.460000       14.0070           0
     53871 WT18     240      MECN     C1       CG331   -0.170000       12.0110           0
     53872 WT18     240      MECN     H11      HGA3     0.090000        1.0080           0
     53873 WT18     240      MECN     H12      HGA3     0.090000        1.0080           0
     53874 WT18     240      MECN     H13      HGA3     0.090000        1.0080           0
     53875 WT18     240      MECN     C2       CG1N1    0.360000       12.0110           0
     53876 WT18     240      MECN     N3       NG1T1   -0.460000       14.0070           0
     53877 WT18     242      MECN     C1       CG331   -0.170000       12.0110           0
     53878 WT18     242      MECN     H11      HGA3     0.090000        1.0080           0
     53879 WT18     242      MECN     H12      HGA3     0.090000        1.0080           0
     53880 WT18     242      MECN     H13      HGA3     0.090000        1.0080           0
     53881 WT18     242      MECN     C2       CG1N1    0.360000       12.0110           0
     53882 WT18     242      MECN     N3       NG1T1   -0.460000       14.0070           0
     53883 WT18     243      MECN     C1       CG331   -0.170000       12.0110           0
     53884 WT18     243      MECN     H11      HGA3     0.090000        1.0080           0
     53885 WT18     243      MECN     H12      HGA3     0.090000        1.0080           0
     53886 WT18     243      MECN     H13      HGA3     0.090000        1.0080           0
     53887 WT18     243      MECN     C2       CG1N1    0.360000       12.0110           0
     53888 WT18     243      MECN     N3       NG1T1   -0.460000       14.0070           0
     53889 WT18     244      MECN     C1       CG331   -0.170000       12.0110           0
     53890 WT18     244      MECN     H11      HGA3     0.090000        1.0080           0
     53891 WT18     244      MECN     H12      HGA3     0.090000        1.0080           0
     53892 WT18     244      MECN     H13      HGA3     0.090000        1.0080           0
     53893 WT18     244      MECN     C2       CG1N1    0.360000       12.0110           0
     53894 WT18     244      MECN     N3       NG1T1   -0.460000       14.0070           0
     53895 WT18     246      MECN     C1       CG331   -0.170000       12.0110           0
     53896 WT18     246      MECN     H11      HGA3     0.090000        1.0080           0
     53897 WT18     246      MECN     H12      HGA3     0.090000        1.0080           0
     53898 WT18     246      MECN     H13      HGA3     0.090000        1.0080           0
     53899 WT18     246      MECN     C2       CG1N1    0.360000       12.0110           0
     53900 WT18     246      MECN     N3       NG1T1   -0.460000       14.0070           0
     53901 WT18     249      MECN     C1       CG331   -0.170000       12.0110           0
     53902 WT18     249      MECN     H11      HGA3     0.090000        1.0080           0
     53903 WT18     249      MECN     H12      HGA3     0.090000        1.0080           0
     53904 WT18     249      MECN     H13      HGA3     0.090000        1.0080           0
     53905 WT18     249      MECN     C2       CG1N1    0.360000       12.0110           0
     53906 WT18     249      MECN     N3       NG1T1   -0.460000       14.0070           0
     53907 WT18     250      MECN     C1       CG331   -0.170000       12.0110           0
     53908 WT18     250      MECN     H11      HGA3     0.090000        1.0080           0
     53909 WT18     250      MECN     H12      HGA3     0.090000        1.0080           0
     53910 WT18     250      MECN     H13      HGA3     0.090000        1.0080           0
     53911 WT18     250      MECN     C2       CG1N1    0.360000       12.0110           0
     53912 WT18     250      MECN     N3       NG1T1   -0.460000       14.0070           0
     53913 WT18     251      MECN     C1       CG331   -0.170000       12.0110           0
     53914 WT18     251      MECN     H11      HGA3     0.090000        1.0080           0
     53915 WT18     251      MECN     H12      HGA3     0.090000        1.0080           0
     53916 WT18     251      MECN     H13      HGA3     0.090000        1.0080           0
     53917 WT18     251      MECN     C2       CG1N1    0.360000       12.0110           0
     53918 WT18     251      MECN     N3       NG1T1   -0.460000       14.0070           0
     53919 WT18     252      MECN     C1       CG331   -0.170000       12.0110           0
     53920 WT18     252      MECN     H11      HGA3     0.090000        1.0080           0
     53921 WT18     252      MECN     H12      HGA3     0.090000        1.0080           0
     53922 WT18     252      MECN     H13      HGA3     0.090000        1.0080           0
     53923 WT18     252      MECN     C2       CG1N1    0.360000       12.0110           0
     53924 WT18     252      MECN     N3       NG1T1   -0.460000       14.0070           0
     53925 WT18     254      MECN     C1       CG331   -0.170000       12.0110           0
     53926 WT18     254      MECN     H11      HGA3     0.090000        1.0080           0
     53927 WT18     254      MECN     H12      HGA3     0.090000        1.0080           0
     53928 WT18     254      MECN     H13      HGA3     0.090000        1.0080           0
     53929 WT18     254      MECN     C2       CG1N1    0.360000       12.0110           0
     53930 WT18     254      MECN     N3       NG1T1   -0.460000       14.0070           0
     53931 WT18     257      MECN     C1       CG331   -0.170000       12.0110           0
     53932 WT18     257      MECN     H11      HGA3     0.090000        1.0080           0
     53933 WT18     257      MECN     H12      HGA3     0.090000        1.0080           0
     53934 WT18     257      MECN     H13      HGA3     0.090000        1.0080           0
     53935 WT18     257      MECN     C2       CG1N1    0.360000       12.0110           0
     53936 WT18     257      MECN     N3       NG1T1   -0.460000       14.0070           0
     53937 WT18     258      MECN     C1       CG331   -0.170000       12.0110           0
     53938 WT18     258      MECN     H11      HGA3     0.090000        1.0080           0
     53939 WT18     258      MECN     H12      HGA3     0.090000        1.0080           0
     53940 WT18     258      MECN     H13      HGA3     0.090000        1.0080           0
     53941 WT18     258      MECN     C2       CG1N1    0.360000       12.0110           0
     53942 WT18     258      MECN     N3       NG1T1   -0.460000       14.0070           0
     53943 WT18     259      MECN     C1       CG331   -0.170000       12.0110           0
     53944 WT18     259      MECN     H11      HGA3     0.090000        1.0080           0
     53945 WT18     259      MECN     H12      HGA3     0.090000        1.0080           0
     53946 WT18     259      MECN     H13      HGA3     0.090000        1.0080           0
     53947 WT18     259      MECN     C2       CG1N1    0.360000       12.0110           0
     53948 WT18     259      MECN     N3       NG1T1   -0.460000       14.0070           0
     53949 WT18     261      MECN     C1       CG331   -0.170000       12.0110           0
     53950 WT18     261      MECN     H11      HGA3     0.090000        1.0080           0
     53951 WT18     261      MECN     H12      HGA3     0.090000        1.0080           0
     53952 WT18     261      MECN     H13      HGA3     0.090000        1.0080           0
     53953 WT18     261      MECN     C2       CG1N1    0.360000       12.0110           0
     53954 WT18     261      MECN     N3       NG1T1   -0.460000       14.0070           0
     53955 WT18     262      MECN     C1       CG331   -0.170000       12.0110           0
     53956 WT18     262      MECN     H11      HGA3     0.090000        1.0080           0
     53957 WT18     262      MECN     H12      HGA3     0.090000        1.0080           0
     53958 WT18     262      MECN     H13      HGA3     0.090000        1.0080           0
     53959 WT18     262      MECN     C2       CG1N1    0.360000       12.0110           0
     53960 WT18     262      MECN     N3       NG1T1   -0.460000       14.0070           0
     53961 WT18     263      MECN     C1       CG331   -0.170000       12.0110           0
     53962 WT18     263      MECN     H11      HGA3     0.090000        1.0080           0
     53963 WT18     263      MECN     H12      HGA3     0.090000        1.0080           0
     53964 WT18     263      MECN     H13      HGA3     0.090000        1.0080           0
     53965 WT18     263      MECN     C2       CG1N1    0.360000       12.0110           0
     53966 WT18     263      MECN     N3       NG1T1   -0.460000       14.0070           0
     53967 WT18     264      MECN     C1       CG331   -0.170000       12.0110           0
     53968 WT18     264      MECN     H11      HGA3     0.090000        1.0080           0
     53969 WT18     264      MECN     H12      HGA3     0.090000        1.0080           0
     53970 WT18     264      MECN     H13      HGA3     0.090000        1.0080           0
     53971 WT18     264      MECN     C2       CG1N1    0.360000       12.0110           0
     53972 WT18     264      MECN     N3       NG1T1   -0.460000       14.0070           0
     53973 WT18     265      MECN     C1       CG331   -0.170000       12.0110           0
     53974 WT18     265      MECN     H11      HGA3     0.090000        1.0080           0
     53975 WT18     265      MECN     H12      HGA3     0.090000        1.0080           0
     53976 WT18     265      MECN     H13      HGA3     0.090000        1.0080           0
     53977 WT18     265      MECN     C2       CG1N1    0.360000       12.0110           0
     53978 WT18     265      MECN     N3       NG1T1   -0.460000       14.0070           0
     53979 WT18     268      MECN     C1       CG331   -0.170000       12.0110           0
     53980 WT18     268      MECN     H11      HGA3     0.090000        1.0080           0
     53981 WT18     268      MECN     H12      HGA3     0.090000        1.0080           0
     53982 WT18     268      MECN     H13      HGA3     0.090000        1.0080           0
     53983 WT18     268      MECN     C2       CG1N1    0.360000       12.0110           0
     53984 WT18     268      MECN     N3       NG1T1   -0.460000       14.0070           0
     53985 WT18     269      MECN     C1       CG331   -0.170000       12.0110           0
     53986 WT18     269      MECN     H11      HGA3     0.090000        1.0080           0
     53987 WT18     269      MECN     H12      HGA3     0.090000        1.0080           0
     53988 WT18     269      MECN     H13      HGA3     0.090000        1.0080           0
     53989 WT18     269      MECN     C2       CG1N1    0.360000       12.0110           0
     53990 WT18     269      MECN     N3       NG1T1   -0.460000       14.0070           0
     53991 WT18     275      MECN     C1       CG331   -0.170000       12.0110           0
     53992 WT18     275      MECN     H11      HGA3     0.090000        1.0080           0
     53993 WT18     275      MECN     H12      HGA3     0.090000        1.0080           0
     53994 WT18     275      MECN     H13      HGA3     0.090000        1.0080           0
     53995 WT18     275      MECN     C2       CG1N1    0.360000       12.0110           0
     53996 WT18     275      MECN     N3       NG1T1   -0.460000       14.0070           0
     53997 WT18     276      MECN     C1       CG331   -0.170000       12.0110           0
     53998 WT18     276      MECN     H11      HGA3     0.090000        1.0080           0
     53999 WT18     276      MECN     H12      HGA3     0.090000        1.0080           0
     54000 WT18     276      MECN     H13      HGA3     0.090000        1.0080           0
     54001 WT18     276      MECN     C2       CG1N1    0.360000       12.0110           0
     54002 WT18     276      MECN     N3       NG1T1   -0.460000       14.0070           0
     54003 WT18     277      MECN     C1       CG331   -0.170000       12.0110           0
     54004 WT18     277      MECN     H11      HGA3     0.090000        1.0080           0
     54005 WT18     277      MECN     H12      HGA3     0.090000        1.0080           0
     54006 WT18     277      MECN     H13      HGA3     0.090000        1.0080           0
     54007 WT18     277      MECN     C2       CG1N1    0.360000       12.0110           0
     54008 WT18     277      MECN     N3       NG1T1   -0.460000       14.0070           0
     54009 WT18     278      MECN     C1       CG331   -0.170000       12.0110           0
     54010 WT18     278      MECN     H11      HGA3     0.090000        1.0080           0
     54011 WT18     278      MECN     H12      HGA3     0.090000        1.0080           0
     54012 WT18     278      MECN     H13      HGA3     0.090000        1.0080           0
     54013 WT18     278      MECN     C2       CG1N1    0.360000       12.0110           0
     54014 WT18     278      MECN     N3       NG1T1   -0.460000       14.0070           0
     54015 WT18     281      MECN     C1       CG331   -0.170000       12.0110           0
     54016 WT18     281      MECN     H11      HGA3     0.090000        1.0080           0
     54017 WT18     281      MECN     H12      HGA3     0.090000        1.0080           0
     54018 WT18     281      MECN     H13      HGA3     0.090000        1.0080           0
     54019 WT18     281      MECN     C2       CG1N1    0.360000       12.0110           0
     54020 WT18     281      MECN     N3       NG1T1   -0.460000       14.0070           0
     54021 WT18     282      MECN     C1       CG331   -0.170000       12.0110           0
     54022 WT18     282      MECN     H11      HGA3     0.090000        1.0080           0
     54023 WT18     282      MECN     H12      HGA3     0.090000        1.0080           0
     54024 WT18     282      MECN     H13      HGA3     0.090000        1.0080           0
     54025 WT18     282      MECN     C2       CG1N1    0.360000       12.0110           0
     54026 WT18     282      MECN     N3       NG1T1   -0.460000       14.0070           0
     54027 WT18     283      MECN     C1       CG331   -0.170000       12.0110           0
     54028 WT18     283      MECN     H11      HGA3     0.090000        1.0080           0
     54029 WT18     283      MECN     H12      HGA3     0.090000        1.0080           0
     54030 WT18     283      MECN     H13      HGA3     0.090000        1.0080           0
     54031 WT18     283      MECN     C2       CG1N1    0.360000       12.0110           0
     54032 WT18     283      MECN     N3       NG1T1   -0.460000       14.0070           0
     54033 WT18     284      MECN     C1       CG331   -0.170000       12.0110           0
     54034 WT18     284      MECN     H11      HGA3     0.090000        1.0080           0
     54035 WT18     284      MECN     H12      HGA3     0.090000        1.0080           0
     54036 WT18     284      MECN     H13      HGA3     0.090000        1.0080           0
     54037 WT18     284      MECN     C2       CG1N1    0.360000       12.0110           0
     54038 WT18     284      MECN     N3       NG1T1   -0.460000       14.0070           0
     54039 WT18     285      MECN     C1       CG331   -0.170000       12.0110           0
     54040 WT18     285      MECN     H11      HGA3     0.090000        1.0080           0
     54041 WT18     285      MECN     H12      HGA3     0.090000        1.0080           0
     54042 WT18     285      MECN     H13      HGA3     0.090000        1.0080           0
     54043 WT18     285      MECN     C2       CG1N1    0.360000       12.0110           0
     54044 WT18     285      MECN     N3       NG1T1   -0.460000       14.0070           0
     54045 WT18     290      MECN     C1       CG331   -0.170000       12.0110           0
     54046 WT18     290      MECN     H11      HGA3     0.090000        1.0080           0
     54047 WT18     290      MECN     H12      HGA3     0.090000        1.0080           0
     54048 WT18     290      MECN     H13      HGA3     0.090000        1.0080           0
     54049 WT18     290      MECN     C2       CG1N1    0.360000       12.0110           0
     54050 WT18     290      MECN     N3       NG1T1   -0.460000       14.0070           0
     54051 WT18     291      MECN     C1       CG331   -0.170000       12.0110           0
     54052 WT18     291      MECN     H11      HGA3     0.090000        1.0080           0
     54053 WT18     291      MECN     H12      HGA3     0.090000        1.0080           0
     54054 WT18     291      MECN     H13      HGA3     0.090000        1.0080           0
     54055 WT18     291      MECN     C2       CG1N1    0.360000       12.0110           0
     54056 WT18     291      MECN     N3       NG1T1   -0.460000       14.0070           0
     54057 WT18     293      MECN     C1       CG331   -0.170000       12.0110           0
     54058 WT18     293      MECN     H11      HGA3     0.090000        1.0080           0
     54059 WT18     293      MECN     H12      HGA3     0.090000        1.0080           0
     54060 WT18     293      MECN     H13      HGA3     0.090000        1.0080           0
     54061 WT18     293      MECN     C2       CG1N1    0.360000       12.0110           0
     54062 WT18     293      MECN     N3       NG1T1   -0.460000       14.0070           0
     54063 WT18     295      MECN     C1       CG331   -0.170000       12.0110           0
     54064 WT18     295      MECN     H11      HGA3     0.090000        1.0080           0
     54065 WT18     295      MECN     H12      HGA3     0.090000        1.0080           0
     54066 WT18     295      MECN     H13      HGA3     0.090000        1.0080           0
     54067 WT18     295      MECN     C2       CG1N1    0.360000       12.0110           0
     54068 WT18     295      MECN     N3       NG1T1   -0.460000       14.0070           0
     54069 WT18     301      MECN     C1       CG331   -0.170000       12.0110           0
     54070 WT18     301      MECN     H11      HGA3     0.090000        1.0080           0
     54071 WT18     301      MECN     H12      HGA3     0.090000        1.0080           0
     54072 WT18     301      MECN     H13      HGA3     0.090000        1.0080           0
     54073 WT18     301      MECN     C2       CG1N1    0.360000       12.0110           0
     54074 WT18     301      MECN     N3       NG1T1   -0.460000       14.0070           0
     54075 WT18     302      MECN     C1       CG331   -0.170000       12.0110           0
     54076 WT18     302      MECN     H11      HGA3     0.090000        1.0080           0
     54077 WT18     302      MECN     H12      HGA3     0.090000        1.0080           0
     54078 WT18     302      MECN     H13      HGA3     0.090000        1.0080           0
     54079 WT18     302      MECN     C2       CG1N1    0.360000       12.0110           0
     54080 WT18     302      MECN     N3       NG1T1   -0.460000       14.0070           0
     54081 WT18     303      MECN     C1       CG331   -0.170000       12.0110           0
     54082 WT18     303      MECN     H11      HGA3     0.090000        1.0080           0
     54083 WT18     303      MECN     H12      HGA3     0.090000        1.0080           0
     54084 WT18     303      MECN     H13      HGA3     0.090000        1.0080           0
     54085 WT18     303      MECN     C2       CG1N1    0.360000       12.0110           0
     54086 WT18     303      MECN     N3       NG1T1   -0.460000       14.0070           0
     54087 WT18     304      MECN     C1       CG331   -0.170000       12.0110           0
     54088 WT18     304      MECN     H11      HGA3     0.090000        1.0080           0
     54089 WT18     304      MECN     H12      HGA3     0.090000        1.0080           0
     54090 WT18     304      MECN     H13      HGA3     0.090000        1.0080           0
     54091 WT18     304      MECN     C2       CG1N1    0.360000       12.0110           0
     54092 WT18     304      MECN     N3       NG1T1   -0.460000       14.0070           0
     54093 WT18     305      MECN     C1       CG331   -0.170000       12.0110           0
     54094 WT18     305      MECN     H11      HGA3     0.090000        1.0080           0
     54095 WT18     305      MECN     H12      HGA3     0.090000        1.0080           0
     54096 WT18     305      MECN     H13      HGA3     0.090000        1.0080           0
     54097 WT18     305      MECN     C2       CG1N1    0.360000       12.0110           0
     54098 WT18     305      MECN     N3       NG1T1   -0.460000       14.0070           0
     54099 WT18     307      MECN     C1       CG331   -0.170000       12.0110           0
     54100 WT18     307      MECN     H11      HGA3     0.090000        1.0080           0
     54101 WT18     307      MECN     H12      HGA3     0.090000        1.0080           0
     54102 WT18     307      MECN     H13      HGA3     0.090000        1.0080           0
     54103 WT18     307      MECN     C2       CG1N1    0.360000       12.0110           0
     54104 WT18     307      MECN     N3       NG1T1   -0.460000       14.0070           0
     54105 WT18     308      MECN     C1       CG331   -0.170000       12.0110           0
     54106 WT18     308      MECN     H11      HGA3     0.090000        1.0080           0
     54107 WT18     308      MECN     H12      HGA3     0.090000        1.0080           0
     54108 WT18     308      MECN     H13      HGA3     0.090000        1.0080           0
     54109 WT18     308      MECN     C2       CG1N1    0.360000       12.0110           0
     54110 WT18     308      MECN     N3       NG1T1   -0.460000       14.0070           0
     54111 WT18     309      MECN     C1       CG331   -0.170000       12.0110           0
     54112 WT18     309      MECN     H11      HGA3     0.090000        1.0080           0
     54113 WT18     309      MECN     H12      HGA3     0.090000        1.0080           0
     54114 WT18     309      MECN     H13      HGA3     0.090000        1.0080           0
     54115 WT18     309      MECN     C2       CG1N1    0.360000       12.0110           0
     54116 WT18     309      MECN     N3       NG1T1   -0.460000       14.0070           0
     54117 WT18     311      MECN     C1       CG331   -0.170000       12.0110           0
     54118 WT18     311      MECN     H11      HGA3     0.090000        1.0080           0
     54119 WT18     311      MECN     H12      HGA3     0.090000        1.0080           0
     54120 WT18     311      MECN     H13      HGA3     0.090000        1.0080           0
     54121 WT18     311      MECN     C2       CG1N1    0.360000       12.0110           0
     54122 WT18     311      MECN     N3       NG1T1   -0.460000       14.0070           0
     54123 WT18     320      MECN     C1       CG331   -0.170000       12.0110           0
     54124 WT18     320      MECN     H11      HGA3     0.090000        1.0080           0
     54125 WT18     320      MECN     H12      HGA3     0.090000        1.0080           0
     54126 WT18     320      MECN     H13      HGA3     0.090000        1.0080           0
     54127 WT18     320      MECN     C2       CG1N1    0.360000       12.0110           0
     54128 WT18     320      MECN     N3       NG1T1   -0.460000       14.0070           0
     54129 WT18     321      MECN     C1       CG331   -0.170000       12.0110           0
     54130 WT18     321      MECN     H11      HGA3     0.090000        1.0080           0
     54131 WT18     321      MECN     H12      HGA3     0.090000        1.0080           0
     54132 WT18     321      MECN     H13      HGA3     0.090000        1.0080           0
     54133 WT18     321      MECN     C2       CG1N1    0.360000       12.0110           0
     54134 WT18     321      MECN     N3       NG1T1   -0.460000       14.0070           0
     54135 WT18     323      MECN     C1       CG331   -0.170000       12.0110           0
     54136 WT18     323      MECN     H11      HGA3     0.090000        1.0080           0
     54137 WT18     323      MECN     H12      HGA3     0.090000        1.0080           0
     54138 WT18     323      MECN     H13      HGA3     0.090000        1.0080           0
     54139 WT18     323      MECN     C2       CG1N1    0.360000       12.0110           0
     54140 WT18     323      MECN     N3       NG1T1   -0.460000       14.0070           0
     54141 WT18     324      MECN     C1       CG331   -0.170000       12.0110           0
     54142 WT18     324      MECN     H11      HGA3     0.090000        1.0080           0
     54143 WT18     324      MECN     H12      HGA3     0.090000        1.0080           0
     54144 WT18     324      MECN     H13      HGA3     0.090000        1.0080           0
     54145 WT18     324      MECN     C2       CG1N1    0.360000       12.0110           0
     54146 WT18     324      MECN     N3       NG1T1   -0.460000       14.0070           0
     54147 WT18     326      MECN     C1       CG331   -0.170000       12.0110           0
     54148 WT18     326      MECN     H11      HGA3     0.090000        1.0080           0
     54149 WT18     326      MECN     H12      HGA3     0.090000        1.0080           0
     54150 WT18     326      MECN     H13      HGA3     0.090000        1.0080           0
     54151 WT18     326      MECN     C2       CG1N1    0.360000       12.0110           0
     54152 WT18     326      MECN     N3       NG1T1   -0.460000       14.0070           0
     54153 WT18     329      MECN     C1       CG331   -0.170000       12.0110           0
     54154 WT18     329      MECN     H11      HGA3     0.090000        1.0080           0
     54155 WT18     329      MECN     H12      HGA3     0.090000        1.0080           0
     54156 WT18     329      MECN     H13      HGA3     0.090000        1.0080           0
     54157 WT18     329      MECN     C2       CG1N1    0.360000       12.0110           0
     54158 WT18     329      MECN     N3       NG1T1   -0.460000       14.0070           0
     54159 WT18     330      MECN     C1       CG331   -0.170000       12.0110           0
     54160 WT18     330      MECN     H11      HGA3     0.090000        1.0080           0
     54161 WT18     330      MECN     H12      HGA3     0.090000        1.0080           0
     54162 WT18     330      MECN     H13      HGA3     0.090000        1.0080           0
     54163 WT18     330      MECN     C2       CG1N1    0.360000       12.0110           0
     54164 WT18     330      MECN     N3       NG1T1   -0.460000       14.0070           0
     54165 WT18     331      MECN     C1       CG331   -0.170000       12.0110           0
     54166 WT18     331      MECN     H11      HGA3     0.090000        1.0080           0
     54167 WT18     331      MECN     H12      HGA3     0.090000        1.0080           0
     54168 WT18     331      MECN     H13      HGA3     0.090000        1.0080           0
     54169 WT18     331      MECN     C2       CG1N1    0.360000       12.0110           0
     54170 WT18     331      MECN     N3       NG1T1   -0.460000       14.0070           0
     54171 WT18     334      MECN     C1       CG331   -0.170000       12.0110           0
     54172 WT18     334      MECN     H11      HGA3     0.090000        1.0080           0
     54173 WT18     334      MECN     H12      HGA3     0.090000        1.0080           0
     54174 WT18     334      MECN     H13      HGA3     0.090000        1.0080           0
     54175 WT18     334      MECN     C2       CG1N1    0.360000       12.0110           0
     54176 WT18     334      MECN     N3       NG1T1   -0.460000       14.0070           0
     54177 WT18     343      MECN     C1       CG331   -0.170000       12.0110           0
     54178 WT18     343      MECN     H11      HGA3     0.090000        1.0080           0
     54179 WT18     343      MECN     H12      HGA3     0.090000        1.0080           0
     54180 WT18     343      MECN     H13      HGA3     0.090000        1.0080           0
     54181 WT18     343      MECN     C2       CG1N1    0.360000       12.0110           0
     54182 WT18     343      MECN     N3       NG1T1   -0.460000       14.0070           0
     54183 WT18     345      MECN     C1       CG331   -0.170000       12.0110           0
     54184 WT18     345      MECN     H11      HGA3     0.090000        1.0080           0
     54185 WT18     345      MECN     H12      HGA3     0.090000        1.0080           0
     54186 WT18     345      MECN     H13      HGA3     0.090000        1.0080           0
     54187 WT18     345      MECN     C2       CG1N1    0.360000       12.0110           0
     54188 WT18     345      MECN     N3       NG1T1   -0.460000       14.0070           0
     54189 WT18     346      MECN     C1       CG331   -0.170000       12.0110           0
     54190 WT18     346      MECN     H11      HGA3     0.090000        1.0080           0
     54191 WT18     346      MECN     H12      HGA3     0.090000        1.0080           0
     54192 WT18     346      MECN     H13      HGA3     0.090000        1.0080           0
     54193 WT18     346      MECN     C2       CG1N1    0.360000       12.0110           0
     54194 WT18     346      MECN     N3       NG1T1   -0.460000       14.0070           0
     54195 WT18     347      MECN     C1       CG331   -0.170000       12.0110           0
     54196 WT18     347      MECN     H11      HGA3     0.090000        1.0080           0
     54197 WT18     347      MECN     H12      HGA3     0.090000        1.0080           0
     54198 WT18     347      MECN     H13      HGA3     0.090000        1.0080           0
     54199 WT18     347      MECN     C2       CG1N1    0.360000       12.0110           0
     54200 WT18     347      MECN     N3       NG1T1   -0.460000       14.0070           0
     54201 WT18     348      MECN     C1       CG331   -0.170000       12.0110           0
     54202 WT18     348      MECN     H11      HGA3     0.090000        1.0080           0
     54203 WT18     348      MECN     H12      HGA3     0.090000        1.0080           0
     54204 WT18     348      MECN     H13      HGA3     0.090000        1.0080           0
     54205 WT18     348      MECN     C2       CG1N1    0.360000       12.0110           0
     54206 WT18     348      MECN     N3       NG1T1   -0.460000       14.0070           0
     54207 WT18     350      MECN     C1       CG331   -0.170000       12.0110           0
     54208 WT18     350      MECN     H11      HGA3     0.090000        1.0080           0
     54209 WT18     350      MECN     H12      HGA3     0.090000        1.0080           0
     54210 WT18     350      MECN     H13      HGA3     0.090000        1.0080           0
     54211 WT18     350      MECN     C2       CG1N1    0.360000       12.0110           0
     54212 WT18     350      MECN     N3       NG1T1   -0.460000       14.0070           0
     54213 WT18     352      MECN     C1       CG331   -0.170000       12.0110           0
     54214 WT18     352      MECN     H11      HGA3     0.090000        1.0080           0
     54215 WT18     352      MECN     H12      HGA3     0.090000        1.0080           0
     54216 WT18     352      MECN     H13      HGA3     0.090000        1.0080           0
     54217 WT18     352      MECN     C2       CG1N1    0.360000       12.0110           0
     54218 WT18     352      MECN     N3       NG1T1   -0.460000       14.0070           0
     54219 WT18     353      MECN     C1       CG331   -0.170000       12.0110           0
     54220 WT18     353      MECN     H11      HGA3     0.090000        1.0080           0
     54221 WT18     353      MECN     H12      HGA3     0.090000        1.0080           0
     54222 WT18     353      MECN     H13      HGA3     0.090000        1.0080           0
     54223 WT18     353      MECN     C2       CG1N1    0.360000       12.0110           0
     54224 WT18     353      MECN     N3       NG1T1   -0.460000       14.0070           0
     54225 WT18     354      MECN     C1       CG331   -0.170000       12.0110           0
     54226 WT18     354      MECN     H11      HGA3     0.090000        1.0080           0
     54227 WT18     354      MECN     H12      HGA3     0.090000        1.0080           0
     54228 WT18     354      MECN     H13      HGA3     0.090000        1.0080           0
     54229 WT18     354      MECN     C2       CG1N1    0.360000       12.0110           0
     54230 WT18     354      MECN     N3       NG1T1   -0.460000       14.0070           0
     54231 WT18     355      MECN     C1       CG331   -0.170000       12.0110           0
     54232 WT18     355      MECN     H11      HGA3     0.090000        1.0080           0
     54233 WT18     355      MECN     H12      HGA3     0.090000        1.0080           0
     54234 WT18     355      MECN     H13      HGA3     0.090000        1.0080           0
     54235 WT18     355      MECN     C2       CG1N1    0.360000       12.0110           0
     54236 WT18     355      MECN     N3       NG1T1   -0.460000       14.0070           0
     54237 WT18     356      MECN     C1       CG331   -0.170000       12.0110           0
     54238 WT18     356      MECN     H11      HGA3     0.090000        1.0080           0
     54239 WT18     356      MECN     H12      HGA3     0.090000        1.0080           0
     54240 WT18     356      MECN     H13      HGA3     0.090000        1.0080           0
     54241 WT18     356      MECN     C2       CG1N1    0.360000       12.0110           0
     54242 WT18     356      MECN     N3       NG1T1   -0.460000       14.0070           0
     54243 WT18     357      MECN     C1       CG331   -0.170000       12.0110           0
     54244 WT18     357      MECN     H11      HGA3     0.090000        1.0080           0
     54245 WT18     357      MECN     H12      HGA3     0.090000        1.0080           0
     54246 WT18     357      MECN     H13      HGA3     0.090000        1.0080           0
     54247 WT18     357      MECN     C2       CG1N1    0.360000       12.0110           0
     54248 WT18     357      MECN     N3       NG1T1   -0.460000       14.0070           0
     54249 WT18     359      MECN     C1       CG331   -0.170000       12.0110           0
     54250 WT18     359      MECN     H11      HGA3     0.090000        1.0080           0
     54251 WT18     359      MECN     H12      HGA3     0.090000        1.0080           0
     54252 WT18     359      MECN     H13      HGA3     0.090000        1.0080           0
     54253 WT18     359      MECN     C2       CG1N1    0.360000       12.0110           0
     54254 WT18     359      MECN     N3       NG1T1   -0.460000       14.0070           0
     54255 WT18     362      MECN     C1       CG331   -0.170000       12.0110           0
     54256 WT18     362      MECN     H11      HGA3     0.090000        1.0080           0
     54257 WT18     362      MECN     H12      HGA3     0.090000        1.0080           0
     54258 WT18     362      MECN     H13      HGA3     0.090000        1.0080           0
     54259 WT18     362      MECN     C2       CG1N1    0.360000       12.0110           0
     54260 WT18     362      MECN     N3       NG1T1   -0.460000       14.0070           0
     54261 WT18     363      MECN     C1       CG331   -0.170000       12.0110           0
     54262 WT18     363      MECN     H11      HGA3     0.090000        1.0080           0
     54263 WT18     363      MECN     H12      HGA3     0.090000        1.0080           0
     54264 WT18     363      MECN     H13      HGA3     0.090000        1.0080           0
     54265 WT18     363      MECN     C2       CG1N1    0.360000       12.0110           0
     54266 WT18     363      MECN     N3       NG1T1   -0.460000       14.0070           0
     54267 WT18     364      MECN     C1       CG331   -0.170000       12.0110           0
     54268 WT18     364      MECN     H11      HGA3     0.090000        1.0080           0
     54269 WT18     364      MECN     H12      HGA3     0.090000        1.0080           0
     54270 WT18     364      MECN     H13      HGA3     0.090000        1.0080           0
     54271 WT18     364      MECN     C2       CG1N1    0.360000       12.0110           0
     54272 WT18     364      MECN     N3       NG1T1   -0.460000       14.0070           0
     54273 WT18     365      MECN     C1       CG331   -0.170000       12.0110           0
     54274 WT18     365      MECN     H11      HGA3     0.090000        1.0080           0
     54275 WT18     365      MECN     H12      HGA3     0.090000        1.0080           0
     54276 WT18     365      MECN     H13      HGA3     0.090000        1.0080           0
     54277 WT18     365      MECN     C2       CG1N1    0.360000       12.0110           0
     54278 WT18     365      MECN     N3       NG1T1   -0.460000       14.0070           0
     54279 WT18     368      MECN     C1       CG331   -0.170000       12.0110           0
     54280 WT18     368      MECN     H11      HGA3     0.090000        1.0080           0
     54281 WT18     368      MECN     H12      HGA3     0.090000        1.0080           0
     54282 WT18     368      MECN     H13      HGA3     0.090000        1.0080           0
     54283 WT18     368      MECN     C2       CG1N1    0.360000       12.0110           0
     54284 WT18     368      MECN     N3       NG1T1   -0.460000       14.0070           0
     54285 WT18     370      MECN     C1       CG331   -0.170000       12.0110           0
     54286 WT18     370      MECN     H11      HGA3     0.090000        1.0080           0
     54287 WT18     370      MECN     H12      HGA3     0.090000        1.0080           0
     54288 WT18     370      MECN     H13      HGA3     0.090000        1.0080           0
     54289 WT18     370      MECN     C2       CG1N1    0.360000       12.0110           0
     54290 WT18     370      MECN     N3       NG1T1   -0.460000       14.0070           0
     54291 WT18     371      MECN     C1       CG331   -0.170000       12.0110           0
     54292 WT18     371      MECN     H11      HGA3     0.090000        1.0080           0
     54293 WT18     371      MECN     H12      HGA3     0.090000        1.0080           0
     54294 WT18     371      MECN     H13      HGA3     0.090000        1.0080           0
     54295 WT18     371      MECN     C2       CG1N1    0.360000       12.0110           0
     54296 WT18     371      MECN     N3       NG1T1   -0.460000       14.0070           0
     54297 WT18     372      MECN     C1       CG331   -0.170000       12.0110           0
     54298 WT18     372      MECN     H11      HGA3     0.090000        1.0080           0
     54299 WT18     372      MECN     H12      HGA3     0.090000        1.0080           0
     54300 WT18     372      MECN     H13      HGA3     0.090000        1.0080           0
     54301 WT18     372      MECN     C2       CG1N1    0.360000       12.0110           0
     54302 WT18     372      MECN     N3       NG1T1   -0.460000       14.0070           0
     54303 WT18     375      MECN     C1       CG331   -0.170000       12.0110           0
     54304 WT18     375      MECN     H11      HGA3     0.090000        1.0080           0
     54305 WT18     375      MECN     H12      HGA3     0.090000        1.0080           0
     54306 WT18     375      MECN     H13      HGA3     0.090000        1.0080           0
     54307 WT18     375      MECN     C2       CG1N1    0.360000       12.0110           0
     54308 WT18     375      MECN     N3       NG1T1   -0.460000       14.0070           0
     54309 WT18     376      MECN     C1       CG331   -0.170000       12.0110           0
     54310 WT18     376      MECN     H11      HGA3     0.090000        1.0080           0
     54311 WT18     376      MECN     H12      HGA3     0.090000        1.0080           0
     54312 WT18     376      MECN     H13      HGA3     0.090000        1.0080           0
     54313 WT18     376      MECN     C2       CG1N1    0.360000       12.0110           0
     54314 WT18     376      MECN     N3       NG1T1   -0.460000       14.0070           0
     54315 WT18     377      MECN     C1       CG331   -0.170000       12.0110           0
     54316 WT18     377      MECN     H11      HGA3     0.090000        1.0080           0
     54317 WT18     377      MECN     H12      HGA3     0.090000        1.0080           0
     54318 WT18     377      MECN     H13      HGA3     0.090000        1.0080           0
     54319 WT18     377      MECN     C2       CG1N1    0.360000       12.0110           0
     54320 WT18     377      MECN     N3       NG1T1   -0.460000       14.0070           0
     54321 WT18     379      MECN     C1       CG331   -0.170000       12.0110           0
     54322 WT18     379      MECN     H11      HGA3     0.090000        1.0080           0
     54323 WT18     379      MECN     H12      HGA3     0.090000        1.0080           0
     54324 WT18     379      MECN     H13      HGA3     0.090000        1.0080           0
     54325 WT18     379      MECN     C2       CG1N1    0.360000       12.0110           0
     54326 WT18     379      MECN     N3       NG1T1   -0.460000       14.0070           0
     54327 WT18     380      MECN     C1       CG331   -0.170000       12.0110           0
     54328 WT18     380      MECN     H11      HGA3     0.090000        1.0080           0
     54329 WT18     380      MECN     H12      HGA3     0.090000        1.0080           0
     54330 WT18     380      MECN     H13      HGA3     0.090000        1.0080           0
     54331 WT18     380      MECN     C2       CG1N1    0.360000       12.0110           0
     54332 WT18     380      MECN     N3       NG1T1   -0.460000       14.0070           0
     54333 WT18     382      MECN     C1       CG331   -0.170000       12.0110           0
     54334 WT18     382      MECN     H11      HGA3     0.090000        1.0080           0
     54335 WT18     382      MECN     H12      HGA3     0.090000        1.0080           0
     54336 WT18     382      MECN     H13      HGA3     0.090000        1.0080           0
     54337 WT18     382      MECN     C2       CG1N1    0.360000       12.0110           0
     54338 WT18     382      MECN     N3       NG1T1   -0.460000       14.0070           0
     54339 WT18     389      MECN     C1       CG331   -0.170000       12.0110           0
     54340 WT18     389      MECN     H11      HGA3     0.090000        1.0080           0
     54341 WT18     389      MECN     H12      HGA3     0.090000        1.0080           0
     54342 WT18     389      MECN     H13      HGA3     0.090000        1.0080           0
     54343 WT18     389      MECN     C2       CG1N1    0.360000       12.0110           0
     54344 WT18     389      MECN     N3       NG1T1   -0.460000       14.0070           0
     54345 WT18     390      MECN     C1       CG331   -0.170000       12.0110           0
     54346 WT18     390      MECN     H11      HGA3     0.090000        1.0080           0
     54347 WT18     390      MECN     H12      HGA3     0.090000        1.0080           0
     54348 WT18     390      MECN     H13      HGA3     0.090000        1.0080           0
     54349 WT18     390      MECN     C2       CG1N1    0.360000       12.0110           0
     54350 WT18     390      MECN     N3       NG1T1   -0.460000       14.0070           0
     54351 WT18     391      MECN     C1       CG331   -0.170000       12.0110           0
     54352 WT18     391      MECN     H11      HGA3     0.090000        1.0080           0
     54353 WT18     391      MECN     H12      HGA3     0.090000        1.0080           0
     54354 WT18     391      MECN     H13      HGA3     0.090000        1.0080           0
     54355 WT18     391      MECN     C2       CG1N1    0.360000       12.0110           0
     54356 WT18     391      MECN     N3       NG1T1   -0.460000       14.0070           0
     54357 WT18     393      MECN     C1       CG331   -0.170000       12.0110           0
     54358 WT18     393      MECN     H11      HGA3     0.090000        1.0080           0
     54359 WT18     393      MECN     H12      HGA3     0.090000        1.0080           0
     54360 WT18     393      MECN     H13      HGA3     0.090000        1.0080           0
     54361 WT18     393      MECN     C2       CG1N1    0.360000       12.0110           0
     54362 WT18     393      MECN     N3       NG1T1   -0.460000       14.0070           0
     54363 WT18     395      MECN     C1       CG331   -0.170000       12.0110           0
     54364 WT18     395      MECN     H11      HGA3     0.090000        1.0080           0
     54365 WT18     395      MECN     H12      HGA3     0.090000        1.0080           0
     54366 WT18     395      MECN     H13      HGA3     0.090000        1.0080           0
     54367 WT18     395      MECN     C2       CG1N1    0.360000       12.0110           0
     54368 WT18     395      MECN     N3       NG1T1   -0.460000       14.0070           0
     54369 WT18     396      MECN     C1       CG331   -0.170000       12.0110           0
     54370 WT18     396      MECN     H11      HGA3     0.090000        1.0080           0
     54371 WT18     396      MECN     H12      HGA3     0.090000        1.0080           0
     54372 WT18     396      MECN     H13      HGA3     0.090000        1.0080           0
     54373 WT18     396      MECN     C2       CG1N1    0.360000       12.0110           0
     54374 WT18     396      MECN     N3       NG1T1   -0.460000       14.0070           0
     54375 WT18     397      MECN     C1       CG331   -0.170000       12.0110           0
     54376 WT18     397      MECN     H11      HGA3     0.090000        1.0080           0
     54377 WT18     397      MECN     H12      HGA3     0.090000        1.0080           0
     54378 WT18     397      MECN     H13      HGA3     0.090000        1.0080           0
     54379 WT18     397      MECN     C2       CG1N1    0.360000       12.0110           0
     54380 WT18     397      MECN     N3       NG1T1   -0.460000       14.0070           0
     54381 WT18     398      MECN     C1       CG331   -0.170000       12.0110           0
     54382 WT18     398      MECN     H11      HGA3     0.090000        1.0080           0
     54383 WT18     398      MECN     H12      HGA3     0.090000        1.0080           0
     54384 WT18     398      MECN     H13      HGA3     0.090000        1.0080           0
     54385 WT18     398      MECN     C2       CG1N1    0.360000       12.0110           0
     54386 WT18     398      MECN     N3       NG1T1   -0.460000       14.0070           0
     54387 WT18     405      MECN     C1       CG331   -0.170000       12.0110           0
     54388 WT18     405      MECN     H11      HGA3     0.090000        1.0080           0
     54389 WT18     405      MECN     H12      HGA3     0.090000        1.0080           0
     54390 WT18     405      MECN     H13      HGA3     0.090000        1.0080           0
     54391 WT18     405      MECN     C2       CG1N1    0.360000       12.0110           0
     54392 WT18     405      MECN     N3       NG1T1   -0.460000       14.0070           0
     54393 WT18     407      MECN     C1       CG331   -0.170000       12.0110           0
     54394 WT18     407      MECN     H11      HGA3     0.090000        1.0080           0
     54395 WT18     407      MECN     H12      HGA3     0.090000        1.0080           0
     54396 WT18     407      MECN     H13      HGA3     0.090000        1.0080           0
     54397 WT18     407      MECN     C2       CG1N1    0.360000       12.0110           0
     54398 WT18     407      MECN     N3       NG1T1   -0.460000       14.0070           0
     54399 WT18     409      MECN     C1       CG331   -0.170000       12.0110           0
     54400 WT18     409      MECN     H11      HGA3     0.090000        1.0080           0
     54401 WT18     409      MECN     H12      HGA3     0.090000        1.0080           0
     54402 WT18     409      MECN     H13      HGA3     0.090000        1.0080           0
     54403 WT18     409      MECN     C2       CG1N1    0.360000       12.0110           0
     54404 WT18     409      MECN     N3       NG1T1   -0.460000       14.0070           0
     54405 WT18     411      MECN     C1       CG331   -0.170000       12.0110           0
     54406 WT18     411      MECN     H11      HGA3     0.090000        1.0080           0
     54407 WT18     411      MECN     H12      HGA3     0.090000        1.0080           0
     54408 WT18     411      MECN     H13      HGA3     0.090000        1.0080           0
     54409 WT18     411      MECN     C2       CG1N1    0.360000       12.0110           0
     54410 WT18     411      MECN     N3       NG1T1   -0.460000       14.0070           0
     54411 WT18     413      MECN     C1       CG331   -0.170000       12.0110           0
     54412 WT18     413      MECN     H11      HGA3     0.090000        1.0080           0
     54413 WT18     413      MECN     H12      HGA3     0.090000        1.0080           0
     54414 WT18     413      MECN     H13      HGA3     0.090000        1.0080           0
     54415 WT18     413      MECN     C2       CG1N1    0.360000       12.0110           0
     54416 WT18     413      MECN     N3       NG1T1   -0.460000       14.0070           0
     54417 WT18     414      MECN     C1       CG331   -0.170000       12.0110           0
     54418 WT18     414      MECN     H11      HGA3     0.090000        1.0080           0
     54419 WT18     414      MECN     H12      HGA3     0.090000        1.0080           0
     54420 WT18     414      MECN     H13      HGA3     0.090000        1.0080           0
     54421 WT18     414      MECN     C2       CG1N1    0.360000       12.0110           0
     54422 WT18     414      MECN     N3       NG1T1   -0.460000       14.0070           0
     54423 WT18     415      MECN     C1       CG331   -0.170000       12.0110           0
     54424 WT18     415      MECN     H11      HGA3     0.090000        1.0080           0
     54425 WT18     415      MECN     H12      HGA3     0.090000        1.0080           0
     54426 WT18     415      MECN     H13      HGA3     0.090000        1.0080           0
     54427 WT18     415      MECN     C2       CG1N1    0.360000       12.0110           0
     54428 WT18     415      MECN     N3       NG1T1   -0.460000       14.0070           0
     54429 WT18     416      MECN     C1       CG331   -0.170000       12.0110           0
     54430 WT18     416      MECN     H11      HGA3     0.090000        1.0080           0
     54431 WT18     416      MECN     H12      HGA3     0.090000        1.0080           0
     54432 WT18     416      MECN     H13      HGA3     0.090000        1.0080           0
     54433 WT18     416      MECN     C2       CG1N1    0.360000       12.0110           0
     54434 WT18     416      MECN     N3       NG1T1   -0.460000       14.0070           0
     54435 WT18     417      MECN     C1       CG331   -0.170000       12.0110           0
     54436 WT18     417      MECN     H11      HGA3     0.090000        1.0080           0
     54437 WT18     417      MECN     H12      HGA3     0.090000        1.0080           0
     54438 WT18     417      MECN     H13      HGA3     0.090000        1.0080           0
     54439 WT18     417      MECN     C2       CG1N1    0.360000       12.0110           0
     54440 WT18     417      MECN     N3       NG1T1   -0.460000       14.0070           0
     54441 WT18     419      MECN     C1       CG331   -0.170000       12.0110           0
     54442 WT18     419      MECN     H11      HGA3     0.090000        1.0080           0
     54443 WT18     419      MECN     H12      HGA3     0.090000        1.0080           0
     54444 WT18     419      MECN     H13      HGA3     0.090000        1.0080           0
     54445 WT18     419      MECN     C2       CG1N1    0.360000       12.0110           0
     54446 WT18     419      MECN     N3       NG1T1   -0.460000       14.0070           0
     54447 WT18     422      MECN     C1       CG331   -0.170000       12.0110           0
     54448 WT18     422      MECN     H11      HGA3     0.090000        1.0080           0
     54449 WT18     422      MECN     H12      HGA3     0.090000        1.0080           0
     54450 WT18     422      MECN     H13      HGA3     0.090000        1.0080           0
     54451 WT18     422      MECN     C2       CG1N1    0.360000       12.0110           0
     54452 WT18     422      MECN     N3       NG1T1   -0.460000       14.0070           0
     54453 WT18     424      MECN     C1       CG331   -0.170000       12.0110           0
     54454 WT18     424      MECN     H11      HGA3     0.090000        1.0080           0
     54455 WT18     424      MECN     H12      HGA3     0.090000        1.0080           0
     54456 WT18     424      MECN     H13      HGA3     0.090000        1.0080           0
     54457 WT18     424      MECN     C2       CG1N1    0.360000       12.0110           0
     54458 WT18     424      MECN     N3       NG1T1   -0.460000       14.0070           0
     54459 WT18     425      MECN     C1       CG331   -0.170000       12.0110           0
     54460 WT18     425      MECN     H11      HGA3     0.090000        1.0080           0
     54461 WT18     425      MECN     H12      HGA3     0.090000        1.0080           0
     54462 WT18     425      MECN     H13      HGA3     0.090000        1.0080           0
     54463 WT18     425      MECN     C2       CG1N1    0.360000       12.0110           0
     54464 WT18     425      MECN     N3       NG1T1   -0.460000       14.0070           0
     54465 WT18     426      MECN     C1       CG331   -0.170000       12.0110           0
     54466 WT18     426      MECN     H11      HGA3     0.090000        1.0080           0
     54467 WT18     426      MECN     H12      HGA3     0.090000        1.0080           0
     54468 WT18     426      MECN     H13      HGA3     0.090000        1.0080           0
     54469 WT18     426      MECN     C2       CG1N1    0.360000       12.0110           0
     54470 WT18     426      MECN     N3       NG1T1   -0.460000       14.0070           0
     54471 WT18     428      MECN     C1       CG331   -0.170000       12.0110           0
     54472 WT18     428      MECN     H11      HGA3     0.090000        1.0080           0
     54473 WT18     428      MECN     H12      HGA3     0.090000        1.0080           0
     54474 WT18     428      MECN     H13      HGA3     0.090000        1.0080           0
     54475 WT18     428      MECN     C2       CG1N1    0.360000       12.0110           0
     54476 WT18     428      MECN     N3       NG1T1   -0.460000       14.0070           0
     54477 WT18     429      MECN     C1       CG331   -0.170000       12.0110           0
     54478 WT18     429      MECN     H11      HGA3     0.090000        1.0080           0
     54479 WT18     429      MECN     H12      HGA3     0.090000        1.0080           0
     54480 WT18     429      MECN     H13      HGA3     0.090000        1.0080           0
     54481 WT18     429      MECN     C2       CG1N1    0.360000       12.0110           0
     54482 WT18     429      MECN     N3       NG1T1   -0.460000       14.0070           0
     54483 WT18     430      MECN     C1       CG331   -0.170000       12.0110           0
     54484 WT18     430      MECN     H11      HGA3     0.090000        1.0080           0
     54485 WT18     430      MECN     H12      HGA3     0.090000        1.0080           0
     54486 WT18     430      MECN     H13      HGA3     0.090000        1.0080           0
     54487 WT18     430      MECN     C2       CG1N1    0.360000       12.0110           0
     54488 WT18     430      MECN     N3       NG1T1   -0.460000       14.0070           0
     54489 WT18     431      MECN     C1       CG331   -0.170000       12.0110           0
     54490 WT18     431      MECN     H11      HGA3     0.090000        1.0080           0
     54491 WT18     431      MECN     H12      HGA3     0.090000        1.0080           0
     54492 WT18     431      MECN     H13      HGA3     0.090000        1.0080           0
     54493 WT18     431      MECN     C2       CG1N1    0.360000       12.0110           0
     54494 WT18     431      MECN     N3       NG1T1   -0.460000       14.0070           0
     54495 WT18     433      MECN     C1       CG331   -0.170000       12.0110           0
     54496 WT18     433      MECN     H11      HGA3     0.090000        1.0080           0
     54497 WT18     433      MECN     H12      HGA3     0.090000        1.0080           0
     54498 WT18     433      MECN     H13      HGA3     0.090000        1.0080           0
     54499 WT18     433      MECN     C2       CG1N1    0.360000       12.0110           0
     54500 WT18     433      MECN     N3       NG1T1   -0.460000       14.0070           0
     54501 WT18     434      MECN     C1       CG331   -0.170000       12.0110           0
     54502 WT18     434      MECN     H11      HGA3     0.090000        1.0080           0
     54503 WT18     434      MECN     H12      HGA3     0.090000        1.0080           0
     54504 WT18     434      MECN     H13      HGA3     0.090000        1.0080           0
     54505 WT18     434      MECN     C2       CG1N1    0.360000       12.0110           0
     54506 WT18     434      MECN     N3       NG1T1   -0.460000       14.0070           0
     54507 WT18     439      MECN     C1       CG331   -0.170000       12.0110           0
     54508 WT18     439      MECN     H11      HGA3     0.090000        1.0080           0
     54509 WT18     439      MECN     H12      HGA3     0.090000        1.0080           0
     54510 WT18     439      MECN     H13      HGA3     0.090000        1.0080           0
     54511 WT18     439      MECN     C2       CG1N1    0.360000       12.0110           0
     54512 WT18     439      MECN     N3       NG1T1   -0.460000       14.0070           0
     54513 WT18     441      MECN     C1       CG331   -0.170000       12.0110           0
     54514 WT18     441      MECN     H11      HGA3     0.090000        1.0080           0
     54515 WT18     441      MECN     H12      HGA3     0.090000        1.0080           0
     54516 WT18     441      MECN     H13      HGA3     0.090000        1.0080           0
     54517 WT18     441      MECN     C2       CG1N1    0.360000       12.0110           0
     54518 WT18     441      MECN     N3       NG1T1   -0.460000       14.0070           0
     54519 WT18     443      MECN     C1       CG331   -0.170000       12.0110           0
     54520 WT18     443      MECN     H11      HGA3     0.090000        1.0080           0
     54521 WT18     443      MECN     H12      HGA3     0.090000        1.0080           0
     54522 WT18     443      MECN     H13      HGA3     0.090000        1.0080           0
     54523 WT18     443      MECN     C2       CG1N1    0.360000       12.0110           0
     54524 WT18     443      MECN     N3       NG1T1   -0.460000       14.0070           0
     54525 WT18     444      MECN     C1       CG331   -0.170000       12.0110           0
     54526 WT18     444      MECN     H11      HGA3     0.090000        1.0080           0
     54527 WT18     444      MECN     H12      HGA3     0.090000        1.0080           0
     54528 WT18     444      MECN     H13      HGA3     0.090000        1.0080           0
     54529 WT18     444      MECN     C2       CG1N1    0.360000       12.0110           0
     54530 WT18     444      MECN     N3       NG1T1   -0.460000       14.0070           0
     54531 WT18     447      MECN     C1       CG331   -0.170000       12.0110           0
     54532 WT18     447      MECN     H11      HGA3     0.090000        1.0080           0
     54533 WT18     447      MECN     H12      HGA3     0.090000        1.0080           0
     54534 WT18     447      MECN     H13      HGA3     0.090000        1.0080           0
     54535 WT18     447      MECN     C2       CG1N1    0.360000       12.0110           0
     54536 WT18     447      MECN     N3       NG1T1   -0.460000       14.0070           0
     54537 WT18     448      MECN     C1       CG331   -0.170000       12.0110           0
     54538 WT18     448      MECN     H11      HGA3     0.090000        1.0080           0
     54539 WT18     448      MECN     H12      HGA3     0.090000        1.0080           0
     54540 WT18     448      MECN     H13      HGA3     0.090000        1.0080           0
     54541 WT18     448      MECN     C2       CG1N1    0.360000       12.0110           0
     54542 WT18     448      MECN     N3       NG1T1   -0.460000       14.0070           0
     54543 WT18     449      MECN     C1       CG331   -0.170000       12.0110           0
     54544 WT18     449      MECN     H11      HGA3     0.090000        1.0080           0
     54545 WT18     449      MECN     H12      HGA3     0.090000        1.0080           0
     54546 WT18     449      MECN     H13      HGA3     0.090000        1.0080           0
     54547 WT18     449      MECN     C2       CG1N1    0.360000       12.0110           0
     54548 WT18     449      MECN     N3       NG1T1   -0.460000       14.0070           0
     54549 WT18     451      MECN     C1       CG331   -0.170000       12.0110           0
     54550 WT18     451      MECN     H11      HGA3     0.090000        1.0080           0
     54551 WT18     451      MECN     H12      HGA3     0.090000        1.0080           0
     54552 WT18     451      MECN     H13      HGA3     0.090000        1.0080           0
     54553 WT18     451      MECN     C2       CG1N1    0.360000       12.0110           0
     54554 WT18     451      MECN     N3       NG1T1   -0.460000       14.0070           0
     54555 WT18     452      MECN     C1       CG331   -0.170000       12.0110           0
     54556 WT18     452      MECN     H11      HGA3     0.090000        1.0080           0
     54557 WT18     452      MECN     H12      HGA3     0.090000        1.0080           0
     54558 WT18     452      MECN     H13      HGA3     0.090000        1.0080           0
     54559 WT18     452      MECN     C2       CG1N1    0.360000       12.0110           0
     54560 WT18     452      MECN     N3       NG1T1   -0.460000       14.0070           0
     54561 WT18     455      MECN     C1       CG331   -0.170000       12.0110           0
     54562 WT18     455      MECN     H11      HGA3     0.090000        1.0080           0
     54563 WT18     455      MECN     H12      HGA3     0.090000        1.0080           0
     54564 WT18     455      MECN     H13      HGA3     0.090000        1.0080           0
     54565 WT18     455      MECN     C2       CG1N1    0.360000       12.0110           0
     54566 WT18     455      MECN     N3       NG1T1   -0.460000       14.0070           0
     54567 WT18     456      MECN     C1       CG331   -0.170000       12.0110           0
     54568 WT18     456      MECN     H11      HGA3     0.090000        1.0080           0
     54569 WT18     456      MECN     H12      HGA3     0.090000        1.0080           0
     54570 WT18     456      MECN     H13      HGA3     0.090000        1.0080           0
     54571 WT18     456      MECN     C2       CG1N1    0.360000       12.0110           0
     54572 WT18     456      MECN     N3       NG1T1   -0.460000       14.0070           0
     54573 WT18     459      MECN     C1       CG331   -0.170000       12.0110           0
     54574 WT18     459      MECN     H11      HGA3     0.090000        1.0080           0
     54575 WT18     459      MECN     H12      HGA3     0.090000        1.0080           0
     54576 WT18     459      MECN     H13      HGA3     0.090000        1.0080           0
     54577 WT18     459      MECN     C2       CG1N1    0.360000       12.0110           0
     54578 WT18     459      MECN     N3       NG1T1   -0.460000       14.0070           0
     54579 WT18     460      MECN     C1       CG331   -0.170000       12.0110           0
     54580 WT18     460      MECN     H11      HGA3     0.090000        1.0080           0
     54581 WT18     460      MECN     H12      HGA3     0.090000        1.0080           0
     54582 WT18     460      MECN     H13      HGA3     0.090000        1.0080           0
     54583 WT18     460      MECN     C2       CG1N1    0.360000       12.0110           0
     54584 WT18     460      MECN     N3       NG1T1   -0.460000       14.0070           0
     54585 WT18     462      MECN     C1       CG331   -0.170000       12.0110           0
     54586 WT18     462      MECN     H11      HGA3     0.090000        1.0080           0
     54587 WT18     462      MECN     H12      HGA3     0.090000        1.0080           0
     54588 WT18     462      MECN     H13      HGA3     0.090000        1.0080           0
     54589 WT18     462      MECN     C2       CG1N1    0.360000       12.0110           0
     54590 WT18     462      MECN     N3       NG1T1   -0.460000       14.0070           0
     54591 WT18     463      MECN     C1       CG331   -0.170000       12.0110           0
     54592 WT18     463      MECN     H11      HGA3     0.090000        1.0080           0
     54593 WT18     463      MECN     H12      HGA3     0.090000        1.0080           0
     54594 WT18     463      MECN     H13      HGA3     0.090000        1.0080           0
     54595 WT18     463      MECN     C2       CG1N1    0.360000       12.0110           0
     54596 WT18     463      MECN     N3       NG1T1   -0.460000       14.0070           0
     54597 WT18     464      MECN     C1       CG331   -0.170000       12.0110           0
     54598 WT18     464      MECN     H11      HGA3     0.090000        1.0080           0
     54599 WT18     464      MECN     H12      HGA3     0.090000        1.0080           0
     54600 WT18     464      MECN     H13      HGA3     0.090000        1.0080           0
     54601 WT18     464      MECN     C2       CG1N1    0.360000       12.0110           0
     54602 WT18     464      MECN     N3       NG1T1   -0.460000       14.0070           0
     54603 WT18     472      MECN     C1       CG331   -0.170000       12.0110           0
     54604 WT18     472      MECN     H11      HGA3     0.090000        1.0080           0
     54605 WT18     472      MECN     H12      HGA3     0.090000        1.0080           0
     54606 WT18     472      MECN     H13      HGA3     0.090000        1.0080           0
     54607 WT18     472      MECN     C2       CG1N1    0.360000       12.0110           0
     54608 WT18     472      MECN     N3       NG1T1   -0.460000       14.0070           0
     54609 WT18     473      MECN     C1       CG331   -0.170000       12.0110           0
     54610 WT18     473      MECN     H11      HGA3     0.090000        1.0080           0
     54611 WT18     473      MECN     H12      HGA3     0.090000        1.0080           0
     54612 WT18     473      MECN     H13      HGA3     0.090000        1.0080           0
     54613 WT18     473      MECN     C2       CG1N1    0.360000       12.0110           0
     54614 WT18     473      MECN     N3       NG1T1   -0.460000       14.0070           0
     54615 WT18     476      MECN     C1       CG331   -0.170000       12.0110           0
     54616 WT18     476      MECN     H11      HGA3     0.090000        1.0080           0
     54617 WT18     476      MECN     H12      HGA3     0.090000        1.0080           0
     54618 WT18     476      MECN     H13      HGA3     0.090000        1.0080           0
     54619 WT18     476      MECN     C2       CG1N1    0.360000       12.0110           0
     54620 WT18     476      MECN     N3       NG1T1   -0.460000       14.0070           0
     54621 WT18     479      MECN     C1       CG331   -0.170000       12.0110           0
     54622 WT18     479      MECN     H11      HGA3     0.090000        1.0080           0
     54623 WT18     479      MECN     H12      HGA3     0.090000        1.0080           0
     54624 WT18     479      MECN     H13      HGA3     0.090000        1.0080           0
     54625 WT18     479      MECN     C2       CG1N1    0.360000       12.0110           0
     54626 WT18     479      MECN     N3       NG1T1   -0.460000       14.0070           0
     54627 WT18     483      MECN     C1       CG331   -0.170000       12.0110           0
     54628 WT18     483      MECN     H11      HGA3     0.090000        1.0080           0
     54629 WT18     483      MECN     H12      HGA3     0.090000        1.0080           0
     54630 WT18     483      MECN     H13      HGA3     0.090000        1.0080           0
     54631 WT18     483      MECN     C2       CG1N1    0.360000       12.0110           0
     54632 WT18     483      MECN     N3       NG1T1   -0.460000       14.0070           0
     54633 WT18     484      MECN     C1       CG331   -0.170000       12.0110           0
     54634 WT18     484      MECN     H11      HGA3     0.090000        1.0080           0
     54635 WT18     484      MECN     H12      HGA3     0.090000        1.0080           0
     54636 WT18     484      MECN     H13      HGA3     0.090000        1.0080           0
     54637 WT18     484      MECN     C2       CG1N1    0.360000       12.0110           0
     54638 WT18     484      MECN     N3       NG1T1   -0.460000       14.0070           0
     54639 WT18     487      MECN     C1       CG331   -0.170000       12.0110           0
     54640 WT18     487      MECN     H11      HGA3     0.090000        1.0080           0
     54641 WT18     487      MECN     H12      HGA3     0.090000        1.0080           0
     54642 WT18     487      MECN     H13      HGA3     0.090000        1.0080           0
     54643 WT18     487      MECN     C2       CG1N1    0.360000       12.0110           0
     54644 WT18     487      MECN     N3       NG1T1   -0.460000       14.0070           0
     54645 WT18     491      MECN     C1       CG331   -0.170000       12.0110           0
     54646 WT18     491      MECN     H11      HGA3     0.090000        1.0080           0
     54647 WT18     491      MECN     H12      HGA3     0.090000        1.0080           0
     54648 WT18     491      MECN     H13      HGA3     0.090000        1.0080           0
     54649 WT18     491      MECN     C2       CG1N1    0.360000       12.0110           0
     54650 WT18     491      MECN     N3       NG1T1   -0.460000       14.0070           0
     54651 WT18     493      MECN     C1       CG331   -0.170000       12.0110           0
     54652 WT18     493      MECN     H11      HGA3     0.090000        1.0080           0
     54653 WT18     493      MECN     H12      HGA3     0.090000        1.0080           0
     54654 WT18     493      MECN     H13      HGA3     0.090000        1.0080           0
     54655 WT18     493      MECN     C2       CG1N1    0.360000       12.0110           0
     54656 WT18     493      MECN     N3       NG1T1   -0.460000       14.0070           0
     54657 WT18     496      MECN     C1       CG331   -0.170000       12.0110           0
     54658 WT18     496      MECN     H11      HGA3     0.090000        1.0080           0
     54659 WT18     496      MECN     H12      HGA3     0.090000        1.0080           0
     54660 WT18     496      MECN     H13      HGA3     0.090000        1.0080           0
     54661 WT18     496      MECN     C2       CG1N1    0.360000       12.0110           0
     54662 WT18     496      MECN     N3       NG1T1   -0.460000       14.0070           0
     54663 WT18     497      MECN     C1       CG331   -0.170000       12.0110           0
     54664 WT18     497      MECN     H11      HGA3     0.090000        1.0080           0
     54665 WT18     497      MECN     H12      HGA3     0.090000        1.0080           0
     54666 WT18     497      MECN     H13      HGA3     0.090000        1.0080           0
     54667 WT18     497      MECN     C2       CG1N1    0.360000       12.0110           0
     54668 WT18     497      MECN     N3       NG1T1   -0.460000       14.0070           0
     54669 WT18     499      MECN     C1       CG331   -0.170000       12.0110           0
     54670 WT18     499      MECN     H11      HGA3     0.090000        1.0080           0
     54671 WT18     499      MECN     H12      HGA3     0.090000        1.0080           0
     54672 WT18     499      MECN     H13      HGA3     0.090000        1.0080           0
     54673 WT18     499      MECN     C2       CG1N1    0.360000       12.0110           0
     54674 WT18     499      MECN     N3       NG1T1   -0.460000       14.0070           0
     54675 WT18     500      MECN     C1       CG331   -0.170000       12.0110           0
     54676 WT18     500      MECN     H11      HGA3     0.090000        1.0080           0
     54677 WT18     500      MECN     H12      HGA3     0.090000        1.0080           0
     54678 WT18     500      MECN     H13      HGA3     0.090000        1.0080           0
     54679 WT18     500      MECN     C2       CG1N1    0.360000       12.0110           0
     54680 WT18     500      MECN     N3       NG1T1   -0.460000       14.0070           0
     54681 WT18     502      MECN     C1       CG331   -0.170000       12.0110           0
     54682 WT18     502      MECN     H11      HGA3     0.090000        1.0080           0
     54683 WT18     502      MECN     H12      HGA3     0.090000        1.0080           0
     54684 WT18     502      MECN     H13      HGA3     0.090000        1.0080           0
     54685 WT18     502      MECN     C2       CG1N1    0.360000       12.0110           0
     54686 WT18     502      MECN     N3       NG1T1   -0.460000       14.0070           0
     54687 WT18     503      MECN     C1       CG331   -0.170000       12.0110           0
     54688 WT18     503      MECN     H11      HGA3     0.090000        1.0080           0
     54689 WT18     503      MECN     H12      HGA3     0.090000        1.0080           0
     54690 WT18     503      MECN     H13      HGA3     0.090000        1.0080           0
     54691 WT18     503      MECN     C2       CG1N1    0.360000       12.0110           0
     54692 WT18     503      MECN     N3       NG1T1   -0.460000       14.0070           0
     54693 WT18     506      MECN     C1       CG331   -0.170000       12.0110           0
     54694 WT18     506      MECN     H11      HGA3     0.090000        1.0080           0
     54695 WT18     506      MECN     H12      HGA3     0.090000        1.0080           0
     54696 WT18     506      MECN     H13      HGA3     0.090000        1.0080           0
     54697 WT18     506      MECN     C2       CG1N1    0.360000       12.0110           0
     54698 WT18     506      MECN     N3       NG1T1   -0.460000       14.0070           0
     54699 WT18     507      MECN     C1       CG331   -0.170000       12.0110           0
     54700 WT18     507      MECN     H11      HGA3     0.090000        1.0080           0
     54701 WT18     507      MECN     H12      HGA3     0.090000        1.0080           0
     54702 WT18     507      MECN     H13      HGA3     0.090000        1.0080           0
     54703 WT18     507      MECN     C2       CG1N1    0.360000       12.0110           0
     54704 WT18     507      MECN     N3       NG1T1   -0.460000       14.0070           0
     54705 WT18     508      MECN     C1       CG331   -0.170000       12.0110           0
     54706 WT18     508      MECN     H11      HGA3     0.090000        1.0080           0
     54707 WT18     508      MECN     H12      HGA3     0.090000        1.0080           0
     54708 WT18     508      MECN     H13      HGA3     0.090000        1.0080           0
     54709 WT18     508      MECN     C2       CG1N1    0.360000       12.0110           0
     54710 WT18     508      MECN     N3       NG1T1   -0.460000       14.0070           0
     54711 WT18     511      MECN     C1       CG331   -0.170000       12.0110           0
     54712 WT18     511      MECN     H11      HGA3     0.090000        1.0080           0
     54713 WT18     511      MECN     H12      HGA3     0.090000        1.0080           0
     54714 WT18     511      MECN     H13      HGA3     0.090000        1.0080           0
     54715 WT18     511      MECN     C2       CG1N1    0.360000       12.0110           0
     54716 WT18     511      MECN     N3       NG1T1   -0.460000       14.0070           0
     54717 WT18     512      MECN     C1       CG331   -0.170000       12.0110           0
     54718 WT18     512      MECN     H11      HGA3     0.090000        1.0080           0
     54719 WT18     512      MECN     H12      HGA3     0.090000        1.0080           0
     54720 WT18     512      MECN     H13      HGA3     0.090000        1.0080           0
     54721 WT18     512      MECN     C2       CG1N1    0.360000       12.0110           0
     54722 WT18     512      MECN     N3       NG1T1   -0.460000       14.0070           0
     54723 WT18     513      MECN     C1       CG331   -0.170000       12.0110           0
     54724 WT18     513      MECN     H11      HGA3     0.090000        1.0080           0
     54725 WT18     513      MECN     H12      HGA3     0.090000        1.0080           0
     54726 WT18     513      MECN     H13      HGA3     0.090000        1.0080           0
     54727 WT18     513      MECN     C2       CG1N1    0.360000       12.0110           0
     54728 WT18     513      MECN     N3       NG1T1   -0.460000       14.0070           0
     54729 WT18     514      MECN     C1       CG331   -0.170000       12.0110           0
     54730 WT18     514      MECN     H11      HGA3     0.090000        1.0080           0
     54731 WT18     514      MECN     H12      HGA3     0.090000        1.0080           0
     54732 WT18     514      MECN     H13      HGA3     0.090000        1.0080           0
     54733 WT18     514      MECN     C2       CG1N1    0.360000       12.0110           0
     54734 WT18     514      MECN     N3       NG1T1   -0.460000       14.0070           0
     54735 WT18     515      MECN     C1       CG331   -0.170000       12.0110           0
     54736 WT18     515      MECN     H11      HGA3     0.090000        1.0080           0
     54737 WT18     515      MECN     H12      HGA3     0.090000        1.0080           0
     54738 WT18     515      MECN     H13      HGA3     0.090000        1.0080           0
     54739 WT18     515      MECN     C2       CG1N1    0.360000       12.0110           0
     54740 WT18     515      MECN     N3       NG1T1   -0.460000       14.0070           0
     54741 WT18     516      MECN     C1       CG331   -0.170000       12.0110           0
     54742 WT18     516      MECN     H11      HGA3     0.090000        1.0080           0
     54743 WT18     516      MECN     H12      HGA3     0.090000        1.0080           0
     54744 WT18     516      MECN     H13      HGA3     0.090000        1.0080           0
     54745 WT18     516      MECN     C2       CG1N1    0.360000       12.0110           0
     54746 WT18     516      MECN     N3       NG1T1   -0.460000       14.0070           0
     54747 WT18     518      MECN     C1       CG331   -0.170000       12.0110           0
     54748 WT18     518      MECN     H11      HGA3     0.090000        1.0080           0
     54749 WT18     518      MECN     H12      HGA3     0.090000        1.0080           0
     54750 WT18     518      MECN     H13      HGA3     0.090000        1.0080           0
     54751 WT18     518      MECN     C2       CG1N1    0.360000       12.0110           0
     54752 WT18     518      MECN     N3       NG1T1   -0.460000       14.0070           0
     54753 WT18     521      MECN     C1       CG331   -0.170000       12.0110           0
     54754 WT18     521      MECN     H11      HGA3     0.090000        1.0080           0
     54755 WT18     521      MECN     H12      HGA3     0.090000        1.0080           0
     54756 WT18     521      MECN     H13      HGA3     0.090000        1.0080           0
     54757 WT18     521      MECN     C2       CG1N1    0.360000       12.0110           0
     54758 WT18     521      MECN     N3       NG1T1   -0.460000       14.0070           0
     54759 WT18     524      MECN     C1       CG331   -0.170000       12.0110           0
     54760 WT18     524      MECN     H11      HGA3     0.090000        1.0080           0
     54761 WT18     524      MECN     H12      HGA3     0.090000        1.0080           0
     54762 WT18     524      MECN     H13      HGA3     0.090000        1.0080           0
     54763 WT18     524      MECN     C2       CG1N1    0.360000       12.0110           0
     54764 WT18     524      MECN     N3       NG1T1   -0.460000       14.0070           0
     54765 WT18     526      MECN     C1       CG331   -0.170000       12.0110           0
     54766 WT18     526      MECN     H11      HGA3     0.090000        1.0080           0
     54767 WT18     526      MECN     H12      HGA3     0.090000        1.0080           0
     54768 WT18     526      MECN     H13      HGA3     0.090000        1.0080           0
     54769 WT18     526      MECN     C2       CG1N1    0.360000       12.0110           0
     54770 WT18     526      MECN     N3       NG1T1   -0.460000       14.0070           0
     54771 WT18     529      MECN     C1       CG331   -0.170000       12.0110           0
     54772 WT18     529      MECN     H11      HGA3     0.090000        1.0080           0
     54773 WT18     529      MECN     H12      HGA3     0.090000        1.0080           0
     54774 WT18     529      MECN     H13      HGA3     0.090000        1.0080           0
     54775 WT18     529      MECN     C2       CG1N1    0.360000       12.0110           0
     54776 WT18     529      MECN     N3       NG1T1   -0.460000       14.0070           0
     54777 WT18     533      MECN     C1       CG331   -0.170000       12.0110           0
     54778 WT18     533      MECN     H11      HGA3     0.090000        1.0080           0
     54779 WT18     533      MECN     H12      HGA3     0.090000        1.0080           0
     54780 WT18     533      MECN     H13      HGA3     0.090000        1.0080           0
     54781 WT18     533      MECN     C2       CG1N1    0.360000       12.0110           0
     54782 WT18     533      MECN     N3       NG1T1   -0.460000       14.0070           0
     54783 WT18     534      MECN     C1       CG331   -0.170000       12.0110           0
     54784 WT18     534      MECN     H11      HGA3     0.090000        1.0080           0
     54785 WT18     534      MECN     H12      HGA3     0.090000        1.0080           0
     54786 WT18     534      MECN     H13      HGA3     0.090000        1.0080           0
     54787 WT18     534      MECN     C2       CG1N1    0.360000       12.0110           0
     54788 WT18     534      MECN     N3       NG1T1   -0.460000       14.0070           0
     54789 WT18     536      MECN     C1       CG331   -0.170000       12.0110           0
     54790 WT18     536      MECN     H11      HGA3     0.090000        1.0080           0
     54791 WT18     536      MECN     H12      HGA3     0.090000        1.0080           0
     54792 WT18     536      MECN     H13      HGA3     0.090000        1.0080           0
     54793 WT18     536      MECN     C2       CG1N1    0.360000       12.0110           0
     54794 WT18     536      MECN     N3       NG1T1   -0.460000       14.0070           0
     54795 WT18     538      MECN     C1       CG331   -0.170000       12.0110           0
     54796 WT18     538      MECN     H11      HGA3     0.090000        1.0080           0
     54797 WT18     538      MECN     H12      HGA3     0.090000        1.0080           0
     54798 WT18     538      MECN     H13      HGA3     0.090000        1.0080           0
     54799 WT18     538      MECN     C2       CG1N1    0.360000       12.0110           0
     54800 WT18     538      MECN     N3       NG1T1   -0.460000       14.0070           0
     54801 WT18     539      MECN     C1       CG331   -0.170000       12.0110           0
     54802 WT18     539      MECN     H11      HGA3     0.090000        1.0080           0
     54803 WT18     539      MECN     H12      HGA3     0.090000        1.0080           0
     54804 WT18     539      MECN     H13      HGA3     0.090000        1.0080           0
     54805 WT18     539      MECN     C2       CG1N1    0.360000       12.0110           0
     54806 WT18     539      MECN     N3       NG1T1   -0.460000       14.0070           0
     54807 WT18     540      MECN     C1       CG331   -0.170000       12.0110           0
     54808 WT18     540      MECN     H11      HGA3     0.090000        1.0080           0
     54809 WT18     540      MECN     H12      HGA3     0.090000        1.0080           0
     54810 WT18     540      MECN     H13      HGA3     0.090000        1.0080           0
     54811 WT18     540      MECN     C2       CG1N1    0.360000       12.0110           0
     54812 WT18     540      MECN     N3       NG1T1   -0.460000       14.0070           0
     54813 WT18     541      MECN     C1       CG331   -0.170000       12.0110           0
     54814 WT18     541      MECN     H11      HGA3     0.090000        1.0080           0
     54815 WT18     541      MECN     H12      HGA3     0.090000        1.0080           0
     54816 WT18     541      MECN     H13      HGA3     0.090000        1.0080           0
     54817 WT18     541      MECN     C2       CG1N1    0.360000       12.0110           0
     54818 WT18     541      MECN     N3       NG1T1   -0.460000       14.0070           0
     54819 WT18     542      MECN     C1       CG331   -0.170000       12.0110           0
     54820 WT18     542      MECN     H11      HGA3     0.090000        1.0080           0
     54821 WT18     542      MECN     H12      HGA3     0.090000        1.0080           0
     54822 WT18     542      MECN     H13      HGA3     0.090000        1.0080           0
     54823 WT18     542      MECN     C2       CG1N1    0.360000       12.0110           0
     54824 WT18     542      MECN     N3       NG1T1   -0.460000       14.0070           0
     54825 WT18     545      MECN     C1       CG331   -0.170000       12.0110           0
     54826 WT18     545      MECN     H11      HGA3     0.090000        1.0080           0
     54827 WT18     545      MECN     H12      HGA3     0.090000        1.0080           0
     54828 WT18     545      MECN     H13      HGA3     0.090000        1.0080           0
     54829 WT18     545      MECN     C2       CG1N1    0.360000       12.0110           0
     54830 WT18     545      MECN     N3       NG1T1   -0.460000       14.0070           0
     54831 WT18     546      MECN     C1       CG331   -0.170000       12.0110           0
     54832 WT18     546      MECN     H11      HGA3     0.090000        1.0080           0
     54833 WT18     546      MECN     H12      HGA3     0.090000        1.0080           0
     54834 WT18     546      MECN     H13      HGA3     0.090000        1.0080           0
     54835 WT18     546      MECN     C2       CG1N1    0.360000       12.0110           0
     54836 WT18     546      MECN     N3       NG1T1   -0.460000       14.0070           0
     54837 WT18     548      MECN     C1       CG331   -0.170000       12.0110           0
     54838 WT18     548      MECN     H11      HGA3     0.090000        1.0080           0
     54839 WT18     548      MECN     H12      HGA3     0.090000        1.0080           0
     54840 WT18     548      MECN     H13      HGA3     0.090000        1.0080           0
     54841 WT18     548      MECN     C2       CG1N1    0.360000       12.0110           0
     54842 WT18     548      MECN     N3       NG1T1   -0.460000       14.0070           0
     54843 WT18     549      MECN     C1       CG331   -0.170000       12.0110           0
     54844 WT18     549      MECN     H11      HGA3     0.090000        1.0080           0
     54845 WT18     549      MECN     H12      HGA3     0.090000        1.0080           0
     54846 WT18     549      MECN     H13      HGA3     0.090000        1.0080           0
     54847 WT18     549      MECN     C2       CG1N1    0.360000       12.0110           0
     54848 WT18     549      MECN     N3       NG1T1   -0.460000       14.0070           0
     54849 WT18     550      MECN     C1       CG331   -0.170000       12.0110           0
     54850 WT18     550      MECN     H11      HGA3     0.090000        1.0080           0
     54851 WT18     550      MECN     H12      HGA3     0.090000        1.0080           0
     54852 WT18     550      MECN     H13      HGA3     0.090000        1.0080           0
     54853 WT18     550      MECN     C2       CG1N1    0.360000       12.0110           0
     54854 WT18     550      MECN     N3       NG1T1   -0.460000       14.0070           0
     54855 WT18     551      MECN     C1       CG331   -0.170000       12.0110           0
     54856 WT18     551      MECN     H11      HGA3     0.090000        1.0080           0
     54857 WT18     551      MECN     H12      HGA3     0.090000        1.0080           0
     54858 WT18     551      MECN     H13      HGA3     0.090000        1.0080           0
     54859 WT18     551      MECN     C2       CG1N1    0.360000       12.0110           0
     54860 WT18     551      MECN     N3       NG1T1   -0.460000       14.0070           0
     54861 WT18     552      MECN     C1       CG331   -0.170000       12.0110           0
     54862 WT18     552      MECN     H11      HGA3     0.090000        1.0080           0
     54863 WT18     552      MECN     H12      HGA3     0.090000        1.0080           0
     54864 WT18     552      MECN     H13      HGA3     0.090000        1.0080           0
     54865 WT18     552      MECN     C2       CG1N1    0.360000       12.0110           0
     54866 WT18     552      MECN     N3       NG1T1   -0.460000       14.0070           0
     54867 WT18     559      MECN     C1       CG331   -0.170000       12.0110           0
     54868 WT18     559      MECN     H11      HGA3     0.090000        1.0080           0
     54869 WT18     559      MECN     H12      HGA3     0.090000        1.0080           0
     54870 WT18     559      MECN     H13      HGA3     0.090000        1.0080           0
     54871 WT18     559      MECN     C2       CG1N1    0.360000       12.0110           0
     54872 WT18     559      MECN     N3       NG1T1   -0.460000       14.0070           0
     54873 WT18     561      MECN     C1       CG331   -0.170000       12.0110           0
     54874 WT18     561      MECN     H11      HGA3     0.090000        1.0080           0
     54875 WT18     561      MECN     H12      HGA3     0.090000        1.0080           0
     54876 WT18     561      MECN     H13      HGA3     0.090000        1.0080           0
     54877 WT18     561      MECN     C2       CG1N1    0.360000       12.0110           0
     54878 WT18     561      MECN     N3       NG1T1   -0.460000       14.0070           0
     54879 WT18     562      MECN     C1       CG331   -0.170000       12.0110           0
     54880 WT18     562      MECN     H11      HGA3     0.090000        1.0080           0
     54881 WT18     562      MECN     H12      HGA3     0.090000        1.0080           0
     54882 WT18     562      MECN     H13      HGA3     0.090000        1.0080           0
     54883 WT18     562      MECN     C2       CG1N1    0.360000       12.0110           0
     54884 WT18     562      MECN     N3       NG1T1   -0.460000       14.0070           0
     54885 WT18     563      MECN     C1       CG331   -0.170000       12.0110           0
     54886 WT18     563      MECN     H11      HGA3     0.090000        1.0080           0
     54887 WT18     563      MECN     H12      HGA3     0.090000        1.0080           0
     54888 WT18     563      MECN     H13      HGA3     0.090000        1.0080           0
     54889 WT18     563      MECN     C2       CG1N1    0.360000       12.0110           0
     54890 WT18     563      MECN     N3       NG1T1   -0.460000       14.0070           0
     54891 WT18     565      MECN     C1       CG331   -0.170000       12.0110           0
     54892 WT18     565      MECN     H11      HGA3     0.090000        1.0080           0
     54893 WT18     565      MECN     H12      HGA3     0.090000        1.0080           0
     54894 WT18     565      MECN     H13      HGA3     0.090000        1.0080           0
     54895 WT18     565      MECN     C2       CG1N1    0.360000       12.0110           0
     54896 WT18     565      MECN     N3       NG1T1   -0.460000       14.0070           0
     54897 WT18     567      MECN     C1       CG331   -0.170000       12.0110           0
     54898 WT18     567      MECN     H11      HGA3     0.090000        1.0080           0
     54899 WT18     567      MECN     H12      HGA3     0.090000        1.0080           0
     54900 WT18     567      MECN     H13      HGA3     0.090000        1.0080           0
     54901 WT18     567      MECN     C2       CG1N1    0.360000       12.0110           0
     54902 WT18     567      MECN     N3       NG1T1   -0.460000       14.0070           0
     54903 WT18     568      MECN     C1       CG331   -0.170000       12.0110           0
     54904 WT18     568      MECN     H11      HGA3     0.090000        1.0080           0
     54905 WT18     568      MECN     H12      HGA3     0.090000        1.0080           0
     54906 WT18     568      MECN     H13      HGA3     0.090000        1.0080           0
     54907 WT18     568      MECN     C2       CG1N1    0.360000       12.0110           0
     54908 WT18     568      MECN     N3       NG1T1   -0.460000       14.0070           0
     54909 WT18     569      MECN     C1       CG331   -0.170000       12.0110           0
     54910 WT18     569      MECN     H11      HGA3     0.090000        1.0080           0
     54911 WT18     569      MECN     H12      HGA3     0.090000        1.0080           0
     54912 WT18     569      MECN     H13      HGA3     0.090000        1.0080           0
     54913 WT18     569      MECN     C2       CG1N1    0.360000       12.0110           0
     54914 WT18     569      MECN     N3       NG1T1   -0.460000       14.0070           0
     54915 WT18     570      MECN     C1       CG331   -0.170000       12.0110           0
     54916 WT18     570      MECN     H11      HGA3     0.090000        1.0080           0
     54917 WT18     570      MECN     H12      HGA3     0.090000        1.0080           0
     54918 WT18     570      MECN     H13      HGA3     0.090000        1.0080           0
     54919 WT18     570      MECN     C2       CG1N1    0.360000       12.0110           0
     54920 WT18     570      MECN     N3       NG1T1   -0.460000       14.0070           0
     54921 WT18     572      MECN     C1       CG331   -0.170000       12.0110           0
     54922 WT18     572      MECN     H11      HGA3     0.090000        1.0080           0
     54923 WT18     572      MECN     H12      HGA3     0.090000        1.0080           0
     54924 WT18     572      MECN     H13      HGA3     0.090000        1.0080           0
     54925 WT18     572      MECN     C2       CG1N1    0.360000       12.0110           0
     54926 WT18     572      MECN     N3       NG1T1   -0.460000       14.0070           0
     54927 WT18     574      MECN     C1       CG331   -0.170000       12.0110           0
     54928 WT18     574      MECN     H11      HGA3     0.090000        1.0080           0
     54929 WT18     574      MECN     H12      HGA3     0.090000        1.0080           0
     54930 WT18     574      MECN     H13      HGA3     0.090000        1.0080           0
     54931 WT18     574      MECN     C2       CG1N1    0.360000       12.0110           0
     54932 WT18     574      MECN     N3       NG1T1   -0.460000       14.0070           0
     54933 WT18     575      MECN     C1       CG331   -0.170000       12.0110           0
     54934 WT18     575      MECN     H11      HGA3     0.090000        1.0080           0
     54935 WT18     575      MECN     H12      HGA3     0.090000        1.0080           0
     54936 WT18     575      MECN     H13      HGA3     0.090000        1.0080           0
     54937 WT18     575      MECN     C2       CG1N1    0.360000       12.0110           0
     54938 WT18     575      MECN     N3       NG1T1   -0.460000       14.0070           0
     54939 WT18     576      MECN     C1       CG331   -0.170000       12.0110           0
     54940 WT18     576      MECN     H11      HGA3     0.090000        1.0080           0
     54941 WT18     576      MECN     H12      HGA3     0.090000        1.0080           0
     54942 WT18     576      MECN     H13      HGA3     0.090000        1.0080           0
     54943 WT18     576      MECN     C2       CG1N1    0.360000       12.0110           0
     54944 WT18     576      MECN     N3       NG1T1   -0.460000       14.0070           0
     54945 WT18     577      MECN     C1       CG331   -0.170000       12.0110           0
     54946 WT18     577      MECN     H11      HGA3     0.090000        1.0080           0
     54947 WT18     577      MECN     H12      HGA3     0.090000        1.0080           0
     54948 WT18     577      MECN     H13      HGA3     0.090000        1.0080           0
     54949 WT18     577      MECN     C2       CG1N1    0.360000       12.0110           0
     54950 WT18     577      MECN     N3       NG1T1   -0.460000       14.0070           0
     54951 WT18     581      MECN     C1       CG331   -0.170000       12.0110           0
     54952 WT18     581      MECN     H11      HGA3     0.090000        1.0080           0
     54953 WT18     581      MECN     H12      HGA3     0.090000        1.0080           0
     54954 WT18     581      MECN     H13      HGA3     0.090000        1.0080           0
     54955 WT18     581      MECN     C2       CG1N1    0.360000       12.0110           0
     54956 WT18     581      MECN     N3       NG1T1   -0.460000       14.0070           0
     54957 WT18     582      MECN     C1       CG331   -0.170000       12.0110           0
     54958 WT18     582      MECN     H11      HGA3     0.090000        1.0080           0
     54959 WT18     582      MECN     H12      HGA3     0.090000        1.0080           0
     54960 WT18     582      MECN     H13      HGA3     0.090000        1.0080           0
     54961 WT18     582      MECN     C2       CG1N1    0.360000       12.0110           0
     54962 WT18     582      MECN     N3       NG1T1   -0.460000       14.0070           0
     54963 WT18     584      MECN     C1       CG331   -0.170000       12.0110           0
     54964 WT18     584      MECN     H11      HGA3     0.090000        1.0080           0
     54965 WT18     584      MECN     H12      HGA3     0.090000        1.0080           0
     54966 WT18     584      MECN     H13      HGA3     0.090000        1.0080           0
     54967 WT18     584      MECN     C2       CG1N1    0.360000       12.0110           0
     54968 WT18     584      MECN     N3       NG1T1   -0.460000       14.0070           0
     54969 WT18     585      MECN     C1       CG331   -0.170000       12.0110           0
     54970 WT18     585      MECN     H11      HGA3     0.090000        1.0080           0
     54971 WT18     585      MECN     H12      HGA3     0.090000        1.0080           0
     54972 WT18     585      MECN     H13      HGA3     0.090000        1.0080           0
     54973 WT18     585      MECN     C2       CG1N1    0.360000       12.0110           0
     54974 WT18     585      MECN     N3       NG1T1   -0.460000       14.0070           0
     54975 WT18     592      MECN     C1       CG331   -0.170000       12.0110           0
     54976 WT18     592      MECN     H11      HGA3     0.090000        1.0080           0
     54977 WT18     592      MECN     H12      HGA3     0.090000        1.0080           0
     54978 WT18     592      MECN     H13      HGA3     0.090000        1.0080           0
     54979 WT18     592      MECN     C2       CG1N1    0.360000       12.0110           0
     54980 WT18     592      MECN     N3       NG1T1   -0.460000       14.0070           0
     54981 WT18     593      MECN     C1       CG331   -0.170000       12.0110           0
     54982 WT18     593      MECN     H11      HGA3     0.090000        1.0080           0
     54983 WT18     593      MECN     H12      HGA3     0.090000        1.0080           0
     54984 WT18     593      MECN     H13      HGA3     0.090000        1.0080           0
     54985 WT18     593      MECN     C2       CG1N1    0.360000       12.0110           0
     54986 WT18     593      MECN     N3       NG1T1   -0.460000       14.0070           0
     54987 WT18     594      MECN     C1       CG331   -0.170000       12.0110           0
     54988 WT18     594      MECN     H11      HGA3     0.090000        1.0080           0
     54989 WT18     594      MECN     H12      HGA3     0.090000        1.0080           0
     54990 WT18     594      MECN     H13      HGA3     0.090000        1.0080           0
     54991 WT18     594      MECN     C2       CG1N1    0.360000       12.0110           0
     54992 WT18     594      MECN     N3       NG1T1   -0.460000       14.0070           0
     54993 WT18     595      MECN     C1       CG331   -0.170000       12.0110           0
     54994 WT18     595      MECN     H11      HGA3     0.090000        1.0080           0
     54995 WT18     595      MECN     H12      HGA3     0.090000        1.0080           0
     54996 WT18     595      MECN     H13      HGA3     0.090000        1.0080           0
     54997 WT18     595      MECN     C2       CG1N1    0.360000       12.0110           0
     54998 WT18     595      MECN     N3       NG1T1   -0.460000       14.0070           0
     54999 WT18     596      MECN     C1       CG331   -0.170000       12.0110           0
     55000 WT18     596      MECN     H11      HGA3     0.090000        1.0080           0
     55001 WT18     596      MECN     H12      HGA3     0.090000        1.0080           0
     55002 WT18     596      MECN     H13      HGA3     0.090000        1.0080           0
     55003 WT18     596      MECN     C2       CG1N1    0.360000       12.0110           0
     55004 WT18     596      MECN     N3       NG1T1   -0.460000       14.0070           0
     55005 WT18     597      MECN     C1       CG331   -0.170000       12.0110           0
     55006 WT18     597      MECN     H11      HGA3     0.090000        1.0080           0
     55007 WT18     597      MECN     H12      HGA3     0.090000        1.0080           0
     55008 WT18     597      MECN     H13      HGA3     0.090000        1.0080           0
     55009 WT18     597      MECN     C2       CG1N1    0.360000       12.0110           0
     55010 WT18     597      MECN     N3       NG1T1   -0.460000       14.0070           0
     55011 WT18     600      MECN     C1       CG331   -0.170000       12.0110           0
     55012 WT18     600      MECN     H11      HGA3     0.090000        1.0080           0
     55013 WT18     600      MECN     H12      HGA3     0.090000        1.0080           0
     55014 WT18     600      MECN     H13      HGA3     0.090000        1.0080           0
     55015 WT18     600      MECN     C2       CG1N1    0.360000       12.0110           0
     55016 WT18     600      MECN     N3       NG1T1   -0.460000       14.0070           0
     55017 WT18     602      MECN     C1       CG331   -0.170000       12.0110           0
     55018 WT18     602      MECN     H11      HGA3     0.090000        1.0080           0
     55019 WT18     602      MECN     H12      HGA3     0.090000        1.0080           0
     55020 WT18     602      MECN     H13      HGA3     0.090000        1.0080           0
     55021 WT18     602      MECN     C2       CG1N1    0.360000       12.0110           0
     55022 WT18     602      MECN     N3       NG1T1   -0.460000       14.0070           0
     55023 WT18     603      MECN     C1       CG331   -0.170000       12.0110           0
     55024 WT18     603      MECN     H11      HGA3     0.090000        1.0080           0
     55025 WT18     603      MECN     H12      HGA3     0.090000        1.0080           0
     55026 WT18     603      MECN     H13      HGA3     0.090000        1.0080           0
     55027 WT18     603      MECN     C2       CG1N1    0.360000       12.0110           0
     55028 WT18     603      MECN     N3       NG1T1   -0.460000       14.0070           0
     55029 WT18     604      MECN     C1       CG331   -0.170000       12.0110           0
     55030 WT18     604      MECN     H11      HGA3     0.090000        1.0080           0
     55031 WT18     604      MECN     H12      HGA3     0.090000        1.0080           0
     55032 WT18     604      MECN     H13      HGA3     0.090000        1.0080           0
     55033 WT18     604      MECN     C2       CG1N1    0.360000       12.0110           0
     55034 WT18     604      MECN     N3       NG1T1   -0.460000       14.0070           0
     55035 WT18     605      MECN     C1       CG331   -0.170000       12.0110           0
     55036 WT18     605      MECN     H11      HGA3     0.090000        1.0080           0
     55037 WT18     605      MECN     H12      HGA3     0.090000        1.0080           0
     55038 WT18     605      MECN     H13      HGA3     0.090000        1.0080           0
     55039 WT18     605      MECN     C2       CG1N1    0.360000       12.0110           0
     55040 WT18     605      MECN     N3       NG1T1   -0.460000       14.0070           0
     55041 WT18     606      MECN     C1       CG331   -0.170000       12.0110           0
     55042 WT18     606      MECN     H11      HGA3     0.090000        1.0080           0
     55043 WT18     606      MECN     H12      HGA3     0.090000        1.0080           0
     55044 WT18     606      MECN     H13      HGA3     0.090000        1.0080           0
     55045 WT18     606      MECN     C2       CG1N1    0.360000       12.0110           0
     55046 WT18     606      MECN     N3       NG1T1   -0.460000       14.0070           0
     55047 WT18     607      MECN     C1       CG331   -0.170000       12.0110           0
     55048 WT18     607      MECN     H11      HGA3     0.090000        1.0080           0
     55049 WT18     607      MECN     H12      HGA3     0.090000        1.0080           0
     55050 WT18     607      MECN     H13      HGA3     0.090000        1.0080           0
     55051 WT18     607      MECN     C2       CG1N1    0.360000       12.0110           0
     55052 WT18     607      MECN     N3       NG1T1   -0.460000       14.0070           0
     55053 WT18     609      MECN     C1       CG331   -0.170000       12.0110           0
     55054 WT18     609      MECN     H11      HGA3     0.090000        1.0080           0
     55055 WT18     609      MECN     H12      HGA3     0.090000        1.0080           0
     55056 WT18     609      MECN     H13      HGA3     0.090000        1.0080           0
     55057 WT18     609      MECN     C2       CG1N1    0.360000       12.0110           0
     55058 WT18     609      MECN     N3       NG1T1   -0.460000       14.0070           0
     55059 WT18     610      MECN     C1       CG331   -0.170000       12.0110           0
     55060 WT18     610      MECN     H11      HGA3     0.090000        1.0080           0
     55061 WT18     610      MECN     H12      HGA3     0.090000        1.0080           0
     55062 WT18     610      MECN     H13      HGA3     0.090000        1.0080           0
     55063 WT18     610      MECN     C2       CG1N1    0.360000       12.0110           0
     55064 WT18     610      MECN     N3       NG1T1   -0.460000       14.0070           0
     55065 WT18     614      MECN     C1       CG331   -0.170000       12.0110           0
     55066 WT18     614      MECN     H11      HGA3     0.090000        1.0080           0
     55067 WT18     614      MECN     H12      HGA3     0.090000        1.0080           0
     55068 WT18     614      MECN     H13      HGA3     0.090000        1.0080           0
     55069 WT18     614      MECN     C2       CG1N1    0.360000       12.0110           0
     55070 WT18     614      MECN     N3       NG1T1   -0.460000       14.0070           0
     55071 WT18     616      MECN     C1       CG331   -0.170000       12.0110           0
     55072 WT18     616      MECN     H11      HGA3     0.090000        1.0080           0
     55073 WT18     616      MECN     H12      HGA3     0.090000        1.0080           0
     55074 WT18     616      MECN     H13      HGA3     0.090000        1.0080           0
     55075 WT18     616      MECN     C2       CG1N1    0.360000       12.0110           0
     55076 WT18     616      MECN     N3       NG1T1   -0.460000       14.0070           0
     55077 WT18     619      MECN     C1       CG331   -0.170000       12.0110           0
     55078 WT18     619      MECN     H11      HGA3     0.090000        1.0080           0
     55079 WT18     619      MECN     H12      HGA3     0.090000        1.0080           0
     55080 WT18     619      MECN     H13      HGA3     0.090000        1.0080           0
     55081 WT18     619      MECN     C2       CG1N1    0.360000       12.0110           0
     55082 WT18     619      MECN     N3       NG1T1   -0.460000       14.0070           0
     55083 WT18     621      MECN     C1       CG331   -0.170000       12.0110           0
     55084 WT18     621      MECN     H11      HGA3     0.090000        1.0080           0
     55085 WT18     621      MECN     H12      HGA3     0.090000        1.0080           0
     55086 WT18     621      MECN     H13      HGA3     0.090000        1.0080           0
     55087 WT18     621      MECN     C2       CG1N1    0.360000       12.0110           0
     55088 WT18     621      MECN     N3       NG1T1   -0.460000       14.0070           0
     55089 WT18     624      MECN     C1       CG331   -0.170000       12.0110           0
     55090 WT18     624      MECN     H11      HGA3     0.090000        1.0080           0
     55091 WT18     624      MECN     H12      HGA3     0.090000        1.0080           0
     55092 WT18     624      MECN     H13      HGA3     0.090000        1.0080           0
     55093 WT18     624      MECN     C2       CG1N1    0.360000       12.0110           0
     55094 WT18     624      MECN     N3       NG1T1   -0.460000       14.0070           0
     55095 WT18     626      MECN     C1       CG331   -0.170000       12.0110           0
     55096 WT18     626      MECN     H11      HGA3     0.090000        1.0080           0
     55097 WT18     626      MECN     H12      HGA3     0.090000        1.0080           0
     55098 WT18     626      MECN     H13      HGA3     0.090000        1.0080           0
     55099 WT18     626      MECN     C2       CG1N1    0.360000       12.0110           0
     55100 WT18     626      MECN     N3       NG1T1   -0.460000       14.0070           0
     55101 WT18     628      MECN     C1       CG331   -0.170000       12.0110           0
     55102 WT18     628      MECN     H11      HGA3     0.090000        1.0080           0
     55103 WT18     628      MECN     H12      HGA3     0.090000        1.0080           0
     55104 WT18     628      MECN     H13      HGA3     0.090000        1.0080           0
     55105 WT18     628      MECN     C2       CG1N1    0.360000       12.0110           0
     55106 WT18     628      MECN     N3       NG1T1   -0.460000       14.0070           0
     55107 WT18     629      MECN     C1       CG331   -0.170000       12.0110           0
     55108 WT18     629      MECN     H11      HGA3     0.090000        1.0080           0
     55109 WT18     629      MECN     H12      HGA3     0.090000        1.0080           0
     55110 WT18     629      MECN     H13      HGA3     0.090000        1.0080           0
     55111 WT18     629      MECN     C2       CG1N1    0.360000       12.0110           0
     55112 WT18     629      MECN     N3       NG1T1   -0.460000       14.0070           0
     55113 WT18     630      MECN     C1       CG331   -0.170000       12.0110           0
     55114 WT18     630      MECN     H11      HGA3     0.090000        1.0080           0
     55115 WT18     630      MECN     H12      HGA3     0.090000        1.0080           0
     55116 WT18     630      MECN     H13      HGA3     0.090000        1.0080           0
     55117 WT18     630      MECN     C2       CG1N1    0.360000       12.0110           0
     55118 WT18     630      MECN     N3       NG1T1   -0.460000       14.0070           0
     55119 WT18     631      MECN     C1       CG331   -0.170000       12.0110           0
     55120 WT18     631      MECN     H11      HGA3     0.090000        1.0080           0
     55121 WT18     631      MECN     H12      HGA3     0.090000        1.0080           0
     55122 WT18     631      MECN     H13      HGA3     0.090000        1.0080           0
     55123 WT18     631      MECN     C2       CG1N1    0.360000       12.0110           0
     55124 WT18     631      MECN     N3       NG1T1   -0.460000       14.0070           0
     55125 WT18     634      MECN     C1       CG331   -0.170000       12.0110           0
     55126 WT18     634      MECN     H11      HGA3     0.090000        1.0080           0
     55127 WT18     634      MECN     H12      HGA3     0.090000        1.0080           0
     55128 WT18     634      MECN     H13      HGA3     0.090000        1.0080           0
     55129 WT18     634      MECN     C2       CG1N1    0.360000       12.0110           0
     55130 WT18     634      MECN     N3       NG1T1   -0.460000       14.0070           0
     55131 WT18     635      MECN     C1       CG331   -0.170000       12.0110           0
     55132 WT18     635      MECN     H11      HGA3     0.090000        1.0080           0
     55133 WT18     635      MECN     H12      HGA3     0.090000        1.0080           0
     55134 WT18     635      MECN     H13      HGA3     0.090000        1.0080           0
     55135 WT18     635      MECN     C2       CG1N1    0.360000       12.0110           0
     55136 WT18     635      MECN     N3       NG1T1   -0.460000       14.0070           0
     55137 WT18     638      MECN     C1       CG331   -0.170000       12.0110           0
     55138 WT18     638      MECN     H11      HGA3     0.090000        1.0080           0
     55139 WT18     638      MECN     H12      HGA3     0.090000        1.0080           0
     55140 WT18     638      MECN     H13      HGA3     0.090000        1.0080           0
     55141 WT18     638      MECN     C2       CG1N1    0.360000       12.0110           0
     55142 WT18     638      MECN     N3       NG1T1   -0.460000       14.0070           0
     55143 WT18     643      MECN     C1       CG331   -0.170000       12.0110           0
     55144 WT18     643      MECN     H11      HGA3     0.090000        1.0080           0
     55145 WT18     643      MECN     H12      HGA3     0.090000        1.0080           0
     55146 WT18     643      MECN     H13      HGA3     0.090000        1.0080           0
     55147 WT18     643      MECN     C2       CG1N1    0.360000       12.0110           0
     55148 WT18     643      MECN     N3       NG1T1   -0.460000       14.0070           0
     55149 WT18     653      MECN     C1       CG331   -0.170000       12.0110           0
     55150 WT18     653      MECN     H11      HGA3     0.090000        1.0080           0
     55151 WT18     653      MECN     H12      HGA3     0.090000        1.0080           0
     55152 WT18     653      MECN     H13      HGA3     0.090000        1.0080           0
     55153 WT18     653      MECN     C2       CG1N1    0.360000       12.0110           0
     55154 WT18     653      MECN     N3       NG1T1   -0.460000       14.0070           0
     55155 WT18     654      MECN     C1       CG331   -0.170000       12.0110           0
     55156 WT18     654      MECN     H11      HGA3     0.090000        1.0080           0
     55157 WT18     654      MECN     H12      HGA3     0.090000        1.0080           0
     55158 WT18     654      MECN     H13      HGA3     0.090000        1.0080           0
     55159 WT18     654      MECN     C2       CG1N1    0.360000       12.0110           0
     55160 WT18     654      MECN     N3       NG1T1   -0.460000       14.0070           0
     55161 WT18     660      MECN     C1       CG331   -0.170000       12.0110           0
     55162 WT18     660      MECN     H11      HGA3     0.090000        1.0080           0
     55163 WT18     660      MECN     H12      HGA3     0.090000        1.0080           0
     55164 WT18     660      MECN     H13      HGA3     0.090000        1.0080           0
     55165 WT18     660      MECN     C2       CG1N1    0.360000       12.0110           0
     55166 WT18     660      MECN     N3       NG1T1   -0.460000       14.0070           0
     55167 WT18     662      MECN     C1       CG331   -0.170000       12.0110           0
     55168 WT18     662      MECN     H11      HGA3     0.090000        1.0080           0
     55169 WT18     662      MECN     H12      HGA3     0.090000        1.0080           0
     55170 WT18     662      MECN     H13      HGA3     0.090000        1.0080           0
     55171 WT18     662      MECN     C2       CG1N1    0.360000       12.0110           0
     55172 WT18     662      MECN     N3       NG1T1   -0.460000       14.0070           0
     55173 WT18     665      MECN     C1       CG331   -0.170000       12.0110           0
     55174 WT18     665      MECN     H11      HGA3     0.090000        1.0080           0
     55175 WT18     665      MECN     H12      HGA3     0.090000        1.0080           0
     55176 WT18     665      MECN     H13      HGA3     0.090000        1.0080           0
     55177 WT18     665      MECN     C2       CG1N1    0.360000       12.0110           0
     55178 WT18     665      MECN     N3       NG1T1   -0.460000       14.0070           0
     55179 WT18     668      MECN     C1       CG331   -0.170000       12.0110           0
     55180 WT18     668      MECN     H11      HGA3     0.090000        1.0080           0
     55181 WT18     668      MECN     H12      HGA3     0.090000        1.0080           0
     55182 WT18     668      MECN     H13      HGA3     0.090000        1.0080           0
     55183 WT18     668      MECN     C2       CG1N1    0.360000       12.0110           0
     55184 WT18     668      MECN     N3       NG1T1   -0.460000       14.0070           0
     55185 WT18     669      MECN     C1       CG331   -0.170000       12.0110           0
     55186 WT18     669      MECN     H11      HGA3     0.090000        1.0080           0
     55187 WT18     669      MECN     H12      HGA3     0.090000        1.0080           0
     55188 WT18     669      MECN     H13      HGA3     0.090000        1.0080           0
     55189 WT18     669      MECN     C2       CG1N1    0.360000       12.0110           0
     55190 WT18     669      MECN     N3       NG1T1   -0.460000       14.0070           0
     55191 WT18     671      MECN     C1       CG331   -0.170000       12.0110           0
     55192 WT18     671      MECN     H11      HGA3     0.090000        1.0080           0
     55193 WT18     671      MECN     H12      HGA3     0.090000        1.0080           0
     55194 WT18     671      MECN     H13      HGA3     0.090000        1.0080           0
     55195 WT18     671      MECN     C2       CG1N1    0.360000       12.0110           0
     55196 WT18     671      MECN     N3       NG1T1   -0.460000       14.0070           0
     55197 WT18     674      MECN     C1       CG331   -0.170000       12.0110           0
     55198 WT18     674      MECN     H11      HGA3     0.090000        1.0080           0
     55199 WT18     674      MECN     H12      HGA3     0.090000        1.0080           0
     55200 WT18     674      MECN     H13      HGA3     0.090000        1.0080           0
     55201 WT18     674      MECN     C2       CG1N1    0.360000       12.0110           0
     55202 WT18     674      MECN     N3       NG1T1   -0.460000       14.0070           0
     55203 WT18     675      MECN     C1       CG331   -0.170000       12.0110           0
     55204 WT18     675      MECN     H11      HGA3     0.090000        1.0080           0
     55205 WT18     675      MECN     H12      HGA3     0.090000        1.0080           0
     55206 WT18     675      MECN     H13      HGA3     0.090000        1.0080           0
     55207 WT18     675      MECN     C2       CG1N1    0.360000       12.0110           0
     55208 WT18     675      MECN     N3       NG1T1   -0.460000       14.0070           0
     55209 WT18     676      MECN     C1       CG331   -0.170000       12.0110           0
     55210 WT18     676      MECN     H11      HGA3     0.090000        1.0080           0
     55211 WT18     676      MECN     H12      HGA3     0.090000        1.0080           0
     55212 WT18     676      MECN     H13      HGA3     0.090000        1.0080           0
     55213 WT18     676      MECN     C2       CG1N1    0.360000       12.0110           0
     55214 WT18     676      MECN     N3       NG1T1   -0.460000       14.0070           0
     55215 WT18     677      MECN     C1       CG331   -0.170000       12.0110           0
     55216 WT18     677      MECN     H11      HGA3     0.090000        1.0080           0
     55217 WT18     677      MECN     H12      HGA3     0.090000        1.0080           0
     55218 WT18     677      MECN     H13      HGA3     0.090000        1.0080           0
     55219 WT18     677      MECN     C2       CG1N1    0.360000       12.0110           0
     55220 WT18     677      MECN     N3       NG1T1   -0.460000       14.0070           0
     55221 WT18     680      MECN     C1       CG331   -0.170000       12.0110           0
     55222 WT18     680      MECN     H11      HGA3     0.090000        1.0080           0
     55223 WT18     680      MECN     H12      HGA3     0.090000        1.0080           0
     55224 WT18     680      MECN     H13      HGA3     0.090000        1.0080           0
     55225 WT18     680      MECN     C2       CG1N1    0.360000       12.0110           0
     55226 WT18     680      MECN     N3       NG1T1   -0.460000       14.0070           0
     55227 WT18     681      MECN     C1       CG331   -0.170000       12.0110           0
     55228 WT18     681      MECN     H11      HGA3     0.090000        1.0080           0
     55229 WT18     681      MECN     H12      HGA3     0.090000        1.0080           0
     55230 WT18     681      MECN     H13      HGA3     0.090000        1.0080           0
     55231 WT18     681      MECN     C2       CG1N1    0.360000       12.0110           0
     55232 WT18     681      MECN     N3       NG1T1   -0.460000       14.0070           0
     55233 WT18     682      MECN     C1       CG331   -0.170000       12.0110           0
     55234 WT18     682      MECN     H11      HGA3     0.090000        1.0080           0
     55235 WT18     682      MECN     H12      HGA3     0.090000        1.0080           0
     55236 WT18     682      MECN     H13      HGA3     0.090000        1.0080           0
     55237 WT18     682      MECN     C2       CG1N1    0.360000       12.0110           0
     55238 WT18     682      MECN     N3       NG1T1   -0.460000       14.0070           0
     55239 WT18     683      MECN     C1       CG331   -0.170000       12.0110           0
     55240 WT18     683      MECN     H11      HGA3     0.090000        1.0080           0
     55241 WT18     683      MECN     H12      HGA3     0.090000        1.0080           0
     55242 WT18     683      MECN     H13      HGA3     0.090000        1.0080           0
     55243 WT18     683      MECN     C2       CG1N1    0.360000       12.0110           0
     55244 WT18     683      MECN     N3       NG1T1   -0.460000       14.0070           0
     55245 WT18     685      MECN     C1       CG331   -0.170000       12.0110           0
     55246 WT18     685      MECN     H11      HGA3     0.090000        1.0080           0
     55247 WT18     685      MECN     H12      HGA3     0.090000        1.0080           0
     55248 WT18     685      MECN     H13      HGA3     0.090000        1.0080           0
     55249 WT18     685      MECN     C2       CG1N1    0.360000       12.0110           0
     55250 WT18     685      MECN     N3       NG1T1   -0.460000       14.0070           0
     55251 WT18     686      MECN     C1       CG331   -0.170000       12.0110           0
     55252 WT18     686      MECN     H11      HGA3     0.090000        1.0080           0
     55253 WT18     686      MECN     H12      HGA3     0.090000        1.0080           0
     55254 WT18     686      MECN     H13      HGA3     0.090000        1.0080           0
     55255 WT18     686      MECN     C2       CG1N1    0.360000       12.0110           0
     55256 WT18     686      MECN     N3       NG1T1   -0.460000       14.0070           0
     55257 WT18     687      MECN     C1       CG331   -0.170000       12.0110           0
     55258 WT18     687      MECN     H11      HGA3     0.090000        1.0080           0
     55259 WT18     687      MECN     H12      HGA3     0.090000        1.0080           0
     55260 WT18     687      MECN     H13      HGA3     0.090000        1.0080           0
     55261 WT18     687      MECN     C2       CG1N1    0.360000       12.0110           0
     55262 WT18     687      MECN     N3       NG1T1   -0.460000       14.0070           0
     55263 WT18     689      MECN     C1       CG331   -0.170000       12.0110           0
     55264 WT18     689      MECN     H11      HGA3     0.090000        1.0080           0
     55265 WT18     689      MECN     H12      HGA3     0.090000        1.0080           0
     55266 WT18     689      MECN     H13      HGA3     0.090000        1.0080           0
     55267 WT18     689      MECN     C2       CG1N1    0.360000       12.0110           0
     55268 WT18     689      MECN     N3       NG1T1   -0.460000       14.0070           0
     55269 WT18     690      MECN     C1       CG331   -0.170000       12.0110           0
     55270 WT18     690      MECN     H11      HGA3     0.090000        1.0080           0
     55271 WT18     690      MECN     H12      HGA3     0.090000        1.0080           0
     55272 WT18     690      MECN     H13      HGA3     0.090000        1.0080           0
     55273 WT18     690      MECN     C2       CG1N1    0.360000       12.0110           0
     55274 WT18     690      MECN     N3       NG1T1   -0.460000       14.0070           0
     55275 WT18     693      MECN     C1       CG331   -0.170000       12.0110           0
     55276 WT18     693      MECN     H11      HGA3     0.090000        1.0080           0
     55277 WT18     693      MECN     H12      HGA3     0.090000        1.0080           0
     55278 WT18     693      MECN     H13      HGA3     0.090000        1.0080           0
     55279 WT18     693      MECN     C2       CG1N1    0.360000       12.0110           0
     55280 WT18     693      MECN     N3       NG1T1   -0.460000       14.0070           0
     55281 WT18     695      MECN     C1       CG331   -0.170000       12.0110           0
     55282 WT18     695      MECN     H11      HGA3     0.090000        1.0080           0
     55283 WT18     695      MECN     H12      HGA3     0.090000        1.0080           0
     55284 WT18     695      MECN     H13      HGA3     0.090000        1.0080           0
     55285 WT18     695      MECN     C2       CG1N1    0.360000       12.0110           0
     55286 WT18     695      MECN     N3       NG1T1   -0.460000       14.0070           0
     55287 WT18     696      MECN     C1       CG331   -0.170000       12.0110           0
     55288 WT18     696      MECN     H11      HGA3     0.090000        1.0080           0
     55289 WT18     696      MECN     H12      HGA3     0.090000        1.0080           0
     55290 WT18     696      MECN     H13      HGA3     0.090000        1.0080           0
     55291 WT18     696      MECN     C2       CG1N1    0.360000       12.0110           0
     55292 WT18     696      MECN     N3       NG1T1   -0.460000       14.0070           0
     55293 WT18     697      MECN     C1       CG331   -0.170000       12.0110           0
     55294 WT18     697      MECN     H11      HGA3     0.090000        1.0080           0
     55295 WT18     697      MECN     H12      HGA3     0.090000        1.0080           0
     55296 WT18     697      MECN     H13      HGA3     0.090000        1.0080           0
     55297 WT18     697      MECN     C2       CG1N1    0.360000       12.0110           0
     55298 WT18     697      MECN     N3       NG1T1   -0.460000       14.0070           0
     55299 WT18     700      MECN     C1       CG331   -0.170000       12.0110           0
     55300 WT18     700      MECN     H11      HGA3     0.090000        1.0080           0
     55301 WT18     700      MECN     H12      HGA3     0.090000        1.0080           0
     55302 WT18     700      MECN     H13      HGA3     0.090000        1.0080           0
     55303 WT18     700      MECN     C2       CG1N1    0.360000       12.0110           0
     55304 WT18     700      MECN     N3       NG1T1   -0.460000       14.0070           0
     55305 WT18     701      MECN     C1       CG331   -0.170000       12.0110           0
     55306 WT18     701      MECN     H11      HGA3     0.090000        1.0080           0
     55307 WT18     701      MECN     H12      HGA3     0.090000        1.0080           0
     55308 WT18     701      MECN     H13      HGA3     0.090000        1.0080           0
     55309 WT18     701      MECN     C2       CG1N1    0.360000       12.0110           0
     55310 WT18     701      MECN     N3       NG1T1   -0.460000       14.0070           0
     55311 WT18     702      MECN     C1       CG331   -0.170000       12.0110           0
     55312 WT18     702      MECN     H11      HGA3     0.090000        1.0080           0
     55313 WT18     702      MECN     H12      HGA3     0.090000        1.0080           0
     55314 WT18     702      MECN     H13      HGA3     0.090000        1.0080           0
     55315 WT18     702      MECN     C2       CG1N1    0.360000       12.0110           0
     55316 WT18     702      MECN     N3       NG1T1   -0.460000       14.0070           0
     55317 WT18     703      MECN     C1       CG331   -0.170000       12.0110           0
     55318 WT18     703      MECN     H11      HGA3     0.090000        1.0080           0
     55319 WT18     703      MECN     H12      HGA3     0.090000        1.0080           0
     55320 WT18     703      MECN     H13      HGA3     0.090000        1.0080           0
     55321 WT18     703      MECN     C2       CG1N1    0.360000       12.0110           0
     55322 WT18     703      MECN     N3       NG1T1   -0.460000       14.0070           0
     55323 WT18     705      MECN     C1       CG331   -0.170000       12.0110           0
     55324 WT18     705      MECN     H11      HGA3     0.090000        1.0080           0
     55325 WT18     705      MECN     H12      HGA3     0.090000        1.0080           0
     55326 WT18     705      MECN     H13      HGA3     0.090000        1.0080           0
     55327 WT18     705      MECN     C2       CG1N1    0.360000       12.0110           0
     55328 WT18     705      MECN     N3       NG1T1   -0.460000       14.0070           0
     55329 WT18     707      MECN     C1       CG331   -0.170000       12.0110           0
     55330 WT18     707      MECN     H11      HGA3     0.090000        1.0080           0
     55331 WT18     707      MECN     H12      HGA3     0.090000        1.0080           0
     55332 WT18     707      MECN     H13      HGA3     0.090000        1.0080           0
     55333 WT18     707      MECN     C2       CG1N1    0.360000       12.0110           0
     55334 WT18     707      MECN     N3       NG1T1   -0.460000       14.0070           0
     55335 WT18     709      MECN     C1       CG331   -0.170000       12.0110           0
     55336 WT18     709      MECN     H11      HGA3     0.090000        1.0080           0
     55337 WT18     709      MECN     H12      HGA3     0.090000        1.0080           0
     55338 WT18     709      MECN     H13      HGA3     0.090000        1.0080           0
     55339 WT18     709      MECN     C2       CG1N1    0.360000       12.0110           0
     55340 WT18     709      MECN     N3       NG1T1   -0.460000       14.0070           0
     55341 WT18     710      MECN     C1       CG331   -0.170000       12.0110           0
     55342 WT18     710      MECN     H11      HGA3     0.090000        1.0080           0
     55343 WT18     710      MECN     H12      HGA3     0.090000        1.0080           0
     55344 WT18     710      MECN     H13      HGA3     0.090000        1.0080           0
     55345 WT18     710      MECN     C2       CG1N1    0.360000       12.0110           0
     55346 WT18     710      MECN     N3       NG1T1   -0.460000       14.0070           0
     55347 WT18     711      MECN     C1       CG331   -0.170000       12.0110           0
     55348 WT18     711      MECN     H11      HGA3     0.090000        1.0080           0
     55349 WT18     711      MECN     H12      HGA3     0.090000        1.0080           0
     55350 WT18     711      MECN     H13      HGA3     0.090000        1.0080           0
     55351 WT18     711      MECN     C2       CG1N1    0.360000       12.0110           0
     55352 WT18     711      MECN     N3       NG1T1   -0.460000       14.0070           0
     55353 WT18     713      MECN     C1       CG331   -0.170000       12.0110           0
     55354 WT18     713      MECN     H11      HGA3     0.090000        1.0080           0
     55355 WT18     713      MECN     H12      HGA3     0.090000        1.0080           0
     55356 WT18     713      MECN     H13      HGA3     0.090000        1.0080           0
     55357 WT18     713      MECN     C2       CG1N1    0.360000       12.0110           0
     55358 WT18     713      MECN     N3       NG1T1   -0.460000       14.0070           0
     55359 WT18     714      MECN     C1       CG331   -0.170000       12.0110           0
     55360 WT18     714      MECN     H11      HGA3     0.090000        1.0080           0
     55361 WT18     714      MECN     H12      HGA3     0.090000        1.0080           0
     55362 WT18     714      MECN     H13      HGA3     0.090000        1.0080           0
     55363 WT18     714      MECN     C2       CG1N1    0.360000       12.0110           0
     55364 WT18     714      MECN     N3       NG1T1   -0.460000       14.0070           0
     55365 WT18     716      MECN     C1       CG331   -0.170000       12.0110           0
     55366 WT18     716      MECN     H11      HGA3     0.090000        1.0080           0
     55367 WT18     716      MECN     H12      HGA3     0.090000        1.0080           0
     55368 WT18     716      MECN     H13      HGA3     0.090000        1.0080           0
     55369 WT18     716      MECN     C2       CG1N1    0.360000       12.0110           0
     55370 WT18     716      MECN     N3       NG1T1   -0.460000       14.0070           0
     55371 WT18     717      MECN     C1       CG331   -0.170000       12.0110           0
     55372 WT18     717      MECN     H11      HGA3     0.090000        1.0080           0
     55373 WT18     717      MECN     H12      HGA3     0.090000        1.0080           0
     55374 WT18     717      MECN     H13      HGA3     0.090000        1.0080           0
     55375 WT18     717      MECN     C2       CG1N1    0.360000       12.0110           0
     55376 WT18     717      MECN     N3       NG1T1   -0.460000       14.0070           0
     55377 WT18     718      MECN     C1       CG331   -0.170000       12.0110           0
     55378 WT18     718      MECN     H11      HGA3     0.090000        1.0080           0
     55379 WT18     718      MECN     H12      HGA3     0.090000        1.0080           0
     55380 WT18     718      MECN     H13      HGA3     0.090000        1.0080           0
     55381 WT18     718      MECN     C2       CG1N1    0.360000       12.0110           0
     55382 WT18     718      MECN     N3       NG1T1   -0.460000       14.0070           0
     55383 WT18     719      MECN     C1       CG331   -0.170000       12.0110           0
     55384 WT18     719      MECN     H11      HGA3     0.090000        1.0080           0
     55385 WT18     719      MECN     H12      HGA3     0.090000        1.0080           0
     55386 WT18     719      MECN     H13      HGA3     0.090000        1.0080           0
     55387 WT18     719      MECN     C2       CG1N1    0.360000       12.0110           0
     55388 WT18     719      MECN     N3       NG1T1   -0.460000       14.0070           0
     55389 WT18     720      MECN     C1       CG331   -0.170000       12.0110           0
     55390 WT18     720      MECN     H11      HGA3     0.090000        1.0080           0
     55391 WT18     720      MECN     H12      HGA3     0.090000        1.0080           0
     55392 WT18     720      MECN     H13      HGA3     0.090000        1.0080           0
     55393 WT18     720      MECN     C2       CG1N1    0.360000       12.0110           0
     55394 WT18     720      MECN     N3       NG1T1   -0.460000       14.0070           0
     55395 WT18     725      MECN     C1       CG331   -0.170000       12.0110           0
     55396 WT18     725      MECN     H11      HGA3     0.090000        1.0080           0
     55397 WT18     725      MECN     H12      HGA3     0.090000        1.0080           0
     55398 WT18     725      MECN     H13      HGA3     0.090000        1.0080           0
     55399 WT18     725      MECN     C2       CG1N1    0.360000       12.0110           0
     55400 WT18     725      MECN     N3       NG1T1   -0.460000       14.0070           0
     55401 WT18     729      MECN     C1       CG331   -0.170000       12.0110           0
     55402 WT18     729      MECN     H11      HGA3     0.090000        1.0080           0
     55403 WT18     729      MECN     H12      HGA3     0.090000        1.0080           0
     55404 WT18     729      MECN     H13      HGA3     0.090000        1.0080           0
     55405 WT18     729      MECN     C2       CG1N1    0.360000       12.0110           0
     55406 WT18     729      MECN     N3       NG1T1   -0.460000       14.0070           0
     55407 WT18     730      MECN     C1       CG331   -0.170000       12.0110           0
     55408 WT18     730      MECN     H11      HGA3     0.090000        1.0080           0
     55409 WT18     730      MECN     H12      HGA3     0.090000        1.0080           0
     55410 WT18     730      MECN     H13      HGA3     0.090000        1.0080           0
     55411 WT18     730      MECN     C2       CG1N1    0.360000       12.0110           0
     55412 WT18     730      MECN     N3       NG1T1   -0.460000       14.0070           0
     55413 WT18     732      MECN     C1       CG331   -0.170000       12.0110           0
     55414 WT18     732      MECN     H11      HGA3     0.090000        1.0080           0
     55415 WT18     732      MECN     H12      HGA3     0.090000        1.0080           0
     55416 WT18     732      MECN     H13      HGA3     0.090000        1.0080           0
     55417 WT18     732      MECN     C2       CG1N1    0.360000       12.0110           0
     55418 WT18     732      MECN     N3       NG1T1   -0.460000       14.0070           0
     55419 WT18     733      MECN     C1       CG331   -0.170000       12.0110           0
     55420 WT18     733      MECN     H11      HGA3     0.090000        1.0080           0
     55421 WT18     733      MECN     H12      HGA3     0.090000        1.0080           0
     55422 WT18     733      MECN     H13      HGA3     0.090000        1.0080           0
     55423 WT18     733      MECN     C2       CG1N1    0.360000       12.0110           0
     55424 WT18     733      MECN     N3       NG1T1   -0.460000       14.0070           0
     55425 WT18     734      MECN     C1       CG331   -0.170000       12.0110           0
     55426 WT18     734      MECN     H11      HGA3     0.090000        1.0080           0
     55427 WT18     734      MECN     H12      HGA3     0.090000        1.0080           0
     55428 WT18     734      MECN     H13      HGA3     0.090000        1.0080           0
     55429 WT18     734      MECN     C2       CG1N1    0.360000       12.0110           0
     55430 WT18     734      MECN     N3       NG1T1   -0.460000       14.0070           0
     55431 WT18     735      MECN     C1       CG331   -0.170000       12.0110           0
     55432 WT18     735      MECN     H11      HGA3     0.090000        1.0080           0
     55433 WT18     735      MECN     H12      HGA3     0.090000        1.0080           0
     55434 WT18     735      MECN     H13      HGA3     0.090000        1.0080           0
     55435 WT18     735      MECN     C2       CG1N1    0.360000       12.0110           0
     55436 WT18     735      MECN     N3       NG1T1   -0.460000       14.0070           0
     55437 WT18     736      MECN     C1       CG331   -0.170000       12.0110           0
     55438 WT18     736      MECN     H11      HGA3     0.090000        1.0080           0
     55439 WT18     736      MECN     H12      HGA3     0.090000        1.0080           0
     55440 WT18     736      MECN     H13      HGA3     0.090000        1.0080           0
     55441 WT18     736      MECN     C2       CG1N1    0.360000       12.0110           0
     55442 WT18     736      MECN     N3       NG1T1   -0.460000       14.0070           0
     55443 WT18     738      MECN     C1       CG331   -0.170000       12.0110           0
     55444 WT18     738      MECN     H11      HGA3     0.090000        1.0080           0
     55445 WT18     738      MECN     H12      HGA3     0.090000        1.0080           0
     55446 WT18     738      MECN     H13      HGA3     0.090000        1.0080           0
     55447 WT18     738      MECN     C2       CG1N1    0.360000       12.0110           0
     55448 WT18     738      MECN     N3       NG1T1   -0.460000       14.0070           0
     55449 WT18     739      MECN     C1       CG331   -0.170000       12.0110           0
     55450 WT18     739      MECN     H11      HGA3     0.090000        1.0080           0
     55451 WT18     739      MECN     H12      HGA3     0.090000        1.0080           0
     55452 WT18     739      MECN     H13      HGA3     0.090000        1.0080           0
     55453 WT18     739      MECN     C2       CG1N1    0.360000       12.0110           0
     55454 WT18     739      MECN     N3       NG1T1   -0.460000       14.0070           0
     55455 WT18     742      MECN     C1       CG331   -0.170000       12.0110           0
     55456 WT18     742      MECN     H11      HGA3     0.090000        1.0080           0
     55457 WT18     742      MECN     H12      HGA3     0.090000        1.0080           0
     55458 WT18     742      MECN     H13      HGA3     0.090000        1.0080           0
     55459 WT18     742      MECN     C2       CG1N1    0.360000       12.0110           0
     55460 WT18     742      MECN     N3       NG1T1   -0.460000       14.0070           0
     55461 WT18     746      MECN     C1       CG331   -0.170000       12.0110           0
     55462 WT18     746      MECN     H11      HGA3     0.090000        1.0080           0
     55463 WT18     746      MECN     H12      HGA3     0.090000        1.0080           0
     55464 WT18     746      MECN     H13      HGA3     0.090000        1.0080           0
     55465 WT18     746      MECN     C2       CG1N1    0.360000       12.0110           0
     55466 WT18     746      MECN     N3       NG1T1   -0.460000       14.0070           0
     55467 WT18     750      MECN     C1       CG331   -0.170000       12.0110           0
     55468 WT18     750      MECN     H11      HGA3     0.090000        1.0080           0
     55469 WT18     750      MECN     H12      HGA3     0.090000        1.0080           0
     55470 WT18     750      MECN     H13      HGA3     0.090000        1.0080           0
     55471 WT18     750      MECN     C2       CG1N1    0.360000       12.0110           0
     55472 WT18     750      MECN     N3       NG1T1   -0.460000       14.0070           0
     55473 WT18     751      MECN     C1       CG331   -0.170000       12.0110           0
     55474 WT18     751      MECN     H11      HGA3     0.090000        1.0080           0
     55475 WT18     751      MECN     H12      HGA3     0.090000        1.0080           0
     55476 WT18     751      MECN     H13      HGA3     0.090000        1.0080           0
     55477 WT18     751      MECN     C2       CG1N1    0.360000       12.0110           0
     55478 WT18     751      MECN     N3       NG1T1   -0.460000       14.0070           0
     55479 WT18     752      MECN     C1       CG331   -0.170000       12.0110           0
     55480 WT18     752      MECN     H11      HGA3     0.090000        1.0080           0
     55481 WT18     752      MECN     H12      HGA3     0.090000        1.0080           0
     55482 WT18     752      MECN     H13      HGA3     0.090000        1.0080           0
     55483 WT18     752      MECN     C2       CG1N1    0.360000       12.0110           0
     55484 WT18     752      MECN     N3       NG1T1   -0.460000       14.0070           0
     55485 WT18     753      MECN     C1       CG331   -0.170000       12.0110           0
     55486 WT18     753      MECN     H11      HGA3     0.090000        1.0080           0
     55487 WT18     753      MECN     H12      HGA3     0.090000        1.0080           0
     55488 WT18     753      MECN     H13      HGA3     0.090000        1.0080           0
     55489 WT18     753      MECN     C2       CG1N1    0.360000       12.0110           0
     55490 WT18     753      MECN     N3       NG1T1   -0.460000       14.0070           0
     55491 WT18     758      MECN     C1       CG331   -0.170000       12.0110           0
     55492 WT18     758      MECN     H11      HGA3     0.090000        1.0080           0
     55493 WT18     758      MECN     H12      HGA3     0.090000        1.0080           0
     55494 WT18     758      MECN     H13      HGA3     0.090000        1.0080           0
     55495 WT18     758      MECN     C2       CG1N1    0.360000       12.0110           0
     55496 WT18     758      MECN     N3       NG1T1   -0.460000       14.0070           0
     55497 WT18     759      MECN     C1       CG331   -0.170000       12.0110           0
     55498 WT18     759      MECN     H11      HGA3     0.090000        1.0080           0
     55499 WT18     759      MECN     H12      HGA3     0.090000        1.0080           0
     55500 WT18     759      MECN     H13      HGA3     0.090000        1.0080           0
     55501 WT18     759      MECN     C2       CG1N1    0.360000       12.0110           0
     55502 WT18     759      MECN     N3       NG1T1   -0.460000       14.0070           0
     55503 WT18     760      MECN     C1       CG331   -0.170000       12.0110           0
     55504 WT18     760      MECN     H11      HGA3     0.090000        1.0080           0
     55505 WT18     760      MECN     H12      HGA3     0.090000        1.0080           0
     55506 WT18     760      MECN     H13      HGA3     0.090000        1.0080           0
     55507 WT18     760      MECN     C2       CG1N1    0.360000       12.0110           0
     55508 WT18     760      MECN     N3       NG1T1   -0.460000       14.0070           0
     55509 WT18     763      MECN     C1       CG331   -0.170000       12.0110           0
     55510 WT18     763      MECN     H11      HGA3     0.090000        1.0080           0
     55511 WT18     763      MECN     H12      HGA3     0.090000        1.0080           0
     55512 WT18     763      MECN     H13      HGA3     0.090000        1.0080           0
     55513 WT18     763      MECN     C2       CG1N1    0.360000       12.0110           0
     55514 WT18     763      MECN     N3       NG1T1   -0.460000       14.0070           0
     55515 WT18     764      MECN     C1       CG331   -0.170000       12.0110           0
     55516 WT18     764      MECN     H11      HGA3     0.090000        1.0080           0
     55517 WT18     764      MECN     H12      HGA3     0.090000        1.0080           0
     55518 WT18     764      MECN     H13      HGA3     0.090000        1.0080           0
     55519 WT18     764      MECN     C2       CG1N1    0.360000       12.0110           0
     55520 WT18     764      MECN     N3       NG1T1   -0.460000       14.0070           0
     55521 WT18     766      MECN     C1       CG331   -0.170000       12.0110           0
     55522 WT18     766      MECN     H11      HGA3     0.090000        1.0080           0
     55523 WT18     766      MECN     H12      HGA3     0.090000        1.0080           0
     55524 WT18     766      MECN     H13      HGA3     0.090000        1.0080           0
     55525 WT18     766      MECN     C2       CG1N1    0.360000       12.0110           0
     55526 WT18     766      MECN     N3       NG1T1   -0.460000       14.0070           0
     55527 WT18     769      MECN     C1       CG331   -0.170000       12.0110           0
     55528 WT18     769      MECN     H11      HGA3     0.090000        1.0080           0
     55529 WT18     769      MECN     H12      HGA3     0.090000        1.0080           0
     55530 WT18     769      MECN     H13      HGA3     0.090000        1.0080           0
     55531 WT18     769      MECN     C2       CG1N1    0.360000       12.0110           0
     55532 WT18     769      MECN     N3       NG1T1   -0.460000       14.0070           0
     55533 WT18     773      MECN     C1       CG331   -0.170000       12.0110           0
     55534 WT18     773      MECN     H11      HGA3     0.090000        1.0080           0
     55535 WT18     773      MECN     H12      HGA3     0.090000        1.0080           0
     55536 WT18     773      MECN     H13      HGA3     0.090000        1.0080           0
     55537 WT18     773      MECN     C2       CG1N1    0.360000       12.0110           0
     55538 WT18     773      MECN     N3       NG1T1   -0.460000       14.0070           0
     55539 WT18     775      MECN     C1       CG331   -0.170000       12.0110           0
     55540 WT18     775      MECN     H11      HGA3     0.090000        1.0080           0
     55541 WT18     775      MECN     H12      HGA3     0.090000        1.0080           0
     55542 WT18     775      MECN     H13      HGA3     0.090000        1.0080           0
     55543 WT18     775      MECN     C2       CG1N1    0.360000       12.0110           0
     55544 WT18     775      MECN     N3       NG1T1   -0.460000       14.0070           0
     55545 WT18     779      MECN     C1       CG331   -0.170000       12.0110           0
     55546 WT18     779      MECN     H11      HGA3     0.090000        1.0080           0
     55547 WT18     779      MECN     H12      HGA3     0.090000        1.0080           0
     55548 WT18     779      MECN     H13      HGA3     0.090000        1.0080           0
     55549 WT18     779      MECN     C2       CG1N1    0.360000       12.0110           0
     55550 WT18     779      MECN     N3       NG1T1   -0.460000       14.0070           0
     55551 WT18     784      MECN     C1       CG331   -0.170000       12.0110           0
     55552 WT18     784      MECN     H11      HGA3     0.090000        1.0080           0
     55553 WT18     784      MECN     H12      HGA3     0.090000        1.0080           0
     55554 WT18     784      MECN     H13      HGA3     0.090000        1.0080           0
     55555 WT18     784      MECN     C2       CG1N1    0.360000       12.0110           0
     55556 WT18     784      MECN     N3       NG1T1   -0.460000       14.0070           0
     55557 WT18     785      MECN     C1       CG331   -0.170000       12.0110           0
     55558 WT18     785      MECN     H11      HGA3     0.090000        1.0080           0
     55559 WT18     785      MECN     H12      HGA3     0.090000        1.0080           0
     55560 WT18     785      MECN     H13      HGA3     0.090000        1.0080           0
     55561 WT18     785      MECN     C2       CG1N1    0.360000       12.0110           0
     55562 WT18     785      MECN     N3       NG1T1   -0.460000       14.0070           0
     55563 WT18     786      MECN     C1       CG331   -0.170000       12.0110           0
     55564 WT18     786      MECN     H11      HGA3     0.090000        1.0080           0
     55565 WT18     786      MECN     H12      HGA3     0.090000        1.0080           0
     55566 WT18     786      MECN     H13      HGA3     0.090000        1.0080           0
     55567 WT18     786      MECN     C2       CG1N1    0.360000       12.0110           0
     55568 WT18     786      MECN     N3       NG1T1   -0.460000       14.0070           0
     55569 WT18     787      MECN     C1       CG331   -0.170000       12.0110           0
     55570 WT18     787      MECN     H11      HGA3     0.090000        1.0080           0
     55571 WT18     787      MECN     H12      HGA3     0.090000        1.0080           0
     55572 WT18     787      MECN     H13      HGA3     0.090000        1.0080           0
     55573 WT18     787      MECN     C2       CG1N1    0.360000       12.0110           0
     55574 WT18     787      MECN     N3       NG1T1   -0.460000       14.0070           0
     55575 WT18     788      MECN     C1       CG331   -0.170000       12.0110           0
     55576 WT18     788      MECN     H11      HGA3     0.090000        1.0080           0
     55577 WT18     788      MECN     H12      HGA3     0.090000        1.0080           0
     55578 WT18     788      MECN     H13      HGA3     0.090000        1.0080           0
     55579 WT18     788      MECN     C2       CG1N1    0.360000       12.0110           0
     55580 WT18     788      MECN     N3       NG1T1   -0.460000       14.0070           0
     55581 WT18     790      MECN     C1       CG331   -0.170000       12.0110           0
     55582 WT18     790      MECN     H11      HGA3     0.090000        1.0080           0
     55583 WT18     790      MECN     H12      HGA3     0.090000        1.0080           0
     55584 WT18     790      MECN     H13      HGA3     0.090000        1.0080           0
     55585 WT18     790      MECN     C2       CG1N1    0.360000       12.0110           0
     55586 WT18     790      MECN     N3       NG1T1   -0.460000       14.0070           0
     55587 WT18     792      MECN     C1       CG331   -0.170000       12.0110           0
     55588 WT18     792      MECN     H11      HGA3     0.090000        1.0080           0
     55589 WT18     792      MECN     H12      HGA3     0.090000        1.0080           0
     55590 WT18     792      MECN     H13      HGA3     0.090000        1.0080           0
     55591 WT18     792      MECN     C2       CG1N1    0.360000       12.0110           0
     55592 WT18     792      MECN     N3       NG1T1   -0.460000       14.0070           0
     55593 WT18     794      MECN     C1       CG331   -0.170000       12.0110           0
     55594 WT18     794      MECN     H11      HGA3     0.090000        1.0080           0
     55595 WT18     794      MECN     H12      HGA3     0.090000        1.0080           0
     55596 WT18     794      MECN     H13      HGA3     0.090000        1.0080           0
     55597 WT18     794      MECN     C2       CG1N1    0.360000       12.0110           0
     55598 WT18     794      MECN     N3       NG1T1   -0.460000       14.0070           0
     55599 WT18     795      MECN     C1       CG331   -0.170000       12.0110           0
     55600 WT18     795      MECN     H11      HGA3     0.090000        1.0080           0
     55601 WT18     795      MECN     H12      HGA3     0.090000        1.0080           0
     55602 WT18     795      MECN     H13      HGA3     0.090000        1.0080           0
     55603 WT18     795      MECN     C2       CG1N1    0.360000       12.0110           0
     55604 WT18     795      MECN     N3       NG1T1   -0.460000       14.0070           0
     55605 WT18     796      MECN     C1       CG331   -0.170000       12.0110           0
     55606 WT18     796      MECN     H11      HGA3     0.090000        1.0080           0
     55607 WT18     796      MECN     H12      HGA3     0.090000        1.0080           0
     55608 WT18     796      MECN     H13      HGA3     0.090000        1.0080           0
     55609 WT18     796      MECN     C2       CG1N1    0.360000       12.0110           0
     55610 WT18     796      MECN     N3       NG1T1   -0.460000       14.0070           0
     55611 WT18     798      MECN     C1       CG331   -0.170000       12.0110           0
     55612 WT18     798      MECN     H11      HGA3     0.090000        1.0080           0
     55613 WT18     798      MECN     H12      HGA3     0.090000        1.0080           0
     55614 WT18     798      MECN     H13      HGA3     0.090000        1.0080           0
     55615 WT18     798      MECN     C2       CG1N1    0.360000       12.0110           0
     55616 WT18     798      MECN     N3       NG1T1   -0.460000       14.0070           0
     55617 WT18     801      MECN     C1       CG331   -0.170000       12.0110           0
     55618 WT18     801      MECN     H11      HGA3     0.090000        1.0080           0
     55619 WT18     801      MECN     H12      HGA3     0.090000        1.0080           0
     55620 WT18     801      MECN     H13      HGA3     0.090000        1.0080           0
     55621 WT18     801      MECN     C2       CG1N1    0.360000       12.0110           0
     55622 WT18     801      MECN     N3       NG1T1   -0.460000       14.0070           0
     55623 WT18     802      MECN     C1       CG331   -0.170000       12.0110           0
     55624 WT18     802      MECN     H11      HGA3     0.090000        1.0080           0
     55625 WT18     802      MECN     H12      HGA3     0.090000        1.0080           0
     55626 WT18     802      MECN     H13      HGA3     0.090000        1.0080           0
     55627 WT18     802      MECN     C2       CG1N1    0.360000       12.0110           0
     55628 WT18     802      MECN     N3       NG1T1   -0.460000       14.0070           0
     55629 WT18     804      MECN     C1       CG331   -0.170000       12.0110           0
     55630 WT18     804      MECN     H11      HGA3     0.090000        1.0080           0
     55631 WT18     804      MECN     H12      HGA3     0.090000        1.0080           0
     55632 WT18     804      MECN     H13      HGA3     0.090000        1.0080           0
     55633 WT18     804      MECN     C2       CG1N1    0.360000       12.0110           0
     55634 WT18     804      MECN     N3       NG1T1   -0.460000       14.0070           0
     55635 WT18     809      MECN     C1       CG331   -0.170000       12.0110           0
     55636 WT18     809      MECN     H11      HGA3     0.090000        1.0080           0
     55637 WT18     809      MECN     H12      HGA3     0.090000        1.0080           0
     55638 WT18     809      MECN     H13      HGA3     0.090000        1.0080           0
     55639 WT18     809      MECN     C2       CG1N1    0.360000       12.0110           0
     55640 WT18     809      MECN     N3       NG1T1   -0.460000       14.0070           0
     55641 WT18     811      MECN     C1       CG331   -0.170000       12.0110           0
     55642 WT18     811      MECN     H11      HGA3     0.090000        1.0080           0
     55643 WT18     811      MECN     H12      HGA3     0.090000        1.0080           0
     55644 WT18     811      MECN     H13      HGA3     0.090000        1.0080           0
     55645 WT18     811      MECN     C2       CG1N1    0.360000       12.0110           0
     55646 WT18     811      MECN     N3       NG1T1   -0.460000       14.0070           0
     55647 WT18     812      MECN     C1       CG331   -0.170000       12.0110           0
     55648 WT18     812      MECN     H11      HGA3     0.090000        1.0080           0
     55649 WT18     812      MECN     H12      HGA3     0.090000        1.0080           0
     55650 WT18     812      MECN     H13      HGA3     0.090000        1.0080           0
     55651 WT18     812      MECN     C2       CG1N1    0.360000       12.0110           0
     55652 WT18     812      MECN     N3       NG1T1   -0.460000       14.0070           0
     55653 WT18     813      MECN     C1       CG331   -0.170000       12.0110           0
     55654 WT18     813      MECN     H11      HGA3     0.090000        1.0080           0
     55655 WT18     813      MECN     H12      HGA3     0.090000        1.0080           0
     55656 WT18     813      MECN     H13      HGA3     0.090000        1.0080           0
     55657 WT18     813      MECN     C2       CG1N1    0.360000       12.0110           0
     55658 WT18     813      MECN     N3       NG1T1   -0.460000       14.0070           0
     55659 WT18     815      MECN     C1       CG331   -0.170000       12.0110           0
     55660 WT18     815      MECN     H11      HGA3     0.090000        1.0080           0
     55661 WT18     815      MECN     H12      HGA3     0.090000        1.0080           0
     55662 WT18     815      MECN     H13      HGA3     0.090000        1.0080           0
     55663 WT18     815      MECN     C2       CG1N1    0.360000       12.0110           0
     55664 WT18     815      MECN     N3       NG1T1   -0.460000       14.0070           0
     55665 WT18     816      MECN     C1       CG331   -0.170000       12.0110           0
     55666 WT18     816      MECN     H11      HGA3     0.090000        1.0080           0
     55667 WT18     816      MECN     H12      HGA3     0.090000        1.0080           0
     55668 WT18     816      MECN     H13      HGA3     0.090000        1.0080           0
     55669 WT18     816      MECN     C2       CG1N1    0.360000       12.0110           0
     55670 WT18     816      MECN     N3       NG1T1   -0.460000       14.0070           0
     55671 WT18     819      MECN     C1       CG331   -0.170000       12.0110           0
     55672 WT18     819      MECN     H11      HGA3     0.090000        1.0080           0
     55673 WT18     819      MECN     H12      HGA3     0.090000        1.0080           0
     55674 WT18     819      MECN     H13      HGA3     0.090000        1.0080           0
     55675 WT18     819      MECN     C2       CG1N1    0.360000       12.0110           0
     55676 WT18     819      MECN     N3       NG1T1   -0.460000       14.0070           0
     55677 WT18     820      MECN     C1       CG331   -0.170000       12.0110           0
     55678 WT18     820      MECN     H11      HGA3     0.090000        1.0080           0
     55679 WT18     820      MECN     H12      HGA3     0.090000        1.0080           0
     55680 WT18     820      MECN     H13      HGA3     0.090000        1.0080           0
     55681 WT18     820      MECN     C2       CG1N1    0.360000       12.0110           0
     55682 WT18     820      MECN     N3       NG1T1   -0.460000       14.0070           0
     55683 WT18     824      MECN     C1       CG331   -0.170000       12.0110           0
     55684 WT18     824      MECN     H11      HGA3     0.090000        1.0080           0
     55685 WT18     824      MECN     H12      HGA3     0.090000        1.0080           0
     55686 WT18     824      MECN     H13      HGA3     0.090000        1.0080           0
     55687 WT18     824      MECN     C2       CG1N1    0.360000       12.0110           0
     55688 WT18     824      MECN     N3       NG1T1   -0.460000       14.0070           0
     55689 WT18     825      MECN     C1       CG331   -0.170000       12.0110           0
     55690 WT18     825      MECN     H11      HGA3     0.090000        1.0080           0
     55691 WT18     825      MECN     H12      HGA3     0.090000        1.0080           0
     55692 WT18     825      MECN     H13      HGA3     0.090000        1.0080           0
     55693 WT18     825      MECN     C2       CG1N1    0.360000       12.0110           0
     55694 WT18     825      MECN     N3       NG1T1   -0.460000       14.0070           0
     55695 WT18     826      MECN     C1       CG331   -0.170000       12.0110           0
     55696 WT18     826      MECN     H11      HGA3     0.090000        1.0080           0
     55697 WT18     826      MECN     H12      HGA3     0.090000        1.0080           0
     55698 WT18     826      MECN     H13      HGA3     0.090000        1.0080           0
     55699 WT18     826      MECN     C2       CG1N1    0.360000       12.0110           0
     55700 WT18     826      MECN     N3       NG1T1   -0.460000       14.0070           0
     55701 WT18     831      MECN     C1       CG331   -0.170000       12.0110           0
     55702 WT18     831      MECN     H11      HGA3     0.090000        1.0080           0
     55703 WT18     831      MECN     H12      HGA3     0.090000        1.0080           0
     55704 WT18     831      MECN     H13      HGA3     0.090000        1.0080           0
     55705 WT18     831      MECN     C2       CG1N1    0.360000       12.0110           0
     55706 WT18     831      MECN     N3       NG1T1   -0.460000       14.0070           0
     55707 WT18     832      MECN     C1       CG331   -0.170000       12.0110           0
     55708 WT18     832      MECN     H11      HGA3     0.090000        1.0080           0
     55709 WT18     832      MECN     H12      HGA3     0.090000        1.0080           0
     55710 WT18     832      MECN     H13      HGA3     0.090000        1.0080           0
     55711 WT18     832      MECN     C2       CG1N1    0.360000       12.0110           0
     55712 WT18     832      MECN     N3       NG1T1   -0.460000       14.0070           0
     55713 WT18     835      MECN     C1       CG331   -0.170000       12.0110           0
     55714 WT18     835      MECN     H11      HGA3     0.090000        1.0080           0
     55715 WT18     835      MECN     H12      HGA3     0.090000        1.0080           0
     55716 WT18     835      MECN     H13      HGA3     0.090000        1.0080           0
     55717 WT18     835      MECN     C2       CG1N1    0.360000       12.0110           0
     55718 WT18     835      MECN     N3       NG1T1   -0.460000       14.0070           0
     55719 WT18     836      MECN     C1       CG331   -0.170000       12.0110           0
     55720 WT18     836      MECN     H11      HGA3     0.090000        1.0080           0
     55721 WT18     836      MECN     H12      HGA3     0.090000        1.0080           0
     55722 WT18     836      MECN     H13      HGA3     0.090000        1.0080           0
     55723 WT18     836      MECN     C2       CG1N1    0.360000       12.0110           0
     55724 WT18     836      MECN     N3       NG1T1   -0.460000       14.0070           0
     55725 WT18     837      MECN     C1       CG331   -0.170000       12.0110           0
     55726 WT18     837      MECN     H11      HGA3     0.090000        1.0080           0
     55727 WT18     837      MECN     H12      HGA3     0.090000        1.0080           0
     55728 WT18     837      MECN     H13      HGA3     0.090000        1.0080           0
     55729 WT18     837      MECN     C2       CG1N1    0.360000       12.0110           0
     55730 WT18     837      MECN     N3       NG1T1   -0.460000       14.0070           0
     55731 WT18     839      MECN     C1       CG331   -0.170000       12.0110           0
     55732 WT18     839      MECN     H11      HGA3     0.090000        1.0080           0
     55733 WT18     839      MECN     H12      HGA3     0.090000        1.0080           0
     55734 WT18     839      MECN     H13      HGA3     0.090000        1.0080           0
     55735 WT18     839      MECN     C2       CG1N1    0.360000       12.0110           0
     55736 WT18     839      MECN     N3       NG1T1   -0.460000       14.0070           0
     55737 WT18     843      MECN     C1       CG331   -0.170000       12.0110           0
     55738 WT18     843      MECN     H11      HGA3     0.090000        1.0080           0
     55739 WT18     843      MECN     H12      HGA3     0.090000        1.0080           0
     55740 WT18     843      MECN     H13      HGA3     0.090000        1.0080           0
     55741 WT18     843      MECN     C2       CG1N1    0.360000       12.0110           0
     55742 WT18     843      MECN     N3       NG1T1   -0.460000       14.0070           0
     55743 WT18     844      MECN     C1       CG331   -0.170000       12.0110           0
     55744 WT18     844      MECN     H11      HGA3     0.090000        1.0080           0
     55745 WT18     844      MECN     H12      HGA3     0.090000        1.0080           0
     55746 WT18     844      MECN     H13      HGA3     0.090000        1.0080           0
     55747 WT18     844      MECN     C2       CG1N1    0.360000       12.0110           0
     55748 WT18     844      MECN     N3       NG1T1   -0.460000       14.0070           0
     55749 WT18     845      MECN     C1       CG331   -0.170000       12.0110           0
     55750 WT18     845      MECN     H11      HGA3     0.090000        1.0080           0
     55751 WT18     845      MECN     H12      HGA3     0.090000        1.0080           0
     55752 WT18     845      MECN     H13      HGA3     0.090000        1.0080           0
     55753 WT18     845      MECN     C2       CG1N1    0.360000       12.0110           0
     55754 WT18     845      MECN     N3       NG1T1   -0.460000       14.0070           0
     55755 WT18     847      MECN     C1       CG331   -0.170000       12.0110           0
     55756 WT18     847      MECN     H11      HGA3     0.090000        1.0080           0
     55757 WT18     847      MECN     H12      HGA3     0.090000        1.0080           0
     55758 WT18     847      MECN     H13      HGA3     0.090000        1.0080           0
     55759 WT18     847      MECN     C2       CG1N1    0.360000       12.0110           0
     55760 WT18     847      MECN     N3       NG1T1   -0.460000       14.0070           0
     55761 WT18     848      MECN     C1       CG331   -0.170000       12.0110           0
     55762 WT18     848      MECN     H11      HGA3     0.090000        1.0080           0
     55763 WT18     848      MECN     H12      HGA3     0.090000        1.0080           0
     55764 WT18     848      MECN     H13      HGA3     0.090000        1.0080           0
     55765 WT18     848      MECN     C2       CG1N1    0.360000       12.0110           0
     55766 WT18     848      MECN     N3       NG1T1   -0.460000       14.0070           0
     55767 WT18     850      MECN     C1       CG331   -0.170000       12.0110           0
     55768 WT18     850      MECN     H11      HGA3     0.090000        1.0080           0
     55769 WT18     850      MECN     H12      HGA3     0.090000        1.0080           0
     55770 WT18     850      MECN     H13      HGA3     0.090000        1.0080           0
     55771 WT18     850      MECN     C2       CG1N1    0.360000       12.0110           0
     55772 WT18     850      MECN     N3       NG1T1   -0.460000       14.0070           0
     55773 WT18     851      MECN     C1       CG331   -0.170000       12.0110           0
     55774 WT18     851      MECN     H11      HGA3     0.090000        1.0080           0
     55775 WT18     851      MECN     H12      HGA3     0.090000        1.0080           0
     55776 WT18     851      MECN     H13      HGA3     0.090000        1.0080           0
     55777 WT18     851      MECN     C2       CG1N1    0.360000       12.0110           0
     55778 WT18     851      MECN     N3       NG1T1   -0.460000       14.0070           0
     55779 WT18     852      MECN     C1       CG331   -0.170000       12.0110           0
     55780 WT18     852      MECN     H11      HGA3     0.090000        1.0080           0
     55781 WT18     852      MECN     H12      HGA3     0.090000        1.0080           0
     55782 WT18     852      MECN     H13      HGA3     0.090000        1.0080           0
     55783 WT18     852      MECN     C2       CG1N1    0.360000       12.0110           0
     55784 WT18     852      MECN     N3       NG1T1   -0.460000       14.0070           0
     55785 WT18     853      MECN     C1       CG331   -0.170000       12.0110           0
     55786 WT18     853      MECN     H11      HGA3     0.090000        1.0080           0
     55787 WT18     853      MECN     H12      HGA3     0.090000        1.0080           0
     55788 WT18     853      MECN     H13      HGA3     0.090000        1.0080           0
     55789 WT18     853      MECN     C2       CG1N1    0.360000       12.0110           0
     55790 WT18     853      MECN     N3       NG1T1   -0.460000       14.0070           0
     55791 WT18     854      MECN     C1       CG331   -0.170000       12.0110           0
     55792 WT18     854      MECN     H11      HGA3     0.090000        1.0080           0
     55793 WT18     854      MECN     H12      HGA3     0.090000        1.0080           0
     55794 WT18     854      MECN     H13      HGA3     0.090000        1.0080           0
     55795 WT18     854      MECN     C2       CG1N1    0.360000       12.0110           0
     55796 WT18     854      MECN     N3       NG1T1   -0.460000       14.0070           0
     55797 WT18     855      MECN     C1       CG331   -0.170000       12.0110           0
     55798 WT18     855      MECN     H11      HGA3     0.090000        1.0080           0
     55799 WT18     855      MECN     H12      HGA3     0.090000        1.0080           0
     55800 WT18     855      MECN     H13      HGA3     0.090000        1.0080           0
     55801 WT18     855      MECN     C2       CG1N1    0.360000       12.0110           0
     55802 WT18     855      MECN     N3       NG1T1   -0.460000       14.0070           0
     55803 WT18     856      MECN     C1       CG331   -0.170000       12.0110           0
     55804 WT18     856      MECN     H11      HGA3     0.090000        1.0080           0
     55805 WT18     856      MECN     H12      HGA3     0.090000        1.0080           0
     55806 WT18     856      MECN     H13      HGA3     0.090000        1.0080           0
     55807 WT18     856      MECN     C2       CG1N1    0.360000       12.0110           0
     55808 WT18     856      MECN     N3       NG1T1   -0.460000       14.0070           0
     55809 WT18     857      MECN     C1       CG331   -0.170000       12.0110           0
     55810 WT18     857      MECN     H11      HGA3     0.090000        1.0080           0
     55811 WT18     857      MECN     H12      HGA3     0.090000        1.0080           0
     55812 WT18     857      MECN     H13      HGA3     0.090000        1.0080           0
     55813 WT18     857      MECN     C2       CG1N1    0.360000       12.0110           0
     55814 WT18     857      MECN     N3       NG1T1   -0.460000       14.0070           0
     55815 WT18     858      MECN     C1       CG331   -0.170000       12.0110           0
     55816 WT18     858      MECN     H11      HGA3     0.090000        1.0080           0
     55817 WT18     858      MECN     H12      HGA3     0.090000        1.0080           0
     55818 WT18     858      MECN     H13      HGA3     0.090000        1.0080           0
     55819 WT18     858      MECN     C2       CG1N1    0.360000       12.0110           0
     55820 WT18     858      MECN     N3       NG1T1   -0.460000       14.0070           0
     55821 WT18     861      MECN     C1       CG331   -0.170000       12.0110           0
     55822 WT18     861      MECN     H11      HGA3     0.090000        1.0080           0
     55823 WT18     861      MECN     H12      HGA3     0.090000        1.0080           0
     55824 WT18     861      MECN     H13      HGA3     0.090000        1.0080           0
     55825 WT18     861      MECN     C2       CG1N1    0.360000       12.0110           0
     55826 WT18     861      MECN     N3       NG1T1   -0.460000       14.0070           0
     55827 WT18     862      MECN     C1       CG331   -0.170000       12.0110           0
     55828 WT18     862      MECN     H11      HGA3     0.090000        1.0080           0
     55829 WT18     862      MECN     H12      HGA3     0.090000        1.0080           0
     55830 WT18     862      MECN     H13      HGA3     0.090000        1.0080           0
     55831 WT18     862      MECN     C2       CG1N1    0.360000       12.0110           0
     55832 WT18     862      MECN     N3       NG1T1   -0.460000       14.0070           0
     55833 WT18     865      MECN     C1       CG331   -0.170000       12.0110           0
     55834 WT18     865      MECN     H11      HGA3     0.090000        1.0080           0
     55835 WT18     865      MECN     H12      HGA3     0.090000        1.0080           0
     55836 WT18     865      MECN     H13      HGA3     0.090000        1.0080           0
     55837 WT18     865      MECN     C2       CG1N1    0.360000       12.0110           0
     55838 WT18     865      MECN     N3       NG1T1   -0.460000       14.0070           0
     55839 WT18     869      MECN     C1       CG331   -0.170000       12.0110           0
     55840 WT18     869      MECN     H11      HGA3     0.090000        1.0080           0
     55841 WT18     869      MECN     H12      HGA3     0.090000        1.0080           0
     55842 WT18     869      MECN     H13      HGA3     0.090000        1.0080           0
     55843 WT18     869      MECN     C2       CG1N1    0.360000       12.0110           0
     55844 WT18     869      MECN     N3       NG1T1   -0.460000       14.0070           0
     55845 WT18     870      MECN     C1       CG331   -0.170000       12.0110           0
     55846 WT18     870      MECN     H11      HGA3     0.090000        1.0080           0
     55847 WT18     870      MECN     H12      HGA3     0.090000        1.0080           0
     55848 WT18     870      MECN     H13      HGA3     0.090000        1.0080           0
     55849 WT18     870      MECN     C2       CG1N1    0.360000       12.0110           0
     55850 WT18     870      MECN     N3       NG1T1   -0.460000       14.0070           0
     55851 WT18     872      MECN     C1       CG331   -0.170000       12.0110           0
     55852 WT18     872      MECN     H11      HGA3     0.090000        1.0080           0
     55853 WT18     872      MECN     H12      HGA3     0.090000        1.0080           0
     55854 WT18     872      MECN     H13      HGA3     0.090000        1.0080           0
     55855 WT18     872      MECN     C2       CG1N1    0.360000       12.0110           0
     55856 WT18     872      MECN     N3       NG1T1   -0.460000       14.0070           0
     55857 WT18     873      MECN     C1       CG331   -0.170000       12.0110           0
     55858 WT18     873      MECN     H11      HGA3     0.090000        1.0080           0
     55859 WT18     873      MECN     H12      HGA3     0.090000        1.0080           0
     55860 WT18     873      MECN     H13      HGA3     0.090000        1.0080           0
     55861 WT18     873      MECN     C2       CG1N1    0.360000       12.0110           0
     55862 WT18     873      MECN     N3       NG1T1   -0.460000       14.0070           0
     55863 WT18     874      MECN     C1       CG331   -0.170000       12.0110           0
     55864 WT18     874      MECN     H11      HGA3     0.090000        1.0080           0
     55865 WT18     874      MECN     H12      HGA3     0.090000        1.0080           0
     55866 WT18     874      MECN     H13      HGA3     0.090000        1.0080           0
     55867 WT18     874      MECN     C2       CG1N1    0.360000       12.0110           0
     55868 WT18     874      MECN     N3       NG1T1   -0.460000       14.0070           0
     55869 WT18     876      MECN     C1       CG331   -0.170000       12.0110           0
     55870 WT18     876      MECN     H11      HGA3     0.090000        1.0080           0
     55871 WT18     876      MECN     H12      HGA3     0.090000        1.0080           0
     55872 WT18     876      MECN     H13      HGA3     0.090000        1.0080           0
     55873 WT18     876      MECN     C2       CG1N1    0.360000       12.0110           0
     55874 WT18     876      MECN     N3       NG1T1   -0.460000       14.0070           0
     55875 WT18     877      MECN     C1       CG331   -0.170000       12.0110           0
     55876 WT18     877      MECN     H11      HGA3     0.090000        1.0080           0
     55877 WT18     877      MECN     H12      HGA3     0.090000        1.0080           0
     55878 WT18     877      MECN     H13      HGA3     0.090000        1.0080           0
     55879 WT18     877      MECN     C2       CG1N1    0.360000       12.0110           0
     55880 WT18     877      MECN     N3       NG1T1   -0.460000       14.0070           0
     55881 WT18     878      MECN     C1       CG331   -0.170000       12.0110           0
     55882 WT18     878      MECN     H11      HGA3     0.090000        1.0080           0
     55883 WT18     878      MECN     H12      HGA3     0.090000        1.0080           0
     55884 WT18     878      MECN     H13      HGA3     0.090000        1.0080           0
     55885 WT18     878      MECN     C2       CG1N1    0.360000       12.0110           0
     55886 WT18     878      MECN     N3       NG1T1   -0.460000       14.0070           0
     55887 WT18     881      MECN     C1       CG331   -0.170000       12.0110           0
     55888 WT18     881      MECN     H11      HGA3     0.090000        1.0080           0
     55889 WT18     881      MECN     H12      HGA3     0.090000        1.0080           0
     55890 WT18     881      MECN     H13      HGA3     0.090000        1.0080           0
     55891 WT18     881      MECN     C2       CG1N1    0.360000       12.0110           0
     55892 WT18     881      MECN     N3       NG1T1   -0.460000       14.0070           0
     55893 WT18     884      MECN     C1       CG331   -0.170000       12.0110           0
     55894 WT18     884      MECN     H11      HGA3     0.090000        1.0080           0
     55895 WT18     884      MECN     H12      HGA3     0.090000        1.0080           0
     55896 WT18     884      MECN     H13      HGA3     0.090000        1.0080           0
     55897 WT18     884      MECN     C2       CG1N1    0.360000       12.0110           0
     55898 WT18     884      MECN     N3       NG1T1   -0.460000       14.0070           0
     55899 WT18     885      MECN     C1       CG331   -0.170000       12.0110           0
     55900 WT18     885      MECN     H11      HGA3     0.090000        1.0080           0
     55901 WT18     885      MECN     H12      HGA3     0.090000        1.0080           0
     55902 WT18     885      MECN     H13      HGA3     0.090000        1.0080           0
     55903 WT18     885      MECN     C2       CG1N1    0.360000       12.0110           0
     55904 WT18     885      MECN     N3       NG1T1   -0.460000       14.0070           0
     55905 WT18     886      MECN     C1       CG331   -0.170000       12.0110           0
     55906 WT18     886      MECN     H11      HGA3     0.090000        1.0080           0
     55907 WT18     886      MECN     H12      HGA3     0.090000        1.0080           0
     55908 WT18     886      MECN     H13      HGA3     0.090000        1.0080           0
     55909 WT18     886      MECN     C2       CG1N1    0.360000       12.0110           0
     55910 WT18     886      MECN     N3       NG1T1   -0.460000       14.0070           0
     55911 WT18     901      MECN     C1       CG331   -0.170000       12.0110           0
     55912 WT18     901      MECN     H11      HGA3     0.090000        1.0080           0
     55913 WT18     901      MECN     H12      HGA3     0.090000        1.0080           0
     55914 WT18     901      MECN     H13      HGA3     0.090000        1.0080           0
     55915 WT18     901      MECN     C2       CG1N1    0.360000       12.0110           0
     55916 WT18     901      MECN     N3       NG1T1   -0.460000       14.0070           0
     55917 WT18     902      MECN     C1       CG331   -0.170000       12.0110           0
     55918 WT18     902      MECN     H11      HGA3     0.090000        1.0080           0
     55919 WT18     902      MECN     H12      HGA3     0.090000        1.0080           0
     55920 WT18     902      MECN     H13      HGA3     0.090000        1.0080           0
     55921 WT18     902      MECN     C2       CG1N1    0.360000       12.0110           0
     55922 WT18     902      MECN     N3       NG1T1   -0.460000       14.0070           0
     55923 WT18     903      MECN     C1       CG331   -0.170000       12.0110           0
     55924 WT18     903      MECN     H11      HGA3     0.090000        1.0080           0
     55925 WT18     903      MECN     H12      HGA3     0.090000        1.0080           0
     55926 WT18     903      MECN     H13      HGA3     0.090000        1.0080           0
     55927 WT18     903      MECN     C2       CG1N1    0.360000       12.0110           0
     55928 WT18     903      MECN     N3       NG1T1   -0.460000       14.0070           0
     55929 WT18     911      MECN     C1       CG331   -0.170000       12.0110           0
     55930 WT18     911      MECN     H11      HGA3     0.090000        1.0080           0
     55931 WT18     911      MECN     H12      HGA3     0.090000        1.0080           0
     55932 WT18     911      MECN     H13      HGA3     0.090000        1.0080           0
     55933 WT18     911      MECN     C2       CG1N1    0.360000       12.0110           0
     55934 WT18     911      MECN     N3       NG1T1   -0.460000       14.0070           0
     55935 WT18     912      MECN     C1       CG331   -0.170000       12.0110           0
     55936 WT18     912      MECN     H11      HGA3     0.090000        1.0080           0
     55937 WT18     912      MECN     H12      HGA3     0.090000        1.0080           0
     55938 WT18     912      MECN     H13      HGA3     0.090000        1.0080           0
     55939 WT18     912      MECN     C2       CG1N1    0.360000       12.0110           0
     55940 WT18     912      MECN     N3       NG1T1   -0.460000       14.0070           0
     55941 WT18     913      MECN     C1       CG331   -0.170000       12.0110           0
     55942 WT18     913      MECN     H11      HGA3     0.090000        1.0080           0
     55943 WT18     913      MECN     H12      HGA3     0.090000        1.0080           0
     55944 WT18     913      MECN     H13      HGA3     0.090000        1.0080           0
     55945 WT18     913      MECN     C2       CG1N1    0.360000       12.0110           0
     55946 WT18     913      MECN     N3       NG1T1   -0.460000       14.0070           0
     55947 WT18     917      MECN     C1       CG331   -0.170000       12.0110           0
     55948 WT18     917      MECN     H11      HGA3     0.090000        1.0080           0
     55949 WT18     917      MECN     H12      HGA3     0.090000        1.0080           0
     55950 WT18     917      MECN     H13      HGA3     0.090000        1.0080           0
     55951 WT18     917      MECN     C2       CG1N1    0.360000       12.0110           0
     55952 WT18     917      MECN     N3       NG1T1   -0.460000       14.0070           0
     55953 WT18     921      MECN     C1       CG331   -0.170000       12.0110           0
     55954 WT18     921      MECN     H11      HGA3     0.090000        1.0080           0
     55955 WT18     921      MECN     H12      HGA3     0.090000        1.0080           0
     55956 WT18     921      MECN     H13      HGA3     0.090000        1.0080           0
     55957 WT18     921      MECN     C2       CG1N1    0.360000       12.0110           0
     55958 WT18     921      MECN     N3       NG1T1   -0.460000       14.0070           0
     55959 WT18     923      MECN     C1       CG331   -0.170000       12.0110           0
     55960 WT18     923      MECN     H11      HGA3     0.090000        1.0080           0
     55961 WT18     923      MECN     H12      HGA3     0.090000        1.0080           0
     55962 WT18     923      MECN     H13      HGA3     0.090000        1.0080           0
     55963 WT18     923      MECN     C2       CG1N1    0.360000       12.0110           0
     55964 WT18     923      MECN     N3       NG1T1   -0.460000       14.0070           0
     55965 WT18     927      MECN     C1       CG331   -0.170000       12.0110           0
     55966 WT18     927      MECN     H11      HGA3     0.090000        1.0080           0
     55967 WT18     927      MECN     H12      HGA3     0.090000        1.0080           0
     55968 WT18     927      MECN     H13      HGA3     0.090000        1.0080           0
     55969 WT18     927      MECN     C2       CG1N1    0.360000       12.0110           0
     55970 WT18     927      MECN     N3       NG1T1   -0.460000       14.0070           0
     55971 WT18     928      MECN     C1       CG331   -0.170000       12.0110           0
     55972 WT18     928      MECN     H11      HGA3     0.090000        1.0080           0
     55973 WT18     928      MECN     H12      HGA3     0.090000        1.0080           0
     55974 WT18     928      MECN     H13      HGA3     0.090000        1.0080           0
     55975 WT18     928      MECN     C2       CG1N1    0.360000       12.0110           0
     55976 WT18     928      MECN     N3       NG1T1   -0.460000       14.0070           0
     55977 WT18     929      MECN     C1       CG331   -0.170000       12.0110           0
     55978 WT18     929      MECN     H11      HGA3     0.090000        1.0080           0
     55979 WT18     929      MECN     H12      HGA3     0.090000        1.0080           0
     55980 WT18     929      MECN     H13      HGA3     0.090000        1.0080           0
     55981 WT18     929      MECN     C2       CG1N1    0.360000       12.0110           0
     55982 WT18     929      MECN     N3       NG1T1   -0.460000       14.0070           0
     55983 WT18     930      MECN     C1       CG331   -0.170000       12.0110           0
     55984 WT18     930      MECN     H11      HGA3     0.090000        1.0080           0
     55985 WT18     930      MECN     H12      HGA3     0.090000        1.0080           0
     55986 WT18     930      MECN     H13      HGA3     0.090000        1.0080           0
     55987 WT18     930      MECN     C2       CG1N1    0.360000       12.0110           0
     55988 WT18     930      MECN     N3       NG1T1   -0.460000       14.0070           0
     55989 WT18     931      MECN     C1       CG331   -0.170000       12.0110           0
     55990 WT18     931      MECN     H11      HGA3     0.090000        1.0080           0
     55991 WT18     931      MECN     H12      HGA3     0.090000        1.0080           0
     55992 WT18     931      MECN     H13      HGA3     0.090000        1.0080           0
     55993 WT18     931      MECN     C2       CG1N1    0.360000       12.0110           0
     55994 WT18     931      MECN     N3       NG1T1   -0.460000       14.0070           0
     55995 WT18     932      MECN     C1       CG331   -0.170000       12.0110           0
     55996 WT18     932      MECN     H11      HGA3     0.090000        1.0080           0
     55997 WT18     932      MECN     H12      HGA3     0.090000        1.0080           0
     55998 WT18     932      MECN     H13      HGA3     0.090000        1.0080           0
     55999 WT18     932      MECN     C2       CG1N1    0.360000       12.0110           0
     56000 WT18     932      MECN     N3       NG1T1   -0.460000       14.0070           0
     56001 WT18     936      MECN     C1       CG331   -0.170000       12.0110           0
     56002 WT18     936      MECN     H11      HGA3     0.090000        1.0080           0
     56003 WT18     936      MECN     H12      HGA3     0.090000        1.0080           0
     56004 WT18     936      MECN     H13      HGA3     0.090000        1.0080           0
     56005 WT18     936      MECN     C2       CG1N1    0.360000       12.0110           0
     56006 WT18     936      MECN     N3       NG1T1   -0.460000       14.0070           0
     56007 WT18     937      MECN     C1       CG331   -0.170000       12.0110           0
     56008 WT18     937      MECN     H11      HGA3     0.090000        1.0080           0
     56009 WT18     937      MECN     H12      HGA3     0.090000        1.0080           0
     56010 WT18     937      MECN     H13      HGA3     0.090000        1.0080           0
     56011 WT18     937      MECN     C2       CG1N1    0.360000       12.0110           0
     56012 WT18     937      MECN     N3       NG1T1   -0.460000       14.0070           0
     56013 WT18     938      MECN     C1       CG331   -0.170000       12.0110           0
     56014 WT18     938      MECN     H11      HGA3     0.090000        1.0080           0
     56015 WT18     938      MECN     H12      HGA3     0.090000        1.0080           0
     56016 WT18     938      MECN     H13      HGA3     0.090000        1.0080           0
     56017 WT18     938      MECN     C2       CG1N1    0.360000       12.0110           0
     56018 WT18     938      MECN     N3       NG1T1   -0.460000       14.0070           0
     56019 WT18     940      MECN     C1       CG331   -0.170000       12.0110           0
     56020 WT18     940      MECN     H11      HGA3     0.090000        1.0080           0
     56021 WT18     940      MECN     H12      HGA3     0.090000        1.0080           0
     56022 WT18     940      MECN     H13      HGA3     0.090000        1.0080           0
     56023 WT18     940      MECN     C2       CG1N1    0.360000       12.0110           0
     56024 WT18     940      MECN     N3       NG1T1   -0.460000       14.0070           0
     56025 WT18     942      MECN     C1       CG331   -0.170000       12.0110           0
     56026 WT18     942      MECN     H11      HGA3     0.090000        1.0080           0
     56027 WT18     942      MECN     H12      HGA3     0.090000        1.0080           0
     56028 WT18     942      MECN     H13      HGA3     0.090000        1.0080           0
     56029 WT18     942      MECN     C2       CG1N1    0.360000       12.0110           0
     56030 WT18     942      MECN     N3       NG1T1   -0.460000       14.0070           0
     56031 WT18     943      MECN     C1       CG331   -0.170000       12.0110           0
     56032 WT18     943      MECN     H11      HGA3     0.090000        1.0080           0
     56033 WT18     943      MECN     H12      HGA3     0.090000        1.0080           0
     56034 WT18     943      MECN     H13      HGA3     0.090000        1.0080           0
     56035 WT18     943      MECN     C2       CG1N1    0.360000       12.0110           0
     56036 WT18     943      MECN     N3       NG1T1   -0.460000       14.0070           0
     56037 WT18     944      MECN     C1       CG331   -0.170000       12.0110           0
     56038 WT18     944      MECN     H11      HGA3     0.090000        1.0080           0
     56039 WT18     944      MECN     H12      HGA3     0.090000        1.0080           0
     56040 WT18     944      MECN     H13      HGA3     0.090000        1.0080           0
     56041 WT18     944      MECN     C2       CG1N1    0.360000       12.0110           0
     56042 WT18     944      MECN     N3       NG1T1   -0.460000       14.0070           0
     56043 WT18     945      MECN     C1       CG331   -0.170000       12.0110           0
     56044 WT18     945      MECN     H11      HGA3     0.090000        1.0080           0
     56045 WT18     945      MECN     H12      HGA3     0.090000        1.0080           0
     56046 WT18     945      MECN     H13      HGA3     0.090000        1.0080           0
     56047 WT18     945      MECN     C2       CG1N1    0.360000       12.0110           0
     56048 WT18     945      MECN     N3       NG1T1   -0.460000       14.0070           0
     56049 WT18     946      MECN     C1       CG331   -0.170000       12.0110           0
     56050 WT18     946      MECN     H11      HGA3     0.090000        1.0080           0
     56051 WT18     946      MECN     H12      HGA3     0.090000        1.0080           0
     56052 WT18     946      MECN     H13      HGA3     0.090000        1.0080           0
     56053 WT18     946      MECN     C2       CG1N1    0.360000       12.0110           0
     56054 WT18     946      MECN     N3       NG1T1   -0.460000       14.0070           0
     56055 WT18     947      MECN     C1       CG331   -0.170000       12.0110           0
     56056 WT18     947      MECN     H11      HGA3     0.090000        1.0080           0
     56057 WT18     947      MECN     H12      HGA3     0.090000        1.0080           0
     56058 WT18     947      MECN     H13      HGA3     0.090000        1.0080           0
     56059 WT18     947      MECN     C2       CG1N1    0.360000       12.0110           0
     56060 WT18     947      MECN     N3       NG1T1   -0.460000       14.0070           0
     56061 WT18     948      MECN     C1       CG331   -0.170000       12.0110           0
     56062 WT18     948      MECN     H11      HGA3     0.090000        1.0080           0
     56063 WT18     948      MECN     H12      HGA3     0.090000        1.0080           0
     56064 WT18     948      MECN     H13      HGA3     0.090000        1.0080           0
     56065 WT18     948      MECN     C2       CG1N1    0.360000       12.0110           0
     56066 WT18     948      MECN     N3       NG1T1   -0.460000       14.0070           0
     56067 WT18     949      MECN     C1       CG331   -0.170000       12.0110           0
     56068 WT18     949      MECN     H11      HGA3     0.090000        1.0080           0
     56069 WT18     949      MECN     H12      HGA3     0.090000        1.0080           0
     56070 WT18     949      MECN     H13      HGA3     0.090000        1.0080           0
     56071 WT18     949      MECN     C2       CG1N1    0.360000       12.0110           0
     56072 WT18     949      MECN     N3       NG1T1   -0.460000       14.0070           0
     56073 WT18     950      MECN     C1       CG331   -0.170000       12.0110           0
     56074 WT18     950      MECN     H11      HGA3     0.090000        1.0080           0
     56075 WT18     950      MECN     H12      HGA3     0.090000        1.0080           0
     56076 WT18     950      MECN     H13      HGA3     0.090000        1.0080           0
     56077 WT18     950      MECN     C2       CG1N1    0.360000       12.0110           0
     56078 WT18     950      MECN     N3       NG1T1   -0.460000       14.0070           0
     56079 WT18     952      MECN     C1       CG331   -0.170000       12.0110           0
     56080 WT18     952      MECN     H11      HGA3     0.090000        1.0080           0
     56081 WT18     952      MECN     H12      HGA3     0.090000        1.0080           0
     56082 WT18     952      MECN     H13      HGA3     0.090000        1.0080           0
     56083 WT18     952      MECN     C2       CG1N1    0.360000       12.0110           0
     56084 WT18     952      MECN     N3       NG1T1   -0.460000       14.0070           0
     56085 WT18     953      MECN     C1       CG331   -0.170000       12.0110           0
     56086 WT18     953      MECN     H11      HGA3     0.090000        1.0080           0
     56087 WT18     953      MECN     H12      HGA3     0.090000        1.0080           0
     56088 WT18     953      MECN     H13      HGA3     0.090000        1.0080           0
     56089 WT18     953      MECN     C2       CG1N1    0.360000       12.0110           0
     56090 WT18     953      MECN     N3       NG1T1   -0.460000       14.0070           0
     56091 WT18     954      MECN     C1       CG331   -0.170000       12.0110           0
     56092 WT18     954      MECN     H11      HGA3     0.090000        1.0080           0
     56093 WT18     954      MECN     H12      HGA3     0.090000        1.0080           0
     56094 WT18     954      MECN     H13      HGA3     0.090000        1.0080           0
     56095 WT18     954      MECN     C2       CG1N1    0.360000       12.0110           0
     56096 WT18     954      MECN     N3       NG1T1   -0.460000       14.0070           0
     56097 WT18     955      MECN     C1       CG331   -0.170000       12.0110           0
     56098 WT18     955      MECN     H11      HGA3     0.090000        1.0080           0
     56099 WT18     955      MECN     H12      HGA3     0.090000        1.0080           0
     56100 WT18     955      MECN     H13      HGA3     0.090000        1.0080           0
     56101 WT18     955      MECN     C2       CG1N1    0.360000       12.0110           0
     56102 WT18     955      MECN     N3       NG1T1   -0.460000       14.0070           0
     56103 WT18     957      MECN     C1       CG331   -0.170000       12.0110           0
     56104 WT18     957      MECN     H11      HGA3     0.090000        1.0080           0
     56105 WT18     957      MECN     H12      HGA3     0.090000        1.0080           0
     56106 WT18     957      MECN     H13      HGA3     0.090000        1.0080           0
     56107 WT18     957      MECN     C2       CG1N1    0.360000       12.0110           0
     56108 WT18     957      MECN     N3       NG1T1   -0.460000       14.0070           0
     56109 WT18     958      MECN     C1       CG331   -0.170000       12.0110           0
     56110 WT18     958      MECN     H11      HGA3     0.090000        1.0080           0
     56111 WT18     958      MECN     H12      HGA3     0.090000        1.0080           0
     56112 WT18     958      MECN     H13      HGA3     0.090000        1.0080           0
     56113 WT18     958      MECN     C2       CG1N1    0.360000       12.0110           0
     56114 WT18     958      MECN     N3       NG1T1   -0.460000       14.0070           0
     56115 WT18     960      MECN     C1       CG331   -0.170000       12.0110           0
     56116 WT18     960      MECN     H11      HGA3     0.090000        1.0080           0
     56117 WT18     960      MECN     H12      HGA3     0.090000        1.0080           0
     56118 WT18     960      MECN     H13      HGA3     0.090000        1.0080           0
     56119 WT18     960      MECN     C2       CG1N1    0.360000       12.0110           0
     56120 WT18     960      MECN     N3       NG1T1   -0.460000       14.0070           0
     56121 WT18     962      MECN     C1       CG331   -0.170000       12.0110           0
     56122 WT18     962      MECN     H11      HGA3     0.090000        1.0080           0
     56123 WT18     962      MECN     H12      HGA3     0.090000        1.0080           0
     56124 WT18     962      MECN     H13      HGA3     0.090000        1.0080           0
     56125 WT18     962      MECN     C2       CG1N1    0.360000       12.0110           0
     56126 WT18     962      MECN     N3       NG1T1   -0.460000       14.0070           0
     56127 WT18     964      MECN     C1       CG331   -0.170000       12.0110           0
     56128 WT18     964      MECN     H11      HGA3     0.090000        1.0080           0
     56129 WT18     964      MECN     H12      HGA3     0.090000        1.0080           0
     56130 WT18     964      MECN     H13      HGA3     0.090000        1.0080           0
     56131 WT18     964      MECN     C2       CG1N1    0.360000       12.0110           0
     56132 WT18     964      MECN     N3       NG1T1   -0.460000       14.0070           0
     56133 WT18     965      MECN     C1       CG331   -0.170000       12.0110           0
     56134 WT18     965      MECN     H11      HGA3     0.090000        1.0080           0
     56135 WT18     965      MECN     H12      HGA3     0.090000        1.0080           0
     56136 WT18     965      MECN     H13      HGA3     0.090000        1.0080           0
     56137 WT18     965      MECN     C2       CG1N1    0.360000       12.0110           0
     56138 WT18     965      MECN     N3       NG1T1   -0.460000       14.0070           0
     56139 WT18     966      MECN     C1       CG331   -0.170000       12.0110           0
     56140 WT18     966      MECN     H11      HGA3     0.090000        1.0080           0
     56141 WT18     966      MECN     H12      HGA3     0.090000        1.0080           0
     56142 WT18     966      MECN     H13      HGA3     0.090000        1.0080           0
     56143 WT18     966      MECN     C2       CG1N1    0.360000       12.0110           0
     56144 WT18     966      MECN     N3       NG1T1   -0.460000       14.0070           0
     56145 WT18     969      MECN     C1       CG331   -0.170000       12.0110           0
     56146 WT18     969      MECN     H11      HGA3     0.090000        1.0080           0
     56147 WT18     969      MECN     H12      HGA3     0.090000        1.0080           0
     56148 WT18     969      MECN     H13      HGA3     0.090000        1.0080           0
     56149 WT18     969      MECN     C2       CG1N1    0.360000       12.0110           0
     56150 WT18     969      MECN     N3       NG1T1   -0.460000       14.0070           0
     56151 WT18     970      MECN     C1       CG331   -0.170000       12.0110           0
     56152 WT18     970      MECN     H11      HGA3     0.090000        1.0080           0
     56153 WT18     970      MECN     H12      HGA3     0.090000        1.0080           0
     56154 WT18     970      MECN     H13      HGA3     0.090000        1.0080           0
     56155 WT18     970      MECN     C2       CG1N1    0.360000       12.0110           0
     56156 WT18     970      MECN     N3       NG1T1   -0.460000       14.0070           0
     56157 WT18     971      MECN     C1       CG331   -0.170000       12.0110           0
     56158 WT18     971      MECN     H11      HGA3     0.090000        1.0080           0
     56159 WT18     971      MECN     H12      HGA3     0.090000        1.0080           0
     56160 WT18     971      MECN     H13      HGA3     0.090000        1.0080           0
     56161 WT18     971      MECN     C2       CG1N1    0.360000       12.0110           0
     56162 WT18     971      MECN     N3       NG1T1   -0.460000       14.0070           0
     56163 WT18     972      MECN     C1       CG331   -0.170000       12.0110           0
     56164 WT18     972      MECN     H11      HGA3     0.090000        1.0080           0
     56165 WT18     972      MECN     H12      HGA3     0.090000        1.0080           0
     56166 WT18     972      MECN     H13      HGA3     0.090000        1.0080           0
     56167 WT18     972      MECN     C2       CG1N1    0.360000       12.0110           0
     56168 WT18     972      MECN     N3       NG1T1   -0.460000       14.0070           0
     56169 WT18     974      MECN     C1       CG331   -0.170000       12.0110           0
     56170 WT18     974      MECN     H11      HGA3     0.090000        1.0080           0
     56171 WT18     974      MECN     H12      HGA3     0.090000        1.0080           0
     56172 WT18     974      MECN     H13      HGA3     0.090000        1.0080           0
     56173 WT18     974      MECN     C2       CG1N1    0.360000       12.0110           0
     56174 WT18     974      MECN     N3       NG1T1   -0.460000       14.0070           0
     56175 WT18     975      MECN     C1       CG331   -0.170000       12.0110           0
     56176 WT18     975      MECN     H11      HGA3     0.090000        1.0080           0
     56177 WT18     975      MECN     H12      HGA3     0.090000        1.0080           0
     56178 WT18     975      MECN     H13      HGA3     0.090000        1.0080           0
     56179 WT18     975      MECN     C2       CG1N1    0.360000       12.0110           0
     56180 WT18     975      MECN     N3       NG1T1   -0.460000       14.0070           0
     56181 WT18     979      MECN     C1       CG331   -0.170000       12.0110           0
     56182 WT18     979      MECN     H11      HGA3     0.090000        1.0080           0
     56183 WT18     979      MECN     H12      HGA3     0.090000        1.0080           0
     56184 WT18     979      MECN     H13      HGA3     0.090000        1.0080           0
     56185 WT18     979      MECN     C2       CG1N1    0.360000       12.0110           0
     56186 WT18     979      MECN     N3       NG1T1   -0.460000       14.0070           0
     56187 WT18     980      MECN     C1       CG331   -0.170000       12.0110           0
     56188 WT18     980      MECN     H11      HGA3     0.090000        1.0080           0
     56189 WT18     980      MECN     H12      HGA3     0.090000        1.0080           0
     56190 WT18     980      MECN     H13      HGA3     0.090000        1.0080           0
     56191 WT18     980      MECN     C2       CG1N1    0.360000       12.0110           0
     56192 WT18     980      MECN     N3       NG1T1   -0.460000       14.0070           0
     56193 WT18     981      MECN     C1       CG331   -0.170000       12.0110           0
     56194 WT18     981      MECN     H11      HGA3     0.090000        1.0080           0
     56195 WT18     981      MECN     H12      HGA3     0.090000        1.0080           0
     56196 WT18     981      MECN     H13      HGA3     0.090000        1.0080           0
     56197 WT18     981      MECN     C2       CG1N1    0.360000       12.0110           0
     56198 WT18     981      MECN     N3       NG1T1   -0.460000       14.0070           0
     56199 WT18     984      MECN     C1       CG331   -0.170000       12.0110           0
     56200 WT18     984      MECN     H11      HGA3     0.090000        1.0080           0
     56201 WT18     984      MECN     H12      HGA3     0.090000        1.0080           0
     56202 WT18     984      MECN     H13      HGA3     0.090000        1.0080           0
     56203 WT18     984      MECN     C2       CG1N1    0.360000       12.0110           0
     56204 WT18     984      MECN     N3       NG1T1   -0.460000       14.0070           0
     56205 WT18     988      MECN     C1       CG331   -0.170000       12.0110           0
     56206 WT18     988      MECN     H11      HGA3     0.090000        1.0080           0
     56207 WT18     988      MECN     H12      HGA3     0.090000        1.0080           0
     56208 WT18     988      MECN     H13      HGA3     0.090000        1.0080           0
     56209 WT18     988      MECN     C2       CG1N1    0.360000       12.0110           0
     56210 WT18     988      MECN     N3       NG1T1   -0.460000       14.0070           0
     56211 WT18     993      MECN     C1       CG331   -0.170000       12.0110           0
     56212 WT18     993      MECN     H11      HGA3     0.090000        1.0080           0
     56213 WT18     993      MECN     H12      HGA3     0.090000        1.0080           0
     56214 WT18     993      MECN     H13      HGA3     0.090000        1.0080           0
     56215 WT18     993      MECN     C2       CG1N1    0.360000       12.0110           0
     56216 WT18     993      MECN     N3       NG1T1   -0.460000       14.0070           0
     56217 WT18     997      MECN     C1       CG331   -0.170000       12.0110           0
     56218 WT18     997      MECN     H11      HGA3     0.090000        1.0080           0
     56219 WT18     997      MECN     H12      HGA3     0.090000        1.0080           0
     56220 WT18     997      MECN     H13      HGA3     0.090000        1.0080           0
     56221 WT18     997      MECN     C2       CG1N1    0.360000       12.0110           0
     56222 WT18     997      MECN     N3       NG1T1   -0.460000       14.0070           0
     56223 WT18     998      MECN     C1       CG331   -0.170000       12.0110           0
     56224 WT18     998      MECN     H11      HGA3     0.090000        1.0080           0
     56225 WT18     998      MECN     H12      HGA3     0.090000        1.0080           0
     56226 WT18     998      MECN     H13      HGA3     0.090000        1.0080           0
     56227 WT18     998      MECN     C2       CG1N1    0.360000       12.0110           0
     56228 WT18     998      MECN     N3       NG1T1   -0.460000       14.0070           0
     56229 WT18     999      MECN     C1       CG331   -0.170000       12.0110           0
     56230 WT18     999      MECN     H11      HGA3     0.090000        1.0080           0
     56231 WT18     999      MECN     H12      HGA3     0.090000        1.0080           0
     56232 WT18     999      MECN     H13      HGA3     0.090000        1.0080           0
     56233 WT18     999      MECN     C2       CG1N1    0.360000       12.0110           0
     56234 WT18     999      MECN     N3       NG1T1   -0.460000       14.0070           0
     56235 WT18     1002     MECN     C1       CG331   -0.170000       12.0110           0
     56236 WT18     1002     MECN     H11      HGA3     0.090000        1.0080           0
     56237 WT18     1002     MECN     H12      HGA3     0.090000        1.0080           0
     56238 WT18     1002     MECN     H13      HGA3     0.090000        1.0080           0
     56239 WT18     1002     MECN     C2       CG1N1    0.360000       12.0110           0
     56240 WT18     1002     MECN     N3       NG1T1   -0.460000       14.0070           0
     56241 WT18     1004     MECN     C1       CG331   -0.170000       12.0110           0
     56242 WT18     1004     MECN     H11      HGA3     0.090000        1.0080           0
     56243 WT18     1004     MECN     H12      HGA3     0.090000        1.0080           0
     56244 WT18     1004     MECN     H13      HGA3     0.090000        1.0080           0
     56245 WT18     1004     MECN     C2       CG1N1    0.360000       12.0110           0
     56246 WT18     1004     MECN     N3       NG1T1   -0.460000       14.0070           0
     56247 WT18     1007     MECN     C1       CG331   -0.170000       12.0110           0
     56248 WT18     1007     MECN     H11      HGA3     0.090000        1.0080           0
     56249 WT18     1007     MECN     H12      HGA3     0.090000        1.0080           0
     56250 WT18     1007     MECN     H13      HGA3     0.090000        1.0080           0
     56251 WT18     1007     MECN     C2       CG1N1    0.360000       12.0110           0
     56252 WT18     1007     MECN     N3       NG1T1   -0.460000       14.0070           0
     56253 WT18     1009     MECN     C1       CG331   -0.170000       12.0110           0
     56254 WT18     1009     MECN     H11      HGA3     0.090000        1.0080           0
     56255 WT18     1009     MECN     H12      HGA3     0.090000        1.0080           0
     56256 WT18     1009     MECN     H13      HGA3     0.090000        1.0080           0
     56257 WT18     1009     MECN     C2       CG1N1    0.360000       12.0110           0
     56258 WT18     1009     MECN     N3       NG1T1   -0.460000       14.0070           0
     56259 WT18     1011     MECN     C1       CG331   -0.170000       12.0110           0
     56260 WT18     1011     MECN     H11      HGA3     0.090000        1.0080           0
     56261 WT18     1011     MECN     H12      HGA3     0.090000        1.0080           0
     56262 WT18     1011     MECN     H13      HGA3     0.090000        1.0080           0
     56263 WT18     1011     MECN     C2       CG1N1    0.360000       12.0110           0
     56264 WT18     1011     MECN     N3       NG1T1   -0.460000       14.0070           0
     56265 WT18     1013     MECN     C1       CG331   -0.170000       12.0110           0
     56266 WT18     1013     MECN     H11      HGA3     0.090000        1.0080           0
     56267 WT18     1013     MECN     H12      HGA3     0.090000        1.0080           0
     56268 WT18     1013     MECN     H13      HGA3     0.090000        1.0080           0
     56269 WT18     1013     MECN     C2       CG1N1    0.360000       12.0110           0
     56270 WT18     1013     MECN     N3       NG1T1   -0.460000       14.0070           0
     56271 WT18     1014     MECN     C1       CG331   -0.170000       12.0110           0
     56272 WT18     1014     MECN     H11      HGA3     0.090000        1.0080           0
     56273 WT18     1014     MECN     H12      HGA3     0.090000        1.0080           0
     56274 WT18     1014     MECN     H13      HGA3     0.090000        1.0080           0
     56275 WT18     1014     MECN     C2       CG1N1    0.360000       12.0110           0
     56276 WT18     1014     MECN     N3       NG1T1   -0.460000       14.0070           0
     56277 WT18     1015     MECN     C1       CG331   -0.170000       12.0110           0
     56278 WT18     1015     MECN     H11      HGA3     0.090000        1.0080           0
     56279 WT18     1015     MECN     H12      HGA3     0.090000        1.0080           0
     56280 WT18     1015     MECN     H13      HGA3     0.090000        1.0080           0
     56281 WT18     1015     MECN     C2       CG1N1    0.360000       12.0110           0
     56282 WT18     1015     MECN     N3       NG1T1   -0.460000       14.0070           0
     56283 WT18     1018     MECN     C1       CG331   -0.170000       12.0110           0
     56284 WT18     1018     MECN     H11      HGA3     0.090000        1.0080           0
     56285 WT18     1018     MECN     H12      HGA3     0.090000        1.0080           0
     56286 WT18     1018     MECN     H13      HGA3     0.090000        1.0080           0
     56287 WT18     1018     MECN     C2       CG1N1    0.360000       12.0110           0
     56288 WT18     1018     MECN     N3       NG1T1   -0.460000       14.0070           0
     56289 WT18     1022     MECN     C1       CG331   -0.170000       12.0110           0
     56290 WT18     1022     MECN     H11      HGA3     0.090000        1.0080           0
     56291 WT18     1022     MECN     H12      HGA3     0.090000        1.0080           0
     56292 WT18     1022     MECN     H13      HGA3     0.090000        1.0080           0
     56293 WT18     1022     MECN     C2       CG1N1    0.360000       12.0110           0
     56294 WT18     1022     MECN     N3       NG1T1   -0.460000       14.0070           0
     56295 WT18     1024     MECN     C1       CG331   -0.170000       12.0110           0
     56296 WT18     1024     MECN     H11      HGA3     0.090000        1.0080           0
     56297 WT18     1024     MECN     H12      HGA3     0.090000        1.0080           0
     56298 WT18     1024     MECN     H13      HGA3     0.090000        1.0080           0
     56299 WT18     1024     MECN     C2       CG1N1    0.360000       12.0110           0
     56300 WT18     1024     MECN     N3       NG1T1   -0.460000       14.0070           0
     56301 WT18     1026     MECN     C1       CG331   -0.170000       12.0110           0
     56302 WT18     1026     MECN     H11      HGA3     0.090000        1.0080           0
     56303 WT18     1026     MECN     H12      HGA3     0.090000        1.0080           0
     56304 WT18     1026     MECN     H13      HGA3     0.090000        1.0080           0
     56305 WT18     1026     MECN     C2       CG1N1    0.360000       12.0110           0
     56306 WT18     1026     MECN     N3       NG1T1   -0.460000       14.0070           0
     56307 WT18     1028     MECN     C1       CG331   -0.170000       12.0110           0
     56308 WT18     1028     MECN     H11      HGA3     0.090000        1.0080           0
     56309 WT18     1028     MECN     H12      HGA3     0.090000        1.0080           0
     56310 WT18     1028     MECN     H13      HGA3     0.090000        1.0080           0
     56311 WT18     1028     MECN     C2       CG1N1    0.360000       12.0110           0
     56312 WT18     1028     MECN     N3       NG1T1   -0.460000       14.0070           0
     56313 WT18     1031     MECN     C1       CG331   -0.170000       12.0110           0
     56314 WT18     1031     MECN     H11      HGA3     0.090000        1.0080           0
     56315 WT18     1031     MECN     H12      HGA3     0.090000        1.0080           0
     56316 WT18     1031     MECN     H13      HGA3     0.090000        1.0080           0
     56317 WT18     1031     MECN     C2       CG1N1    0.360000       12.0110           0
     56318 WT18     1031     MECN     N3       NG1T1   -0.460000       14.0070           0
     56319 WT18     1032     MECN     C1       CG331   -0.170000       12.0110           0
     56320 WT18     1032     MECN     H11      HGA3     0.090000        1.0080           0
     56321 WT18     1032     MECN     H12      HGA3     0.090000        1.0080           0
     56322 WT18     1032     MECN     H13      HGA3     0.090000        1.0080           0
     56323 WT18     1032     MECN     C2       CG1N1    0.360000       12.0110           0
     56324 WT18     1032     MECN     N3       NG1T1   -0.460000       14.0070           0
     56325 WT18     1035     MECN     C1       CG331   -0.170000       12.0110           0
     56326 WT18     1035     MECN     H11      HGA3     0.090000        1.0080           0
     56327 WT18     1035     MECN     H12      HGA3     0.090000        1.0080           0
     56328 WT18     1035     MECN     H13      HGA3     0.090000        1.0080           0
     56329 WT18     1035     MECN     C2       CG1N1    0.360000       12.0110           0
     56330 WT18     1035     MECN     N3       NG1T1   -0.460000       14.0070           0
     56331 WT18     1036     MECN     C1       CG331   -0.170000       12.0110           0
     56332 WT18     1036     MECN     H11      HGA3     0.090000        1.0080           0
     56333 WT18     1036     MECN     H12      HGA3     0.090000        1.0080           0
     56334 WT18     1036     MECN     H13      HGA3     0.090000        1.0080           0
     56335 WT18     1036     MECN     C2       CG1N1    0.360000       12.0110           0
     56336 WT18     1036     MECN     N3       NG1T1   -0.460000       14.0070           0
     56337 WT18     1037     MECN     C1       CG331   -0.170000       12.0110           0
     56338 WT18     1037     MECN     H11      HGA3     0.090000        1.0080           0
     56339 WT18     1037     MECN     H12      HGA3     0.090000        1.0080           0
     56340 WT18     1037     MECN     H13      HGA3     0.090000        1.0080           0
     56341 WT18     1037     MECN     C2       CG1N1    0.360000       12.0110           0
     56342 WT18     1037     MECN     N3       NG1T1   -0.460000       14.0070           0
     56343 WT18     1038     MECN     C1       CG331   -0.170000       12.0110           0
     56344 WT18     1038     MECN     H11      HGA3     0.090000        1.0080           0
     56345 WT18     1038     MECN     H12      HGA3     0.090000        1.0080           0
     56346 WT18     1038     MECN     H13      HGA3     0.090000        1.0080           0
     56347 WT18     1038     MECN     C2       CG1N1    0.360000       12.0110           0
     56348 WT18     1038     MECN     N3       NG1T1   -0.460000       14.0070           0
     56349 WT18     1041     MECN     C1       CG331   -0.170000       12.0110           0
     56350 WT18     1041     MECN     H11      HGA3     0.090000        1.0080           0
     56351 WT18     1041     MECN     H12      HGA3     0.090000        1.0080           0
     56352 WT18     1041     MECN     H13      HGA3     0.090000        1.0080           0
     56353 WT18     1041     MECN     C2       CG1N1    0.360000       12.0110           0
     56354 WT18     1041     MECN     N3       NG1T1   -0.460000       14.0070           0
     56355 WT18     1042     MECN     C1       CG331   -0.170000       12.0110           0
     56356 WT18     1042     MECN     H11      HGA3     0.090000        1.0080           0
     56357 WT18     1042     MECN     H12      HGA3     0.090000        1.0080           0
     56358 WT18     1042     MECN     H13      HGA3     0.090000        1.0080           0
     56359 WT18     1042     MECN     C2       CG1N1    0.360000       12.0110           0
     56360 WT18     1042     MECN     N3       NG1T1   -0.460000       14.0070           0
     56361 WT18     1044     MECN     C1       CG331   -0.170000       12.0110           0
     56362 WT18     1044     MECN     H11      HGA3     0.090000        1.0080           0
     56363 WT18     1044     MECN     H12      HGA3     0.090000        1.0080           0
     56364 WT18     1044     MECN     H13      HGA3     0.090000        1.0080           0
     56365 WT18     1044     MECN     C2       CG1N1    0.360000       12.0110           0
     56366 WT18     1044     MECN     N3       NG1T1   -0.460000       14.0070           0
     56367 WT18     1045     MECN     C1       CG331   -0.170000       12.0110           0
     56368 WT18     1045     MECN     H11      HGA3     0.090000        1.0080           0
     56369 WT18     1045     MECN     H12      HGA3     0.090000        1.0080           0
     56370 WT18     1045     MECN     H13      HGA3     0.090000        1.0080           0
     56371 WT18     1045     MECN     C2       CG1N1    0.360000       12.0110           0
     56372 WT18     1045     MECN     N3       NG1T1   -0.460000       14.0070           0
     56373 WT18     1046     MECN     C1       CG331   -0.170000       12.0110           0
     56374 WT18     1046     MECN     H11      HGA3     0.090000        1.0080           0
     56375 WT18     1046     MECN     H12      HGA3     0.090000        1.0080           0
     56376 WT18     1046     MECN     H13      HGA3     0.090000        1.0080           0
     56377 WT18     1046     MECN     C2       CG1N1    0.360000       12.0110           0
     56378 WT18     1046     MECN     N3       NG1T1   -0.460000       14.0070           0
     56379 WT18     1047     MECN     C1       CG331   -0.170000       12.0110           0
     56380 WT18     1047     MECN     H11      HGA3     0.090000        1.0080           0
     56381 WT18     1047     MECN     H12      HGA3     0.090000        1.0080           0
     56382 WT18     1047     MECN     H13      HGA3     0.090000        1.0080           0
     56383 WT18     1047     MECN     C2       CG1N1    0.360000       12.0110           0
     56384 WT18     1047     MECN     N3       NG1T1   -0.460000       14.0070           0
     56385 WT18     1049     MECN     C1       CG331   -0.170000       12.0110           0
     56386 WT18     1049     MECN     H11      HGA3     0.090000        1.0080           0
     56387 WT18     1049     MECN     H12      HGA3     0.090000        1.0080           0
     56388 WT18     1049     MECN     H13      HGA3     0.090000        1.0080           0
     56389 WT18     1049     MECN     C2       CG1N1    0.360000       12.0110           0
     56390 WT18     1049     MECN     N3       NG1T1   -0.460000       14.0070           0
     56391 WT18     1056     MECN     C1       CG331   -0.170000       12.0110           0
     56392 WT18     1056     MECN     H11      HGA3     0.090000        1.0080           0
     56393 WT18     1056     MECN     H12      HGA3     0.090000        1.0080           0
     56394 WT18     1056     MECN     H13      HGA3     0.090000        1.0080           0
     56395 WT18     1056     MECN     C2       CG1N1    0.360000       12.0110           0
     56396 WT18     1056     MECN     N3       NG1T1   -0.460000       14.0070           0
     56397 WT18     1059     MECN     C1       CG331   -0.170000       12.0110           0
     56398 WT18     1059     MECN     H11      HGA3     0.090000        1.0080           0
     56399 WT18     1059     MECN     H12      HGA3     0.090000        1.0080           0
     56400 WT18     1059     MECN     H13      HGA3     0.090000        1.0080           0
     56401 WT18     1059     MECN     C2       CG1N1    0.360000       12.0110           0
     56402 WT18     1059     MECN     N3       NG1T1   -0.460000       14.0070           0
     56403 WT18     1064     MECN     C1       CG331   -0.170000       12.0110           0
     56404 WT18     1064     MECN     H11      HGA3     0.090000        1.0080           0
     56405 WT18     1064     MECN     H12      HGA3     0.090000        1.0080           0
     56406 WT18     1064     MECN     H13      HGA3     0.090000        1.0080           0
     56407 WT18     1064     MECN     C2       CG1N1    0.360000       12.0110           0
     56408 WT18     1064     MECN     N3       NG1T1   -0.460000       14.0070           0
     56409 WT18     1065     MECN     C1       CG331   -0.170000       12.0110           0
     56410 WT18     1065     MECN     H11      HGA3     0.090000        1.0080           0
     56411 WT18     1065     MECN     H12      HGA3     0.090000        1.0080           0
     56412 WT18     1065     MECN     H13      HGA3     0.090000        1.0080           0
     56413 WT18     1065     MECN     C2       CG1N1    0.360000       12.0110           0
     56414 WT18     1065     MECN     N3       NG1T1   -0.460000       14.0070           0
     56415 WT18     1066     MECN     C1       CG331   -0.170000       12.0110           0
     56416 WT18     1066     MECN     H11      HGA3     0.090000        1.0080           0
     56417 WT18     1066     MECN     H12      HGA3     0.090000        1.0080           0
     56418 WT18     1066     MECN     H13      HGA3     0.090000        1.0080           0
     56419 WT18     1066     MECN     C2       CG1N1    0.360000       12.0110           0
     56420 WT18     1066     MECN     N3       NG1T1   -0.460000       14.0070           0
     56421 WT18     1067     MECN     C1       CG331   -0.170000       12.0110           0
     56422 WT18     1067     MECN     H11      HGA3     0.090000        1.0080           0
     56423 WT18     1067     MECN     H12      HGA3     0.090000        1.0080           0
     56424 WT18     1067     MECN     H13      HGA3     0.090000        1.0080           0
     56425 WT18     1067     MECN     C2       CG1N1    0.360000       12.0110           0
     56426 WT18     1067     MECN     N3       NG1T1   -0.460000       14.0070           0
     56427 WT18     1068     MECN     C1       CG331   -0.170000       12.0110           0
     56428 WT18     1068     MECN     H11      HGA3     0.090000        1.0080           0
     56429 WT18     1068     MECN     H12      HGA3     0.090000        1.0080           0
     56430 WT18     1068     MECN     H13      HGA3     0.090000        1.0080           0
     56431 WT18     1068     MECN     C2       CG1N1    0.360000       12.0110           0
     56432 WT18     1068     MECN     N3       NG1T1   -0.460000       14.0070           0
     56433 WT18     1069     MECN     C1       CG331   -0.170000       12.0110           0
     56434 WT18     1069     MECN     H11      HGA3     0.090000        1.0080           0
     56435 WT18     1069     MECN     H12      HGA3     0.090000        1.0080           0
     56436 WT18     1069     MECN     H13      HGA3     0.090000        1.0080           0
     56437 WT18     1069     MECN     C2       CG1N1    0.360000       12.0110           0
     56438 WT18     1069     MECN     N3       NG1T1   -0.460000       14.0070           0
     56439 WT18     1073     MECN     C1       CG331   -0.170000       12.0110           0
     56440 WT18     1073     MECN     H11      HGA3     0.090000        1.0080           0
     56441 WT18     1073     MECN     H12      HGA3     0.090000        1.0080           0
     56442 WT18     1073     MECN     H13      HGA3     0.090000        1.0080           0
     56443 WT18     1073     MECN     C2       CG1N1    0.360000       12.0110           0
     56444 WT18     1073     MECN     N3       NG1T1   -0.460000       14.0070           0
     56445 WT18     1076     MECN     C1       CG331   -0.170000       12.0110           0
     56446 WT18     1076     MECN     H11      HGA3     0.090000        1.0080           0
     56447 WT18     1076     MECN     H12      HGA3     0.090000        1.0080           0
     56448 WT18     1076     MECN     H13      HGA3     0.090000        1.0080           0
     56449 WT18     1076     MECN     C2       CG1N1    0.360000       12.0110           0
     56450 WT18     1076     MECN     N3       NG1T1   -0.460000       14.0070           0
     56451 WT18     1078     MECN     C1       CG331   -0.170000       12.0110           0
     56452 WT18     1078     MECN     H11      HGA3     0.090000        1.0080           0
     56453 WT18     1078     MECN     H12      HGA3     0.090000        1.0080           0
     56454 WT18     1078     MECN     H13      HGA3     0.090000        1.0080           0
     56455 WT18     1078     MECN     C2       CG1N1    0.360000       12.0110           0
     56456 WT18     1078     MECN     N3       NG1T1   -0.460000       14.0070           0
     56457 WT18     1079     MECN     C1       CG331   -0.170000       12.0110           0
     56458 WT18     1079     MECN     H11      HGA3     0.090000        1.0080           0
     56459 WT18     1079     MECN     H12      HGA3     0.090000        1.0080           0
     56460 WT18     1079     MECN     H13      HGA3     0.090000        1.0080           0
     56461 WT18     1079     MECN     C2       CG1N1    0.360000       12.0110           0
     56462 WT18     1079     MECN     N3       NG1T1   -0.460000       14.0070           0
     56463 WT18     1082     MECN     C1       CG331   -0.170000       12.0110           0
     56464 WT18     1082     MECN     H11      HGA3     0.090000        1.0080           0
     56465 WT18     1082     MECN     H12      HGA3     0.090000        1.0080           0
     56466 WT18     1082     MECN     H13      HGA3     0.090000        1.0080           0
     56467 WT18     1082     MECN     C2       CG1N1    0.360000       12.0110           0
     56468 WT18     1082     MECN     N3       NG1T1   -0.460000       14.0070           0
     56469 WT18     1086     MECN     C1       CG331   -0.170000       12.0110           0
     56470 WT18     1086     MECN     H11      HGA3     0.090000        1.0080           0
     56471 WT18     1086     MECN     H12      HGA3     0.090000        1.0080           0
     56472 WT18     1086     MECN     H13      HGA3     0.090000        1.0080           0
     56473 WT18     1086     MECN     C2       CG1N1    0.360000       12.0110           0
     56474 WT18     1086     MECN     N3       NG1T1   -0.460000       14.0070           0
     56475 WT18     1089     MECN     C1       CG331   -0.170000       12.0110           0
     56476 WT18     1089     MECN     H11      HGA3     0.090000        1.0080           0
     56477 WT18     1089     MECN     H12      HGA3     0.090000        1.0080           0
     56478 WT18     1089     MECN     H13      HGA3     0.090000        1.0080           0
     56479 WT18     1089     MECN     C2       CG1N1    0.360000       12.0110           0
     56480 WT18     1089     MECN     N3       NG1T1   -0.460000       14.0070           0
     56481 WT18     1090     MECN     C1       CG331   -0.170000       12.0110           0
     56482 WT18     1090     MECN     H11      HGA3     0.090000        1.0080           0
     56483 WT18     1090     MECN     H12      HGA3     0.090000        1.0080           0
     56484 WT18     1090     MECN     H13      HGA3     0.090000        1.0080           0
     56485 WT18     1090     MECN     C2       CG1N1    0.360000       12.0110           0
     56486 WT18     1090     MECN     N3       NG1T1   -0.460000       14.0070           0
     56487 WT18     1092     MECN     C1       CG331   -0.170000       12.0110           0
     56488 WT18     1092     MECN     H11      HGA3     0.090000        1.0080           0
     56489 WT18     1092     MECN     H12      HGA3     0.090000        1.0080           0
     56490 WT18     1092     MECN     H13      HGA3     0.090000        1.0080           0
     56491 WT18     1092     MECN     C2       CG1N1    0.360000       12.0110           0
     56492 WT18     1092     MECN     N3       NG1T1   -0.460000       14.0070           0
     56493 WT18     1097     MECN     C1       CG331   -0.170000       12.0110           0
     56494 WT18     1097     MECN     H11      HGA3     0.090000        1.0080           0
     56495 WT18     1097     MECN     H12      HGA3     0.090000        1.0080           0
     56496 WT18     1097     MECN     H13      HGA3     0.090000        1.0080           0
     56497 WT18     1097     MECN     C2       CG1N1    0.360000       12.0110           0
     56498 WT18     1097     MECN     N3       NG1T1   -0.460000       14.0070           0
     56499 WT18     1100     MECN     C1       CG331   -0.170000       12.0110           0
     56500 WT18     1100     MECN     H11      HGA3     0.090000        1.0080           0
     56501 WT18     1100     MECN     H12      HGA3     0.090000        1.0080           0
     56502 WT18     1100     MECN     H13      HGA3     0.090000        1.0080           0
     56503 WT18     1100     MECN     C2       CG1N1    0.360000       12.0110           0
     56504 WT18     1100     MECN     N3       NG1T1   -0.460000       14.0070           0
     56505 WT18     1102     MECN     C1       CG331   -0.170000       12.0110           0
     56506 WT18     1102     MECN     H11      HGA3     0.090000        1.0080           0
     56507 WT18     1102     MECN     H12      HGA3     0.090000        1.0080           0
     56508 WT18     1102     MECN     H13      HGA3     0.090000        1.0080           0
     56509 WT18     1102     MECN     C2       CG1N1    0.360000       12.0110           0
     56510 WT18     1102     MECN     N3       NG1T1   -0.460000       14.0070           0
     56511 WT18     1103     MECN     C1       CG331   -0.170000       12.0110           0
     56512 WT18     1103     MECN     H11      HGA3     0.090000        1.0080           0
     56513 WT18     1103     MECN     H12      HGA3     0.090000        1.0080           0
     56514 WT18     1103     MECN     H13      HGA3     0.090000        1.0080           0
     56515 WT18     1103     MECN     C2       CG1N1    0.360000       12.0110           0
     56516 WT18     1103     MECN     N3       NG1T1   -0.460000       14.0070           0
     56517 WT18     1104     MECN     C1       CG331   -0.170000       12.0110           0
     56518 WT18     1104     MECN     H11      HGA3     0.090000        1.0080           0
     56519 WT18     1104     MECN     H12      HGA3     0.090000        1.0080           0
     56520 WT18     1104     MECN     H13      HGA3     0.090000        1.0080           0
     56521 WT18     1104     MECN     C2       CG1N1    0.360000       12.0110           0
     56522 WT18     1104     MECN     N3       NG1T1   -0.460000       14.0070           0
     56523 WT18     1105     MECN     C1       CG331   -0.170000       12.0110           0
     56524 WT18     1105     MECN     H11      HGA3     0.090000        1.0080           0
     56525 WT18     1105     MECN     H12      HGA3     0.090000        1.0080           0
     56526 WT18     1105     MECN     H13      HGA3     0.090000        1.0080           0
     56527 WT18     1105     MECN     C2       CG1N1    0.360000       12.0110           0
     56528 WT18     1105     MECN     N3       NG1T1   -0.460000       14.0070           0
     56529 WT18     1107     MECN     C1       CG331   -0.170000       12.0110           0
     56530 WT18     1107     MECN     H11      HGA3     0.090000        1.0080           0
     56531 WT18     1107     MECN     H12      HGA3     0.090000        1.0080           0
     56532 WT18     1107     MECN     H13      HGA3     0.090000        1.0080           0
     56533 WT18     1107     MECN     C2       CG1N1    0.360000       12.0110           0
     56534 WT18     1107     MECN     N3       NG1T1   -0.460000       14.0070           0
     56535 WT18     1108     MECN     C1       CG331   -0.170000       12.0110           0
     56536 WT18     1108     MECN     H11      HGA3     0.090000        1.0080           0
     56537 WT18     1108     MECN     H12      HGA3     0.090000        1.0080           0
     56538 WT18     1108     MECN     H13      HGA3     0.090000        1.0080           0
     56539 WT18     1108     MECN     C2       CG1N1    0.360000       12.0110           0
     56540 WT18     1108     MECN     N3       NG1T1   -0.460000       14.0070           0
     56541 WT18     1111     MECN     C1       CG331   -0.170000       12.0110           0
     56542 WT18     1111     MECN     H11      HGA3     0.090000        1.0080           0
     56543 WT18     1111     MECN     H12      HGA3     0.090000        1.0080           0
     56544 WT18     1111     MECN     H13      HGA3     0.090000        1.0080           0
     56545 WT18     1111     MECN     C2       CG1N1    0.360000       12.0110           0
     56546 WT18     1111     MECN     N3       NG1T1   -0.460000       14.0070           0
     56547 WT18     1114     MECN     C1       CG331   -0.170000       12.0110           0
     56548 WT18     1114     MECN     H11      HGA3     0.090000        1.0080           0
     56549 WT18     1114     MECN     H12      HGA3     0.090000        1.0080           0
     56550 WT18     1114     MECN     H13      HGA3     0.090000        1.0080           0
     56551 WT18     1114     MECN     C2       CG1N1    0.360000       12.0110           0
     56552 WT18     1114     MECN     N3       NG1T1   -0.460000       14.0070           0
     56553 WT18     1116     MECN     C1       CG331   -0.170000       12.0110           0
     56554 WT18     1116     MECN     H11      HGA3     0.090000        1.0080           0
     56555 WT18     1116     MECN     H12      HGA3     0.090000        1.0080           0
     56556 WT18     1116     MECN     H13      HGA3     0.090000        1.0080           0
     56557 WT18     1116     MECN     C2       CG1N1    0.360000       12.0110           0
     56558 WT18     1116     MECN     N3       NG1T1   -0.460000       14.0070           0
     56559 WT18     1117     MECN     C1       CG331   -0.170000       12.0110           0
     56560 WT18     1117     MECN     H11      HGA3     0.090000        1.0080           0
     56561 WT18     1117     MECN     H12      HGA3     0.090000        1.0080           0
     56562 WT18     1117     MECN     H13      HGA3     0.090000        1.0080           0
     56563 WT18     1117     MECN     C2       CG1N1    0.360000       12.0110           0
     56564 WT18     1117     MECN     N3       NG1T1   -0.460000       14.0070           0
     56565 WT18     1118     MECN     C1       CG331   -0.170000       12.0110           0
     56566 WT18     1118     MECN     H11      HGA3     0.090000        1.0080           0
     56567 WT18     1118     MECN     H12      HGA3     0.090000        1.0080           0
     56568 WT18     1118     MECN     H13      HGA3     0.090000        1.0080           0
     56569 WT18     1118     MECN     C2       CG1N1    0.360000       12.0110           0
     56570 WT18     1118     MECN     N3       NG1T1   -0.460000       14.0070           0
     56571 WT18     1119     MECN     C1       CG331   -0.170000       12.0110           0
     56572 WT18     1119     MECN     H11      HGA3     0.090000        1.0080           0
     56573 WT18     1119     MECN     H12      HGA3     0.090000        1.0080           0
     56574 WT18     1119     MECN     H13      HGA3     0.090000        1.0080           0
     56575 WT18     1119     MECN     C2       CG1N1    0.360000       12.0110           0
     56576 WT18     1119     MECN     N3       NG1T1   -0.460000       14.0070           0
     56577 WT18     1122     MECN     C1       CG331   -0.170000       12.0110           0
     56578 WT18     1122     MECN     H11      HGA3     0.090000        1.0080           0
     56579 WT18     1122     MECN     H12      HGA3     0.090000        1.0080           0
     56580 WT18     1122     MECN     H13      HGA3     0.090000        1.0080           0
     56581 WT18     1122     MECN     C2       CG1N1    0.360000       12.0110           0
     56582 WT18     1122     MECN     N3       NG1T1   -0.460000       14.0070           0
     56583 WT18     1124     MECN     C1       CG331   -0.170000       12.0110           0
     56584 WT18     1124     MECN     H11      HGA3     0.090000        1.0080           0
     56585 WT18     1124     MECN     H12      HGA3     0.090000        1.0080           0
     56586 WT18     1124     MECN     H13      HGA3     0.090000        1.0080           0
     56587 WT18     1124     MECN     C2       CG1N1    0.360000       12.0110           0
     56588 WT18     1124     MECN     N3       NG1T1   -0.460000       14.0070           0
     56589 WT18     1126     MECN     C1       CG331   -0.170000       12.0110           0
     56590 WT18     1126     MECN     H11      HGA3     0.090000        1.0080           0
     56591 WT18     1126     MECN     H12      HGA3     0.090000        1.0080           0
     56592 WT18     1126     MECN     H13      HGA3     0.090000        1.0080           0
     56593 WT18     1126     MECN     C2       CG1N1    0.360000       12.0110           0
     56594 WT18     1126     MECN     N3       NG1T1   -0.460000       14.0070           0
     56595 WT18     1127     MECN     C1       CG331   -0.170000       12.0110           0
     56596 WT18     1127     MECN     H11      HGA3     0.090000        1.0080           0
     56597 WT18     1127     MECN     H12      HGA3     0.090000        1.0080           0
     56598 WT18     1127     MECN     H13      HGA3     0.090000        1.0080           0
     56599 WT18     1127     MECN     C2       CG1N1    0.360000       12.0110           0
     56600 WT18     1127     MECN     N3       NG1T1   -0.460000       14.0070           0
     56601 WT18     1128     MECN     C1       CG331   -0.170000       12.0110           0
     56602 WT18     1128     MECN     H11      HGA3     0.090000        1.0080           0
     56603 WT18     1128     MECN     H12      HGA3     0.090000        1.0080           0
     56604 WT18     1128     MECN     H13      HGA3     0.090000        1.0080           0
     56605 WT18     1128     MECN     C2       CG1N1    0.360000       12.0110           0
     56606 WT18     1128     MECN     N3       NG1T1   -0.460000       14.0070           0
     56607 WT18     1131     MECN     C1       CG331   -0.170000       12.0110           0
     56608 WT18     1131     MECN     H11      HGA3     0.090000        1.0080           0
     56609 WT18     1131     MECN     H12      HGA3     0.090000        1.0080           0
     56610 WT18     1131     MECN     H13      HGA3     0.090000        1.0080           0
     56611 WT18     1131     MECN     C2       CG1N1    0.360000       12.0110           0
     56612 WT18     1131     MECN     N3       NG1T1   -0.460000       14.0070           0
     56613 WT18     1132     MECN     C1       CG331   -0.170000       12.0110           0
     56614 WT18     1132     MECN     H11      HGA3     0.090000        1.0080           0
     56615 WT18     1132     MECN     H12      HGA3     0.090000        1.0080           0
     56616 WT18     1132     MECN     H13      HGA3     0.090000        1.0080           0
     56617 WT18     1132     MECN     C2       CG1N1    0.360000       12.0110           0
     56618 WT18     1132     MECN     N3       NG1T1   -0.460000       14.0070           0
     56619 WT18     1133     MECN     C1       CG331   -0.170000       12.0110           0
     56620 WT18     1133     MECN     H11      HGA3     0.090000        1.0080           0
     56621 WT18     1133     MECN     H12      HGA3     0.090000        1.0080           0
     56622 WT18     1133     MECN     H13      HGA3     0.090000        1.0080           0
     56623 WT18     1133     MECN     C2       CG1N1    0.360000       12.0110           0
     56624 WT18     1133     MECN     N3       NG1T1   -0.460000       14.0070           0
     56625 WT18     1136     MECN     C1       CG331   -0.170000       12.0110           0
     56626 WT18     1136     MECN     H11      HGA3     0.090000        1.0080           0
     56627 WT18     1136     MECN     H12      HGA3     0.090000        1.0080           0
     56628 WT18     1136     MECN     H13      HGA3     0.090000        1.0080           0
     56629 WT18     1136     MECN     C2       CG1N1    0.360000       12.0110           0
     56630 WT18     1136     MECN     N3       NG1T1   -0.460000       14.0070           0
     56631 WT18     1140     MECN     C1       CG331   -0.170000       12.0110           0
     56632 WT18     1140     MECN     H11      HGA3     0.090000        1.0080           0
     56633 WT18     1140     MECN     H12      HGA3     0.090000        1.0080           0
     56634 WT18     1140     MECN     H13      HGA3     0.090000        1.0080           0
     56635 WT18     1140     MECN     C2       CG1N1    0.360000       12.0110           0
     56636 WT18     1140     MECN     N3       NG1T1   -0.460000       14.0070           0
     56637 WT18     1141     MECN     C1       CG331   -0.170000       12.0110           0
     56638 WT18     1141     MECN     H11      HGA3     0.090000        1.0080           0
     56639 WT18     1141     MECN     H12      HGA3     0.090000        1.0080           0
     56640 WT18     1141     MECN     H13      HGA3     0.090000        1.0080           0
     56641 WT18     1141     MECN     C2       CG1N1    0.360000       12.0110           0
     56642 WT18     1141     MECN     N3       NG1T1   -0.460000       14.0070           0
     56643 WT18     1142     MECN     C1       CG331   -0.170000       12.0110           0
     56644 WT18     1142     MECN     H11      HGA3     0.090000        1.0080           0
     56645 WT18     1142     MECN     H12      HGA3     0.090000        1.0080           0
     56646 WT18     1142     MECN     H13      HGA3     0.090000        1.0080           0
     56647 WT18     1142     MECN     C2       CG1N1    0.360000       12.0110           0
     56648 WT18     1142     MECN     N3       NG1T1   -0.460000       14.0070           0
     56649 WT18     1144     MECN     C1       CG331   -0.170000       12.0110           0
     56650 WT18     1144     MECN     H11      HGA3     0.090000        1.0080           0
     56651 WT18     1144     MECN     H12      HGA3     0.090000        1.0080           0
     56652 WT18     1144     MECN     H13      HGA3     0.090000        1.0080           0
     56653 WT18     1144     MECN     C2       CG1N1    0.360000       12.0110           0
     56654 WT18     1144     MECN     N3       NG1T1   -0.460000       14.0070           0
     56655 WT18     1145     MECN     C1       CG331   -0.170000       12.0110           0
     56656 WT18     1145     MECN     H11      HGA3     0.090000        1.0080           0
     56657 WT18     1145     MECN     H12      HGA3     0.090000        1.0080           0
     56658 WT18     1145     MECN     H13      HGA3     0.090000        1.0080           0
     56659 WT18     1145     MECN     C2       CG1N1    0.360000       12.0110           0
     56660 WT18     1145     MECN     N3       NG1T1   -0.460000       14.0070           0
     56661 WT18     1147     MECN     C1       CG331   -0.170000       12.0110           0
     56662 WT18     1147     MECN     H11      HGA3     0.090000        1.0080           0
     56663 WT18     1147     MECN     H12      HGA3     0.090000        1.0080           0
     56664 WT18     1147     MECN     H13      HGA3     0.090000        1.0080           0
     56665 WT18     1147     MECN     C2       CG1N1    0.360000       12.0110           0
     56666 WT18     1147     MECN     N3       NG1T1   -0.460000       14.0070           0
     56667 WT18     1149     MECN     C1       CG331   -0.170000       12.0110           0
     56668 WT18     1149     MECN     H11      HGA3     0.090000        1.0080           0
     56669 WT18     1149     MECN     H12      HGA3     0.090000        1.0080           0
     56670 WT18     1149     MECN     H13      HGA3     0.090000        1.0080           0
     56671 WT18     1149     MECN     C2       CG1N1    0.360000       12.0110           0
     56672 WT18     1149     MECN     N3       NG1T1   -0.460000       14.0070           0
     56673 WT18     1150     MECN     C1       CG331   -0.170000       12.0110           0
     56674 WT18     1150     MECN     H11      HGA3     0.090000        1.0080           0
     56675 WT18     1150     MECN     H12      HGA3     0.090000        1.0080           0
     56676 WT18     1150     MECN     H13      HGA3     0.090000        1.0080           0
     56677 WT18     1150     MECN     C2       CG1N1    0.360000       12.0110           0
     56678 WT18     1150     MECN     N3       NG1T1   -0.460000       14.0070           0
     56679 WT18     1151     MECN     C1       CG331   -0.170000       12.0110           0
     56680 WT18     1151     MECN     H11      HGA3     0.090000        1.0080           0
     56681 WT18     1151     MECN     H12      HGA3     0.090000        1.0080           0
     56682 WT18     1151     MECN     H13      HGA3     0.090000        1.0080           0
     56683 WT18     1151     MECN     C2       CG1N1    0.360000       12.0110           0
     56684 WT18     1151     MECN     N3       NG1T1   -0.460000       14.0070           0
     56685 WT18     1152     MECN     C1       CG331   -0.170000       12.0110           0
     56686 WT18     1152     MECN     H11      HGA3     0.090000        1.0080           0
     56687 WT18     1152     MECN     H12      HGA3     0.090000        1.0080           0
     56688 WT18     1152     MECN     H13      HGA3     0.090000        1.0080           0
     56689 WT18     1152     MECN     C2       CG1N1    0.360000       12.0110           0
     56690 WT18     1152     MECN     N3       NG1T1   -0.460000       14.0070           0
     56691 WT18     1154     MECN     C1       CG331   -0.170000       12.0110           0
     56692 WT18     1154     MECN     H11      HGA3     0.090000        1.0080           0
     56693 WT18     1154     MECN     H12      HGA3     0.090000        1.0080           0
     56694 WT18     1154     MECN     H13      HGA3     0.090000        1.0080           0
     56695 WT18     1154     MECN     C2       CG1N1    0.360000       12.0110           0
     56696 WT18     1154     MECN     N3       NG1T1   -0.460000       14.0070           0
     56697 WT18     1155     MECN     C1       CG331   -0.170000       12.0110           0
     56698 WT18     1155     MECN     H11      HGA3     0.090000        1.0080           0
     56699 WT18     1155     MECN     H12      HGA3     0.090000        1.0080           0
     56700 WT18     1155     MECN     H13      HGA3     0.090000        1.0080           0
     56701 WT18     1155     MECN     C2       CG1N1    0.360000       12.0110           0
     56702 WT18     1155     MECN     N3       NG1T1   -0.460000       14.0070           0
     56703 WT18     1156     MECN     C1       CG331   -0.170000       12.0110           0
     56704 WT18     1156     MECN     H11      HGA3     0.090000        1.0080           0
     56705 WT18     1156     MECN     H12      HGA3     0.090000        1.0080           0
     56706 WT18     1156     MECN     H13      HGA3     0.090000        1.0080           0
     56707 WT18     1156     MECN     C2       CG1N1    0.360000       12.0110           0
     56708 WT18     1156     MECN     N3       NG1T1   -0.460000       14.0070           0
     56709 WT18     1158     MECN     C1       CG331   -0.170000       12.0110           0
     56710 WT18     1158     MECN     H11      HGA3     0.090000        1.0080           0
     56711 WT18     1158     MECN     H12      HGA3     0.090000        1.0080           0
     56712 WT18     1158     MECN     H13      HGA3     0.090000        1.0080           0
     56713 WT18     1158     MECN     C2       CG1N1    0.360000       12.0110           0
     56714 WT18     1158     MECN     N3       NG1T1   -0.460000       14.0070           0
     56715 WT18     1159     MECN     C1       CG331   -0.170000       12.0110           0
     56716 WT18     1159     MECN     H11      HGA3     0.090000        1.0080           0
     56717 WT18     1159     MECN     H12      HGA3     0.090000        1.0080           0
     56718 WT18     1159     MECN     H13      HGA3     0.090000        1.0080           0
     56719 WT18     1159     MECN     C2       CG1N1    0.360000       12.0110           0
     56720 WT18     1159     MECN     N3       NG1T1   -0.460000       14.0070           0
     56721 WT18     1160     MECN     C1       CG331   -0.170000       12.0110           0
     56722 WT18     1160     MECN     H11      HGA3     0.090000        1.0080           0
     56723 WT18     1160     MECN     H12      HGA3     0.090000        1.0080           0
     56724 WT18     1160     MECN     H13      HGA3     0.090000        1.0080           0
     56725 WT18     1160     MECN     C2       CG1N1    0.360000       12.0110           0
     56726 WT18     1160     MECN     N3       NG1T1   -0.460000       14.0070           0
     56727 WT18     1162     MECN     C1       CG331   -0.170000       12.0110           0
     56728 WT18     1162     MECN     H11      HGA3     0.090000        1.0080           0
     56729 WT18     1162     MECN     H12      HGA3     0.090000        1.0080           0
     56730 WT18     1162     MECN     H13      HGA3     0.090000        1.0080           0
     56731 WT18     1162     MECN     C2       CG1N1    0.360000       12.0110           0
     56732 WT18     1162     MECN     N3       NG1T1   -0.460000       14.0070           0
     56733 WT18     1163     MECN     C1       CG331   -0.170000       12.0110           0
     56734 WT18     1163     MECN     H11      HGA3     0.090000        1.0080           0
     56735 WT18     1163     MECN     H12      HGA3     0.090000        1.0080           0
     56736 WT18     1163     MECN     H13      HGA3     0.090000        1.0080           0
     56737 WT18     1163     MECN     C2       CG1N1    0.360000       12.0110           0
     56738 WT18     1163     MECN     N3       NG1T1   -0.460000       14.0070           0
     56739 WT18     1167     MECN     C1       CG331   -0.170000       12.0110           0
     56740 WT18     1167     MECN     H11      HGA3     0.090000        1.0080           0
     56741 WT18     1167     MECN     H12      HGA3     0.090000        1.0080           0
     56742 WT18     1167     MECN     H13      HGA3     0.090000        1.0080           0
     56743 WT18     1167     MECN     C2       CG1N1    0.360000       12.0110           0
     56744 WT18     1167     MECN     N3       NG1T1   -0.460000       14.0070           0
     56745 WT18     1168     MECN     C1       CG331   -0.170000       12.0110           0
     56746 WT18     1168     MECN     H11      HGA3     0.090000        1.0080           0
     56747 WT18     1168     MECN     H12      HGA3     0.090000        1.0080           0
     56748 WT18     1168     MECN     H13      HGA3     0.090000        1.0080           0
     56749 WT18     1168     MECN     C2       CG1N1    0.360000       12.0110           0
     56750 WT18     1168     MECN     N3       NG1T1   -0.460000       14.0070           0
     56751 WT18     1170     MECN     C1       CG331   -0.170000       12.0110           0
     56752 WT18     1170     MECN     H11      HGA3     0.090000        1.0080           0
     56753 WT18     1170     MECN     H12      HGA3     0.090000        1.0080           0
     56754 WT18     1170     MECN     H13      HGA3     0.090000        1.0080           0
     56755 WT18     1170     MECN     C2       CG1N1    0.360000       12.0110           0
     56756 WT18     1170     MECN     N3       NG1T1   -0.460000       14.0070           0
     56757 WT18     1175     MECN     C1       CG331   -0.170000       12.0110           0
     56758 WT18     1175     MECN     H11      HGA3     0.090000        1.0080           0
     56759 WT18     1175     MECN     H12      HGA3     0.090000        1.0080           0
     56760 WT18     1175     MECN     H13      HGA3     0.090000        1.0080           0
     56761 WT18     1175     MECN     C2       CG1N1    0.360000       12.0110           0
     56762 WT18     1175     MECN     N3       NG1T1   -0.460000       14.0070           0
     56763 WT18     1176     MECN     C1       CG331   -0.170000       12.0110           0
     56764 WT18     1176     MECN     H11      HGA3     0.090000        1.0080           0
     56765 WT18     1176     MECN     H12      HGA3     0.090000        1.0080           0
     56766 WT18     1176     MECN     H13      HGA3     0.090000        1.0080           0
     56767 WT18     1176     MECN     C2       CG1N1    0.360000       12.0110           0
     56768 WT18     1176     MECN     N3       NG1T1   -0.460000       14.0070           0
     56769 WT18     1177     MECN     C1       CG331   -0.170000       12.0110           0
     56770 WT18     1177     MECN     H11      HGA3     0.090000        1.0080           0
     56771 WT18     1177     MECN     H12      HGA3     0.090000        1.0080           0
     56772 WT18     1177     MECN     H13      HGA3     0.090000        1.0080           0
     56773 WT18     1177     MECN     C2       CG1N1    0.360000       12.0110           0
     56774 WT18     1177     MECN     N3       NG1T1   -0.460000       14.0070           0
     56775 WT18     1179     MECN     C1       CG331   -0.170000       12.0110           0
     56776 WT18     1179     MECN     H11      HGA3     0.090000        1.0080           0
     56777 WT18     1179     MECN     H12      HGA3     0.090000        1.0080           0
     56778 WT18     1179     MECN     H13      HGA3     0.090000        1.0080           0
     56779 WT18     1179     MECN     C2       CG1N1    0.360000       12.0110           0
     56780 WT18     1179     MECN     N3       NG1T1   -0.460000       14.0070           0
     56781 WT18     1180     MECN     C1       CG331   -0.170000       12.0110           0
     56782 WT18     1180     MECN     H11      HGA3     0.090000        1.0080           0
     56783 WT18     1180     MECN     H12      HGA3     0.090000        1.0080           0
     56784 WT18     1180     MECN     H13      HGA3     0.090000        1.0080           0
     56785 WT18     1180     MECN     C2       CG1N1    0.360000       12.0110           0
     56786 WT18     1180     MECN     N3       NG1T1   -0.460000       14.0070           0
     56787 WT18     1182     MECN     C1       CG331   -0.170000       12.0110           0
     56788 WT18     1182     MECN     H11      HGA3     0.090000        1.0080           0
     56789 WT18     1182     MECN     H12      HGA3     0.090000        1.0080           0
     56790 WT18     1182     MECN     H13      HGA3     0.090000        1.0080           0
     56791 WT18     1182     MECN     C2       CG1N1    0.360000       12.0110           0
     56792 WT18     1182     MECN     N3       NG1T1   -0.460000       14.0070           0
     56793 WT18     1183     MECN     C1       CG331   -0.170000       12.0110           0
     56794 WT18     1183     MECN     H11      HGA3     0.090000        1.0080           0
     56795 WT18     1183     MECN     H12      HGA3     0.090000        1.0080           0
     56796 WT18     1183     MECN     H13      HGA3     0.090000        1.0080           0
     56797 WT18     1183     MECN     C2       CG1N1    0.360000       12.0110           0
     56798 WT18     1183     MECN     N3       NG1T1   -0.460000       14.0070           0
     56799 WT18     1185     MECN     C1       CG331   -0.170000       12.0110           0
     56800 WT18     1185     MECN     H11      HGA3     0.090000        1.0080           0
     56801 WT18     1185     MECN     H12      HGA3     0.090000        1.0080           0
     56802 WT18     1185     MECN     H13      HGA3     0.090000        1.0080           0
     56803 WT18     1185     MECN     C2       CG1N1    0.360000       12.0110           0
     56804 WT18     1185     MECN     N3       NG1T1   -0.460000       14.0070           0
     56805 WT18     1186     MECN     C1       CG331   -0.170000       12.0110           0
     56806 WT18     1186     MECN     H11      HGA3     0.090000        1.0080           0
     56807 WT18     1186     MECN     H12      HGA3     0.090000        1.0080           0
     56808 WT18     1186     MECN     H13      HGA3     0.090000        1.0080           0
     56809 WT18     1186     MECN     C2       CG1N1    0.360000       12.0110           0
     56810 WT18     1186     MECN     N3       NG1T1   -0.460000       14.0070           0
     56811 WT18     1194     MECN     C1       CG331   -0.170000       12.0110           0
     56812 WT18     1194     MECN     H11      HGA3     0.090000        1.0080           0
     56813 WT18     1194     MECN     H12      HGA3     0.090000        1.0080           0
     56814 WT18     1194     MECN     H13      HGA3     0.090000        1.0080           0
     56815 WT18     1194     MECN     C2       CG1N1    0.360000       12.0110           0
     56816 WT18     1194     MECN     N3       NG1T1   -0.460000       14.0070           0
     56817 WT18     1196     MECN     C1       CG331   -0.170000       12.0110           0
     56818 WT18     1196     MECN     H11      HGA3     0.090000        1.0080           0
     56819 WT18     1196     MECN     H12      HGA3     0.090000        1.0080           0
     56820 WT18     1196     MECN     H13      HGA3     0.090000        1.0080           0
     56821 WT18     1196     MECN     C2       CG1N1    0.360000       12.0110           0
     56822 WT18     1196     MECN     N3       NG1T1   -0.460000       14.0070           0
     56823 WT18     1197     MECN     C1       CG331   -0.170000       12.0110           0
     56824 WT18     1197     MECN     H11      HGA3     0.090000        1.0080           0
     56825 WT18     1197     MECN     H12      HGA3     0.090000        1.0080           0
     56826 WT18     1197     MECN     H13      HGA3     0.090000        1.0080           0
     56827 WT18     1197     MECN     C2       CG1N1    0.360000       12.0110           0
     56828 WT18     1197     MECN     N3       NG1T1   -0.460000       14.0070           0
     56829 WT18     1201     MECN     C1       CG331   -0.170000       12.0110           0
     56830 WT18     1201     MECN     H11      HGA3     0.090000        1.0080           0
     56831 WT18     1201     MECN     H12      HGA3     0.090000        1.0080           0
     56832 WT18     1201     MECN     H13      HGA3     0.090000        1.0080           0
     56833 WT18     1201     MECN     C2       CG1N1    0.360000       12.0110           0
     56834 WT18     1201     MECN     N3       NG1T1   -0.460000       14.0070           0
     56835 WT18     1202     MECN     C1       CG331   -0.170000       12.0110           0
     56836 WT18     1202     MECN     H11      HGA3     0.090000        1.0080           0
     56837 WT18     1202     MECN     H12      HGA3     0.090000        1.0080           0
     56838 WT18     1202     MECN     H13      HGA3     0.090000        1.0080           0
     56839 WT18     1202     MECN     C2       CG1N1    0.360000       12.0110           0
     56840 WT18     1202     MECN     N3       NG1T1   -0.460000       14.0070           0
     56841 WT18     1203     MECN     C1       CG331   -0.170000       12.0110           0
     56842 WT18     1203     MECN     H11      HGA3     0.090000        1.0080           0
     56843 WT18     1203     MECN     H12      HGA3     0.090000        1.0080           0
     56844 WT18     1203     MECN     H13      HGA3     0.090000        1.0080           0
     56845 WT18     1203     MECN     C2       CG1N1    0.360000       12.0110           0
     56846 WT18     1203     MECN     N3       NG1T1   -0.460000       14.0070           0
     56847 WT18     1204     MECN     C1       CG331   -0.170000       12.0110           0
     56848 WT18     1204     MECN     H11      HGA3     0.090000        1.0080           0
     56849 WT18     1204     MECN     H12      HGA3     0.090000        1.0080           0
     56850 WT18     1204     MECN     H13      HGA3     0.090000        1.0080           0
     56851 WT18     1204     MECN     C2       CG1N1    0.360000       12.0110           0
     56852 WT18     1204     MECN     N3       NG1T1   -0.460000       14.0070           0
     56853 WT18     1206     MECN     C1       CG331   -0.170000       12.0110           0
     56854 WT18     1206     MECN     H11      HGA3     0.090000        1.0080           0
     56855 WT18     1206     MECN     H12      HGA3     0.090000        1.0080           0
     56856 WT18     1206     MECN     H13      HGA3     0.090000        1.0080           0
     56857 WT18     1206     MECN     C2       CG1N1    0.360000       12.0110           0
     56858 WT18     1206     MECN     N3       NG1T1   -0.460000       14.0070           0
     56859 WT18     1207     MECN     C1       CG331   -0.170000       12.0110           0
     56860 WT18     1207     MECN     H11      HGA3     0.090000        1.0080           0
     56861 WT18     1207     MECN     H12      HGA3     0.090000        1.0080           0
     56862 WT18     1207     MECN     H13      HGA3     0.090000        1.0080           0
     56863 WT18     1207     MECN     C2       CG1N1    0.360000       12.0110           0
     56864 WT18     1207     MECN     N3       NG1T1   -0.460000       14.0070           0
     56865 WT18     1208     MECN     C1       CG331   -0.170000       12.0110           0
     56866 WT18     1208     MECN     H11      HGA3     0.090000        1.0080           0
     56867 WT18     1208     MECN     H12      HGA3     0.090000        1.0080           0
     56868 WT18     1208     MECN     H13      HGA3     0.090000        1.0080           0
     56869 WT18     1208     MECN     C2       CG1N1    0.360000       12.0110           0
     56870 WT18     1208     MECN     N3       NG1T1   -0.460000       14.0070           0
     56871 WT18     1209     MECN     C1       CG331   -0.170000       12.0110           0
     56872 WT18     1209     MECN     H11      HGA3     0.090000        1.0080           0
     56873 WT18     1209     MECN     H12      HGA3     0.090000        1.0080           0
     56874 WT18     1209     MECN     H13      HGA3     0.090000        1.0080           0
     56875 WT18     1209     MECN     C2       CG1N1    0.360000       12.0110           0
     56876 WT18     1209     MECN     N3       NG1T1   -0.460000       14.0070           0
     56877 WT18     1210     MECN     C1       CG331   -0.170000       12.0110           0
     56878 WT18     1210     MECN     H11      HGA3     0.090000        1.0080           0
     56879 WT18     1210     MECN     H12      HGA3     0.090000        1.0080           0
     56880 WT18     1210     MECN     H13      HGA3     0.090000        1.0080           0
     56881 WT18     1210     MECN     C2       CG1N1    0.360000       12.0110           0
     56882 WT18     1210     MECN     N3       NG1T1   -0.460000       14.0070           0
     56883 WT18     1211     MECN     C1       CG331   -0.170000       12.0110           0
     56884 WT18     1211     MECN     H11      HGA3     0.090000        1.0080           0
     56885 WT18     1211     MECN     H12      HGA3     0.090000        1.0080           0
     56886 WT18     1211     MECN     H13      HGA3     0.090000        1.0080           0
     56887 WT18     1211     MECN     C2       CG1N1    0.360000       12.0110           0
     56888 WT18     1211     MECN     N3       NG1T1   -0.460000       14.0070           0
     56889 WT18     1213     MECN     C1       CG331   -0.170000       12.0110           0
     56890 WT18     1213     MECN     H11      HGA3     0.090000        1.0080           0
     56891 WT18     1213     MECN     H12      HGA3     0.090000        1.0080           0
     56892 WT18     1213     MECN     H13      HGA3     0.090000        1.0080           0
     56893 WT18     1213     MECN     C2       CG1N1    0.360000       12.0110           0
     56894 WT18     1213     MECN     N3       NG1T1   -0.460000       14.0070           0
     56895 WT18     1215     MECN     C1       CG331   -0.170000       12.0110           0
     56896 WT18     1215     MECN     H11      HGA3     0.090000        1.0080           0
     56897 WT18     1215     MECN     H12      HGA3     0.090000        1.0080           0
     56898 WT18     1215     MECN     H13      HGA3     0.090000        1.0080           0
     56899 WT18     1215     MECN     C2       CG1N1    0.360000       12.0110           0
     56900 WT18     1215     MECN     N3       NG1T1   -0.460000       14.0070           0
     56901 WT18     1216     MECN     C1       CG331   -0.170000       12.0110           0
     56902 WT18     1216     MECN     H11      HGA3     0.090000        1.0080           0
     56903 WT18     1216     MECN     H12      HGA3     0.090000        1.0080           0
     56904 WT18     1216     MECN     H13      HGA3     0.090000        1.0080           0
     56905 WT18     1216     MECN     C2       CG1N1    0.360000       12.0110           0
     56906 WT18     1216     MECN     N3       NG1T1   -0.460000       14.0070           0
     56907 WT18     1217     MECN     C1       CG331   -0.170000       12.0110           0
     56908 WT18     1217     MECN     H11      HGA3     0.090000        1.0080           0
     56909 WT18     1217     MECN     H12      HGA3     0.090000        1.0080           0
     56910 WT18     1217     MECN     H13      HGA3     0.090000        1.0080           0
     56911 WT18     1217     MECN     C2       CG1N1    0.360000       12.0110           0
     56912 WT18     1217     MECN     N3       NG1T1   -0.460000       14.0070           0
     56913 WT18     1220     MECN     C1       CG331   -0.170000       12.0110           0
     56914 WT18     1220     MECN     H11      HGA3     0.090000        1.0080           0
     56915 WT18     1220     MECN     H12      HGA3     0.090000        1.0080           0
     56916 WT18     1220     MECN     H13      HGA3     0.090000        1.0080           0
     56917 WT18     1220     MECN     C2       CG1N1    0.360000       12.0110           0
     56918 WT18     1220     MECN     N3       NG1T1   -0.460000       14.0070           0
     56919 WT18     1221     MECN     C1       CG331   -0.170000       12.0110           0
     56920 WT18     1221     MECN     H11      HGA3     0.090000        1.0080           0
     56921 WT18     1221     MECN     H12      HGA3     0.090000        1.0080           0
     56922 WT18     1221     MECN     H13      HGA3     0.090000        1.0080           0
     56923 WT18     1221     MECN     C2       CG1N1    0.360000       12.0110           0
     56924 WT18     1221     MECN     N3       NG1T1   -0.460000       14.0070           0
     56925 WT18     1222     MECN     C1       CG331   -0.170000       12.0110           0
     56926 WT18     1222     MECN     H11      HGA3     0.090000        1.0080           0
     56927 WT18     1222     MECN     H12      HGA3     0.090000        1.0080           0
     56928 WT18     1222     MECN     H13      HGA3     0.090000        1.0080           0
     56929 WT18     1222     MECN     C2       CG1N1    0.360000       12.0110           0
     56930 WT18     1222     MECN     N3       NG1T1   -0.460000       14.0070           0
     56931 WT18     1224     MECN     C1       CG331   -0.170000       12.0110           0
     56932 WT18     1224     MECN     H11      HGA3     0.090000        1.0080           0
     56933 WT18     1224     MECN     H12      HGA3     0.090000        1.0080           0
     56934 WT18     1224     MECN     H13      HGA3     0.090000        1.0080           0
     56935 WT18     1224     MECN     C2       CG1N1    0.360000       12.0110           0
     56936 WT18     1224     MECN     N3       NG1T1   -0.460000       14.0070           0
     56937 WT18     1225     MECN     C1       CG331   -0.170000       12.0110           0
     56938 WT18     1225     MECN     H11      HGA3     0.090000        1.0080           0
     56939 WT18     1225     MECN     H12      HGA3     0.090000        1.0080           0
     56940 WT18     1225     MECN     H13      HGA3     0.090000        1.0080           0
     56941 WT18     1225     MECN     C2       CG1N1    0.360000       12.0110           0
     56942 WT18     1225     MECN     N3       NG1T1   -0.460000       14.0070           0
     56943 WT18     1226     MECN     C1       CG331   -0.170000       12.0110           0
     56944 WT18     1226     MECN     H11      HGA3     0.090000        1.0080           0
     56945 WT18     1226     MECN     H12      HGA3     0.090000        1.0080           0
     56946 WT18     1226     MECN     H13      HGA3     0.090000        1.0080           0
     56947 WT18     1226     MECN     C2       CG1N1    0.360000       12.0110           0
     56948 WT18     1226     MECN     N3       NG1T1   -0.460000       14.0070           0
     56949 WT18     1227     MECN     C1       CG331   -0.170000       12.0110           0
     56950 WT18     1227     MECN     H11      HGA3     0.090000        1.0080           0
     56951 WT18     1227     MECN     H12      HGA3     0.090000        1.0080           0
     56952 WT18     1227     MECN     H13      HGA3     0.090000        1.0080           0
     56953 WT18     1227     MECN     C2       CG1N1    0.360000       12.0110           0
     56954 WT18     1227     MECN     N3       NG1T1   -0.460000       14.0070           0
     56955 WT18     1233     MECN     C1       CG331   -0.170000       12.0110           0
     56956 WT18     1233     MECN     H11      HGA3     0.090000        1.0080           0
     56957 WT18     1233     MECN     H12      HGA3     0.090000        1.0080           0
     56958 WT18     1233     MECN     H13      HGA3     0.090000        1.0080           0
     56959 WT18     1233     MECN     C2       CG1N1    0.360000       12.0110           0
     56960 WT18     1233     MECN     N3       NG1T1   -0.460000       14.0070           0
     56961 WT18     1234     MECN     C1       CG331   -0.170000       12.0110           0
     56962 WT18     1234     MECN     H11      HGA3     0.090000        1.0080           0
     56963 WT18     1234     MECN     H12      HGA3     0.090000        1.0080           0
     56964 WT18     1234     MECN     H13      HGA3     0.090000        1.0080           0
     56965 WT18     1234     MECN     C2       CG1N1    0.360000       12.0110           0
     56966 WT18     1234     MECN     N3       NG1T1   -0.460000       14.0070           0
     56967 WT18     1235     MECN     C1       CG331   -0.170000       12.0110           0
     56968 WT18     1235     MECN     H11      HGA3     0.090000        1.0080           0
     56969 WT18     1235     MECN     H12      HGA3     0.090000        1.0080           0
     56970 WT18     1235     MECN     H13      HGA3     0.090000        1.0080           0
     56971 WT18     1235     MECN     C2       CG1N1    0.360000       12.0110           0
     56972 WT18     1235     MECN     N3       NG1T1   -0.460000       14.0070           0
     56973 WT18     1237     MECN     C1       CG331   -0.170000       12.0110           0
     56974 WT18     1237     MECN     H11      HGA3     0.090000        1.0080           0
     56975 WT18     1237     MECN     H12      HGA3     0.090000        1.0080           0
     56976 WT18     1237     MECN     H13      HGA3     0.090000        1.0080           0
     56977 WT18     1237     MECN     C2       CG1N1    0.360000       12.0110           0
     56978 WT18     1237     MECN     N3       NG1T1   -0.460000       14.0070           0
     56979 WT18     1240     MECN     C1       CG331   -0.170000       12.0110           0
     56980 WT18     1240     MECN     H11      HGA3     0.090000        1.0080           0
     56981 WT18     1240     MECN     H12      HGA3     0.090000        1.0080           0
     56982 WT18     1240     MECN     H13      HGA3     0.090000        1.0080           0
     56983 WT18     1240     MECN     C2       CG1N1    0.360000       12.0110           0
     56984 WT18     1240     MECN     N3       NG1T1   -0.460000       14.0070           0
     56985 WT18     1241     MECN     C1       CG331   -0.170000       12.0110           0
     56986 WT18     1241     MECN     H11      HGA3     0.090000        1.0080           0
     56987 WT18     1241     MECN     H12      HGA3     0.090000        1.0080           0
     56988 WT18     1241     MECN     H13      HGA3     0.090000        1.0080           0
     56989 WT18     1241     MECN     C2       CG1N1    0.360000       12.0110           0
     56990 WT18     1241     MECN     N3       NG1T1   -0.460000       14.0070           0
     56991 WT18     1243     MECN     C1       CG331   -0.170000       12.0110           0
     56992 WT18     1243     MECN     H11      HGA3     0.090000        1.0080           0
     56993 WT18     1243     MECN     H12      HGA3     0.090000        1.0080           0
     56994 WT18     1243     MECN     H13      HGA3     0.090000        1.0080           0
     56995 WT18     1243     MECN     C2       CG1N1    0.360000       12.0110           0
     56996 WT18     1243     MECN     N3       NG1T1   -0.460000       14.0070           0
     56997 WT18     1244     MECN     C1       CG331   -0.170000       12.0110           0
     56998 WT18     1244     MECN     H11      HGA3     0.090000        1.0080           0
     56999 WT18     1244     MECN     H12      HGA3     0.090000        1.0080           0
     57000 WT18     1244     MECN     H13      HGA3     0.090000        1.0080           0
     57001 WT18     1244     MECN     C2       CG1N1    0.360000       12.0110           0
     57002 WT18     1244     MECN     N3       NG1T1   -0.460000       14.0070           0
     57003 WT18     1245     MECN     C1       CG331   -0.170000       12.0110           0
     57004 WT18     1245     MECN     H11      HGA3     0.090000        1.0080           0
     57005 WT18     1245     MECN     H12      HGA3     0.090000        1.0080           0
     57006 WT18     1245     MECN     H13      HGA3     0.090000        1.0080           0
     57007 WT18     1245     MECN     C2       CG1N1    0.360000       12.0110           0
     57008 WT18     1245     MECN     N3       NG1T1   -0.460000       14.0070           0
     57009 WT18     1247     MECN     C1       CG331   -0.170000       12.0110           0
     57010 WT18     1247     MECN     H11      HGA3     0.090000        1.0080           0
     57011 WT18     1247     MECN     H12      HGA3     0.090000        1.0080           0
     57012 WT18     1247     MECN     H13      HGA3     0.090000        1.0080           0
     57013 WT18     1247     MECN     C2       CG1N1    0.360000       12.0110           0
     57014 WT18     1247     MECN     N3       NG1T1   -0.460000       14.0070           0
     57015 WT18     1248     MECN     C1       CG331   -0.170000       12.0110           0
     57016 WT18     1248     MECN     H11      HGA3     0.090000        1.0080           0
     57017 WT18     1248     MECN     H12      HGA3     0.090000        1.0080           0
     57018 WT18     1248     MECN     H13      HGA3     0.090000        1.0080           0
     57019 WT18     1248     MECN     C2       CG1N1    0.360000       12.0110           0
     57020 WT18     1248     MECN     N3       NG1T1   -0.460000       14.0070           0
     57021 WT18     1250     MECN     C1       CG331   -0.170000       12.0110           0
     57022 WT18     1250     MECN     H11      HGA3     0.090000        1.0080           0
     57023 WT18     1250     MECN     H12      HGA3     0.090000        1.0080           0
     57024 WT18     1250     MECN     H13      HGA3     0.090000        1.0080           0
     57025 WT18     1250     MECN     C2       CG1N1    0.360000       12.0110           0
     57026 WT18     1250     MECN     N3       NG1T1   -0.460000       14.0070           0
     57027 WT18     1251     MECN     C1       CG331   -0.170000       12.0110           0
     57028 WT18     1251     MECN     H11      HGA3     0.090000        1.0080           0
     57029 WT18     1251     MECN     H12      HGA3     0.090000        1.0080           0
     57030 WT18     1251     MECN     H13      HGA3     0.090000        1.0080           0
     57031 WT18     1251     MECN     C2       CG1N1    0.360000       12.0110           0
     57032 WT18     1251     MECN     N3       NG1T1   -0.460000       14.0070           0
     57033 WT18     1254     MECN     C1       CG331   -0.170000       12.0110           0
     57034 WT18     1254     MECN     H11      HGA3     0.090000        1.0080           0
     57035 WT18     1254     MECN     H12      HGA3     0.090000        1.0080           0
     57036 WT18     1254     MECN     H13      HGA3     0.090000        1.0080           0
     57037 WT18     1254     MECN     C2       CG1N1    0.360000       12.0110           0
     57038 WT18     1254     MECN     N3       NG1T1   -0.460000       14.0070           0
     57039 WT18     1255     MECN     C1       CG331   -0.170000       12.0110           0
     57040 WT18     1255     MECN     H11      HGA3     0.090000        1.0080           0
     57041 WT18     1255     MECN     H12      HGA3     0.090000        1.0080           0
     57042 WT18     1255     MECN     H13      HGA3     0.090000        1.0080           0
     57043 WT18     1255     MECN     C2       CG1N1    0.360000       12.0110           0
     57044 WT18     1255     MECN     N3       NG1T1   -0.460000       14.0070           0
     57045 WT18     1258     MECN     C1       CG331   -0.170000       12.0110           0
     57046 WT18     1258     MECN     H11      HGA3     0.090000        1.0080           0
     57047 WT18     1258     MECN     H12      HGA3     0.090000        1.0080           0
     57048 WT18     1258     MECN     H13      HGA3     0.090000        1.0080           0
     57049 WT18     1258     MECN     C2       CG1N1    0.360000       12.0110           0
     57050 WT18     1258     MECN     N3       NG1T1   -0.460000       14.0070           0
     57051 WT18     1260     MECN     C1       CG331   -0.170000       12.0110           0
     57052 WT18     1260     MECN     H11      HGA3     0.090000        1.0080           0
     57053 WT18     1260     MECN     H12      HGA3     0.090000        1.0080           0
     57054 WT18     1260     MECN     H13      HGA3     0.090000        1.0080           0
     57055 WT18     1260     MECN     C2       CG1N1    0.360000       12.0110           0
     57056 WT18     1260     MECN     N3       NG1T1   -0.460000       14.0070           0
     57057 WT18     1262     MECN     C1       CG331   -0.170000       12.0110           0
     57058 WT18     1262     MECN     H11      HGA3     0.090000        1.0080           0
     57059 WT18     1262     MECN     H12      HGA3     0.090000        1.0080           0
     57060 WT18     1262     MECN     H13      HGA3     0.090000        1.0080           0
     57061 WT18     1262     MECN     C2       CG1N1    0.360000       12.0110           0
     57062 WT18     1262     MECN     N3       NG1T1   -0.460000       14.0070           0
     57063 WT18     1263     MECN     C1       CG331   -0.170000       12.0110           0
     57064 WT18     1263     MECN     H11      HGA3     0.090000        1.0080           0
     57065 WT18     1263     MECN     H12      HGA3     0.090000        1.0080           0
     57066 WT18     1263     MECN     H13      HGA3     0.090000        1.0080           0
     57067 WT18     1263     MECN     C2       CG1N1    0.360000       12.0110           0
     57068 WT18     1263     MECN     N3       NG1T1   -0.460000       14.0070           0
     57069 WT18     1264     MECN     C1       CG331   -0.170000       12.0110           0
     57070 WT18     1264     MECN     H11      HGA3     0.090000        1.0080           0
     57071 WT18     1264     MECN     H12      HGA3     0.090000        1.0080           0
     57072 WT18     1264     MECN     H13      HGA3     0.090000        1.0080           0
     57073 WT18     1264     MECN     C2       CG1N1    0.360000       12.0110           0
     57074 WT18     1264     MECN     N3       NG1T1   -0.460000       14.0070           0
     57075 WT18     1265     MECN     C1       CG331   -0.170000       12.0110           0
     57076 WT18     1265     MECN     H11      HGA3     0.090000        1.0080           0
     57077 WT18     1265     MECN     H12      HGA3     0.090000        1.0080           0
     57078 WT18     1265     MECN     H13      HGA3     0.090000        1.0080           0
     57079 WT18     1265     MECN     C2       CG1N1    0.360000       12.0110           0
     57080 WT18     1265     MECN     N3       NG1T1   -0.460000       14.0070           0
     57081 WT18     1268     MECN     C1       CG331   -0.170000       12.0110           0
     57082 WT18     1268     MECN     H11      HGA3     0.090000        1.0080           0
     57083 WT18     1268     MECN     H12      HGA3     0.090000        1.0080           0
     57084 WT18     1268     MECN     H13      HGA3     0.090000        1.0080           0
     57085 WT18     1268     MECN     C2       CG1N1    0.360000       12.0110           0
     57086 WT18     1268     MECN     N3       NG1T1   -0.460000       14.0070           0
     57087 WT18     1272     MECN     C1       CG331   -0.170000       12.0110           0
     57088 WT18     1272     MECN     H11      HGA3     0.090000        1.0080           0
     57089 WT18     1272     MECN     H12      HGA3     0.090000        1.0080           0
     57090 WT18     1272     MECN     H13      HGA3     0.090000        1.0080           0
     57091 WT18     1272     MECN     C2       CG1N1    0.360000       12.0110           0
     57092 WT18     1272     MECN     N3       NG1T1   -0.460000       14.0070           0
     57093 WT18     1277     MECN     C1       CG331   -0.170000       12.0110           0
     57094 WT18     1277     MECN     H11      HGA3     0.090000        1.0080           0
     57095 WT18     1277     MECN     H12      HGA3     0.090000        1.0080           0
     57096 WT18     1277     MECN     H13      HGA3     0.090000        1.0080           0
     57097 WT18     1277     MECN     C2       CG1N1    0.360000       12.0110           0
     57098 WT18     1277     MECN     N3       NG1T1   -0.460000       14.0070           0
     57099 WT18     1280     MECN     C1       CG331   -0.170000       12.0110           0
     57100 WT18     1280     MECN     H11      HGA3     0.090000        1.0080           0
     57101 WT18     1280     MECN     H12      HGA3     0.090000        1.0080           0
     57102 WT18     1280     MECN     H13      HGA3     0.090000        1.0080           0
     57103 WT18     1280     MECN     C2       CG1N1    0.360000       12.0110           0
     57104 WT18     1280     MECN     N3       NG1T1   -0.460000       14.0070           0
     57105 WT18     1282     MECN     C1       CG331   -0.170000       12.0110           0
     57106 WT18     1282     MECN     H11      HGA3     0.090000        1.0080           0
     57107 WT18     1282     MECN     H12      HGA3     0.090000        1.0080           0
     57108 WT18     1282     MECN     H13      HGA3     0.090000        1.0080           0
     57109 WT18     1282     MECN     C2       CG1N1    0.360000       12.0110           0
     57110 WT18     1282     MECN     N3       NG1T1   -0.460000       14.0070           0
     57111 WT18     1283     MECN     C1       CG331   -0.170000       12.0110           0
     57112 WT18     1283     MECN     H11      HGA3     0.090000        1.0080           0
     57113 WT18     1283     MECN     H12      HGA3     0.090000        1.0080           0
     57114 WT18     1283     MECN     H13      HGA3     0.090000        1.0080           0
     57115 WT18     1283     MECN     C2       CG1N1    0.360000       12.0110           0
     57116 WT18     1283     MECN     N3       NG1T1   -0.460000       14.0070           0
     57117 WT18     1285     MECN     C1       CG331   -0.170000       12.0110           0
     57118 WT18     1285     MECN     H11      HGA3     0.090000        1.0080           0
     57119 WT18     1285     MECN     H12      HGA3     0.090000        1.0080           0
     57120 WT18     1285     MECN     H13      HGA3     0.090000        1.0080           0
     57121 WT18     1285     MECN     C2       CG1N1    0.360000       12.0110           0
     57122 WT18     1285     MECN     N3       NG1T1   -0.460000       14.0070           0
     57123 WT18     1297     MECN     C1       CG331   -0.170000       12.0110           0
     57124 WT18     1297     MECN     H11      HGA3     0.090000        1.0080           0
     57125 WT18     1297     MECN     H12      HGA3     0.090000        1.0080           0
     57126 WT18     1297     MECN     H13      HGA3     0.090000        1.0080           0
     57127 WT18     1297     MECN     C2       CG1N1    0.360000       12.0110           0
     57128 WT18     1297     MECN     N3       NG1T1   -0.460000       14.0070           0
     57129 WT18     1301     MECN     C1       CG331   -0.170000       12.0110           0
     57130 WT18     1301     MECN     H11      HGA3     0.090000        1.0080           0
     57131 WT18     1301     MECN     H12      HGA3     0.090000        1.0080           0
     57132 WT18     1301     MECN     H13      HGA3     0.090000        1.0080           0
     57133 WT18     1301     MECN     C2       CG1N1    0.360000       12.0110           0
     57134 WT18     1301     MECN     N3       NG1T1   -0.460000       14.0070           0
     57135 WT18     1305     MECN     C1       CG331   -0.170000       12.0110           0
     57136 WT18     1305     MECN     H11      HGA3     0.090000        1.0080           0
     57137 WT18     1305     MECN     H12      HGA3     0.090000        1.0080           0
     57138 WT18     1305     MECN     H13      HGA3     0.090000        1.0080           0
     57139 WT18     1305     MECN     C2       CG1N1    0.360000       12.0110           0
     57140 WT18     1305     MECN     N3       NG1T1   -0.460000       14.0070           0
     57141 WT18     1309     MECN     C1       CG331   -0.170000       12.0110           0
     57142 WT18     1309     MECN     H11      HGA3     0.090000        1.0080           0
     57143 WT18     1309     MECN     H12      HGA3     0.090000        1.0080           0
     57144 WT18     1309     MECN     H13      HGA3     0.090000        1.0080           0
     57145 WT18     1309     MECN     C2       CG1N1    0.360000       12.0110           0
     57146 WT18     1309     MECN     N3       NG1T1   -0.460000       14.0070           0
     57147 WT18     1311     MECN     C1       CG331   -0.170000       12.0110           0
     57148 WT18     1311     MECN     H11      HGA3     0.090000        1.0080           0
     57149 WT18     1311     MECN     H12      HGA3     0.090000        1.0080           0
     57150 WT18     1311     MECN     H13      HGA3     0.090000        1.0080           0
     57151 WT18     1311     MECN     C2       CG1N1    0.360000       12.0110           0
     57152 WT18     1311     MECN     N3       NG1T1   -0.460000       14.0070           0
     57153 WT18     1312     MECN     C1       CG331   -0.170000       12.0110           0
     57154 WT18     1312     MECN     H11      HGA3     0.090000        1.0080           0
     57155 WT18     1312     MECN     H12      HGA3     0.090000        1.0080           0
     57156 WT18     1312     MECN     H13      HGA3     0.090000        1.0080           0
     57157 WT18     1312     MECN     C2       CG1N1    0.360000       12.0110           0
     57158 WT18     1312     MECN     N3       NG1T1   -0.460000       14.0070           0
     57159 WT18     1314     MECN     C1       CG331   -0.170000       12.0110           0
     57160 WT18     1314     MECN     H11      HGA3     0.090000        1.0080           0
     57161 WT18     1314     MECN     H12      HGA3     0.090000        1.0080           0
     57162 WT18     1314     MECN     H13      HGA3     0.090000        1.0080           0
     57163 WT18     1314     MECN     C2       CG1N1    0.360000       12.0110           0
     57164 WT18     1314     MECN     N3       NG1T1   -0.460000       14.0070           0
     57165 WT18     1318     MECN     C1       CG331   -0.170000       12.0110           0
     57166 WT18     1318     MECN     H11      HGA3     0.090000        1.0080           0
     57167 WT18     1318     MECN     H12      HGA3     0.090000        1.0080           0
     57168 WT18     1318     MECN     H13      HGA3     0.090000        1.0080           0
     57169 WT18     1318     MECN     C2       CG1N1    0.360000       12.0110           0
     57170 WT18     1318     MECN     N3       NG1T1   -0.460000       14.0070           0
     57171 WT18     1319     MECN     C1       CG331   -0.170000       12.0110           0
     57172 WT18     1319     MECN     H11      HGA3     0.090000        1.0080           0
     57173 WT18     1319     MECN     H12      HGA3     0.090000        1.0080           0
     57174 WT18     1319     MECN     H13      HGA3     0.090000        1.0080           0
     57175 WT18     1319     MECN     C2       CG1N1    0.360000       12.0110           0
     57176 WT18     1319     MECN     N3       NG1T1   -0.460000       14.0070           0
     57177 WT18     1320     MECN     C1       CG331   -0.170000       12.0110           0
     57178 WT18     1320     MECN     H11      HGA3     0.090000        1.0080           0
     57179 WT18     1320     MECN     H12      HGA3     0.090000        1.0080           0
     57180 WT18     1320     MECN     H13      HGA3     0.090000        1.0080           0
     57181 WT18     1320     MECN     C2       CG1N1    0.360000       12.0110           0
     57182 WT18     1320     MECN     N3       NG1T1   -0.460000       14.0070           0
     57183 WT18     1324     MECN     C1       CG331   -0.170000       12.0110           0
     57184 WT18     1324     MECN     H11      HGA3     0.090000        1.0080           0
     57185 WT18     1324     MECN     H12      HGA3     0.090000        1.0080           0
     57186 WT18     1324     MECN     H13      HGA3     0.090000        1.0080           0
     57187 WT18     1324     MECN     C2       CG1N1    0.360000       12.0110           0
     57188 WT18     1324     MECN     N3       NG1T1   -0.460000       14.0070           0
     57189 WT18     1327     MECN     C1       CG331   -0.170000       12.0110           0
     57190 WT18     1327     MECN     H11      HGA3     0.090000        1.0080           0
     57191 WT18     1327     MECN     H12      HGA3     0.090000        1.0080           0
     57192 WT18     1327     MECN     H13      HGA3     0.090000        1.0080           0
     57193 WT18     1327     MECN     C2       CG1N1    0.360000       12.0110           0
     57194 WT18     1327     MECN     N3       NG1T1   -0.460000       14.0070           0
     57195 WT18     1328     MECN     C1       CG331   -0.170000       12.0110           0
     57196 WT18     1328     MECN     H11      HGA3     0.090000        1.0080           0
     57197 WT18     1328     MECN     H12      HGA3     0.090000        1.0080           0
     57198 WT18     1328     MECN     H13      HGA3     0.090000        1.0080           0
     57199 WT18     1328     MECN     C2       CG1N1    0.360000       12.0110           0
     57200 WT18     1328     MECN     N3       NG1T1   -0.460000       14.0070           0
     57201 WT18     1329     MECN     C1       CG331   -0.170000       12.0110           0
     57202 WT18     1329     MECN     H11      HGA3     0.090000        1.0080           0
     57203 WT18     1329     MECN     H12      HGA3     0.090000        1.0080           0
     57204 WT18     1329     MECN     H13      HGA3     0.090000        1.0080           0
     57205 WT18     1329     MECN     C2       CG1N1    0.360000       12.0110           0
     57206 WT18     1329     MECN     N3       NG1T1   -0.460000       14.0070           0
     57207 WT18     1331     MECN     C1       CG331   -0.170000       12.0110           0
     57208 WT18     1331     MECN     H11      HGA3     0.090000        1.0080           0
     57209 WT18     1331     MECN     H12      HGA3     0.090000        1.0080           0
     57210 WT18     1331     MECN     H13      HGA3     0.090000        1.0080           0
     57211 WT18     1331     MECN     C2       CG1N1    0.360000       12.0110           0
     57212 WT18     1331     MECN     N3       NG1T1   -0.460000       14.0070           0
     57213 WT19     7        MECN     C1       CG331   -0.170000       12.0110           0
     57214 WT19     7        MECN     H11      HGA3     0.090000        1.0080           0
     57215 WT19     7        MECN     H12      HGA3     0.090000        1.0080           0
     57216 WT19     7        MECN     H13      HGA3     0.090000        1.0080           0
     57217 WT19     7        MECN     C2       CG1N1    0.360000       12.0110           0
     57218 WT19     7        MECN     N3       NG1T1   -0.460000       14.0070           0
     57219 WT19     9        MECN     C1       CG331   -0.170000       12.0110           0
     57220 WT19     9        MECN     H11      HGA3     0.090000        1.0080           0
     57221 WT19     9        MECN     H12      HGA3     0.090000        1.0080           0
     57222 WT19     9        MECN     H13      HGA3     0.090000        1.0080           0
     57223 WT19     9        MECN     C2       CG1N1    0.360000       12.0110           0
     57224 WT19     9        MECN     N3       NG1T1   -0.460000       14.0070           0
     57225 WT19     23       MECN     C1       CG331   -0.170000       12.0110           0
     57226 WT19     23       MECN     H11      HGA3     0.090000        1.0080           0
     57227 WT19     23       MECN     H12      HGA3     0.090000        1.0080           0
     57228 WT19     23       MECN     H13      HGA3     0.090000        1.0080           0
     57229 WT19     23       MECN     C2       CG1N1    0.360000       12.0110           0
     57230 WT19     23       MECN     N3       NG1T1   -0.460000       14.0070           0
     57231 WT19     38       MECN     C1       CG331   -0.170000       12.0110           0
     57232 WT19     38       MECN     H11      HGA3     0.090000        1.0080           0
     57233 WT19     38       MECN     H12      HGA3     0.090000        1.0080           0
     57234 WT19     38       MECN     H13      HGA3     0.090000        1.0080           0
     57235 WT19     38       MECN     C2       CG1N1    0.360000       12.0110           0
     57236 WT19     38       MECN     N3       NG1T1   -0.460000       14.0070           0
     57237 WT19     50       MECN     C1       CG331   -0.170000       12.0110           0
     57238 WT19     50       MECN     H11      HGA3     0.090000        1.0080           0
     57239 WT19     50       MECN     H12      HGA3     0.090000        1.0080           0
     57240 WT19     50       MECN     H13      HGA3     0.090000        1.0080           0
     57241 WT19     50       MECN     C2       CG1N1    0.360000       12.0110           0
     57242 WT19     50       MECN     N3       NG1T1   -0.460000       14.0070           0
     57243 WT19     52       MECN     C1       CG331   -0.170000       12.0110           0
     57244 WT19     52       MECN     H11      HGA3     0.090000        1.0080           0
     57245 WT19     52       MECN     H12      HGA3     0.090000        1.0080           0
     57246 WT19     52       MECN     H13      HGA3     0.090000        1.0080           0
     57247 WT19     52       MECN     C2       CG1N1    0.360000       12.0110           0
     57248 WT19     52       MECN     N3       NG1T1   -0.460000       14.0070           0
     57249 WT19     56       MECN     C1       CG331   -0.170000       12.0110           0
     57250 WT19     56       MECN     H11      HGA3     0.090000        1.0080           0
     57251 WT19     56       MECN     H12      HGA3     0.090000        1.0080           0
     57252 WT19     56       MECN     H13      HGA3     0.090000        1.0080           0
     57253 WT19     56       MECN     C2       CG1N1    0.360000       12.0110           0
     57254 WT19     56       MECN     N3       NG1T1   -0.460000       14.0070           0
     57255 WT19     57       MECN     C1       CG331   -0.170000       12.0110           0
     57256 WT19     57       MECN     H11      HGA3     0.090000        1.0080           0
     57257 WT19     57       MECN     H12      HGA3     0.090000        1.0080           0
     57258 WT19     57       MECN     H13      HGA3     0.090000        1.0080           0
     57259 WT19     57       MECN     C2       CG1N1    0.360000       12.0110           0
     57260 WT19     57       MECN     N3       NG1T1   -0.460000       14.0070           0
     57261 WT19     59       MECN     C1       CG331   -0.170000       12.0110           0
     57262 WT19     59       MECN     H11      HGA3     0.090000        1.0080           0
     57263 WT19     59       MECN     H12      HGA3     0.090000        1.0080           0
     57264 WT19     59       MECN     H13      HGA3     0.090000        1.0080           0
     57265 WT19     59       MECN     C2       CG1N1    0.360000       12.0110           0
     57266 WT19     59       MECN     N3       NG1T1   -0.460000       14.0070           0
     57267 WT19     63       MECN     C1       CG331   -0.170000       12.0110           0
     57268 WT19     63       MECN     H11      HGA3     0.090000        1.0080           0
     57269 WT19     63       MECN     H12      HGA3     0.090000        1.0080           0
     57270 WT19     63       MECN     H13      HGA3     0.090000        1.0080           0
     57271 WT19     63       MECN     C2       CG1N1    0.360000       12.0110           0
     57272 WT19     63       MECN     N3       NG1T1   -0.460000       14.0070           0
     57273 WT19     71       MECN     C1       CG331   -0.170000       12.0110           0
     57274 WT19     71       MECN     H11      HGA3     0.090000        1.0080           0
     57275 WT19     71       MECN     H12      HGA3     0.090000        1.0080           0
     57276 WT19     71       MECN     H13      HGA3     0.090000        1.0080           0
     57277 WT19     71       MECN     C2       CG1N1    0.360000       12.0110           0
     57278 WT19     71       MECN     N3       NG1T1   -0.460000       14.0070           0
     57279 WT19     79       MECN     C1       CG331   -0.170000       12.0110           0
     57280 WT19     79       MECN     H11      HGA3     0.090000        1.0080           0
     57281 WT19     79       MECN     H12      HGA3     0.090000        1.0080           0
     57282 WT19     79       MECN     H13      HGA3     0.090000        1.0080           0
     57283 WT19     79       MECN     C2       CG1N1    0.360000       12.0110           0
     57284 WT19     79       MECN     N3       NG1T1   -0.460000       14.0070           0
     57285 WT19     83       MECN     C1       CG331   -0.170000       12.0110           0
     57286 WT19     83       MECN     H11      HGA3     0.090000        1.0080           0
     57287 WT19     83       MECN     H12      HGA3     0.090000        1.0080           0
     57288 WT19     83       MECN     H13      HGA3     0.090000        1.0080           0
     57289 WT19     83       MECN     C2       CG1N1    0.360000       12.0110           0
     57290 WT19     83       MECN     N3       NG1T1   -0.460000       14.0070           0
     57291 WT19     92       MECN     C1       CG331   -0.170000       12.0110           0
     57292 WT19     92       MECN     H11      HGA3     0.090000        1.0080           0
     57293 WT19     92       MECN     H12      HGA3     0.090000        1.0080           0
     57294 WT19     92       MECN     H13      HGA3     0.090000        1.0080           0
     57295 WT19     92       MECN     C2       CG1N1    0.360000       12.0110           0
     57296 WT19     92       MECN     N3       NG1T1   -0.460000       14.0070           0
     57297 WT19     96       MECN     C1       CG331   -0.170000       12.0110           0
     57298 WT19     96       MECN     H11      HGA3     0.090000        1.0080           0
     57299 WT19     96       MECN     H12      HGA3     0.090000        1.0080           0
     57300 WT19     96       MECN     H13      HGA3     0.090000        1.0080           0
     57301 WT19     96       MECN     C2       CG1N1    0.360000       12.0110           0
     57302 WT19     96       MECN     N3       NG1T1   -0.460000       14.0070           0
     57303 WT19     105      MECN     C1       CG331   -0.170000       12.0110           0
     57304 WT19     105      MECN     H11      HGA3     0.090000        1.0080           0
     57305 WT19     105      MECN     H12      HGA3     0.090000        1.0080           0
     57306 WT19     105      MECN     H13      HGA3     0.090000        1.0080           0
     57307 WT19     105      MECN     C2       CG1N1    0.360000       12.0110           0
     57308 WT19     105      MECN     N3       NG1T1   -0.460000       14.0070           0
     57309 WT19     108      MECN     C1       CG331   -0.170000       12.0110           0
     57310 WT19     108      MECN     H11      HGA3     0.090000        1.0080           0
     57311 WT19     108      MECN     H12      HGA3     0.090000        1.0080           0
     57312 WT19     108      MECN     H13      HGA3     0.090000        1.0080           0
     57313 WT19     108      MECN     C2       CG1N1    0.360000       12.0110           0
     57314 WT19     108      MECN     N3       NG1T1   -0.460000       14.0070           0
     57315 WT19     111      MECN     C1       CG331   -0.170000       12.0110           0
     57316 WT19     111      MECN     H11      HGA3     0.090000        1.0080           0
     57317 WT19     111      MECN     H12      HGA3     0.090000        1.0080           0
     57318 WT19     111      MECN     H13      HGA3     0.090000        1.0080           0
     57319 WT19     111      MECN     C2       CG1N1    0.360000       12.0110           0
     57320 WT19     111      MECN     N3       NG1T1   -0.460000       14.0070           0
     57321 WT19     112      MECN     C1       CG331   -0.170000       12.0110           0
     57322 WT19     112      MECN     H11      HGA3     0.090000        1.0080           0
     57323 WT19     112      MECN     H12      HGA3     0.090000        1.0080           0
     57324 WT19     112      MECN     H13      HGA3     0.090000        1.0080           0
     57325 WT19     112      MECN     C2       CG1N1    0.360000       12.0110           0
     57326 WT19     112      MECN     N3       NG1T1   -0.460000       14.0070           0
     57327 WT19     115      MECN     C1       CG331   -0.170000       12.0110           0
     57328 WT19     115      MECN     H11      HGA3     0.090000        1.0080           0
     57329 WT19     115      MECN     H12      HGA3     0.090000        1.0080           0
     57330 WT19     115      MECN     H13      HGA3     0.090000        1.0080           0
     57331 WT19     115      MECN     C2       CG1N1    0.360000       12.0110           0
     57332 WT19     115      MECN     N3       NG1T1   -0.460000       14.0070           0
     57333 WT19     117      MECN     C1       CG331   -0.170000       12.0110           0
     57334 WT19     117      MECN     H11      HGA3     0.090000        1.0080           0
     57335 WT19     117      MECN     H12      HGA3     0.090000        1.0080           0
     57336 WT19     117      MECN     H13      HGA3     0.090000        1.0080           0
     57337 WT19     117      MECN     C2       CG1N1    0.360000       12.0110           0
     57338 WT19     117      MECN     N3       NG1T1   -0.460000       14.0070           0
     57339 WT19     118      MECN     C1       CG331   -0.170000       12.0110           0
     57340 WT19     118      MECN     H11      HGA3     0.090000        1.0080           0
     57341 WT19     118      MECN     H12      HGA3     0.090000        1.0080           0
     57342 WT19     118      MECN     H13      HGA3     0.090000        1.0080           0
     57343 WT19     118      MECN     C2       CG1N1    0.360000       12.0110           0
     57344 WT19     118      MECN     N3       NG1T1   -0.460000       14.0070           0
     57345 WT19     121      MECN     C1       CG331   -0.170000       12.0110           0
     57346 WT19     121      MECN     H11      HGA3     0.090000        1.0080           0
     57347 WT19     121      MECN     H12      HGA3     0.090000        1.0080           0
     57348 WT19     121      MECN     H13      HGA3     0.090000        1.0080           0
     57349 WT19     121      MECN     C2       CG1N1    0.360000       12.0110           0
     57350 WT19     121      MECN     N3       NG1T1   -0.460000       14.0070           0
     57351 WT19     129      MECN     C1       CG331   -0.170000       12.0110           0
     57352 WT19     129      MECN     H11      HGA3     0.090000        1.0080           0
     57353 WT19     129      MECN     H12      HGA3     0.090000        1.0080           0
     57354 WT19     129      MECN     H13      HGA3     0.090000        1.0080           0
     57355 WT19     129      MECN     C2       CG1N1    0.360000       12.0110           0
     57356 WT19     129      MECN     N3       NG1T1   -0.460000       14.0070           0
     57357 WT19     134      MECN     C1       CG331   -0.170000       12.0110           0
     57358 WT19     134      MECN     H11      HGA3     0.090000        1.0080           0
     57359 WT19     134      MECN     H12      HGA3     0.090000        1.0080           0
     57360 WT19     134      MECN     H13      HGA3     0.090000        1.0080           0
     57361 WT19     134      MECN     C2       CG1N1    0.360000       12.0110           0
     57362 WT19     134      MECN     N3       NG1T1   -0.460000       14.0070           0
     57363 WT19     147      MECN     C1       CG331   -0.170000       12.0110           0
     57364 WT19     147      MECN     H11      HGA3     0.090000        1.0080           0
     57365 WT19     147      MECN     H12      HGA3     0.090000        1.0080           0
     57366 WT19     147      MECN     H13      HGA3     0.090000        1.0080           0
     57367 WT19     147      MECN     C2       CG1N1    0.360000       12.0110           0
     57368 WT19     147      MECN     N3       NG1T1   -0.460000       14.0070           0
     57369 WT19     151      MECN     C1       CG331   -0.170000       12.0110           0
     57370 WT19     151      MECN     H11      HGA3     0.090000        1.0080           0
     57371 WT19     151      MECN     H12      HGA3     0.090000        1.0080           0
     57372 WT19     151      MECN     H13      HGA3     0.090000        1.0080           0
     57373 WT19     151      MECN     C2       CG1N1    0.360000       12.0110           0
     57374 WT19     151      MECN     N3       NG1T1   -0.460000       14.0070           0
     57375 WT19     159      MECN     C1       CG331   -0.170000       12.0110           0
     57376 WT19     159      MECN     H11      HGA3     0.090000        1.0080           0
     57377 WT19     159      MECN     H12      HGA3     0.090000        1.0080           0
     57378 WT19     159      MECN     H13      HGA3     0.090000        1.0080           0
     57379 WT19     159      MECN     C2       CG1N1    0.360000       12.0110           0
     57380 WT19     159      MECN     N3       NG1T1   -0.460000       14.0070           0
     57381 WT19     173      MECN     C1       CG331   -0.170000       12.0110           0
     57382 WT19     173      MECN     H11      HGA3     0.090000        1.0080           0
     57383 WT19     173      MECN     H12      HGA3     0.090000        1.0080           0
     57384 WT19     173      MECN     H13      HGA3     0.090000        1.0080           0
     57385 WT19     173      MECN     C2       CG1N1    0.360000       12.0110           0
     57386 WT19     173      MECN     N3       NG1T1   -0.460000       14.0070           0
     57387 WT19     179      MECN     C1       CG331   -0.170000       12.0110           0
     57388 WT19     179      MECN     H11      HGA3     0.090000        1.0080           0
     57389 WT19     179      MECN     H12      HGA3     0.090000        1.0080           0
     57390 WT19     179      MECN     H13      HGA3     0.090000        1.0080           0
     57391 WT19     179      MECN     C2       CG1N1    0.360000       12.0110           0
     57392 WT19     179      MECN     N3       NG1T1   -0.460000       14.0070           0
     57393 WT19     182      MECN     C1       CG331   -0.170000       12.0110           0
     57394 WT19     182      MECN     H11      HGA3     0.090000        1.0080           0
     57395 WT19     182      MECN     H12      HGA3     0.090000        1.0080           0
     57396 WT19     182      MECN     H13      HGA3     0.090000        1.0080           0
     57397 WT19     182      MECN     C2       CG1N1    0.360000       12.0110           0
     57398 WT19     182      MECN     N3       NG1T1   -0.460000       14.0070           0
     57399 WT19     191      MECN     C1       CG331   -0.170000       12.0110           0
     57400 WT19     191      MECN     H11      HGA3     0.090000        1.0080           0
     57401 WT19     191      MECN     H12      HGA3     0.090000        1.0080           0
     57402 WT19     191      MECN     H13      HGA3     0.090000        1.0080           0
     57403 WT19     191      MECN     C2       CG1N1    0.360000       12.0110           0
     57404 WT19     191      MECN     N3       NG1T1   -0.460000       14.0070           0
     57405 WT19     201      MECN     C1       CG331   -0.170000       12.0110           0
     57406 WT19     201      MECN     H11      HGA3     0.090000        1.0080           0
     57407 WT19     201      MECN     H12      HGA3     0.090000        1.0080           0
     57408 WT19     201      MECN     H13      HGA3     0.090000        1.0080           0
     57409 WT19     201      MECN     C2       CG1N1    0.360000       12.0110           0
     57410 WT19     201      MECN     N3       NG1T1   -0.460000       14.0070           0
     57411 WT19     202      MECN     C1       CG331   -0.170000       12.0110           0
     57412 WT19     202      MECN     H11      HGA3     0.090000        1.0080           0
     57413 WT19     202      MECN     H12      HGA3     0.090000        1.0080           0
     57414 WT19     202      MECN     H13      HGA3     0.090000        1.0080           0
     57415 WT19     202      MECN     C2       CG1N1    0.360000       12.0110           0
     57416 WT19     202      MECN     N3       NG1T1   -0.460000       14.0070           0
     57417 WT19     204      MECN     C1       CG331   -0.170000       12.0110           0
     57418 WT19     204      MECN     H11      HGA3     0.090000        1.0080           0
     57419 WT19     204      MECN     H12      HGA3     0.090000        1.0080           0
     57420 WT19     204      MECN     H13      HGA3     0.090000        1.0080           0
     57421 WT19     204      MECN     C2       CG1N1    0.360000       12.0110           0
     57422 WT19     204      MECN     N3       NG1T1   -0.460000       14.0070           0
     57423 WT19     209      MECN     C1       CG331   -0.170000       12.0110           0
     57424 WT19     209      MECN     H11      HGA3     0.090000        1.0080           0
     57425 WT19     209      MECN     H12      HGA3     0.090000        1.0080           0
     57426 WT19     209      MECN     H13      HGA3     0.090000        1.0080           0
     57427 WT19     209      MECN     C2       CG1N1    0.360000       12.0110           0
     57428 WT19     209      MECN     N3       NG1T1   -0.460000       14.0070           0
     57429 WT19     216      MECN     C1       CG331   -0.170000       12.0110           0
     57430 WT19     216      MECN     H11      HGA3     0.090000        1.0080           0
     57431 WT19     216      MECN     H12      HGA3     0.090000        1.0080           0
     57432 WT19     216      MECN     H13      HGA3     0.090000        1.0080           0
     57433 WT19     216      MECN     C2       CG1N1    0.360000       12.0110           0
     57434 WT19     216      MECN     N3       NG1T1   -0.460000       14.0070           0
     57435 WT19     225      MECN     C1       CG331   -0.170000       12.0110           0
     57436 WT19     225      MECN     H11      HGA3     0.090000        1.0080           0
     57437 WT19     225      MECN     H12      HGA3     0.090000        1.0080           0
     57438 WT19     225      MECN     H13      HGA3     0.090000        1.0080           0
     57439 WT19     225      MECN     C2       CG1N1    0.360000       12.0110           0
     57440 WT19     225      MECN     N3       NG1T1   -0.460000       14.0070           0
     57441 WT19     230      MECN     C1       CG331   -0.170000       12.0110           0
     57442 WT19     230      MECN     H11      HGA3     0.090000        1.0080           0
     57443 WT19     230      MECN     H12      HGA3     0.090000        1.0080           0
     57444 WT19     230      MECN     H13      HGA3     0.090000        1.0080           0
     57445 WT19     230      MECN     C2       CG1N1    0.360000       12.0110           0
     57446 WT19     230      MECN     N3       NG1T1   -0.460000       14.0070           0
     57447 WT19     246      MECN     C1       CG331   -0.170000       12.0110           0
     57448 WT19     246      MECN     H11      HGA3     0.090000        1.0080           0
     57449 WT19     246      MECN     H12      HGA3     0.090000        1.0080           0
     57450 WT19     246      MECN     H13      HGA3     0.090000        1.0080           0
     57451 WT19     246      MECN     C2       CG1N1    0.360000       12.0110           0
     57452 WT19     246      MECN     N3       NG1T1   -0.460000       14.0070           0
     57453 WT19     247      MECN     C1       CG331   -0.170000       12.0110           0
     57454 WT19     247      MECN     H11      HGA3     0.090000        1.0080           0
     57455 WT19     247      MECN     H12      HGA3     0.090000        1.0080           0
     57456 WT19     247      MECN     H13      HGA3     0.090000        1.0080           0
     57457 WT19     247      MECN     C2       CG1N1    0.360000       12.0110           0
     57458 WT19     247      MECN     N3       NG1T1   -0.460000       14.0070           0
     57459 WT19     251      MECN     C1       CG331   -0.170000       12.0110           0
     57460 WT19     251      MECN     H11      HGA3     0.090000        1.0080           0
     57461 WT19     251      MECN     H12      HGA3     0.090000        1.0080           0
     57462 WT19     251      MECN     H13      HGA3     0.090000        1.0080           0
     57463 WT19     251      MECN     C2       CG1N1    0.360000       12.0110           0
     57464 WT19     251      MECN     N3       NG1T1   -0.460000       14.0070           0
     57465 WT19     253      MECN     C1       CG331   -0.170000       12.0110           0
     57466 WT19     253      MECN     H11      HGA3     0.090000        1.0080           0
     57467 WT19     253      MECN     H12      HGA3     0.090000        1.0080           0
     57468 WT19     253      MECN     H13      HGA3     0.090000        1.0080           0
     57469 WT19     253      MECN     C2       CG1N1    0.360000       12.0110           0
     57470 WT19     253      MECN     N3       NG1T1   -0.460000       14.0070           0
     57471 WT19     255      MECN     C1       CG331   -0.170000       12.0110           0
     57472 WT19     255      MECN     H11      HGA3     0.090000        1.0080           0
     57473 WT19     255      MECN     H12      HGA3     0.090000        1.0080           0
     57474 WT19     255      MECN     H13      HGA3     0.090000        1.0080           0
     57475 WT19     255      MECN     C2       CG1N1    0.360000       12.0110           0
     57476 WT19     255      MECN     N3       NG1T1   -0.460000       14.0070           0
     57477 WT19     260      MECN     C1       CG331   -0.170000       12.0110           0
     57478 WT19     260      MECN     H11      HGA3     0.090000        1.0080           0
     57479 WT19     260      MECN     H12      HGA3     0.090000        1.0080           0
     57480 WT19     260      MECN     H13      HGA3     0.090000        1.0080           0
     57481 WT19     260      MECN     C2       CG1N1    0.360000       12.0110           0
     57482 WT19     260      MECN     N3       NG1T1   -0.460000       14.0070           0
     57483 WT19     270      MECN     C1       CG331   -0.170000       12.0110           0
     57484 WT19     270      MECN     H11      HGA3     0.090000        1.0080           0
     57485 WT19     270      MECN     H12      HGA3     0.090000        1.0080           0
     57486 WT19     270      MECN     H13      HGA3     0.090000        1.0080           0
     57487 WT19     270      MECN     C2       CG1N1    0.360000       12.0110           0
     57488 WT19     270      MECN     N3       NG1T1   -0.460000       14.0070           0
     57489 WT19     272      MECN     C1       CG331   -0.170000       12.0110           0
     57490 WT19     272      MECN     H11      HGA3     0.090000        1.0080           0
     57491 WT19     272      MECN     H12      HGA3     0.090000        1.0080           0
     57492 WT19     272      MECN     H13      HGA3     0.090000        1.0080           0
     57493 WT19     272      MECN     C2       CG1N1    0.360000       12.0110           0
     57494 WT19     272      MECN     N3       NG1T1   -0.460000       14.0070           0
     57495 WT19     285      MECN     C1       CG331   -0.170000       12.0110           0
     57496 WT19     285      MECN     H11      HGA3     0.090000        1.0080           0
     57497 WT19     285      MECN     H12      HGA3     0.090000        1.0080           0
     57498 WT19     285      MECN     H13      HGA3     0.090000        1.0080           0
     57499 WT19     285      MECN     C2       CG1N1    0.360000       12.0110           0
     57500 WT19     285      MECN     N3       NG1T1   -0.460000       14.0070           0
     57501 WT19     292      MECN     C1       CG331   -0.170000       12.0110           0
     57502 WT19     292      MECN     H11      HGA3     0.090000        1.0080           0
     57503 WT19     292      MECN     H12      HGA3     0.090000        1.0080           0
     57504 WT19     292      MECN     H13      HGA3     0.090000        1.0080           0
     57505 WT19     292      MECN     C2       CG1N1    0.360000       12.0110           0
     57506 WT19     292      MECN     N3       NG1T1   -0.460000       14.0070           0
     57507 WT19     297      MECN     C1       CG331   -0.170000       12.0110           0
     57508 WT19     297      MECN     H11      HGA3     0.090000        1.0080           0
     57509 WT19     297      MECN     H12      HGA3     0.090000        1.0080           0
     57510 WT19     297      MECN     H13      HGA3     0.090000        1.0080           0
     57511 WT19     297      MECN     C2       CG1N1    0.360000       12.0110           0
     57512 WT19     297      MECN     N3       NG1T1   -0.460000       14.0070           0
     57513 WT19     304      MECN     C1       CG331   -0.170000       12.0110           0
     57514 WT19     304      MECN     H11      HGA3     0.090000        1.0080           0
     57515 WT19     304      MECN     H12      HGA3     0.090000        1.0080           0
     57516 WT19     304      MECN     H13      HGA3     0.090000        1.0080           0
     57517 WT19     304      MECN     C2       CG1N1    0.360000       12.0110           0
     57518 WT19     304      MECN     N3       NG1T1   -0.460000       14.0070           0
     57519 WT19     308      MECN     C1       CG331   -0.170000       12.0110           0
     57520 WT19     308      MECN     H11      HGA3     0.090000        1.0080           0
     57521 WT19     308      MECN     H12      HGA3     0.090000        1.0080           0
     57522 WT19     308      MECN     H13      HGA3     0.090000        1.0080           0
     57523 WT19     308      MECN     C2       CG1N1    0.360000       12.0110           0
     57524 WT19     308      MECN     N3       NG1T1   -0.460000       14.0070           0
     57525 WT19     317      MECN     C1       CG331   -0.170000       12.0110           0
     57526 WT19     317      MECN     H11      HGA3     0.090000        1.0080           0
     57527 WT19     317      MECN     H12      HGA3     0.090000        1.0080           0
     57528 WT19     317      MECN     H13      HGA3     0.090000        1.0080           0
     57529 WT19     317      MECN     C2       CG1N1    0.360000       12.0110           0
     57530 WT19     317      MECN     N3       NG1T1   -0.460000       14.0070           0
     57531 WT19     325      MECN     C1       CG331   -0.170000       12.0110           0
     57532 WT19     325      MECN     H11      HGA3     0.090000        1.0080           0
     57533 WT19     325      MECN     H12      HGA3     0.090000        1.0080           0
     57534 WT19     325      MECN     H13      HGA3     0.090000        1.0080           0
     57535 WT19     325      MECN     C2       CG1N1    0.360000       12.0110           0
     57536 WT19     325      MECN     N3       NG1T1   -0.460000       14.0070           0
     57537 WT19     327      MECN     C1       CG331   -0.170000       12.0110           0
     57538 WT19     327      MECN     H11      HGA3     0.090000        1.0080           0
     57539 WT19     327      MECN     H12      HGA3     0.090000        1.0080           0
     57540 WT19     327      MECN     H13      HGA3     0.090000        1.0080           0
     57541 WT19     327      MECN     C2       CG1N1    0.360000       12.0110           0
     57542 WT19     327      MECN     N3       NG1T1   -0.460000       14.0070           0
     57543 WT19     328      MECN     C1       CG331   -0.170000       12.0110           0
     57544 WT19     328      MECN     H11      HGA3     0.090000        1.0080           0
     57545 WT19     328      MECN     H12      HGA3     0.090000        1.0080           0
     57546 WT19     328      MECN     H13      HGA3     0.090000        1.0080           0
     57547 WT19     328      MECN     C2       CG1N1    0.360000       12.0110           0
     57548 WT19     328      MECN     N3       NG1T1   -0.460000       14.0070           0
     57549 WT19     333      MECN     C1       CG331   -0.170000       12.0110           0
     57550 WT19     333      MECN     H11      HGA3     0.090000        1.0080           0
     57551 WT19     333      MECN     H12      HGA3     0.090000        1.0080           0
     57552 WT19     333      MECN     H13      HGA3     0.090000        1.0080           0
     57553 WT19     333      MECN     C2       CG1N1    0.360000       12.0110           0
     57554 WT19     333      MECN     N3       NG1T1   -0.460000       14.0070           0
     57555 WT19     336      MECN     C1       CG331   -0.170000       12.0110           0
     57556 WT19     336      MECN     H11      HGA3     0.090000        1.0080           0
     57557 WT19     336      MECN     H12      HGA3     0.090000        1.0080           0
     57558 WT19     336      MECN     H13      HGA3     0.090000        1.0080           0
     57559 WT19     336      MECN     C2       CG1N1    0.360000       12.0110           0
     57560 WT19     336      MECN     N3       NG1T1   -0.460000       14.0070           0
     57561 WT19     340      MECN     C1       CG331   -0.170000       12.0110           0
     57562 WT19     340      MECN     H11      HGA3     0.090000        1.0080           0
     57563 WT19     340      MECN     H12      HGA3     0.090000        1.0080           0
     57564 WT19     340      MECN     H13      HGA3     0.090000        1.0080           0
     57565 WT19     340      MECN     C2       CG1N1    0.360000       12.0110           0
     57566 WT19     340      MECN     N3       NG1T1   -0.460000       14.0070           0
     57567 WT19     341      MECN     C1       CG331   -0.170000       12.0110           0
     57568 WT19     341      MECN     H11      HGA3     0.090000        1.0080           0
     57569 WT19     341      MECN     H12      HGA3     0.090000        1.0080           0
     57570 WT19     341      MECN     H13      HGA3     0.090000        1.0080           0
     57571 WT19     341      MECN     C2       CG1N1    0.360000       12.0110           0
     57572 WT19     341      MECN     N3       NG1T1   -0.460000       14.0070           0
     57573 WT19     343      MECN     C1       CG331   -0.170000       12.0110           0
     57574 WT19     343      MECN     H11      HGA3     0.090000        1.0080           0
     57575 WT19     343      MECN     H12      HGA3     0.090000        1.0080           0
     57576 WT19     343      MECN     H13      HGA3     0.090000        1.0080           0
     57577 WT19     343      MECN     C2       CG1N1    0.360000       12.0110           0
     57578 WT19     343      MECN     N3       NG1T1   -0.460000       14.0070           0
     57579 WT19     344      MECN     C1       CG331   -0.170000       12.0110           0
     57580 WT19     344      MECN     H11      HGA3     0.090000        1.0080           0
     57581 WT19     344      MECN     H12      HGA3     0.090000        1.0080           0
     57582 WT19     344      MECN     H13      HGA3     0.090000        1.0080           0
     57583 WT19     344      MECN     C2       CG1N1    0.360000       12.0110           0
     57584 WT19     344      MECN     N3       NG1T1   -0.460000       14.0070           0
     57585 WT19     346      MECN     C1       CG331   -0.170000       12.0110           0
     57586 WT19     346      MECN     H11      HGA3     0.090000        1.0080           0
     57587 WT19     346      MECN     H12      HGA3     0.090000        1.0080           0
     57588 WT19     346      MECN     H13      HGA3     0.090000        1.0080           0
     57589 WT19     346      MECN     C2       CG1N1    0.360000       12.0110           0
     57590 WT19     346      MECN     N3       NG1T1   -0.460000       14.0070           0
     57591 WT19     349      MECN     C1       CG331   -0.170000       12.0110           0
     57592 WT19     349      MECN     H11      HGA3     0.090000        1.0080           0
     57593 WT19     349      MECN     H12      HGA3     0.090000        1.0080           0
     57594 WT19     349      MECN     H13      HGA3     0.090000        1.0080           0
     57595 WT19     349      MECN     C2       CG1N1    0.360000       12.0110           0
     57596 WT19     349      MECN     N3       NG1T1   -0.460000       14.0070           0
     57597 WT19     366      MECN     C1       CG331   -0.170000       12.0110           0
     57598 WT19     366      MECN     H11      HGA3     0.090000        1.0080           0
     57599 WT19     366      MECN     H12      HGA3     0.090000        1.0080           0
     57600 WT19     366      MECN     H13      HGA3     0.090000        1.0080           0
     57601 WT19     366      MECN     C2       CG1N1    0.360000       12.0110           0
     57602 WT19     366      MECN     N3       NG1T1   -0.460000       14.0070           0
     57603 WT19     367      MECN     C1       CG331   -0.170000       12.0110           0
     57604 WT19     367      MECN     H11      HGA3     0.090000        1.0080           0
     57605 WT19     367      MECN     H12      HGA3     0.090000        1.0080           0
     57606 WT19     367      MECN     H13      HGA3     0.090000        1.0080           0
     57607 WT19     367      MECN     C2       CG1N1    0.360000       12.0110           0
     57608 WT19     367      MECN     N3       NG1T1   -0.460000       14.0070           0
     57609 WT19     369      MECN     C1       CG331   -0.170000       12.0110           0
     57610 WT19     369      MECN     H11      HGA3     0.090000        1.0080           0
     57611 WT19     369      MECN     H12      HGA3     0.090000        1.0080           0
     57612 WT19     369      MECN     H13      HGA3     0.090000        1.0080           0
     57613 WT19     369      MECN     C2       CG1N1    0.360000       12.0110           0
     57614 WT19     369      MECN     N3       NG1T1   -0.460000       14.0070           0
     57615 WT19     378      MECN     C1       CG331   -0.170000       12.0110           0
     57616 WT19     378      MECN     H11      HGA3     0.090000        1.0080           0
     57617 WT19     378      MECN     H12      HGA3     0.090000        1.0080           0
     57618 WT19     378      MECN     H13      HGA3     0.090000        1.0080           0
     57619 WT19     378      MECN     C2       CG1N1    0.360000       12.0110           0
     57620 WT19     378      MECN     N3       NG1T1   -0.460000       14.0070           0
     57621 WT19     381      MECN     C1       CG331   -0.170000       12.0110           0
     57622 WT19     381      MECN     H11      HGA3     0.090000        1.0080           0
     57623 WT19     381      MECN     H12      HGA3     0.090000        1.0080           0
     57624 WT19     381      MECN     H13      HGA3     0.090000        1.0080           0
     57625 WT19     381      MECN     C2       CG1N1    0.360000       12.0110           0
     57626 WT19     381      MECN     N3       NG1T1   -0.460000       14.0070           0
     57627 WT19     391      MECN     C1       CG331   -0.170000       12.0110           0
     57628 WT19     391      MECN     H11      HGA3     0.090000        1.0080           0
     57629 WT19     391      MECN     H12      HGA3     0.090000        1.0080           0
     57630 WT19     391      MECN     H13      HGA3     0.090000        1.0080           0
     57631 WT19     391      MECN     C2       CG1N1    0.360000       12.0110           0
     57632 WT19     391      MECN     N3       NG1T1   -0.460000       14.0070           0
     57633 WT19     395      MECN     C1       CG331   -0.170000       12.0110           0
     57634 WT19     395      MECN     H11      HGA3     0.090000        1.0080           0
     57635 WT19     395      MECN     H12      HGA3     0.090000        1.0080           0
     57636 WT19     395      MECN     H13      HGA3     0.090000        1.0080           0
     57637 WT19     395      MECN     C2       CG1N1    0.360000       12.0110           0
     57638 WT19     395      MECN     N3       NG1T1   -0.460000       14.0070           0
     57639 WT19     400      MECN     C1       CG331   -0.170000       12.0110           0
     57640 WT19     400      MECN     H11      HGA3     0.090000        1.0080           0
     57641 WT19     400      MECN     H12      HGA3     0.090000        1.0080           0
     57642 WT19     400      MECN     H13      HGA3     0.090000        1.0080           0
     57643 WT19     400      MECN     C2       CG1N1    0.360000       12.0110           0
     57644 WT19     400      MECN     N3       NG1T1   -0.460000       14.0070           0
     57645 WT19     401      MECN     C1       CG331   -0.170000       12.0110           0
     57646 WT19     401      MECN     H11      HGA3     0.090000        1.0080           0
     57647 WT19     401      MECN     H12      HGA3     0.090000        1.0080           0
     57648 WT19     401      MECN     H13      HGA3     0.090000        1.0080           0
     57649 WT19     401      MECN     C2       CG1N1    0.360000       12.0110           0
     57650 WT19     401      MECN     N3       NG1T1   -0.460000       14.0070           0
     57651 WT19     403      MECN     C1       CG331   -0.170000       12.0110           0
     57652 WT19     403      MECN     H11      HGA3     0.090000        1.0080           0
     57653 WT19     403      MECN     H12      HGA3     0.090000        1.0080           0
     57654 WT19     403      MECN     H13      HGA3     0.090000        1.0080           0
     57655 WT19     403      MECN     C2       CG1N1    0.360000       12.0110           0
     57656 WT19     403      MECN     N3       NG1T1   -0.460000       14.0070           0
     57657 WT19     406      MECN     C1       CG331   -0.170000       12.0110           0
     57658 WT19     406      MECN     H11      HGA3     0.090000        1.0080           0
     57659 WT19     406      MECN     H12      HGA3     0.090000        1.0080           0
     57660 WT19     406      MECN     H13      HGA3     0.090000        1.0080           0
     57661 WT19     406      MECN     C2       CG1N1    0.360000       12.0110           0
     57662 WT19     406      MECN     N3       NG1T1   -0.460000       14.0070           0
     57663 WT19     423      MECN     C1       CG331   -0.170000       12.0110           0
     57664 WT19     423      MECN     H11      HGA3     0.090000        1.0080           0
     57665 WT19     423      MECN     H12      HGA3     0.090000        1.0080           0
     57666 WT19     423      MECN     H13      HGA3     0.090000        1.0080           0
     57667 WT19     423      MECN     C2       CG1N1    0.360000       12.0110           0
     57668 WT19     423      MECN     N3       NG1T1   -0.460000       14.0070           0
     57669 WT19     440      MECN     C1       CG331   -0.170000       12.0110           0
     57670 WT19     440      MECN     H11      HGA3     0.090000        1.0080           0
     57671 WT19     440      MECN     H12      HGA3     0.090000        1.0080           0
     57672 WT19     440      MECN     H13      HGA3     0.090000        1.0080           0
     57673 WT19     440      MECN     C2       CG1N1    0.360000       12.0110           0
     57674 WT19     440      MECN     N3       NG1T1   -0.460000       14.0070           0
     57675 WT19     446      MECN     C1       CG331   -0.170000       12.0110           0
     57676 WT19     446      MECN     H11      HGA3     0.090000        1.0080           0
     57677 WT19     446      MECN     H12      HGA3     0.090000        1.0080           0
     57678 WT19     446      MECN     H13      HGA3     0.090000        1.0080           0
     57679 WT19     446      MECN     C2       CG1N1    0.360000       12.0110           0
     57680 WT19     446      MECN     N3       NG1T1   -0.460000       14.0070           0
     57681 WT19     449      MECN     C1       CG331   -0.170000       12.0110           0
     57682 WT19     449      MECN     H11      HGA3     0.090000        1.0080           0
     57683 WT19     449      MECN     H12      HGA3     0.090000        1.0080           0
     57684 WT19     449      MECN     H13      HGA3     0.090000        1.0080           0
     57685 WT19     449      MECN     C2       CG1N1    0.360000       12.0110           0
     57686 WT19     449      MECN     N3       NG1T1   -0.460000       14.0070           0
     57687 WT19     452      MECN     C1       CG331   -0.170000       12.0110           0
     57688 WT19     452      MECN     H11      HGA3     0.090000        1.0080           0
     57689 WT19     452      MECN     H12      HGA3     0.090000        1.0080           0
     57690 WT19     452      MECN     H13      HGA3     0.090000        1.0080           0
     57691 WT19     452      MECN     C2       CG1N1    0.360000       12.0110           0
     57692 WT19     452      MECN     N3       NG1T1   -0.460000       14.0070           0
     57693 WT19     454      MECN     C1       CG331   -0.170000       12.0110           0
     57694 WT19     454      MECN     H11      HGA3     0.090000        1.0080           0
     57695 WT19     454      MECN     H12      HGA3     0.090000        1.0080           0
     57696 WT19     454      MECN     H13      HGA3     0.090000        1.0080           0
     57697 WT19     454      MECN     C2       CG1N1    0.360000       12.0110           0
     57698 WT19     454      MECN     N3       NG1T1   -0.460000       14.0070           0
     57699 WT19     458      MECN     C1       CG331   -0.170000       12.0110           0
     57700 WT19     458      MECN     H11      HGA3     0.090000        1.0080           0
     57701 WT19     458      MECN     H12      HGA3     0.090000        1.0080           0
     57702 WT19     458      MECN     H13      HGA3     0.090000        1.0080           0
     57703 WT19     458      MECN     C2       CG1N1    0.360000       12.0110           0
     57704 WT19     458      MECN     N3       NG1T1   -0.460000       14.0070           0
     57705 WT19     464      MECN     C1       CG331   -0.170000       12.0110           0
     57706 WT19     464      MECN     H11      HGA3     0.090000        1.0080           0
     57707 WT19     464      MECN     H12      HGA3     0.090000        1.0080           0
     57708 WT19     464      MECN     H13      HGA3     0.090000        1.0080           0
     57709 WT19     464      MECN     C2       CG1N1    0.360000       12.0110           0
     57710 WT19     464      MECN     N3       NG1T1   -0.460000       14.0070           0
     57711 WT19     467      MECN     C1       CG331   -0.170000       12.0110           0
     57712 WT19     467      MECN     H11      HGA3     0.090000        1.0080           0
     57713 WT19     467      MECN     H12      HGA3     0.090000        1.0080           0
     57714 WT19     467      MECN     H13      HGA3     0.090000        1.0080           0
     57715 WT19     467      MECN     C2       CG1N1    0.360000       12.0110           0
     57716 WT19     467      MECN     N3       NG1T1   -0.460000       14.0070           0
     57717 WT19     471      MECN     C1       CG331   -0.170000       12.0110           0
     57718 WT19     471      MECN     H11      HGA3     0.090000        1.0080           0
     57719 WT19     471      MECN     H12      HGA3     0.090000        1.0080           0
     57720 WT19     471      MECN     H13      HGA3     0.090000        1.0080           0
     57721 WT19     471      MECN     C2       CG1N1    0.360000       12.0110           0
     57722 WT19     471      MECN     N3       NG1T1   -0.460000       14.0070           0
     57723 WT19     477      MECN     C1       CG331   -0.170000       12.0110           0
     57724 WT19     477      MECN     H11      HGA3     0.090000        1.0080           0
     57725 WT19     477      MECN     H12      HGA3     0.090000        1.0080           0
     57726 WT19     477      MECN     H13      HGA3     0.090000        1.0080           0
     57727 WT19     477      MECN     C2       CG1N1    0.360000       12.0110           0
     57728 WT19     477      MECN     N3       NG1T1   -0.460000       14.0070           0
     57729 WT19     480      MECN     C1       CG331   -0.170000       12.0110           0
     57730 WT19     480      MECN     H11      HGA3     0.090000        1.0080           0
     57731 WT19     480      MECN     H12      HGA3     0.090000        1.0080           0
     57732 WT19     480      MECN     H13      HGA3     0.090000        1.0080           0
     57733 WT19     480      MECN     C2       CG1N1    0.360000       12.0110           0
     57734 WT19     480      MECN     N3       NG1T1   -0.460000       14.0070           0
     57735 WT19     485      MECN     C1       CG331   -0.170000       12.0110           0
     57736 WT19     485      MECN     H11      HGA3     0.090000        1.0080           0
     57737 WT19     485      MECN     H12      HGA3     0.090000        1.0080           0
     57738 WT19     485      MECN     H13      HGA3     0.090000        1.0080           0
     57739 WT19     485      MECN     C2       CG1N1    0.360000       12.0110           0
     57740 WT19     485      MECN     N3       NG1T1   -0.460000       14.0070           0
     57741 WT19     494      MECN     C1       CG331   -0.170000       12.0110           0
     57742 WT19     494      MECN     H11      HGA3     0.090000        1.0080           0
     57743 WT19     494      MECN     H12      HGA3     0.090000        1.0080           0
     57744 WT19     494      MECN     H13      HGA3     0.090000        1.0080           0
     57745 WT19     494      MECN     C2       CG1N1    0.360000       12.0110           0
     57746 WT19     494      MECN     N3       NG1T1   -0.460000       14.0070           0
     57747 WT19     495      MECN     C1       CG331   -0.170000       12.0110           0
     57748 WT19     495      MECN     H11      HGA3     0.090000        1.0080           0
     57749 WT19     495      MECN     H12      HGA3     0.090000        1.0080           0
     57750 WT19     495      MECN     H13      HGA3     0.090000        1.0080           0
     57751 WT19     495      MECN     C2       CG1N1    0.360000       12.0110           0
     57752 WT19     495      MECN     N3       NG1T1   -0.460000       14.0070           0
     57753 WT19     497      MECN     C1       CG331   -0.170000       12.0110           0
     57754 WT19     497      MECN     H11      HGA3     0.090000        1.0080           0
     57755 WT19     497      MECN     H12      HGA3     0.090000        1.0080           0
     57756 WT19     497      MECN     H13      HGA3     0.090000        1.0080           0
     57757 WT19     497      MECN     C2       CG1N1    0.360000       12.0110           0
     57758 WT19     497      MECN     N3       NG1T1   -0.460000       14.0070           0
     57759 WT19     519      MECN     C1       CG331   -0.170000       12.0110           0
     57760 WT19     519      MECN     H11      HGA3     0.090000        1.0080           0
     57761 WT19     519      MECN     H12      HGA3     0.090000        1.0080           0
     57762 WT19     519      MECN     H13      HGA3     0.090000        1.0080           0
     57763 WT19     519      MECN     C2       CG1N1    0.360000       12.0110           0
     57764 WT19     519      MECN     N3       NG1T1   -0.460000       14.0070           0
     57765 WT19     520      MECN     C1       CG331   -0.170000       12.0110           0
     57766 WT19     520      MECN     H11      HGA3     0.090000        1.0080           0
     57767 WT19     520      MECN     H12      HGA3     0.090000        1.0080           0
     57768 WT19     520      MECN     H13      HGA3     0.090000        1.0080           0
     57769 WT19     520      MECN     C2       CG1N1    0.360000       12.0110           0
     57770 WT19     520      MECN     N3       NG1T1   -0.460000       14.0070           0
     57771 WT19     528      MECN     C1       CG331   -0.170000       12.0110           0
     57772 WT19     528      MECN     H11      HGA3     0.090000        1.0080           0
     57773 WT19     528      MECN     H12      HGA3     0.090000        1.0080           0
     57774 WT19     528      MECN     H13      HGA3     0.090000        1.0080           0
     57775 WT19     528      MECN     C2       CG1N1    0.360000       12.0110           0
     57776 WT19     528      MECN     N3       NG1T1   -0.460000       14.0070           0
     57777 WT19     531      MECN     C1       CG331   -0.170000       12.0110           0
     57778 WT19     531      MECN     H11      HGA3     0.090000        1.0080           0
     57779 WT19     531      MECN     H12      HGA3     0.090000        1.0080           0
     57780 WT19     531      MECN     H13      HGA3     0.090000        1.0080           0
     57781 WT19     531      MECN     C2       CG1N1    0.360000       12.0110           0
     57782 WT19     531      MECN     N3       NG1T1   -0.460000       14.0070           0
     57783 WT19     544      MECN     C1       CG331   -0.170000       12.0110           0
     57784 WT19     544      MECN     H11      HGA3     0.090000        1.0080           0
     57785 WT19     544      MECN     H12      HGA3     0.090000        1.0080           0
     57786 WT19     544      MECN     H13      HGA3     0.090000        1.0080           0
     57787 WT19     544      MECN     C2       CG1N1    0.360000       12.0110           0
     57788 WT19     544      MECN     N3       NG1T1   -0.460000       14.0070           0
     57789 WT19     553      MECN     C1       CG331   -0.170000       12.0110           0
     57790 WT19     553      MECN     H11      HGA3     0.090000        1.0080           0
     57791 WT19     553      MECN     H12      HGA3     0.090000        1.0080           0
     57792 WT19     553      MECN     H13      HGA3     0.090000        1.0080           0
     57793 WT19     553      MECN     C2       CG1N1    0.360000       12.0110           0
     57794 WT19     553      MECN     N3       NG1T1   -0.460000       14.0070           0
     57795 WT19     555      MECN     C1       CG331   -0.170000       12.0110           0
     57796 WT19     555      MECN     H11      HGA3     0.090000        1.0080           0
     57797 WT19     555      MECN     H12      HGA3     0.090000        1.0080           0
     57798 WT19     555      MECN     H13      HGA3     0.090000        1.0080           0
     57799 WT19     555      MECN     C2       CG1N1    0.360000       12.0110           0
     57800 WT19     555      MECN     N3       NG1T1   -0.460000       14.0070           0
     57801 WT19     578      MECN     C1       CG331   -0.170000       12.0110           0
     57802 WT19     578      MECN     H11      HGA3     0.090000        1.0080           0
     57803 WT19     578      MECN     H12      HGA3     0.090000        1.0080           0
     57804 WT19     578      MECN     H13      HGA3     0.090000        1.0080           0
     57805 WT19     578      MECN     C2       CG1N1    0.360000       12.0110           0
     57806 WT19     578      MECN     N3       NG1T1   -0.460000       14.0070           0
     57807 WT19     580      MECN     C1       CG331   -0.170000       12.0110           0
     57808 WT19     580      MECN     H11      HGA3     0.090000        1.0080           0
     57809 WT19     580      MECN     H12      HGA3     0.090000        1.0080           0
     57810 WT19     580      MECN     H13      HGA3     0.090000        1.0080           0
     57811 WT19     580      MECN     C2       CG1N1    0.360000       12.0110           0
     57812 WT19     580      MECN     N3       NG1T1   -0.460000       14.0070           0
     57813 WT19     584      MECN     C1       CG331   -0.170000       12.0110           0
     57814 WT19     584      MECN     H11      HGA3     0.090000        1.0080           0
     57815 WT19     584      MECN     H12      HGA3     0.090000        1.0080           0
     57816 WT19     584      MECN     H13      HGA3     0.090000        1.0080           0
     57817 WT19     584      MECN     C2       CG1N1    0.360000       12.0110           0
     57818 WT19     584      MECN     N3       NG1T1   -0.460000       14.0070           0
     57819 WT19     585      MECN     C1       CG331   -0.170000       12.0110           0
     57820 WT19     585      MECN     H11      HGA3     0.090000        1.0080           0
     57821 WT19     585      MECN     H12      HGA3     0.090000        1.0080           0
     57822 WT19     585      MECN     H13      HGA3     0.090000        1.0080           0
     57823 WT19     585      MECN     C2       CG1N1    0.360000       12.0110           0
     57824 WT19     585      MECN     N3       NG1T1   -0.460000       14.0070           0
     57825 WT19     587      MECN     C1       CG331   -0.170000       12.0110           0
     57826 WT19     587      MECN     H11      HGA3     0.090000        1.0080           0
     57827 WT19     587      MECN     H12      HGA3     0.090000        1.0080           0
     57828 WT19     587      MECN     H13      HGA3     0.090000        1.0080           0
     57829 WT19     587      MECN     C2       CG1N1    0.360000       12.0110           0
     57830 WT19     587      MECN     N3       NG1T1   -0.460000       14.0070           0
     57831 WT19     589      MECN     C1       CG331   -0.170000       12.0110           0
     57832 WT19     589      MECN     H11      HGA3     0.090000        1.0080           0
     57833 WT19     589      MECN     H12      HGA3     0.090000        1.0080           0
     57834 WT19     589      MECN     H13      HGA3     0.090000        1.0080           0
     57835 WT19     589      MECN     C2       CG1N1    0.360000       12.0110           0
     57836 WT19     589      MECN     N3       NG1T1   -0.460000       14.0070           0
     57837 WT19     590      MECN     C1       CG331   -0.170000       12.0110           0
     57838 WT19     590      MECN     H11      HGA3     0.090000        1.0080           0
     57839 WT19     590      MECN     H12      HGA3     0.090000        1.0080           0
     57840 WT19     590      MECN     H13      HGA3     0.090000        1.0080           0
     57841 WT19     590      MECN     C2       CG1N1    0.360000       12.0110           0
     57842 WT19     590      MECN     N3       NG1T1   -0.460000       14.0070           0
     57843 WT19     595      MECN     C1       CG331   -0.170000       12.0110           0
     57844 WT19     595      MECN     H11      HGA3     0.090000        1.0080           0
     57845 WT19     595      MECN     H12      HGA3     0.090000        1.0080           0
     57846 WT19     595      MECN     H13      HGA3     0.090000        1.0080           0
     57847 WT19     595      MECN     C2       CG1N1    0.360000       12.0110           0
     57848 WT19     595      MECN     N3       NG1T1   -0.460000       14.0070           0
     57849 WT19     613      MECN     C1       CG331   -0.170000       12.0110           0
     57850 WT19     613      MECN     H11      HGA3     0.090000        1.0080           0
     57851 WT19     613      MECN     H12      HGA3     0.090000        1.0080           0
     57852 WT19     613      MECN     H13      HGA3     0.090000        1.0080           0
     57853 WT19     613      MECN     C2       CG1N1    0.360000       12.0110           0
     57854 WT19     613      MECN     N3       NG1T1   -0.460000       14.0070           0
     57855 WT19     620      MECN     C1       CG331   -0.170000       12.0110           0
     57856 WT19     620      MECN     H11      HGA3     0.090000        1.0080           0
     57857 WT19     620      MECN     H12      HGA3     0.090000        1.0080           0
     57858 WT19     620      MECN     H13      HGA3     0.090000        1.0080           0
     57859 WT19     620      MECN     C2       CG1N1    0.360000       12.0110           0
     57860 WT19     620      MECN     N3       NG1T1   -0.460000       14.0070           0
     57861 WT19     623      MECN     C1       CG331   -0.170000       12.0110           0
     57862 WT19     623      MECN     H11      HGA3     0.090000        1.0080           0
     57863 WT19     623      MECN     H12      HGA3     0.090000        1.0080           0
     57864 WT19     623      MECN     H13      HGA3     0.090000        1.0080           0
     57865 WT19     623      MECN     C2       CG1N1    0.360000       12.0110           0
     57866 WT19     623      MECN     N3       NG1T1   -0.460000       14.0070           0
     57867 WT19     627      MECN     C1       CG331   -0.170000       12.0110           0
     57868 WT19     627      MECN     H11      HGA3     0.090000        1.0080           0
     57869 WT19     627      MECN     H12      HGA3     0.090000        1.0080           0
     57870 WT19     627      MECN     H13      HGA3     0.090000        1.0080           0
     57871 WT19     627      MECN     C2       CG1N1    0.360000       12.0110           0
     57872 WT19     627      MECN     N3       NG1T1   -0.460000       14.0070           0
     57873 WT19     633      MECN     C1       CG331   -0.170000       12.0110           0
     57874 WT19     633      MECN     H11      HGA3     0.090000        1.0080           0
     57875 WT19     633      MECN     H12      HGA3     0.090000        1.0080           0
     57876 WT19     633      MECN     H13      HGA3     0.090000        1.0080           0
     57877 WT19     633      MECN     C2       CG1N1    0.360000       12.0110           0
     57878 WT19     633      MECN     N3       NG1T1   -0.460000       14.0070           0
     57879 WT19     636      MECN     C1       CG331   -0.170000       12.0110           0
     57880 WT19     636      MECN     H11      HGA3     0.090000        1.0080           0
     57881 WT19     636      MECN     H12      HGA3     0.090000        1.0080           0
     57882 WT19     636      MECN     H13      HGA3     0.090000        1.0080           0
     57883 WT19     636      MECN     C2       CG1N1    0.360000       12.0110           0
     57884 WT19     636      MECN     N3       NG1T1   -0.460000       14.0070           0
     57885 WT19     637      MECN     C1       CG331   -0.170000       12.0110           0
     57886 WT19     637      MECN     H11      HGA3     0.090000        1.0080           0
     57887 WT19     637      MECN     H12      HGA3     0.090000        1.0080           0
     57888 WT19     637      MECN     H13      HGA3     0.090000        1.0080           0
     57889 WT19     637      MECN     C2       CG1N1    0.360000       12.0110           0
     57890 WT19     637      MECN     N3       NG1T1   -0.460000       14.0070           0
     57891 WT19     639      MECN     C1       CG331   -0.170000       12.0110           0
     57892 WT19     639      MECN     H11      HGA3     0.090000        1.0080           0
     57893 WT19     639      MECN     H12      HGA3     0.090000        1.0080           0
     57894 WT19     639      MECN     H13      HGA3     0.090000        1.0080           0
     57895 WT19     639      MECN     C2       CG1N1    0.360000       12.0110           0
     57896 WT19     639      MECN     N3       NG1T1   -0.460000       14.0070           0
     57897 WT19     649      MECN     C1       CG331   -0.170000       12.0110           0
     57898 WT19     649      MECN     H11      HGA3     0.090000        1.0080           0
     57899 WT19     649      MECN     H12      HGA3     0.090000        1.0080           0
     57900 WT19     649      MECN     H13      HGA3     0.090000        1.0080           0
     57901 WT19     649      MECN     C2       CG1N1    0.360000       12.0110           0
     57902 WT19     649      MECN     N3       NG1T1   -0.460000       14.0070           0
     57903 WT19     650      MECN     C1       CG331   -0.170000       12.0110           0
     57904 WT19     650      MECN     H11      HGA3     0.090000        1.0080           0
     57905 WT19     650      MECN     H12      HGA3     0.090000        1.0080           0
     57906 WT19     650      MECN     H13      HGA3     0.090000        1.0080           0
     57907 WT19     650      MECN     C2       CG1N1    0.360000       12.0110           0
     57908 WT19     650      MECN     N3       NG1T1   -0.460000       14.0070           0
     57909 WT19     665      MECN     C1       CG331   -0.170000       12.0110           0
     57910 WT19     665      MECN     H11      HGA3     0.090000        1.0080           0
     57911 WT19     665      MECN     H12      HGA3     0.090000        1.0080           0
     57912 WT19     665      MECN     H13      HGA3     0.090000        1.0080           0
     57913 WT19     665      MECN     C2       CG1N1    0.360000       12.0110           0
     57914 WT19     665      MECN     N3       NG1T1   -0.460000       14.0070           0
     57915 WT19     667      MECN     C1       CG331   -0.170000       12.0110           0
     57916 WT19     667      MECN     H11      HGA3     0.090000        1.0080           0
     57917 WT19     667      MECN     H12      HGA3     0.090000        1.0080           0
     57918 WT19     667      MECN     H13      HGA3     0.090000        1.0080           0
     57919 WT19     667      MECN     C2       CG1N1    0.360000       12.0110           0
     57920 WT19     667      MECN     N3       NG1T1   -0.460000       14.0070           0
     57921 WT19     673      MECN     C1       CG331   -0.170000       12.0110           0
     57922 WT19     673      MECN     H11      HGA3     0.090000        1.0080           0
     57923 WT19     673      MECN     H12      HGA3     0.090000        1.0080           0
     57924 WT19     673      MECN     H13      HGA3     0.090000        1.0080           0
     57925 WT19     673      MECN     C2       CG1N1    0.360000       12.0110           0
     57926 WT19     673      MECN     N3       NG1T1   -0.460000       14.0070           0
     57927 WT19     682      MECN     C1       CG331   -0.170000       12.0110           0
     57928 WT19     682      MECN     H11      HGA3     0.090000        1.0080           0
     57929 WT19     682      MECN     H12      HGA3     0.090000        1.0080           0
     57930 WT19     682      MECN     H13      HGA3     0.090000        1.0080           0
     57931 WT19     682      MECN     C2       CG1N1    0.360000       12.0110           0
     57932 WT19     682      MECN     N3       NG1T1   -0.460000       14.0070           0
     57933 WT19     694      MECN     C1       CG331   -0.170000       12.0110           0
     57934 WT19     694      MECN     H11      HGA3     0.090000        1.0080           0
     57935 WT19     694      MECN     H12      HGA3     0.090000        1.0080           0
     57936 WT19     694      MECN     H13      HGA3     0.090000        1.0080           0
     57937 WT19     694      MECN     C2       CG1N1    0.360000       12.0110           0
     57938 WT19     694      MECN     N3       NG1T1   -0.460000       14.0070           0
     57939 WT19     696      MECN     C1       CG331   -0.170000       12.0110           0
     57940 WT19     696      MECN     H11      HGA3     0.090000        1.0080           0
     57941 WT19     696      MECN     H12      HGA3     0.090000        1.0080           0
     57942 WT19     696      MECN     H13      HGA3     0.090000        1.0080           0
     57943 WT19     696      MECN     C2       CG1N1    0.360000       12.0110           0
     57944 WT19     696      MECN     N3       NG1T1   -0.460000       14.0070           0
     57945 WT19     699      MECN     C1       CG331   -0.170000       12.0110           0
     57946 WT19     699      MECN     H11      HGA3     0.090000        1.0080           0
     57947 WT19     699      MECN     H12      HGA3     0.090000        1.0080           0
     57948 WT19     699      MECN     H13      HGA3     0.090000        1.0080           0
     57949 WT19     699      MECN     C2       CG1N1    0.360000       12.0110           0
     57950 WT19     699      MECN     N3       NG1T1   -0.460000       14.0070           0
     57951 WT19     704      MECN     C1       CG331   -0.170000       12.0110           0
     57952 WT19     704      MECN     H11      HGA3     0.090000        1.0080           0
     57953 WT19     704      MECN     H12      HGA3     0.090000        1.0080           0
     57954 WT19     704      MECN     H13      HGA3     0.090000        1.0080           0
     57955 WT19     704      MECN     C2       CG1N1    0.360000       12.0110           0
     57956 WT19     704      MECN     N3       NG1T1   -0.460000       14.0070           0
     57957 WT19     717      MECN     C1       CG331   -0.170000       12.0110           0
     57958 WT19     717      MECN     H11      HGA3     0.090000        1.0080           0
     57959 WT19     717      MECN     H12      HGA3     0.090000        1.0080           0
     57960 WT19     717      MECN     H13      HGA3     0.090000        1.0080           0
     57961 WT19     717      MECN     C2       CG1N1    0.360000       12.0110           0
     57962 WT19     717      MECN     N3       NG1T1   -0.460000       14.0070           0
     57963 WT19     721      MECN     C1       CG331   -0.170000       12.0110           0
     57964 WT19     721      MECN     H11      HGA3     0.090000        1.0080           0
     57965 WT19     721      MECN     H12      HGA3     0.090000        1.0080           0
     57966 WT19     721      MECN     H13      HGA3     0.090000        1.0080           0
     57967 WT19     721      MECN     C2       CG1N1    0.360000       12.0110           0
     57968 WT19     721      MECN     N3       NG1T1   -0.460000       14.0070           0
     57969 WT19     723      MECN     C1       CG331   -0.170000       12.0110           0
     57970 WT19     723      MECN     H11      HGA3     0.090000        1.0080           0
     57971 WT19     723      MECN     H12      HGA3     0.090000        1.0080           0
     57972 WT19     723      MECN     H13      HGA3     0.090000        1.0080           0
     57973 WT19     723      MECN     C2       CG1N1    0.360000       12.0110           0
     57974 WT19     723      MECN     N3       NG1T1   -0.460000       14.0070           0
     57975 WT19     731      MECN     C1       CG331   -0.170000       12.0110           0
     57976 WT19     731      MECN     H11      HGA3     0.090000        1.0080           0
     57977 WT19     731      MECN     H12      HGA3     0.090000        1.0080           0
     57978 WT19     731      MECN     H13      HGA3     0.090000        1.0080           0
     57979 WT19     731      MECN     C2       CG1N1    0.360000       12.0110           0
     57980 WT19     731      MECN     N3       NG1T1   -0.460000       14.0070           0
     57981 WT19     743      MECN     C1       CG331   -0.170000       12.0110           0
     57982 WT19     743      MECN     H11      HGA3     0.090000        1.0080           0
     57983 WT19     743      MECN     H12      HGA3     0.090000        1.0080           0
     57984 WT19     743      MECN     H13      HGA3     0.090000        1.0080           0
     57985 WT19     743      MECN     C2       CG1N1    0.360000       12.0110           0
     57986 WT19     743      MECN     N3       NG1T1   -0.460000       14.0070           0
     57987 WT19     748      MECN     C1       CG331   -0.170000       12.0110           0
     57988 WT19     748      MECN     H11      HGA3     0.090000        1.0080           0
     57989 WT19     748      MECN     H12      HGA3     0.090000        1.0080           0
     57990 WT19     748      MECN     H13      HGA3     0.090000        1.0080           0
     57991 WT19     748      MECN     C2       CG1N1    0.360000       12.0110           0
     57992 WT19     748      MECN     N3       NG1T1   -0.460000       14.0070           0
     57993 WT19     761      MECN     C1       CG331   -0.170000       12.0110           0
     57994 WT19     761      MECN     H11      HGA3     0.090000        1.0080           0
     57995 WT19     761      MECN     H12      HGA3     0.090000        1.0080           0
     57996 WT19     761      MECN     H13      HGA3     0.090000        1.0080           0
     57997 WT19     761      MECN     C2       CG1N1    0.360000       12.0110           0
     57998 WT19     761      MECN     N3       NG1T1   -0.460000       14.0070           0
     57999 WT19     763      MECN     C1       CG331   -0.170000       12.0110           0
     58000 WT19     763      MECN     H11      HGA3     0.090000        1.0080           0
     58001 WT19     763      MECN     H12      HGA3     0.090000        1.0080           0
     58002 WT19     763      MECN     H13      HGA3     0.090000        1.0080           0
     58003 WT19     763      MECN     C2       CG1N1    0.360000       12.0110           0
     58004 WT19     763      MECN     N3       NG1T1   -0.460000       14.0070           0
     58005 WT19     765      MECN     C1       CG331   -0.170000       12.0110           0
     58006 WT19     765      MECN     H11      HGA3     0.090000        1.0080           0
     58007 WT19     765      MECN     H12      HGA3     0.090000        1.0080           0
     58008 WT19     765      MECN     H13      HGA3     0.090000        1.0080           0
     58009 WT19     765      MECN     C2       CG1N1    0.360000       12.0110           0
     58010 WT19     765      MECN     N3       NG1T1   -0.460000       14.0070           0
     58011 WT19     768      MECN     C1       CG331   -0.170000       12.0110           0
     58012 WT19     768      MECN     H11      HGA3     0.090000        1.0080           0
     58013 WT19     768      MECN     H12      HGA3     0.090000        1.0080           0
     58014 WT19     768      MECN     H13      HGA3     0.090000        1.0080           0
     58015 WT19     768      MECN     C2       CG1N1    0.360000       12.0110           0
     58016 WT19     768      MECN     N3       NG1T1   -0.460000       14.0070           0
     58017 WT19     772      MECN     C1       CG331   -0.170000       12.0110           0
     58018 WT19     772      MECN     H11      HGA3     0.090000        1.0080           0
     58019 WT19     772      MECN     H12      HGA3     0.090000        1.0080           0
     58020 WT19     772      MECN     H13      HGA3     0.090000        1.0080           0
     58021 WT19     772      MECN     C2       CG1N1    0.360000       12.0110           0
     58022 WT19     772      MECN     N3       NG1T1   -0.460000       14.0070           0
     58023 WT19     774      MECN     C1       CG331   -0.170000       12.0110           0
     58024 WT19     774      MECN     H11      HGA3     0.090000        1.0080           0
     58025 WT19     774      MECN     H12      HGA3     0.090000        1.0080           0
     58026 WT19     774      MECN     H13      HGA3     0.090000        1.0080           0
     58027 WT19     774      MECN     C2       CG1N1    0.360000       12.0110           0
     58028 WT19     774      MECN     N3       NG1T1   -0.460000       14.0070           0
     58029 WT19     775      MECN     C1       CG331   -0.170000       12.0110           0
     58030 WT19     775      MECN     H11      HGA3     0.090000        1.0080           0
     58031 WT19     775      MECN     H12      HGA3     0.090000        1.0080           0
     58032 WT19     775      MECN     H13      HGA3     0.090000        1.0080           0
     58033 WT19     775      MECN     C2       CG1N1    0.360000       12.0110           0
     58034 WT19     775      MECN     N3       NG1T1   -0.460000       14.0070           0
     58035 WT19     778      MECN     C1       CG331   -0.170000       12.0110           0
     58036 WT19     778      MECN     H11      HGA3     0.090000        1.0080           0
     58037 WT19     778      MECN     H12      HGA3     0.090000        1.0080           0
     58038 WT19     778      MECN     H13      HGA3     0.090000        1.0080           0
     58039 WT19     778      MECN     C2       CG1N1    0.360000       12.0110           0
     58040 WT19     778      MECN     N3       NG1T1   -0.460000       14.0070           0
     58041 WT19     782      MECN     C1       CG331   -0.170000       12.0110           0
     58042 WT19     782      MECN     H11      HGA3     0.090000        1.0080           0
     58043 WT19     782      MECN     H12      HGA3     0.090000        1.0080           0
     58044 WT19     782      MECN     H13      HGA3     0.090000        1.0080           0
     58045 WT19     782      MECN     C2       CG1N1    0.360000       12.0110           0
     58046 WT19     782      MECN     N3       NG1T1   -0.460000       14.0070           0
     58047 WT19     783      MECN     C1       CG331   -0.170000       12.0110           0
     58048 WT19     783      MECN     H11      HGA3     0.090000        1.0080           0
     58049 WT19     783      MECN     H12      HGA3     0.090000        1.0080           0
     58050 WT19     783      MECN     H13      HGA3     0.090000        1.0080           0
     58051 WT19     783      MECN     C2       CG1N1    0.360000       12.0110           0
     58052 WT19     783      MECN     N3       NG1T1   -0.460000       14.0070           0
     58053 WT19     797      MECN     C1       CG331   -0.170000       12.0110           0
     58054 WT19     797      MECN     H11      HGA3     0.090000        1.0080           0
     58055 WT19     797      MECN     H12      HGA3     0.090000        1.0080           0
     58056 WT19     797      MECN     H13      HGA3     0.090000        1.0080           0
     58057 WT19     797      MECN     C2       CG1N1    0.360000       12.0110           0
     58058 WT19     797      MECN     N3       NG1T1   -0.460000       14.0070           0
     58059 WT19     799      MECN     C1       CG331   -0.170000       12.0110           0
     58060 WT19     799      MECN     H11      HGA3     0.090000        1.0080           0
     58061 WT19     799      MECN     H12      HGA3     0.090000        1.0080           0
     58062 WT19     799      MECN     H13      HGA3     0.090000        1.0080           0
     58063 WT19     799      MECN     C2       CG1N1    0.360000       12.0110           0
     58064 WT19     799      MECN     N3       NG1T1   -0.460000       14.0070           0
     58065 WT19     817      MECN     C1       CG331   -0.170000       12.0110           0
     58066 WT19     817      MECN     H11      HGA3     0.090000        1.0080           0
     58067 WT19     817      MECN     H12      HGA3     0.090000        1.0080           0
     58068 WT19     817      MECN     H13      HGA3     0.090000        1.0080           0
     58069 WT19     817      MECN     C2       CG1N1    0.360000       12.0110           0
     58070 WT19     817      MECN     N3       NG1T1   -0.460000       14.0070           0
     58071 WT19     821      MECN     C1       CG331   -0.170000       12.0110           0
     58072 WT19     821      MECN     H11      HGA3     0.090000        1.0080           0
     58073 WT19     821      MECN     H12      HGA3     0.090000        1.0080           0
     58074 WT19     821      MECN     H13      HGA3     0.090000        1.0080           0
     58075 WT19     821      MECN     C2       CG1N1    0.360000       12.0110           0
     58076 WT19     821      MECN     N3       NG1T1   -0.460000       14.0070           0
     58077 WT19     822      MECN     C1       CG331   -0.170000       12.0110           0
     58078 WT19     822      MECN     H11      HGA3     0.090000        1.0080           0
     58079 WT19     822      MECN     H12      HGA3     0.090000        1.0080           0
     58080 WT19     822      MECN     H13      HGA3     0.090000        1.0080           0
     58081 WT19     822      MECN     C2       CG1N1    0.360000       12.0110           0
     58082 WT19     822      MECN     N3       NG1T1   -0.460000       14.0070           0
     58083 WT19     833      MECN     C1       CG331   -0.170000       12.0110           0
     58084 WT19     833      MECN     H11      HGA3     0.090000        1.0080           0
     58085 WT19     833      MECN     H12      HGA3     0.090000        1.0080           0
     58086 WT19     833      MECN     H13      HGA3     0.090000        1.0080           0
     58087 WT19     833      MECN     C2       CG1N1    0.360000       12.0110           0
     58088 WT19     833      MECN     N3       NG1T1   -0.460000       14.0070           0
     58089 WT19     834      MECN     C1       CG331   -0.170000       12.0110           0
     58090 WT19     834      MECN     H11      HGA3     0.090000        1.0080           0
     58091 WT19     834      MECN     H12      HGA3     0.090000        1.0080           0
     58092 WT19     834      MECN     H13      HGA3     0.090000        1.0080           0
     58093 WT19     834      MECN     C2       CG1N1    0.360000       12.0110           0
     58094 WT19     834      MECN     N3       NG1T1   -0.460000       14.0070           0
     58095 WT19     849      MECN     C1       CG331   -0.170000       12.0110           0
     58096 WT19     849      MECN     H11      HGA3     0.090000        1.0080           0
     58097 WT19     849      MECN     H12      HGA3     0.090000        1.0080           0
     58098 WT19     849      MECN     H13      HGA3     0.090000        1.0080           0
     58099 WT19     849      MECN     C2       CG1N1    0.360000       12.0110           0
     58100 WT19     849      MECN     N3       NG1T1   -0.460000       14.0070           0
     58101 WT19     859      MECN     C1       CG331   -0.170000       12.0110           0
     58102 WT19     859      MECN     H11      HGA3     0.090000        1.0080           0
     58103 WT19     859      MECN     H12      HGA3     0.090000        1.0080           0
     58104 WT19     859      MECN     H13      HGA3     0.090000        1.0080           0
     58105 WT19     859      MECN     C2       CG1N1    0.360000       12.0110           0
     58106 WT19     859      MECN     N3       NG1T1   -0.460000       14.0070           0
     58107 WT19     860      MECN     C1       CG331   -0.170000       12.0110           0
     58108 WT19     860      MECN     H11      HGA3     0.090000        1.0080           0
     58109 WT19     860      MECN     H12      HGA3     0.090000        1.0080           0
     58110 WT19     860      MECN     H13      HGA3     0.090000        1.0080           0
     58111 WT19     860      MECN     C2       CG1N1    0.360000       12.0110           0
     58112 WT19     860      MECN     N3       NG1T1   -0.460000       14.0070           0
     58113 WT19     864      MECN     C1       CG331   -0.170000       12.0110           0
     58114 WT19     864      MECN     H11      HGA3     0.090000        1.0080           0
     58115 WT19     864      MECN     H12      HGA3     0.090000        1.0080           0
     58116 WT19     864      MECN     H13      HGA3     0.090000        1.0080           0
     58117 WT19     864      MECN     C2       CG1N1    0.360000       12.0110           0
     58118 WT19     864      MECN     N3       NG1T1   -0.460000       14.0070           0
     58119 WT19     873      MECN     C1       CG331   -0.170000       12.0110           0
     58120 WT19     873      MECN     H11      HGA3     0.090000        1.0080           0
     58121 WT19     873      MECN     H12      HGA3     0.090000        1.0080           0
     58122 WT19     873      MECN     H13      HGA3     0.090000        1.0080           0
     58123 WT19     873      MECN     C2       CG1N1    0.360000       12.0110           0
     58124 WT19     873      MECN     N3       NG1T1   -0.460000       14.0070           0
     58125 WT19     875      MECN     C1       CG331   -0.170000       12.0110           0
     58126 WT19     875      MECN     H11      HGA3     0.090000        1.0080           0
     58127 WT19     875      MECN     H12      HGA3     0.090000        1.0080           0
     58128 WT19     875      MECN     H13      HGA3     0.090000        1.0080           0
     58129 WT19     875      MECN     C2       CG1N1    0.360000       12.0110           0
     58130 WT19     875      MECN     N3       NG1T1   -0.460000       14.0070           0
     58131 WT19     890      MECN     C1       CG331   -0.170000       12.0110           0
     58132 WT19     890      MECN     H11      HGA3     0.090000        1.0080           0
     58133 WT19     890      MECN     H12      HGA3     0.090000        1.0080           0
     58134 WT19     890      MECN     H13      HGA3     0.090000        1.0080           0
     58135 WT19     890      MECN     C2       CG1N1    0.360000       12.0110           0
     58136 WT19     890      MECN     N3       NG1T1   -0.460000       14.0070           0
     58137 WT19     891      MECN     C1       CG331   -0.170000       12.0110           0
     58138 WT19     891      MECN     H11      HGA3     0.090000        1.0080           0
     58139 WT19     891      MECN     H12      HGA3     0.090000        1.0080           0
     58140 WT19     891      MECN     H13      HGA3     0.090000        1.0080           0
     58141 WT19     891      MECN     C2       CG1N1    0.360000       12.0110           0
     58142 WT19     891      MECN     N3       NG1T1   -0.460000       14.0070           0
     58143 WT19     902      MECN     C1       CG331   -0.170000       12.0110           0
     58144 WT19     902      MECN     H11      HGA3     0.090000        1.0080           0
     58145 WT19     902      MECN     H12      HGA3     0.090000        1.0080           0
     58146 WT19     902      MECN     H13      HGA3     0.090000        1.0080           0
     58147 WT19     902      MECN     C2       CG1N1    0.360000       12.0110           0
     58148 WT19     902      MECN     N3       NG1T1   -0.460000       14.0070           0
     58149 WT19     904      MECN     C1       CG331   -0.170000       12.0110           0
     58150 WT19     904      MECN     H11      HGA3     0.090000        1.0080           0
     58151 WT19     904      MECN     H12      HGA3     0.090000        1.0080           0
     58152 WT19     904      MECN     H13      HGA3     0.090000        1.0080           0
     58153 WT19     904      MECN     C2       CG1N1    0.360000       12.0110           0
     58154 WT19     904      MECN     N3       NG1T1   -0.460000       14.0070           0
     58155 WT19     914      MECN     C1       CG331   -0.170000       12.0110           0
     58156 WT19     914      MECN     H11      HGA3     0.090000        1.0080           0
     58157 WT19     914      MECN     H12      HGA3     0.090000        1.0080           0
     58158 WT19     914      MECN     H13      HGA3     0.090000        1.0080           0
     58159 WT19     914      MECN     C2       CG1N1    0.360000       12.0110           0
     58160 WT19     914      MECN     N3       NG1T1   -0.460000       14.0070           0
     58161 WT19     915      MECN     C1       CG331   -0.170000       12.0110           0
     58162 WT19     915      MECN     H11      HGA3     0.090000        1.0080           0
     58163 WT19     915      MECN     H12      HGA3     0.090000        1.0080           0
     58164 WT19     915      MECN     H13      HGA3     0.090000        1.0080           0
     58165 WT19     915      MECN     C2       CG1N1    0.360000       12.0110           0
     58166 WT19     915      MECN     N3       NG1T1   -0.460000       14.0070           0
     58167 WT19     920      MECN     C1       CG331   -0.170000       12.0110           0
     58168 WT19     920      MECN     H11      HGA3     0.090000        1.0080           0
     58169 WT19     920      MECN     H12      HGA3     0.090000        1.0080           0
     58170 WT19     920      MECN     H13      HGA3     0.090000        1.0080           0
     58171 WT19     920      MECN     C2       CG1N1    0.360000       12.0110           0
     58172 WT19     920      MECN     N3       NG1T1   -0.460000       14.0070           0
     58173 WT19     924      MECN     C1       CG331   -0.170000       12.0110           0
     58174 WT19     924      MECN     H11      HGA3     0.090000        1.0080           0
     58175 WT19     924      MECN     H12      HGA3     0.090000        1.0080           0
     58176 WT19     924      MECN     H13      HGA3     0.090000        1.0080           0
     58177 WT19     924      MECN     C2       CG1N1    0.360000       12.0110           0
     58178 WT19     924      MECN     N3       NG1T1   -0.460000       14.0070           0
     58179 WT19     926      MECN     C1       CG331   -0.170000       12.0110           0
     58180 WT19     926      MECN     H11      HGA3     0.090000        1.0080           0
     58181 WT19     926      MECN     H12      HGA3     0.090000        1.0080           0
     58182 WT19     926      MECN     H13      HGA3     0.090000        1.0080           0
     58183 WT19     926      MECN     C2       CG1N1    0.360000       12.0110           0
     58184 WT19     926      MECN     N3       NG1T1   -0.460000       14.0070           0
     58185 WT19     933      MECN     C1       CG331   -0.170000       12.0110           0
     58186 WT19     933      MECN     H11      HGA3     0.090000        1.0080           0
     58187 WT19     933      MECN     H12      HGA3     0.090000        1.0080           0
     58188 WT19     933      MECN     H13      HGA3     0.090000        1.0080           0
     58189 WT19     933      MECN     C2       CG1N1    0.360000       12.0110           0
     58190 WT19     933      MECN     N3       NG1T1   -0.460000       14.0070           0
     58191 WT19     934      MECN     C1       CG331   -0.170000       12.0110           0
     58192 WT19     934      MECN     H11      HGA3     0.090000        1.0080           0
     58193 WT19     934      MECN     H12      HGA3     0.090000        1.0080           0
     58194 WT19     934      MECN     H13      HGA3     0.090000        1.0080           0
     58195 WT19     934      MECN     C2       CG1N1    0.360000       12.0110           0
     58196 WT19     934      MECN     N3       NG1T1   -0.460000       14.0070           0
     58197 WT19     939      MECN     C1       CG331   -0.170000       12.0110           0
     58198 WT19     939      MECN     H11      HGA3     0.090000        1.0080           0
     58199 WT19     939      MECN     H12      HGA3     0.090000        1.0080           0
     58200 WT19     939      MECN     H13      HGA3     0.090000        1.0080           0
     58201 WT19     939      MECN     C2       CG1N1    0.360000       12.0110           0
     58202 WT19     939      MECN     N3       NG1T1   -0.460000       14.0070           0
     58203 WT19     943      MECN     C1       CG331   -0.170000       12.0110           0
     58204 WT19     943      MECN     H11      HGA3     0.090000        1.0080           0
     58205 WT19     943      MECN     H12      HGA3     0.090000        1.0080           0
     58206 WT19     943      MECN     H13      HGA3     0.090000        1.0080           0
     58207 WT19     943      MECN     C2       CG1N1    0.360000       12.0110           0
     58208 WT19     943      MECN     N3       NG1T1   -0.460000       14.0070           0
     58209 WT19     977      MECN     C1       CG331   -0.170000       12.0110           0
     58210 WT19     977      MECN     H11      HGA3     0.090000        1.0080           0
     58211 WT19     977      MECN     H12      HGA3     0.090000        1.0080           0
     58212 WT19     977      MECN     H13      HGA3     0.090000        1.0080           0
     58213 WT19     977      MECN     C2       CG1N1    0.360000       12.0110           0
     58214 WT19     977      MECN     N3       NG1T1   -0.460000       14.0070           0
     58215 WT19     983      MECN     C1       CG331   -0.170000       12.0110           0
     58216 WT19     983      MECN     H11      HGA3     0.090000        1.0080           0
     58217 WT19     983      MECN     H12      HGA3     0.090000        1.0080           0
     58218 WT19     983      MECN     H13      HGA3     0.090000        1.0080           0
     58219 WT19     983      MECN     C2       CG1N1    0.360000       12.0110           0
     58220 WT19     983      MECN     N3       NG1T1   -0.460000       14.0070           0
     58221 WT19     985      MECN     C1       CG331   -0.170000       12.0110           0
     58222 WT19     985      MECN     H11      HGA3     0.090000        1.0080           0
     58223 WT19     985      MECN     H12      HGA3     0.090000        1.0080           0
     58224 WT19     985      MECN     H13      HGA3     0.090000        1.0080           0
     58225 WT19     985      MECN     C2       CG1N1    0.360000       12.0110           0
     58226 WT19     985      MECN     N3       NG1T1   -0.460000       14.0070           0
     58227 WT19     986      MECN     C1       CG331   -0.170000       12.0110           0
     58228 WT19     986      MECN     H11      HGA3     0.090000        1.0080           0
     58229 WT19     986      MECN     H12      HGA3     0.090000        1.0080           0
     58230 WT19     986      MECN     H13      HGA3     0.090000        1.0080           0
     58231 WT19     986      MECN     C2       CG1N1    0.360000       12.0110           0
     58232 WT19     986      MECN     N3       NG1T1   -0.460000       14.0070           0
     58233 WT19     992      MECN     C1       CG331   -0.170000       12.0110           0
     58234 WT19     992      MECN     H11      HGA3     0.090000        1.0080           0
     58235 WT19     992      MECN     H12      HGA3     0.090000        1.0080           0
     58236 WT19     992      MECN     H13      HGA3     0.090000        1.0080           0
     58237 WT19     992      MECN     C2       CG1N1    0.360000       12.0110           0
     58238 WT19     992      MECN     N3       NG1T1   -0.460000       14.0070           0
     58239 WT19     1006     MECN     C1       CG331   -0.170000       12.0110           0
     58240 WT19     1006     MECN     H11      HGA3     0.090000        1.0080           0
     58241 WT19     1006     MECN     H12      HGA3     0.090000        1.0080           0
     58242 WT19     1006     MECN     H13      HGA3     0.090000        1.0080           0
     58243 WT19     1006     MECN     C2       CG1N1    0.360000       12.0110           0
     58244 WT19     1006     MECN     N3       NG1T1   -0.460000       14.0070           0
     58245 WT19     1021     MECN     C1       CG331   -0.170000       12.0110           0
     58246 WT19     1021     MECN     H11      HGA3     0.090000        1.0080           0
     58247 WT19     1021     MECN     H12      HGA3     0.090000        1.0080           0
     58248 WT19     1021     MECN     H13      HGA3     0.090000        1.0080           0
     58249 WT19     1021     MECN     C2       CG1N1    0.360000       12.0110           0
     58250 WT19     1021     MECN     N3       NG1T1   -0.460000       14.0070           0
     58251 WT19     1029     MECN     C1       CG331   -0.170000       12.0110           0
     58252 WT19     1029     MECN     H11      HGA3     0.090000        1.0080           0
     58253 WT19     1029     MECN     H12      HGA3     0.090000        1.0080           0
     58254 WT19     1029     MECN     H13      HGA3     0.090000        1.0080           0
     58255 WT19     1029     MECN     C2       CG1N1    0.360000       12.0110           0
     58256 WT19     1029     MECN     N3       NG1T1   -0.460000       14.0070           0
     58257 WT19     1030     MECN     C1       CG331   -0.170000       12.0110           0
     58258 WT19     1030     MECN     H11      HGA3     0.090000        1.0080           0
     58259 WT19     1030     MECN     H12      HGA3     0.090000        1.0080           0
     58260 WT19     1030     MECN     H13      HGA3     0.090000        1.0080           0
     58261 WT19     1030     MECN     C2       CG1N1    0.360000       12.0110           0
     58262 WT19     1030     MECN     N3       NG1T1   -0.460000       14.0070           0
     58263 WT19     1040     MECN     C1       CG331   -0.170000       12.0110           0
     58264 WT19     1040     MECN     H11      HGA3     0.090000        1.0080           0
     58265 WT19     1040     MECN     H12      HGA3     0.090000        1.0080           0
     58266 WT19     1040     MECN     H13      HGA3     0.090000        1.0080           0
     58267 WT19     1040     MECN     C2       CG1N1    0.360000       12.0110           0
     58268 WT19     1040     MECN     N3       NG1T1   -0.460000       14.0070           0
     58269 WT19     1043     MECN     C1       CG331   -0.170000       12.0110           0
     58270 WT19     1043     MECN     H11      HGA3     0.090000        1.0080           0
     58271 WT19     1043     MECN     H12      HGA3     0.090000        1.0080           0
     58272 WT19     1043     MECN     H13      HGA3     0.090000        1.0080           0
     58273 WT19     1043     MECN     C2       CG1N1    0.360000       12.0110           0
     58274 WT19     1043     MECN     N3       NG1T1   -0.460000       14.0070           0
     58275 WT19     1052     MECN     C1       CG331   -0.170000       12.0110           0
     58276 WT19     1052     MECN     H11      HGA3     0.090000        1.0080           0
     58277 WT19     1052     MECN     H12      HGA3     0.090000        1.0080           0
     58278 WT19     1052     MECN     H13      HGA3     0.090000        1.0080           0
     58279 WT19     1052     MECN     C2       CG1N1    0.360000       12.0110           0
     58280 WT19     1052     MECN     N3       NG1T1   -0.460000       14.0070           0
     58281 WT19     1054     MECN     C1       CG331   -0.170000       12.0110           0
     58282 WT19     1054     MECN     H11      HGA3     0.090000        1.0080           0
     58283 WT19     1054     MECN     H12      HGA3     0.090000        1.0080           0
     58284 WT19     1054     MECN     H13      HGA3     0.090000        1.0080           0
     58285 WT19     1054     MECN     C2       CG1N1    0.360000       12.0110           0
     58286 WT19     1054     MECN     N3       NG1T1   -0.460000       14.0070           0
     58287 WT19     1059     MECN     C1       CG331   -0.170000       12.0110           0
     58288 WT19     1059     MECN     H11      HGA3     0.090000        1.0080           0
     58289 WT19     1059     MECN     H12      HGA3     0.090000        1.0080           0
     58290 WT19     1059     MECN     H13      HGA3     0.090000        1.0080           0
     58291 WT19     1059     MECN     C2       CG1N1    0.360000       12.0110           0
     58292 WT19     1059     MECN     N3       NG1T1   -0.460000       14.0070           0
     58293 WT19     1061     MECN     C1       CG331   -0.170000       12.0110           0
     58294 WT19     1061     MECN     H11      HGA3     0.090000        1.0080           0
     58295 WT19     1061     MECN     H12      HGA3     0.090000        1.0080           0
     58296 WT19     1061     MECN     H13      HGA3     0.090000        1.0080           0
     58297 WT19     1061     MECN     C2       CG1N1    0.360000       12.0110           0
     58298 WT19     1061     MECN     N3       NG1T1   -0.460000       14.0070           0
     58299 WT19     1075     MECN     C1       CG331   -0.170000       12.0110           0
     58300 WT19     1075     MECN     H11      HGA3     0.090000        1.0080           0
     58301 WT19     1075     MECN     H12      HGA3     0.090000        1.0080           0
     58302 WT19     1075     MECN     H13      HGA3     0.090000        1.0080           0
     58303 WT19     1075     MECN     C2       CG1N1    0.360000       12.0110           0
     58304 WT19     1075     MECN     N3       NG1T1   -0.460000       14.0070           0
     58305 WT19     1087     MECN     C1       CG331   -0.170000       12.0110           0
     58306 WT19     1087     MECN     H11      HGA3     0.090000        1.0080           0
     58307 WT19     1087     MECN     H12      HGA3     0.090000        1.0080           0
     58308 WT19     1087     MECN     H13      HGA3     0.090000        1.0080           0
     58309 WT19     1087     MECN     C2       CG1N1    0.360000       12.0110           0
     58310 WT19     1087     MECN     N3       NG1T1   -0.460000       14.0070           0
     58311 WT19     1099     MECN     C1       CG331   -0.170000       12.0110           0
     58312 WT19     1099     MECN     H11      HGA3     0.090000        1.0080           0
     58313 WT19     1099     MECN     H12      HGA3     0.090000        1.0080           0
     58314 WT19     1099     MECN     H13      HGA3     0.090000        1.0080           0
     58315 WT19     1099     MECN     C2       CG1N1    0.360000       12.0110           0
     58316 WT19     1099     MECN     N3       NG1T1   -0.460000       14.0070           0
     58317 WT19     1113     MECN     C1       CG331   -0.170000       12.0110           0
     58318 WT19     1113     MECN     H11      HGA3     0.090000        1.0080           0
     58319 WT19     1113     MECN     H12      HGA3     0.090000        1.0080           0
     58320 WT19     1113     MECN     H13      HGA3     0.090000        1.0080           0
     58321 WT19     1113     MECN     C2       CG1N1    0.360000       12.0110           0
     58322 WT19     1113     MECN     N3       NG1T1   -0.460000       14.0070           0
     58323 WT19     1121     MECN     C1       CG331   -0.170000       12.0110           0
     58324 WT19     1121     MECN     H11      HGA3     0.090000        1.0080           0
     58325 WT19     1121     MECN     H12      HGA3     0.090000        1.0080           0
     58326 WT19     1121     MECN     H13      HGA3     0.090000        1.0080           0
     58327 WT19     1121     MECN     C2       CG1N1    0.360000       12.0110           0
     58328 WT19     1121     MECN     N3       NG1T1   -0.460000       14.0070           0
     58329 WT19     1130     MECN     C1       CG331   -0.170000       12.0110           0
     58330 WT19     1130     MECN     H11      HGA3     0.090000        1.0080           0
     58331 WT19     1130     MECN     H12      HGA3     0.090000        1.0080           0
     58332 WT19     1130     MECN     H13      HGA3     0.090000        1.0080           0
     58333 WT19     1130     MECN     C2       CG1N1    0.360000       12.0110           0
     58334 WT19     1130     MECN     N3       NG1T1   -0.460000       14.0070           0
     58335 WT19     1134     MECN     C1       CG331   -0.170000       12.0110           0
     58336 WT19     1134     MECN     H11      HGA3     0.090000        1.0080           0
     58337 WT19     1134     MECN     H12      HGA3     0.090000        1.0080           0
     58338 WT19     1134     MECN     H13      HGA3     0.090000        1.0080           0
     58339 WT19     1134     MECN     C2       CG1N1    0.360000       12.0110           0
     58340 WT19     1134     MECN     N3       NG1T1   -0.460000       14.0070           0
     58341 WT19     1143     MECN     C1       CG331   -0.170000       12.0110           0
     58342 WT19     1143     MECN     H11      HGA3     0.090000        1.0080           0
     58343 WT19     1143     MECN     H12      HGA3     0.090000        1.0080           0
     58344 WT19     1143     MECN     H13      HGA3     0.090000        1.0080           0
     58345 WT19     1143     MECN     C2       CG1N1    0.360000       12.0110           0
     58346 WT19     1143     MECN     N3       NG1T1   -0.460000       14.0070           0
     58347 WT19     1166     MECN     C1       CG331   -0.170000       12.0110           0
     58348 WT19     1166     MECN     H11      HGA3     0.090000        1.0080           0
     58349 WT19     1166     MECN     H12      HGA3     0.090000        1.0080           0
     58350 WT19     1166     MECN     H13      HGA3     0.090000        1.0080           0
     58351 WT19     1166     MECN     C2       CG1N1    0.360000       12.0110           0
     58352 WT19     1166     MECN     N3       NG1T1   -0.460000       14.0070           0
     58353 WT19     1174     MECN     C1       CG331   -0.170000       12.0110           0
     58354 WT19     1174     MECN     H11      HGA3     0.090000        1.0080           0
     58355 WT19     1174     MECN     H12      HGA3     0.090000        1.0080           0
     58356 WT19     1174     MECN     H13      HGA3     0.090000        1.0080           0
     58357 WT19     1174     MECN     C2       CG1N1    0.360000       12.0110           0
     58358 WT19     1174     MECN     N3       NG1T1   -0.460000       14.0070           0
     58359 WT19     1181     MECN     C1       CG331   -0.170000       12.0110           0
     58360 WT19     1181     MECN     H11      HGA3     0.090000        1.0080           0
     58361 WT19     1181     MECN     H12      HGA3     0.090000        1.0080           0
     58362 WT19     1181     MECN     H13      HGA3     0.090000        1.0080           0
     58363 WT19     1181     MECN     C2       CG1N1    0.360000       12.0110           0
     58364 WT19     1181     MECN     N3       NG1T1   -0.460000       14.0070           0
     58365 WT19     1191     MECN     C1       CG331   -0.170000       12.0110           0
     58366 WT19     1191     MECN     H11      HGA3     0.090000        1.0080           0
     58367 WT19     1191     MECN     H12      HGA3     0.090000        1.0080           0
     58368 WT19     1191     MECN     H13      HGA3     0.090000        1.0080           0
     58369 WT19     1191     MECN     C2       CG1N1    0.360000       12.0110           0
     58370 WT19     1191     MECN     N3       NG1T1   -0.460000       14.0070           0
     58371 WT19     1199     MECN     C1       CG331   -0.170000       12.0110           0
     58372 WT19     1199     MECN     H11      HGA3     0.090000        1.0080           0
     58373 WT19     1199     MECN     H12      HGA3     0.090000        1.0080           0
     58374 WT19     1199     MECN     H13      HGA3     0.090000        1.0080           0
     58375 WT19     1199     MECN     C2       CG1N1    0.360000       12.0110           0
     58376 WT19     1199     MECN     N3       NG1T1   -0.460000       14.0070           0
     58377 WT19     1205     MECN     C1       CG331   -0.170000       12.0110           0
     58378 WT19     1205     MECN     H11      HGA3     0.090000        1.0080           0
     58379 WT19     1205     MECN     H12      HGA3     0.090000        1.0080           0
     58380 WT19     1205     MECN     H13      HGA3     0.090000        1.0080           0
     58381 WT19     1205     MECN     C2       CG1N1    0.360000       12.0110           0
     58382 WT19     1205     MECN     N3       NG1T1   -0.460000       14.0070           0
     58383 WT19     1207     MECN     C1       CG331   -0.170000       12.0110           0
     58384 WT19     1207     MECN     H11      HGA3     0.090000        1.0080           0
     58385 WT19     1207     MECN     H12      HGA3     0.090000        1.0080           0
     58386 WT19     1207     MECN     H13      HGA3     0.090000        1.0080           0
     58387 WT19     1207     MECN     C2       CG1N1    0.360000       12.0110           0
     58388 WT19     1207     MECN     N3       NG1T1   -0.460000       14.0070           0
     58389 WT19     1211     MECN     C1       CG331   -0.170000       12.0110           0
     58390 WT19     1211     MECN     H11      HGA3     0.090000        1.0080           0
     58391 WT19     1211     MECN     H12      HGA3     0.090000        1.0080           0
     58392 WT19     1211     MECN     H13      HGA3     0.090000        1.0080           0
     58393 WT19     1211     MECN     C2       CG1N1    0.360000       12.0110           0
     58394 WT19     1211     MECN     N3       NG1T1   -0.460000       14.0070           0
     58395 WT19     1220     MECN     C1       CG331   -0.170000       12.0110           0
     58396 WT19     1220     MECN     H11      HGA3     0.090000        1.0080           0
     58397 WT19     1220     MECN     H12      HGA3     0.090000        1.0080           0
     58398 WT19     1220     MECN     H13      HGA3     0.090000        1.0080           0
     58399 WT19     1220     MECN     C2       CG1N1    0.360000       12.0110           0
     58400 WT19     1220     MECN     N3       NG1T1   -0.460000       14.0070           0
     58401 WT19     1223     MECN     C1       CG331   -0.170000       12.0110           0
     58402 WT19     1223     MECN     H11      HGA3     0.090000        1.0080           0
     58403 WT19     1223     MECN     H12      HGA3     0.090000        1.0080           0
     58404 WT19     1223     MECN     H13      HGA3     0.090000        1.0080           0
     58405 WT19     1223     MECN     C2       CG1N1    0.360000       12.0110           0
     58406 WT19     1223     MECN     N3       NG1T1   -0.460000       14.0070           0
     58407 WT19     1236     MECN     C1       CG331   -0.170000       12.0110           0
     58408 WT19     1236     MECN     H11      HGA3     0.090000        1.0080           0
     58409 WT19     1236     MECN     H12      HGA3     0.090000        1.0080           0
     58410 WT19     1236     MECN     H13      HGA3     0.090000        1.0080           0
     58411 WT19     1236     MECN     C2       CG1N1    0.360000       12.0110           0
     58412 WT19     1236     MECN     N3       NG1T1   -0.460000       14.0070           0
     58413 WT19     1249     MECN     C1       CG331   -0.170000       12.0110           0
     58414 WT19     1249     MECN     H11      HGA3     0.090000        1.0080           0
     58415 WT19     1249     MECN     H12      HGA3     0.090000        1.0080           0
     58416 WT19     1249     MECN     H13      HGA3     0.090000        1.0080           0
     58417 WT19     1249     MECN     C2       CG1N1    0.360000       12.0110           0
     58418 WT19     1249     MECN     N3       NG1T1   -0.460000       14.0070           0
     58419 WT19     1252     MECN     C1       CG331   -0.170000       12.0110           0
     58420 WT19     1252     MECN     H11      HGA3     0.090000        1.0080           0
     58421 WT19     1252     MECN     H12      HGA3     0.090000        1.0080           0
     58422 WT19     1252     MECN     H13      HGA3     0.090000        1.0080           0
     58423 WT19     1252     MECN     C2       CG1N1    0.360000       12.0110           0
     58424 WT19     1252     MECN     N3       NG1T1   -0.460000       14.0070           0
     58425 WT19     1256     MECN     C1       CG331   -0.170000       12.0110           0
     58426 WT19     1256     MECN     H11      HGA3     0.090000        1.0080           0
     58427 WT19     1256     MECN     H12      HGA3     0.090000        1.0080           0
     58428 WT19     1256     MECN     H13      HGA3     0.090000        1.0080           0
     58429 WT19     1256     MECN     C2       CG1N1    0.360000       12.0110           0
     58430 WT19     1256     MECN     N3       NG1T1   -0.460000       14.0070           0
     58431 WT19     1257     MECN     C1       CG331   -0.170000       12.0110           0
     58432 WT19     1257     MECN     H11      HGA3     0.090000        1.0080           0
     58433 WT19     1257     MECN     H12      HGA3     0.090000        1.0080           0
     58434 WT19     1257     MECN     H13      HGA3     0.090000        1.0080           0
     58435 WT19     1257     MECN     C2       CG1N1    0.360000       12.0110           0
     58436 WT19     1257     MECN     N3       NG1T1   -0.460000       14.0070           0
     58437 WT19     1269     MECN     C1       CG331   -0.170000       12.0110           0
     58438 WT19     1269     MECN     H11      HGA3     0.090000        1.0080           0
     58439 WT19     1269     MECN     H12      HGA3     0.090000        1.0080           0
     58440 WT19     1269     MECN     H13      HGA3     0.090000        1.0080           0
     58441 WT19     1269     MECN     C2       CG1N1    0.360000       12.0110           0
     58442 WT19     1269     MECN     N3       NG1T1   -0.460000       14.0070           0
     58443 WT19     1270     MECN     C1       CG331   -0.170000       12.0110           0
     58444 WT19     1270     MECN     H11      HGA3     0.090000        1.0080           0
     58445 WT19     1270     MECN     H12      HGA3     0.090000        1.0080           0
     58446 WT19     1270     MECN     H13      HGA3     0.090000        1.0080           0
     58447 WT19     1270     MECN     C2       CG1N1    0.360000       12.0110           0
     58448 WT19     1270     MECN     N3       NG1T1   -0.460000       14.0070           0
     58449 WT19     1276     MECN     C1       CG331   -0.170000       12.0110           0
     58450 WT19     1276     MECN     H11      HGA3     0.090000        1.0080           0
     58451 WT19     1276     MECN     H12      HGA3     0.090000        1.0080           0
     58452 WT19     1276     MECN     H13      HGA3     0.090000        1.0080           0
     58453 WT19     1276     MECN     C2       CG1N1    0.360000       12.0110           0
     58454 WT19     1276     MECN     N3       NG1T1   -0.460000       14.0070           0
     58455 WT19     1287     MECN     C1       CG331   -0.170000       12.0110           0
     58456 WT19     1287     MECN     H11      HGA3     0.090000        1.0080           0
     58457 WT19     1287     MECN     H12      HGA3     0.090000        1.0080           0
     58458 WT19     1287     MECN     H13      HGA3     0.090000        1.0080           0
     58459 WT19     1287     MECN     C2       CG1N1    0.360000       12.0110           0
     58460 WT19     1287     MECN     N3       NG1T1   -0.460000       14.0070           0
     58461 WT19     1288     MECN     C1       CG331   -0.170000       12.0110           0
     58462 WT19     1288     MECN     H11      HGA3     0.090000        1.0080           0
     58463 WT19     1288     MECN     H12      HGA3     0.090000        1.0080           0
     58464 WT19     1288     MECN     H13      HGA3     0.090000        1.0080           0
     58465 WT19     1288     MECN     C2       CG1N1    0.360000       12.0110           0
     58466 WT19     1288     MECN     N3       NG1T1   -0.460000       14.0070           0
     58467 WT19     1289     MECN     C1       CG331   -0.170000       12.0110           0
     58468 WT19     1289     MECN     H11      HGA3     0.090000        1.0080           0
     58469 WT19     1289     MECN     H12      HGA3     0.090000        1.0080           0
     58470 WT19     1289     MECN     H13      HGA3     0.090000        1.0080           0
     58471 WT19     1289     MECN     C2       CG1N1    0.360000       12.0110           0
     58472 WT19     1289     MECN     N3       NG1T1   -0.460000       14.0070           0
     58473 WT19     1291     MECN     C1       CG331   -0.170000       12.0110           0
     58474 WT19     1291     MECN     H11      HGA3     0.090000        1.0080           0
     58475 WT19     1291     MECN     H12      HGA3     0.090000        1.0080           0
     58476 WT19     1291     MECN     H13      HGA3     0.090000        1.0080           0
     58477 WT19     1291     MECN     C2       CG1N1    0.360000       12.0110           0
     58478 WT19     1291     MECN     N3       NG1T1   -0.460000       14.0070           0
     58479 WT19     1295     MECN     C1       CG331   -0.170000       12.0110           0
     58480 WT19     1295     MECN     H11      HGA3     0.090000        1.0080           0
     58481 WT19     1295     MECN     H12      HGA3     0.090000        1.0080           0
     58482 WT19     1295     MECN     H13      HGA3     0.090000        1.0080           0
     58483 WT19     1295     MECN     C2       CG1N1    0.360000       12.0110           0
     58484 WT19     1295     MECN     N3       NG1T1   -0.460000       14.0070           0
     58485 WT19     1296     MECN     C1       CG331   -0.170000       12.0110           0
     58486 WT19     1296     MECN     H11      HGA3     0.090000        1.0080           0
     58487 WT19     1296     MECN     H12      HGA3     0.090000        1.0080           0
     58488 WT19     1296     MECN     H13      HGA3     0.090000        1.0080           0
     58489 WT19     1296     MECN     C2       CG1N1    0.360000       12.0110           0
     58490 WT19     1296     MECN     N3       NG1T1   -0.460000       14.0070           0
     58491 WT19     1310     MECN     C1       CG331   -0.170000       12.0110           0
     58492 WT19     1310     MECN     H11      HGA3     0.090000        1.0080           0
     58493 WT19     1310     MECN     H12      HGA3     0.090000        1.0080           0
     58494 WT19     1310     MECN     H13      HGA3     0.090000        1.0080           0
     58495 WT19     1310     MECN     C2       CG1N1    0.360000       12.0110           0
     58496 WT19     1310     MECN     N3       NG1T1   -0.460000       14.0070           0
     58497 WT19     1322     MECN     C1       CG331   -0.170000       12.0110           0
     58498 WT19     1322     MECN     H11      HGA3     0.090000        1.0080           0
     58499 WT19     1322     MECN     H12      HGA3     0.090000        1.0080           0
     58500 WT19     1322     MECN     H13      HGA3     0.090000        1.0080           0
     58501 WT19     1322     MECN     C2       CG1N1    0.360000       12.0110           0
     58502 WT19     1322     MECN     N3       NG1T1   -0.460000       14.0070           0
     58503 WT20     6        MECN     C1       CG331   -0.170000       12.0110           0
     58504 WT20     6        MECN     H11      HGA3     0.090000        1.0080           0
     58505 WT20     6        MECN     H12      HGA3     0.090000        1.0080           0
     58506 WT20     6        MECN     H13      HGA3     0.090000        1.0080           0
     58507 WT20     6        MECN     C2       CG1N1    0.360000       12.0110           0
     58508 WT20     6        MECN     N3       NG1T1   -0.460000       14.0070           0
     58509 WT20     7        MECN     C1       CG331   -0.170000       12.0110           0
     58510 WT20     7        MECN     H11      HGA3     0.090000        1.0080           0
     58511 WT20     7        MECN     H12      HGA3     0.090000        1.0080           0
     58512 WT20     7        MECN     H13      HGA3     0.090000        1.0080           0
     58513 WT20     7        MECN     C2       CG1N1    0.360000       12.0110           0
     58514 WT20     7        MECN     N3       NG1T1   -0.460000       14.0070           0
     58515 WT20     9        MECN     C1       CG331   -0.170000       12.0110           0
     58516 WT20     9        MECN     H11      HGA3     0.090000        1.0080           0
     58517 WT20     9        MECN     H12      HGA3     0.090000        1.0080           0
     58518 WT20     9        MECN     H13      HGA3     0.090000        1.0080           0
     58519 WT20     9        MECN     C2       CG1N1    0.360000       12.0110           0
     58520 WT20     9        MECN     N3       NG1T1   -0.460000       14.0070           0
     58521 WT20     10       MECN     C1       CG331   -0.170000       12.0110           0
     58522 WT20     10       MECN     H11      HGA3     0.090000        1.0080           0
     58523 WT20     10       MECN     H12      HGA3     0.090000        1.0080           0
     58524 WT20     10       MECN     H13      HGA3     0.090000        1.0080           0
     58525 WT20     10       MECN     C2       CG1N1    0.360000       12.0110           0
     58526 WT20     10       MECN     N3       NG1T1   -0.460000       14.0070           0
     58527 WT20     18       MECN     C1       CG331   -0.170000       12.0110           0
     58528 WT20     18       MECN     H11      HGA3     0.090000        1.0080           0
     58529 WT20     18       MECN     H12      HGA3     0.090000        1.0080           0
     58530 WT20     18       MECN     H13      HGA3     0.090000        1.0080           0
     58531 WT20     18       MECN     C2       CG1N1    0.360000       12.0110           0
     58532 WT20     18       MECN     N3       NG1T1   -0.460000       14.0070           0
     58533 WT20     21       MECN     C1       CG331   -0.170000       12.0110           0
     58534 WT20     21       MECN     H11      HGA3     0.090000        1.0080           0
     58535 WT20     21       MECN     H12      HGA3     0.090000        1.0080           0
     58536 WT20     21       MECN     H13      HGA3     0.090000        1.0080           0
     58537 WT20     21       MECN     C2       CG1N1    0.360000       12.0110           0
     58538 WT20     21       MECN     N3       NG1T1   -0.460000       14.0070           0
     58539 WT20     23       MECN     C1       CG331   -0.170000       12.0110           0
     58540 WT20     23       MECN     H11      HGA3     0.090000        1.0080           0
     58541 WT20     23       MECN     H12      HGA3     0.090000        1.0080           0
     58542 WT20     23       MECN     H13      HGA3     0.090000        1.0080           0
     58543 WT20     23       MECN     C2       CG1N1    0.360000       12.0110           0
     58544 WT20     23       MECN     N3       NG1T1   -0.460000       14.0070           0
     58545 WT20     27       MECN     C1       CG331   -0.170000       12.0110           0
     58546 WT20     27       MECN     H11      HGA3     0.090000        1.0080           0
     58547 WT20     27       MECN     H12      HGA3     0.090000        1.0080           0
     58548 WT20     27       MECN     H13      HGA3     0.090000        1.0080           0
     58549 WT20     27       MECN     C2       CG1N1    0.360000       12.0110           0
     58550 WT20     27       MECN     N3       NG1T1   -0.460000       14.0070           0
     58551 WT20     28       MECN     C1       CG331   -0.170000       12.0110           0
     58552 WT20     28       MECN     H11      HGA3     0.090000        1.0080           0
     58553 WT20     28       MECN     H12      HGA3     0.090000        1.0080           0
     58554 WT20     28       MECN     H13      HGA3     0.090000        1.0080           0
     58555 WT20     28       MECN     C2       CG1N1    0.360000       12.0110           0
     58556 WT20     28       MECN     N3       NG1T1   -0.460000       14.0070           0
     58557 WT20     29       MECN     C1       CG331   -0.170000       12.0110           0
     58558 WT20     29       MECN     H11      HGA3     0.090000        1.0080           0
     58559 WT20     29       MECN     H12      HGA3     0.090000        1.0080           0
     58560 WT20     29       MECN     H13      HGA3     0.090000        1.0080           0
     58561 WT20     29       MECN     C2       CG1N1    0.360000       12.0110           0
     58562 WT20     29       MECN     N3       NG1T1   -0.460000       14.0070           0
     58563 WT20     32       MECN     C1       CG331   -0.170000       12.0110           0
     58564 WT20     32       MECN     H11      HGA3     0.090000        1.0080           0
     58565 WT20     32       MECN     H12      HGA3     0.090000        1.0080           0
     58566 WT20     32       MECN     H13      HGA3     0.090000        1.0080           0
     58567 WT20     32       MECN     C2       CG1N1    0.360000       12.0110           0
     58568 WT20     32       MECN     N3       NG1T1   -0.460000       14.0070           0
     58569 WT20     44       MECN     C1       CG331   -0.170000       12.0110           0
     58570 WT20     44       MECN     H11      HGA3     0.090000        1.0080           0
     58571 WT20     44       MECN     H12      HGA3     0.090000        1.0080           0
     58572 WT20     44       MECN     H13      HGA3     0.090000        1.0080           0
     58573 WT20     44       MECN     C2       CG1N1    0.360000       12.0110           0
     58574 WT20     44       MECN     N3       NG1T1   -0.460000       14.0070           0
     58575 WT20     47       MECN     C1       CG331   -0.170000       12.0110           0
     58576 WT20     47       MECN     H11      HGA3     0.090000        1.0080           0
     58577 WT20     47       MECN     H12      HGA3     0.090000        1.0080           0
     58578 WT20     47       MECN     H13      HGA3     0.090000        1.0080           0
     58579 WT20     47       MECN     C2       CG1N1    0.360000       12.0110           0
     58580 WT20     47       MECN     N3       NG1T1   -0.460000       14.0070           0
     58581 WT20     49       MECN     C1       CG331   -0.170000       12.0110           0
     58582 WT20     49       MECN     H11      HGA3     0.090000        1.0080           0
     58583 WT20     49       MECN     H12      HGA3     0.090000        1.0080           0
     58584 WT20     49       MECN     H13      HGA3     0.090000        1.0080           0
     58585 WT20     49       MECN     C2       CG1N1    0.360000       12.0110           0
     58586 WT20     49       MECN     N3       NG1T1   -0.460000       14.0070           0
     58587 WT20     50       MECN     C1       CG331   -0.170000       12.0110           0
     58588 WT20     50       MECN     H11      HGA3     0.090000        1.0080           0
     58589 WT20     50       MECN     H12      HGA3     0.090000        1.0080           0
     58590 WT20     50       MECN     H13      HGA3     0.090000        1.0080           0
     58591 WT20     50       MECN     C2       CG1N1    0.360000       12.0110           0
     58592 WT20     50       MECN     N3       NG1T1   -0.460000       14.0070           0
     58593 WT20     52       MECN     C1       CG331   -0.170000       12.0110           0
     58594 WT20     52       MECN     H11      HGA3     0.090000        1.0080           0
     58595 WT20     52       MECN     H12      HGA3     0.090000        1.0080           0
     58596 WT20     52       MECN     H13      HGA3     0.090000        1.0080           0
     58597 WT20     52       MECN     C2       CG1N1    0.360000       12.0110           0
     58598 WT20     52       MECN     N3       NG1T1   -0.460000       14.0070           0
     58599 WT20     55       MECN     C1       CG331   -0.170000       12.0110           0
     58600 WT20     55       MECN     H11      HGA3     0.090000        1.0080           0
     58601 WT20     55       MECN     H12      HGA3     0.090000        1.0080           0
     58602 WT20     55       MECN     H13      HGA3     0.090000        1.0080           0
     58603 WT20     55       MECN     C2       CG1N1    0.360000       12.0110           0
     58604 WT20     55       MECN     N3       NG1T1   -0.460000       14.0070           0
     58605 WT20     56       MECN     C1       CG331   -0.170000       12.0110           0
     58606 WT20     56       MECN     H11      HGA3     0.090000        1.0080           0
     58607 WT20     56       MECN     H12      HGA3     0.090000        1.0080           0
     58608 WT20     56       MECN     H13      HGA3     0.090000        1.0080           0
     58609 WT20     56       MECN     C2       CG1N1    0.360000       12.0110           0
     58610 WT20     56       MECN     N3       NG1T1   -0.460000       14.0070           0
     58611 WT20     57       MECN     C1       CG331   -0.170000       12.0110           0
     58612 WT20     57       MECN     H11      HGA3     0.090000        1.0080           0
     58613 WT20     57       MECN     H12      HGA3     0.090000        1.0080           0
     58614 WT20     57       MECN     H13      HGA3     0.090000        1.0080           0
     58615 WT20     57       MECN     C2       CG1N1    0.360000       12.0110           0
     58616 WT20     57       MECN     N3       NG1T1   -0.460000       14.0070           0
     58617 WT20     59       MECN     C1       CG331   -0.170000       12.0110           0
     58618 WT20     59       MECN     H11      HGA3     0.090000        1.0080           0
     58619 WT20     59       MECN     H12      HGA3     0.090000        1.0080           0
     58620 WT20     59       MECN     H13      HGA3     0.090000        1.0080           0
     58621 WT20     59       MECN     C2       CG1N1    0.360000       12.0110           0
     58622 WT20     59       MECN     N3       NG1T1   -0.460000       14.0070           0
     58623 WT20     61       MECN     C1       CG331   -0.170000       12.0110           0
     58624 WT20     61       MECN     H11      HGA3     0.090000        1.0080           0
     58625 WT20     61       MECN     H12      HGA3     0.090000        1.0080           0
     58626 WT20     61       MECN     H13      HGA3     0.090000        1.0080           0
     58627 WT20     61       MECN     C2       CG1N1    0.360000       12.0110           0
     58628 WT20     61       MECN     N3       NG1T1   -0.460000       14.0070           0
     58629 WT20     63       MECN     C1       CG331   -0.170000       12.0110           0
     58630 WT20     63       MECN     H11      HGA3     0.090000        1.0080           0
     58631 WT20     63       MECN     H12      HGA3     0.090000        1.0080           0
     58632 WT20     63       MECN     H13      HGA3     0.090000        1.0080           0
     58633 WT20     63       MECN     C2       CG1N1    0.360000       12.0110           0
     58634 WT20     63       MECN     N3       NG1T1   -0.460000       14.0070           0
     58635 WT20     64       MECN     C1       CG331   -0.170000       12.0110           0
     58636 WT20     64       MECN     H11      HGA3     0.090000        1.0080           0
     58637 WT20     64       MECN     H12      HGA3     0.090000        1.0080           0
     58638 WT20     64       MECN     H13      HGA3     0.090000        1.0080           0
     58639 WT20     64       MECN     C2       CG1N1    0.360000       12.0110           0
     58640 WT20     64       MECN     N3       NG1T1   -0.460000       14.0070           0
     58641 WT20     65       MECN     C1       CG331   -0.170000       12.0110           0
     58642 WT20     65       MECN     H11      HGA3     0.090000        1.0080           0
     58643 WT20     65       MECN     H12      HGA3     0.090000        1.0080           0
     58644 WT20     65       MECN     H13      HGA3     0.090000        1.0080           0
     58645 WT20     65       MECN     C2       CG1N1    0.360000       12.0110           0
     58646 WT20     65       MECN     N3       NG1T1   -0.460000       14.0070           0
     58647 WT20     66       MECN     C1       CG331   -0.170000       12.0110           0
     58648 WT20     66       MECN     H11      HGA3     0.090000        1.0080           0
     58649 WT20     66       MECN     H12      HGA3     0.090000        1.0080           0
     58650 WT20     66       MECN     H13      HGA3     0.090000        1.0080           0
     58651 WT20     66       MECN     C2       CG1N1    0.360000       12.0110           0
     58652 WT20     66       MECN     N3       NG1T1   -0.460000       14.0070           0
     58653 WT20     71       MECN     C1       CG331   -0.170000       12.0110           0
     58654 WT20     71       MECN     H11      HGA3     0.090000        1.0080           0
     58655 WT20     71       MECN     H12      HGA3     0.090000        1.0080           0
     58656 WT20     71       MECN     H13      HGA3     0.090000        1.0080           0
     58657 WT20     71       MECN     C2       CG1N1    0.360000       12.0110           0
     58658 WT20     71       MECN     N3       NG1T1   -0.460000       14.0070           0
     58659 WT20     79       MECN     C1       CG331   -0.170000       12.0110           0
     58660 WT20     79       MECN     H11      HGA3     0.090000        1.0080           0
     58661 WT20     79       MECN     H12      HGA3     0.090000        1.0080           0
     58662 WT20     79       MECN     H13      HGA3     0.090000        1.0080           0
     58663 WT20     79       MECN     C2       CG1N1    0.360000       12.0110           0
     58664 WT20     79       MECN     N3       NG1T1   -0.460000       14.0070           0
     58665 WT20     83       MECN     C1       CG331   -0.170000       12.0110           0
     58666 WT20     83       MECN     H11      HGA3     0.090000        1.0080           0
     58667 WT20     83       MECN     H12      HGA3     0.090000        1.0080           0
     58668 WT20     83       MECN     H13      HGA3     0.090000        1.0080           0
     58669 WT20     83       MECN     C2       CG1N1    0.360000       12.0110           0
     58670 WT20     83       MECN     N3       NG1T1   -0.460000       14.0070           0
     58671 WT20     88       MECN     C1       CG331   -0.170000       12.0110           0
     58672 WT20     88       MECN     H11      HGA3     0.090000        1.0080           0
     58673 WT20     88       MECN     H12      HGA3     0.090000        1.0080           0
     58674 WT20     88       MECN     H13      HGA3     0.090000        1.0080           0
     58675 WT20     88       MECN     C2       CG1N1    0.360000       12.0110           0
     58676 WT20     88       MECN     N3       NG1T1   -0.460000       14.0070           0
     58677 WT20     89       MECN     C1       CG331   -0.170000       12.0110           0
     58678 WT20     89       MECN     H11      HGA3     0.090000        1.0080           0
     58679 WT20     89       MECN     H12      HGA3     0.090000        1.0080           0
     58680 WT20     89       MECN     H13      HGA3     0.090000        1.0080           0
     58681 WT20     89       MECN     C2       CG1N1    0.360000       12.0110           0
     58682 WT20     89       MECN     N3       NG1T1   -0.460000       14.0070           0
     58683 WT20     92       MECN     C1       CG331   -0.170000       12.0110           0
     58684 WT20     92       MECN     H11      HGA3     0.090000        1.0080           0
     58685 WT20     92       MECN     H12      HGA3     0.090000        1.0080           0
     58686 WT20     92       MECN     H13      HGA3     0.090000        1.0080           0
     58687 WT20     92       MECN     C2       CG1N1    0.360000       12.0110           0
     58688 WT20     92       MECN     N3       NG1T1   -0.460000       14.0070           0
     58689 WT20     105      MECN     C1       CG331   -0.170000       12.0110           0
     58690 WT20     105      MECN     H11      HGA3     0.090000        1.0080           0
     58691 WT20     105      MECN     H12      HGA3     0.090000        1.0080           0
     58692 WT20     105      MECN     H13      HGA3     0.090000        1.0080           0
     58693 WT20     105      MECN     C2       CG1N1    0.360000       12.0110           0
     58694 WT20     105      MECN     N3       NG1T1   -0.460000       14.0070           0
     58695 WT20     106      MECN     C1       CG331   -0.170000       12.0110           0
     58696 WT20     106      MECN     H11      HGA3     0.090000        1.0080           0
     58697 WT20     106      MECN     H12      HGA3     0.090000        1.0080           0
     58698 WT20     106      MECN     H13      HGA3     0.090000        1.0080           0
     58699 WT20     106      MECN     C2       CG1N1    0.360000       12.0110           0
     58700 WT20     106      MECN     N3       NG1T1   -0.460000       14.0070           0
     58701 WT20     111      MECN     C1       CG331   -0.170000       12.0110           0
     58702 WT20     111      MECN     H11      HGA3     0.090000        1.0080           0
     58703 WT20     111      MECN     H12      HGA3     0.090000        1.0080           0
     58704 WT20     111      MECN     H13      HGA3     0.090000        1.0080           0
     58705 WT20     111      MECN     C2       CG1N1    0.360000       12.0110           0
     58706 WT20     111      MECN     N3       NG1T1   -0.460000       14.0070           0
     58707 WT20     112      MECN     C1       CG331   -0.170000       12.0110           0
     58708 WT20     112      MECN     H11      HGA3     0.090000        1.0080           0
     58709 WT20     112      MECN     H12      HGA3     0.090000        1.0080           0
     58710 WT20     112      MECN     H13      HGA3     0.090000        1.0080           0
     58711 WT20     112      MECN     C2       CG1N1    0.360000       12.0110           0
     58712 WT20     112      MECN     N3       NG1T1   -0.460000       14.0070           0
     58713 WT20     113      MECN     C1       CG331   -0.170000       12.0110           0
     58714 WT20     113      MECN     H11      HGA3     0.090000        1.0080           0
     58715 WT20     113      MECN     H12      HGA3     0.090000        1.0080           0
     58716 WT20     113      MECN     H13      HGA3     0.090000        1.0080           0
     58717 WT20     113      MECN     C2       CG1N1    0.360000       12.0110           0
     58718 WT20     113      MECN     N3       NG1T1   -0.460000       14.0070           0
     58719 WT20     115      MECN     C1       CG331   -0.170000       12.0110           0
     58720 WT20     115      MECN     H11      HGA3     0.090000        1.0080           0
     58721 WT20     115      MECN     H12      HGA3     0.090000        1.0080           0
     58722 WT20     115      MECN     H13      HGA3     0.090000        1.0080           0
     58723 WT20     115      MECN     C2       CG1N1    0.360000       12.0110           0
     58724 WT20     115      MECN     N3       NG1T1   -0.460000       14.0070           0
     58725 WT20     117      MECN     C1       CG331   -0.170000       12.0110           0
     58726 WT20     117      MECN     H11      HGA3     0.090000        1.0080           0
     58727 WT20     117      MECN     H12      HGA3     0.090000        1.0080           0
     58728 WT20     117      MECN     H13      HGA3     0.090000        1.0080           0
     58729 WT20     117      MECN     C2       CG1N1    0.360000       12.0110           0
     58730 WT20     117      MECN     N3       NG1T1   -0.460000       14.0070           0
     58731 WT20     118      MECN     C1       CG331   -0.170000       12.0110           0
     58732 WT20     118      MECN     H11      HGA3     0.090000        1.0080           0
     58733 WT20     118      MECN     H12      HGA3     0.090000        1.0080           0
     58734 WT20     118      MECN     H13      HGA3     0.090000        1.0080           0
     58735 WT20     118      MECN     C2       CG1N1    0.360000       12.0110           0
     58736 WT20     118      MECN     N3       NG1T1   -0.460000       14.0070           0
     58737 WT20     119      MECN     C1       CG331   -0.170000       12.0110           0
     58738 WT20     119      MECN     H11      HGA3     0.090000        1.0080           0
     58739 WT20     119      MECN     H12      HGA3     0.090000        1.0080           0
     58740 WT20     119      MECN     H13      HGA3     0.090000        1.0080           0
     58741 WT20     119      MECN     C2       CG1N1    0.360000       12.0110           0
     58742 WT20     119      MECN     N3       NG1T1   -0.460000       14.0070           0
     58743 WT20     121      MECN     C1       CG331   -0.170000       12.0110           0
     58744 WT20     121      MECN     H11      HGA3     0.090000        1.0080           0
     58745 WT20     121      MECN     H12      HGA3     0.090000        1.0080           0
     58746 WT20     121      MECN     H13      HGA3     0.090000        1.0080           0
     58747 WT20     121      MECN     C2       CG1N1    0.360000       12.0110           0
     58748 WT20     121      MECN     N3       NG1T1   -0.460000       14.0070           0
     58749 WT20     122      MECN     C1       CG331   -0.170000       12.0110           0
     58750 WT20     122      MECN     H11      HGA3     0.090000        1.0080           0
     58751 WT20     122      MECN     H12      HGA3     0.090000        1.0080           0
     58752 WT20     122      MECN     H13      HGA3     0.090000        1.0080           0
     58753 WT20     122      MECN     C2       CG1N1    0.360000       12.0110           0
     58754 WT20     122      MECN     N3       NG1T1   -0.460000       14.0070           0
     58755 WT20     124      MECN     C1       CG331   -0.170000       12.0110           0
     58756 WT20     124      MECN     H11      HGA3     0.090000        1.0080           0
     58757 WT20     124      MECN     H12      HGA3     0.090000        1.0080           0
     58758 WT20     124      MECN     H13      HGA3     0.090000        1.0080           0
     58759 WT20     124      MECN     C2       CG1N1    0.360000       12.0110           0
     58760 WT20     124      MECN     N3       NG1T1   -0.460000       14.0070           0
     58761 WT20     127      MECN     C1       CG331   -0.170000       12.0110           0
     58762 WT20     127      MECN     H11      HGA3     0.090000        1.0080           0
     58763 WT20     127      MECN     H12      HGA3     0.090000        1.0080           0
     58764 WT20     127      MECN     H13      HGA3     0.090000        1.0080           0
     58765 WT20     127      MECN     C2       CG1N1    0.360000       12.0110           0
     58766 WT20     127      MECN     N3       NG1T1   -0.460000       14.0070           0
     58767 WT20     129      MECN     C1       CG331   -0.170000       12.0110           0
     58768 WT20     129      MECN     H11      HGA3     0.090000        1.0080           0
     58769 WT20     129      MECN     H12      HGA3     0.090000        1.0080           0
     58770 WT20     129      MECN     H13      HGA3     0.090000        1.0080           0
     58771 WT20     129      MECN     C2       CG1N1    0.360000       12.0110           0
     58772 WT20     129      MECN     N3       NG1T1   -0.460000       14.0070           0
     58773 WT20     134      MECN     C1       CG331   -0.170000       12.0110           0
     58774 WT20     134      MECN     H11      HGA3     0.090000        1.0080           0
     58775 WT20     134      MECN     H12      HGA3     0.090000        1.0080           0
     58776 WT20     134      MECN     H13      HGA3     0.090000        1.0080           0
     58777 WT20     134      MECN     C2       CG1N1    0.360000       12.0110           0
     58778 WT20     134      MECN     N3       NG1T1   -0.460000       14.0070           0
     58779 WT20     135      MECN     C1       CG331   -0.170000       12.0110           0
     58780 WT20     135      MECN     H11      HGA3     0.090000        1.0080           0
     58781 WT20     135      MECN     H12      HGA3     0.090000        1.0080           0
     58782 WT20     135      MECN     H13      HGA3     0.090000        1.0080           0
     58783 WT20     135      MECN     C2       CG1N1    0.360000       12.0110           0
     58784 WT20     135      MECN     N3       NG1T1   -0.460000       14.0070           0
     58785 WT20     143      MECN     C1       CG331   -0.170000       12.0110           0
     58786 WT20     143      MECN     H11      HGA3     0.090000        1.0080           0
     58787 WT20     143      MECN     H12      HGA3     0.090000        1.0080           0
     58788 WT20     143      MECN     H13      HGA3     0.090000        1.0080           0
     58789 WT20     143      MECN     C2       CG1N1    0.360000       12.0110           0
     58790 WT20     143      MECN     N3       NG1T1   -0.460000       14.0070           0
     58791 WT20     145      MECN     C1       CG331   -0.170000       12.0110           0
     58792 WT20     145      MECN     H11      HGA3     0.090000        1.0080           0
     58793 WT20     145      MECN     H12      HGA3     0.090000        1.0080           0
     58794 WT20     145      MECN     H13      HGA3     0.090000        1.0080           0
     58795 WT20     145      MECN     C2       CG1N1    0.360000       12.0110           0
     58796 WT20     145      MECN     N3       NG1T1   -0.460000       14.0070           0
     58797 WT20     147      MECN     C1       CG331   -0.170000       12.0110           0
     58798 WT20     147      MECN     H11      HGA3     0.090000        1.0080           0
     58799 WT20     147      MECN     H12      HGA3     0.090000        1.0080           0
     58800 WT20     147      MECN     H13      HGA3     0.090000        1.0080           0
     58801 WT20     147      MECN     C2       CG1N1    0.360000       12.0110           0
     58802 WT20     147      MECN     N3       NG1T1   -0.460000       14.0070           0
     58803 WT20     150      MECN     C1       CG331   -0.170000       12.0110           0
     58804 WT20     150      MECN     H11      HGA3     0.090000        1.0080           0
     58805 WT20     150      MECN     H12      HGA3     0.090000        1.0080           0
     58806 WT20     150      MECN     H13      HGA3     0.090000        1.0080           0
     58807 WT20     150      MECN     C2       CG1N1    0.360000       12.0110           0
     58808 WT20     150      MECN     N3       NG1T1   -0.460000       14.0070           0
     58809 WT20     154      MECN     C1       CG331   -0.170000       12.0110           0
     58810 WT20     154      MECN     H11      HGA3     0.090000        1.0080           0
     58811 WT20     154      MECN     H12      HGA3     0.090000        1.0080           0
     58812 WT20     154      MECN     H13      HGA3     0.090000        1.0080           0
     58813 WT20     154      MECN     C2       CG1N1    0.360000       12.0110           0
     58814 WT20     154      MECN     N3       NG1T1   -0.460000       14.0070           0
     58815 WT20     155      MECN     C1       CG331   -0.170000       12.0110           0
     58816 WT20     155      MECN     H11      HGA3     0.090000        1.0080           0
     58817 WT20     155      MECN     H12      HGA3     0.090000        1.0080           0
     58818 WT20     155      MECN     H13      HGA3     0.090000        1.0080           0
     58819 WT20     155      MECN     C2       CG1N1    0.360000       12.0110           0
     58820 WT20     155      MECN     N3       NG1T1   -0.460000       14.0070           0
     58821 WT20     159      MECN     C1       CG331   -0.170000       12.0110           0
     58822 WT20     159      MECN     H11      HGA3     0.090000        1.0080           0
     58823 WT20     159      MECN     H12      HGA3     0.090000        1.0080           0
     58824 WT20     159      MECN     H13      HGA3     0.090000        1.0080           0
     58825 WT20     159      MECN     C2       CG1N1    0.360000       12.0110           0
     58826 WT20     159      MECN     N3       NG1T1   -0.460000       14.0070           0
     58827 WT20     164      MECN     C1       CG331   -0.170000       12.0110           0
     58828 WT20     164      MECN     H11      HGA3     0.090000        1.0080           0
     58829 WT20     164      MECN     H12      HGA3     0.090000        1.0080           0
     58830 WT20     164      MECN     H13      HGA3     0.090000        1.0080           0
     58831 WT20     164      MECN     C2       CG1N1    0.360000       12.0110           0
     58832 WT20     164      MECN     N3       NG1T1   -0.460000       14.0070           0
     58833 WT20     168      MECN     C1       CG331   -0.170000       12.0110           0
     58834 WT20     168      MECN     H11      HGA3     0.090000        1.0080           0
     58835 WT20     168      MECN     H12      HGA3     0.090000        1.0080           0
     58836 WT20     168      MECN     H13      HGA3     0.090000        1.0080           0
     58837 WT20     168      MECN     C2       CG1N1    0.360000       12.0110           0
     58838 WT20     168      MECN     N3       NG1T1   -0.460000       14.0070           0
     58839 WT20     173      MECN     C1       CG331   -0.170000       12.0110           0
     58840 WT20     173      MECN     H11      HGA3     0.090000        1.0080           0
     58841 WT20     173      MECN     H12      HGA3     0.090000        1.0080           0
     58842 WT20     173      MECN     H13      HGA3     0.090000        1.0080           0
     58843 WT20     173      MECN     C2       CG1N1    0.360000       12.0110           0
     58844 WT20     173      MECN     N3       NG1T1   -0.460000       14.0070           0
     58845 WT20     175      MECN     C1       CG331   -0.170000       12.0110           0
     58846 WT20     175      MECN     H11      HGA3     0.090000        1.0080           0
     58847 WT20     175      MECN     H12      HGA3     0.090000        1.0080           0
     58848 WT20     175      MECN     H13      HGA3     0.090000        1.0080           0
     58849 WT20     175      MECN     C2       CG1N1    0.360000       12.0110           0
     58850 WT20     175      MECN     N3       NG1T1   -0.460000       14.0070           0
     58851 WT20     179      MECN     C1       CG331   -0.170000       12.0110           0
     58852 WT20     179      MECN     H11      HGA3     0.090000        1.0080           0
     58853 WT20     179      MECN     H12      HGA3     0.090000        1.0080           0
     58854 WT20     179      MECN     H13      HGA3     0.090000        1.0080           0
     58855 WT20     179      MECN     C2       CG1N1    0.360000       12.0110           0
     58856 WT20     179      MECN     N3       NG1T1   -0.460000       14.0070           0
     58857 WT20     181      MECN     C1       CG331   -0.170000       12.0110           0
     58858 WT20     181      MECN     H11      HGA3     0.090000        1.0080           0
     58859 WT20     181      MECN     H12      HGA3     0.090000        1.0080           0
     58860 WT20     181      MECN     H13      HGA3     0.090000        1.0080           0
     58861 WT20     181      MECN     C2       CG1N1    0.360000       12.0110           0
     58862 WT20     181      MECN     N3       NG1T1   -0.460000       14.0070           0
     58863 WT20     184      MECN     C1       CG331   -0.170000       12.0110           0
     58864 WT20     184      MECN     H11      HGA3     0.090000        1.0080           0
     58865 WT20     184      MECN     H12      HGA3     0.090000        1.0080           0
     58866 WT20     184      MECN     H13      HGA3     0.090000        1.0080           0
     58867 WT20     184      MECN     C2       CG1N1    0.360000       12.0110           0
     58868 WT20     184      MECN     N3       NG1T1   -0.460000       14.0070           0
     58869 WT20     186      MECN     C1       CG331   -0.170000       12.0110           0
     58870 WT20     186      MECN     H11      HGA3     0.090000        1.0080           0
     58871 WT20     186      MECN     H12      HGA3     0.090000        1.0080           0
     58872 WT20     186      MECN     H13      HGA3     0.090000        1.0080           0
     58873 WT20     186      MECN     C2       CG1N1    0.360000       12.0110           0
     58874 WT20     186      MECN     N3       NG1T1   -0.460000       14.0070           0
     58875 WT20     190      MECN     C1       CG331   -0.170000       12.0110           0
     58876 WT20     190      MECN     H11      HGA3     0.090000        1.0080           0
     58877 WT20     190      MECN     H12      HGA3     0.090000        1.0080           0
     58878 WT20     190      MECN     H13      HGA3     0.090000        1.0080           0
     58879 WT20     190      MECN     C2       CG1N1    0.360000       12.0110           0
     58880 WT20     190      MECN     N3       NG1T1   -0.460000       14.0070           0
     58881 WT20     191      MECN     C1       CG331   -0.170000       12.0110           0
     58882 WT20     191      MECN     H11      HGA3     0.090000        1.0080           0
     58883 WT20     191      MECN     H12      HGA3     0.090000        1.0080           0
     58884 WT20     191      MECN     H13      HGA3     0.090000        1.0080           0
     58885 WT20     191      MECN     C2       CG1N1    0.360000       12.0110           0
     58886 WT20     191      MECN     N3       NG1T1   -0.460000       14.0070           0
     58887 WT20     199      MECN     C1       CG331   -0.170000       12.0110           0
     58888 WT20     199      MECN     H11      HGA3     0.090000        1.0080           0
     58889 WT20     199      MECN     H12      HGA3     0.090000        1.0080           0
     58890 WT20     199      MECN     H13      HGA3     0.090000        1.0080           0
     58891 WT20     199      MECN     C2       CG1N1    0.360000       12.0110           0
     58892 WT20     199      MECN     N3       NG1T1   -0.460000       14.0070           0
     58893 WT20     202      MECN     C1       CG331   -0.170000       12.0110           0
     58894 WT20     202      MECN     H11      HGA3     0.090000        1.0080           0
     58895 WT20     202      MECN     H12      HGA3     0.090000        1.0080           0
     58896 WT20     202      MECN     H13      HGA3     0.090000        1.0080           0
     58897 WT20     202      MECN     C2       CG1N1    0.360000       12.0110           0
     58898 WT20     202      MECN     N3       NG1T1   -0.460000       14.0070           0
     58899 WT20     203      MECN     C1       CG331   -0.170000       12.0110           0
     58900 WT20     203      MECN     H11      HGA3     0.090000        1.0080           0
     58901 WT20     203      MECN     H12      HGA3     0.090000        1.0080           0
     58902 WT20     203      MECN     H13      HGA3     0.090000        1.0080           0
     58903 WT20     203      MECN     C2       CG1N1    0.360000       12.0110           0
     58904 WT20     203      MECN     N3       NG1T1   -0.460000       14.0070           0
     58905 WT20     204      MECN     C1       CG331   -0.170000       12.0110           0
     58906 WT20     204      MECN     H11      HGA3     0.090000        1.0080           0
     58907 WT20     204      MECN     H12      HGA3     0.090000        1.0080           0
     58908 WT20     204      MECN     H13      HGA3     0.090000        1.0080           0
     58909 WT20     204      MECN     C2       CG1N1    0.360000       12.0110           0
     58910 WT20     204      MECN     N3       NG1T1   -0.460000       14.0070           0
     58911 WT20     205      MECN     C1       CG331   -0.170000       12.0110           0
     58912 WT20     205      MECN     H11      HGA3     0.090000        1.0080           0
     58913 WT20     205      MECN     H12      HGA3     0.090000        1.0080           0
     58914 WT20     205      MECN     H13      HGA3     0.090000        1.0080           0
     58915 WT20     205      MECN     C2       CG1N1    0.360000       12.0110           0
     58916 WT20     205      MECN     N3       NG1T1   -0.460000       14.0070           0
     58917 WT20     209      MECN     C1       CG331   -0.170000       12.0110           0
     58918 WT20     209      MECN     H11      HGA3     0.090000        1.0080           0
     58919 WT20     209      MECN     H12      HGA3     0.090000        1.0080           0
     58920 WT20     209      MECN     H13      HGA3     0.090000        1.0080           0
     58921 WT20     209      MECN     C2       CG1N1    0.360000       12.0110           0
     58922 WT20     209      MECN     N3       NG1T1   -0.460000       14.0070           0
     58923 WT20     212      MECN     C1       CG331   -0.170000       12.0110           0
     58924 WT20     212      MECN     H11      HGA3     0.090000        1.0080           0
     58925 WT20     212      MECN     H12      HGA3     0.090000        1.0080           0
     58926 WT20     212      MECN     H13      HGA3     0.090000        1.0080           0
     58927 WT20     212      MECN     C2       CG1N1    0.360000       12.0110           0
     58928 WT20     212      MECN     N3       NG1T1   -0.460000       14.0070           0
     58929 WT20     216      MECN     C1       CG331   -0.170000       12.0110           0
     58930 WT20     216      MECN     H11      HGA3     0.090000        1.0080           0
     58931 WT20     216      MECN     H12      HGA3     0.090000        1.0080           0
     58932 WT20     216      MECN     H13      HGA3     0.090000        1.0080           0
     58933 WT20     216      MECN     C2       CG1N1    0.360000       12.0110           0
     58934 WT20     216      MECN     N3       NG1T1   -0.460000       14.0070           0
     58935 WT20     230      MECN     C1       CG331   -0.170000       12.0110           0
     58936 WT20     230      MECN     H11      HGA3     0.090000        1.0080           0
     58937 WT20     230      MECN     H12      HGA3     0.090000        1.0080           0
     58938 WT20     230      MECN     H13      HGA3     0.090000        1.0080           0
     58939 WT20     230      MECN     C2       CG1N1    0.360000       12.0110           0
     58940 WT20     230      MECN     N3       NG1T1   -0.460000       14.0070           0
     58941 WT20     231      MECN     C1       CG331   -0.170000       12.0110           0
     58942 WT20     231      MECN     H11      HGA3     0.090000        1.0080           0
     58943 WT20     231      MECN     H12      HGA3     0.090000        1.0080           0
     58944 WT20     231      MECN     H13      HGA3     0.090000        1.0080           0
     58945 WT20     231      MECN     C2       CG1N1    0.360000       12.0110           0
     58946 WT20     231      MECN     N3       NG1T1   -0.460000       14.0070           0
     58947 WT20     246      MECN     C1       CG331   -0.170000       12.0110           0
     58948 WT20     246      MECN     H11      HGA3     0.090000        1.0080           0
     58949 WT20     246      MECN     H12      HGA3     0.090000        1.0080           0
     58950 WT20     246      MECN     H13      HGA3     0.090000        1.0080           0
     58951 WT20     246      MECN     C2       CG1N1    0.360000       12.0110           0
     58952 WT20     246      MECN     N3       NG1T1   -0.460000       14.0070           0
     58953 WT20     247      MECN     C1       CG331   -0.170000       12.0110           0
     58954 WT20     247      MECN     H11      HGA3     0.090000        1.0080           0
     58955 WT20     247      MECN     H12      HGA3     0.090000        1.0080           0
     58956 WT20     247      MECN     H13      HGA3     0.090000        1.0080           0
     58957 WT20     247      MECN     C2       CG1N1    0.360000       12.0110           0
     58958 WT20     247      MECN     N3       NG1T1   -0.460000       14.0070           0
     58959 WT20     248      MECN     C1       CG331   -0.170000       12.0110           0
     58960 WT20     248      MECN     H11      HGA3     0.090000        1.0080           0
     58961 WT20     248      MECN     H12      HGA3     0.090000        1.0080           0
     58962 WT20     248      MECN     H13      HGA3     0.090000        1.0080           0
     58963 WT20     248      MECN     C2       CG1N1    0.360000       12.0110           0
     58964 WT20     248      MECN     N3       NG1T1   -0.460000       14.0070           0
     58965 WT20     252      MECN     C1       CG331   -0.170000       12.0110           0
     58966 WT20     252      MECN     H11      HGA3     0.090000        1.0080           0
     58967 WT20     252      MECN     H12      HGA3     0.090000        1.0080           0
     58968 WT20     252      MECN     H13      HGA3     0.090000        1.0080           0
     58969 WT20     252      MECN     C2       CG1N1    0.360000       12.0110           0
     58970 WT20     252      MECN     N3       NG1T1   -0.460000       14.0070           0
     58971 WT20     253      MECN     C1       CG331   -0.170000       12.0110           0
     58972 WT20     253      MECN     H11      HGA3     0.090000        1.0080           0
     58973 WT20     253      MECN     H12      HGA3     0.090000        1.0080           0
     58974 WT20     253      MECN     H13      HGA3     0.090000        1.0080           0
     58975 WT20     253      MECN     C2       CG1N1    0.360000       12.0110           0
     58976 WT20     253      MECN     N3       NG1T1   -0.460000       14.0070           0
     58977 WT20     260      MECN     C1       CG331   -0.170000       12.0110           0
     58978 WT20     260      MECN     H11      HGA3     0.090000        1.0080           0
     58979 WT20     260      MECN     H12      HGA3     0.090000        1.0080           0
     58980 WT20     260      MECN     H13      HGA3     0.090000        1.0080           0
     58981 WT20     260      MECN     C2       CG1N1    0.360000       12.0110           0
     58982 WT20     260      MECN     N3       NG1T1   -0.460000       14.0070           0
     58983 WT20     270      MECN     C1       CG331   -0.170000       12.0110           0
     58984 WT20     270      MECN     H11      HGA3     0.090000        1.0080           0
     58985 WT20     270      MECN     H12      HGA3     0.090000        1.0080           0
     58986 WT20     270      MECN     H13      HGA3     0.090000        1.0080           0
     58987 WT20     270      MECN     C2       CG1N1    0.360000       12.0110           0
     58988 WT20     270      MECN     N3       NG1T1   -0.460000       14.0070           0
     58989 WT20     272      MECN     C1       CG331   -0.170000       12.0110           0
     58990 WT20     272      MECN     H11      HGA3     0.090000        1.0080           0
     58991 WT20     272      MECN     H12      HGA3     0.090000        1.0080           0
     58992 WT20     272      MECN     H13      HGA3     0.090000        1.0080           0
     58993 WT20     272      MECN     C2       CG1N1    0.360000       12.0110           0
     58994 WT20     272      MECN     N3       NG1T1   -0.460000       14.0070           0
     58995 WT20     274      MECN     C1       CG331   -0.170000       12.0110           0
     58996 WT20     274      MECN     H11      HGA3     0.090000        1.0080           0
     58997 WT20     274      MECN     H12      HGA3     0.090000        1.0080           0
     58998 WT20     274      MECN     H13      HGA3     0.090000        1.0080           0
     58999 WT20     274      MECN     C2       CG1N1    0.360000       12.0110           0
     59000 WT20     274      MECN     N3       NG1T1   -0.460000       14.0070           0
     59001 WT20     276      MECN     C1       CG331   -0.170000       12.0110           0
     59002 WT20     276      MECN     H11      HGA3     0.090000        1.0080           0
     59003 WT20     276      MECN     H12      HGA3     0.090000        1.0080           0
     59004 WT20     276      MECN     H13      HGA3     0.090000        1.0080           0
     59005 WT20     276      MECN     C2       CG1N1    0.360000       12.0110           0
     59006 WT20     276      MECN     N3       NG1T1   -0.460000       14.0070           0
     59007 WT20     279      MECN     C1       CG331   -0.170000       12.0110           0
     59008 WT20     279      MECN     H11      HGA3     0.090000        1.0080           0
     59009 WT20     279      MECN     H12      HGA3     0.090000        1.0080           0
     59010 WT20     279      MECN     H13      HGA3     0.090000        1.0080           0
     59011 WT20     279      MECN     C2       CG1N1    0.360000       12.0110           0
     59012 WT20     279      MECN     N3       NG1T1   -0.460000       14.0070           0
     59013 WT20     280      MECN     C1       CG331   -0.170000       12.0110           0
     59014 WT20     280      MECN     H11      HGA3     0.090000        1.0080           0
     59015 WT20     280      MECN     H12      HGA3     0.090000        1.0080           0
     59016 WT20     280      MECN     H13      HGA3     0.090000        1.0080           0
     59017 WT20     280      MECN     C2       CG1N1    0.360000       12.0110           0
     59018 WT20     280      MECN     N3       NG1T1   -0.460000       14.0070           0
     59019 WT20     286      MECN     C1       CG331   -0.170000       12.0110           0
     59020 WT20     286      MECN     H11      HGA3     0.090000        1.0080           0
     59021 WT20     286      MECN     H12      HGA3     0.090000        1.0080           0
     59022 WT20     286      MECN     H13      HGA3     0.090000        1.0080           0
     59023 WT20     286      MECN     C2       CG1N1    0.360000       12.0110           0
     59024 WT20     286      MECN     N3       NG1T1   -0.460000       14.0070           0
     59025 WT20     288      MECN     C1       CG331   -0.170000       12.0110           0
     59026 WT20     288      MECN     H11      HGA3     0.090000        1.0080           0
     59027 WT20     288      MECN     H12      HGA3     0.090000        1.0080           0
     59028 WT20     288      MECN     H13      HGA3     0.090000        1.0080           0
     59029 WT20     288      MECN     C2       CG1N1    0.360000       12.0110           0
     59030 WT20     288      MECN     N3       NG1T1   -0.460000       14.0070           0
     59031 WT20     292      MECN     C1       CG331   -0.170000       12.0110           0
     59032 WT20     292      MECN     H11      HGA3     0.090000        1.0080           0
     59033 WT20     292      MECN     H12      HGA3     0.090000        1.0080           0
     59034 WT20     292      MECN     H13      HGA3     0.090000        1.0080           0
     59035 WT20     292      MECN     C2       CG1N1    0.360000       12.0110           0
     59036 WT20     292      MECN     N3       NG1T1   -0.460000       14.0070           0
     59037 WT20     297      MECN     C1       CG331   -0.170000       12.0110           0
     59038 WT20     297      MECN     H11      HGA3     0.090000        1.0080           0
     59039 WT20     297      MECN     H12      HGA3     0.090000        1.0080           0
     59040 WT20     297      MECN     H13      HGA3     0.090000        1.0080           0
     59041 WT20     297      MECN     C2       CG1N1    0.360000       12.0110           0
     59042 WT20     297      MECN     N3       NG1T1   -0.460000       14.0070           0
     59043 WT20     304      MECN     C1       CG331   -0.170000       12.0110           0
     59044 WT20     304      MECN     H11      HGA3     0.090000        1.0080           0
     59045 WT20     304      MECN     H12      HGA3     0.090000        1.0080           0
     59046 WT20     304      MECN     H13      HGA3     0.090000        1.0080           0
     59047 WT20     304      MECN     C2       CG1N1    0.360000       12.0110           0
     59048 WT20     304      MECN     N3       NG1T1   -0.460000       14.0070           0
     59049 WT20     310      MECN     C1       CG331   -0.170000       12.0110           0
     59050 WT20     310      MECN     H11      HGA3     0.090000        1.0080           0
     59051 WT20     310      MECN     H12      HGA3     0.090000        1.0080           0
     59052 WT20     310      MECN     H13      HGA3     0.090000        1.0080           0
     59053 WT20     310      MECN     C2       CG1N1    0.360000       12.0110           0
     59054 WT20     310      MECN     N3       NG1T1   -0.460000       14.0070           0
     59055 WT20     316      MECN     C1       CG331   -0.170000       12.0110           0
     59056 WT20     316      MECN     H11      HGA3     0.090000        1.0080           0
     59057 WT20     316      MECN     H12      HGA3     0.090000        1.0080           0
     59058 WT20     316      MECN     H13      HGA3     0.090000        1.0080           0
     59059 WT20     316      MECN     C2       CG1N1    0.360000       12.0110           0
     59060 WT20     316      MECN     N3       NG1T1   -0.460000       14.0070           0
     59061 WT20     317      MECN     C1       CG331   -0.170000       12.0110           0
     59062 WT20     317      MECN     H11      HGA3     0.090000        1.0080           0
     59063 WT20     317      MECN     H12      HGA3     0.090000        1.0080           0
     59064 WT20     317      MECN     H13      HGA3     0.090000        1.0080           0
     59065 WT20     317      MECN     C2       CG1N1    0.360000       12.0110           0
     59066 WT20     317      MECN     N3       NG1T1   -0.460000       14.0070           0
     59067 WT20     318      MECN     C1       CG331   -0.170000       12.0110           0
     59068 WT20     318      MECN     H11      HGA3     0.090000        1.0080           0
     59069 WT20     318      MECN     H12      HGA3     0.090000        1.0080           0
     59070 WT20     318      MECN     H13      HGA3     0.090000        1.0080           0
     59071 WT20     318      MECN     C2       CG1N1    0.360000       12.0110           0
     59072 WT20     318      MECN     N3       NG1T1   -0.460000       14.0070           0
     59073 WT20     319      MECN     C1       CG331   -0.170000       12.0110           0
     59074 WT20     319      MECN     H11      HGA3     0.090000        1.0080           0
     59075 WT20     319      MECN     H12      HGA3     0.090000        1.0080           0
     59076 WT20     319      MECN     H13      HGA3     0.090000        1.0080           0
     59077 WT20     319      MECN     C2       CG1N1    0.360000       12.0110           0
     59078 WT20     319      MECN     N3       NG1T1   -0.460000       14.0070           0
     59079 WT20     325      MECN     C1       CG331   -0.170000       12.0110           0
     59080 WT20     325      MECN     H11      HGA3     0.090000        1.0080           0
     59081 WT20     325      MECN     H12      HGA3     0.090000        1.0080           0
     59082 WT20     325      MECN     H13      HGA3     0.090000        1.0080           0
     59083 WT20     325      MECN     C2       CG1N1    0.360000       12.0110           0
     59084 WT20     325      MECN     N3       NG1T1   -0.460000       14.0070           0
     59085 WT20     327      MECN     C1       CG331   -0.170000       12.0110           0
     59086 WT20     327      MECN     H11      HGA3     0.090000        1.0080           0
     59087 WT20     327      MECN     H12      HGA3     0.090000        1.0080           0
     59088 WT20     327      MECN     H13      HGA3     0.090000        1.0080           0
     59089 WT20     327      MECN     C2       CG1N1    0.360000       12.0110           0
     59090 WT20     327      MECN     N3       NG1T1   -0.460000       14.0070           0
     59091 WT20     329      MECN     C1       CG331   -0.170000       12.0110           0
     59092 WT20     329      MECN     H11      HGA3     0.090000        1.0080           0
     59093 WT20     329      MECN     H12      HGA3     0.090000        1.0080           0
     59094 WT20     329      MECN     H13      HGA3     0.090000        1.0080           0
     59095 WT20     329      MECN     C2       CG1N1    0.360000       12.0110           0
     59096 WT20     329      MECN     N3       NG1T1   -0.460000       14.0070           0
     59097 WT20     331      MECN     C1       CG331   -0.170000       12.0110           0
     59098 WT20     331      MECN     H11      HGA3     0.090000        1.0080           0
     59099 WT20     331      MECN     H12      HGA3     0.090000        1.0080           0
     59100 WT20     331      MECN     H13      HGA3     0.090000        1.0080           0
     59101 WT20     331      MECN     C2       CG1N1    0.360000       12.0110           0
     59102 WT20     331      MECN     N3       NG1T1   -0.460000       14.0070           0
     59103 WT20     336      MECN     C1       CG331   -0.170000       12.0110           0
     59104 WT20     336      MECN     H11      HGA3     0.090000        1.0080           0
     59105 WT20     336      MECN     H12      HGA3     0.090000        1.0080           0
     59106 WT20     336      MECN     H13      HGA3     0.090000        1.0080           0
     59107 WT20     336      MECN     C2       CG1N1    0.360000       12.0110           0
     59108 WT20     336      MECN     N3       NG1T1   -0.460000       14.0070           0
     59109 WT20     340      MECN     C1       CG331   -0.170000       12.0110           0
     59110 WT20     340      MECN     H11      HGA3     0.090000        1.0080           0
     59111 WT20     340      MECN     H12      HGA3     0.090000        1.0080           0
     59112 WT20     340      MECN     H13      HGA3     0.090000        1.0080           0
     59113 WT20     340      MECN     C2       CG1N1    0.360000       12.0110           0
     59114 WT20     340      MECN     N3       NG1T1   -0.460000       14.0070           0
     59115 WT20     341      MECN     C1       CG331   -0.170000       12.0110           0
     59116 WT20     341      MECN     H11      HGA3     0.090000        1.0080           0
     59117 WT20     341      MECN     H12      HGA3     0.090000        1.0080           0
     59118 WT20     341      MECN     H13      HGA3     0.090000        1.0080           0
     59119 WT20     341      MECN     C2       CG1N1    0.360000       12.0110           0
     59120 WT20     341      MECN     N3       NG1T1   -0.460000       14.0070           0
     59121 WT20     343      MECN     C1       CG331   -0.170000       12.0110           0
     59122 WT20     343      MECN     H11      HGA3     0.090000        1.0080           0
     59123 WT20     343      MECN     H12      HGA3     0.090000        1.0080           0
     59124 WT20     343      MECN     H13      HGA3     0.090000        1.0080           0
     59125 WT20     343      MECN     C2       CG1N1    0.360000       12.0110           0
     59126 WT20     343      MECN     N3       NG1T1   -0.460000       14.0070           0
     59127 WT20     344      MECN     C1       CG331   -0.170000       12.0110           0
     59128 WT20     344      MECN     H11      HGA3     0.090000        1.0080           0
     59129 WT20     344      MECN     H12      HGA3     0.090000        1.0080           0
     59130 WT20     344      MECN     H13      HGA3     0.090000        1.0080           0
     59131 WT20     344      MECN     C2       CG1N1    0.360000       12.0110           0
     59132 WT20     344      MECN     N3       NG1T1   -0.460000       14.0070           0
     59133 WT20     349      MECN     C1       CG331   -0.170000       12.0110           0
     59134 WT20     349      MECN     H11      HGA3     0.090000        1.0080           0
     59135 WT20     349      MECN     H12      HGA3     0.090000        1.0080           0
     59136 WT20     349      MECN     H13      HGA3     0.090000        1.0080           0
     59137 WT20     349      MECN     C2       CG1N1    0.360000       12.0110           0
     59138 WT20     349      MECN     N3       NG1T1   -0.460000       14.0070           0
     59139 WT20     351      MECN     C1       CG331   -0.170000       12.0110           0
     59140 WT20     351      MECN     H11      HGA3     0.090000        1.0080           0
     59141 WT20     351      MECN     H12      HGA3     0.090000        1.0080           0
     59142 WT20     351      MECN     H13      HGA3     0.090000        1.0080           0
     59143 WT20     351      MECN     C2       CG1N1    0.360000       12.0110           0
     59144 WT20     351      MECN     N3       NG1T1   -0.460000       14.0070           0
     59145 WT20     358      MECN     C1       CG331   -0.170000       12.0110           0
     59146 WT20     358      MECN     H11      HGA3     0.090000        1.0080           0
     59147 WT20     358      MECN     H12      HGA3     0.090000        1.0080           0
     59148 WT20     358      MECN     H13      HGA3     0.090000        1.0080           0
     59149 WT20     358      MECN     C2       CG1N1    0.360000       12.0110           0
     59150 WT20     358      MECN     N3       NG1T1   -0.460000       14.0070           0
     59151 WT20     359      MECN     C1       CG331   -0.170000       12.0110           0
     59152 WT20     359      MECN     H11      HGA3     0.090000        1.0080           0
     59153 WT20     359      MECN     H12      HGA3     0.090000        1.0080           0
     59154 WT20     359      MECN     H13      HGA3     0.090000        1.0080           0
     59155 WT20     359      MECN     C2       CG1N1    0.360000       12.0110           0
     59156 WT20     359      MECN     N3       NG1T1   -0.460000       14.0070           0
     59157 WT20     361      MECN     C1       CG331   -0.170000       12.0110           0
     59158 WT20     361      MECN     H11      HGA3     0.090000        1.0080           0
     59159 WT20     361      MECN     H12      HGA3     0.090000        1.0080           0
     59160 WT20     361      MECN     H13      HGA3     0.090000        1.0080           0
     59161 WT20     361      MECN     C2       CG1N1    0.360000       12.0110           0
     59162 WT20     361      MECN     N3       NG1T1   -0.460000       14.0070           0
     59163 WT20     366      MECN     C1       CG331   -0.170000       12.0110           0
     59164 WT20     366      MECN     H11      HGA3     0.090000        1.0080           0
     59165 WT20     366      MECN     H12      HGA3     0.090000        1.0080           0
     59166 WT20     366      MECN     H13      HGA3     0.090000        1.0080           0
     59167 WT20     366      MECN     C2       CG1N1    0.360000       12.0110           0
     59168 WT20     366      MECN     N3       NG1T1   -0.460000       14.0070           0
     59169 WT20     367      MECN     C1       CG331   -0.170000       12.0110           0
     59170 WT20     367      MECN     H11      HGA3     0.090000        1.0080           0
     59171 WT20     367      MECN     H12      HGA3     0.090000        1.0080           0
     59172 WT20     367      MECN     H13      HGA3     0.090000        1.0080           0
     59173 WT20     367      MECN     C2       CG1N1    0.360000       12.0110           0
     59174 WT20     367      MECN     N3       NG1T1   -0.460000       14.0070           0
     59175 WT20     373      MECN     C1       CG331   -0.170000       12.0110           0
     59176 WT20     373      MECN     H11      HGA3     0.090000        1.0080           0
     59177 WT20     373      MECN     H12      HGA3     0.090000        1.0080           0
     59178 WT20     373      MECN     H13      HGA3     0.090000        1.0080           0
     59179 WT20     373      MECN     C2       CG1N1    0.360000       12.0110           0
     59180 WT20     373      MECN     N3       NG1T1   -0.460000       14.0070           0
     59181 WT20     381      MECN     C1       CG331   -0.170000       12.0110           0
     59182 WT20     381      MECN     H11      HGA3     0.090000        1.0080           0
     59183 WT20     381      MECN     H12      HGA3     0.090000        1.0080           0
     59184 WT20     381      MECN     H13      HGA3     0.090000        1.0080           0
     59185 WT20     381      MECN     C2       CG1N1    0.360000       12.0110           0
     59186 WT20     381      MECN     N3       NG1T1   -0.460000       14.0070           0
     59187 WT20     385      MECN     C1       CG331   -0.170000       12.0110           0
     59188 WT20     385      MECN     H11      HGA3     0.090000        1.0080           0
     59189 WT20     385      MECN     H12      HGA3     0.090000        1.0080           0
     59190 WT20     385      MECN     H13      HGA3     0.090000        1.0080           0
     59191 WT20     385      MECN     C2       CG1N1    0.360000       12.0110           0
     59192 WT20     385      MECN     N3       NG1T1   -0.460000       14.0070           0
     59193 WT20     393      MECN     C1       CG331   -0.170000       12.0110           0
     59194 WT20     393      MECN     H11      HGA3     0.090000        1.0080           0
     59195 WT20     393      MECN     H12      HGA3     0.090000        1.0080           0
     59196 WT20     393      MECN     H13      HGA3     0.090000        1.0080           0
     59197 WT20     393      MECN     C2       CG1N1    0.360000       12.0110           0
     59198 WT20     393      MECN     N3       NG1T1   -0.460000       14.0070           0
     59199 WT20     400      MECN     C1       CG331   -0.170000       12.0110           0
     59200 WT20     400      MECN     H11      HGA3     0.090000        1.0080           0
     59201 WT20     400      MECN     H12      HGA3     0.090000        1.0080           0
     59202 WT20     400      MECN     H13      HGA3     0.090000        1.0080           0
     59203 WT20     400      MECN     C2       CG1N1    0.360000       12.0110           0
     59204 WT20     400      MECN     N3       NG1T1   -0.460000       14.0070           0
     59205 WT20     403      MECN     C1       CG331   -0.170000       12.0110           0
     59206 WT20     403      MECN     H11      HGA3     0.090000        1.0080           0
     59207 WT20     403      MECN     H12      HGA3     0.090000        1.0080           0
     59208 WT20     403      MECN     H13      HGA3     0.090000        1.0080           0
     59209 WT20     403      MECN     C2       CG1N1    0.360000       12.0110           0
     59210 WT20     403      MECN     N3       NG1T1   -0.460000       14.0070           0
     59211 WT20     406      MECN     C1       CG331   -0.170000       12.0110           0
     59212 WT20     406      MECN     H11      HGA3     0.090000        1.0080           0
     59213 WT20     406      MECN     H12      HGA3     0.090000        1.0080           0
     59214 WT20     406      MECN     H13      HGA3     0.090000        1.0080           0
     59215 WT20     406      MECN     C2       CG1N1    0.360000       12.0110           0
     59216 WT20     406      MECN     N3       NG1T1   -0.460000       14.0070           0
     59217 WT20     408      MECN     C1       CG331   -0.170000       12.0110           0
     59218 WT20     408      MECN     H11      HGA3     0.090000        1.0080           0
     59219 WT20     408      MECN     H12      HGA3     0.090000        1.0080           0
     59220 WT20     408      MECN     H13      HGA3     0.090000        1.0080           0
     59221 WT20     408      MECN     C2       CG1N1    0.360000       12.0110           0
     59222 WT20     408      MECN     N3       NG1T1   -0.460000       14.0070           0
     59223 WT20     410      MECN     C1       CG331   -0.170000       12.0110           0
     59224 WT20     410      MECN     H11      HGA3     0.090000        1.0080           0
     59225 WT20     410      MECN     H12      HGA3     0.090000        1.0080           0
     59226 WT20     410      MECN     H13      HGA3     0.090000        1.0080           0
     59227 WT20     410      MECN     C2       CG1N1    0.360000       12.0110           0
     59228 WT20     410      MECN     N3       NG1T1   -0.460000       14.0070           0
     59229 WT20     411      MECN     C1       CG331   -0.170000       12.0110           0
     59230 WT20     411      MECN     H11      HGA3     0.090000        1.0080           0
     59231 WT20     411      MECN     H12      HGA3     0.090000        1.0080           0
     59232 WT20     411      MECN     H13      HGA3     0.090000        1.0080           0
     59233 WT20     411      MECN     C2       CG1N1    0.360000       12.0110           0
     59234 WT20     411      MECN     N3       NG1T1   -0.460000       14.0070           0
     59235 WT20     418      MECN     C1       CG331   -0.170000       12.0110           0
     59236 WT20     418      MECN     H11      HGA3     0.090000        1.0080           0
     59237 WT20     418      MECN     H12      HGA3     0.090000        1.0080           0
     59238 WT20     418      MECN     H13      HGA3     0.090000        1.0080           0
     59239 WT20     418      MECN     C2       CG1N1    0.360000       12.0110           0
     59240 WT20     418      MECN     N3       NG1T1   -0.460000       14.0070           0
     59241 WT20     419      MECN     C1       CG331   -0.170000       12.0110           0
     59242 WT20     419      MECN     H11      HGA3     0.090000        1.0080           0
     59243 WT20     419      MECN     H12      HGA3     0.090000        1.0080           0
     59244 WT20     419      MECN     H13      HGA3     0.090000        1.0080           0
     59245 WT20     419      MECN     C2       CG1N1    0.360000       12.0110           0
     59246 WT20     419      MECN     N3       NG1T1   -0.460000       14.0070           0
     59247 WT20     420      MECN     C1       CG331   -0.170000       12.0110           0
     59248 WT20     420      MECN     H11      HGA3     0.090000        1.0080           0
     59249 WT20     420      MECN     H12      HGA3     0.090000        1.0080           0
     59250 WT20     420      MECN     H13      HGA3     0.090000        1.0080           0
     59251 WT20     420      MECN     C2       CG1N1    0.360000       12.0110           0
     59252 WT20     420      MECN     N3       NG1T1   -0.460000       14.0070           0
     59253 WT20     422      MECN     C1       CG331   -0.170000       12.0110           0
     59254 WT20     422      MECN     H11      HGA3     0.090000        1.0080           0
     59255 WT20     422      MECN     H12      HGA3     0.090000        1.0080           0
     59256 WT20     422      MECN     H13      HGA3     0.090000        1.0080           0
     59257 WT20     422      MECN     C2       CG1N1    0.360000       12.0110           0
     59258 WT20     422      MECN     N3       NG1T1   -0.460000       14.0070           0
     59259 WT20     423      MECN     C1       CG331   -0.170000       12.0110           0
     59260 WT20     423      MECN     H11      HGA3     0.090000        1.0080           0
     59261 WT20     423      MECN     H12      HGA3     0.090000        1.0080           0
     59262 WT20     423      MECN     H13      HGA3     0.090000        1.0080           0
     59263 WT20     423      MECN     C2       CG1N1    0.360000       12.0110           0
     59264 WT20     423      MECN     N3       NG1T1   -0.460000       14.0070           0
     59265 WT20     427      MECN     C1       CG331   -0.170000       12.0110           0
     59266 WT20     427      MECN     H11      HGA3     0.090000        1.0080           0
     59267 WT20     427      MECN     H12      HGA3     0.090000        1.0080           0
     59268 WT20     427      MECN     H13      HGA3     0.090000        1.0080           0
     59269 WT20     427      MECN     C2       CG1N1    0.360000       12.0110           0
     59270 WT20     427      MECN     N3       NG1T1   -0.460000       14.0070           0
     59271 WT20     435      MECN     C1       CG331   -0.170000       12.0110           0
     59272 WT20     435      MECN     H11      HGA3     0.090000        1.0080           0
     59273 WT20     435      MECN     H12      HGA3     0.090000        1.0080           0
     59274 WT20     435      MECN     H13      HGA3     0.090000        1.0080           0
     59275 WT20     435      MECN     C2       CG1N1    0.360000       12.0110           0
     59276 WT20     435      MECN     N3       NG1T1   -0.460000       14.0070           0
     59277 WT20     441      MECN     C1       CG331   -0.170000       12.0110           0
     59278 WT20     441      MECN     H11      HGA3     0.090000        1.0080           0
     59279 WT20     441      MECN     H12      HGA3     0.090000        1.0080           0
     59280 WT20     441      MECN     H13      HGA3     0.090000        1.0080           0
     59281 WT20     441      MECN     C2       CG1N1    0.360000       12.0110           0
     59282 WT20     441      MECN     N3       NG1T1   -0.460000       14.0070           0
     59283 WT20     445      MECN     C1       CG331   -0.170000       12.0110           0
     59284 WT20     445      MECN     H11      HGA3     0.090000        1.0080           0
     59285 WT20     445      MECN     H12      HGA3     0.090000        1.0080           0
     59286 WT20     445      MECN     H13      HGA3     0.090000        1.0080           0
     59287 WT20     445      MECN     C2       CG1N1    0.360000       12.0110           0
     59288 WT20     445      MECN     N3       NG1T1   -0.460000       14.0070           0
     59289 WT20     446      MECN     C1       CG331   -0.170000       12.0110           0
     59290 WT20     446      MECN     H11      HGA3     0.090000        1.0080           0
     59291 WT20     446      MECN     H12      HGA3     0.090000        1.0080           0
     59292 WT20     446      MECN     H13      HGA3     0.090000        1.0080           0
     59293 WT20     446      MECN     C2       CG1N1    0.360000       12.0110           0
     59294 WT20     446      MECN     N3       NG1T1   -0.460000       14.0070           0
     59295 WT20     448      MECN     C1       CG331   -0.170000       12.0110           0
     59296 WT20     448      MECN     H11      HGA3     0.090000        1.0080           0
     59297 WT20     448      MECN     H12      HGA3     0.090000        1.0080           0
     59298 WT20     448      MECN     H13      HGA3     0.090000        1.0080           0
     59299 WT20     448      MECN     C2       CG1N1    0.360000       12.0110           0
     59300 WT20     448      MECN     N3       NG1T1   -0.460000       14.0070           0
     59301 WT20     450      MECN     C1       CG331   -0.170000       12.0110           0
     59302 WT20     450      MECN     H11      HGA3     0.090000        1.0080           0
     59303 WT20     450      MECN     H12      HGA3     0.090000        1.0080           0
     59304 WT20     450      MECN     H13      HGA3     0.090000        1.0080           0
     59305 WT20     450      MECN     C2       CG1N1    0.360000       12.0110           0
     59306 WT20     450      MECN     N3       NG1T1   -0.460000       14.0070           0
     59307 WT20     452      MECN     C1       CG331   -0.170000       12.0110           0
     59308 WT20     452      MECN     H11      HGA3     0.090000        1.0080           0
     59309 WT20     452      MECN     H12      HGA3     0.090000        1.0080           0
     59310 WT20     452      MECN     H13      HGA3     0.090000        1.0080           0
     59311 WT20     452      MECN     C2       CG1N1    0.360000       12.0110           0
     59312 WT20     452      MECN     N3       NG1T1   -0.460000       14.0070           0
     59313 WT20     458      MECN     C1       CG331   -0.170000       12.0110           0
     59314 WT20     458      MECN     H11      HGA3     0.090000        1.0080           0
     59315 WT20     458      MECN     H12      HGA3     0.090000        1.0080           0
     59316 WT20     458      MECN     H13      HGA3     0.090000        1.0080           0
     59317 WT20     458      MECN     C2       CG1N1    0.360000       12.0110           0
     59318 WT20     458      MECN     N3       NG1T1   -0.460000       14.0070           0
     59319 WT20     460      MECN     C1       CG331   -0.170000       12.0110           0
     59320 WT20     460      MECN     H11      HGA3     0.090000        1.0080           0
     59321 WT20     460      MECN     H12      HGA3     0.090000        1.0080           0
     59322 WT20     460      MECN     H13      HGA3     0.090000        1.0080           0
     59323 WT20     460      MECN     C2       CG1N1    0.360000       12.0110           0
     59324 WT20     460      MECN     N3       NG1T1   -0.460000       14.0070           0
     59325 WT20     461      MECN     C1       CG331   -0.170000       12.0110           0
     59326 WT20     461      MECN     H11      HGA3     0.090000        1.0080           0
     59327 WT20     461      MECN     H12      HGA3     0.090000        1.0080           0
     59328 WT20     461      MECN     H13      HGA3     0.090000        1.0080           0
     59329 WT20     461      MECN     C2       CG1N1    0.360000       12.0110           0
     59330 WT20     461      MECN     N3       NG1T1   -0.460000       14.0070           0
     59331 WT20     467      MECN     C1       CG331   -0.170000       12.0110           0
     59332 WT20     467      MECN     H11      HGA3     0.090000        1.0080           0
     59333 WT20     467      MECN     H12      HGA3     0.090000        1.0080           0
     59334 WT20     467      MECN     H13      HGA3     0.090000        1.0080           0
     59335 WT20     467      MECN     C2       CG1N1    0.360000       12.0110           0
     59336 WT20     467      MECN     N3       NG1T1   -0.460000       14.0070           0
     59337 WT20     468      MECN     C1       CG331   -0.170000       12.0110           0
     59338 WT20     468      MECN     H11      HGA3     0.090000        1.0080           0
     59339 WT20     468      MECN     H12      HGA3     0.090000        1.0080           0
     59340 WT20     468      MECN     H13      HGA3     0.090000        1.0080           0
     59341 WT20     468      MECN     C2       CG1N1    0.360000       12.0110           0
     59342 WT20     468      MECN     N3       NG1T1   -0.460000       14.0070           0
     59343 WT20     470      MECN     C1       CG331   -0.170000       12.0110           0
     59344 WT20     470      MECN     H11      HGA3     0.090000        1.0080           0
     59345 WT20     470      MECN     H12      HGA3     0.090000        1.0080           0
     59346 WT20     470      MECN     H13      HGA3     0.090000        1.0080           0
     59347 WT20     470      MECN     C2       CG1N1    0.360000       12.0110           0
     59348 WT20     470      MECN     N3       NG1T1   -0.460000       14.0070           0
     59349 WT20     471      MECN     C1       CG331   -0.170000       12.0110           0
     59350 WT20     471      MECN     H11      HGA3     0.090000        1.0080           0
     59351 WT20     471      MECN     H12      HGA3     0.090000        1.0080           0
     59352 WT20     471      MECN     H13      HGA3     0.090000        1.0080           0
     59353 WT20     471      MECN     C2       CG1N1    0.360000       12.0110           0
     59354 WT20     471      MECN     N3       NG1T1   -0.460000       14.0070           0
     59355 WT20     476      MECN     C1       CG331   -0.170000       12.0110           0
     59356 WT20     476      MECN     H11      HGA3     0.090000        1.0080           0
     59357 WT20     476      MECN     H12      HGA3     0.090000        1.0080           0
     59358 WT20     476      MECN     H13      HGA3     0.090000        1.0080           0
     59359 WT20     476      MECN     C2       CG1N1    0.360000       12.0110           0
     59360 WT20     476      MECN     N3       NG1T1   -0.460000       14.0070           0
     59361 WT20     482      MECN     C1       CG331   -0.170000       12.0110           0
     59362 WT20     482      MECN     H11      HGA3     0.090000        1.0080           0
     59363 WT20     482      MECN     H12      HGA3     0.090000        1.0080           0
     59364 WT20     482      MECN     H13      HGA3     0.090000        1.0080           0
     59365 WT20     482      MECN     C2       CG1N1    0.360000       12.0110           0
     59366 WT20     482      MECN     N3       NG1T1   -0.460000       14.0070           0
     59367 WT20     485      MECN     C1       CG331   -0.170000       12.0110           0
     59368 WT20     485      MECN     H11      HGA3     0.090000        1.0080           0
     59369 WT20     485      MECN     H12      HGA3     0.090000        1.0080           0
     59370 WT20     485      MECN     H13      HGA3     0.090000        1.0080           0
     59371 WT20     485      MECN     C2       CG1N1    0.360000       12.0110           0
     59372 WT20     485      MECN     N3       NG1T1   -0.460000       14.0070           0
     59373 WT20     489      MECN     C1       CG331   -0.170000       12.0110           0
     59374 WT20     489      MECN     H11      HGA3     0.090000        1.0080           0
     59375 WT20     489      MECN     H12      HGA3     0.090000        1.0080           0
     59376 WT20     489      MECN     H13      HGA3     0.090000        1.0080           0
     59377 WT20     489      MECN     C2       CG1N1    0.360000       12.0110           0
     59378 WT20     489      MECN     N3       NG1T1   -0.460000       14.0070           0
     59379 WT20     490      MECN     C1       CG331   -0.170000       12.0110           0
     59380 WT20     490      MECN     H11      HGA3     0.090000        1.0080           0
     59381 WT20     490      MECN     H12      HGA3     0.090000        1.0080           0
     59382 WT20     490      MECN     H13      HGA3     0.090000        1.0080           0
     59383 WT20     490      MECN     C2       CG1N1    0.360000       12.0110           0
     59384 WT20     490      MECN     N3       NG1T1   -0.460000       14.0070           0
     59385 WT20     493      MECN     C1       CG331   -0.170000       12.0110           0
     59386 WT20     493      MECN     H11      HGA3     0.090000        1.0080           0
     59387 WT20     493      MECN     H12      HGA3     0.090000        1.0080           0
     59388 WT20     493      MECN     H13      HGA3     0.090000        1.0080           0
     59389 WT20     493      MECN     C2       CG1N1    0.360000       12.0110           0
     59390 WT20     493      MECN     N3       NG1T1   -0.460000       14.0070           0
     59391 WT20     495      MECN     C1       CG331   -0.170000       12.0110           0
     59392 WT20     495      MECN     H11      HGA3     0.090000        1.0080           0
     59393 WT20     495      MECN     H12      HGA3     0.090000        1.0080           0
     59394 WT20     495      MECN     H13      HGA3     0.090000        1.0080           0
     59395 WT20     495      MECN     C2       CG1N1    0.360000       12.0110           0
     59396 WT20     495      MECN     N3       NG1T1   -0.460000       14.0070           0
     59397 WT20     498      MECN     C1       CG331   -0.170000       12.0110           0
     59398 WT20     498      MECN     H11      HGA3     0.090000        1.0080           0
     59399 WT20     498      MECN     H12      HGA3     0.090000        1.0080           0
     59400 WT20     498      MECN     H13      HGA3     0.090000        1.0080           0
     59401 WT20     498      MECN     C2       CG1N1    0.360000       12.0110           0
     59402 WT20     498      MECN     N3       NG1T1   -0.460000       14.0070           0
     59403 WT20     499      MECN     C1       CG331   -0.170000       12.0110           0
     59404 WT20     499      MECN     H11      HGA3     0.090000        1.0080           0
     59405 WT20     499      MECN     H12      HGA3     0.090000        1.0080           0
     59406 WT20     499      MECN     H13      HGA3     0.090000        1.0080           0
     59407 WT20     499      MECN     C2       CG1N1    0.360000       12.0110           0
     59408 WT20     499      MECN     N3       NG1T1   -0.460000       14.0070           0
     59409 WT20     501      MECN     C1       CG331   -0.170000       12.0110           0
     59410 WT20     501      MECN     H11      HGA3     0.090000        1.0080           0
     59411 WT20     501      MECN     H12      HGA3     0.090000        1.0080           0
     59412 WT20     501      MECN     H13      HGA3     0.090000        1.0080           0
     59413 WT20     501      MECN     C2       CG1N1    0.360000       12.0110           0
     59414 WT20     501      MECN     N3       NG1T1   -0.460000       14.0070           0
     59415 WT20     504      MECN     C1       CG331   -0.170000       12.0110           0
     59416 WT20     504      MECN     H11      HGA3     0.090000        1.0080           0
     59417 WT20     504      MECN     H12      HGA3     0.090000        1.0080           0
     59418 WT20     504      MECN     H13      HGA3     0.090000        1.0080           0
     59419 WT20     504      MECN     C2       CG1N1    0.360000       12.0110           0
     59420 WT20     504      MECN     N3       NG1T1   -0.460000       14.0070           0
     59421 WT20     506      MECN     C1       CG331   -0.170000       12.0110           0
     59422 WT20     506      MECN     H11      HGA3     0.090000        1.0080           0
     59423 WT20     506      MECN     H12      HGA3     0.090000        1.0080           0
     59424 WT20     506      MECN     H13      HGA3     0.090000        1.0080           0
     59425 WT20     506      MECN     C2       CG1N1    0.360000       12.0110           0
     59426 WT20     506      MECN     N3       NG1T1   -0.460000       14.0070           0
     59427 WT20     507      MECN     C1       CG331   -0.170000       12.0110           0
     59428 WT20     507      MECN     H11      HGA3     0.090000        1.0080           0
     59429 WT20     507      MECN     H12      HGA3     0.090000        1.0080           0
     59430 WT20     507      MECN     H13      HGA3     0.090000        1.0080           0
     59431 WT20     507      MECN     C2       CG1N1    0.360000       12.0110           0
     59432 WT20     507      MECN     N3       NG1T1   -0.460000       14.0070           0
     59433 WT20     509      MECN     C1       CG331   -0.170000       12.0110           0
     59434 WT20     509      MECN     H11      HGA3     0.090000        1.0080           0
     59435 WT20     509      MECN     H12      HGA3     0.090000        1.0080           0
     59436 WT20     509      MECN     H13      HGA3     0.090000        1.0080           0
     59437 WT20     509      MECN     C2       CG1N1    0.360000       12.0110           0
     59438 WT20     509      MECN     N3       NG1T1   -0.460000       14.0070           0
     59439 WT20     520      MECN     C1       CG331   -0.170000       12.0110           0
     59440 WT20     520      MECN     H11      HGA3     0.090000        1.0080           0
     59441 WT20     520      MECN     H12      HGA3     0.090000        1.0080           0
     59442 WT20     520      MECN     H13      HGA3     0.090000        1.0080           0
     59443 WT20     520      MECN     C2       CG1N1    0.360000       12.0110           0
     59444 WT20     520      MECN     N3       NG1T1   -0.460000       14.0070           0
     59445 WT20     521      MECN     C1       CG331   -0.170000       12.0110           0
     59446 WT20     521      MECN     H11      HGA3     0.090000        1.0080           0
     59447 WT20     521      MECN     H12      HGA3     0.090000        1.0080           0
     59448 WT20     521      MECN     H13      HGA3     0.090000        1.0080           0
     59449 WT20     521      MECN     C2       CG1N1    0.360000       12.0110           0
     59450 WT20     521      MECN     N3       NG1T1   -0.460000       14.0070           0
     59451 WT20     522      MECN     C1       CG331   -0.170000       12.0110           0
     59452 WT20     522      MECN     H11      HGA3     0.090000        1.0080           0
     59453 WT20     522      MECN     H12      HGA3     0.090000        1.0080           0
     59454 WT20     522      MECN     H13      HGA3     0.090000        1.0080           0
     59455 WT20     522      MECN     C2       CG1N1    0.360000       12.0110           0
     59456 WT20     522      MECN     N3       NG1T1   -0.460000       14.0070           0
     59457 WT20     523      MECN     C1       CG331   -0.170000       12.0110           0
     59458 WT20     523      MECN     H11      HGA3     0.090000        1.0080           0
     59459 WT20     523      MECN     H12      HGA3     0.090000        1.0080           0
     59460 WT20     523      MECN     H13      HGA3     0.090000        1.0080           0
     59461 WT20     523      MECN     C2       CG1N1    0.360000       12.0110           0
     59462 WT20     523      MECN     N3       NG1T1   -0.460000       14.0070           0
     59463 WT20     528      MECN     C1       CG331   -0.170000       12.0110           0
     59464 WT20     528      MECN     H11      HGA3     0.090000        1.0080           0
     59465 WT20     528      MECN     H12      HGA3     0.090000        1.0080           0
     59466 WT20     528      MECN     H13      HGA3     0.090000        1.0080           0
     59467 WT20     528      MECN     C2       CG1N1    0.360000       12.0110           0
     59468 WT20     528      MECN     N3       NG1T1   -0.460000       14.0070           0
     59469 WT20     529      MECN     C1       CG331   -0.170000       12.0110           0
     59470 WT20     529      MECN     H11      HGA3     0.090000        1.0080           0
     59471 WT20     529      MECN     H12      HGA3     0.090000        1.0080           0
     59472 WT20     529      MECN     H13      HGA3     0.090000        1.0080           0
     59473 WT20     529      MECN     C2       CG1N1    0.360000       12.0110           0
     59474 WT20     529      MECN     N3       NG1T1   -0.460000       14.0070           0
     59475 WT20     530      MECN     C1       CG331   -0.170000       12.0110           0
     59476 WT20     530      MECN     H11      HGA3     0.090000        1.0080           0
     59477 WT20     530      MECN     H12      HGA3     0.090000        1.0080           0
     59478 WT20     530      MECN     H13      HGA3     0.090000        1.0080           0
     59479 WT20     530      MECN     C2       CG1N1    0.360000       12.0110           0
     59480 WT20     530      MECN     N3       NG1T1   -0.460000       14.0070           0
     59481 WT20     531      MECN     C1       CG331   -0.170000       12.0110           0
     59482 WT20     531      MECN     H11      HGA3     0.090000        1.0080           0
     59483 WT20     531      MECN     H12      HGA3     0.090000        1.0080           0
     59484 WT20     531      MECN     H13      HGA3     0.090000        1.0080           0
     59485 WT20     531      MECN     C2       CG1N1    0.360000       12.0110           0
     59486 WT20     531      MECN     N3       NG1T1   -0.460000       14.0070           0
     59487 WT20     537      MECN     C1       CG331   -0.170000       12.0110           0
     59488 WT20     537      MECN     H11      HGA3     0.090000        1.0080           0
     59489 WT20     537      MECN     H12      HGA3     0.090000        1.0080           0
     59490 WT20     537      MECN     H13      HGA3     0.090000        1.0080           0
     59491 WT20     537      MECN     C2       CG1N1    0.360000       12.0110           0
     59492 WT20     537      MECN     N3       NG1T1   -0.460000       14.0070           0
     59493 WT20     544      MECN     C1       CG331   -0.170000       12.0110           0
     59494 WT20     544      MECN     H11      HGA3     0.090000        1.0080           0
     59495 WT20     544      MECN     H12      HGA3     0.090000        1.0080           0
     59496 WT20     544      MECN     H13      HGA3     0.090000        1.0080           0
     59497 WT20     544      MECN     C2       CG1N1    0.360000       12.0110           0
     59498 WT20     544      MECN     N3       NG1T1   -0.460000       14.0070           0
     59499 WT20     545      MECN     C1       CG331   -0.170000       12.0110           0
     59500 WT20     545      MECN     H11      HGA3     0.090000        1.0080           0
     59501 WT20     545      MECN     H12      HGA3     0.090000        1.0080           0
     59502 WT20     545      MECN     H13      HGA3     0.090000        1.0080           0
     59503 WT20     545      MECN     C2       CG1N1    0.360000       12.0110           0
     59504 WT20     545      MECN     N3       NG1T1   -0.460000       14.0070           0
     59505 WT20     547      MECN     C1       CG331   -0.170000       12.0110           0
     59506 WT20     547      MECN     H11      HGA3     0.090000        1.0080           0
     59507 WT20     547      MECN     H12      HGA3     0.090000        1.0080           0
     59508 WT20     547      MECN     H13      HGA3     0.090000        1.0080           0
     59509 WT20     547      MECN     C2       CG1N1    0.360000       12.0110           0
     59510 WT20     547      MECN     N3       NG1T1   -0.460000       14.0070           0
     59511 WT20     553      MECN     C1       CG331   -0.170000       12.0110           0
     59512 WT20     553      MECN     H11      HGA3     0.090000        1.0080           0
     59513 WT20     553      MECN     H12      HGA3     0.090000        1.0080           0
     59514 WT20     553      MECN     H13      HGA3     0.090000        1.0080           0
     59515 WT20     553      MECN     C2       CG1N1    0.360000       12.0110           0
     59516 WT20     553      MECN     N3       NG1T1   -0.460000       14.0070           0
     59517 WT20     561      MECN     C1       CG331   -0.170000       12.0110           0
     59518 WT20     561      MECN     H11      HGA3     0.090000        1.0080           0
     59519 WT20     561      MECN     H12      HGA3     0.090000        1.0080           0
     59520 WT20     561      MECN     H13      HGA3     0.090000        1.0080           0
     59521 WT20     561      MECN     C2       CG1N1    0.360000       12.0110           0
     59522 WT20     561      MECN     N3       NG1T1   -0.460000       14.0070           0
     59523 WT20     571      MECN     C1       CG331   -0.170000       12.0110           0
     59524 WT20     571      MECN     H11      HGA3     0.090000        1.0080           0
     59525 WT20     571      MECN     H12      HGA3     0.090000        1.0080           0
     59526 WT20     571      MECN     H13      HGA3     0.090000        1.0080           0
     59527 WT20     571      MECN     C2       CG1N1    0.360000       12.0110           0
     59528 WT20     571      MECN     N3       NG1T1   -0.460000       14.0070           0
     59529 WT20     573      MECN     C1       CG331   -0.170000       12.0110           0
     59530 WT20     573      MECN     H11      HGA3     0.090000        1.0080           0
     59531 WT20     573      MECN     H12      HGA3     0.090000        1.0080           0
     59532 WT20     573      MECN     H13      HGA3     0.090000        1.0080           0
     59533 WT20     573      MECN     C2       CG1N1    0.360000       12.0110           0
     59534 WT20     573      MECN     N3       NG1T1   -0.460000       14.0070           0
     59535 WT20     576      MECN     C1       CG331   -0.170000       12.0110           0
     59536 WT20     576      MECN     H11      HGA3     0.090000        1.0080           0
     59537 WT20     576      MECN     H12      HGA3     0.090000        1.0080           0
     59538 WT20     576      MECN     H13      HGA3     0.090000        1.0080           0
     59539 WT20     576      MECN     C2       CG1N1    0.360000       12.0110           0
     59540 WT20     576      MECN     N3       NG1T1   -0.460000       14.0070           0
     59541 WT20     582      MECN     C1       CG331   -0.170000       12.0110           0
     59542 WT20     582      MECN     H11      HGA3     0.090000        1.0080           0
     59543 WT20     582      MECN     H12      HGA3     0.090000        1.0080           0
     59544 WT20     582      MECN     H13      HGA3     0.090000        1.0080           0
     59545 WT20     582      MECN     C2       CG1N1    0.360000       12.0110           0
     59546 WT20     582      MECN     N3       NG1T1   -0.460000       14.0070           0
     59547 WT20     583      MECN     C1       CG331   -0.170000       12.0110           0
     59548 WT20     583      MECN     H11      HGA3     0.090000        1.0080           0
     59549 WT20     583      MECN     H12      HGA3     0.090000        1.0080           0
     59550 WT20     583      MECN     H13      HGA3     0.090000        1.0080           0
     59551 WT20     583      MECN     C2       CG1N1    0.360000       12.0110           0
     59552 WT20     583      MECN     N3       NG1T1   -0.460000       14.0070           0
     59553 WT20     584      MECN     C1       CG331   -0.170000       12.0110           0
     59554 WT20     584      MECN     H11      HGA3     0.090000        1.0080           0
     59555 WT20     584      MECN     H12      HGA3     0.090000        1.0080           0
     59556 WT20     584      MECN     H13      HGA3     0.090000        1.0080           0
     59557 WT20     584      MECN     C2       CG1N1    0.360000       12.0110           0
     59558 WT20     584      MECN     N3       NG1T1   -0.460000       14.0070           0
     59559 WT20     589      MECN     C1       CG331   -0.170000       12.0110           0
     59560 WT20     589      MECN     H11      HGA3     0.090000        1.0080           0
     59561 WT20     589      MECN     H12      HGA3     0.090000        1.0080           0
     59562 WT20     589      MECN     H13      HGA3     0.090000        1.0080           0
     59563 WT20     589      MECN     C2       CG1N1    0.360000       12.0110           0
     59564 WT20     589      MECN     N3       NG1T1   -0.460000       14.0070           0
     59565 WT20     591      MECN     C1       CG331   -0.170000       12.0110           0
     59566 WT20     591      MECN     H11      HGA3     0.090000        1.0080           0
     59567 WT20     591      MECN     H12      HGA3     0.090000        1.0080           0
     59568 WT20     591      MECN     H13      HGA3     0.090000        1.0080           0
     59569 WT20     591      MECN     C2       CG1N1    0.360000       12.0110           0
     59570 WT20     591      MECN     N3       NG1T1   -0.460000       14.0070           0
     59571 WT20     592      MECN     C1       CG331   -0.170000       12.0110           0
     59572 WT20     592      MECN     H11      HGA3     0.090000        1.0080           0
     59573 WT20     592      MECN     H12      HGA3     0.090000        1.0080           0
     59574 WT20     592      MECN     H13      HGA3     0.090000        1.0080           0
     59575 WT20     592      MECN     C2       CG1N1    0.360000       12.0110           0
     59576 WT20     592      MECN     N3       NG1T1   -0.460000       14.0070           0
     59577 WT20     593      MECN     C1       CG331   -0.170000       12.0110           0
     59578 WT20     593      MECN     H11      HGA3     0.090000        1.0080           0
     59579 WT20     593      MECN     H12      HGA3     0.090000        1.0080           0
     59580 WT20     593      MECN     H13      HGA3     0.090000        1.0080           0
     59581 WT20     593      MECN     C2       CG1N1    0.360000       12.0110           0
     59582 WT20     593      MECN     N3       NG1T1   -0.460000       14.0070           0
     59583 WT20     598      MECN     C1       CG331   -0.170000       12.0110           0
     59584 WT20     598      MECN     H11      HGA3     0.090000        1.0080           0
     59585 WT20     598      MECN     H12      HGA3     0.090000        1.0080           0
     59586 WT20     598      MECN     H13      HGA3     0.090000        1.0080           0
     59587 WT20     598      MECN     C2       CG1N1    0.360000       12.0110           0
     59588 WT20     598      MECN     N3       NG1T1   -0.460000       14.0070           0
     59589 WT20     599      MECN     C1       CG331   -0.170000       12.0110           0
     59590 WT20     599      MECN     H11      HGA3     0.090000        1.0080           0
     59591 WT20     599      MECN     H12      HGA3     0.090000        1.0080           0
     59592 WT20     599      MECN     H13      HGA3     0.090000        1.0080           0
     59593 WT20     599      MECN     C2       CG1N1    0.360000       12.0110           0
     59594 WT20     599      MECN     N3       NG1T1   -0.460000       14.0070           0
     59595 WT20     607      MECN     C1       CG331   -0.170000       12.0110           0
     59596 WT20     607      MECN     H11      HGA3     0.090000        1.0080           0
     59597 WT20     607      MECN     H12      HGA3     0.090000        1.0080           0
     59598 WT20     607      MECN     H13      HGA3     0.090000        1.0080           0
     59599 WT20     607      MECN     C2       CG1N1    0.360000       12.0110           0
     59600 WT20     607      MECN     N3       NG1T1   -0.460000       14.0070           0
     59601 WT20     612      MECN     C1       CG331   -0.170000       12.0110           0
     59602 WT20     612      MECN     H11      HGA3     0.090000        1.0080           0
     59603 WT20     612      MECN     H12      HGA3     0.090000        1.0080           0
     59604 WT20     612      MECN     H13      HGA3     0.090000        1.0080           0
     59605 WT20     612      MECN     C2       CG1N1    0.360000       12.0110           0
     59606 WT20     612      MECN     N3       NG1T1   -0.460000       14.0070           0
     59607 WT20     620      MECN     C1       CG331   -0.170000       12.0110           0
     59608 WT20     620      MECN     H11      HGA3     0.090000        1.0080           0
     59609 WT20     620      MECN     H12      HGA3     0.090000        1.0080           0
     59610 WT20     620      MECN     H13      HGA3     0.090000        1.0080           0
     59611 WT20     620      MECN     C2       CG1N1    0.360000       12.0110           0
     59612 WT20     620      MECN     N3       NG1T1   -0.460000       14.0070           0
     59613 WT20     624      MECN     C1       CG331   -0.170000       12.0110           0
     59614 WT20     624      MECN     H11      HGA3     0.090000        1.0080           0
     59615 WT20     624      MECN     H12      HGA3     0.090000        1.0080           0
     59616 WT20     624      MECN     H13      HGA3     0.090000        1.0080           0
     59617 WT20     624      MECN     C2       CG1N1    0.360000       12.0110           0
     59618 WT20     624      MECN     N3       NG1T1   -0.460000       14.0070           0
     59619 WT20     627      MECN     C1       CG331   -0.170000       12.0110           0
     59620 WT20     627      MECN     H11      HGA3     0.090000        1.0080           0
     59621 WT20     627      MECN     H12      HGA3     0.090000        1.0080           0
     59622 WT20     627      MECN     H13      HGA3     0.090000        1.0080           0
     59623 WT20     627      MECN     C2       CG1N1    0.360000       12.0110           0
     59624 WT20     627      MECN     N3       NG1T1   -0.460000       14.0070           0
     59625 WT20     628      MECN     C1       CG331   -0.170000       12.0110           0
     59626 WT20     628      MECN     H11      HGA3     0.090000        1.0080           0
     59627 WT20     628      MECN     H12      HGA3     0.090000        1.0080           0
     59628 WT20     628      MECN     H13      HGA3     0.090000        1.0080           0
     59629 WT20     628      MECN     C2       CG1N1    0.360000       12.0110           0
     59630 WT20     628      MECN     N3       NG1T1   -0.460000       14.0070           0
     59631 WT20     632      MECN     C1       CG331   -0.170000       12.0110           0
     59632 WT20     632      MECN     H11      HGA3     0.090000        1.0080           0
     59633 WT20     632      MECN     H12      HGA3     0.090000        1.0080           0
     59634 WT20     632      MECN     H13      HGA3     0.090000        1.0080           0
     59635 WT20     632      MECN     C2       CG1N1    0.360000       12.0110           0
     59636 WT20     632      MECN     N3       NG1T1   -0.460000       14.0070           0
     59637 WT20     633      MECN     C1       CG331   -0.170000       12.0110           0
     59638 WT20     633      MECN     H11      HGA3     0.090000        1.0080           0
     59639 WT20     633      MECN     H12      HGA3     0.090000        1.0080           0
     59640 WT20     633      MECN     H13      HGA3     0.090000        1.0080           0
     59641 WT20     633      MECN     C2       CG1N1    0.360000       12.0110           0
     59642 WT20     633      MECN     N3       NG1T1   -0.460000       14.0070           0
     59643 WT20     636      MECN     C1       CG331   -0.170000       12.0110           0
     59644 WT20     636      MECN     H11      HGA3     0.090000        1.0080           0
     59645 WT20     636      MECN     H12      HGA3     0.090000        1.0080           0
     59646 WT20     636      MECN     H13      HGA3     0.090000        1.0080           0
     59647 WT20     636      MECN     C2       CG1N1    0.360000       12.0110           0
     59648 WT20     636      MECN     N3       NG1T1   -0.460000       14.0070           0
     59649 WT20     637      MECN     C1       CG331   -0.170000       12.0110           0
     59650 WT20     637      MECN     H11      HGA3     0.090000        1.0080           0
     59651 WT20     637      MECN     H12      HGA3     0.090000        1.0080           0
     59652 WT20     637      MECN     H13      HGA3     0.090000        1.0080           0
     59653 WT20     637      MECN     C2       CG1N1    0.360000       12.0110           0
     59654 WT20     637      MECN     N3       NG1T1   -0.460000       14.0070           0
     59655 WT20     639      MECN     C1       CG331   -0.170000       12.0110           0
     59656 WT20     639      MECN     H11      HGA3     0.090000        1.0080           0
     59657 WT20     639      MECN     H12      HGA3     0.090000        1.0080           0
     59658 WT20     639      MECN     H13      HGA3     0.090000        1.0080           0
     59659 WT20     639      MECN     C2       CG1N1    0.360000       12.0110           0
     59660 WT20     639      MECN     N3       NG1T1   -0.460000       14.0070           0
     59661 WT20     647      MECN     C1       CG331   -0.170000       12.0110           0
     59662 WT20     647      MECN     H11      HGA3     0.090000        1.0080           0
     59663 WT20     647      MECN     H12      HGA3     0.090000        1.0080           0
     59664 WT20     647      MECN     H13      HGA3     0.090000        1.0080           0
     59665 WT20     647      MECN     C2       CG1N1    0.360000       12.0110           0
     59666 WT20     647      MECN     N3       NG1T1   -0.460000       14.0070           0
     59667 WT20     649      MECN     C1       CG331   -0.170000       12.0110           0
     59668 WT20     649      MECN     H11      HGA3     0.090000        1.0080           0
     59669 WT20     649      MECN     H12      HGA3     0.090000        1.0080           0
     59670 WT20     649      MECN     H13      HGA3     0.090000        1.0080           0
     59671 WT20     649      MECN     C2       CG1N1    0.360000       12.0110           0
     59672 WT20     649      MECN     N3       NG1T1   -0.460000       14.0070           0
     59673 WT20     650      MECN     C1       CG331   -0.170000       12.0110           0
     59674 WT20     650      MECN     H11      HGA3     0.090000        1.0080           0
     59675 WT20     650      MECN     H12      HGA3     0.090000        1.0080           0
     59676 WT20     650      MECN     H13      HGA3     0.090000        1.0080           0
     59677 WT20     650      MECN     C2       CG1N1    0.360000       12.0110           0
     59678 WT20     650      MECN     N3       NG1T1   -0.460000       14.0070           0
     59679 WT20     652      MECN     C1       CG331   -0.170000       12.0110           0
     59680 WT20     652      MECN     H11      HGA3     0.090000        1.0080           0
     59681 WT20     652      MECN     H12      HGA3     0.090000        1.0080           0
     59682 WT20     652      MECN     H13      HGA3     0.090000        1.0080           0
     59683 WT20     652      MECN     C2       CG1N1    0.360000       12.0110           0
     59684 WT20     652      MECN     N3       NG1T1   -0.460000       14.0070           0
     59685 WT20     653      MECN     C1       CG331   -0.170000       12.0110           0
     59686 WT20     653      MECN     H11      HGA3     0.090000        1.0080           0
     59687 WT20     653      MECN     H12      HGA3     0.090000        1.0080           0
     59688 WT20     653      MECN     H13      HGA3     0.090000        1.0080           0
     59689 WT20     653      MECN     C2       CG1N1    0.360000       12.0110           0
     59690 WT20     653      MECN     N3       NG1T1   -0.460000       14.0070           0
     59691 WT20     665      MECN     C1       CG331   -0.170000       12.0110           0
     59692 WT20     665      MECN     H11      HGA3     0.090000        1.0080           0
     59693 WT20     665      MECN     H12      HGA3     0.090000        1.0080           0
     59694 WT20     665      MECN     H13      HGA3     0.090000        1.0080           0
     59695 WT20     665      MECN     C2       CG1N1    0.360000       12.0110           0
     59696 WT20     665      MECN     N3       NG1T1   -0.460000       14.0070           0
     59697 WT20     667      MECN     C1       CG331   -0.170000       12.0110           0
     59698 WT20     667      MECN     H11      HGA3     0.090000        1.0080           0
     59699 WT20     667      MECN     H12      HGA3     0.090000        1.0080           0
     59700 WT20     667      MECN     H13      HGA3     0.090000        1.0080           0
     59701 WT20     667      MECN     C2       CG1N1    0.360000       12.0110           0
     59702 WT20     667      MECN     N3       NG1T1   -0.460000       14.0070           0
     59703 WT20     673      MECN     C1       CG331   -0.170000       12.0110           0
     59704 WT20     673      MECN     H11      HGA3     0.090000        1.0080           0
     59705 WT20     673      MECN     H12      HGA3     0.090000        1.0080           0
     59706 WT20     673      MECN     H13      HGA3     0.090000        1.0080           0
     59707 WT20     673      MECN     C2       CG1N1    0.360000       12.0110           0
     59708 WT20     673      MECN     N3       NG1T1   -0.460000       14.0070           0
     59709 WT20     679      MECN     C1       CG331   -0.170000       12.0110           0
     59710 WT20     679      MECN     H11      HGA3     0.090000        1.0080           0
     59711 WT20     679      MECN     H12      HGA3     0.090000        1.0080           0
     59712 WT20     679      MECN     H13      HGA3     0.090000        1.0080           0
     59713 WT20     679      MECN     C2       CG1N1    0.360000       12.0110           0
     59714 WT20     679      MECN     N3       NG1T1   -0.460000       14.0070           0
     59715 WT20     683      MECN     C1       CG331   -0.170000       12.0110           0
     59716 WT20     683      MECN     H11      HGA3     0.090000        1.0080           0
     59717 WT20     683      MECN     H12      HGA3     0.090000        1.0080           0
     59718 WT20     683      MECN     H13      HGA3     0.090000        1.0080           0
     59719 WT20     683      MECN     C2       CG1N1    0.360000       12.0110           0
     59720 WT20     683      MECN     N3       NG1T1   -0.460000       14.0070           0
     59721 WT20     684      MECN     C1       CG331   -0.170000       12.0110           0
     59722 WT20     684      MECN     H11      HGA3     0.090000        1.0080           0
     59723 WT20     684      MECN     H12      HGA3     0.090000        1.0080           0
     59724 WT20     684      MECN     H13      HGA3     0.090000        1.0080           0
     59725 WT20     684      MECN     C2       CG1N1    0.360000       12.0110           0
     59726 WT20     684      MECN     N3       NG1T1   -0.460000       14.0070           0
     59727 WT20     686      MECN     C1       CG331   -0.170000       12.0110           0
     59728 WT20     686      MECN     H11      HGA3     0.090000        1.0080           0
     59729 WT20     686      MECN     H12      HGA3     0.090000        1.0080           0
     59730 WT20     686      MECN     H13      HGA3     0.090000        1.0080           0
     59731 WT20     686      MECN     C2       CG1N1    0.360000       12.0110           0
     59732 WT20     686      MECN     N3       NG1T1   -0.460000       14.0070           0
     59733 WT20     692      MECN     C1       CG331   -0.170000       12.0110           0
     59734 WT20     692      MECN     H11      HGA3     0.090000        1.0080           0
     59735 WT20     692      MECN     H12      HGA3     0.090000        1.0080           0
     59736 WT20     692      MECN     H13      HGA3     0.090000        1.0080           0
     59737 WT20     692      MECN     C2       CG1N1    0.360000       12.0110           0
     59738 WT20     692      MECN     N3       NG1T1   -0.460000       14.0070           0
     59739 WT20     694      MECN     C1       CG331   -0.170000       12.0110           0
     59740 WT20     694      MECN     H11      HGA3     0.090000        1.0080           0
     59741 WT20     694      MECN     H12      HGA3     0.090000        1.0080           0
     59742 WT20     694      MECN     H13      HGA3     0.090000        1.0080           0
     59743 WT20     694      MECN     C2       CG1N1    0.360000       12.0110           0
     59744 WT20     694      MECN     N3       NG1T1   -0.460000       14.0070           0
     59745 WT20     696      MECN     C1       CG331   -0.170000       12.0110           0
     59746 WT20     696      MECN     H11      HGA3     0.090000        1.0080           0
     59747 WT20     696      MECN     H12      HGA3     0.090000        1.0080           0
     59748 WT20     696      MECN     H13      HGA3     0.090000        1.0080           0
     59749 WT20     696      MECN     C2       CG1N1    0.360000       12.0110           0
     59750 WT20     696      MECN     N3       NG1T1   -0.460000       14.0070           0
     59751 WT20     699      MECN     C1       CG331   -0.170000       12.0110           0
     59752 WT20     699      MECN     H11      HGA3     0.090000        1.0080           0
     59753 WT20     699      MECN     H12      HGA3     0.090000        1.0080           0
     59754 WT20     699      MECN     H13      HGA3     0.090000        1.0080           0
     59755 WT20     699      MECN     C2       CG1N1    0.360000       12.0110           0
     59756 WT20     699      MECN     N3       NG1T1   -0.460000       14.0070           0
     59757 WT20     701      MECN     C1       CG331   -0.170000       12.0110           0
     59758 WT20     701      MECN     H11      HGA3     0.090000        1.0080           0
     59759 WT20     701      MECN     H12      HGA3     0.090000        1.0080           0
     59760 WT20     701      MECN     H13      HGA3     0.090000        1.0080           0
     59761 WT20     701      MECN     C2       CG1N1    0.360000       12.0110           0
     59762 WT20     701      MECN     N3       NG1T1   -0.460000       14.0070           0
     59763 WT20     704      MECN     C1       CG331   -0.170000       12.0110           0
     59764 WT20     704      MECN     H11      HGA3     0.090000        1.0080           0
     59765 WT20     704      MECN     H12      HGA3     0.090000        1.0080           0
     59766 WT20     704      MECN     H13      HGA3     0.090000        1.0080           0
     59767 WT20     704      MECN     C2       CG1N1    0.360000       12.0110           0
     59768 WT20     704      MECN     N3       NG1T1   -0.460000       14.0070           0
     59769 WT20     708      MECN     C1       CG331   -0.170000       12.0110           0
     59770 WT20     708      MECN     H11      HGA3     0.090000        1.0080           0
     59771 WT20     708      MECN     H12      HGA3     0.090000        1.0080           0
     59772 WT20     708      MECN     H13      HGA3     0.090000        1.0080           0
     59773 WT20     708      MECN     C2       CG1N1    0.360000       12.0110           0
     59774 WT20     708      MECN     N3       NG1T1   -0.460000       14.0070           0
     59775 WT20     712      MECN     C1       CG331   -0.170000       12.0110           0
     59776 WT20     712      MECN     H11      HGA3     0.090000        1.0080           0
     59777 WT20     712      MECN     H12      HGA3     0.090000        1.0080           0
     59778 WT20     712      MECN     H13      HGA3     0.090000        1.0080           0
     59779 WT20     712      MECN     C2       CG1N1    0.360000       12.0110           0
     59780 WT20     712      MECN     N3       NG1T1   -0.460000       14.0070           0
     59781 WT20     723      MECN     C1       CG331   -0.170000       12.0110           0
     59782 WT20     723      MECN     H11      HGA3     0.090000        1.0080           0
     59783 WT20     723      MECN     H12      HGA3     0.090000        1.0080           0
     59784 WT20     723      MECN     H13      HGA3     0.090000        1.0080           0
     59785 WT20     723      MECN     C2       CG1N1    0.360000       12.0110           0
     59786 WT20     723      MECN     N3       NG1T1   -0.460000       14.0070           0
     59787 WT20     729      MECN     C1       CG331   -0.170000       12.0110           0
     59788 WT20     729      MECN     H11      HGA3     0.090000        1.0080           0
     59789 WT20     729      MECN     H12      HGA3     0.090000        1.0080           0
     59790 WT20     729      MECN     H13      HGA3     0.090000        1.0080           0
     59791 WT20     729      MECN     C2       CG1N1    0.360000       12.0110           0
     59792 WT20     729      MECN     N3       NG1T1   -0.460000       14.0070           0
     59793 WT20     733      MECN     C1       CG331   -0.170000       12.0110           0
     59794 WT20     733      MECN     H11      HGA3     0.090000        1.0080           0
     59795 WT20     733      MECN     H12      HGA3     0.090000        1.0080           0
     59796 WT20     733      MECN     H13      HGA3     0.090000        1.0080           0
     59797 WT20     733      MECN     C2       CG1N1    0.360000       12.0110           0
     59798 WT20     733      MECN     N3       NG1T1   -0.460000       14.0070           0
     59799 WT20     734      MECN     C1       CG331   -0.170000       12.0110           0
     59800 WT20     734      MECN     H11      HGA3     0.090000        1.0080           0
     59801 WT20     734      MECN     H12      HGA3     0.090000        1.0080           0
     59802 WT20     734      MECN     H13      HGA3     0.090000        1.0080           0
     59803 WT20     734      MECN     C2       CG1N1    0.360000       12.0110           0
     59804 WT20     734      MECN     N3       NG1T1   -0.460000       14.0070           0
     59805 WT20     736      MECN     C1       CG331   -0.170000       12.0110           0
     59806 WT20     736      MECN     H11      HGA3     0.090000        1.0080           0
     59807 WT20     736      MECN     H12      HGA3     0.090000        1.0080           0
     59808 WT20     736      MECN     H13      HGA3     0.090000        1.0080           0
     59809 WT20     736      MECN     C2       CG1N1    0.360000       12.0110           0
     59810 WT20     736      MECN     N3       NG1T1   -0.460000       14.0070           0
     59811 WT20     737      MECN     C1       CG331   -0.170000       12.0110           0
     59812 WT20     737      MECN     H11      HGA3     0.090000        1.0080           0
     59813 WT20     737      MECN     H12      HGA3     0.090000        1.0080           0
     59814 WT20     737      MECN     H13      HGA3     0.090000        1.0080           0
     59815 WT20     737      MECN     C2       CG1N1    0.360000       12.0110           0
     59816 WT20     737      MECN     N3       NG1T1   -0.460000       14.0070           0
     59817 WT20     741      MECN     C1       CG331   -0.170000       12.0110           0
     59818 WT20     741      MECN     H11      HGA3     0.090000        1.0080           0
     59819 WT20     741      MECN     H12      HGA3     0.090000        1.0080           0
     59820 WT20     741      MECN     H13      HGA3     0.090000        1.0080           0
     59821 WT20     741      MECN     C2       CG1N1    0.360000       12.0110           0
     59822 WT20     741      MECN     N3       NG1T1   -0.460000       14.0070           0
     59823 WT20     744      MECN     C1       CG331   -0.170000       12.0110           0
     59824 WT20     744      MECN     H11      HGA3     0.090000        1.0080           0
     59825 WT20     744      MECN     H12      HGA3     0.090000        1.0080           0
     59826 WT20     744      MECN     H13      HGA3     0.090000        1.0080           0
     59827 WT20     744      MECN     C2       CG1N1    0.360000       12.0110           0
     59828 WT20     744      MECN     N3       NG1T1   -0.460000       14.0070           0
     59829 WT20     747      MECN     C1       CG331   -0.170000       12.0110           0
     59830 WT20     747      MECN     H11      HGA3     0.090000        1.0080           0
     59831 WT20     747      MECN     H12      HGA3     0.090000        1.0080           0
     59832 WT20     747      MECN     H13      HGA3     0.090000        1.0080           0
     59833 WT20     747      MECN     C2       CG1N1    0.360000       12.0110           0
     59834 WT20     747      MECN     N3       NG1T1   -0.460000       14.0070           0
     59835 WT20     748      MECN     C1       CG331   -0.170000       12.0110           0
     59836 WT20     748      MECN     H11      HGA3     0.090000        1.0080           0
     59837 WT20     748      MECN     H12      HGA3     0.090000        1.0080           0
     59838 WT20     748      MECN     H13      HGA3     0.090000        1.0080           0
     59839 WT20     748      MECN     C2       CG1N1    0.360000       12.0110           0
     59840 WT20     748      MECN     N3       NG1T1   -0.460000       14.0070           0
     59841 WT20     750      MECN     C1       CG331   -0.170000       12.0110           0
     59842 WT20     750      MECN     H11      HGA3     0.090000        1.0080           0
     59843 WT20     750      MECN     H12      HGA3     0.090000        1.0080           0
     59844 WT20     750      MECN     H13      HGA3     0.090000        1.0080           0
     59845 WT20     750      MECN     C2       CG1N1    0.360000       12.0110           0
     59846 WT20     750      MECN     N3       NG1T1   -0.460000       14.0070           0
     59847 WT20     752      MECN     C1       CG331   -0.170000       12.0110           0
     59848 WT20     752      MECN     H11      HGA3     0.090000        1.0080           0
     59849 WT20     752      MECN     H12      HGA3     0.090000        1.0080           0
     59850 WT20     752      MECN     H13      HGA3     0.090000        1.0080           0
     59851 WT20     752      MECN     C2       CG1N1    0.360000       12.0110           0
     59852 WT20     752      MECN     N3       NG1T1   -0.460000       14.0070           0
     59853 WT20     754      MECN     C1       CG331   -0.170000       12.0110           0
     59854 WT20     754      MECN     H11      HGA3     0.090000        1.0080           0
     59855 WT20     754      MECN     H12      HGA3     0.090000        1.0080           0
     59856 WT20     754      MECN     H13      HGA3     0.090000        1.0080           0
     59857 WT20     754      MECN     C2       CG1N1    0.360000       12.0110           0
     59858 WT20     754      MECN     N3       NG1T1   -0.460000       14.0070           0
     59859 WT20     755      MECN     C1       CG331   -0.170000       12.0110           0
     59860 WT20     755      MECN     H11      HGA3     0.090000        1.0080           0
     59861 WT20     755      MECN     H12      HGA3     0.090000        1.0080           0
     59862 WT20     755      MECN     H13      HGA3     0.090000        1.0080           0
     59863 WT20     755      MECN     C2       CG1N1    0.360000       12.0110           0
     59864 WT20     755      MECN     N3       NG1T1   -0.460000       14.0070           0
     59865 WT20     756      MECN     C1       CG331   -0.170000       12.0110           0
     59866 WT20     756      MECN     H11      HGA3     0.090000        1.0080           0
     59867 WT20     756      MECN     H12      HGA3     0.090000        1.0080           0
     59868 WT20     756      MECN     H13      HGA3     0.090000        1.0080           0
     59869 WT20     756      MECN     C2       CG1N1    0.360000       12.0110           0
     59870 WT20     756      MECN     N3       NG1T1   -0.460000       14.0070           0
     59871 WT20     757      MECN     C1       CG331   -0.170000       12.0110           0
     59872 WT20     757      MECN     H11      HGA3     0.090000        1.0080           0
     59873 WT20     757      MECN     H12      HGA3     0.090000        1.0080           0
     59874 WT20     757      MECN     H13      HGA3     0.090000        1.0080           0
     59875 WT20     757      MECN     C2       CG1N1    0.360000       12.0110           0
     59876 WT20     757      MECN     N3       NG1T1   -0.460000       14.0070           0
     59877 WT20     761      MECN     C1       CG331   -0.170000       12.0110           0
     59878 WT20     761      MECN     H11      HGA3     0.090000        1.0080           0
     59879 WT20     761      MECN     H12      HGA3     0.090000        1.0080           0
     59880 WT20     761      MECN     H13      HGA3     0.090000        1.0080           0
     59881 WT20     761      MECN     C2       CG1N1    0.360000       12.0110           0
     59882 WT20     761      MECN     N3       NG1T1   -0.460000       14.0070           0
     59883 WT20     768      MECN     C1       CG331   -0.170000       12.0110           0
     59884 WT20     768      MECN     H11      HGA3     0.090000        1.0080           0
     59885 WT20     768      MECN     H12      HGA3     0.090000        1.0080           0
     59886 WT20     768      MECN     H13      HGA3     0.090000        1.0080           0
     59887 WT20     768      MECN     C2       CG1N1    0.360000       12.0110           0
     59888 WT20     768      MECN     N3       NG1T1   -0.460000       14.0070           0
     59889 WT20     774      MECN     C1       CG331   -0.170000       12.0110           0
     59890 WT20     774      MECN     H11      HGA3     0.090000        1.0080           0
     59891 WT20     774      MECN     H12      HGA3     0.090000        1.0080           0
     59892 WT20     774      MECN     H13      HGA3     0.090000        1.0080           0
     59893 WT20     774      MECN     C2       CG1N1    0.360000       12.0110           0
     59894 WT20     774      MECN     N3       NG1T1   -0.460000       14.0070           0
     59895 WT20     777      MECN     C1       CG331   -0.170000       12.0110           0
     59896 WT20     777      MECN     H11      HGA3     0.090000        1.0080           0
     59897 WT20     777      MECN     H12      HGA3     0.090000        1.0080           0
     59898 WT20     777      MECN     H13      HGA3     0.090000        1.0080           0
     59899 WT20     777      MECN     C2       CG1N1    0.360000       12.0110           0
     59900 WT20     777      MECN     N3       NG1T1   -0.460000       14.0070           0
     59901 WT20     778      MECN     C1       CG331   -0.170000       12.0110           0
     59902 WT20     778      MECN     H11      HGA3     0.090000        1.0080           0
     59903 WT20     778      MECN     H12      HGA3     0.090000        1.0080           0
     59904 WT20     778      MECN     H13      HGA3     0.090000        1.0080           0
     59905 WT20     778      MECN     C2       CG1N1    0.360000       12.0110           0
     59906 WT20     778      MECN     N3       NG1T1   -0.460000       14.0070           0
     59907 WT20     783      MECN     C1       CG331   -0.170000       12.0110           0
     59908 WT20     783      MECN     H11      HGA3     0.090000        1.0080           0
     59909 WT20     783      MECN     H12      HGA3     0.090000        1.0080           0
     59910 WT20     783      MECN     H13      HGA3     0.090000        1.0080           0
     59911 WT20     783      MECN     C2       CG1N1    0.360000       12.0110           0
     59912 WT20     783      MECN     N3       NG1T1   -0.460000       14.0070           0
     59913 WT20     789      MECN     C1       CG331   -0.170000       12.0110           0
     59914 WT20     789      MECN     H11      HGA3     0.090000        1.0080           0
     59915 WT20     789      MECN     H12      HGA3     0.090000        1.0080           0
     59916 WT20     789      MECN     H13      HGA3     0.090000        1.0080           0
     59917 WT20     789      MECN     C2       CG1N1    0.360000       12.0110           0
     59918 WT20     789      MECN     N3       NG1T1   -0.460000       14.0070           0
     59919 WT20     795      MECN     C1       CG331   -0.170000       12.0110           0
     59920 WT20     795      MECN     H11      HGA3     0.090000        1.0080           0
     59921 WT20     795      MECN     H12      HGA3     0.090000        1.0080           0
     59922 WT20     795      MECN     H13      HGA3     0.090000        1.0080           0
     59923 WT20     795      MECN     C2       CG1N1    0.360000       12.0110           0
     59924 WT20     795      MECN     N3       NG1T1   -0.460000       14.0070           0
     59925 WT20     797      MECN     C1       CG331   -0.170000       12.0110           0
     59926 WT20     797      MECN     H11      HGA3     0.090000        1.0080           0
     59927 WT20     797      MECN     H12      HGA3     0.090000        1.0080           0
     59928 WT20     797      MECN     H13      HGA3     0.090000        1.0080           0
     59929 WT20     797      MECN     C2       CG1N1    0.360000       12.0110           0
     59930 WT20     797      MECN     N3       NG1T1   -0.460000       14.0070           0
     59931 WT20     799      MECN     C1       CG331   -0.170000       12.0110           0
     59932 WT20     799      MECN     H11      HGA3     0.090000        1.0080           0
     59933 WT20     799      MECN     H12      HGA3     0.090000        1.0080           0
     59934 WT20     799      MECN     H13      HGA3     0.090000        1.0080           0
     59935 WT20     799      MECN     C2       CG1N1    0.360000       12.0110           0
     59936 WT20     799      MECN     N3       NG1T1   -0.460000       14.0070           0
     59937 WT20     800      MECN     C1       CG331   -0.170000       12.0110           0
     59938 WT20     800      MECN     H11      HGA3     0.090000        1.0080           0
     59939 WT20     800      MECN     H12      HGA3     0.090000        1.0080           0
     59940 WT20     800      MECN     H13      HGA3     0.090000        1.0080           0
     59941 WT20     800      MECN     C2       CG1N1    0.360000       12.0110           0
     59942 WT20     800      MECN     N3       NG1T1   -0.460000       14.0070           0
     59943 WT20     801      MECN     C1       CG331   -0.170000       12.0110           0
     59944 WT20     801      MECN     H11      HGA3     0.090000        1.0080           0
     59945 WT20     801      MECN     H12      HGA3     0.090000        1.0080           0
     59946 WT20     801      MECN     H13      HGA3     0.090000        1.0080           0
     59947 WT20     801      MECN     C2       CG1N1    0.360000       12.0110           0
     59948 WT20     801      MECN     N3       NG1T1   -0.460000       14.0070           0
     59949 WT20     803      MECN     C1       CG331   -0.170000       12.0110           0
     59950 WT20     803      MECN     H11      HGA3     0.090000        1.0080           0
     59951 WT20     803      MECN     H12      HGA3     0.090000        1.0080           0
     59952 WT20     803      MECN     H13      HGA3     0.090000        1.0080           0
     59953 WT20     803      MECN     C2       CG1N1    0.360000       12.0110           0
     59954 WT20     803      MECN     N3       NG1T1   -0.460000       14.0070           0
     59955 WT20     810      MECN     C1       CG331   -0.170000       12.0110           0
     59956 WT20     810      MECN     H11      HGA3     0.090000        1.0080           0
     59957 WT20     810      MECN     H12      HGA3     0.090000        1.0080           0
     59958 WT20     810      MECN     H13      HGA3     0.090000        1.0080           0
     59959 WT20     810      MECN     C2       CG1N1    0.360000       12.0110           0
     59960 WT20     810      MECN     N3       NG1T1   -0.460000       14.0070           0
     59961 WT20     814      MECN     C1       CG331   -0.170000       12.0110           0
     59962 WT20     814      MECN     H11      HGA3     0.090000        1.0080           0
     59963 WT20     814      MECN     H12      HGA3     0.090000        1.0080           0
     59964 WT20     814      MECN     H13      HGA3     0.090000        1.0080           0
     59965 WT20     814      MECN     C2       CG1N1    0.360000       12.0110           0
     59966 WT20     814      MECN     N3       NG1T1   -0.460000       14.0070           0
     59967 WT20     817      MECN     C1       CG331   -0.170000       12.0110           0
     59968 WT20     817      MECN     H11      HGA3     0.090000        1.0080           0
     59969 WT20     817      MECN     H12      HGA3     0.090000        1.0080           0
     59970 WT20     817      MECN     H13      HGA3     0.090000        1.0080           0
     59971 WT20     817      MECN     C2       CG1N1    0.360000       12.0110           0
     59972 WT20     817      MECN     N3       NG1T1   -0.460000       14.0070           0
     59973 WT20     821      MECN     C1       CG331   -0.170000       12.0110           0
     59974 WT20     821      MECN     H11      HGA3     0.090000        1.0080           0
     59975 WT20     821      MECN     H12      HGA3     0.090000        1.0080           0
     59976 WT20     821      MECN     H13      HGA3     0.090000        1.0080           0
     59977 WT20     821      MECN     C2       CG1N1    0.360000       12.0110           0
     59978 WT20     821      MECN     N3       NG1T1   -0.460000       14.0070           0
     59979 WT20     829      MECN     C1       CG331   -0.170000       12.0110           0
     59980 WT20     829      MECN     H11      HGA3     0.090000        1.0080           0
     59981 WT20     829      MECN     H12      HGA3     0.090000        1.0080           0
     59982 WT20     829      MECN     H13      HGA3     0.090000        1.0080           0
     59983 WT20     829      MECN     C2       CG1N1    0.360000       12.0110           0
     59984 WT20     829      MECN     N3       NG1T1   -0.460000       14.0070           0
     59985 WT20     831      MECN     C1       CG331   -0.170000       12.0110           0
     59986 WT20     831      MECN     H11      HGA3     0.090000        1.0080           0
     59987 WT20     831      MECN     H12      HGA3     0.090000        1.0080           0
     59988 WT20     831      MECN     H13      HGA3     0.090000        1.0080           0
     59989 WT20     831      MECN     C2       CG1N1    0.360000       12.0110           0
     59990 WT20     831      MECN     N3       NG1T1   -0.460000       14.0070           0
     59991 WT20     833      MECN     C1       CG331   -0.170000       12.0110           0
     59992 WT20     833      MECN     H11      HGA3     0.090000        1.0080           0
     59993 WT20     833      MECN     H12      HGA3     0.090000        1.0080           0
     59994 WT20     833      MECN     H13      HGA3     0.090000        1.0080           0
     59995 WT20     833      MECN     C2       CG1N1    0.360000       12.0110           0
     59996 WT20     833      MECN     N3       NG1T1   -0.460000       14.0070           0
     59997 WT20     834      MECN     C1       CG331   -0.170000       12.0110           0
     59998 WT20     834      MECN     H11      HGA3     0.090000        1.0080           0
     59999 WT20     834      MECN     H12      HGA3     0.090000        1.0080           0
     60000 WT20     834      MECN     H13      HGA3     0.090000        1.0080           0
     60001 WT20     834      MECN     C2       CG1N1    0.360000       12.0110           0
     60002 WT20     834      MECN     N3       NG1T1   -0.460000       14.0070           0
     60003 WT20     838      MECN     C1       CG331   -0.170000       12.0110           0
     60004 WT20     838      MECN     H11      HGA3     0.090000        1.0080           0
     60005 WT20     838      MECN     H12      HGA3     0.090000        1.0080           0
     60006 WT20     838      MECN     H13      HGA3     0.090000        1.0080           0
     60007 WT20     838      MECN     C2       CG1N1    0.360000       12.0110           0
     60008 WT20     838      MECN     N3       NG1T1   -0.460000       14.0070           0
     60009 WT20     842      MECN     C1       CG331   -0.170000       12.0110           0
     60010 WT20     842      MECN     H11      HGA3     0.090000        1.0080           0
     60011 WT20     842      MECN     H12      HGA3     0.090000        1.0080           0
     60012 WT20     842      MECN     H13      HGA3     0.090000        1.0080           0
     60013 WT20     842      MECN     C2       CG1N1    0.360000       12.0110           0
     60014 WT20     842      MECN     N3       NG1T1   -0.460000       14.0070           0
     60015 WT20     844      MECN     C1       CG331   -0.170000       12.0110           0
     60016 WT20     844      MECN     H11      HGA3     0.090000        1.0080           0
     60017 WT20     844      MECN     H12      HGA3     0.090000        1.0080           0
     60018 WT20     844      MECN     H13      HGA3     0.090000        1.0080           0
     60019 WT20     844      MECN     C2       CG1N1    0.360000       12.0110           0
     60020 WT20     844      MECN     N3       NG1T1   -0.460000       14.0070           0
     60021 WT20     849      MECN     C1       CG331   -0.170000       12.0110           0
     60022 WT20     849      MECN     H11      HGA3     0.090000        1.0080           0
     60023 WT20     849      MECN     H12      HGA3     0.090000        1.0080           0
     60024 WT20     849      MECN     H13      HGA3     0.090000        1.0080           0
     60025 WT20     849      MECN     C2       CG1N1    0.360000       12.0110           0
     60026 WT20     849      MECN     N3       NG1T1   -0.460000       14.0070           0
     60027 WT20     850      MECN     C1       CG331   -0.170000       12.0110           0
     60028 WT20     850      MECN     H11      HGA3     0.090000        1.0080           0
     60029 WT20     850      MECN     H12      HGA3     0.090000        1.0080           0
     60030 WT20     850      MECN     H13      HGA3     0.090000        1.0080           0
     60031 WT20     850      MECN     C2       CG1N1    0.360000       12.0110           0
     60032 WT20     850      MECN     N3       NG1T1   -0.460000       14.0070           0
     60033 WT20     851      MECN     C1       CG331   -0.170000       12.0110           0
     60034 WT20     851      MECN     H11      HGA3     0.090000        1.0080           0
     60035 WT20     851      MECN     H12      HGA3     0.090000        1.0080           0
     60036 WT20     851      MECN     H13      HGA3     0.090000        1.0080           0
     60037 WT20     851      MECN     C2       CG1N1    0.360000       12.0110           0
     60038 WT20     851      MECN     N3       NG1T1   -0.460000       14.0070           0
     60039 WT20     859      MECN     C1       CG331   -0.170000       12.0110           0
     60040 WT20     859      MECN     H11      HGA3     0.090000        1.0080           0
     60041 WT20     859      MECN     H12      HGA3     0.090000        1.0080           0
     60042 WT20     859      MECN     H13      HGA3     0.090000        1.0080           0
     60043 WT20     859      MECN     C2       CG1N1    0.360000       12.0110           0
     60044 WT20     859      MECN     N3       NG1T1   -0.460000       14.0070           0
     60045 WT20     860      MECN     C1       CG331   -0.170000       12.0110           0
     60046 WT20     860      MECN     H11      HGA3     0.090000        1.0080           0
     60047 WT20     860      MECN     H12      HGA3     0.090000        1.0080           0
     60048 WT20     860      MECN     H13      HGA3     0.090000        1.0080           0
     60049 WT20     860      MECN     C2       CG1N1    0.360000       12.0110           0
     60050 WT20     860      MECN     N3       NG1T1   -0.460000       14.0070           0
     60051 WT20     861      MECN     C1       CG331   -0.170000       12.0110           0
     60052 WT20     861      MECN     H11      HGA3     0.090000        1.0080           0
     60053 WT20     861      MECN     H12      HGA3     0.090000        1.0080           0
     60054 WT20     861      MECN     H13      HGA3     0.090000        1.0080           0
     60055 WT20     861      MECN     C2       CG1N1    0.360000       12.0110           0
     60056 WT20     861      MECN     N3       NG1T1   -0.460000       14.0070           0
     60057 WT20     864      MECN     C1       CG331   -0.170000       12.0110           0
     60058 WT20     864      MECN     H11      HGA3     0.090000        1.0080           0
     60059 WT20     864      MECN     H12      HGA3     0.090000        1.0080           0
     60060 WT20     864      MECN     H13      HGA3     0.090000        1.0080           0
     60061 WT20     864      MECN     C2       CG1N1    0.360000       12.0110           0
     60062 WT20     864      MECN     N3       NG1T1   -0.460000       14.0070           0
     60063 WT20     868      MECN     C1       CG331   -0.170000       12.0110           0
     60064 WT20     868      MECN     H11      HGA3     0.090000        1.0080           0
     60065 WT20     868      MECN     H12      HGA3     0.090000        1.0080           0
     60066 WT20     868      MECN     H13      HGA3     0.090000        1.0080           0
     60067 WT20     868      MECN     C2       CG1N1    0.360000       12.0110           0
     60068 WT20     868      MECN     N3       NG1T1   -0.460000       14.0070           0
     60069 WT20     871      MECN     C1       CG331   -0.170000       12.0110           0
     60070 WT20     871      MECN     H11      HGA3     0.090000        1.0080           0
     60071 WT20     871      MECN     H12      HGA3     0.090000        1.0080           0
     60072 WT20     871      MECN     H13      HGA3     0.090000        1.0080           0
     60073 WT20     871      MECN     C2       CG1N1    0.360000       12.0110           0
     60074 WT20     871      MECN     N3       NG1T1   -0.460000       14.0070           0
     60075 WT20     875      MECN     C1       CG331   -0.170000       12.0110           0
     60076 WT20     875      MECN     H11      HGA3     0.090000        1.0080           0
     60077 WT20     875      MECN     H12      HGA3     0.090000        1.0080           0
     60078 WT20     875      MECN     H13      HGA3     0.090000        1.0080           0
     60079 WT20     875      MECN     C2       CG1N1    0.360000       12.0110           0
     60080 WT20     875      MECN     N3       NG1T1   -0.460000       14.0070           0
     60081 WT20     879      MECN     C1       CG331   -0.170000       12.0110           0
     60082 WT20     879      MECN     H11      HGA3     0.090000        1.0080           0
     60083 WT20     879      MECN     H12      HGA3     0.090000        1.0080           0
     60084 WT20     879      MECN     H13      HGA3     0.090000        1.0080           0
     60085 WT20     879      MECN     C2       CG1N1    0.360000       12.0110           0
     60086 WT20     879      MECN     N3       NG1T1   -0.460000       14.0070           0
     60087 WT20     880      MECN     C1       CG331   -0.170000       12.0110           0
     60088 WT20     880      MECN     H11      HGA3     0.090000        1.0080           0
     60089 WT20     880      MECN     H12      HGA3     0.090000        1.0080           0
     60090 WT20     880      MECN     H13      HGA3     0.090000        1.0080           0
     60091 WT20     880      MECN     C2       CG1N1    0.360000       12.0110           0
     60092 WT20     880      MECN     N3       NG1T1   -0.460000       14.0070           0
     60093 WT20     883      MECN     C1       CG331   -0.170000       12.0110           0
     60094 WT20     883      MECN     H11      HGA3     0.090000        1.0080           0
     60095 WT20     883      MECN     H12      HGA3     0.090000        1.0080           0
     60096 WT20     883      MECN     H13      HGA3     0.090000        1.0080           0
     60097 WT20     883      MECN     C2       CG1N1    0.360000       12.0110           0
     60098 WT20     883      MECN     N3       NG1T1   -0.460000       14.0070           0
     60099 WT20     887      MECN     C1       CG331   -0.170000       12.0110           0
     60100 WT20     887      MECN     H11      HGA3     0.090000        1.0080           0
     60101 WT20     887      MECN     H12      HGA3     0.090000        1.0080           0
     60102 WT20     887      MECN     H13      HGA3     0.090000        1.0080           0
     60103 WT20     887      MECN     C2       CG1N1    0.360000       12.0110           0
     60104 WT20     887      MECN     N3       NG1T1   -0.460000       14.0070           0
     60105 WT20     889      MECN     C1       CG331   -0.170000       12.0110           0
     60106 WT20     889      MECN     H11      HGA3     0.090000        1.0080           0
     60107 WT20     889      MECN     H12      HGA3     0.090000        1.0080           0
     60108 WT20     889      MECN     H13      HGA3     0.090000        1.0080           0
     60109 WT20     889      MECN     C2       CG1N1    0.360000       12.0110           0
     60110 WT20     889      MECN     N3       NG1T1   -0.460000       14.0070           0
     60111 WT20     891      MECN     C1       CG331   -0.170000       12.0110           0
     60112 WT20     891      MECN     H11      HGA3     0.090000        1.0080           0
     60113 WT20     891      MECN     H12      HGA3     0.090000        1.0080           0
     60114 WT20     891      MECN     H13      HGA3     0.090000        1.0080           0
     60115 WT20     891      MECN     C2       CG1N1    0.360000       12.0110           0
     60116 WT20     891      MECN     N3       NG1T1   -0.460000       14.0070           0
     60117 WT20     893      MECN     C1       CG331   -0.170000       12.0110           0
     60118 WT20     893      MECN     H11      HGA3     0.090000        1.0080           0
     60119 WT20     893      MECN     H12      HGA3     0.090000        1.0080           0
     60120 WT20     893      MECN     H13      HGA3     0.090000        1.0080           0
     60121 WT20     893      MECN     C2       CG1N1    0.360000       12.0110           0
     60122 WT20     893      MECN     N3       NG1T1   -0.460000       14.0070           0
     60123 WT20     894      MECN     C1       CG331   -0.170000       12.0110           0
     60124 WT20     894      MECN     H11      HGA3     0.090000        1.0080           0
     60125 WT20     894      MECN     H12      HGA3     0.090000        1.0080           0
     60126 WT20     894      MECN     H13      HGA3     0.090000        1.0080           0
     60127 WT20     894      MECN     C2       CG1N1    0.360000       12.0110           0
     60128 WT20     894      MECN     N3       NG1T1   -0.460000       14.0070           0
     60129 WT20     896      MECN     C1       CG331   -0.170000       12.0110           0
     60130 WT20     896      MECN     H11      HGA3     0.090000        1.0080           0
     60131 WT20     896      MECN     H12      HGA3     0.090000        1.0080           0
     60132 WT20     896      MECN     H13      HGA3     0.090000        1.0080           0
     60133 WT20     896      MECN     C2       CG1N1    0.360000       12.0110           0
     60134 WT20     896      MECN     N3       NG1T1   -0.460000       14.0070           0
     60135 WT20     901      MECN     C1       CG331   -0.170000       12.0110           0
     60136 WT20     901      MECN     H11      HGA3     0.090000        1.0080           0
     60137 WT20     901      MECN     H12      HGA3     0.090000        1.0080           0
     60138 WT20     901      MECN     H13      HGA3     0.090000        1.0080           0
     60139 WT20     901      MECN     C2       CG1N1    0.360000       12.0110           0
     60140 WT20     901      MECN     N3       NG1T1   -0.460000       14.0070           0
     60141 WT20     904      MECN     C1       CG331   -0.170000       12.0110           0
     60142 WT20     904      MECN     H11      HGA3     0.090000        1.0080           0
     60143 WT20     904      MECN     H12      HGA3     0.090000        1.0080           0
     60144 WT20     904      MECN     H13      HGA3     0.090000        1.0080           0
     60145 WT20     904      MECN     C2       CG1N1    0.360000       12.0110           0
     60146 WT20     904      MECN     N3       NG1T1   -0.460000       14.0070           0
     60147 WT20     906      MECN     C1       CG331   -0.170000       12.0110           0
     60148 WT20     906      MECN     H11      HGA3     0.090000        1.0080           0
     60149 WT20     906      MECN     H12      HGA3     0.090000        1.0080           0
     60150 WT20     906      MECN     H13      HGA3     0.090000        1.0080           0
     60151 WT20     906      MECN     C2       CG1N1    0.360000       12.0110           0
     60152 WT20     906      MECN     N3       NG1T1   -0.460000       14.0070           0
     60153 WT20     907      MECN     C1       CG331   -0.170000       12.0110           0
     60154 WT20     907      MECN     H11      HGA3     0.090000        1.0080           0
     60155 WT20     907      MECN     H12      HGA3     0.090000        1.0080           0
     60156 WT20     907      MECN     H13      HGA3     0.090000        1.0080           0
     60157 WT20     907      MECN     C2       CG1N1    0.360000       12.0110           0
     60158 WT20     907      MECN     N3       NG1T1   -0.460000       14.0070           0
     60159 WT20     912      MECN     C1       CG331   -0.170000       12.0110           0
     60160 WT20     912      MECN     H11      HGA3     0.090000        1.0080           0
     60161 WT20     912      MECN     H12      HGA3     0.090000        1.0080           0
     60162 WT20     912      MECN     H13      HGA3     0.090000        1.0080           0
     60163 WT20     912      MECN     C2       CG1N1    0.360000       12.0110           0
     60164 WT20     912      MECN     N3       NG1T1   -0.460000       14.0070           0
     60165 WT20     914      MECN     C1       CG331   -0.170000       12.0110           0
     60166 WT20     914      MECN     H11      HGA3     0.090000        1.0080           0
     60167 WT20     914      MECN     H12      HGA3     0.090000        1.0080           0
     60168 WT20     914      MECN     H13      HGA3     0.090000        1.0080           0
     60169 WT20     914      MECN     C2       CG1N1    0.360000       12.0110           0
     60170 WT20     914      MECN     N3       NG1T1   -0.460000       14.0070           0
     60171 WT20     915      MECN     C1       CG331   -0.170000       12.0110           0
     60172 WT20     915      MECN     H11      HGA3     0.090000        1.0080           0
     60173 WT20     915      MECN     H12      HGA3     0.090000        1.0080           0
     60174 WT20     915      MECN     H13      HGA3     0.090000        1.0080           0
     60175 WT20     915      MECN     C2       CG1N1    0.360000       12.0110           0
     60176 WT20     915      MECN     N3       NG1T1   -0.460000       14.0070           0
     60177 WT20     918      MECN     C1       CG331   -0.170000       12.0110           0
     60178 WT20     918      MECN     H11      HGA3     0.090000        1.0080           0
     60179 WT20     918      MECN     H12      HGA3     0.090000        1.0080           0
     60180 WT20     918      MECN     H13      HGA3     0.090000        1.0080           0
     60181 WT20     918      MECN     C2       CG1N1    0.360000       12.0110           0
     60182 WT20     918      MECN     N3       NG1T1   -0.460000       14.0070           0
     60183 WT20     920      MECN     C1       CG331   -0.170000       12.0110           0
     60184 WT20     920      MECN     H11      HGA3     0.090000        1.0080           0
     60185 WT20     920      MECN     H12      HGA3     0.090000        1.0080           0
     60186 WT20     920      MECN     H13      HGA3     0.090000        1.0080           0
     60187 WT20     920      MECN     C2       CG1N1    0.360000       12.0110           0
     60188 WT20     920      MECN     N3       NG1T1   -0.460000       14.0070           0
     60189 WT20     924      MECN     C1       CG331   -0.170000       12.0110           0
     60190 WT20     924      MECN     H11      HGA3     0.090000        1.0080           0
     60191 WT20     924      MECN     H12      HGA3     0.090000        1.0080           0
     60192 WT20     924      MECN     H13      HGA3     0.090000        1.0080           0
     60193 WT20     924      MECN     C2       CG1N1    0.360000       12.0110           0
     60194 WT20     924      MECN     N3       NG1T1   -0.460000       14.0070           0
     60195 WT20     925      MECN     C1       CG331   -0.170000       12.0110           0
     60196 WT20     925      MECN     H11      HGA3     0.090000        1.0080           0
     60197 WT20     925      MECN     H12      HGA3     0.090000        1.0080           0
     60198 WT20     925      MECN     H13      HGA3     0.090000        1.0080           0
     60199 WT20     925      MECN     C2       CG1N1    0.360000       12.0110           0
     60200 WT20     925      MECN     N3       NG1T1   -0.460000       14.0070           0
     60201 WT20     926      MECN     C1       CG331   -0.170000       12.0110           0
     60202 WT20     926      MECN     H11      HGA3     0.090000        1.0080           0
     60203 WT20     926      MECN     H12      HGA3     0.090000        1.0080           0
     60204 WT20     926      MECN     H13      HGA3     0.090000        1.0080           0
     60205 WT20     926      MECN     C2       CG1N1    0.360000       12.0110           0
     60206 WT20     926      MECN     N3       NG1T1   -0.460000       14.0070           0
     60207 WT20     933      MECN     C1       CG331   -0.170000       12.0110           0
     60208 WT20     933      MECN     H11      HGA3     0.090000        1.0080           0
     60209 WT20     933      MECN     H12      HGA3     0.090000        1.0080           0
     60210 WT20     933      MECN     H13      HGA3     0.090000        1.0080           0
     60211 WT20     933      MECN     C2       CG1N1    0.360000       12.0110           0
     60212 WT20     933      MECN     N3       NG1T1   -0.460000       14.0070           0
     60213 WT20     934      MECN     C1       CG331   -0.170000       12.0110           0
     60214 WT20     934      MECN     H11      HGA3     0.090000        1.0080           0
     60215 WT20     934      MECN     H12      HGA3     0.090000        1.0080           0
     60216 WT20     934      MECN     H13      HGA3     0.090000        1.0080           0
     60217 WT20     934      MECN     C2       CG1N1    0.360000       12.0110           0
     60218 WT20     934      MECN     N3       NG1T1   -0.460000       14.0070           0
     60219 WT20     939      MECN     C1       CG331   -0.170000       12.0110           0
     60220 WT20     939      MECN     H11      HGA3     0.090000        1.0080           0
     60221 WT20     939      MECN     H12      HGA3     0.090000        1.0080           0
     60222 WT20     939      MECN     H13      HGA3     0.090000        1.0080           0
     60223 WT20     939      MECN     C2       CG1N1    0.360000       12.0110           0
     60224 WT20     939      MECN     N3       NG1T1   -0.460000       14.0070           0
     60225 WT20     940      MECN     C1       CG331   -0.170000       12.0110           0
     60226 WT20     940      MECN     H11      HGA3     0.090000        1.0080           0
     60227 WT20     940      MECN     H12      HGA3     0.090000        1.0080           0
     60228 WT20     940      MECN     H13      HGA3     0.090000        1.0080           0
     60229 WT20     940      MECN     C2       CG1N1    0.360000       12.0110           0
     60230 WT20     940      MECN     N3       NG1T1   -0.460000       14.0070           0
     60231 WT20     959      MECN     C1       CG331   -0.170000       12.0110           0
     60232 WT20     959      MECN     H11      HGA3     0.090000        1.0080           0
     60233 WT20     959      MECN     H12      HGA3     0.090000        1.0080           0
     60234 WT20     959      MECN     H13      HGA3     0.090000        1.0080           0
     60235 WT20     959      MECN     C2       CG1N1    0.360000       12.0110           0
     60236 WT20     959      MECN     N3       NG1T1   -0.460000       14.0070           0
     60237 WT20     971      MECN     C1       CG331   -0.170000       12.0110           0
     60238 WT20     971      MECN     H11      HGA3     0.090000        1.0080           0
     60239 WT20     971      MECN     H12      HGA3     0.090000        1.0080           0
     60240 WT20     971      MECN     H13      HGA3     0.090000        1.0080           0
     60241 WT20     971      MECN     C2       CG1N1    0.360000       12.0110           0
     60242 WT20     971      MECN     N3       NG1T1   -0.460000       14.0070           0
     60243 WT20     973      MECN     C1       CG331   -0.170000       12.0110           0
     60244 WT20     973      MECN     H11      HGA3     0.090000        1.0080           0
     60245 WT20     973      MECN     H12      HGA3     0.090000        1.0080           0
     60246 WT20     973      MECN     H13      HGA3     0.090000        1.0080           0
     60247 WT20     973      MECN     C2       CG1N1    0.360000       12.0110           0
     60248 WT20     973      MECN     N3       NG1T1   -0.460000       14.0070           0
     60249 WT20     976      MECN     C1       CG331   -0.170000       12.0110           0
     60250 WT20     976      MECN     H11      HGA3     0.090000        1.0080           0
     60251 WT20     976      MECN     H12      HGA3     0.090000        1.0080           0
     60252 WT20     976      MECN     H13      HGA3     0.090000        1.0080           0
     60253 WT20     976      MECN     C2       CG1N1    0.360000       12.0110           0
     60254 WT20     976      MECN     N3       NG1T1   -0.460000       14.0070           0
     60255 WT20     977      MECN     C1       CG331   -0.170000       12.0110           0
     60256 WT20     977      MECN     H11      HGA3     0.090000        1.0080           0
     60257 WT20     977      MECN     H12      HGA3     0.090000        1.0080           0
     60258 WT20     977      MECN     H13      HGA3     0.090000        1.0080           0
     60259 WT20     977      MECN     C2       CG1N1    0.360000       12.0110           0
     60260 WT20     977      MECN     N3       NG1T1   -0.460000       14.0070           0
     60261 WT20     979      MECN     C1       CG331   -0.170000       12.0110           0
     60262 WT20     979      MECN     H11      HGA3     0.090000        1.0080           0
     60263 WT20     979      MECN     H12      HGA3     0.090000        1.0080           0
     60264 WT20     979      MECN     H13      HGA3     0.090000        1.0080           0
     60265 WT20     979      MECN     C2       CG1N1    0.360000       12.0110           0
     60266 WT20     979      MECN     N3       NG1T1   -0.460000       14.0070           0
     60267 WT20     983      MECN     C1       CG331   -0.170000       12.0110           0
     60268 WT20     983      MECN     H11      HGA3     0.090000        1.0080           0
     60269 WT20     983      MECN     H12      HGA3     0.090000        1.0080           0
     60270 WT20     983      MECN     H13      HGA3     0.090000        1.0080           0
     60271 WT20     983      MECN     C2       CG1N1    0.360000       12.0110           0
     60272 WT20     983      MECN     N3       NG1T1   -0.460000       14.0070           0
     60273 WT20     986      MECN     C1       CG331   -0.170000       12.0110           0
     60274 WT20     986      MECN     H11      HGA3     0.090000        1.0080           0
     60275 WT20     986      MECN     H12      HGA3     0.090000        1.0080           0
     60276 WT20     986      MECN     H13      HGA3     0.090000        1.0080           0
     60277 WT20     986      MECN     C2       CG1N1    0.360000       12.0110           0
     60278 WT20     986      MECN     N3       NG1T1   -0.460000       14.0070           0
     60279 WT20     992      MECN     C1       CG331   -0.170000       12.0110           0
     60280 WT20     992      MECN     H11      HGA3     0.090000        1.0080           0
     60281 WT20     992      MECN     H12      HGA3     0.090000        1.0080           0
     60282 WT20     992      MECN     H13      HGA3     0.090000        1.0080           0
     60283 WT20     992      MECN     C2       CG1N1    0.360000       12.0110           0
     60284 WT20     992      MECN     N3       NG1T1   -0.460000       14.0070           0
     60285 WT20     1000     MECN     C1       CG331   -0.170000       12.0110           0
     60286 WT20     1000     MECN     H11      HGA3     0.090000        1.0080           0
     60287 WT20     1000     MECN     H12      HGA3     0.090000        1.0080           0
     60288 WT20     1000     MECN     H13      HGA3     0.090000        1.0080           0
     60289 WT20     1000     MECN     C2       CG1N1    0.360000       12.0110           0
     60290 WT20     1000     MECN     N3       NG1T1   -0.460000       14.0070           0
     60291 WT20     1002     MECN     C1       CG331   -0.170000       12.0110           0
     60292 WT20     1002     MECN     H11      HGA3     0.090000        1.0080           0
     60293 WT20     1002     MECN     H12      HGA3     0.090000        1.0080           0
     60294 WT20     1002     MECN     H13      HGA3     0.090000        1.0080           0
     60295 WT20     1002     MECN     C2       CG1N1    0.360000       12.0110           0
     60296 WT20     1002     MECN     N3       NG1T1   -0.460000       14.0070           0
     60297 WT20     1003     MECN     C1       CG331   -0.170000       12.0110           0
     60298 WT20     1003     MECN     H11      HGA3     0.090000        1.0080           0
     60299 WT20     1003     MECN     H12      HGA3     0.090000        1.0080           0
     60300 WT20     1003     MECN     H13      HGA3     0.090000        1.0080           0
     60301 WT20     1003     MECN     C2       CG1N1    0.360000       12.0110           0
     60302 WT20     1003     MECN     N3       NG1T1   -0.460000       14.0070           0
     60303 WT20     1005     MECN     C1       CG331   -0.170000       12.0110           0
     60304 WT20     1005     MECN     H11      HGA3     0.090000        1.0080           0
     60305 WT20     1005     MECN     H12      HGA3     0.090000        1.0080           0
     60306 WT20     1005     MECN     H13      HGA3     0.090000        1.0080           0
     60307 WT20     1005     MECN     C2       CG1N1    0.360000       12.0110           0
     60308 WT20     1005     MECN     N3       NG1T1   -0.460000       14.0070           0
     60309 WT20     1017     MECN     C1       CG331   -0.170000       12.0110           0
     60310 WT20     1017     MECN     H11      HGA3     0.090000        1.0080           0
     60311 WT20     1017     MECN     H12      HGA3     0.090000        1.0080           0
     60312 WT20     1017     MECN     H13      HGA3     0.090000        1.0080           0
     60313 WT20     1017     MECN     C2       CG1N1    0.360000       12.0110           0
     60314 WT20     1017     MECN     N3       NG1T1   -0.460000       14.0070           0
     60315 WT20     1021     MECN     C1       CG331   -0.170000       12.0110           0
     60316 WT20     1021     MECN     H11      HGA3     0.090000        1.0080           0
     60317 WT20     1021     MECN     H12      HGA3     0.090000        1.0080           0
     60318 WT20     1021     MECN     H13      HGA3     0.090000        1.0080           0
     60319 WT20     1021     MECN     C2       CG1N1    0.360000       12.0110           0
     60320 WT20     1021     MECN     N3       NG1T1   -0.460000       14.0070           0
     60321 WT20     1028     MECN     C1       CG331   -0.170000       12.0110           0
     60322 WT20     1028     MECN     H11      HGA3     0.090000        1.0080           0
     60323 WT20     1028     MECN     H12      HGA3     0.090000        1.0080           0
     60324 WT20     1028     MECN     H13      HGA3     0.090000        1.0080           0
     60325 WT20     1028     MECN     C2       CG1N1    0.360000       12.0110           0
     60326 WT20     1028     MECN     N3       NG1T1   -0.460000       14.0070           0
     60327 WT20     1029     MECN     C1       CG331   -0.170000       12.0110           0
     60328 WT20     1029     MECN     H11      HGA3     0.090000        1.0080           0
     60329 WT20     1029     MECN     H12      HGA3     0.090000        1.0080           0
     60330 WT20     1029     MECN     H13      HGA3     0.090000        1.0080           0
     60331 WT20     1029     MECN     C2       CG1N1    0.360000       12.0110           0
     60332 WT20     1029     MECN     N3       NG1T1   -0.460000       14.0070           0
     60333 WT20     1030     MECN     C1       CG331   -0.170000       12.0110           0
     60334 WT20     1030     MECN     H11      HGA3     0.090000        1.0080           0
     60335 WT20     1030     MECN     H12      HGA3     0.090000        1.0080           0
     60336 WT20     1030     MECN     H13      HGA3     0.090000        1.0080           0
     60337 WT20     1030     MECN     C2       CG1N1    0.360000       12.0110           0
     60338 WT20     1030     MECN     N3       NG1T1   -0.460000       14.0070           0
     60339 WT20     1040     MECN     C1       CG331   -0.170000       12.0110           0
     60340 WT20     1040     MECN     H11      HGA3     0.090000        1.0080           0
     60341 WT20     1040     MECN     H12      HGA3     0.090000        1.0080           0
     60342 WT20     1040     MECN     H13      HGA3     0.090000        1.0080           0
     60343 WT20     1040     MECN     C2       CG1N1    0.360000       12.0110           0
     60344 WT20     1040     MECN     N3       NG1T1   -0.460000       14.0070           0
     60345 WT20     1042     MECN     C1       CG331   -0.170000       12.0110           0
     60346 WT20     1042     MECN     H11      HGA3     0.090000        1.0080           0
     60347 WT20     1042     MECN     H12      HGA3     0.090000        1.0080           0
     60348 WT20     1042     MECN     H13      HGA3     0.090000        1.0080           0
     60349 WT20     1042     MECN     C2       CG1N1    0.360000       12.0110           0
     60350 WT20     1042     MECN     N3       NG1T1   -0.460000       14.0070           0
     60351 WT20     1043     MECN     C1       CG331   -0.170000       12.0110           0
     60352 WT20     1043     MECN     H11      HGA3     0.090000        1.0080           0
     60353 WT20     1043     MECN     H12      HGA3     0.090000        1.0080           0
     60354 WT20     1043     MECN     H13      HGA3     0.090000        1.0080           0
     60355 WT20     1043     MECN     C2       CG1N1    0.360000       12.0110           0
     60356 WT20     1043     MECN     N3       NG1T1   -0.460000       14.0070           0
     60357 WT20     1049     MECN     C1       CG331   -0.170000       12.0110           0
     60358 WT20     1049     MECN     H11      HGA3     0.090000        1.0080           0
     60359 WT20     1049     MECN     H12      HGA3     0.090000        1.0080           0
     60360 WT20     1049     MECN     H13      HGA3     0.090000        1.0080           0
     60361 WT20     1049     MECN     C2       CG1N1    0.360000       12.0110           0
     60362 WT20     1049     MECN     N3       NG1T1   -0.460000       14.0070           0
     60363 WT20     1052     MECN     C1       CG331   -0.170000       12.0110           0
     60364 WT20     1052     MECN     H11      HGA3     0.090000        1.0080           0
     60365 WT20     1052     MECN     H12      HGA3     0.090000        1.0080           0
     60366 WT20     1052     MECN     H13      HGA3     0.090000        1.0080           0
     60367 WT20     1052     MECN     C2       CG1N1    0.360000       12.0110           0
     60368 WT20     1052     MECN     N3       NG1T1   -0.460000       14.0070           0
     60369 WT20     1070     MECN     C1       CG331   -0.170000       12.0110           0
     60370 WT20     1070     MECN     H11      HGA3     0.090000        1.0080           0
     60371 WT20     1070     MECN     H12      HGA3     0.090000        1.0080           0
     60372 WT20     1070     MECN     H13      HGA3     0.090000        1.0080           0
     60373 WT20     1070     MECN     C2       CG1N1    0.360000       12.0110           0
     60374 WT20     1070     MECN     N3       NG1T1   -0.460000       14.0070           0
     60375 WT20     1083     MECN     C1       CG331   -0.170000       12.0110           0
     60376 WT20     1083     MECN     H11      HGA3     0.090000        1.0080           0
     60377 WT20     1083     MECN     H12      HGA3     0.090000        1.0080           0
     60378 WT20     1083     MECN     H13      HGA3     0.090000        1.0080           0
     60379 WT20     1083     MECN     C2       CG1N1    0.360000       12.0110           0
     60380 WT20     1083     MECN     N3       NG1T1   -0.460000       14.0070           0
     60381 WT20     1087     MECN     C1       CG331   -0.170000       12.0110           0
     60382 WT20     1087     MECN     H11      HGA3     0.090000        1.0080           0
     60383 WT20     1087     MECN     H12      HGA3     0.090000        1.0080           0
     60384 WT20     1087     MECN     H13      HGA3     0.090000        1.0080           0
     60385 WT20     1087     MECN     C2       CG1N1    0.360000       12.0110           0
     60386 WT20     1087     MECN     N3       NG1T1   -0.460000       14.0070           0
     60387 WT20     1096     MECN     C1       CG331   -0.170000       12.0110           0
     60388 WT20     1096     MECN     H11      HGA3     0.090000        1.0080           0
     60389 WT20     1096     MECN     H12      HGA3     0.090000        1.0080           0
     60390 WT20     1096     MECN     H13      HGA3     0.090000        1.0080           0
     60391 WT20     1096     MECN     C2       CG1N1    0.360000       12.0110           0
     60392 WT20     1096     MECN     N3       NG1T1   -0.460000       14.0070           0
     60393 WT20     1099     MECN     C1       CG331   -0.170000       12.0110           0
     60394 WT20     1099     MECN     H11      HGA3     0.090000        1.0080           0
     60395 WT20     1099     MECN     H12      HGA3     0.090000        1.0080           0
     60396 WT20     1099     MECN     H13      HGA3     0.090000        1.0080           0
     60397 WT20     1099     MECN     C2       CG1N1    0.360000       12.0110           0
     60398 WT20     1099     MECN     N3       NG1T1   -0.460000       14.0070           0
     60399 WT20     1100     MECN     C1       CG331   -0.170000       12.0110           0
     60400 WT20     1100     MECN     H11      HGA3     0.090000        1.0080           0
     60401 WT20     1100     MECN     H12      HGA3     0.090000        1.0080           0
     60402 WT20     1100     MECN     H13      HGA3     0.090000        1.0080           0
     60403 WT20     1100     MECN     C2       CG1N1    0.360000       12.0110           0
     60404 WT20     1100     MECN     N3       NG1T1   -0.460000       14.0070           0
     60405 WT20     1101     MECN     C1       CG331   -0.170000       12.0110           0
     60406 WT20     1101     MECN     H11      HGA3     0.090000        1.0080           0
     60407 WT20     1101     MECN     H12      HGA3     0.090000        1.0080           0
     60408 WT20     1101     MECN     H13      HGA3     0.090000        1.0080           0
     60409 WT20     1101     MECN     C2       CG1N1    0.360000       12.0110           0
     60410 WT20     1101     MECN     N3       NG1T1   -0.460000       14.0070           0
     60411 WT20     1105     MECN     C1       CG331   -0.170000       12.0110           0
     60412 WT20     1105     MECN     H11      HGA3     0.090000        1.0080           0
     60413 WT20     1105     MECN     H12      HGA3     0.090000        1.0080           0
     60414 WT20     1105     MECN     H13      HGA3     0.090000        1.0080           0
     60415 WT20     1105     MECN     C2       CG1N1    0.360000       12.0110           0
     60416 WT20     1105     MECN     N3       NG1T1   -0.460000       14.0070           0
     60417 WT20     1110     MECN     C1       CG331   -0.170000       12.0110           0
     60418 WT20     1110     MECN     H11      HGA3     0.090000        1.0080           0
     60419 WT20     1110     MECN     H12      HGA3     0.090000        1.0080           0
     60420 WT20     1110     MECN     H13      HGA3     0.090000        1.0080           0
     60421 WT20     1110     MECN     C2       CG1N1    0.360000       12.0110           0
     60422 WT20     1110     MECN     N3       NG1T1   -0.460000       14.0070           0
     60423 WT20     1112     MECN     C1       CG331   -0.170000       12.0110           0
     60424 WT20     1112     MECN     H11      HGA3     0.090000        1.0080           0
     60425 WT20     1112     MECN     H12      HGA3     0.090000        1.0080           0
     60426 WT20     1112     MECN     H13      HGA3     0.090000        1.0080           0
     60427 WT20     1112     MECN     C2       CG1N1    0.360000       12.0110           0
     60428 WT20     1112     MECN     N3       NG1T1   -0.460000       14.0070           0
     60429 WT20     1127     MECN     C1       CG331   -0.170000       12.0110           0
     60430 WT20     1127     MECN     H11      HGA3     0.090000        1.0080           0
     60431 WT20     1127     MECN     H12      HGA3     0.090000        1.0080           0
     60432 WT20     1127     MECN     H13      HGA3     0.090000        1.0080           0
     60433 WT20     1127     MECN     C2       CG1N1    0.360000       12.0110           0
     60434 WT20     1127     MECN     N3       NG1T1   -0.460000       14.0070           0
     60435 WT20     1129     MECN     C1       CG331   -0.170000       12.0110           0
     60436 WT20     1129     MECN     H11      HGA3     0.090000        1.0080           0
     60437 WT20     1129     MECN     H12      HGA3     0.090000        1.0080           0
     60438 WT20     1129     MECN     H13      HGA3     0.090000        1.0080           0
     60439 WT20     1129     MECN     C2       CG1N1    0.360000       12.0110           0
     60440 WT20     1129     MECN     N3       NG1T1   -0.460000       14.0070           0
     60441 WT20     1130     MECN     C1       CG331   -0.170000       12.0110           0
     60442 WT20     1130     MECN     H11      HGA3     0.090000        1.0080           0
     60443 WT20     1130     MECN     H12      HGA3     0.090000        1.0080           0
     60444 WT20     1130     MECN     H13      HGA3     0.090000        1.0080           0
     60445 WT20     1130     MECN     C2       CG1N1    0.360000       12.0110           0
     60446 WT20     1130     MECN     N3       NG1T1   -0.460000       14.0070           0
     60447 WT20     1134     MECN     C1       CG331   -0.170000       12.0110           0
     60448 WT20     1134     MECN     H11      HGA3     0.090000        1.0080           0
     60449 WT20     1134     MECN     H12      HGA3     0.090000        1.0080           0
     60450 WT20     1134     MECN     H13      HGA3     0.090000        1.0080           0
     60451 WT20     1134     MECN     C2       CG1N1    0.360000       12.0110           0
     60452 WT20     1134     MECN     N3       NG1T1   -0.460000       14.0070           0
     60453 WT20     1138     MECN     C1       CG331   -0.170000       12.0110           0
     60454 WT20     1138     MECN     H11      HGA3     0.090000        1.0080           0
     60455 WT20     1138     MECN     H12      HGA3     0.090000        1.0080           0
     60456 WT20     1138     MECN     H13      HGA3     0.090000        1.0080           0
     60457 WT20     1138     MECN     C2       CG1N1    0.360000       12.0110           0
     60458 WT20     1138     MECN     N3       NG1T1   -0.460000       14.0070           0
     60459 WT20     1139     MECN     C1       CG331   -0.170000       12.0110           0
     60460 WT20     1139     MECN     H11      HGA3     0.090000        1.0080           0
     60461 WT20     1139     MECN     H12      HGA3     0.090000        1.0080           0
     60462 WT20     1139     MECN     H13      HGA3     0.090000        1.0080           0
     60463 WT20     1139     MECN     C2       CG1N1    0.360000       12.0110           0
     60464 WT20     1139     MECN     N3       NG1T1   -0.460000       14.0070           0
     60465 WT20     1140     MECN     C1       CG331   -0.170000       12.0110           0
     60466 WT20     1140     MECN     H11      HGA3     0.090000        1.0080           0
     60467 WT20     1140     MECN     H12      HGA3     0.090000        1.0080           0
     60468 WT20     1140     MECN     H13      HGA3     0.090000        1.0080           0
     60469 WT20     1140     MECN     C2       CG1N1    0.360000       12.0110           0
     60470 WT20     1140     MECN     N3       NG1T1   -0.460000       14.0070           0
     60471 WT20     1142     MECN     C1       CG331   -0.170000       12.0110           0
     60472 WT20     1142     MECN     H11      HGA3     0.090000        1.0080           0
     60473 WT20     1142     MECN     H12      HGA3     0.090000        1.0080           0
     60474 WT20     1142     MECN     H13      HGA3     0.090000        1.0080           0
     60475 WT20     1142     MECN     C2       CG1N1    0.360000       12.0110           0
     60476 WT20     1142     MECN     N3       NG1T1   -0.460000       14.0070           0
     60477 WT20     1143     MECN     C1       CG331   -0.170000       12.0110           0
     60478 WT20     1143     MECN     H11      HGA3     0.090000        1.0080           0
     60479 WT20     1143     MECN     H12      HGA3     0.090000        1.0080           0
     60480 WT20     1143     MECN     H13      HGA3     0.090000        1.0080           0
     60481 WT20     1143     MECN     C2       CG1N1    0.360000       12.0110           0
     60482 WT20     1143     MECN     N3       NG1T1   -0.460000       14.0070           0
     60483 WT20     1157     MECN     C1       CG331   -0.170000       12.0110           0
     60484 WT20     1157     MECN     H11      HGA3     0.090000        1.0080           0
     60485 WT20     1157     MECN     H12      HGA3     0.090000        1.0080           0
     60486 WT20     1157     MECN     H13      HGA3     0.090000        1.0080           0
     60487 WT20     1157     MECN     C2       CG1N1    0.360000       12.0110           0
     60488 WT20     1157     MECN     N3       NG1T1   -0.460000       14.0070           0
     60489 WT20     1164     MECN     C1       CG331   -0.170000       12.0110           0
     60490 WT20     1164     MECN     H11      HGA3     0.090000        1.0080           0
     60491 WT20     1164     MECN     H12      HGA3     0.090000        1.0080           0
     60492 WT20     1164     MECN     H13      HGA3     0.090000        1.0080           0
     60493 WT20     1164     MECN     C2       CG1N1    0.360000       12.0110           0
     60494 WT20     1164     MECN     N3       NG1T1   -0.460000       14.0070           0
     60495 WT20     1165     MECN     C1       CG331   -0.170000       12.0110           0
     60496 WT20     1165     MECN     H11      HGA3     0.090000        1.0080           0
     60497 WT20     1165     MECN     H12      HGA3     0.090000        1.0080           0
     60498 WT20     1165     MECN     H13      HGA3     0.090000        1.0080           0
     60499 WT20     1165     MECN     C2       CG1N1    0.360000       12.0110           0
     60500 WT20     1165     MECN     N3       NG1T1   -0.460000       14.0070           0
     60501 WT20     1166     MECN     C1       CG331   -0.170000       12.0110           0
     60502 WT20     1166     MECN     H11      HGA3     0.090000        1.0080           0
     60503 WT20     1166     MECN     H12      HGA3     0.090000        1.0080           0
     60504 WT20     1166     MECN     H13      HGA3     0.090000        1.0080           0
     60505 WT20     1166     MECN     C2       CG1N1    0.360000       12.0110           0
     60506 WT20     1166     MECN     N3       NG1T1   -0.460000       14.0070           0
     60507 WT20     1167     MECN     C1       CG331   -0.170000       12.0110           0
     60508 WT20     1167     MECN     H11      HGA3     0.090000        1.0080           0
     60509 WT20     1167     MECN     H12      HGA3     0.090000        1.0080           0
     60510 WT20     1167     MECN     H13      HGA3     0.090000        1.0080           0
     60511 WT20     1167     MECN     C2       CG1N1    0.360000       12.0110           0
     60512 WT20     1167     MECN     N3       NG1T1   -0.460000       14.0070           0
     60513 WT20     1172     MECN     C1       CG331   -0.170000       12.0110           0
     60514 WT20     1172     MECN     H11      HGA3     0.090000        1.0080           0
     60515 WT20     1172     MECN     H12      HGA3     0.090000        1.0080           0
     60516 WT20     1172     MECN     H13      HGA3     0.090000        1.0080           0
     60517 WT20     1172     MECN     C2       CG1N1    0.360000       12.0110           0
     60518 WT20     1172     MECN     N3       NG1T1   -0.460000       14.0070           0
     60519 WT20     1173     MECN     C1       CG331   -0.170000       12.0110           0
     60520 WT20     1173     MECN     H11      HGA3     0.090000        1.0080           0
     60521 WT20     1173     MECN     H12      HGA3     0.090000        1.0080           0
     60522 WT20     1173     MECN     H13      HGA3     0.090000        1.0080           0
     60523 WT20     1173     MECN     C2       CG1N1    0.360000       12.0110           0
     60524 WT20     1173     MECN     N3       NG1T1   -0.460000       14.0070           0
     60525 WT20     1174     MECN     C1       CG331   -0.170000       12.0110           0
     60526 WT20     1174     MECN     H11      HGA3     0.090000        1.0080           0
     60527 WT20     1174     MECN     H12      HGA3     0.090000        1.0080           0
     60528 WT20     1174     MECN     H13      HGA3     0.090000        1.0080           0
     60529 WT20     1174     MECN     C2       CG1N1    0.360000       12.0110           0
     60530 WT20     1174     MECN     N3       NG1T1   -0.460000       14.0070           0
     60531 WT20     1180     MECN     C1       CG331   -0.170000       12.0110           0
     60532 WT20     1180     MECN     H11      HGA3     0.090000        1.0080           0
     60533 WT20     1180     MECN     H12      HGA3     0.090000        1.0080           0
     60534 WT20     1180     MECN     H13      HGA3     0.090000        1.0080           0
     60535 WT20     1180     MECN     C2       CG1N1    0.360000       12.0110           0
     60536 WT20     1180     MECN     N3       NG1T1   -0.460000       14.0070           0
     60537 WT20     1190     MECN     C1       CG331   -0.170000       12.0110           0
     60538 WT20     1190     MECN     H11      HGA3     0.090000        1.0080           0
     60539 WT20     1190     MECN     H12      HGA3     0.090000        1.0080           0
     60540 WT20     1190     MECN     H13      HGA3     0.090000        1.0080           0
     60541 WT20     1190     MECN     C2       CG1N1    0.360000       12.0110           0
     60542 WT20     1190     MECN     N3       NG1T1   -0.460000       14.0070           0
     60543 WT20     1191     MECN     C1       CG331   -0.170000       12.0110           0
     60544 WT20     1191     MECN     H11      HGA3     0.090000        1.0080           0
     60545 WT20     1191     MECN     H12      HGA3     0.090000        1.0080           0
     60546 WT20     1191     MECN     H13      HGA3     0.090000        1.0080           0
     60547 WT20     1191     MECN     C2       CG1N1    0.360000       12.0110           0
     60548 WT20     1191     MECN     N3       NG1T1   -0.460000       14.0070           0
     60549 WT20     1199     MECN     C1       CG331   -0.170000       12.0110           0
     60550 WT20     1199     MECN     H11      HGA3     0.090000        1.0080           0
     60551 WT20     1199     MECN     H12      HGA3     0.090000        1.0080           0
     60552 WT20     1199     MECN     H13      HGA3     0.090000        1.0080           0
     60553 WT20     1199     MECN     C2       CG1N1    0.360000       12.0110           0
     60554 WT20     1199     MECN     N3       NG1T1   -0.460000       14.0070           0
     60555 WT20     1202     MECN     C1       CG331   -0.170000       12.0110           0
     60556 WT20     1202     MECN     H11      HGA3     0.090000        1.0080           0
     60557 WT20     1202     MECN     H12      HGA3     0.090000        1.0080           0
     60558 WT20     1202     MECN     H13      HGA3     0.090000        1.0080           0
     60559 WT20     1202     MECN     C2       CG1N1    0.360000       12.0110           0
     60560 WT20     1202     MECN     N3       NG1T1   -0.460000       14.0070           0
     60561 WT20     1207     MECN     C1       CG331   -0.170000       12.0110           0
     60562 WT20     1207     MECN     H11      HGA3     0.090000        1.0080           0
     60563 WT20     1207     MECN     H12      HGA3     0.090000        1.0080           0
     60564 WT20     1207     MECN     H13      HGA3     0.090000        1.0080           0
     60565 WT20     1207     MECN     C2       CG1N1    0.360000       12.0110           0
     60566 WT20     1207     MECN     N3       NG1T1   -0.460000       14.0070           0
     60567 WT20     1212     MECN     C1       CG331   -0.170000       12.0110           0
     60568 WT20     1212     MECN     H11      HGA3     0.090000        1.0080           0
     60569 WT20     1212     MECN     H12      HGA3     0.090000        1.0080           0
     60570 WT20     1212     MECN     H13      HGA3     0.090000        1.0080           0
     60571 WT20     1212     MECN     C2       CG1N1    0.360000       12.0110           0
     60572 WT20     1212     MECN     N3       NG1T1   -0.460000       14.0070           0
     60573 WT20     1220     MECN     C1       CG331   -0.170000       12.0110           0
     60574 WT20     1220     MECN     H11      HGA3     0.090000        1.0080           0
     60575 WT20     1220     MECN     H12      HGA3     0.090000        1.0080           0
     60576 WT20     1220     MECN     H13      HGA3     0.090000        1.0080           0
     60577 WT20     1220     MECN     C2       CG1N1    0.360000       12.0110           0
     60578 WT20     1220     MECN     N3       NG1T1   -0.460000       14.0070           0
     60579 WT20     1223     MECN     C1       CG331   -0.170000       12.0110           0
     60580 WT20     1223     MECN     H11      HGA3     0.090000        1.0080           0
     60581 WT20     1223     MECN     H12      HGA3     0.090000        1.0080           0
     60582 WT20     1223     MECN     H13      HGA3     0.090000        1.0080           0
     60583 WT20     1223     MECN     C2       CG1N1    0.360000       12.0110           0
     60584 WT20     1223     MECN     N3       NG1T1   -0.460000       14.0070           0
     60585 WT20     1225     MECN     C1       CG331   -0.170000       12.0110           0
     60586 WT20     1225     MECN     H11      HGA3     0.090000        1.0080           0
     60587 WT20     1225     MECN     H12      HGA3     0.090000        1.0080           0
     60588 WT20     1225     MECN     H13      HGA3     0.090000        1.0080           0
     60589 WT20     1225     MECN     C2       CG1N1    0.360000       12.0110           0
     60590 WT20     1225     MECN     N3       NG1T1   -0.460000       14.0070           0
     60591 WT20     1226     MECN     C1       CG331   -0.170000       12.0110           0
     60592 WT20     1226     MECN     H11      HGA3     0.090000        1.0080           0
     60593 WT20     1226     MECN     H12      HGA3     0.090000        1.0080           0
     60594 WT20     1226     MECN     H13      HGA3     0.090000        1.0080           0
     60595 WT20     1226     MECN     C2       CG1N1    0.360000       12.0110           0
     60596 WT20     1226     MECN     N3       NG1T1   -0.460000       14.0070           0
     60597 WT20     1231     MECN     C1       CG331   -0.170000       12.0110           0
     60598 WT20     1231     MECN     H11      HGA3     0.090000        1.0080           0
     60599 WT20     1231     MECN     H12      HGA3     0.090000        1.0080           0
     60600 WT20     1231     MECN     H13      HGA3     0.090000        1.0080           0
     60601 WT20     1231     MECN     C2       CG1N1    0.360000       12.0110           0
     60602 WT20     1231     MECN     N3       NG1T1   -0.460000       14.0070           0
     60603 WT20     1232     MECN     C1       CG331   -0.170000       12.0110           0
     60604 WT20     1232     MECN     H11      HGA3     0.090000        1.0080           0
     60605 WT20     1232     MECN     H12      HGA3     0.090000        1.0080           0
     60606 WT20     1232     MECN     H13      HGA3     0.090000        1.0080           0
     60607 WT20     1232     MECN     C2       CG1N1    0.360000       12.0110           0
     60608 WT20     1232     MECN     N3       NG1T1   -0.460000       14.0070           0
     60609 WT20     1233     MECN     C1       CG331   -0.170000       12.0110           0
     60610 WT20     1233     MECN     H11      HGA3     0.090000        1.0080           0
     60611 WT20     1233     MECN     H12      HGA3     0.090000        1.0080           0
     60612 WT20     1233     MECN     H13      HGA3     0.090000        1.0080           0
     60613 WT20     1233     MECN     C2       CG1N1    0.360000       12.0110           0
     60614 WT20     1233     MECN     N3       NG1T1   -0.460000       14.0070           0
     60615 WT20     1236     MECN     C1       CG331   -0.170000       12.0110           0
     60616 WT20     1236     MECN     H11      HGA3     0.090000        1.0080           0
     60617 WT20     1236     MECN     H12      HGA3     0.090000        1.0080           0
     60618 WT20     1236     MECN     H13      HGA3     0.090000        1.0080           0
     60619 WT20     1236     MECN     C2       CG1N1    0.360000       12.0110           0
     60620 WT20     1236     MECN     N3       NG1T1   -0.460000       14.0070           0
     60621 WT20     1238     MECN     C1       CG331   -0.170000       12.0110           0
     60622 WT20     1238     MECN     H11      HGA3     0.090000        1.0080           0
     60623 WT20     1238     MECN     H12      HGA3     0.090000        1.0080           0
     60624 WT20     1238     MECN     H13      HGA3     0.090000        1.0080           0
     60625 WT20     1238     MECN     C2       CG1N1    0.360000       12.0110           0
     60626 WT20     1238     MECN     N3       NG1T1   -0.460000       14.0070           0
     60627 WT20     1247     MECN     C1       CG331   -0.170000       12.0110           0
     60628 WT20     1247     MECN     H11      HGA3     0.090000        1.0080           0
     60629 WT20     1247     MECN     H12      HGA3     0.090000        1.0080           0
     60630 WT20     1247     MECN     H13      HGA3     0.090000        1.0080           0
     60631 WT20     1247     MECN     C2       CG1N1    0.360000       12.0110           0
     60632 WT20     1247     MECN     N3       NG1T1   -0.460000       14.0070           0
     60633 WT20     1249     MECN     C1       CG331   -0.170000       12.0110           0
     60634 WT20     1249     MECN     H11      HGA3     0.090000        1.0080           0
     60635 WT20     1249     MECN     H12      HGA3     0.090000        1.0080           0
     60636 WT20     1249     MECN     H13      HGA3     0.090000        1.0080           0
     60637 WT20     1249     MECN     C2       CG1N1    0.360000       12.0110           0
     60638 WT20     1249     MECN     N3       NG1T1   -0.460000       14.0070           0
     60639 WT20     1252     MECN     C1       CG331   -0.170000       12.0110           0
     60640 WT20     1252     MECN     H11      HGA3     0.090000        1.0080           0
     60641 WT20     1252     MECN     H12      HGA3     0.090000        1.0080           0
     60642 WT20     1252     MECN     H13      HGA3     0.090000        1.0080           0
     60643 WT20     1252     MECN     C2       CG1N1    0.360000       12.0110           0
     60644 WT20     1252     MECN     N3       NG1T1   -0.460000       14.0070           0
     60645 WT20     1255     MECN     C1       CG331   -0.170000       12.0110           0
     60646 WT20     1255     MECN     H11      HGA3     0.090000        1.0080           0
     60647 WT20     1255     MECN     H12      HGA3     0.090000        1.0080           0
     60648 WT20     1255     MECN     H13      HGA3     0.090000        1.0080           0
     60649 WT20     1255     MECN     C2       CG1N1    0.360000       12.0110           0
     60650 WT20     1255     MECN     N3       NG1T1   -0.460000       14.0070           0
     60651 WT20     1256     MECN     C1       CG331   -0.170000       12.0110           0
     60652 WT20     1256     MECN     H11      HGA3     0.090000        1.0080           0
     60653 WT20     1256     MECN     H12      HGA3     0.090000        1.0080           0
     60654 WT20     1256     MECN     H13      HGA3     0.090000        1.0080           0
     60655 WT20     1256     MECN     C2       CG1N1    0.360000       12.0110           0
     60656 WT20     1256     MECN     N3       NG1T1   -0.460000       14.0070           0
     60657 WT20     1257     MECN     C1       CG331   -0.170000       12.0110           0
     60658 WT20     1257     MECN     H11      HGA3     0.090000        1.0080           0
     60659 WT20     1257     MECN     H12      HGA3     0.090000        1.0080           0
     60660 WT20     1257     MECN     H13      HGA3     0.090000        1.0080           0
     60661 WT20     1257     MECN     C2       CG1N1    0.360000       12.0110           0
     60662 WT20     1257     MECN     N3       NG1T1   -0.460000       14.0070           0
     60663 WT20     1259     MECN     C1       CG331   -0.170000       12.0110           0
     60664 WT20     1259     MECN     H11      HGA3     0.090000        1.0080           0
     60665 WT20     1259     MECN     H12      HGA3     0.090000        1.0080           0
     60666 WT20     1259     MECN     H13      HGA3     0.090000        1.0080           0
     60667 WT20     1259     MECN     C2       CG1N1    0.360000       12.0110           0
     60668 WT20     1259     MECN     N3       NG1T1   -0.460000       14.0070           0
     60669 WT20     1266     MECN     C1       CG331   -0.170000       12.0110           0
     60670 WT20     1266     MECN     H11      HGA3     0.090000        1.0080           0
     60671 WT20     1266     MECN     H12      HGA3     0.090000        1.0080           0
     60672 WT20     1266     MECN     H13      HGA3     0.090000        1.0080           0
     60673 WT20     1266     MECN     C2       CG1N1    0.360000       12.0110           0
     60674 WT20     1266     MECN     N3       NG1T1   -0.460000       14.0070           0
     60675 WT20     1270     MECN     C1       CG331   -0.170000       12.0110           0
     60676 WT20     1270     MECN     H11      HGA3     0.090000        1.0080           0
     60677 WT20     1270     MECN     H12      HGA3     0.090000        1.0080           0
     60678 WT20     1270     MECN     H13      HGA3     0.090000        1.0080           0
     60679 WT20     1270     MECN     C2       CG1N1    0.360000       12.0110           0
     60680 WT20     1270     MECN     N3       NG1T1   -0.460000       14.0070           0
     60681 WT20     1272     MECN     C1       CG331   -0.170000       12.0110           0
     60682 WT20     1272     MECN     H11      HGA3     0.090000        1.0080           0
     60683 WT20     1272     MECN     H12      HGA3     0.090000        1.0080           0
     60684 WT20     1272     MECN     H13      HGA3     0.090000        1.0080           0
     60685 WT20     1272     MECN     C2       CG1N1    0.360000       12.0110           0
     60686 WT20     1272     MECN     N3       NG1T1   -0.460000       14.0070           0
     60687 WT20     1278     MECN     C1       CG331   -0.170000       12.0110           0
     60688 WT20     1278     MECN     H11      HGA3     0.090000        1.0080           0
     60689 WT20     1278     MECN     H12      HGA3     0.090000        1.0080           0
     60690 WT20     1278     MECN     H13      HGA3     0.090000        1.0080           0
     60691 WT20     1278     MECN     C2       CG1N1    0.360000       12.0110           0
     60692 WT20     1278     MECN     N3       NG1T1   -0.460000       14.0070           0
     60693 WT20     1280     MECN     C1       CG331   -0.170000       12.0110           0
     60694 WT20     1280     MECN     H11      HGA3     0.090000        1.0080           0
     60695 WT20     1280     MECN     H12      HGA3     0.090000        1.0080           0
     60696 WT20     1280     MECN     H13      HGA3     0.090000        1.0080           0
     60697 WT20     1280     MECN     C2       CG1N1    0.360000       12.0110           0
     60698 WT20     1280     MECN     N3       NG1T1   -0.460000       14.0070           0
     60699 WT20     1285     MECN     C1       CG331   -0.170000       12.0110           0
     60700 WT20     1285     MECN     H11      HGA3     0.090000        1.0080           0
     60701 WT20     1285     MECN     H12      HGA3     0.090000        1.0080           0
     60702 WT20     1285     MECN     H13      HGA3     0.090000        1.0080           0
     60703 WT20     1285     MECN     C2       CG1N1    0.360000       12.0110           0
     60704 WT20     1285     MECN     N3       NG1T1   -0.460000       14.0070           0
     60705 WT20     1287     MECN     C1       CG331   -0.170000       12.0110           0
     60706 WT20     1287     MECN     H11      HGA3     0.090000        1.0080           0
     60707 WT20     1287     MECN     H12      HGA3     0.090000        1.0080           0
     60708 WT20     1287     MECN     H13      HGA3     0.090000        1.0080           0
     60709 WT20     1287     MECN     C2       CG1N1    0.360000       12.0110           0
     60710 WT20     1287     MECN     N3       NG1T1   -0.460000       14.0070           0
     60711 WT20     1289     MECN     C1       CG331   -0.170000       12.0110           0
     60712 WT20     1289     MECN     H11      HGA3     0.090000        1.0080           0
     60713 WT20     1289     MECN     H12      HGA3     0.090000        1.0080           0
     60714 WT20     1289     MECN     H13      HGA3     0.090000        1.0080           0
     60715 WT20     1289     MECN     C2       CG1N1    0.360000       12.0110           0
     60716 WT20     1289     MECN     N3       NG1T1   -0.460000       14.0070           0
     60717 WT20     1290     MECN     C1       CG331   -0.170000       12.0110           0
     60718 WT20     1290     MECN     H11      HGA3     0.090000        1.0080           0
     60719 WT20     1290     MECN     H12      HGA3     0.090000        1.0080           0
     60720 WT20     1290     MECN     H13      HGA3     0.090000        1.0080           0
     60721 WT20     1290     MECN     C2       CG1N1    0.360000       12.0110           0
     60722 WT20     1290     MECN     N3       NG1T1   -0.460000       14.0070           0
     60723 WT20     1295     MECN     C1       CG331   -0.170000       12.0110           0
     60724 WT20     1295     MECN     H11      HGA3     0.090000        1.0080           0
     60725 WT20     1295     MECN     H12      HGA3     0.090000        1.0080           0
     60726 WT20     1295     MECN     H13      HGA3     0.090000        1.0080           0
     60727 WT20     1295     MECN     C2       CG1N1    0.360000       12.0110           0
     60728 WT20     1295     MECN     N3       NG1T1   -0.460000       14.0070           0
     60729 WT20     1299     MECN     C1       CG331   -0.170000       12.0110           0
     60730 WT20     1299     MECN     H11      HGA3     0.090000        1.0080           0
     60731 WT20     1299     MECN     H12      HGA3     0.090000        1.0080           0
     60732 WT20     1299     MECN     H13      HGA3     0.090000        1.0080           0
     60733 WT20     1299     MECN     C2       CG1N1    0.360000       12.0110           0
     60734 WT20     1299     MECN     N3       NG1T1   -0.460000       14.0070           0
     60735 WT20     1302     MECN     C1       CG331   -0.170000       12.0110           0
     60736 WT20     1302     MECN     H11      HGA3     0.090000        1.0080           0
     60737 WT20     1302     MECN     H12      HGA3     0.090000        1.0080           0
     60738 WT20     1302     MECN     H13      HGA3     0.090000        1.0080           0
     60739 WT20     1302     MECN     C2       CG1N1    0.360000       12.0110           0
     60740 WT20     1302     MECN     N3       NG1T1   -0.460000       14.0070           0
     60741 WT20     1308     MECN     C1       CG331   -0.170000       12.0110           0
     60742 WT20     1308     MECN     H11      HGA3     0.090000        1.0080           0
     60743 WT20     1308     MECN     H12      HGA3     0.090000        1.0080           0
     60744 WT20     1308     MECN     H13      HGA3     0.090000        1.0080           0
     60745 WT20     1308     MECN     C2       CG1N1    0.360000       12.0110           0
     60746 WT20     1308     MECN     N3       NG1T1   -0.460000       14.0070           0
     60747 WT20     1310     MECN     C1       CG331   -0.170000       12.0110           0
     60748 WT20     1310     MECN     H11      HGA3     0.090000        1.0080           0
     60749 WT20     1310     MECN     H12      HGA3     0.090000        1.0080           0
     60750 WT20     1310     MECN     H13      HGA3     0.090000        1.0080           0
     60751 WT20     1310     MECN     C2       CG1N1    0.360000       12.0110           0
     60752 WT20     1310     MECN     N3       NG1T1   -0.460000       14.0070           0
     60753 WT20     1311     MECN     C1       CG331   -0.170000       12.0110           0
     60754 WT20     1311     MECN     H11      HGA3     0.090000        1.0080           0
     60755 WT20     1311     MECN     H12      HGA3     0.090000        1.0080           0
     60756 WT20     1311     MECN     H13      HGA3     0.090000        1.0080           0
     60757 WT20     1311     MECN     C2       CG1N1    0.360000       12.0110           0
     60758 WT20     1311     MECN     N3       NG1T1   -0.460000       14.0070           0
     60759 WT20     1312     MECN     C1       CG331   -0.170000       12.0110           0
     60760 WT20     1312     MECN     H11      HGA3     0.090000        1.0080           0
     60761 WT20     1312     MECN     H12      HGA3     0.090000        1.0080           0
     60762 WT20     1312     MECN     H13      HGA3     0.090000        1.0080           0
     60763 WT20     1312     MECN     C2       CG1N1    0.360000       12.0110           0
     60764 WT20     1312     MECN     N3       NG1T1   -0.460000       14.0070           0
     60765 WT20     1313     MECN     C1       CG331   -0.170000       12.0110           0
     60766 WT20     1313     MECN     H11      HGA3     0.090000        1.0080           0
     60767 WT20     1313     MECN     H12      HGA3     0.090000        1.0080           0
     60768 WT20     1313     MECN     H13      HGA3     0.090000        1.0080           0
     60769 WT20     1313     MECN     C2       CG1N1    0.360000       12.0110           0
     60770 WT20     1313     MECN     N3       NG1T1   -0.460000       14.0070           0
     60771 WT20     1316     MECN     C1       CG331   -0.170000       12.0110           0
     60772 WT20     1316     MECN     H11      HGA3     0.090000        1.0080           0
     60773 WT20     1316     MECN     H12      HGA3     0.090000        1.0080           0
     60774 WT20     1316     MECN     H13      HGA3     0.090000        1.0080           0
     60775 WT20     1316     MECN     C2       CG1N1    0.360000       12.0110           0
     60776 WT20     1316     MECN     N3       NG1T1   -0.460000       14.0070           0
     60777 WT20     1320     MECN     C1       CG331   -0.170000       12.0110           0
     60778 WT20     1320     MECN     H11      HGA3     0.090000        1.0080           0
     60779 WT20     1320     MECN     H12      HGA3     0.090000        1.0080           0
     60780 WT20     1320     MECN     H13      HGA3     0.090000        1.0080           0
     60781 WT20     1320     MECN     C2       CG1N1    0.360000       12.0110           0
     60782 WT20     1320     MECN     N3       NG1T1   -0.460000       14.0070           0
     60783 WT20     1327     MECN     C1       CG331   -0.170000       12.0110           0
     60784 WT20     1327     MECN     H11      HGA3     0.090000        1.0080           0
     60785 WT20     1327     MECN     H12      HGA3     0.090000        1.0080           0
     60786 WT20     1327     MECN     H13      HGA3     0.090000        1.0080           0
     60787 WT20     1327     MECN     C2       CG1N1    0.360000       12.0110           0
     60788 WT20     1327     MECN     N3       NG1T1   -0.460000       14.0070           0
     60789 WT20     1330     MECN     C1       CG331   -0.170000       12.0110           0
     60790 WT20     1330     MECN     H11      HGA3     0.090000        1.0080           0
     60791 WT20     1330     MECN     H12      HGA3     0.090000        1.0080           0
     60792 WT20     1330     MECN     H13      HGA3     0.090000        1.0080           0
     60793 WT20     1330     MECN     C2       CG1N1    0.360000       12.0110           0
     60794 WT20     1330     MECN     N3       NG1T1   -0.460000       14.0070           0
     60795 WT21     6        MECN     C1       CG331   -0.170000       12.0110           0
     60796 WT21     6        MECN     H11      HGA3     0.090000        1.0080           0
     60797 WT21     6        MECN     H12      HGA3     0.090000        1.0080           0
     60798 WT21     6        MECN     H13      HGA3     0.090000        1.0080           0
     60799 WT21     6        MECN     C2       CG1N1    0.360000       12.0110           0
     60800 WT21     6        MECN     N3       NG1T1   -0.460000       14.0070           0
     60801 WT21     10       MECN     C1       CG331   -0.170000       12.0110           0
     60802 WT21     10       MECN     H11      HGA3     0.090000        1.0080           0
     60803 WT21     10       MECN     H12      HGA3     0.090000        1.0080           0
     60804 WT21     10       MECN     H13      HGA3     0.090000        1.0080           0
     60805 WT21     10       MECN     C2       CG1N1    0.360000       12.0110           0
     60806 WT21     10       MECN     N3       NG1T1   -0.460000       14.0070           0
     60807 WT21     18       MECN     C1       CG331   -0.170000       12.0110           0
     60808 WT21     18       MECN     H11      HGA3     0.090000        1.0080           0
     60809 WT21     18       MECN     H12      HGA3     0.090000        1.0080           0
     60810 WT21     18       MECN     H13      HGA3     0.090000        1.0080           0
     60811 WT21     18       MECN     C2       CG1N1    0.360000       12.0110           0
     60812 WT21     18       MECN     N3       NG1T1   -0.460000       14.0070           0
     60813 WT21     21       MECN     C1       CG331   -0.170000       12.0110           0
     60814 WT21     21       MECN     H11      HGA3     0.090000        1.0080           0
     60815 WT21     21       MECN     H12      HGA3     0.090000        1.0080           0
     60816 WT21     21       MECN     H13      HGA3     0.090000        1.0080           0
     60817 WT21     21       MECN     C2       CG1N1    0.360000       12.0110           0
     60818 WT21     21       MECN     N3       NG1T1   -0.460000       14.0070           0
     60819 WT21     27       MECN     C1       CG331   -0.170000       12.0110           0
     60820 WT21     27       MECN     H11      HGA3     0.090000        1.0080           0
     60821 WT21     27       MECN     H12      HGA3     0.090000        1.0080           0
     60822 WT21     27       MECN     H13      HGA3     0.090000        1.0080           0
     60823 WT21     27       MECN     C2       CG1N1    0.360000       12.0110           0
     60824 WT21     27       MECN     N3       NG1T1   -0.460000       14.0070           0
     60825 WT21     28       MECN     C1       CG331   -0.170000       12.0110           0
     60826 WT21     28       MECN     H11      HGA3     0.090000        1.0080           0
     60827 WT21     28       MECN     H12      HGA3     0.090000        1.0080           0
     60828 WT21     28       MECN     H13      HGA3     0.090000        1.0080           0
     60829 WT21     28       MECN     C2       CG1N1    0.360000       12.0110           0
     60830 WT21     28       MECN     N3       NG1T1   -0.460000       14.0070           0
     60831 WT21     29       MECN     C1       CG331   -0.170000       12.0110           0
     60832 WT21     29       MECN     H11      HGA3     0.090000        1.0080           0
     60833 WT21     29       MECN     H12      HGA3     0.090000        1.0080           0
     60834 WT21     29       MECN     H13      HGA3     0.090000        1.0080           0
     60835 WT21     29       MECN     C2       CG1N1    0.360000       12.0110           0
     60836 WT21     29       MECN     N3       NG1T1   -0.460000       14.0070           0
     60837 WT21     32       MECN     C1       CG331   -0.170000       12.0110           0
     60838 WT21     32       MECN     H11      HGA3     0.090000        1.0080           0
     60839 WT21     32       MECN     H12      HGA3     0.090000        1.0080           0
     60840 WT21     32       MECN     H13      HGA3     0.090000        1.0080           0
     60841 WT21     32       MECN     C2       CG1N1    0.360000       12.0110           0
     60842 WT21     32       MECN     N3       NG1T1   -0.460000       14.0070           0
     60843 WT21     38       MECN     C1       CG331   -0.170000       12.0110           0
     60844 WT21     38       MECN     H11      HGA3     0.090000        1.0080           0
     60845 WT21     38       MECN     H12      HGA3     0.090000        1.0080           0
     60846 WT21     38       MECN     H13      HGA3     0.090000        1.0080           0
     60847 WT21     38       MECN     C2       CG1N1    0.360000       12.0110           0
     60848 WT21     38       MECN     N3       NG1T1   -0.460000       14.0070           0
     60849 WT21     44       MECN     C1       CG331   -0.170000       12.0110           0
     60850 WT21     44       MECN     H11      HGA3     0.090000        1.0080           0
     60851 WT21     44       MECN     H12      HGA3     0.090000        1.0080           0
     60852 WT21     44       MECN     H13      HGA3     0.090000        1.0080           0
     60853 WT21     44       MECN     C2       CG1N1    0.360000       12.0110           0
     60854 WT21     44       MECN     N3       NG1T1   -0.460000       14.0070           0
     60855 WT21     47       MECN     C1       CG331   -0.170000       12.0110           0
     60856 WT21     47       MECN     H11      HGA3     0.090000        1.0080           0
     60857 WT21     47       MECN     H12      HGA3     0.090000        1.0080           0
     60858 WT21     47       MECN     H13      HGA3     0.090000        1.0080           0
     60859 WT21     47       MECN     C2       CG1N1    0.360000       12.0110           0
     60860 WT21     47       MECN     N3       NG1T1   -0.460000       14.0070           0
     60861 WT21     49       MECN     C1       CG331   -0.170000       12.0110           0
     60862 WT21     49       MECN     H11      HGA3     0.090000        1.0080           0
     60863 WT21     49       MECN     H12      HGA3     0.090000        1.0080           0
     60864 WT21     49       MECN     H13      HGA3     0.090000        1.0080           0
     60865 WT21     49       MECN     C2       CG1N1    0.360000       12.0110           0
     60866 WT21     49       MECN     N3       NG1T1   -0.460000       14.0070           0
     60867 WT21     55       MECN     C1       CG331   -0.170000       12.0110           0
     60868 WT21     55       MECN     H11      HGA3     0.090000        1.0080           0
     60869 WT21     55       MECN     H12      HGA3     0.090000        1.0080           0
     60870 WT21     55       MECN     H13      HGA3     0.090000        1.0080           0
     60871 WT21     55       MECN     C2       CG1N1    0.360000       12.0110           0
     60872 WT21     55       MECN     N3       NG1T1   -0.460000       14.0070           0
     60873 WT21     61       MECN     C1       CG331   -0.170000       12.0110           0
     60874 WT21     61       MECN     H11      HGA3     0.090000        1.0080           0
     60875 WT21     61       MECN     H12      HGA3     0.090000        1.0080           0
     60876 WT21     61       MECN     H13      HGA3     0.090000        1.0080           0
     60877 WT21     61       MECN     C2       CG1N1    0.360000       12.0110           0
     60878 WT21     61       MECN     N3       NG1T1   -0.460000       14.0070           0
     60879 WT21     64       MECN     C1       CG331   -0.170000       12.0110           0
     60880 WT21     64       MECN     H11      HGA3     0.090000        1.0080           0
     60881 WT21     64       MECN     H12      HGA3     0.090000        1.0080           0
     60882 WT21     64       MECN     H13      HGA3     0.090000        1.0080           0
     60883 WT21     64       MECN     C2       CG1N1    0.360000       12.0110           0
     60884 WT21     64       MECN     N3       NG1T1   -0.460000       14.0070           0
     60885 WT21     65       MECN     C1       CG331   -0.170000       12.0110           0
     60886 WT21     65       MECN     H11      HGA3     0.090000        1.0080           0
     60887 WT21     65       MECN     H12      HGA3     0.090000        1.0080           0
     60888 WT21     65       MECN     H13      HGA3     0.090000        1.0080           0
     60889 WT21     65       MECN     C2       CG1N1    0.360000       12.0110           0
     60890 WT21     65       MECN     N3       NG1T1   -0.460000       14.0070           0
     60891 WT21     66       MECN     C1       CG331   -0.170000       12.0110           0
     60892 WT21     66       MECN     H11      HGA3     0.090000        1.0080           0
     60893 WT21     66       MECN     H12      HGA3     0.090000        1.0080           0
     60894 WT21     66       MECN     H13      HGA3     0.090000        1.0080           0
     60895 WT21     66       MECN     C2       CG1N1    0.360000       12.0110           0
     60896 WT21     66       MECN     N3       NG1T1   -0.460000       14.0070           0
     60897 WT21     70       MECN     C1       CG331   -0.170000       12.0110           0
     60898 WT21     70       MECN     H11      HGA3     0.090000        1.0080           0
     60899 WT21     70       MECN     H12      HGA3     0.090000        1.0080           0
     60900 WT21     70       MECN     H13      HGA3     0.090000        1.0080           0
     60901 WT21     70       MECN     C2       CG1N1    0.360000       12.0110           0
     60902 WT21     70       MECN     N3       NG1T1   -0.460000       14.0070           0
     60903 WT21     83       MECN     C1       CG331   -0.170000       12.0110           0
     60904 WT21     83       MECN     H11      HGA3     0.090000        1.0080           0
     60905 WT21     83       MECN     H12      HGA3     0.090000        1.0080           0
     60906 WT21     83       MECN     H13      HGA3     0.090000        1.0080           0
     60907 WT21     83       MECN     C2       CG1N1    0.360000       12.0110           0
     60908 WT21     83       MECN     N3       NG1T1   -0.460000       14.0070           0
     60909 WT21     88       MECN     C1       CG331   -0.170000       12.0110           0
     60910 WT21     88       MECN     H11      HGA3     0.090000        1.0080           0
     60911 WT21     88       MECN     H12      HGA3     0.090000        1.0080           0
     60912 WT21     88       MECN     H13      HGA3     0.090000        1.0080           0
     60913 WT21     88       MECN     C2       CG1N1    0.360000       12.0110           0
     60914 WT21     88       MECN     N3       NG1T1   -0.460000       14.0070           0
     60915 WT21     89       MECN     C1       CG331   -0.170000       12.0110           0
     60916 WT21     89       MECN     H11      HGA3     0.090000        1.0080           0
     60917 WT21     89       MECN     H12      HGA3     0.090000        1.0080           0
     60918 WT21     89       MECN     H13      HGA3     0.090000        1.0080           0
     60919 WT21     89       MECN     C2       CG1N1    0.360000       12.0110           0
     60920 WT21     89       MECN     N3       NG1T1   -0.460000       14.0070           0
     60921 WT21     96       MECN     C1       CG331   -0.170000       12.0110           0
     60922 WT21     96       MECN     H11      HGA3     0.090000        1.0080           0
     60923 WT21     96       MECN     H12      HGA3     0.090000        1.0080           0
     60924 WT21     96       MECN     H13      HGA3     0.090000        1.0080           0
     60925 WT21     96       MECN     C2       CG1N1    0.360000       12.0110           0
     60926 WT21     96       MECN     N3       NG1T1   -0.460000       14.0070           0
     60927 WT21     106      MECN     C1       CG331   -0.170000       12.0110           0
     60928 WT21     106      MECN     H11      HGA3     0.090000        1.0080           0
     60929 WT21     106      MECN     H12      HGA3     0.090000        1.0080           0
     60930 WT21     106      MECN     H13      HGA3     0.090000        1.0080           0
     60931 WT21     106      MECN     C2       CG1N1    0.360000       12.0110           0
     60932 WT21     106      MECN     N3       NG1T1   -0.460000       14.0070           0
     60933 WT21     108      MECN     C1       CG331   -0.170000       12.0110           0
     60934 WT21     108      MECN     H11      HGA3     0.090000        1.0080           0
     60935 WT21     108      MECN     H12      HGA3     0.090000        1.0080           0
     60936 WT21     108      MECN     H13      HGA3     0.090000        1.0080           0
     60937 WT21     108      MECN     C2       CG1N1    0.360000       12.0110           0
     60938 WT21     108      MECN     N3       NG1T1   -0.460000       14.0070           0
     60939 WT21     112      MECN     C1       CG331   -0.170000       12.0110           0
     60940 WT21     112      MECN     H11      HGA3     0.090000        1.0080           0
     60941 WT21     112      MECN     H12      HGA3     0.090000        1.0080           0
     60942 WT21     112      MECN     H13      HGA3     0.090000        1.0080           0
     60943 WT21     112      MECN     C2       CG1N1    0.360000       12.0110           0
     60944 WT21     112      MECN     N3       NG1T1   -0.460000       14.0070           0
     60945 WT21     113      MECN     C1       CG331   -0.170000       12.0110           0
     60946 WT21     113      MECN     H11      HGA3     0.090000        1.0080           0
     60947 WT21     113      MECN     H12      HGA3     0.090000        1.0080           0
     60948 WT21     113      MECN     H13      HGA3     0.090000        1.0080           0
     60949 WT21     113      MECN     C2       CG1N1    0.360000       12.0110           0
     60950 WT21     113      MECN     N3       NG1T1   -0.460000       14.0070           0
     60951 WT21     117      MECN     C1       CG331   -0.170000       12.0110           0
     60952 WT21     117      MECN     H11      HGA3     0.090000        1.0080           0
     60953 WT21     117      MECN     H12      HGA3     0.090000        1.0080           0
     60954 WT21     117      MECN     H13      HGA3     0.090000        1.0080           0
     60955 WT21     117      MECN     C2       CG1N1    0.360000       12.0110           0
     60956 WT21     117      MECN     N3       NG1T1   -0.460000       14.0070           0
     60957 WT21     118      MECN     C1       CG331   -0.170000       12.0110           0
     60958 WT21     118      MECN     H11      HGA3     0.090000        1.0080           0
     60959 WT21     118      MECN     H12      HGA3     0.090000        1.0080           0
     60960 WT21     118      MECN     H13      HGA3     0.090000        1.0080           0
     60961 WT21     118      MECN     C2       CG1N1    0.360000       12.0110           0
     60962 WT21     118      MECN     N3       NG1T1   -0.460000       14.0070           0
     60963 WT21     119      MECN     C1       CG331   -0.170000       12.0110           0
     60964 WT21     119      MECN     H11      HGA3     0.090000        1.0080           0
     60965 WT21     119      MECN     H12      HGA3     0.090000        1.0080           0
     60966 WT21     119      MECN     H13      HGA3     0.090000        1.0080           0
     60967 WT21     119      MECN     C2       CG1N1    0.360000       12.0110           0
     60968 WT21     119      MECN     N3       NG1T1   -0.460000       14.0070           0
     60969 WT21     122      MECN     C1       CG331   -0.170000       12.0110           0
     60970 WT21     122      MECN     H11      HGA3     0.090000        1.0080           0
     60971 WT21     122      MECN     H12      HGA3     0.090000        1.0080           0
     60972 WT21     122      MECN     H13      HGA3     0.090000        1.0080           0
     60973 WT21     122      MECN     C2       CG1N1    0.360000       12.0110           0
     60974 WT21     122      MECN     N3       NG1T1   -0.460000       14.0070           0
     60975 WT21     123      MECN     C1       CG331   -0.170000       12.0110           0
     60976 WT21     123      MECN     H11      HGA3     0.090000        1.0080           0
     60977 WT21     123      MECN     H12      HGA3     0.090000        1.0080           0
     60978 WT21     123      MECN     H13      HGA3     0.090000        1.0080           0
     60979 WT21     123      MECN     C2       CG1N1    0.360000       12.0110           0
     60980 WT21     123      MECN     N3       NG1T1   -0.460000       14.0070           0
     60981 WT21     124      MECN     C1       CG331   -0.170000       12.0110           0
     60982 WT21     124      MECN     H11      HGA3     0.090000        1.0080           0
     60983 WT21     124      MECN     H12      HGA3     0.090000        1.0080           0
     60984 WT21     124      MECN     H13      HGA3     0.090000        1.0080           0
     60985 WT21     124      MECN     C2       CG1N1    0.360000       12.0110           0
     60986 WT21     124      MECN     N3       NG1T1   -0.460000       14.0070           0
     60987 WT21     127      MECN     C1       CG331   -0.170000       12.0110           0
     60988 WT21     127      MECN     H11      HGA3     0.090000        1.0080           0
     60989 WT21     127      MECN     H12      HGA3     0.090000        1.0080           0
     60990 WT21     127      MECN     H13      HGA3     0.090000        1.0080           0
     60991 WT21     127      MECN     C2       CG1N1    0.360000       12.0110           0
     60992 WT21     127      MECN     N3       NG1T1   -0.460000       14.0070           0
     60993 WT21     135      MECN     C1       CG331   -0.170000       12.0110           0
     60994 WT21     135      MECN     H11      HGA3     0.090000        1.0080           0
     60995 WT21     135      MECN     H12      HGA3     0.090000        1.0080           0
     60996 WT21     135      MECN     H13      HGA3     0.090000        1.0080           0
     60997 WT21     135      MECN     C2       CG1N1    0.360000       12.0110           0
     60998 WT21     135      MECN     N3       NG1T1   -0.460000       14.0070           0
     60999 WT21     143      MECN     C1       CG331   -0.170000       12.0110           0
     61000 WT21     143      MECN     H11      HGA3     0.090000        1.0080           0
     61001 WT21     143      MECN     H12      HGA3     0.090000        1.0080           0
     61002 WT21     143      MECN     H13      HGA3     0.090000        1.0080           0
     61003 WT21     143      MECN     C2       CG1N1    0.360000       12.0110           0
     61004 WT21     143      MECN     N3       NG1T1   -0.460000       14.0070           0
     61005 WT21     145      MECN     C1       CG331   -0.170000       12.0110           0
     61006 WT21     145      MECN     H11      HGA3     0.090000        1.0080           0
     61007 WT21     145      MECN     H12      HGA3     0.090000        1.0080           0
     61008 WT21     145      MECN     H13      HGA3     0.090000        1.0080           0
     61009 WT21     145      MECN     C2       CG1N1    0.360000       12.0110           0
     61010 WT21     145      MECN     N3       NG1T1   -0.460000       14.0070           0
     61011 WT21     150      MECN     C1       CG331   -0.170000       12.0110           0
     61012 WT21     150      MECN     H11      HGA3     0.090000        1.0080           0
     61013 WT21     150      MECN     H12      HGA3     0.090000        1.0080           0
     61014 WT21     150      MECN     H13      HGA3     0.090000        1.0080           0
     61015 WT21     150      MECN     C2       CG1N1    0.360000       12.0110           0
     61016 WT21     150      MECN     N3       NG1T1   -0.460000       14.0070           0
     61017 WT21     151      MECN     C1       CG331   -0.170000       12.0110           0
     61018 WT21     151      MECN     H11      HGA3     0.090000        1.0080           0
     61019 WT21     151      MECN     H12      HGA3     0.090000        1.0080           0
     61020 WT21     151      MECN     H13      HGA3     0.090000        1.0080           0
     61021 WT21     151      MECN     C2       CG1N1    0.360000       12.0110           0
     61022 WT21     151      MECN     N3       NG1T1   -0.460000       14.0070           0
     61023 WT21     154      MECN     C1       CG331   -0.170000       12.0110           0
     61024 WT21     154      MECN     H11      HGA3     0.090000        1.0080           0
     61025 WT21     154      MECN     H12      HGA3     0.090000        1.0080           0
     61026 WT21     154      MECN     H13      HGA3     0.090000        1.0080           0
     61027 WT21     154      MECN     C2       CG1N1    0.360000       12.0110           0
     61028 WT21     154      MECN     N3       NG1T1   -0.460000       14.0070           0
     61029 WT21     155      MECN     C1       CG331   -0.170000       12.0110           0
     61030 WT21     155      MECN     H11      HGA3     0.090000        1.0080           0
     61031 WT21     155      MECN     H12      HGA3     0.090000        1.0080           0
     61032 WT21     155      MECN     H13      HGA3     0.090000        1.0080           0
     61033 WT21     155      MECN     C2       CG1N1    0.360000       12.0110           0
     61034 WT21     155      MECN     N3       NG1T1   -0.460000       14.0070           0
     61035 WT21     164      MECN     C1       CG331   -0.170000       12.0110           0
     61036 WT21     164      MECN     H11      HGA3     0.090000        1.0080           0
     61037 WT21     164      MECN     H12      HGA3     0.090000        1.0080           0
     61038 WT21     164      MECN     H13      HGA3     0.090000        1.0080           0
     61039 WT21     164      MECN     C2       CG1N1    0.360000       12.0110           0
     61040 WT21     164      MECN     N3       NG1T1   -0.460000       14.0070           0
     61041 WT21     168      MECN     C1       CG331   -0.170000       12.0110           0
     61042 WT21     168      MECN     H11      HGA3     0.090000        1.0080           0
     61043 WT21     168      MECN     H12      HGA3     0.090000        1.0080           0
     61044 WT21     168      MECN     H13      HGA3     0.090000        1.0080           0
     61045 WT21     168      MECN     C2       CG1N1    0.360000       12.0110           0
     61046 WT21     168      MECN     N3       NG1T1   -0.460000       14.0070           0
     61047 WT21     175      MECN     C1       CG331   -0.170000       12.0110           0
     61048 WT21     175      MECN     H11      HGA3     0.090000        1.0080           0
     61049 WT21     175      MECN     H12      HGA3     0.090000        1.0080           0
     61050 WT21     175      MECN     H13      HGA3     0.090000        1.0080           0
     61051 WT21     175      MECN     C2       CG1N1    0.360000       12.0110           0
     61052 WT21     175      MECN     N3       NG1T1   -0.460000       14.0070           0
     61053 WT21     181      MECN     C1       CG331   -0.170000       12.0110           0
     61054 WT21     181      MECN     H11      HGA3     0.090000        1.0080           0
     61055 WT21     181      MECN     H12      HGA3     0.090000        1.0080           0
     61056 WT21     181      MECN     H13      HGA3     0.090000        1.0080           0
     61057 WT21     181      MECN     C2       CG1N1    0.360000       12.0110           0
     61058 WT21     181      MECN     N3       NG1T1   -0.460000       14.0070           0
     61059 WT21     182      MECN     C1       CG331   -0.170000       12.0110           0
     61060 WT21     182      MECN     H11      HGA3     0.090000        1.0080           0
     61061 WT21     182      MECN     H12      HGA3     0.090000        1.0080           0
     61062 WT21     182      MECN     H13      HGA3     0.090000        1.0080           0
     61063 WT21     182      MECN     C2       CG1N1    0.360000       12.0110           0
     61064 WT21     182      MECN     N3       NG1T1   -0.460000       14.0070           0
     61065 WT21     184      MECN     C1       CG331   -0.170000       12.0110           0
     61066 WT21     184      MECN     H11      HGA3     0.090000        1.0080           0
     61067 WT21     184      MECN     H12      HGA3     0.090000        1.0080           0
     61068 WT21     184      MECN     H13      HGA3     0.090000        1.0080           0
     61069 WT21     184      MECN     C2       CG1N1    0.360000       12.0110           0
     61070 WT21     184      MECN     N3       NG1T1   -0.460000       14.0070           0
     61071 WT21     186      MECN     C1       CG331   -0.170000       12.0110           0
     61072 WT21     186      MECN     H11      HGA3     0.090000        1.0080           0
     61073 WT21     186      MECN     H12      HGA3     0.090000        1.0080           0
     61074 WT21     186      MECN     H13      HGA3     0.090000        1.0080           0
     61075 WT21     186      MECN     C2       CG1N1    0.360000       12.0110           0
     61076 WT21     186      MECN     N3       NG1T1   -0.460000       14.0070           0
     61077 WT21     190      MECN     C1       CG331   -0.170000       12.0110           0
     61078 WT21     190      MECN     H11      HGA3     0.090000        1.0080           0
     61079 WT21     190      MECN     H12      HGA3     0.090000        1.0080           0
     61080 WT21     190      MECN     H13      HGA3     0.090000        1.0080           0
     61081 WT21     190      MECN     C2       CG1N1    0.360000       12.0110           0
     61082 WT21     190      MECN     N3       NG1T1   -0.460000       14.0070           0
     61083 WT21     199      MECN     C1       CG331   -0.170000       12.0110           0
     61084 WT21     199      MECN     H11      HGA3     0.090000        1.0080           0
     61085 WT21     199      MECN     H12      HGA3     0.090000        1.0080           0
     61086 WT21     199      MECN     H13      HGA3     0.090000        1.0080           0
     61087 WT21     199      MECN     C2       CG1N1    0.360000       12.0110           0
     61088 WT21     199      MECN     N3       NG1T1   -0.460000       14.0070           0
     61089 WT21     201      MECN     C1       CG331   -0.170000       12.0110           0
     61090 WT21     201      MECN     H11      HGA3     0.090000        1.0080           0
     61091 WT21     201      MECN     H12      HGA3     0.090000        1.0080           0
     61092 WT21     201      MECN     H13      HGA3     0.090000        1.0080           0
     61093 WT21     201      MECN     C2       CG1N1    0.360000       12.0110           0
     61094 WT21     201      MECN     N3       NG1T1   -0.460000       14.0070           0
     61095 WT21     203      MECN     C1       CG331   -0.170000       12.0110           0
     61096 WT21     203      MECN     H11      HGA3     0.090000        1.0080           0
     61097 WT21     203      MECN     H12      HGA3     0.090000        1.0080           0
     61098 WT21     203      MECN     H13      HGA3     0.090000        1.0080           0
     61099 WT21     203      MECN     C2       CG1N1    0.360000       12.0110           0
     61100 WT21     203      MECN     N3       NG1T1   -0.460000       14.0070           0
     61101 WT21     205      MECN     C1       CG331   -0.170000       12.0110           0
     61102 WT21     205      MECN     H11      HGA3     0.090000        1.0080           0
     61103 WT21     205      MECN     H12      HGA3     0.090000        1.0080           0
     61104 WT21     205      MECN     H13      HGA3     0.090000        1.0080           0
     61105 WT21     205      MECN     C2       CG1N1    0.360000       12.0110           0
     61106 WT21     205      MECN     N3       NG1T1   -0.460000       14.0070           0
     61107 WT21     212      MECN     C1       CG331   -0.170000       12.0110           0
     61108 WT21     212      MECN     H11      HGA3     0.090000        1.0080           0
     61109 WT21     212      MECN     H12      HGA3     0.090000        1.0080           0
     61110 WT21     212      MECN     H13      HGA3     0.090000        1.0080           0
     61111 WT21     212      MECN     C2       CG1N1    0.360000       12.0110           0
     61112 WT21     212      MECN     N3       NG1T1   -0.460000       14.0070           0
     61113 WT21     225      MECN     C1       CG331   -0.170000       12.0110           0
     61114 WT21     225      MECN     H11      HGA3     0.090000        1.0080           0
     61115 WT21     225      MECN     H12      HGA3     0.090000        1.0080           0
     61116 WT21     225      MECN     H13      HGA3     0.090000        1.0080           0
     61117 WT21     225      MECN     C2       CG1N1    0.360000       12.0110           0
     61118 WT21     225      MECN     N3       NG1T1   -0.460000       14.0070           0
     61119 WT21     229      MECN     C1       CG331   -0.170000       12.0110           0
     61120 WT21     229      MECN     H11      HGA3     0.090000        1.0080           0
     61121 WT21     229      MECN     H12      HGA3     0.090000        1.0080           0
     61122 WT21     229      MECN     H13      HGA3     0.090000        1.0080           0
     61123 WT21     229      MECN     C2       CG1N1    0.360000       12.0110           0
     61124 WT21     229      MECN     N3       NG1T1   -0.460000       14.0070           0
     61125 WT21     231      MECN     C1       CG331   -0.170000       12.0110           0
     61126 WT21     231      MECN     H11      HGA3     0.090000        1.0080           0
     61127 WT21     231      MECN     H12      HGA3     0.090000        1.0080           0
     61128 WT21     231      MECN     H13      HGA3     0.090000        1.0080           0
     61129 WT21     231      MECN     C2       CG1N1    0.360000       12.0110           0
     61130 WT21     231      MECN     N3       NG1T1   -0.460000       14.0070           0
     61131 WT21     246      MECN     C1       CG331   -0.170000       12.0110           0
     61132 WT21     246      MECN     H11      HGA3     0.090000        1.0080           0
     61133 WT21     246      MECN     H12      HGA3     0.090000        1.0080           0
     61134 WT21     246      MECN     H13      HGA3     0.090000        1.0080           0
     61135 WT21     246      MECN     C2       CG1N1    0.360000       12.0110           0
     61136 WT21     246      MECN     N3       NG1T1   -0.460000       14.0070           0
     61137 WT21     251      MECN     C1       CG331   -0.170000       12.0110           0
     61138 WT21     251      MECN     H11      HGA3     0.090000        1.0080           0
     61139 WT21     251      MECN     H12      HGA3     0.090000        1.0080           0
     61140 WT21     251      MECN     H13      HGA3     0.090000        1.0080           0
     61141 WT21     251      MECN     C2       CG1N1    0.360000       12.0110           0
     61142 WT21     251      MECN     N3       NG1T1   -0.460000       14.0070           0
     61143 WT21     252      MECN     C1       CG331   -0.170000       12.0110           0
     61144 WT21     252      MECN     H11      HGA3     0.090000        1.0080           0
     61145 WT21     252      MECN     H12      HGA3     0.090000        1.0080           0
     61146 WT21     252      MECN     H13      HGA3     0.090000        1.0080           0
     61147 WT21     252      MECN     C2       CG1N1    0.360000       12.0110           0
     61148 WT21     252      MECN     N3       NG1T1   -0.460000       14.0070           0
     61149 WT21     255      MECN     C1       CG331   -0.170000       12.0110           0
     61150 WT21     255      MECN     H11      HGA3     0.090000        1.0080           0
     61151 WT21     255      MECN     H12      HGA3     0.090000        1.0080           0
     61152 WT21     255      MECN     H13      HGA3     0.090000        1.0080           0
     61153 WT21     255      MECN     C2       CG1N1    0.360000       12.0110           0
     61154 WT21     255      MECN     N3       NG1T1   -0.460000       14.0070           0
     61155 WT21     276      MECN     C1       CG331   -0.170000       12.0110           0
     61156 WT21     276      MECN     H11      HGA3     0.090000        1.0080           0
     61157 WT21     276      MECN     H12      HGA3     0.090000        1.0080           0
     61158 WT21     276      MECN     H13      HGA3     0.090000        1.0080           0
     61159 WT21     276      MECN     C2       CG1N1    0.360000       12.0110           0
     61160 WT21     276      MECN     N3       NG1T1   -0.460000       14.0070           0
     61161 WT21     279      MECN     C1       CG331   -0.170000       12.0110           0
     61162 WT21     279      MECN     H11      HGA3     0.090000        1.0080           0
     61163 WT21     279      MECN     H12      HGA3     0.090000        1.0080           0
     61164 WT21     279      MECN     H13      HGA3     0.090000        1.0080           0
     61165 WT21     279      MECN     C2       CG1N1    0.360000       12.0110           0
     61166 WT21     279      MECN     N3       NG1T1   -0.460000       14.0070           0
     61167 WT21     280      MECN     C1       CG331   -0.170000       12.0110           0
     61168 WT21     280      MECN     H11      HGA3     0.090000        1.0080           0
     61169 WT21     280      MECN     H12      HGA3     0.090000        1.0080           0
     61170 WT21     280      MECN     H13      HGA3     0.090000        1.0080           0
     61171 WT21     280      MECN     C2       CG1N1    0.360000       12.0110           0
     61172 WT21     280      MECN     N3       NG1T1   -0.460000       14.0070           0
     61173 WT21     285      MECN     C1       CG331   -0.170000       12.0110           0
     61174 WT21     285      MECN     H11      HGA3     0.090000        1.0080           0
     61175 WT21     285      MECN     H12      HGA3     0.090000        1.0080           0
     61176 WT21     285      MECN     H13      HGA3     0.090000        1.0080           0
     61177 WT21     285      MECN     C2       CG1N1    0.360000       12.0110           0
     61178 WT21     285      MECN     N3       NG1T1   -0.460000       14.0070           0
     61179 WT21     286      MECN     C1       CG331   -0.170000       12.0110           0
     61180 WT21     286      MECN     H11      HGA3     0.090000        1.0080           0
     61181 WT21     286      MECN     H12      HGA3     0.090000        1.0080           0
     61182 WT21     286      MECN     H13      HGA3     0.090000        1.0080           0
     61183 WT21     286      MECN     C2       CG1N1    0.360000       12.0110           0
     61184 WT21     286      MECN     N3       NG1T1   -0.460000       14.0070           0
     61185 WT21     288      MECN     C1       CG331   -0.170000       12.0110           0
     61186 WT21     288      MECN     H11      HGA3     0.090000        1.0080           0
     61187 WT21     288      MECN     H12      HGA3     0.090000        1.0080           0
     61188 WT21     288      MECN     H13      HGA3     0.090000        1.0080           0
     61189 WT21     288      MECN     C2       CG1N1    0.360000       12.0110           0
     61190 WT21     288      MECN     N3       NG1T1   -0.460000       14.0070           0
     61191 WT21     294      MECN     C1       CG331   -0.170000       12.0110           0
     61192 WT21     294      MECN     H11      HGA3     0.090000        1.0080           0
     61193 WT21     294      MECN     H12      HGA3     0.090000        1.0080           0
     61194 WT21     294      MECN     H13      HGA3     0.090000        1.0080           0
     61195 WT21     294      MECN     C2       CG1N1    0.360000       12.0110           0
     61196 WT21     294      MECN     N3       NG1T1   -0.460000       14.0070           0
     61197 WT21     304      MECN     C1       CG331   -0.170000       12.0110           0
     61198 WT21     304      MECN     H11      HGA3     0.090000        1.0080           0
     61199 WT21     304      MECN     H12      HGA3     0.090000        1.0080           0
     61200 WT21     304      MECN     H13      HGA3     0.090000        1.0080           0
     61201 WT21     304      MECN     C2       CG1N1    0.360000       12.0110           0
     61202 WT21     304      MECN     N3       NG1T1   -0.460000       14.0070           0
     61203 WT21     308      MECN     C1       CG331   -0.170000       12.0110           0
     61204 WT21     308      MECN     H11      HGA3     0.090000        1.0080           0
     61205 WT21     308      MECN     H12      HGA3     0.090000        1.0080           0
     61206 WT21     308      MECN     H13      HGA3     0.090000        1.0080           0
     61207 WT21     308      MECN     C2       CG1N1    0.360000       12.0110           0
     61208 WT21     308      MECN     N3       NG1T1   -0.460000       14.0070           0
     61209 WT21     316      MECN     C1       CG331   -0.170000       12.0110           0
     61210 WT21     316      MECN     H11      HGA3     0.090000        1.0080           0
     61211 WT21     316      MECN     H12      HGA3     0.090000        1.0080           0
     61212 WT21     316      MECN     H13      HGA3     0.090000        1.0080           0
     61213 WT21     316      MECN     C2       CG1N1    0.360000       12.0110           0
     61214 WT21     316      MECN     N3       NG1T1   -0.460000       14.0070           0
     61215 WT21     318      MECN     C1       CG331   -0.170000       12.0110           0
     61216 WT21     318      MECN     H11      HGA3     0.090000        1.0080           0
     61217 WT21     318      MECN     H12      HGA3     0.090000        1.0080           0
     61218 WT21     318      MECN     H13      HGA3     0.090000        1.0080           0
     61219 WT21     318      MECN     C2       CG1N1    0.360000       12.0110           0
     61220 WT21     318      MECN     N3       NG1T1   -0.460000       14.0070           0
     61221 WT21     319      MECN     C1       CG331   -0.170000       12.0110           0
     61222 WT21     319      MECN     H11      HGA3     0.090000        1.0080           0
     61223 WT21     319      MECN     H12      HGA3     0.090000        1.0080           0
     61224 WT21     319      MECN     H13      HGA3     0.090000        1.0080           0
     61225 WT21     319      MECN     C2       CG1N1    0.360000       12.0110           0
     61226 WT21     319      MECN     N3       NG1T1   -0.460000       14.0070           0
     61227 WT21     329      MECN     C1       CG331   -0.170000       12.0110           0
     61228 WT21     329      MECN     H11      HGA3     0.090000        1.0080           0
     61229 WT21     329      MECN     H12      HGA3     0.090000        1.0080           0
     61230 WT21     329      MECN     H13      HGA3     0.090000        1.0080           0
     61231 WT21     329      MECN     C2       CG1N1    0.360000       12.0110           0
     61232 WT21     329      MECN     N3       NG1T1   -0.460000       14.0070           0
     61233 WT21     331      MECN     C1       CG331   -0.170000       12.0110           0
     61234 WT21     331      MECN     H11      HGA3     0.090000        1.0080           0
     61235 WT21     331      MECN     H12      HGA3     0.090000        1.0080           0
     61236 WT21     331      MECN     H13      HGA3     0.090000        1.0080           0
     61237 WT21     331      MECN     C2       CG1N1    0.360000       12.0110           0
     61238 WT21     331      MECN     N3       NG1T1   -0.460000       14.0070           0
     61239 WT21     333      MECN     C1       CG331   -0.170000       12.0110           0
     61240 WT21     333      MECN     H11      HGA3     0.090000        1.0080           0
     61241 WT21     333      MECN     H12      HGA3     0.090000        1.0080           0
     61242 WT21     333      MECN     H13      HGA3     0.090000        1.0080           0
     61243 WT21     333      MECN     C2       CG1N1    0.360000       12.0110           0
     61244 WT21     333      MECN     N3       NG1T1   -0.460000       14.0070           0
     61245 WT21     341      MECN     C1       CG331   -0.170000       12.0110           0
     61246 WT21     341      MECN     H11      HGA3     0.090000        1.0080           0
     61247 WT21     341      MECN     H12      HGA3     0.090000        1.0080           0
     61248 WT21     341      MECN     H13      HGA3     0.090000        1.0080           0
     61249 WT21     341      MECN     C2       CG1N1    0.360000       12.0110           0
     61250 WT21     341      MECN     N3       NG1T1   -0.460000       14.0070           0
     61251 WT21     343      MECN     C1       CG331   -0.170000       12.0110           0
     61252 WT21     343      MECN     H11      HGA3     0.090000        1.0080           0
     61253 WT21     343      MECN     H12      HGA3     0.090000        1.0080           0
     61254 WT21     343      MECN     H13      HGA3     0.090000        1.0080           0
     61255 WT21     343      MECN     C2       CG1N1    0.360000       12.0110           0
     61256 WT21     343      MECN     N3       NG1T1   -0.460000       14.0070           0
     61257 WT21     346      MECN     C1       CG331   -0.170000       12.0110           0
     61258 WT21     346      MECN     H11      HGA3     0.090000        1.0080           0
     61259 WT21     346      MECN     H12      HGA3     0.090000        1.0080           0
     61260 WT21     346      MECN     H13      HGA3     0.090000        1.0080           0
     61261 WT21     346      MECN     C2       CG1N1    0.360000       12.0110           0
     61262 WT21     346      MECN     N3       NG1T1   -0.460000       14.0070           0
     61263 WT21     351      MECN     C1       CG331   -0.170000       12.0110           0
     61264 WT21     351      MECN     H11      HGA3     0.090000        1.0080           0
     61265 WT21     351      MECN     H12      HGA3     0.090000        1.0080           0
     61266 WT21     351      MECN     H13      HGA3     0.090000        1.0080           0
     61267 WT21     351      MECN     C2       CG1N1    0.360000       12.0110           0
     61268 WT21     351      MECN     N3       NG1T1   -0.460000       14.0070           0
     61269 WT21     358      MECN     C1       CG331   -0.170000       12.0110           0
     61270 WT21     358      MECN     H11      HGA3     0.090000        1.0080           0
     61271 WT21     358      MECN     H12      HGA3     0.090000        1.0080           0
     61272 WT21     358      MECN     H13      HGA3     0.090000        1.0080           0
     61273 WT21     358      MECN     C2       CG1N1    0.360000       12.0110           0
     61274 WT21     358      MECN     N3       NG1T1   -0.460000       14.0070           0
     61275 WT21     359      MECN     C1       CG331   -0.170000       12.0110           0
     61276 WT21     359      MECN     H11      HGA3     0.090000        1.0080           0
     61277 WT21     359      MECN     H12      HGA3     0.090000        1.0080           0
     61278 WT21     359      MECN     H13      HGA3     0.090000        1.0080           0
     61279 WT21     359      MECN     C2       CG1N1    0.360000       12.0110           0
     61280 WT21     359      MECN     N3       NG1T1   -0.460000       14.0070           0
     61281 WT21     361      MECN     C1       CG331   -0.170000       12.0110           0
     61282 WT21     361      MECN     H11      HGA3     0.090000        1.0080           0
     61283 WT21     361      MECN     H12      HGA3     0.090000        1.0080           0
     61284 WT21     361      MECN     H13      HGA3     0.090000        1.0080           0
     61285 WT21     361      MECN     C2       CG1N1    0.360000       12.0110           0
     61286 WT21     361      MECN     N3       NG1T1   -0.460000       14.0070           0
     61287 WT21     369      MECN     C1       CG331   -0.170000       12.0110           0
     61288 WT21     369      MECN     H11      HGA3     0.090000        1.0080           0
     61289 WT21     369      MECN     H12      HGA3     0.090000        1.0080           0
     61290 WT21     369      MECN     H13      HGA3     0.090000        1.0080           0
     61291 WT21     369      MECN     C2       CG1N1    0.360000       12.0110           0
     61292 WT21     369      MECN     N3       NG1T1   -0.460000       14.0070           0
     61293 WT21     373      MECN     C1       CG331   -0.170000       12.0110           0
     61294 WT21     373      MECN     H11      HGA3     0.090000        1.0080           0
     61295 WT21     373      MECN     H12      HGA3     0.090000        1.0080           0
     61296 WT21     373      MECN     H13      HGA3     0.090000        1.0080           0
     61297 WT21     373      MECN     C2       CG1N1    0.360000       12.0110           0
     61298 WT21     373      MECN     N3       NG1T1   -0.460000       14.0070           0
     61299 WT21     385      MECN     C1       CG331   -0.170000       12.0110           0
     61300 WT21     385      MECN     H11      HGA3     0.090000        1.0080           0
     61301 WT21     385      MECN     H12      HGA3     0.090000        1.0080           0
     61302 WT21     385      MECN     H13      HGA3     0.090000        1.0080           0
     61303 WT21     385      MECN     C2       CG1N1    0.360000       12.0110           0
     61304 WT21     385      MECN     N3       NG1T1   -0.460000       14.0070           0
     61305 WT21     391      MECN     C1       CG331   -0.170000       12.0110           0
     61306 WT21     391      MECN     H11      HGA3     0.090000        1.0080           0
     61307 WT21     391      MECN     H12      HGA3     0.090000        1.0080           0
     61308 WT21     391      MECN     H13      HGA3     0.090000        1.0080           0
     61309 WT21     391      MECN     C2       CG1N1    0.360000       12.0110           0
     61310 WT21     391      MECN     N3       NG1T1   -0.460000       14.0070           0
     61311 WT21     393      MECN     C1       CG331   -0.170000       12.0110           0
     61312 WT21     393      MECN     H11      HGA3     0.090000        1.0080           0
     61313 WT21     393      MECN     H12      HGA3     0.090000        1.0080           0
     61314 WT21     393      MECN     H13      HGA3     0.090000        1.0080           0
     61315 WT21     393      MECN     C2       CG1N1    0.360000       12.0110           0
     61316 WT21     393      MECN     N3       NG1T1   -0.460000       14.0070           0
     61317 WT21     395      MECN     C1       CG331   -0.170000       12.0110           0
     61318 WT21     395      MECN     H11      HGA3     0.090000        1.0080           0
     61319 WT21     395      MECN     H12      HGA3     0.090000        1.0080           0
     61320 WT21     395      MECN     H13      HGA3     0.090000        1.0080           0
     61321 WT21     395      MECN     C2       CG1N1    0.360000       12.0110           0
     61322 WT21     395      MECN     N3       NG1T1   -0.460000       14.0070           0
     61323 WT21     401      MECN     C1       CG331   -0.170000       12.0110           0
     61324 WT21     401      MECN     H11      HGA3     0.090000        1.0080           0
     61325 WT21     401      MECN     H12      HGA3     0.090000        1.0080           0
     61326 WT21     401      MECN     H13      HGA3     0.090000        1.0080           0
     61327 WT21     401      MECN     C2       CG1N1    0.360000       12.0110           0
     61328 WT21     401      MECN     N3       NG1T1   -0.460000       14.0070           0
     61329 WT21     406      MECN     C1       CG331   -0.170000       12.0110           0
     61330 WT21     406      MECN     H11      HGA3     0.090000        1.0080           0
     61331 WT21     406      MECN     H12      HGA3     0.090000        1.0080           0
     61332 WT21     406      MECN     H13      HGA3     0.090000        1.0080           0
     61333 WT21     406      MECN     C2       CG1N1    0.360000       12.0110           0
     61334 WT21     406      MECN     N3       NG1T1   -0.460000       14.0070           0
     61335 WT21     410      MECN     C1       CG331   -0.170000       12.0110           0
     61336 WT21     410      MECN     H11      HGA3     0.090000        1.0080           0
     61337 WT21     410      MECN     H12      HGA3     0.090000        1.0080           0
     61338 WT21     410      MECN     H13      HGA3     0.090000        1.0080           0
     61339 WT21     410      MECN     C2       CG1N1    0.360000       12.0110           0
     61340 WT21     410      MECN     N3       NG1T1   -0.460000       14.0070           0
     61341 WT21     411      MECN     C1       CG331   -0.170000       12.0110           0
     61342 WT21     411      MECN     H11      HGA3     0.090000        1.0080           0
     61343 WT21     411      MECN     H12      HGA3     0.090000        1.0080           0
     61344 WT21     411      MECN     H13      HGA3     0.090000        1.0080           0
     61345 WT21     411      MECN     C2       CG1N1    0.360000       12.0110           0
     61346 WT21     411      MECN     N3       NG1T1   -0.460000       14.0070           0
     61347 WT21     418      MECN     C1       CG331   -0.170000       12.0110           0
     61348 WT21     418      MECN     H11      HGA3     0.090000        1.0080           0
     61349 WT21     418      MECN     H12      HGA3     0.090000        1.0080           0
     61350 WT21     418      MECN     H13      HGA3     0.090000        1.0080           0
     61351 WT21     418      MECN     C2       CG1N1    0.360000       12.0110           0
     61352 WT21     418      MECN     N3       NG1T1   -0.460000       14.0070           0
     61353 WT21     419      MECN     C1       CG331   -0.170000       12.0110           0
     61354 WT21     419      MECN     H11      HGA3     0.090000        1.0080           0
     61355 WT21     419      MECN     H12      HGA3     0.090000        1.0080           0
     61356 WT21     419      MECN     H13      HGA3     0.090000        1.0080           0
     61357 WT21     419      MECN     C2       CG1N1    0.360000       12.0110           0
     61358 WT21     419      MECN     N3       NG1T1   -0.460000       14.0070           0
     61359 WT21     420      MECN     C1       CG331   -0.170000       12.0110           0
     61360 WT21     420      MECN     H11      HGA3     0.090000        1.0080           0
     61361 WT21     420      MECN     H12      HGA3     0.090000        1.0080           0
     61362 WT21     420      MECN     H13      HGA3     0.090000        1.0080           0
     61363 WT21     420      MECN     C2       CG1N1    0.360000       12.0110           0
     61364 WT21     420      MECN     N3       NG1T1   -0.460000       14.0070           0
     61365 WT21     422      MECN     C1       CG331   -0.170000       12.0110           0
     61366 WT21     422      MECN     H11      HGA3     0.090000        1.0080           0
     61367 WT21     422      MECN     H12      HGA3     0.090000        1.0080           0
     61368 WT21     422      MECN     H13      HGA3     0.090000        1.0080           0
     61369 WT21     422      MECN     C2       CG1N1    0.360000       12.0110           0
     61370 WT21     422      MECN     N3       NG1T1   -0.460000       14.0070           0
     61371 WT21     435      MECN     C1       CG331   -0.170000       12.0110           0
     61372 WT21     435      MECN     H11      HGA3     0.090000        1.0080           0
     61373 WT21     435      MECN     H12      HGA3     0.090000        1.0080           0
     61374 WT21     435      MECN     H13      HGA3     0.090000        1.0080           0
     61375 WT21     435      MECN     C2       CG1N1    0.360000       12.0110           0
     61376 WT21     435      MECN     N3       NG1T1   -0.460000       14.0070           0
     61377 WT21     440      MECN     C1       CG331   -0.170000       12.0110           0
     61378 WT21     440      MECN     H11      HGA3     0.090000        1.0080           0
     61379 WT21     440      MECN     H12      HGA3     0.090000        1.0080           0
     61380 WT21     440      MECN     H13      HGA3     0.090000        1.0080           0
     61381 WT21     440      MECN     C2       CG1N1    0.360000       12.0110           0
     61382 WT21     440      MECN     N3       NG1T1   -0.460000       14.0070           0
     61383 WT21     441      MECN     C1       CG331   -0.170000       12.0110           0
     61384 WT21     441      MECN     H11      HGA3     0.090000        1.0080           0
     61385 WT21     441      MECN     H12      HGA3     0.090000        1.0080           0
     61386 WT21     441      MECN     H13      HGA3     0.090000        1.0080           0
     61387 WT21     441      MECN     C2       CG1N1    0.360000       12.0110           0
     61388 WT21     441      MECN     N3       NG1T1   -0.460000       14.0070           0
     61389 WT21     445      MECN     C1       CG331   -0.170000       12.0110           0
     61390 WT21     445      MECN     H11      HGA3     0.090000        1.0080           0
     61391 WT21     445      MECN     H12      HGA3     0.090000        1.0080           0
     61392 WT21     445      MECN     H13      HGA3     0.090000        1.0080           0
     61393 WT21     445      MECN     C2       CG1N1    0.360000       12.0110           0
     61394 WT21     445      MECN     N3       NG1T1   -0.460000       14.0070           0
     61395 WT21     448      MECN     C1       CG331   -0.170000       12.0110           0
     61396 WT21     448      MECN     H11      HGA3     0.090000        1.0080           0
     61397 WT21     448      MECN     H12      HGA3     0.090000        1.0080           0
     61398 WT21     448      MECN     H13      HGA3     0.090000        1.0080           0
     61399 WT21     448      MECN     C2       CG1N1    0.360000       12.0110           0
     61400 WT21     448      MECN     N3       NG1T1   -0.460000       14.0070           0
     61401 WT21     449      MECN     C1       CG331   -0.170000       12.0110           0
     61402 WT21     449      MECN     H11      HGA3     0.090000        1.0080           0
     61403 WT21     449      MECN     H12      HGA3     0.090000        1.0080           0
     61404 WT21     449      MECN     H13      HGA3     0.090000        1.0080           0
     61405 WT21     449      MECN     C2       CG1N1    0.360000       12.0110           0
     61406 WT21     449      MECN     N3       NG1T1   -0.460000       14.0070           0
     61407 WT21     450      MECN     C1       CG331   -0.170000       12.0110           0
     61408 WT21     450      MECN     H11      HGA3     0.090000        1.0080           0
     61409 WT21     450      MECN     H12      HGA3     0.090000        1.0080           0
     61410 WT21     450      MECN     H13      HGA3     0.090000        1.0080           0
     61411 WT21     450      MECN     C2       CG1N1    0.360000       12.0110           0
     61412 WT21     450      MECN     N3       NG1T1   -0.460000       14.0070           0
     61413 WT21     454      MECN     C1       CG331   -0.170000       12.0110           0
     61414 WT21     454      MECN     H11      HGA3     0.090000        1.0080           0
     61415 WT21     454      MECN     H12      HGA3     0.090000        1.0080           0
     61416 WT21     454      MECN     H13      HGA3     0.090000        1.0080           0
     61417 WT21     454      MECN     C2       CG1N1    0.360000       12.0110           0
     61418 WT21     454      MECN     N3       NG1T1   -0.460000       14.0070           0
     61419 WT21     460      MECN     C1       CG331   -0.170000       12.0110           0
     61420 WT21     460      MECN     H11      HGA3     0.090000        1.0080           0
     61421 WT21     460      MECN     H12      HGA3     0.090000        1.0080           0
     61422 WT21     460      MECN     H13      HGA3     0.090000        1.0080           0
     61423 WT21     460      MECN     C2       CG1N1    0.360000       12.0110           0
     61424 WT21     460      MECN     N3       NG1T1   -0.460000       14.0070           0
     61425 WT21     461      MECN     C1       CG331   -0.170000       12.0110           0
     61426 WT21     461      MECN     H11      HGA3     0.090000        1.0080           0
     61427 WT21     461      MECN     H12      HGA3     0.090000        1.0080           0
     61428 WT21     461      MECN     H13      HGA3     0.090000        1.0080           0
     61429 WT21     461      MECN     C2       CG1N1    0.360000       12.0110           0
     61430 WT21     461      MECN     N3       NG1T1   -0.460000       14.0070           0
     61431 WT21     464      MECN     C1       CG331   -0.170000       12.0110           0
     61432 WT21     464      MECN     H11      HGA3     0.090000        1.0080           0
     61433 WT21     464      MECN     H12      HGA3     0.090000        1.0080           0
     61434 WT21     464      MECN     H13      HGA3     0.090000        1.0080           0
     61435 WT21     464      MECN     C2       CG1N1    0.360000       12.0110           0
     61436 WT21     464      MECN     N3       NG1T1   -0.460000       14.0070           0
     61437 WT21     468      MECN     C1       CG331   -0.170000       12.0110           0
     61438 WT21     468      MECN     H11      HGA3     0.090000        1.0080           0
     61439 WT21     468      MECN     H12      HGA3     0.090000        1.0080           0
     61440 WT21     468      MECN     H13      HGA3     0.090000        1.0080           0
     61441 WT21     468      MECN     C2       CG1N1    0.360000       12.0110           0
     61442 WT21     468      MECN     N3       NG1T1   -0.460000       14.0070           0
     61443 WT21     470      MECN     C1       CG331   -0.170000       12.0110           0
     61444 WT21     470      MECN     H11      HGA3     0.090000        1.0080           0
     61445 WT21     470      MECN     H12      HGA3     0.090000        1.0080           0
     61446 WT21     470      MECN     H13      HGA3     0.090000        1.0080           0
     61447 WT21     470      MECN     C2       CG1N1    0.360000       12.0110           0
     61448 WT21     470      MECN     N3       NG1T1   -0.460000       14.0070           0
     61449 WT21     476      MECN     C1       CG331   -0.170000       12.0110           0
     61450 WT21     476      MECN     H11      HGA3     0.090000        1.0080           0
     61451 WT21     476      MECN     H12      HGA3     0.090000        1.0080           0
     61452 WT21     476      MECN     H13      HGA3     0.090000        1.0080           0
     61453 WT21     476      MECN     C2       CG1N1    0.360000       12.0110           0
     61454 WT21     476      MECN     N3       NG1T1   -0.460000       14.0070           0
     61455 WT21     477      MECN     C1       CG331   -0.170000       12.0110           0
     61456 WT21     477      MECN     H11      HGA3     0.090000        1.0080           0
     61457 WT21     477      MECN     H12      HGA3     0.090000        1.0080           0
     61458 WT21     477      MECN     H13      HGA3     0.090000        1.0080           0
     61459 WT21     477      MECN     C2       CG1N1    0.360000       12.0110           0
     61460 WT21     477      MECN     N3       NG1T1   -0.460000       14.0070           0
     61461 WT21     480      MECN     C1       CG331   -0.170000       12.0110           0
     61462 WT21     480      MECN     H11      HGA3     0.090000        1.0080           0
     61463 WT21     480      MECN     H12      HGA3     0.090000        1.0080           0
     61464 WT21     480      MECN     H13      HGA3     0.090000        1.0080           0
     61465 WT21     480      MECN     C2       CG1N1    0.360000       12.0110           0
     61466 WT21     480      MECN     N3       NG1T1   -0.460000       14.0070           0
     61467 WT21     482      MECN     C1       CG331   -0.170000       12.0110           0
     61468 WT21     482      MECN     H11      HGA3     0.090000        1.0080           0
     61469 WT21     482      MECN     H12      HGA3     0.090000        1.0080           0
     61470 WT21     482      MECN     H13      HGA3     0.090000        1.0080           0
     61471 WT21     482      MECN     C2       CG1N1    0.360000       12.0110           0
     61472 WT21     482      MECN     N3       NG1T1   -0.460000       14.0070           0
     61473 WT21     485      MECN     C1       CG331   -0.170000       12.0110           0
     61474 WT21     485      MECN     H11      HGA3     0.090000        1.0080           0
     61475 WT21     485      MECN     H12      HGA3     0.090000        1.0080           0
     61476 WT21     485      MECN     H13      HGA3     0.090000        1.0080           0
     61477 WT21     485      MECN     C2       CG1N1    0.360000       12.0110           0
     61478 WT21     485      MECN     N3       NG1T1   -0.460000       14.0070           0
     61479 WT21     489      MECN     C1       CG331   -0.170000       12.0110           0
     61480 WT21     489      MECN     H11      HGA3     0.090000        1.0080           0
     61481 WT21     489      MECN     H12      HGA3     0.090000        1.0080           0
     61482 WT21     489      MECN     H13      HGA3     0.090000        1.0080           0
     61483 WT21     489      MECN     C2       CG1N1    0.360000       12.0110           0
     61484 WT21     489      MECN     N3       NG1T1   -0.460000       14.0070           0
     61485 WT21     490      MECN     C1       CG331   -0.170000       12.0110           0
     61486 WT21     490      MECN     H11      HGA3     0.090000        1.0080           0
     61487 WT21     490      MECN     H12      HGA3     0.090000        1.0080           0
     61488 WT21     490      MECN     H13      HGA3     0.090000        1.0080           0
     61489 WT21     490      MECN     C2       CG1N1    0.360000       12.0110           0
     61490 WT21     490      MECN     N3       NG1T1   -0.460000       14.0070           0
     61491 WT21     493      MECN     C1       CG331   -0.170000       12.0110           0
     61492 WT21     493      MECN     H11      HGA3     0.090000        1.0080           0
     61493 WT21     493      MECN     H12      HGA3     0.090000        1.0080           0
     61494 WT21     493      MECN     H13      HGA3     0.090000        1.0080           0
     61495 WT21     493      MECN     C2       CG1N1    0.360000       12.0110           0
     61496 WT21     493      MECN     N3       NG1T1   -0.460000       14.0070           0
     61497 WT21     494      MECN     C1       CG331   -0.170000       12.0110           0
     61498 WT21     494      MECN     H11      HGA3     0.090000        1.0080           0
     61499 WT21     494      MECN     H12      HGA3     0.090000        1.0080           0
     61500 WT21     494      MECN     H13      HGA3     0.090000        1.0080           0
     61501 WT21     494      MECN     C2       CG1N1    0.360000       12.0110           0
     61502 WT21     494      MECN     N3       NG1T1   -0.460000       14.0070           0
     61503 WT21     497      MECN     C1       CG331   -0.170000       12.0110           0
     61504 WT21     497      MECN     H11      HGA3     0.090000        1.0080           0
     61505 WT21     497      MECN     H12      HGA3     0.090000        1.0080           0
     61506 WT21     497      MECN     H13      HGA3     0.090000        1.0080           0
     61507 WT21     497      MECN     C2       CG1N1    0.360000       12.0110           0
     61508 WT21     497      MECN     N3       NG1T1   -0.460000       14.0070           0
     61509 WT21     498      MECN     C1       CG331   -0.170000       12.0110           0
     61510 WT21     498      MECN     H11      HGA3     0.090000        1.0080           0
     61511 WT21     498      MECN     H12      HGA3     0.090000        1.0080           0
     61512 WT21     498      MECN     H13      HGA3     0.090000        1.0080           0
     61513 WT21     498      MECN     C2       CG1N1    0.360000       12.0110           0
     61514 WT21     498      MECN     N3       NG1T1   -0.460000       14.0070           0
     61515 WT21     499      MECN     C1       CG331   -0.170000       12.0110           0
     61516 WT21     499      MECN     H11      HGA3     0.090000        1.0080           0
     61517 WT21     499      MECN     H12      HGA3     0.090000        1.0080           0
     61518 WT21     499      MECN     H13      HGA3     0.090000        1.0080           0
     61519 WT21     499      MECN     C2       CG1N1    0.360000       12.0110           0
     61520 WT21     499      MECN     N3       NG1T1   -0.460000       14.0070           0
     61521 WT21     501      MECN     C1       CG331   -0.170000       12.0110           0
     61522 WT21     501      MECN     H11      HGA3     0.090000        1.0080           0
     61523 WT21     501      MECN     H12      HGA3     0.090000        1.0080           0
     61524 WT21     501      MECN     H13      HGA3     0.090000        1.0080           0
     61525 WT21     501      MECN     C2       CG1N1    0.360000       12.0110           0
     61526 WT21     501      MECN     N3       NG1T1   -0.460000       14.0070           0
     61527 WT21     504      MECN     C1       CG331   -0.170000       12.0110           0
     61528 WT21     504      MECN     H11      HGA3     0.090000        1.0080           0
     61529 WT21     504      MECN     H12      HGA3     0.090000        1.0080           0
     61530 WT21     504      MECN     H13      HGA3     0.090000        1.0080           0
     61531 WT21     504      MECN     C2       CG1N1    0.360000       12.0110           0
     61532 WT21     504      MECN     N3       NG1T1   -0.460000       14.0070           0
     61533 WT21     506      MECN     C1       CG331   -0.170000       12.0110           0
     61534 WT21     506      MECN     H11      HGA3     0.090000        1.0080           0
     61535 WT21     506      MECN     H12      HGA3     0.090000        1.0080           0
     61536 WT21     506      MECN     H13      HGA3     0.090000        1.0080           0
     61537 WT21     506      MECN     C2       CG1N1    0.360000       12.0110           0
     61538 WT21     506      MECN     N3       NG1T1   -0.460000       14.0070           0
     61539 WT21     507      MECN     C1       CG331   -0.170000       12.0110           0
     61540 WT21     507      MECN     H11      HGA3     0.090000        1.0080           0
     61541 WT21     507      MECN     H12      HGA3     0.090000        1.0080           0
     61542 WT21     507      MECN     H13      HGA3     0.090000        1.0080           0
     61543 WT21     507      MECN     C2       CG1N1    0.360000       12.0110           0
     61544 WT21     507      MECN     N3       NG1T1   -0.460000       14.0070           0
     61545 WT21     509      MECN     C1       CG331   -0.170000       12.0110           0
     61546 WT21     509      MECN     H11      HGA3     0.090000        1.0080           0
     61547 WT21     509      MECN     H12      HGA3     0.090000        1.0080           0
     61548 WT21     509      MECN     H13      HGA3     0.090000        1.0080           0
     61549 WT21     509      MECN     C2       CG1N1    0.360000       12.0110           0
     61550 WT21     509      MECN     N3       NG1T1   -0.460000       14.0070           0
     61551 WT21     519      MECN     C1       CG331   -0.170000       12.0110           0
     61552 WT21     519      MECN     H11      HGA3     0.090000        1.0080           0
     61553 WT21     519      MECN     H12      HGA3     0.090000        1.0080           0
     61554 WT21     519      MECN     H13      HGA3     0.090000        1.0080           0
     61555 WT21     519      MECN     C2       CG1N1    0.360000       12.0110           0
     61556 WT21     519      MECN     N3       NG1T1   -0.460000       14.0070           0
     61557 WT21     521      MECN     C1       CG331   -0.170000       12.0110           0
     61558 WT21     521      MECN     H11      HGA3     0.090000        1.0080           0
     61559 WT21     521      MECN     H12      HGA3     0.090000        1.0080           0
     61560 WT21     521      MECN     H13      HGA3     0.090000        1.0080           0
     61561 WT21     521      MECN     C2       CG1N1    0.360000       12.0110           0
     61562 WT21     521      MECN     N3       NG1T1   -0.460000       14.0070           0
     61563 WT21     522      MECN     C1       CG331   -0.170000       12.0110           0
     61564 WT21     522      MECN     H11      HGA3     0.090000        1.0080           0
     61565 WT21     522      MECN     H12      HGA3     0.090000        1.0080           0
     61566 WT21     522      MECN     H13      HGA3     0.090000        1.0080           0
     61567 WT21     522      MECN     C2       CG1N1    0.360000       12.0110           0
     61568 WT21     522      MECN     N3       NG1T1   -0.460000       14.0070           0
     61569 WT21     523      MECN     C1       CG331   -0.170000       12.0110           0
     61570 WT21     523      MECN     H11      HGA3     0.090000        1.0080           0
     61571 WT21     523      MECN     H12      HGA3     0.090000        1.0080           0
     61572 WT21     523      MECN     H13      HGA3     0.090000        1.0080           0
     61573 WT21     523      MECN     C2       CG1N1    0.360000       12.0110           0
     61574 WT21     523      MECN     N3       NG1T1   -0.460000       14.0070           0
     61575 WT21     529      MECN     C1       CG331   -0.170000       12.0110           0
     61576 WT21     529      MECN     H11      HGA3     0.090000        1.0080           0
     61577 WT21     529      MECN     H12      HGA3     0.090000        1.0080           0
     61578 WT21     529      MECN     H13      HGA3     0.090000        1.0080           0
     61579 WT21     529      MECN     C2       CG1N1    0.360000       12.0110           0
     61580 WT21     529      MECN     N3       NG1T1   -0.460000       14.0070           0
     61581 WT21     530      MECN     C1       CG331   -0.170000       12.0110           0
     61582 WT21     530      MECN     H11      HGA3     0.090000        1.0080           0
     61583 WT21     530      MECN     H12      HGA3     0.090000        1.0080           0
     61584 WT21     530      MECN     H13      HGA3     0.090000        1.0080           0
     61585 WT21     530      MECN     C2       CG1N1    0.360000       12.0110           0
     61586 WT21     530      MECN     N3       NG1T1   -0.460000       14.0070           0
     61587 WT21     537      MECN     C1       CG331   -0.170000       12.0110           0
     61588 WT21     537      MECN     H11      HGA3     0.090000        1.0080           0
     61589 WT21     537      MECN     H12      HGA3     0.090000        1.0080           0
     61590 WT21     537      MECN     H13      HGA3     0.090000        1.0080           0
     61591 WT21     537      MECN     C2       CG1N1    0.360000       12.0110           0
     61592 WT21     537      MECN     N3       NG1T1   -0.460000       14.0070           0
     61593 WT21     545      MECN     C1       CG331   -0.170000       12.0110           0
     61594 WT21     545      MECN     H11      HGA3     0.090000        1.0080           0
     61595 WT21     545      MECN     H12      HGA3     0.090000        1.0080           0
     61596 WT21     545      MECN     H13      HGA3     0.090000        1.0080           0
     61597 WT21     545      MECN     C2       CG1N1    0.360000       12.0110           0
     61598 WT21     545      MECN     N3       NG1T1   -0.460000       14.0070           0
     61599 WT21     547      MECN     C1       CG331   -0.170000       12.0110           0
     61600 WT21     547      MECN     H11      HGA3     0.090000        1.0080           0
     61601 WT21     547      MECN     H12      HGA3     0.090000        1.0080           0
     61602 WT21     547      MECN     H13      HGA3     0.090000        1.0080           0
     61603 WT21     547      MECN     C2       CG1N1    0.360000       12.0110           0
     61604 WT21     547      MECN     N3       NG1T1   -0.460000       14.0070           0
     61605 WT21     555      MECN     C1       CG331   -0.170000       12.0110           0
     61606 WT21     555      MECN     H11      HGA3     0.090000        1.0080           0
     61607 WT21     555      MECN     H12      HGA3     0.090000        1.0080           0
     61608 WT21     555      MECN     H13      HGA3     0.090000        1.0080           0
     61609 WT21     555      MECN     C2       CG1N1    0.360000       12.0110           0
     61610 WT21     555      MECN     N3       NG1T1   -0.460000       14.0070           0
     61611 WT21     561      MECN     C1       CG331   -0.170000       12.0110           0
     61612 WT21     561      MECN     H11      HGA3     0.090000        1.0080           0
     61613 WT21     561      MECN     H12      HGA3     0.090000        1.0080           0
     61614 WT21     561      MECN     H13      HGA3     0.090000        1.0080           0
     61615 WT21     561      MECN     C2       CG1N1    0.360000       12.0110           0
     61616 WT21     561      MECN     N3       NG1T1   -0.460000       14.0070           0
     61617 WT21     571      MECN     C1       CG331   -0.170000       12.0110           0
     61618 WT21     571      MECN     H11      HGA3     0.090000        1.0080           0
     61619 WT21     571      MECN     H12      HGA3     0.090000        1.0080           0
     61620 WT21     571      MECN     H13      HGA3     0.090000        1.0080           0
     61621 WT21     571      MECN     C2       CG1N1    0.360000       12.0110           0
     61622 WT21     571      MECN     N3       NG1T1   -0.460000       14.0070           0
     61623 WT21     573      MECN     C1       CG331   -0.170000       12.0110           0
     61624 WT21     573      MECN     H11      HGA3     0.090000        1.0080           0
     61625 WT21     573      MECN     H12      HGA3     0.090000        1.0080           0
     61626 WT21     573      MECN     H13      HGA3     0.090000        1.0080           0
     61627 WT21     573      MECN     C2       CG1N1    0.360000       12.0110           0
     61628 WT21     573      MECN     N3       NG1T1   -0.460000       14.0070           0
     61629 WT21     576      MECN     C1       CG331   -0.170000       12.0110           0
     61630 WT21     576      MECN     H11      HGA3     0.090000        1.0080           0
     61631 WT21     576      MECN     H12      HGA3     0.090000        1.0080           0
     61632 WT21     576      MECN     H13      HGA3     0.090000        1.0080           0
     61633 WT21     576      MECN     C2       CG1N1    0.360000       12.0110           0
     61634 WT21     576      MECN     N3       NG1T1   -0.460000       14.0070           0
     61635 WT21     578      MECN     C1       CG331   -0.170000       12.0110           0
     61636 WT21     578      MECN     H11      HGA3     0.090000        1.0080           0
     61637 WT21     578      MECN     H12      HGA3     0.090000        1.0080           0
     61638 WT21     578      MECN     H13      HGA3     0.090000        1.0080           0
     61639 WT21     578      MECN     C2       CG1N1    0.360000       12.0110           0
     61640 WT21     578      MECN     N3       NG1T1   -0.460000       14.0070           0
     61641 WT21     580      MECN     C1       CG331   -0.170000       12.0110           0
     61642 WT21     580      MECN     H11      HGA3     0.090000        1.0080           0
     61643 WT21     580      MECN     H12      HGA3     0.090000        1.0080           0
     61644 WT21     580      MECN     H13      HGA3     0.090000        1.0080           0
     61645 WT21     580      MECN     C2       CG1N1    0.360000       12.0110           0
     61646 WT21     580      MECN     N3       NG1T1   -0.460000       14.0070           0
     61647 WT21     582      MECN     C1       CG331   -0.170000       12.0110           0
     61648 WT21     582      MECN     H11      HGA3     0.090000        1.0080           0
     61649 WT21     582      MECN     H12      HGA3     0.090000        1.0080           0
     61650 WT21     582      MECN     H13      HGA3     0.090000        1.0080           0
     61651 WT21     582      MECN     C2       CG1N1    0.360000       12.0110           0
     61652 WT21     582      MECN     N3       NG1T1   -0.460000       14.0070           0
     61653 WT21     583      MECN     C1       CG331   -0.170000       12.0110           0
     61654 WT21     583      MECN     H11      HGA3     0.090000        1.0080           0
     61655 WT21     583      MECN     H12      HGA3     0.090000        1.0080           0
     61656 WT21     583      MECN     H13      HGA3     0.090000        1.0080           0
     61657 WT21     583      MECN     C2       CG1N1    0.360000       12.0110           0
     61658 WT21     583      MECN     N3       NG1T1   -0.460000       14.0070           0
     61659 WT21     584      MECN     C1       CG331   -0.170000       12.0110           0
     61660 WT21     584      MECN     H11      HGA3     0.090000        1.0080           0
     61661 WT21     584      MECN     H12      HGA3     0.090000        1.0080           0
     61662 WT21     584      MECN     H13      HGA3     0.090000        1.0080           0
     61663 WT21     584      MECN     C2       CG1N1    0.360000       12.0110           0
     61664 WT21     584      MECN     N3       NG1T1   -0.460000       14.0070           0
     61665 WT21     585      MECN     C1       CG331   -0.170000       12.0110           0
     61666 WT21     585      MECN     H11      HGA3     0.090000        1.0080           0
     61667 WT21     585      MECN     H12      HGA3     0.090000        1.0080           0
     61668 WT21     585      MECN     H13      HGA3     0.090000        1.0080           0
     61669 WT21     585      MECN     C2       CG1N1    0.360000       12.0110           0
     61670 WT21     585      MECN     N3       NG1T1   -0.460000       14.0070           0
     61671 WT21     587      MECN     C1       CG331   -0.170000       12.0110           0
     61672 WT21     587      MECN     H11      HGA3     0.090000        1.0080           0
     61673 WT21     587      MECN     H12      HGA3     0.090000        1.0080           0
     61674 WT21     587      MECN     H13      HGA3     0.090000        1.0080           0
     61675 WT21     587      MECN     C2       CG1N1    0.360000       12.0110           0
     61676 WT21     587      MECN     N3       NG1T1   -0.460000       14.0070           0
     61677 WT21     590      MECN     C1       CG331   -0.170000       12.0110           0
     61678 WT21     590      MECN     H11      HGA3     0.090000        1.0080           0
     61679 WT21     590      MECN     H12      HGA3     0.090000        1.0080           0
     61680 WT21     590      MECN     H13      HGA3     0.090000        1.0080           0
     61681 WT21     590      MECN     C2       CG1N1    0.360000       12.0110           0
     61682 WT21     590      MECN     N3       NG1T1   -0.460000       14.0070           0
     61683 WT21     591      MECN     C1       CG331   -0.170000       12.0110           0
     61684 WT21     591      MECN     H11      HGA3     0.090000        1.0080           0
     61685 WT21     591      MECN     H12      HGA3     0.090000        1.0080           0
     61686 WT21     591      MECN     H13      HGA3     0.090000        1.0080           0
     61687 WT21     591      MECN     C2       CG1N1    0.360000       12.0110           0
     61688 WT21     591      MECN     N3       NG1T1   -0.460000       14.0070           0
     61689 WT21     592      MECN     C1       CG331   -0.170000       12.0110           0
     61690 WT21     592      MECN     H11      HGA3     0.090000        1.0080           0
     61691 WT21     592      MECN     H12      HGA3     0.090000        1.0080           0
     61692 WT21     592      MECN     H13      HGA3     0.090000        1.0080           0
     61693 WT21     592      MECN     C2       CG1N1    0.360000       12.0110           0
     61694 WT21     592      MECN     N3       NG1T1   -0.460000       14.0070           0
     61695 WT21     593      MECN     C1       CG331   -0.170000       12.0110           0
     61696 WT21     593      MECN     H11      HGA3     0.090000        1.0080           0
     61697 WT21     593      MECN     H12      HGA3     0.090000        1.0080           0
     61698 WT21     593      MECN     H13      HGA3     0.090000        1.0080           0
     61699 WT21     593      MECN     C2       CG1N1    0.360000       12.0110           0
     61700 WT21     593      MECN     N3       NG1T1   -0.460000       14.0070           0
     61701 WT21     595      MECN     C1       CG331   -0.170000       12.0110           0
     61702 WT21     595      MECN     H11      HGA3     0.090000        1.0080           0
     61703 WT21     595      MECN     H12      HGA3     0.090000        1.0080           0
     61704 WT21     595      MECN     H13      HGA3     0.090000        1.0080           0
     61705 WT21     595      MECN     C2       CG1N1    0.360000       12.0110           0
     61706 WT21     595      MECN     N3       NG1T1   -0.460000       14.0070           0
     61707 WT21     598      MECN     C1       CG331   -0.170000       12.0110           0
     61708 WT21     598      MECN     H11      HGA3     0.090000        1.0080           0
     61709 WT21     598      MECN     H12      HGA3     0.090000        1.0080           0
     61710 WT21     598      MECN     H13      HGA3     0.090000        1.0080           0
     61711 WT21     598      MECN     C2       CG1N1    0.360000       12.0110           0
     61712 WT21     598      MECN     N3       NG1T1   -0.460000       14.0070           0
     61713 WT21     607      MECN     C1       CG331   -0.170000       12.0110           0
     61714 WT21     607      MECN     H11      HGA3     0.090000        1.0080           0
     61715 WT21     607      MECN     H12      HGA3     0.090000        1.0080           0
     61716 WT21     607      MECN     H13      HGA3     0.090000        1.0080           0
     61717 WT21     607      MECN     C2       CG1N1    0.360000       12.0110           0
     61718 WT21     607      MECN     N3       NG1T1   -0.460000       14.0070           0
     61719 WT21     612      MECN     C1       CG331   -0.170000       12.0110           0
     61720 WT21     612      MECN     H11      HGA3     0.090000        1.0080           0
     61721 WT21     612      MECN     H12      HGA3     0.090000        1.0080           0
     61722 WT21     612      MECN     H13      HGA3     0.090000        1.0080           0
     61723 WT21     612      MECN     C2       CG1N1    0.360000       12.0110           0
     61724 WT21     612      MECN     N3       NG1T1   -0.460000       14.0070           0
     61725 WT21     613      MECN     C1       CG331   -0.170000       12.0110           0
     61726 WT21     613      MECN     H11      HGA3     0.090000        1.0080           0
     61727 WT21     613      MECN     H12      HGA3     0.090000        1.0080           0
     61728 WT21     613      MECN     H13      HGA3     0.090000        1.0080           0
     61729 WT21     613      MECN     C2       CG1N1    0.360000       12.0110           0
     61730 WT21     613      MECN     N3       NG1T1   -0.460000       14.0070           0
     61731 WT21     623      MECN     C1       CG331   -0.170000       12.0110           0
     61732 WT21     623      MECN     H11      HGA3     0.090000        1.0080           0
     61733 WT21     623      MECN     H12      HGA3     0.090000        1.0080           0
     61734 WT21     623      MECN     H13      HGA3     0.090000        1.0080           0
     61735 WT21     623      MECN     C2       CG1N1    0.360000       12.0110           0
     61736 WT21     623      MECN     N3       NG1T1   -0.460000       14.0070           0
     61737 WT21     624      MECN     C1       CG331   -0.170000       12.0110           0
     61738 WT21     624      MECN     H11      HGA3     0.090000        1.0080           0
     61739 WT21     624      MECN     H12      HGA3     0.090000        1.0080           0
     61740 WT21     624      MECN     H13      HGA3     0.090000        1.0080           0
     61741 WT21     624      MECN     C2       CG1N1    0.360000       12.0110           0
     61742 WT21     624      MECN     N3       NG1T1   -0.460000       14.0070           0
     61743 WT21     628      MECN     C1       CG331   -0.170000       12.0110           0
     61744 WT21     628      MECN     H11      HGA3     0.090000        1.0080           0
     61745 WT21     628      MECN     H12      HGA3     0.090000        1.0080           0
     61746 WT21     628      MECN     H13      HGA3     0.090000        1.0080           0
     61747 WT21     628      MECN     C2       CG1N1    0.360000       12.0110           0
     61748 WT21     628      MECN     N3       NG1T1   -0.460000       14.0070           0
     61749 WT21     632      MECN     C1       CG331   -0.170000       12.0110           0
     61750 WT21     632      MECN     H11      HGA3     0.090000        1.0080           0
     61751 WT21     632      MECN     H12      HGA3     0.090000        1.0080           0
     61752 WT21     632      MECN     H13      HGA3     0.090000        1.0080           0
     61753 WT21     632      MECN     C2       CG1N1    0.360000       12.0110           0
     61754 WT21     632      MECN     N3       NG1T1   -0.460000       14.0070           0
     61755 WT21     637      MECN     C1       CG331   -0.170000       12.0110           0
     61756 WT21     637      MECN     H11      HGA3     0.090000        1.0080           0
     61757 WT21     637      MECN     H12      HGA3     0.090000        1.0080           0
     61758 WT21     637      MECN     H13      HGA3     0.090000        1.0080           0
     61759 WT21     637      MECN     C2       CG1N1    0.360000       12.0110           0
     61760 WT21     637      MECN     N3       NG1T1   -0.460000       14.0070           0
     61761 WT21     647      MECN     C1       CG331   -0.170000       12.0110           0
     61762 WT21     647      MECN     H11      HGA3     0.090000        1.0080           0
     61763 WT21     647      MECN     H12      HGA3     0.090000        1.0080           0
     61764 WT21     647      MECN     H13      HGA3     0.090000        1.0080           0
     61765 WT21     647      MECN     C2       CG1N1    0.360000       12.0110           0
     61766 WT21     647      MECN     N3       NG1T1   -0.460000       14.0070           0
     61767 WT21     650      MECN     C1       CG331   -0.170000       12.0110           0
     61768 WT21     650      MECN     H11      HGA3     0.090000        1.0080           0
     61769 WT21     650      MECN     H12      HGA3     0.090000        1.0080           0
     61770 WT21     650      MECN     H13      HGA3     0.090000        1.0080           0
     61771 WT21     650      MECN     C2       CG1N1    0.360000       12.0110           0
     61772 WT21     650      MECN     N3       NG1T1   -0.460000       14.0070           0
     61773 WT21     652      MECN     C1       CG331   -0.170000       12.0110           0
     61774 WT21     652      MECN     H11      HGA3     0.090000        1.0080           0
     61775 WT21     652      MECN     H12      HGA3     0.090000        1.0080           0
     61776 WT21     652      MECN     H13      HGA3     0.090000        1.0080           0
     61777 WT21     652      MECN     C2       CG1N1    0.360000       12.0110           0
     61778 WT21     652      MECN     N3       NG1T1   -0.460000       14.0070           0
     61779 WT21     653      MECN     C1       CG331   -0.170000       12.0110           0
     61780 WT21     653      MECN     H11      HGA3     0.090000        1.0080           0
     61781 WT21     653      MECN     H12      HGA3     0.090000        1.0080           0
     61782 WT21     653      MECN     H13      HGA3     0.090000        1.0080           0
     61783 WT21     653      MECN     C2       CG1N1    0.360000       12.0110           0
     61784 WT21     653      MECN     N3       NG1T1   -0.460000       14.0070           0
     61785 WT21     665      MECN     C1       CG331   -0.170000       12.0110           0
     61786 WT21     665      MECN     H11      HGA3     0.090000        1.0080           0
     61787 WT21     665      MECN     H12      HGA3     0.090000        1.0080           0
     61788 WT21     665      MECN     H13      HGA3     0.090000        1.0080           0
     61789 WT21     665      MECN     C2       CG1N1    0.360000       12.0110           0
     61790 WT21     665      MECN     N3       NG1T1   -0.460000       14.0070           0
     61791 WT21     679      MECN     C1       CG331   -0.170000       12.0110           0
     61792 WT21     679      MECN     H11      HGA3     0.090000        1.0080           0
     61793 WT21     679      MECN     H12      HGA3     0.090000        1.0080           0
     61794 WT21     679      MECN     H13      HGA3     0.090000        1.0080           0
     61795 WT21     679      MECN     C2       CG1N1    0.360000       12.0110           0
     61796 WT21     679      MECN     N3       NG1T1   -0.460000       14.0070           0
     61797 WT21     682      MECN     C1       CG331   -0.170000       12.0110           0
     61798 WT21     682      MECN     H11      HGA3     0.090000        1.0080           0
     61799 WT21     682      MECN     H12      HGA3     0.090000        1.0080           0
     61800 WT21     682      MECN     H13      HGA3     0.090000        1.0080           0
     61801 WT21     682      MECN     C2       CG1N1    0.360000       12.0110           0
     61802 WT21     682      MECN     N3       NG1T1   -0.460000       14.0070           0
     61803 WT21     683      MECN     C1       CG331   -0.170000       12.0110           0
     61804 WT21     683      MECN     H11      HGA3     0.090000        1.0080           0
     61805 WT21     683      MECN     H12      HGA3     0.090000        1.0080           0
     61806 WT21     683      MECN     H13      HGA3     0.090000        1.0080           0
     61807 WT21     683      MECN     C2       CG1N1    0.360000       12.0110           0
     61808 WT21     683      MECN     N3       NG1T1   -0.460000       14.0070           0
     61809 WT21     686      MECN     C1       CG331   -0.170000       12.0110           0
     61810 WT21     686      MECN     H11      HGA3     0.090000        1.0080           0
     61811 WT21     686      MECN     H12      HGA3     0.090000        1.0080           0
     61812 WT21     686      MECN     H13      HGA3     0.090000        1.0080           0
     61813 WT21     686      MECN     C2       CG1N1    0.360000       12.0110           0
     61814 WT21     686      MECN     N3       NG1T1   -0.460000       14.0070           0
     61815 WT21     692      MECN     C1       CG331   -0.170000       12.0110           0
     61816 WT21     692      MECN     H11      HGA3     0.090000        1.0080           0
     61817 WT21     692      MECN     H12      HGA3     0.090000        1.0080           0
     61818 WT21     692      MECN     H13      HGA3     0.090000        1.0080           0
     61819 WT21     692      MECN     C2       CG1N1    0.360000       12.0110           0
     61820 WT21     692      MECN     N3       NG1T1   -0.460000       14.0070           0
     61821 WT21     696      MECN     C1       CG331   -0.170000       12.0110           0
     61822 WT21     696      MECN     H11      HGA3     0.090000        1.0080           0
     61823 WT21     696      MECN     H12      HGA3     0.090000        1.0080           0
     61824 WT21     696      MECN     H13      HGA3     0.090000        1.0080           0
     61825 WT21     696      MECN     C2       CG1N1    0.360000       12.0110           0
     61826 WT21     696      MECN     N3       NG1T1   -0.460000       14.0070           0
     61827 WT21     701      MECN     C1       CG331   -0.170000       12.0110           0
     61828 WT21     701      MECN     H11      HGA3     0.090000        1.0080           0
     61829 WT21     701      MECN     H12      HGA3     0.090000        1.0080           0
     61830 WT21     701      MECN     H13      HGA3     0.090000        1.0080           0
     61831 WT21     701      MECN     C2       CG1N1    0.360000       12.0110           0
     61832 WT21     701      MECN     N3       NG1T1   -0.460000       14.0070           0
     61833 WT21     708      MECN     C1       CG331   -0.170000       12.0110           0
     61834 WT21     708      MECN     H11      HGA3     0.090000        1.0080           0
     61835 WT21     708      MECN     H12      HGA3     0.090000        1.0080           0
     61836 WT21     708      MECN     H13      HGA3     0.090000        1.0080           0
     61837 WT21     708      MECN     C2       CG1N1    0.360000       12.0110           0
     61838 WT21     708      MECN     N3       NG1T1   -0.460000       14.0070           0
     61839 WT21     712      MECN     C1       CG331   -0.170000       12.0110           0
     61840 WT21     712      MECN     H11      HGA3     0.090000        1.0080           0
     61841 WT21     712      MECN     H12      HGA3     0.090000        1.0080           0
     61842 WT21     712      MECN     H13      HGA3     0.090000        1.0080           0
     61843 WT21     712      MECN     C2       CG1N1    0.360000       12.0110           0
     61844 WT21     712      MECN     N3       NG1T1   -0.460000       14.0070           0
     61845 WT21     717      MECN     C1       CG331   -0.170000       12.0110           0
     61846 WT21     717      MECN     H11      HGA3     0.090000        1.0080           0
     61847 WT21     717      MECN     H12      HGA3     0.090000        1.0080           0
     61848 WT21     717      MECN     H13      HGA3     0.090000        1.0080           0
     61849 WT21     717      MECN     C2       CG1N1    0.360000       12.0110           0
     61850 WT21     717      MECN     N3       NG1T1   -0.460000       14.0070           0
     61851 WT21     729      MECN     C1       CG331   -0.170000       12.0110           0
     61852 WT21     729      MECN     H11      HGA3     0.090000        1.0080           0
     61853 WT21     729      MECN     H12      HGA3     0.090000        1.0080           0
     61854 WT21     729      MECN     H13      HGA3     0.090000        1.0080           0
     61855 WT21     729      MECN     C2       CG1N1    0.360000       12.0110           0
     61856 WT21     729      MECN     N3       NG1T1   -0.460000       14.0070           0
     61857 WT21     731      MECN     C1       CG331   -0.170000       12.0110           0
     61858 WT21     731      MECN     H11      HGA3     0.090000        1.0080           0
     61859 WT21     731      MECN     H12      HGA3     0.090000        1.0080           0
     61860 WT21     731      MECN     H13      HGA3     0.090000        1.0080           0
     61861 WT21     731      MECN     C2       CG1N1    0.360000       12.0110           0
     61862 WT21     731      MECN     N3       NG1T1   -0.460000       14.0070           0
     61863 WT21     733      MECN     C1       CG331   -0.170000       12.0110           0
     61864 WT21     733      MECN     H11      HGA3     0.090000        1.0080           0
     61865 WT21     733      MECN     H12      HGA3     0.090000        1.0080           0
     61866 WT21     733      MECN     H13      HGA3     0.090000        1.0080           0
     61867 WT21     733      MECN     C2       CG1N1    0.360000       12.0110           0
     61868 WT21     733      MECN     N3       NG1T1   -0.460000       14.0070           0
     61869 WT21     734      MECN     C1       CG331   -0.170000       12.0110           0
     61870 WT21     734      MECN     H11      HGA3     0.090000        1.0080           0
     61871 WT21     734      MECN     H12      HGA3     0.090000        1.0080           0
     61872 WT21     734      MECN     H13      HGA3     0.090000        1.0080           0
     61873 WT21     734      MECN     C2       CG1N1    0.360000       12.0110           0
     61874 WT21     734      MECN     N3       NG1T1   -0.460000       14.0070           0
     61875 WT21     736      MECN     C1       CG331   -0.170000       12.0110           0
     61876 WT21     736      MECN     H11      HGA3     0.090000        1.0080           0
     61877 WT21     736      MECN     H12      HGA3     0.090000        1.0080           0
     61878 WT21     736      MECN     H13      HGA3     0.090000        1.0080           0
     61879 WT21     736      MECN     C2       CG1N1    0.360000       12.0110           0
     61880 WT21     736      MECN     N3       NG1T1   -0.460000       14.0070           0
     61881 WT21     737      MECN     C1       CG331   -0.170000       12.0110           0
     61882 WT21     737      MECN     H11      HGA3     0.090000        1.0080           0
     61883 WT21     737      MECN     H12      HGA3     0.090000        1.0080           0
     61884 WT21     737      MECN     H13      HGA3     0.090000        1.0080           0
     61885 WT21     737      MECN     C2       CG1N1    0.360000       12.0110           0
     61886 WT21     737      MECN     N3       NG1T1   -0.460000       14.0070           0
     61887 WT21     741      MECN     C1       CG331   -0.170000       12.0110           0
     61888 WT21     741      MECN     H11      HGA3     0.090000        1.0080           0
     61889 WT21     741      MECN     H12      HGA3     0.090000        1.0080           0
     61890 WT21     741      MECN     H13      HGA3     0.090000        1.0080           0
     61891 WT21     741      MECN     C2       CG1N1    0.360000       12.0110           0
     61892 WT21     741      MECN     N3       NG1T1   -0.460000       14.0070           0
     61893 WT21     743      MECN     C1       CG331   -0.170000       12.0110           0
     61894 WT21     743      MECN     H11      HGA3     0.090000        1.0080           0
     61895 WT21     743      MECN     H12      HGA3     0.090000        1.0080           0
     61896 WT21     743      MECN     H13      HGA3     0.090000        1.0080           0
     61897 WT21     743      MECN     C2       CG1N1    0.360000       12.0110           0
     61898 WT21     743      MECN     N3       NG1T1   -0.460000       14.0070           0
     61899 WT21     744      MECN     C1       CG331   -0.170000       12.0110           0
     61900 WT21     744      MECN     H11      HGA3     0.090000        1.0080           0
     61901 WT21     744      MECN     H12      HGA3     0.090000        1.0080           0
     61902 WT21     744      MECN     H13      HGA3     0.090000        1.0080           0
     61903 WT21     744      MECN     C2       CG1N1    0.360000       12.0110           0
     61904 WT21     744      MECN     N3       NG1T1   -0.460000       14.0070           0
     61905 WT21     747      MECN     C1       CG331   -0.170000       12.0110           0
     61906 WT21     747      MECN     H11      HGA3     0.090000        1.0080           0
     61907 WT21     747      MECN     H12      HGA3     0.090000        1.0080           0
     61908 WT21     747      MECN     H13      HGA3     0.090000        1.0080           0
     61909 WT21     747      MECN     C2       CG1N1    0.360000       12.0110           0
     61910 WT21     747      MECN     N3       NG1T1   -0.460000       14.0070           0
     61911 WT21     750      MECN     C1       CG331   -0.170000       12.0110           0
     61912 WT21     750      MECN     H11      HGA3     0.090000        1.0080           0
     61913 WT21     750      MECN     H12      HGA3     0.090000        1.0080           0
     61914 WT21     750      MECN     H13      HGA3     0.090000        1.0080           0
     61915 WT21     750      MECN     C2       CG1N1    0.360000       12.0110           0
     61916 WT21     750      MECN     N3       NG1T1   -0.460000       14.0070           0
     61917 WT21     752      MECN     C1       CG331   -0.170000       12.0110           0
     61918 WT21     752      MECN     H11      HGA3     0.090000        1.0080           0
     61919 WT21     752      MECN     H12      HGA3     0.090000        1.0080           0
     61920 WT21     752      MECN     H13      HGA3     0.090000        1.0080           0
     61921 WT21     752      MECN     C2       CG1N1    0.360000       12.0110           0
     61922 WT21     752      MECN     N3       NG1T1   -0.460000       14.0070           0
     61923 WT21     754      MECN     C1       CG331   -0.170000       12.0110           0
     61924 WT21     754      MECN     H11      HGA3     0.090000        1.0080           0
     61925 WT21     754      MECN     H12      HGA3     0.090000        1.0080           0
     61926 WT21     754      MECN     H13      HGA3     0.090000        1.0080           0
     61927 WT21     754      MECN     C2       CG1N1    0.360000       12.0110           0
     61928 WT21     754      MECN     N3       NG1T1   -0.460000       14.0070           0
     61929 WT21     755      MECN     C1       CG331   -0.170000       12.0110           0
     61930 WT21     755      MECN     H11      HGA3     0.090000        1.0080           0
     61931 WT21     755      MECN     H12      HGA3     0.090000        1.0080           0
     61932 WT21     755      MECN     H13      HGA3     0.090000        1.0080           0
     61933 WT21     755      MECN     C2       CG1N1    0.360000       12.0110           0
     61934 WT21     755      MECN     N3       NG1T1   -0.460000       14.0070           0
     61935 WT21     756      MECN     C1       CG331   -0.170000       12.0110           0
     61936 WT21     756      MECN     H11      HGA3     0.090000        1.0080           0
     61937 WT21     756      MECN     H12      HGA3     0.090000        1.0080           0
     61938 WT21     756      MECN     H13      HGA3     0.090000        1.0080           0
     61939 WT21     756      MECN     C2       CG1N1    0.360000       12.0110           0
     61940 WT21     756      MECN     N3       NG1T1   -0.460000       14.0070           0
     61941 WT21     757      MECN     C1       CG331   -0.170000       12.0110           0
     61942 WT21     757      MECN     H11      HGA3     0.090000        1.0080           0
     61943 WT21     757      MECN     H12      HGA3     0.090000        1.0080           0
     61944 WT21     757      MECN     H13      HGA3     0.090000        1.0080           0
     61945 WT21     757      MECN     C2       CG1N1    0.360000       12.0110           0
     61946 WT21     757      MECN     N3       NG1T1   -0.460000       14.0070           0
     61947 WT21     761      MECN     C1       CG331   -0.170000       12.0110           0
     61948 WT21     761      MECN     H11      HGA3     0.090000        1.0080           0
     61949 WT21     761      MECN     H12      HGA3     0.090000        1.0080           0
     61950 WT21     761      MECN     H13      HGA3     0.090000        1.0080           0
     61951 WT21     761      MECN     C2       CG1N1    0.360000       12.0110           0
     61952 WT21     761      MECN     N3       NG1T1   -0.460000       14.0070           0
     61953 WT21     763      MECN     C1       CG331   -0.170000       12.0110           0
     61954 WT21     763      MECN     H11      HGA3     0.090000        1.0080           0
     61955 WT21     763      MECN     H12      HGA3     0.090000        1.0080           0
     61956 WT21     763      MECN     H13      HGA3     0.090000        1.0080           0
     61957 WT21     763      MECN     C2       CG1N1    0.360000       12.0110           0
     61958 WT21     763      MECN     N3       NG1T1   -0.460000       14.0070           0
     61959 WT21     775      MECN     C1       CG331   -0.170000       12.0110           0
     61960 WT21     775      MECN     H11      HGA3     0.090000        1.0080           0
     61961 WT21     775      MECN     H12      HGA3     0.090000        1.0080           0
     61962 WT21     775      MECN     H13      HGA3     0.090000        1.0080           0
     61963 WT21     775      MECN     C2       CG1N1    0.360000       12.0110           0
     61964 WT21     775      MECN     N3       NG1T1   -0.460000       14.0070           0
     61965 WT21     777      MECN     C1       CG331   -0.170000       12.0110           0
     61966 WT21     777      MECN     H11      HGA3     0.090000        1.0080           0
     61967 WT21     777      MECN     H12      HGA3     0.090000        1.0080           0
     61968 WT21     777      MECN     H13      HGA3     0.090000        1.0080           0
     61969 WT21     777      MECN     C2       CG1N1    0.360000       12.0110           0
     61970 WT21     777      MECN     N3       NG1T1   -0.460000       14.0070           0
     61971 WT21     782      MECN     C1       CG331   -0.170000       12.0110           0
     61972 WT21     782      MECN     H11      HGA3     0.090000        1.0080           0
     61973 WT21     782      MECN     H12      HGA3     0.090000        1.0080           0
     61974 WT21     782      MECN     H13      HGA3     0.090000        1.0080           0
     61975 WT21     782      MECN     C2       CG1N1    0.360000       12.0110           0
     61976 WT21     782      MECN     N3       NG1T1   -0.460000       14.0070           0
     61977 WT21     789      MECN     C1       CG331   -0.170000       12.0110           0
     61978 WT21     789      MECN     H11      HGA3     0.090000        1.0080           0
     61979 WT21     789      MECN     H12      HGA3     0.090000        1.0080           0
     61980 WT21     789      MECN     H13      HGA3     0.090000        1.0080           0
     61981 WT21     789      MECN     C2       CG1N1    0.360000       12.0110           0
     61982 WT21     789      MECN     N3       NG1T1   -0.460000       14.0070           0
     61983 WT21     795      MECN     C1       CG331   -0.170000       12.0110           0
     61984 WT21     795      MECN     H11      HGA3     0.090000        1.0080           0
     61985 WT21     795      MECN     H12      HGA3     0.090000        1.0080           0
     61986 WT21     795      MECN     H13      HGA3     0.090000        1.0080           0
     61987 WT21     795      MECN     C2       CG1N1    0.360000       12.0110           0
     61988 WT21     795      MECN     N3       NG1T1   -0.460000       14.0070           0
     61989 WT21     800      MECN     C1       CG331   -0.170000       12.0110           0
     61990 WT21     800      MECN     H11      HGA3     0.090000        1.0080           0
     61991 WT21     800      MECN     H12      HGA3     0.090000        1.0080           0
     61992 WT21     800      MECN     H13      HGA3     0.090000        1.0080           0
     61993 WT21     800      MECN     C2       CG1N1    0.360000       12.0110           0
     61994 WT21     800      MECN     N3       NG1T1   -0.460000       14.0070           0
     61995 WT21     801      MECN     C1       CG331   -0.170000       12.0110           0
     61996 WT21     801      MECN     H11      HGA3     0.090000        1.0080           0
     61997 WT21     801      MECN     H12      HGA3     0.090000        1.0080           0
     61998 WT21     801      MECN     H13      HGA3     0.090000        1.0080           0
     61999 WT21     801      MECN     C2       CG1N1    0.360000       12.0110           0
     62000 WT21     801      MECN     N3       NG1T1   -0.460000       14.0070           0
     62001 WT21     803      MECN     C1       CG331   -0.170000       12.0110           0
     62002 WT21     803      MECN     H11      HGA3     0.090000        1.0080           0
     62003 WT21     803      MECN     H12      HGA3     0.090000        1.0080           0
     62004 WT21     803      MECN     H13      HGA3     0.090000        1.0080           0
     62005 WT21     803      MECN     C2       CG1N1    0.360000       12.0110           0
     62006 WT21     803      MECN     N3       NG1T1   -0.460000       14.0070           0
     62007 WT21     810      MECN     C1       CG331   -0.170000       12.0110           0
     62008 WT21     810      MECN     H11      HGA3     0.090000        1.0080           0
     62009 WT21     810      MECN     H12      HGA3     0.090000        1.0080           0
     62010 WT21     810      MECN     H13      HGA3     0.090000        1.0080           0
     62011 WT21     810      MECN     C2       CG1N1    0.360000       12.0110           0
     62012 WT21     810      MECN     N3       NG1T1   -0.460000       14.0070           0
     62013 WT21     814      MECN     C1       CG331   -0.170000       12.0110           0
     62014 WT21     814      MECN     H11      HGA3     0.090000        1.0080           0
     62015 WT21     814      MECN     H12      HGA3     0.090000        1.0080           0
     62016 WT21     814      MECN     H13      HGA3     0.090000        1.0080           0
     62017 WT21     814      MECN     C2       CG1N1    0.360000       12.0110           0
     62018 WT21     814      MECN     N3       NG1T1   -0.460000       14.0070           0
     62019 WT21     822      MECN     C1       CG331   -0.170000       12.0110           0
     62020 WT21     822      MECN     H11      HGA3     0.090000        1.0080           0
     62021 WT21     822      MECN     H12      HGA3     0.090000        1.0080           0
     62022 WT21     822      MECN     H13      HGA3     0.090000        1.0080           0
     62023 WT21     822      MECN     C2       CG1N1    0.360000       12.0110           0
     62024 WT21     822      MECN     N3       NG1T1   -0.460000       14.0070           0
     62025 WT21     829      MECN     C1       CG331   -0.170000       12.0110           0
     62026 WT21     829      MECN     H11      HGA3     0.090000        1.0080           0
     62027 WT21     829      MECN     H12      HGA3     0.090000        1.0080           0
     62028 WT21     829      MECN     H13      HGA3     0.090000        1.0080           0
     62029 WT21     829      MECN     C2       CG1N1    0.360000       12.0110           0
     62030 WT21     829      MECN     N3       NG1T1   -0.460000       14.0070           0
     62031 WT21     831      MECN     C1       CG331   -0.170000       12.0110           0
     62032 WT21     831      MECN     H11      HGA3     0.090000        1.0080           0
     62033 WT21     831      MECN     H12      HGA3     0.090000        1.0080           0
     62034 WT21     831      MECN     H13      HGA3     0.090000        1.0080           0
     62035 WT21     831      MECN     C2       CG1N1    0.360000       12.0110           0
     62036 WT21     831      MECN     N3       NG1T1   -0.460000       14.0070           0
     62037 WT21     838      MECN     C1       CG331   -0.170000       12.0110           0
     62038 WT21     838      MECN     H11      HGA3     0.090000        1.0080           0
     62039 WT21     838      MECN     H12      HGA3     0.090000        1.0080           0
     62040 WT21     838      MECN     H13      HGA3     0.090000        1.0080           0
     62041 WT21     838      MECN     C2       CG1N1    0.360000       12.0110           0
     62042 WT21     838      MECN     N3       NG1T1   -0.460000       14.0070           0
     62043 WT21     842      MECN     C1       CG331   -0.170000       12.0110           0
     62044 WT21     842      MECN     H11      HGA3     0.090000        1.0080           0
     62045 WT21     842      MECN     H12      HGA3     0.090000        1.0080           0
     62046 WT21     842      MECN     H13      HGA3     0.090000        1.0080           0
     62047 WT21     842      MECN     C2       CG1N1    0.360000       12.0110           0
     62048 WT21     842      MECN     N3       NG1T1   -0.460000       14.0070           0
     62049 WT21     844      MECN     C1       CG331   -0.170000       12.0110           0
     62050 WT21     844      MECN     H11      HGA3     0.090000        1.0080           0
     62051 WT21     844      MECN     H12      HGA3     0.090000        1.0080           0
     62052 WT21     844      MECN     H13      HGA3     0.090000        1.0080           0
     62053 WT21     844      MECN     C2       CG1N1    0.360000       12.0110           0
     62054 WT21     844      MECN     N3       NG1T1   -0.460000       14.0070           0
     62055 WT21     850      MECN     C1       CG331   -0.170000       12.0110           0
     62056 WT21     850      MECN     H11      HGA3     0.090000        1.0080           0
     62057 WT21     850      MECN     H12      HGA3     0.090000        1.0080           0
     62058 WT21     850      MECN     H13      HGA3     0.090000        1.0080           0
     62059 WT21     850      MECN     C2       CG1N1    0.360000       12.0110           0
     62060 WT21     850      MECN     N3       NG1T1   -0.460000       14.0070           0
     62061 WT21     851      MECN     C1       CG331   -0.170000       12.0110           0
     62062 WT21     851      MECN     H11      HGA3     0.090000        1.0080           0
     62063 WT21     851      MECN     H12      HGA3     0.090000        1.0080           0
     62064 WT21     851      MECN     H13      HGA3     0.090000        1.0080           0
     62065 WT21     851      MECN     C2       CG1N1    0.360000       12.0110           0
     62066 WT21     851      MECN     N3       NG1T1   -0.460000       14.0070           0
     62067 WT21     859      MECN     C1       CG331   -0.170000       12.0110           0
     62068 WT21     859      MECN     H11      HGA3     0.090000        1.0080           0
     62069 WT21     859      MECN     H12      HGA3     0.090000        1.0080           0
     62070 WT21     859      MECN     H13      HGA3     0.090000        1.0080           0
     62071 WT21     859      MECN     C2       CG1N1    0.360000       12.0110           0
     62072 WT21     859      MECN     N3       NG1T1   -0.460000       14.0070           0
     62073 WT21     861      MECN     C1       CG331   -0.170000       12.0110           0
     62074 WT21     861      MECN     H11      HGA3     0.090000        1.0080           0
     62075 WT21     861      MECN     H12      HGA3     0.090000        1.0080           0
     62076 WT21     861      MECN     H13      HGA3     0.090000        1.0080           0
     62077 WT21     861      MECN     C2       CG1N1    0.360000       12.0110           0
     62078 WT21     861      MECN     N3       NG1T1   -0.460000       14.0070           0
     62079 WT21     868      MECN     C1       CG331   -0.170000       12.0110           0
     62080 WT21     868      MECN     H11      HGA3     0.090000        1.0080           0
     62081 WT21     868      MECN     H12      HGA3     0.090000        1.0080           0
     62082 WT21     868      MECN     H13      HGA3     0.090000        1.0080           0
     62083 WT21     868      MECN     C2       CG1N1    0.360000       12.0110           0
     62084 WT21     868      MECN     N3       NG1T1   -0.460000       14.0070           0
     62085 WT21     871      MECN     C1       CG331   -0.170000       12.0110           0
     62086 WT21     871      MECN     H11      HGA3     0.090000        1.0080           0
     62087 WT21     871      MECN     H12      HGA3     0.090000        1.0080           0
     62088 WT21     871      MECN     H13      HGA3     0.090000        1.0080           0
     62089 WT21     871      MECN     C2       CG1N1    0.360000       12.0110           0
     62090 WT21     871      MECN     N3       NG1T1   -0.460000       14.0070           0
     62091 WT21     873      MECN     C1       CG331   -0.170000       12.0110           0
     62092 WT21     873      MECN     H11      HGA3     0.090000        1.0080           0
     62093 WT21     873      MECN     H12      HGA3     0.090000        1.0080           0
     62094 WT21     873      MECN     H13      HGA3     0.090000        1.0080           0
     62095 WT21     873      MECN     C2       CG1N1    0.360000       12.0110           0
     62096 WT21     873      MECN     N3       NG1T1   -0.460000       14.0070           0
     62097 WT21     879      MECN     C1       CG331   -0.170000       12.0110           0
     62098 WT21     879      MECN     H11      HGA3     0.090000        1.0080           0
     62099 WT21     879      MECN     H12      HGA3     0.090000        1.0080           0
     62100 WT21     879      MECN     H13      HGA3     0.090000        1.0080           0
     62101 WT21     879      MECN     C2       CG1N1    0.360000       12.0110           0
     62102 WT21     879      MECN     N3       NG1T1   -0.460000       14.0070           0
     62103 WT21     883      MECN     C1       CG331   -0.170000       12.0110           0
     62104 WT21     883      MECN     H11      HGA3     0.090000        1.0080           0
     62105 WT21     883      MECN     H12      HGA3     0.090000        1.0080           0
     62106 WT21     883      MECN     H13      HGA3     0.090000        1.0080           0
     62107 WT21     883      MECN     C2       CG1N1    0.360000       12.0110           0
     62108 WT21     883      MECN     N3       NG1T1   -0.460000       14.0070           0
     62109 WT21     887      MECN     C1       CG331   -0.170000       12.0110           0
     62110 WT21     887      MECN     H11      HGA3     0.090000        1.0080           0
     62111 WT21     887      MECN     H12      HGA3     0.090000        1.0080           0
     62112 WT21     887      MECN     H13      HGA3     0.090000        1.0080           0
     62113 WT21     887      MECN     C2       CG1N1    0.360000       12.0110           0
     62114 WT21     887      MECN     N3       NG1T1   -0.460000       14.0070           0
     62115 WT21     889      MECN     C1       CG331   -0.170000       12.0110           0
     62116 WT21     889      MECN     H11      HGA3     0.090000        1.0080           0
     62117 WT21     889      MECN     H12      HGA3     0.090000        1.0080           0
     62118 WT21     889      MECN     H13      HGA3     0.090000        1.0080           0
     62119 WT21     889      MECN     C2       CG1N1    0.360000       12.0110           0
     62120 WT21     889      MECN     N3       NG1T1   -0.460000       14.0070           0
     62121 WT21     890      MECN     C1       CG331   -0.170000       12.0110           0
     62122 WT21     890      MECN     H11      HGA3     0.090000        1.0080           0
     62123 WT21     890      MECN     H12      HGA3     0.090000        1.0080           0
     62124 WT21     890      MECN     H13      HGA3     0.090000        1.0080           0
     62125 WT21     890      MECN     C2       CG1N1    0.360000       12.0110           0
     62126 WT21     890      MECN     N3       NG1T1   -0.460000       14.0070           0
     62127 WT21     893      MECN     C1       CG331   -0.170000       12.0110           0
     62128 WT21     893      MECN     H11      HGA3     0.090000        1.0080           0
     62129 WT21     893      MECN     H12      HGA3     0.090000        1.0080           0
     62130 WT21     893      MECN     H13      HGA3     0.090000        1.0080           0
     62131 WT21     893      MECN     C2       CG1N1    0.360000       12.0110           0
     62132 WT21     893      MECN     N3       NG1T1   -0.460000       14.0070           0
     62133 WT21     894      MECN     C1       CG331   -0.170000       12.0110           0
     62134 WT21     894      MECN     H11      HGA3     0.090000        1.0080           0
     62135 WT21     894      MECN     H12      HGA3     0.090000        1.0080           0
     62136 WT21     894      MECN     H13      HGA3     0.090000        1.0080           0
     62137 WT21     894      MECN     C2       CG1N1    0.360000       12.0110           0
     62138 WT21     894      MECN     N3       NG1T1   -0.460000       14.0070           0
     62139 WT21     896      MECN     C1       CG331   -0.170000       12.0110           0
     62140 WT21     896      MECN     H11      HGA3     0.090000        1.0080           0
     62141 WT21     896      MECN     H12      HGA3     0.090000        1.0080           0
     62142 WT21     896      MECN     H13      HGA3     0.090000        1.0080           0
     62143 WT21     896      MECN     C2       CG1N1    0.360000       12.0110           0
     62144 WT21     896      MECN     N3       NG1T1   -0.460000       14.0070           0
     62145 WT21     900      MECN     C1       CG331   -0.170000       12.0110           0
     62146 WT21     900      MECN     H11      HGA3     0.090000        1.0080           0
     62147 WT21     900      MECN     H12      HGA3     0.090000        1.0080           0
     62148 WT21     900      MECN     H13      HGA3     0.090000        1.0080           0
     62149 WT21     900      MECN     C2       CG1N1    0.360000       12.0110           0
     62150 WT21     900      MECN     N3       NG1T1   -0.460000       14.0070           0
     62151 WT21     901      MECN     C1       CG331   -0.170000       12.0110           0
     62152 WT21     901      MECN     H11      HGA3     0.090000        1.0080           0
     62153 WT21     901      MECN     H12      HGA3     0.090000        1.0080           0
     62154 WT21     901      MECN     H13      HGA3     0.090000        1.0080           0
     62155 WT21     901      MECN     C2       CG1N1    0.360000       12.0110           0
     62156 WT21     901      MECN     N3       NG1T1   -0.460000       14.0070           0
     62157 WT21     902      MECN     C1       CG331   -0.170000       12.0110           0
     62158 WT21     902      MECN     H11      HGA3     0.090000        1.0080           0
     62159 WT21     902      MECN     H12      HGA3     0.090000        1.0080           0
     62160 WT21     902      MECN     H13      HGA3     0.090000        1.0080           0
     62161 WT21     902      MECN     C2       CG1N1    0.360000       12.0110           0
     62162 WT21     902      MECN     N3       NG1T1   -0.460000       14.0070           0
     62163 WT21     904      MECN     C1       CG331   -0.170000       12.0110           0
     62164 WT21     904      MECN     H11      HGA3     0.090000        1.0080           0
     62165 WT21     904      MECN     H12      HGA3     0.090000        1.0080           0
     62166 WT21     904      MECN     H13      HGA3     0.090000        1.0080           0
     62167 WT21     904      MECN     C2       CG1N1    0.360000       12.0110           0
     62168 WT21     904      MECN     N3       NG1T1   -0.460000       14.0070           0
     62169 WT21     906      MECN     C1       CG331   -0.170000       12.0110           0
     62170 WT21     906      MECN     H11      HGA3     0.090000        1.0080           0
     62171 WT21     906      MECN     H12      HGA3     0.090000        1.0080           0
     62172 WT21     906      MECN     H13      HGA3     0.090000        1.0080           0
     62173 WT21     906      MECN     C2       CG1N1    0.360000       12.0110           0
     62174 WT21     906      MECN     N3       NG1T1   -0.460000       14.0070           0
     62175 WT21     907      MECN     C1       CG331   -0.170000       12.0110           0
     62176 WT21     907      MECN     H11      HGA3     0.090000        1.0080           0
     62177 WT21     907      MECN     H12      HGA3     0.090000        1.0080           0
     62178 WT21     907      MECN     H13      HGA3     0.090000        1.0080           0
     62179 WT21     907      MECN     C2       CG1N1    0.360000       12.0110           0
     62180 WT21     907      MECN     N3       NG1T1   -0.460000       14.0070           0
     62181 WT21     912      MECN     C1       CG331   -0.170000       12.0110           0
     62182 WT21     912      MECN     H11      HGA3     0.090000        1.0080           0
     62183 WT21     912      MECN     H12      HGA3     0.090000        1.0080           0
     62184 WT21     912      MECN     H13      HGA3     0.090000        1.0080           0
     62185 WT21     912      MECN     C2       CG1N1    0.360000       12.0110           0
     62186 WT21     912      MECN     N3       NG1T1   -0.460000       14.0070           0
     62187 WT21     925      MECN     C1       CG331   -0.170000       12.0110           0
     62188 WT21     925      MECN     H11      HGA3     0.090000        1.0080           0
     62189 WT21     925      MECN     H12      HGA3     0.090000        1.0080           0
     62190 WT21     925      MECN     H13      HGA3     0.090000        1.0080           0
     62191 WT21     925      MECN     C2       CG1N1    0.360000       12.0110           0
     62192 WT21     925      MECN     N3       NG1T1   -0.460000       14.0070           0
     62193 WT21     934      MECN     C1       CG331   -0.170000       12.0110           0
     62194 WT21     934      MECN     H11      HGA3     0.090000        1.0080           0
     62195 WT21     934      MECN     H12      HGA3     0.090000        1.0080           0
     62196 WT21     934      MECN     H13      HGA3     0.090000        1.0080           0
     62197 WT21     934      MECN     C2       CG1N1    0.360000       12.0110           0
     62198 WT21     934      MECN     N3       NG1T1   -0.460000       14.0070           0
     62199 WT21     940      MECN     C1       CG331   -0.170000       12.0110           0
     62200 WT21     940      MECN     H11      HGA3     0.090000        1.0080           0
     62201 WT21     940      MECN     H12      HGA3     0.090000        1.0080           0
     62202 WT21     940      MECN     H13      HGA3     0.090000        1.0080           0
     62203 WT21     940      MECN     C2       CG1N1    0.360000       12.0110           0
     62204 WT21     940      MECN     N3       NG1T1   -0.460000       14.0070           0
     62205 WT21     959      MECN     C1       CG331   -0.170000       12.0110           0
     62206 WT21     959      MECN     H11      HGA3     0.090000        1.0080           0
     62207 WT21     959      MECN     H12      HGA3     0.090000        1.0080           0
     62208 WT21     959      MECN     H13      HGA3     0.090000        1.0080           0
     62209 WT21     959      MECN     C2       CG1N1    0.360000       12.0110           0
     62210 WT21     959      MECN     N3       NG1T1   -0.460000       14.0070           0
     62211 WT21     971      MECN     C1       CG331   -0.170000       12.0110           0
     62212 WT21     971      MECN     H11      HGA3     0.090000        1.0080           0
     62213 WT21     971      MECN     H12      HGA3     0.090000        1.0080           0
     62214 WT21     971      MECN     H13      HGA3     0.090000        1.0080           0
     62215 WT21     971      MECN     C2       CG1N1    0.360000       12.0110           0
     62216 WT21     971      MECN     N3       NG1T1   -0.460000       14.0070           0
     62217 WT21     973      MECN     C1       CG331   -0.170000       12.0110           0
     62218 WT21     973      MECN     H11      HGA3     0.090000        1.0080           0
     62219 WT21     973      MECN     H12      HGA3     0.090000        1.0080           0
     62220 WT21     973      MECN     H13      HGA3     0.090000        1.0080           0
     62221 WT21     973      MECN     C2       CG1N1    0.360000       12.0110           0
     62222 WT21     973      MECN     N3       NG1T1   -0.460000       14.0070           0
     62223 WT21     976      MECN     C1       CG331   -0.170000       12.0110           0
     62224 WT21     976      MECN     H11      HGA3     0.090000        1.0080           0
     62225 WT21     976      MECN     H12      HGA3     0.090000        1.0080           0
     62226 WT21     976      MECN     H13      HGA3     0.090000        1.0080           0
     62227 WT21     976      MECN     C2       CG1N1    0.360000       12.0110           0
     62228 WT21     976      MECN     N3       NG1T1   -0.460000       14.0070           0
     62229 WT21     979      MECN     C1       CG331   -0.170000       12.0110           0
     62230 WT21     979      MECN     H11      HGA3     0.090000        1.0080           0
     62231 WT21     979      MECN     H12      HGA3     0.090000        1.0080           0
     62232 WT21     979      MECN     H13      HGA3     0.090000        1.0080           0
     62233 WT21     979      MECN     C2       CG1N1    0.360000       12.0110           0
     62234 WT21     979      MECN     N3       NG1T1   -0.460000       14.0070           0
     62235 WT21     1000     MECN     C1       CG331   -0.170000       12.0110           0
     62236 WT21     1000     MECN     H11      HGA3     0.090000        1.0080           0
     62237 WT21     1000     MECN     H12      HGA3     0.090000        1.0080           0
     62238 WT21     1000     MECN     H13      HGA3     0.090000        1.0080           0
     62239 WT21     1000     MECN     C2       CG1N1    0.360000       12.0110           0
     62240 WT21     1000     MECN     N3       NG1T1   -0.460000       14.0070           0
     62241 WT21     1002     MECN     C1       CG331   -0.170000       12.0110           0
     62242 WT21     1002     MECN     H11      HGA3     0.090000        1.0080           0
     62243 WT21     1002     MECN     H12      HGA3     0.090000        1.0080           0
     62244 WT21     1002     MECN     H13      HGA3     0.090000        1.0080           0
     62245 WT21     1002     MECN     C2       CG1N1    0.360000       12.0110           0
     62246 WT21     1002     MECN     N3       NG1T1   -0.460000       14.0070           0
     62247 WT21     1003     MECN     C1       CG331   -0.170000       12.0110           0
     62248 WT21     1003     MECN     H11      HGA3     0.090000        1.0080           0
     62249 WT21     1003     MECN     H12      HGA3     0.090000        1.0080           0
     62250 WT21     1003     MECN     H13      HGA3     0.090000        1.0080           0
     62251 WT21     1003     MECN     C2       CG1N1    0.360000       12.0110           0
     62252 WT21     1003     MECN     N3       NG1T1   -0.460000       14.0070           0
     62253 WT21     1005     MECN     C1       CG331   -0.170000       12.0110           0
     62254 WT21     1005     MECN     H11      HGA3     0.090000        1.0080           0
     62255 WT21     1005     MECN     H12      HGA3     0.090000        1.0080           0
     62256 WT21     1005     MECN     H13      HGA3     0.090000        1.0080           0
     62257 WT21     1005     MECN     C2       CG1N1    0.360000       12.0110           0
     62258 WT21     1005     MECN     N3       NG1T1   -0.460000       14.0070           0
     62259 WT21     1006     MECN     C1       CG331   -0.170000       12.0110           0
     62260 WT21     1006     MECN     H11      HGA3     0.090000        1.0080           0
     62261 WT21     1006     MECN     H12      HGA3     0.090000        1.0080           0
     62262 WT21     1006     MECN     H13      HGA3     0.090000        1.0080           0
     62263 WT21     1006     MECN     C2       CG1N1    0.360000       12.0110           0
     62264 WT21     1006     MECN     N3       NG1T1   -0.460000       14.0070           0
     62265 WT21     1017     MECN     C1       CG331   -0.170000       12.0110           0
     62266 WT21     1017     MECN     H11      HGA3     0.090000        1.0080           0
     62267 WT21     1017     MECN     H12      HGA3     0.090000        1.0080           0
     62268 WT21     1017     MECN     H13      HGA3     0.090000        1.0080           0
     62269 WT21     1017     MECN     C2       CG1N1    0.360000       12.0110           0
     62270 WT21     1017     MECN     N3       NG1T1   -0.460000       14.0070           0
     62271 WT21     1028     MECN     C1       CG331   -0.170000       12.0110           0
     62272 WT21     1028     MECN     H11      HGA3     0.090000        1.0080           0
     62273 WT21     1028     MECN     H12      HGA3     0.090000        1.0080           0
     62274 WT21     1028     MECN     H13      HGA3     0.090000        1.0080           0
     62275 WT21     1028     MECN     C2       CG1N1    0.360000       12.0110           0
     62276 WT21     1028     MECN     N3       NG1T1   -0.460000       14.0070           0
     62277 WT21     1042     MECN     C1       CG331   -0.170000       12.0110           0
     62278 WT21     1042     MECN     H11      HGA3     0.090000        1.0080           0
     62279 WT21     1042     MECN     H12      HGA3     0.090000        1.0080           0
     62280 WT21     1042     MECN     H13      HGA3     0.090000        1.0080           0
     62281 WT21     1042     MECN     C2       CG1N1    0.360000       12.0110           0
     62282 WT21     1042     MECN     N3       NG1T1   -0.460000       14.0070           0
     62283 WT21     1049     MECN     C1       CG331   -0.170000       12.0110           0
     62284 WT21     1049     MECN     H11      HGA3     0.090000        1.0080           0
     62285 WT21     1049     MECN     H12      HGA3     0.090000        1.0080           0
     62286 WT21     1049     MECN     H13      HGA3     0.090000        1.0080           0
     62287 WT21     1049     MECN     C2       CG1N1    0.360000       12.0110           0
     62288 WT21     1049     MECN     N3       NG1T1   -0.460000       14.0070           0
     62289 WT21     1054     MECN     C1       CG331   -0.170000       12.0110           0
     62290 WT21     1054     MECN     H11      HGA3     0.090000        1.0080           0
     62291 WT21     1054     MECN     H12      HGA3     0.090000        1.0080           0
     62292 WT21     1054     MECN     H13      HGA3     0.090000        1.0080           0
     62293 WT21     1054     MECN     C2       CG1N1    0.360000       12.0110           0
     62294 WT21     1054     MECN     N3       NG1T1   -0.460000       14.0070           0
     62295 WT21     1059     MECN     C1       CG331   -0.170000       12.0110           0
     62296 WT21     1059     MECN     H11      HGA3     0.090000        1.0080           0
     62297 WT21     1059     MECN     H12      HGA3     0.090000        1.0080           0
     62298 WT21     1059     MECN     H13      HGA3     0.090000        1.0080           0
     62299 WT21     1059     MECN     C2       CG1N1    0.360000       12.0110           0
     62300 WT21     1059     MECN     N3       NG1T1   -0.460000       14.0070           0
     62301 WT21     1061     MECN     C1       CG331   -0.170000       12.0110           0
     62302 WT21     1061     MECN     H11      HGA3     0.090000        1.0080           0
     62303 WT21     1061     MECN     H12      HGA3     0.090000        1.0080           0
     62304 WT21     1061     MECN     H13      HGA3     0.090000        1.0080           0
     62305 WT21     1061     MECN     C2       CG1N1    0.360000       12.0110           0
     62306 WT21     1061     MECN     N3       NG1T1   -0.460000       14.0070           0
     62307 WT21     1070     MECN     C1       CG331   -0.170000       12.0110           0
     62308 WT21     1070     MECN     H11      HGA3     0.090000        1.0080           0
     62309 WT21     1070     MECN     H12      HGA3     0.090000        1.0080           0
     62310 WT21     1070     MECN     H13      HGA3     0.090000        1.0080           0
     62311 WT21     1070     MECN     C2       CG1N1    0.360000       12.0110           0
     62312 WT21     1070     MECN     N3       NG1T1   -0.460000       14.0070           0
     62313 WT21     1083     MECN     C1       CG331   -0.170000       12.0110           0
     62314 WT21     1083     MECN     H11      HGA3     0.090000        1.0080           0
     62315 WT21     1083     MECN     H12      HGA3     0.090000        1.0080           0
     62316 WT21     1083     MECN     H13      HGA3     0.090000        1.0080           0
     62317 WT21     1083     MECN     C2       CG1N1    0.360000       12.0110           0
     62318 WT21     1083     MECN     N3       NG1T1   -0.460000       14.0070           0
     62319 WT21     1096     MECN     C1       CG331   -0.170000       12.0110           0
     62320 WT21     1096     MECN     H11      HGA3     0.090000        1.0080           0
     62321 WT21     1096     MECN     H12      HGA3     0.090000        1.0080           0
     62322 WT21     1096     MECN     H13      HGA3     0.090000        1.0080           0
     62323 WT21     1096     MECN     C2       CG1N1    0.360000       12.0110           0
     62324 WT21     1096     MECN     N3       NG1T1   -0.460000       14.0070           0
     62325 WT21     1099     MECN     C1       CG331   -0.170000       12.0110           0
     62326 WT21     1099     MECN     H11      HGA3     0.090000        1.0080           0
     62327 WT21     1099     MECN     H12      HGA3     0.090000        1.0080           0
     62328 WT21     1099     MECN     H13      HGA3     0.090000        1.0080           0
     62329 WT21     1099     MECN     C2       CG1N1    0.360000       12.0110           0
     62330 WT21     1099     MECN     N3       NG1T1   -0.460000       14.0070           0
     62331 WT21     1100     MECN     C1       CG331   -0.170000       12.0110           0
     62332 WT21     1100     MECN     H11      HGA3     0.090000        1.0080           0
     62333 WT21     1100     MECN     H12      HGA3     0.090000        1.0080           0
     62334 WT21     1100     MECN     H13      HGA3     0.090000        1.0080           0
     62335 WT21     1100     MECN     C2       CG1N1    0.360000       12.0110           0
     62336 WT21     1100     MECN     N3       NG1T1   -0.460000       14.0070           0
     62337 WT21     1101     MECN     C1       CG331   -0.170000       12.0110           0
     62338 WT21     1101     MECN     H11      HGA3     0.090000        1.0080           0
     62339 WT21     1101     MECN     H12      HGA3     0.090000        1.0080           0
     62340 WT21     1101     MECN     H13      HGA3     0.090000        1.0080           0
     62341 WT21     1101     MECN     C2       CG1N1    0.360000       12.0110           0
     62342 WT21     1101     MECN     N3       NG1T1   -0.460000       14.0070           0
     62343 WT21     1105     MECN     C1       CG331   -0.170000       12.0110           0
     62344 WT21     1105     MECN     H11      HGA3     0.090000        1.0080           0
     62345 WT21     1105     MECN     H12      HGA3     0.090000        1.0080           0
     62346 WT21     1105     MECN     H13      HGA3     0.090000        1.0080           0
     62347 WT21     1105     MECN     C2       CG1N1    0.360000       12.0110           0
     62348 WT21     1105     MECN     N3       NG1T1   -0.460000       14.0070           0
     62349 WT21     1110     MECN     C1       CG331   -0.170000       12.0110           0
     62350 WT21     1110     MECN     H11      HGA3     0.090000        1.0080           0
     62351 WT21     1110     MECN     H12      HGA3     0.090000        1.0080           0
     62352 WT21     1110     MECN     H13      HGA3     0.090000        1.0080           0
     62353 WT21     1110     MECN     C2       CG1N1    0.360000       12.0110           0
     62354 WT21     1110     MECN     N3       NG1T1   -0.460000       14.0070           0
     62355 WT21     1112     MECN     C1       CG331   -0.170000       12.0110           0
     62356 WT21     1112     MECN     H11      HGA3     0.090000        1.0080           0
     62357 WT21     1112     MECN     H12      HGA3     0.090000        1.0080           0
     62358 WT21     1112     MECN     H13      HGA3     0.090000        1.0080           0
     62359 WT21     1112     MECN     C2       CG1N1    0.360000       12.0110           0
     62360 WT21     1112     MECN     N3       NG1T1   -0.460000       14.0070           0
     62361 WT21     1113     MECN     C1       CG331   -0.170000       12.0110           0
     62362 WT21     1113     MECN     H11      HGA3     0.090000        1.0080           0
     62363 WT21     1113     MECN     H12      HGA3     0.090000        1.0080           0
     62364 WT21     1113     MECN     H13      HGA3     0.090000        1.0080           0
     62365 WT21     1113     MECN     C2       CG1N1    0.360000       12.0110           0
     62366 WT21     1113     MECN     N3       NG1T1   -0.460000       14.0070           0
     62367 WT21     1121     MECN     C1       CG331   -0.170000       12.0110           0
     62368 WT21     1121     MECN     H11      HGA3     0.090000        1.0080           0
     62369 WT21     1121     MECN     H12      HGA3     0.090000        1.0080           0
     62370 WT21     1121     MECN     H13      HGA3     0.090000        1.0080           0
     62371 WT21     1121     MECN     C2       CG1N1    0.360000       12.0110           0
     62372 WT21     1121     MECN     N3       NG1T1   -0.460000       14.0070           0
     62373 WT21     1127     MECN     C1       CG331   -0.170000       12.0110           0
     62374 WT21     1127     MECN     H11      HGA3     0.090000        1.0080           0
     62375 WT21     1127     MECN     H12      HGA3     0.090000        1.0080           0
     62376 WT21     1127     MECN     H13      HGA3     0.090000        1.0080           0
     62377 WT21     1127     MECN     C2       CG1N1    0.360000       12.0110           0
     62378 WT21     1127     MECN     N3       NG1T1   -0.460000       14.0070           0
     62379 WT21     1129     MECN     C1       CG331   -0.170000       12.0110           0
     62380 WT21     1129     MECN     H11      HGA3     0.090000        1.0080           0
     62381 WT21     1129     MECN     H12      HGA3     0.090000        1.0080           0
     62382 WT21     1129     MECN     H13      HGA3     0.090000        1.0080           0
     62383 WT21     1129     MECN     C2       CG1N1    0.360000       12.0110           0
     62384 WT21     1129     MECN     N3       NG1T1   -0.460000       14.0070           0
     62385 WT21     1134     MECN     C1       CG331   -0.170000       12.0110           0
     62386 WT21     1134     MECN     H11      HGA3     0.090000        1.0080           0
     62387 WT21     1134     MECN     H12      HGA3     0.090000        1.0080           0
     62388 WT21     1134     MECN     H13      HGA3     0.090000        1.0080           0
     62389 WT21     1134     MECN     C2       CG1N1    0.360000       12.0110           0
     62390 WT21     1134     MECN     N3       NG1T1   -0.460000       14.0070           0
     62391 WT21     1138     MECN     C1       CG331   -0.170000       12.0110           0
     62392 WT21     1138     MECN     H11      HGA3     0.090000        1.0080           0
     62393 WT21     1138     MECN     H12      HGA3     0.090000        1.0080           0
     62394 WT21     1138     MECN     H13      HGA3     0.090000        1.0080           0
     62395 WT21     1138     MECN     C2       CG1N1    0.360000       12.0110           0
     62396 WT21     1138     MECN     N3       NG1T1   -0.460000       14.0070           0
     62397 WT21     1139     MECN     C1       CG331   -0.170000       12.0110           0
     62398 WT21     1139     MECN     H11      HGA3     0.090000        1.0080           0
     62399 WT21     1139     MECN     H12      HGA3     0.090000        1.0080           0
     62400 WT21     1139     MECN     H13      HGA3     0.090000        1.0080           0
     62401 WT21     1139     MECN     C2       CG1N1    0.360000       12.0110           0
     62402 WT21     1139     MECN     N3       NG1T1   -0.460000       14.0070           0
     62403 WT21     1140     MECN     C1       CG331   -0.170000       12.0110           0
     62404 WT21     1140     MECN     H11      HGA3     0.090000        1.0080           0
     62405 WT21     1140     MECN     H12      HGA3     0.090000        1.0080           0
     62406 WT21     1140     MECN     H13      HGA3     0.090000        1.0080           0
     62407 WT21     1140     MECN     C2       CG1N1    0.360000       12.0110           0
     62408 WT21     1140     MECN     N3       NG1T1   -0.460000       14.0070           0
     62409 WT21     1142     MECN     C1       CG331   -0.170000       12.0110           0
     62410 WT21     1142     MECN     H11      HGA3     0.090000        1.0080           0
     62411 WT21     1142     MECN     H12      HGA3     0.090000        1.0080           0
     62412 WT21     1142     MECN     H13      HGA3     0.090000        1.0080           0
     62413 WT21     1142     MECN     C2       CG1N1    0.360000       12.0110           0
     62414 WT21     1142     MECN     N3       NG1T1   -0.460000       14.0070           0
     62415 WT21     1157     MECN     C1       CG331   -0.170000       12.0110           0
     62416 WT21     1157     MECN     H11      HGA3     0.090000        1.0080           0
     62417 WT21     1157     MECN     H12      HGA3     0.090000        1.0080           0
     62418 WT21     1157     MECN     H13      HGA3     0.090000        1.0080           0
     62419 WT21     1157     MECN     C2       CG1N1    0.360000       12.0110           0
     62420 WT21     1157     MECN     N3       NG1T1   -0.460000       14.0070           0
     62421 WT21     1164     MECN     C1       CG331   -0.170000       12.0110           0
     62422 WT21     1164     MECN     H11      HGA3     0.090000        1.0080           0
     62423 WT21     1164     MECN     H12      HGA3     0.090000        1.0080           0
     62424 WT21     1164     MECN     H13      HGA3     0.090000        1.0080           0
     62425 WT21     1164     MECN     C2       CG1N1    0.360000       12.0110           0
     62426 WT21     1164     MECN     N3       NG1T1   -0.460000       14.0070           0
     62427 WT21     1165     MECN     C1       CG331   -0.170000       12.0110           0
     62428 WT21     1165     MECN     H11      HGA3     0.090000        1.0080           0
     62429 WT21     1165     MECN     H12      HGA3     0.090000        1.0080           0
     62430 WT21     1165     MECN     H13      HGA3     0.090000        1.0080           0
     62431 WT21     1165     MECN     C2       CG1N1    0.360000       12.0110           0
     62432 WT21     1165     MECN     N3       NG1T1   -0.460000       14.0070           0
     62433 WT21     1166     MECN     C1       CG331   -0.170000       12.0110           0
     62434 WT21     1166     MECN     H11      HGA3     0.090000        1.0080           0
     62435 WT21     1166     MECN     H12      HGA3     0.090000        1.0080           0
     62436 WT21     1166     MECN     H13      HGA3     0.090000        1.0080           0
     62437 WT21     1166     MECN     C2       CG1N1    0.360000       12.0110           0
     62438 WT21     1166     MECN     N3       NG1T1   -0.460000       14.0070           0
     62439 WT21     1167     MECN     C1       CG331   -0.170000       12.0110           0
     62440 WT21     1167     MECN     H11      HGA3     0.090000        1.0080           0
     62441 WT21     1167     MECN     H12      HGA3     0.090000        1.0080           0
     62442 WT21     1167     MECN     H13      HGA3     0.090000        1.0080           0
     62443 WT21     1167     MECN     C2       CG1N1    0.360000       12.0110           0
     62444 WT21     1167     MECN     N3       NG1T1   -0.460000       14.0070           0
     62445 WT21     1172     MECN     C1       CG331   -0.170000       12.0110           0
     62446 WT21     1172     MECN     H11      HGA3     0.090000        1.0080           0
     62447 WT21     1172     MECN     H12      HGA3     0.090000        1.0080           0
     62448 WT21     1172     MECN     H13      HGA3     0.090000        1.0080           0
     62449 WT21     1172     MECN     C2       CG1N1    0.360000       12.0110           0
     62450 WT21     1172     MECN     N3       NG1T1   -0.460000       14.0070           0
     62451 WT21     1173     MECN     C1       CG331   -0.170000       12.0110           0
     62452 WT21     1173     MECN     H11      HGA3     0.090000        1.0080           0
     62453 WT21     1173     MECN     H12      HGA3     0.090000        1.0080           0
     62454 WT21     1173     MECN     H13      HGA3     0.090000        1.0080           0
     62455 WT21     1173     MECN     C2       CG1N1    0.360000       12.0110           0
     62456 WT21     1173     MECN     N3       NG1T1   -0.460000       14.0070           0
     62457 WT21     1180     MECN     C1       CG331   -0.170000       12.0110           0
     62458 WT21     1180     MECN     H11      HGA3     0.090000        1.0080           0
     62459 WT21     1180     MECN     H12      HGA3     0.090000        1.0080           0
     62460 WT21     1180     MECN     H13      HGA3     0.090000        1.0080           0
     62461 WT21     1180     MECN     C2       CG1N1    0.360000       12.0110           0
     62462 WT21     1180     MECN     N3       NG1T1   -0.460000       14.0070           0
     62463 WT21     1190     MECN     C1       CG331   -0.170000       12.0110           0
     62464 WT21     1190     MECN     H11      HGA3     0.090000        1.0080           0
     62465 WT21     1190     MECN     H12      HGA3     0.090000        1.0080           0
     62466 WT21     1190     MECN     H13      HGA3     0.090000        1.0080           0
     62467 WT21     1190     MECN     C2       CG1N1    0.360000       12.0110           0
     62468 WT21     1190     MECN     N3       NG1T1   -0.460000       14.0070           0
     62469 WT21     1202     MECN     C1       CG331   -0.170000       12.0110           0
     62470 WT21     1202     MECN     H11      HGA3     0.090000        1.0080           0
     62471 WT21     1202     MECN     H12      HGA3     0.090000        1.0080           0
     62472 WT21     1202     MECN     H13      HGA3     0.090000        1.0080           0
     62473 WT21     1202     MECN     C2       CG1N1    0.360000       12.0110           0
     62474 WT21     1202     MECN     N3       NG1T1   -0.460000       14.0070           0
     62475 WT21     1205     MECN     C1       CG331   -0.170000       12.0110           0
     62476 WT21     1205     MECN     H11      HGA3     0.090000        1.0080           0
     62477 WT21     1205     MECN     H12      HGA3     0.090000        1.0080           0
     62478 WT21     1205     MECN     H13      HGA3     0.090000        1.0080           0
     62479 WT21     1205     MECN     C2       CG1N1    0.360000       12.0110           0
     62480 WT21     1205     MECN     N3       NG1T1   -0.460000       14.0070           0
     62481 WT21     1207     MECN     C1       CG331   -0.170000       12.0110           0
     62482 WT21     1207     MECN     H11      HGA3     0.090000        1.0080           0
     62483 WT21     1207     MECN     H12      HGA3     0.090000        1.0080           0
     62484 WT21     1207     MECN     H13      HGA3     0.090000        1.0080           0
     62485 WT21     1207     MECN     C2       CG1N1    0.360000       12.0110           0
     62486 WT21     1207     MECN     N3       NG1T1   -0.460000       14.0070           0
     62487 WT21     1211     MECN     C1       CG331   -0.170000       12.0110           0
     62488 WT21     1211     MECN     H11      HGA3     0.090000        1.0080           0
     62489 WT21     1211     MECN     H12      HGA3     0.090000        1.0080           0
     62490 WT21     1211     MECN     H13      HGA3     0.090000        1.0080           0
     62491 WT21     1211     MECN     C2       CG1N1    0.360000       12.0110           0
     62492 WT21     1211     MECN     N3       NG1T1   -0.460000       14.0070           0
     62493 WT21     1212     MECN     C1       CG331   -0.170000       12.0110           0
     62494 WT21     1212     MECN     H11      HGA3     0.090000        1.0080           0
     62495 WT21     1212     MECN     H12      HGA3     0.090000        1.0080           0
     62496 WT21     1212     MECN     H13      HGA3     0.090000        1.0080           0
     62497 WT21     1212     MECN     C2       CG1N1    0.360000       12.0110           0
     62498 WT21     1212     MECN     N3       NG1T1   -0.460000       14.0070           0
     62499 WT21     1219     MECN     C1       CG331   -0.170000       12.0110           0
     62500 WT21     1219     MECN     H11      HGA3     0.090000        1.0080           0
     62501 WT21     1219     MECN     H12      HGA3     0.090000        1.0080           0
     62502 WT21     1219     MECN     H13      HGA3     0.090000        1.0080           0
     62503 WT21     1219     MECN     C2       CG1N1    0.360000       12.0110           0
     62504 WT21     1219     MECN     N3       NG1T1   -0.460000       14.0070           0
     62505 WT21     1220     MECN     C1       CG331   -0.170000       12.0110           0
     62506 WT21     1220     MECN     H11      HGA3     0.090000        1.0080           0
     62507 WT21     1220     MECN     H12      HGA3     0.090000        1.0080           0
     62508 WT21     1220     MECN     H13      HGA3     0.090000        1.0080           0
     62509 WT21     1220     MECN     C2       CG1N1    0.360000       12.0110           0
     62510 WT21     1220     MECN     N3       NG1T1   -0.460000       14.0070           0
     62511 WT21     1225     MECN     C1       CG331   -0.170000       12.0110           0
     62512 WT21     1225     MECN     H11      HGA3     0.090000        1.0080           0
     62513 WT21     1225     MECN     H12      HGA3     0.090000        1.0080           0
     62514 WT21     1225     MECN     H13      HGA3     0.090000        1.0080           0
     62515 WT21     1225     MECN     C2       CG1N1    0.360000       12.0110           0
     62516 WT21     1225     MECN     N3       NG1T1   -0.460000       14.0070           0
     62517 WT21     1226     MECN     C1       CG331   -0.170000       12.0110           0
     62518 WT21     1226     MECN     H11      HGA3     0.090000        1.0080           0
     62519 WT21     1226     MECN     H12      HGA3     0.090000        1.0080           0
     62520 WT21     1226     MECN     H13      HGA3     0.090000        1.0080           0
     62521 WT21     1226     MECN     C2       CG1N1    0.360000       12.0110           0
     62522 WT21     1226     MECN     N3       NG1T1   -0.460000       14.0070           0
     62523 WT21     1231     MECN     C1       CG331   -0.170000       12.0110           0
     62524 WT21     1231     MECN     H11      HGA3     0.090000        1.0080           0
     62525 WT21     1231     MECN     H12      HGA3     0.090000        1.0080           0
     62526 WT21     1231     MECN     H13      HGA3     0.090000        1.0080           0
     62527 WT21     1231     MECN     C2       CG1N1    0.360000       12.0110           0
     62528 WT21     1231     MECN     N3       NG1T1   -0.460000       14.0070           0
     62529 WT21     1232     MECN     C1       CG331   -0.170000       12.0110           0
     62530 WT21     1232     MECN     H11      HGA3     0.090000        1.0080           0
     62531 WT21     1232     MECN     H12      HGA3     0.090000        1.0080           0
     62532 WT21     1232     MECN     H13      HGA3     0.090000        1.0080           0
     62533 WT21     1232     MECN     C2       CG1N1    0.360000       12.0110           0
     62534 WT21     1232     MECN     N3       NG1T1   -0.460000       14.0070           0
     62535 WT21     1233     MECN     C1       CG331   -0.170000       12.0110           0
     62536 WT21     1233     MECN     H11      HGA3     0.090000        1.0080           0
     62537 WT21     1233     MECN     H12      HGA3     0.090000        1.0080           0
     62538 WT21     1233     MECN     H13      HGA3     0.090000        1.0080           0
     62539 WT21     1233     MECN     C2       CG1N1    0.360000       12.0110           0
     62540 WT21     1233     MECN     N3       NG1T1   -0.460000       14.0070           0
     62541 WT21     1236     MECN     C1       CG331   -0.170000       12.0110           0
     62542 WT21     1236     MECN     H11      HGA3     0.090000        1.0080           0
     62543 WT21     1236     MECN     H12      HGA3     0.090000        1.0080           0
     62544 WT21     1236     MECN     H13      HGA3     0.090000        1.0080           0
     62545 WT21     1236     MECN     C2       CG1N1    0.360000       12.0110           0
     62546 WT21     1236     MECN     N3       NG1T1   -0.460000       14.0070           0
     62547 WT21     1238     MECN     C1       CG331   -0.170000       12.0110           0
     62548 WT21     1238     MECN     H11      HGA3     0.090000        1.0080           0
     62549 WT21     1238     MECN     H12      HGA3     0.090000        1.0080           0
     62550 WT21     1238     MECN     H13      HGA3     0.090000        1.0080           0
     62551 WT21     1238     MECN     C2       CG1N1    0.360000       12.0110           0
     62552 WT21     1238     MECN     N3       NG1T1   -0.460000       14.0070           0
     62553 WT21     1247     MECN     C1       CG331   -0.170000       12.0110           0
     62554 WT21     1247     MECN     H11      HGA3     0.090000        1.0080           0
     62555 WT21     1247     MECN     H12      HGA3     0.090000        1.0080           0
     62556 WT21     1247     MECN     H13      HGA3     0.090000        1.0080           0
     62557 WT21     1247     MECN     C2       CG1N1    0.360000       12.0110           0
     62558 WT21     1247     MECN     N3       NG1T1   -0.460000       14.0070           0
     62559 WT21     1252     MECN     C1       CG331   -0.170000       12.0110           0
     62560 WT21     1252     MECN     H11      HGA3     0.090000        1.0080           0
     62561 WT21     1252     MECN     H12      HGA3     0.090000        1.0080           0
     62562 WT21     1252     MECN     H13      HGA3     0.090000        1.0080           0
     62563 WT21     1252     MECN     C2       CG1N1    0.360000       12.0110           0
     62564 WT21     1252     MECN     N3       NG1T1   -0.460000       14.0070           0
     62565 WT21     1255     MECN     C1       CG331   -0.170000       12.0110           0
     62566 WT21     1255     MECN     H11      HGA3     0.090000        1.0080           0
     62567 WT21     1255     MECN     H12      HGA3     0.090000        1.0080           0
     62568 WT21     1255     MECN     H13      HGA3     0.090000        1.0080           0
     62569 WT21     1255     MECN     C2       CG1N1    0.360000       12.0110           0
     62570 WT21     1255     MECN     N3       NG1T1   -0.460000       14.0070           0
     62571 WT21     1256     MECN     C1       CG331   -0.170000       12.0110           0
     62572 WT21     1256     MECN     H11      HGA3     0.090000        1.0080           0
     62573 WT21     1256     MECN     H12      HGA3     0.090000        1.0080           0
     62574 WT21     1256     MECN     H13      HGA3     0.090000        1.0080           0
     62575 WT21     1256     MECN     C2       CG1N1    0.360000       12.0110           0
     62576 WT21     1256     MECN     N3       NG1T1   -0.460000       14.0070           0
     62577 WT21     1259     MECN     C1       CG331   -0.170000       12.0110           0
     62578 WT21     1259     MECN     H11      HGA3     0.090000        1.0080           0
     62579 WT21     1259     MECN     H12      HGA3     0.090000        1.0080           0
     62580 WT21     1259     MECN     H13      HGA3     0.090000        1.0080           0
     62581 WT21     1259     MECN     C2       CG1N1    0.360000       12.0110           0
     62582 WT21     1259     MECN     N3       NG1T1   -0.460000       14.0070           0
     62583 WT21     1266     MECN     C1       CG331   -0.170000       12.0110           0
     62584 WT21     1266     MECN     H11      HGA3     0.090000        1.0080           0
     62585 WT21     1266     MECN     H12      HGA3     0.090000        1.0080           0
     62586 WT21     1266     MECN     H13      HGA3     0.090000        1.0080           0
     62587 WT21     1266     MECN     C2       CG1N1    0.360000       12.0110           0
     62588 WT21     1266     MECN     N3       NG1T1   -0.460000       14.0070           0
     62589 WT21     1269     MECN     C1       CG331   -0.170000       12.0110           0
     62590 WT21     1269     MECN     H11      HGA3     0.090000        1.0080           0
     62591 WT21     1269     MECN     H12      HGA3     0.090000        1.0080           0
     62592 WT21     1269     MECN     H13      HGA3     0.090000        1.0080           0
     62593 WT21     1269     MECN     C2       CG1N1    0.360000       12.0110           0
     62594 WT21     1269     MECN     N3       NG1T1   -0.460000       14.0070           0
     62595 WT21     1272     MECN     C1       CG331   -0.170000       12.0110           0
     62596 WT21     1272     MECN     H11      HGA3     0.090000        1.0080           0
     62597 WT21     1272     MECN     H12      HGA3     0.090000        1.0080           0
     62598 WT21     1272     MECN     H13      HGA3     0.090000        1.0080           0
     62599 WT21     1272     MECN     C2       CG1N1    0.360000       12.0110           0
     62600 WT21     1272     MECN     N3       NG1T1   -0.460000       14.0070           0
     62601 WT21     1278     MECN     C1       CG331   -0.170000       12.0110           0
     62602 WT21     1278     MECN     H11      HGA3     0.090000        1.0080           0
     62603 WT21     1278     MECN     H12      HGA3     0.090000        1.0080           0
     62604 WT21     1278     MECN     H13      HGA3     0.090000        1.0080           0
     62605 WT21     1278     MECN     C2       CG1N1    0.360000       12.0110           0
     62606 WT21     1278     MECN     N3       NG1T1   -0.460000       14.0070           0
     62607 WT21     1280     MECN     C1       CG331   -0.170000       12.0110           0
     62608 WT21     1280     MECN     H11      HGA3     0.090000        1.0080           0
     62609 WT21     1280     MECN     H12      HGA3     0.090000        1.0080           0
     62610 WT21     1280     MECN     H13      HGA3     0.090000        1.0080           0
     62611 WT21     1280     MECN     C2       CG1N1    0.360000       12.0110           0
     62612 WT21     1280     MECN     N3       NG1T1   -0.460000       14.0070           0
     62613 WT21     1285     MECN     C1       CG331   -0.170000       12.0110           0
     62614 WT21     1285     MECN     H11      HGA3     0.090000        1.0080           0
     62615 WT21     1285     MECN     H12      HGA3     0.090000        1.0080           0
     62616 WT21     1285     MECN     H13      HGA3     0.090000        1.0080           0
     62617 WT21     1285     MECN     C2       CG1N1    0.360000       12.0110           0
     62618 WT21     1285     MECN     N3       NG1T1   -0.460000       14.0070           0
     62619 WT21     1288     MECN     C1       CG331   -0.170000       12.0110           0
     62620 WT21     1288     MECN     H11      HGA3     0.090000        1.0080           0
     62621 WT21     1288     MECN     H12      HGA3     0.090000        1.0080           0
     62622 WT21     1288     MECN     H13      HGA3     0.090000        1.0080           0
     62623 WT21     1288     MECN     C2       CG1N1    0.360000       12.0110           0
     62624 WT21     1288     MECN     N3       NG1T1   -0.460000       14.0070           0
     62625 WT21     1290     MECN     C1       CG331   -0.170000       12.0110           0
     62626 WT21     1290     MECN     H11      HGA3     0.090000        1.0080           0
     62627 WT21     1290     MECN     H12      HGA3     0.090000        1.0080           0
     62628 WT21     1290     MECN     H13      HGA3     0.090000        1.0080           0
     62629 WT21     1290     MECN     C2       CG1N1    0.360000       12.0110           0
     62630 WT21     1290     MECN     N3       NG1T1   -0.460000       14.0070           0
     62631 WT21     1291     MECN     C1       CG331   -0.170000       12.0110           0
     62632 WT21     1291     MECN     H11      HGA3     0.090000        1.0080           0
     62633 WT21     1291     MECN     H12      HGA3     0.090000        1.0080           0
     62634 WT21     1291     MECN     H13      HGA3     0.090000        1.0080           0
     62635 WT21     1291     MECN     C2       CG1N1    0.360000       12.0110           0
     62636 WT21     1291     MECN     N3       NG1T1   -0.460000       14.0070           0
     62637 WT21     1296     MECN     C1       CG331   -0.170000       12.0110           0
     62638 WT21     1296     MECN     H11      HGA3     0.090000        1.0080           0
     62639 WT21     1296     MECN     H12      HGA3     0.090000        1.0080           0
     62640 WT21     1296     MECN     H13      HGA3     0.090000        1.0080           0
     62641 WT21     1296     MECN     C2       CG1N1    0.360000       12.0110           0
     62642 WT21     1296     MECN     N3       NG1T1   -0.460000       14.0070           0
     62643 WT21     1299     MECN     C1       CG331   -0.170000       12.0110           0
     62644 WT21     1299     MECN     H11      HGA3     0.090000        1.0080           0
     62645 WT21     1299     MECN     H12      HGA3     0.090000        1.0080           0
     62646 WT21     1299     MECN     H13      HGA3     0.090000        1.0080           0
     62647 WT21     1299     MECN     C2       CG1N1    0.360000       12.0110           0
     62648 WT21     1299     MECN     N3       NG1T1   -0.460000       14.0070           0
     62649 WT21     1302     MECN     C1       CG331   -0.170000       12.0110           0
     62650 WT21     1302     MECN     H11      HGA3     0.090000        1.0080           0
     62651 WT21     1302     MECN     H12      HGA3     0.090000        1.0080           0
     62652 WT21     1302     MECN     H13      HGA3     0.090000        1.0080           0
     62653 WT21     1302     MECN     C2       CG1N1    0.360000       12.0110           0
     62654 WT21     1302     MECN     N3       NG1T1   -0.460000       14.0070           0
     62655 WT21     1308     MECN     C1       CG331   -0.170000       12.0110           0
     62656 WT21     1308     MECN     H11      HGA3     0.090000        1.0080           0
     62657 WT21     1308     MECN     H12      HGA3     0.090000        1.0080           0
     62658 WT21     1308     MECN     H13      HGA3     0.090000        1.0080           0
     62659 WT21     1308     MECN     C2       CG1N1    0.360000       12.0110           0
     62660 WT21     1308     MECN     N3       NG1T1   -0.460000       14.0070           0
     62661 WT21     1311     MECN     C1       CG331   -0.170000       12.0110           0
     62662 WT21     1311     MECN     H11      HGA3     0.090000        1.0080           0
     62663 WT21     1311     MECN     H12      HGA3     0.090000        1.0080           0
     62664 WT21     1311     MECN     H13      HGA3     0.090000        1.0080           0
     62665 WT21     1311     MECN     C2       CG1N1    0.360000       12.0110           0
     62666 WT21     1311     MECN     N3       NG1T1   -0.460000       14.0070           0
     62667 WT21     1312     MECN     C1       CG331   -0.170000       12.0110           0
     62668 WT21     1312     MECN     H11      HGA3     0.090000        1.0080           0
     62669 WT21     1312     MECN     H12      HGA3     0.090000        1.0080           0
     62670 WT21     1312     MECN     H13      HGA3     0.090000        1.0080           0
     62671 WT21     1312     MECN     C2       CG1N1    0.360000       12.0110           0
     62672 WT21     1312     MECN     N3       NG1T1   -0.460000       14.0070           0
     62673 WT21     1313     MECN     C1       CG331   -0.170000       12.0110           0
     62674 WT21     1313     MECN     H11      HGA3     0.090000        1.0080           0
     62675 WT21     1313     MECN     H12      HGA3     0.090000        1.0080           0
     62676 WT21     1313     MECN     H13      HGA3     0.090000        1.0080           0
     62677 WT21     1313     MECN     C2       CG1N1    0.360000       12.0110           0
     62678 WT21     1313     MECN     N3       NG1T1   -0.460000       14.0070           0
     62679 WT21     1316     MECN     C1       CG331   -0.170000       12.0110           0
     62680 WT21     1316     MECN     H11      HGA3     0.090000        1.0080           0
     62681 WT21     1316     MECN     H12      HGA3     0.090000        1.0080           0
     62682 WT21     1316     MECN     H13      HGA3     0.090000        1.0080           0
     62683 WT21     1316     MECN     C2       CG1N1    0.360000       12.0110           0
     62684 WT21     1316     MECN     N3       NG1T1   -0.460000       14.0070           0
     62685 WT21     1320     MECN     C1       CG331   -0.170000       12.0110           0
     62686 WT21     1320     MECN     H11      HGA3     0.090000        1.0080           0
     62687 WT21     1320     MECN     H12      HGA3     0.090000        1.0080           0
     62688 WT21     1320     MECN     H13      HGA3     0.090000        1.0080           0
     62689 WT21     1320     MECN     C2       CG1N1    0.360000       12.0110           0
     62690 WT21     1320     MECN     N3       NG1T1   -0.460000       14.0070           0
     62691 WT21     1322     MECN     C1       CG331   -0.170000       12.0110           0
     62692 WT21     1322     MECN     H11      HGA3     0.090000        1.0080           0
     62693 WT21     1322     MECN     H12      HGA3     0.090000        1.0080           0
     62694 WT21     1322     MECN     H13      HGA3     0.090000        1.0080           0
     62695 WT21     1322     MECN     C2       CG1N1    0.360000       12.0110           0
     62696 WT21     1322     MECN     N3       NG1T1   -0.460000       14.0070           0
     62697 WT21     1327     MECN     C1       CG331   -0.170000       12.0110           0
     62698 WT21     1327     MECN     H11      HGA3     0.090000        1.0080           0
     62699 WT21     1327     MECN     H12      HGA3     0.090000        1.0080           0
     62700 WT21     1327     MECN     H13      HGA3     0.090000        1.0080           0
     62701 WT21     1327     MECN     C2       CG1N1    0.360000       12.0110           0
     62702 WT21     1327     MECN     N3       NG1T1   -0.460000       14.0070           0
     62703 WT21     1330     MECN     C1       CG331   -0.170000       12.0110           0
     62704 WT21     1330     MECN     H11      HGA3     0.090000        1.0080           0
     62705 WT21     1330     MECN     H12      HGA3     0.090000        1.0080           0
     62706 WT21     1330     MECN     H13      HGA3     0.090000        1.0080           0
     62707 WT21     1330     MECN     C2       CG1N1    0.360000       12.0110           0
     62708 WT21     1330     MECN     N3       NG1T1   -0.460000       14.0070           0
     62709 WT22     7        MECN     C1       CG331   -0.170000       12.0110           0
     62710 WT22     7        MECN     H11      HGA3     0.090000        1.0080           0
     62711 WT22     7        MECN     H12      HGA3     0.090000        1.0080           0
     62712 WT22     7        MECN     H13      HGA3     0.090000        1.0080           0
     62713 WT22     7        MECN     C2       CG1N1    0.360000       12.0110           0
     62714 WT22     7        MECN     N3       NG1T1   -0.460000       14.0070           0
     62715 WT22     8        MECN     C1       CG331   -0.170000       12.0110           0
     62716 WT22     8        MECN     H11      HGA3     0.090000        1.0080           0
     62717 WT22     8        MECN     H12      HGA3     0.090000        1.0080           0
     62718 WT22     8        MECN     H13      HGA3     0.090000        1.0080           0
     62719 WT22     8        MECN     C2       CG1N1    0.360000       12.0110           0
     62720 WT22     8        MECN     N3       NG1T1   -0.460000       14.0070           0
     62721 WT22     9        MECN     C1       CG331   -0.170000       12.0110           0
     62722 WT22     9        MECN     H11      HGA3     0.090000        1.0080           0
     62723 WT22     9        MECN     H12      HGA3     0.090000        1.0080           0
     62724 WT22     9        MECN     H13      HGA3     0.090000        1.0080           0
     62725 WT22     9        MECN     C2       CG1N1    0.360000       12.0110           0
     62726 WT22     9        MECN     N3       NG1T1   -0.460000       14.0070           0
     62727 WT22     17       MECN     C1       CG331   -0.170000       12.0110           0
     62728 WT22     17       MECN     H11      HGA3     0.090000        1.0080           0
     62729 WT22     17       MECN     H12      HGA3     0.090000        1.0080           0
     62730 WT22     17       MECN     H13      HGA3     0.090000        1.0080           0
     62731 WT22     17       MECN     C2       CG1N1    0.360000       12.0110           0
     62732 WT22     17       MECN     N3       NG1T1   -0.460000       14.0070           0
     62733 WT22     23       MECN     C1       CG331   -0.170000       12.0110           0
     62734 WT22     23       MECN     H11      HGA3     0.090000        1.0080           0
     62735 WT22     23       MECN     H12      HGA3     0.090000        1.0080           0
     62736 WT22     23       MECN     H13      HGA3     0.090000        1.0080           0
     62737 WT22     23       MECN     C2       CG1N1    0.360000       12.0110           0
     62738 WT22     23       MECN     N3       NG1T1   -0.460000       14.0070           0
     62739 WT22     25       MECN     C1       CG331   -0.170000       12.0110           0
     62740 WT22     25       MECN     H11      HGA3     0.090000        1.0080           0
     62741 WT22     25       MECN     H12      HGA3     0.090000        1.0080           0
     62742 WT22     25       MECN     H13      HGA3     0.090000        1.0080           0
     62743 WT22     25       MECN     C2       CG1N1    0.360000       12.0110           0
     62744 WT22     25       MECN     N3       NG1T1   -0.460000       14.0070           0
     62745 WT22     36       MECN     C1       CG331   -0.170000       12.0110           0
     62746 WT22     36       MECN     H11      HGA3     0.090000        1.0080           0
     62747 WT22     36       MECN     H12      HGA3     0.090000        1.0080           0
     62748 WT22     36       MECN     H13      HGA3     0.090000        1.0080           0
     62749 WT22     36       MECN     C2       CG1N1    0.360000       12.0110           0
     62750 WT22     36       MECN     N3       NG1T1   -0.460000       14.0070           0
     62751 WT22     37       MECN     C1       CG331   -0.170000       12.0110           0
     62752 WT22     37       MECN     H11      HGA3     0.090000        1.0080           0
     62753 WT22     37       MECN     H12      HGA3     0.090000        1.0080           0
     62754 WT22     37       MECN     H13      HGA3     0.090000        1.0080           0
     62755 WT22     37       MECN     C2       CG1N1    0.360000       12.0110           0
     62756 WT22     37       MECN     N3       NG1T1   -0.460000       14.0070           0
     62757 WT22     38       MECN     C1       CG331   -0.170000       12.0110           0
     62758 WT22     38       MECN     H11      HGA3     0.090000        1.0080           0
     62759 WT22     38       MECN     H12      HGA3     0.090000        1.0080           0
     62760 WT22     38       MECN     H13      HGA3     0.090000        1.0080           0
     62761 WT22     38       MECN     C2       CG1N1    0.360000       12.0110           0
     62762 WT22     38       MECN     N3       NG1T1   -0.460000       14.0070           0
     62763 WT22     39       MECN     C1       CG331   -0.170000       12.0110           0
     62764 WT22     39       MECN     H11      HGA3     0.090000        1.0080           0
     62765 WT22     39       MECN     H12      HGA3     0.090000        1.0080           0
     62766 WT22     39       MECN     H13      HGA3     0.090000        1.0080           0
     62767 WT22     39       MECN     C2       CG1N1    0.360000       12.0110           0
     62768 WT22     39       MECN     N3       NG1T1   -0.460000       14.0070           0
     62769 WT22     43       MECN     C1       CG331   -0.170000       12.0110           0
     62770 WT22     43       MECN     H11      HGA3     0.090000        1.0080           0
     62771 WT22     43       MECN     H12      HGA3     0.090000        1.0080           0
     62772 WT22     43       MECN     H13      HGA3     0.090000        1.0080           0
     62773 WT22     43       MECN     C2       CG1N1    0.360000       12.0110           0
     62774 WT22     43       MECN     N3       NG1T1   -0.460000       14.0070           0
     62775 WT22     45       MECN     C1       CG331   -0.170000       12.0110           0
     62776 WT22     45       MECN     H11      HGA3     0.090000        1.0080           0
     62777 WT22     45       MECN     H12      HGA3     0.090000        1.0080           0
     62778 WT22     45       MECN     H13      HGA3     0.090000        1.0080           0
     62779 WT22     45       MECN     C2       CG1N1    0.360000       12.0110           0
     62780 WT22     45       MECN     N3       NG1T1   -0.460000       14.0070           0
     62781 WT22     46       MECN     C1       CG331   -0.170000       12.0110           0
     62782 WT22     46       MECN     H11      HGA3     0.090000        1.0080           0
     62783 WT22     46       MECN     H12      HGA3     0.090000        1.0080           0
     62784 WT22     46       MECN     H13      HGA3     0.090000        1.0080           0
     62785 WT22     46       MECN     C2       CG1N1    0.360000       12.0110           0
     62786 WT22     46       MECN     N3       NG1T1   -0.460000       14.0070           0
     62787 WT22     50       MECN     C1       CG331   -0.170000       12.0110           0
     62788 WT22     50       MECN     H11      HGA3     0.090000        1.0080           0
     62789 WT22     50       MECN     H12      HGA3     0.090000        1.0080           0
     62790 WT22     50       MECN     H13      HGA3     0.090000        1.0080           0
     62791 WT22     50       MECN     C2       CG1N1    0.360000       12.0110           0
     62792 WT22     50       MECN     N3       NG1T1   -0.460000       14.0070           0
     62793 WT22     52       MECN     C1       CG331   -0.170000       12.0110           0
     62794 WT22     52       MECN     H11      HGA3     0.090000        1.0080           0
     62795 WT22     52       MECN     H12      HGA3     0.090000        1.0080           0
     62796 WT22     52       MECN     H13      HGA3     0.090000        1.0080           0
     62797 WT22     52       MECN     C2       CG1N1    0.360000       12.0110           0
     62798 WT22     52       MECN     N3       NG1T1   -0.460000       14.0070           0
     62799 WT22     56       MECN     C1       CG331   -0.170000       12.0110           0
     62800 WT22     56       MECN     H11      HGA3     0.090000        1.0080           0
     62801 WT22     56       MECN     H12      HGA3     0.090000        1.0080           0
     62802 WT22     56       MECN     H13      HGA3     0.090000        1.0080           0
     62803 WT22     56       MECN     C2       CG1N1    0.360000       12.0110           0
     62804 WT22     56       MECN     N3       NG1T1   -0.460000       14.0070           0
     62805 WT22     57       MECN     C1       CG331   -0.170000       12.0110           0
     62806 WT22     57       MECN     H11      HGA3     0.090000        1.0080           0
     62807 WT22     57       MECN     H12      HGA3     0.090000        1.0080           0
     62808 WT22     57       MECN     H13      HGA3     0.090000        1.0080           0
     62809 WT22     57       MECN     C2       CG1N1    0.360000       12.0110           0
     62810 WT22     57       MECN     N3       NG1T1   -0.460000       14.0070           0
     62811 WT22     59       MECN     C1       CG331   -0.170000       12.0110           0
     62812 WT22     59       MECN     H11      HGA3     0.090000        1.0080           0
     62813 WT22     59       MECN     H12      HGA3     0.090000        1.0080           0
     62814 WT22     59       MECN     H13      HGA3     0.090000        1.0080           0
     62815 WT22     59       MECN     C2       CG1N1    0.360000       12.0110           0
     62816 WT22     59       MECN     N3       NG1T1   -0.460000       14.0070           0
     62817 WT22     60       MECN     C1       CG331   -0.170000       12.0110           0
     62818 WT22     60       MECN     H11      HGA3     0.090000        1.0080           0
     62819 WT22     60       MECN     H12      HGA3     0.090000        1.0080           0
     62820 WT22     60       MECN     H13      HGA3     0.090000        1.0080           0
     62821 WT22     60       MECN     C2       CG1N1    0.360000       12.0110           0
     62822 WT22     60       MECN     N3       NG1T1   -0.460000       14.0070           0
     62823 WT22     62       MECN     C1       CG331   -0.170000       12.0110           0
     62824 WT22     62       MECN     H11      HGA3     0.090000        1.0080           0
     62825 WT22     62       MECN     H12      HGA3     0.090000        1.0080           0
     62826 WT22     62       MECN     H13      HGA3     0.090000        1.0080           0
     62827 WT22     62       MECN     C2       CG1N1    0.360000       12.0110           0
     62828 WT22     62       MECN     N3       NG1T1   -0.460000       14.0070           0
     62829 WT22     63       MECN     C1       CG331   -0.170000       12.0110           0
     62830 WT22     63       MECN     H11      HGA3     0.090000        1.0080           0
     62831 WT22     63       MECN     H12      HGA3     0.090000        1.0080           0
     62832 WT22     63       MECN     H13      HGA3     0.090000        1.0080           0
     62833 WT22     63       MECN     C2       CG1N1    0.360000       12.0110           0
     62834 WT22     63       MECN     N3       NG1T1   -0.460000       14.0070           0
     62835 WT22     71       MECN     C1       CG331   -0.170000       12.0110           0
     62836 WT22     71       MECN     H11      HGA3     0.090000        1.0080           0
     62837 WT22     71       MECN     H12      HGA3     0.090000        1.0080           0
     62838 WT22     71       MECN     H13      HGA3     0.090000        1.0080           0
     62839 WT22     71       MECN     C2       CG1N1    0.360000       12.0110           0
     62840 WT22     71       MECN     N3       NG1T1   -0.460000       14.0070           0
     62841 WT22     72       MECN     C1       CG331   -0.170000       12.0110           0
     62842 WT22     72       MECN     H11      HGA3     0.090000        1.0080           0
     62843 WT22     72       MECN     H12      HGA3     0.090000        1.0080           0
     62844 WT22     72       MECN     H13      HGA3     0.090000        1.0080           0
     62845 WT22     72       MECN     C2       CG1N1    0.360000       12.0110           0
     62846 WT22     72       MECN     N3       NG1T1   -0.460000       14.0070           0
     62847 WT22     75       MECN     C1       CG331   -0.170000       12.0110           0
     62848 WT22     75       MECN     H11      HGA3     0.090000        1.0080           0
     62849 WT22     75       MECN     H12      HGA3     0.090000        1.0080           0
     62850 WT22     75       MECN     H13      HGA3     0.090000        1.0080           0
     62851 WT22     75       MECN     C2       CG1N1    0.360000       12.0110           0
     62852 WT22     75       MECN     N3       NG1T1   -0.460000       14.0070           0
     62853 WT22     78       MECN     C1       CG331   -0.170000       12.0110           0
     62854 WT22     78       MECN     H11      HGA3     0.090000        1.0080           0
     62855 WT22     78       MECN     H12      HGA3     0.090000        1.0080           0
     62856 WT22     78       MECN     H13      HGA3     0.090000        1.0080           0
     62857 WT22     78       MECN     C2       CG1N1    0.360000       12.0110           0
     62858 WT22     78       MECN     N3       NG1T1   -0.460000       14.0070           0
     62859 WT22     79       MECN     C1       CG331   -0.170000       12.0110           0
     62860 WT22     79       MECN     H11      HGA3     0.090000        1.0080           0
     62861 WT22     79       MECN     H12      HGA3     0.090000        1.0080           0
     62862 WT22     79       MECN     H13      HGA3     0.090000        1.0080           0
     62863 WT22     79       MECN     C2       CG1N1    0.360000       12.0110           0
     62864 WT22     79       MECN     N3       NG1T1   -0.460000       14.0070           0
     62865 WT22     80       MECN     C1       CG331   -0.170000       12.0110           0
     62866 WT22     80       MECN     H11      HGA3     0.090000        1.0080           0
     62867 WT22     80       MECN     H12      HGA3     0.090000        1.0080           0
     62868 WT22     80       MECN     H13      HGA3     0.090000        1.0080           0
     62869 WT22     80       MECN     C2       CG1N1    0.360000       12.0110           0
     62870 WT22     80       MECN     N3       NG1T1   -0.460000       14.0070           0
     62871 WT22     83       MECN     C1       CG331   -0.170000       12.0110           0
     62872 WT22     83       MECN     H11      HGA3     0.090000        1.0080           0
     62873 WT22     83       MECN     H12      HGA3     0.090000        1.0080           0
     62874 WT22     83       MECN     H13      HGA3     0.090000        1.0080           0
     62875 WT22     83       MECN     C2       CG1N1    0.360000       12.0110           0
     62876 WT22     83       MECN     N3       NG1T1   -0.460000       14.0070           0
     62877 WT22     86       MECN     C1       CG331   -0.170000       12.0110           0
     62878 WT22     86       MECN     H11      HGA3     0.090000        1.0080           0
     62879 WT22     86       MECN     H12      HGA3     0.090000        1.0080           0
     62880 WT22     86       MECN     H13      HGA3     0.090000        1.0080           0
     62881 WT22     86       MECN     C2       CG1N1    0.360000       12.0110           0
     62882 WT22     86       MECN     N3       NG1T1   -0.460000       14.0070           0
     62883 WT22     90       MECN     C1       CG331   -0.170000       12.0110           0
     62884 WT22     90       MECN     H11      HGA3     0.090000        1.0080           0
     62885 WT22     90       MECN     H12      HGA3     0.090000        1.0080           0
     62886 WT22     90       MECN     H13      HGA3     0.090000        1.0080           0
     62887 WT22     90       MECN     C2       CG1N1    0.360000       12.0110           0
     62888 WT22     90       MECN     N3       NG1T1   -0.460000       14.0070           0
     62889 WT22     92       MECN     C1       CG331   -0.170000       12.0110           0
     62890 WT22     92       MECN     H11      HGA3     0.090000        1.0080           0
     62891 WT22     92       MECN     H12      HGA3     0.090000        1.0080           0
     62892 WT22     92       MECN     H13      HGA3     0.090000        1.0080           0
     62893 WT22     92       MECN     C2       CG1N1    0.360000       12.0110           0
     62894 WT22     92       MECN     N3       NG1T1   -0.460000       14.0070           0
     62895 WT22     95       MECN     C1       CG331   -0.170000       12.0110           0
     62896 WT22     95       MECN     H11      HGA3     0.090000        1.0080           0
     62897 WT22     95       MECN     H12      HGA3     0.090000        1.0080           0
     62898 WT22     95       MECN     H13      HGA3     0.090000        1.0080           0
     62899 WT22     95       MECN     C2       CG1N1    0.360000       12.0110           0
     62900 WT22     95       MECN     N3       NG1T1   -0.460000       14.0070           0
     62901 WT22     96       MECN     C1       CG331   -0.170000       12.0110           0
     62902 WT22     96       MECN     H11      HGA3     0.090000        1.0080           0
     62903 WT22     96       MECN     H12      HGA3     0.090000        1.0080           0
     62904 WT22     96       MECN     H13      HGA3     0.090000        1.0080           0
     62905 WT22     96       MECN     C2       CG1N1    0.360000       12.0110           0
     62906 WT22     96       MECN     N3       NG1T1   -0.460000       14.0070           0
     62907 WT22     100      MECN     C1       CG331   -0.170000       12.0110           0
     62908 WT22     100      MECN     H11      HGA3     0.090000        1.0080           0
     62909 WT22     100      MECN     H12      HGA3     0.090000        1.0080           0
     62910 WT22     100      MECN     H13      HGA3     0.090000        1.0080           0
     62911 WT22     100      MECN     C2       CG1N1    0.360000       12.0110           0
     62912 WT22     100      MECN     N3       NG1T1   -0.460000       14.0070           0
     62913 WT22     102      MECN     C1       CG331   -0.170000       12.0110           0
     62914 WT22     102      MECN     H11      HGA3     0.090000        1.0080           0
     62915 WT22     102      MECN     H12      HGA3     0.090000        1.0080           0
     62916 WT22     102      MECN     H13      HGA3     0.090000        1.0080           0
     62917 WT22     102      MECN     C2       CG1N1    0.360000       12.0110           0
     62918 WT22     102      MECN     N3       NG1T1   -0.460000       14.0070           0
     62919 WT22     104      MECN     C1       CG331   -0.170000       12.0110           0
     62920 WT22     104      MECN     H11      HGA3     0.090000        1.0080           0
     62921 WT22     104      MECN     H12      HGA3     0.090000        1.0080           0
     62922 WT22     104      MECN     H13      HGA3     0.090000        1.0080           0
     62923 WT22     104      MECN     C2       CG1N1    0.360000       12.0110           0
     62924 WT22     104      MECN     N3       NG1T1   -0.460000       14.0070           0
     62925 WT22     108      MECN     C1       CG331   -0.170000       12.0110           0
     62926 WT22     108      MECN     H11      HGA3     0.090000        1.0080           0
     62927 WT22     108      MECN     H12      HGA3     0.090000        1.0080           0
     62928 WT22     108      MECN     H13      HGA3     0.090000        1.0080           0
     62929 WT22     108      MECN     C2       CG1N1    0.360000       12.0110           0
     62930 WT22     108      MECN     N3       NG1T1   -0.460000       14.0070           0
     62931 WT22     111      MECN     C1       CG331   -0.170000       12.0110           0
     62932 WT22     111      MECN     H11      HGA3     0.090000        1.0080           0
     62933 WT22     111      MECN     H12      HGA3     0.090000        1.0080           0
     62934 WT22     111      MECN     H13      HGA3     0.090000        1.0080           0
     62935 WT22     111      MECN     C2       CG1N1    0.360000       12.0110           0
     62936 WT22     111      MECN     N3       NG1T1   -0.460000       14.0070           0
     62937 WT22     112      MECN     C1       CG331   -0.170000       12.0110           0
     62938 WT22     112      MECN     H11      HGA3     0.090000        1.0080           0
     62939 WT22     112      MECN     H12      HGA3     0.090000        1.0080           0
     62940 WT22     112      MECN     H13      HGA3     0.090000        1.0080           0
     62941 WT22     112      MECN     C2       CG1N1    0.360000       12.0110           0
     62942 WT22     112      MECN     N3       NG1T1   -0.460000       14.0070           0
     62943 WT22     115      MECN     C1       CG331   -0.170000       12.0110           0
     62944 WT22     115      MECN     H11      HGA3     0.090000        1.0080           0
     62945 WT22     115      MECN     H12      HGA3     0.090000        1.0080           0
     62946 WT22     115      MECN     H13      HGA3     0.090000        1.0080           0
     62947 WT22     115      MECN     C2       CG1N1    0.360000       12.0110           0
     62948 WT22     115      MECN     N3       NG1T1   -0.460000       14.0070           0
     62949 WT22     117      MECN     C1       CG331   -0.170000       12.0110           0
     62950 WT22     117      MECN     H11      HGA3     0.090000        1.0080           0
     62951 WT22     117      MECN     H12      HGA3     0.090000        1.0080           0
     62952 WT22     117      MECN     H13      HGA3     0.090000        1.0080           0
     62953 WT22     117      MECN     C2       CG1N1    0.360000       12.0110           0
     62954 WT22     117      MECN     N3       NG1T1   -0.460000       14.0070           0
     62955 WT22     118      MECN     C1       CG331   -0.170000       12.0110           0
     62956 WT22     118      MECN     H11      HGA3     0.090000        1.0080           0
     62957 WT22     118      MECN     H12      HGA3     0.090000        1.0080           0
     62958 WT22     118      MECN     H13      HGA3     0.090000        1.0080           0
     62959 WT22     118      MECN     C2       CG1N1    0.360000       12.0110           0
     62960 WT22     118      MECN     N3       NG1T1   -0.460000       14.0070           0
     62961 WT22     121      MECN     C1       CG331   -0.170000       12.0110           0
     62962 WT22     121      MECN     H11      HGA3     0.090000        1.0080           0
     62963 WT22     121      MECN     H12      HGA3     0.090000        1.0080           0
     62964 WT22     121      MECN     H13      HGA3     0.090000        1.0080           0
     62965 WT22     121      MECN     C2       CG1N1    0.360000       12.0110           0
     62966 WT22     121      MECN     N3       NG1T1   -0.460000       14.0070           0
     62967 WT22     126      MECN     C1       CG331   -0.170000       12.0110           0
     62968 WT22     126      MECN     H11      HGA3     0.090000        1.0080           0
     62969 WT22     126      MECN     H12      HGA3     0.090000        1.0080           0
     62970 WT22     126      MECN     H13      HGA3     0.090000        1.0080           0
     62971 WT22     126      MECN     C2       CG1N1    0.360000       12.0110           0
     62972 WT22     126      MECN     N3       NG1T1   -0.460000       14.0070           0
     62973 WT22     129      MECN     C1       CG331   -0.170000       12.0110           0
     62974 WT22     129      MECN     H11      HGA3     0.090000        1.0080           0
     62975 WT22     129      MECN     H12      HGA3     0.090000        1.0080           0
     62976 WT22     129      MECN     H13      HGA3     0.090000        1.0080           0
     62977 WT22     129      MECN     C2       CG1N1    0.360000       12.0110           0
     62978 WT22     129      MECN     N3       NG1T1   -0.460000       14.0070           0
     62979 WT22     133      MECN     C1       CG331   -0.170000       12.0110           0
     62980 WT22     133      MECN     H11      HGA3     0.090000        1.0080           0
     62981 WT22     133      MECN     H12      HGA3     0.090000        1.0080           0
     62982 WT22     133      MECN     H13      HGA3     0.090000        1.0080           0
     62983 WT22     133      MECN     C2       CG1N1    0.360000       12.0110           0
     62984 WT22     133      MECN     N3       NG1T1   -0.460000       14.0070           0
     62985 WT22     134      MECN     C1       CG331   -0.170000       12.0110           0
     62986 WT22     134      MECN     H11      HGA3     0.090000        1.0080           0
     62987 WT22     134      MECN     H12      HGA3     0.090000        1.0080           0
     62988 WT22     134      MECN     H13      HGA3     0.090000        1.0080           0
     62989 WT22     134      MECN     C2       CG1N1    0.360000       12.0110           0
     62990 WT22     134      MECN     N3       NG1T1   -0.460000       14.0070           0
     62991 WT22     141      MECN     C1       CG331   -0.170000       12.0110           0
     62992 WT22     141      MECN     H11      HGA3     0.090000        1.0080           0
     62993 WT22     141      MECN     H12      HGA3     0.090000        1.0080           0
     62994 WT22     141      MECN     H13      HGA3     0.090000        1.0080           0
     62995 WT22     141      MECN     C2       CG1N1    0.360000       12.0110           0
     62996 WT22     141      MECN     N3       NG1T1   -0.460000       14.0070           0
     62997 WT22     144      MECN     C1       CG331   -0.170000       12.0110           0
     62998 WT22     144      MECN     H11      HGA3     0.090000        1.0080           0
     62999 WT22     144      MECN     H12      HGA3     0.090000        1.0080           0
     63000 WT22     144      MECN     H13      HGA3     0.090000        1.0080           0
     63001 WT22     144      MECN     C2       CG1N1    0.360000       12.0110           0
     63002 WT22     144      MECN     N3       NG1T1   -0.460000       14.0070           0
     63003 WT22     146      MECN     C1       CG331   -0.170000       12.0110           0
     63004 WT22     146      MECN     H11      HGA3     0.090000        1.0080           0
     63005 WT22     146      MECN     H12      HGA3     0.090000        1.0080           0
     63006 WT22     146      MECN     H13      HGA3     0.090000        1.0080           0
     63007 WT22     146      MECN     C2       CG1N1    0.360000       12.0110           0
     63008 WT22     146      MECN     N3       NG1T1   -0.460000       14.0070           0
     63009 WT22     147      MECN     C1       CG331   -0.170000       12.0110           0
     63010 WT22     147      MECN     H11      HGA3     0.090000        1.0080           0
     63011 WT22     147      MECN     H12      HGA3     0.090000        1.0080           0
     63012 WT22     147      MECN     H13      HGA3     0.090000        1.0080           0
     63013 WT22     147      MECN     C2       CG1N1    0.360000       12.0110           0
     63014 WT22     147      MECN     N3       NG1T1   -0.460000       14.0070           0
     63015 WT22     148      MECN     C1       CG331   -0.170000       12.0110           0
     63016 WT22     148      MECN     H11      HGA3     0.090000        1.0080           0
     63017 WT22     148      MECN     H12      HGA3     0.090000        1.0080           0
     63018 WT22     148      MECN     H13      HGA3     0.090000        1.0080           0
     63019 WT22     148      MECN     C2       CG1N1    0.360000       12.0110           0
     63020 WT22     148      MECN     N3       NG1T1   -0.460000       14.0070           0
     63021 WT22     149      MECN     C1       CG331   -0.170000       12.0110           0
     63022 WT22     149      MECN     H11      HGA3     0.090000        1.0080           0
     63023 WT22     149      MECN     H12      HGA3     0.090000        1.0080           0
     63024 WT22     149      MECN     H13      HGA3     0.090000        1.0080           0
     63025 WT22     149      MECN     C2       CG1N1    0.360000       12.0110           0
     63026 WT22     149      MECN     N3       NG1T1   -0.460000       14.0070           0
     63027 WT22     151      MECN     C1       CG331   -0.170000       12.0110           0
     63028 WT22     151      MECN     H11      HGA3     0.090000        1.0080           0
     63029 WT22     151      MECN     H12      HGA3     0.090000        1.0080           0
     63030 WT22     151      MECN     H13      HGA3     0.090000        1.0080           0
     63031 WT22     151      MECN     C2       CG1N1    0.360000       12.0110           0
     63032 WT22     151      MECN     N3       NG1T1   -0.460000       14.0070           0
     63033 WT22     158      MECN     C1       CG331   -0.170000       12.0110           0
     63034 WT22     158      MECN     H11      HGA3     0.090000        1.0080           0
     63035 WT22     158      MECN     H12      HGA3     0.090000        1.0080           0
     63036 WT22     158      MECN     H13      HGA3     0.090000        1.0080           0
     63037 WT22     158      MECN     C2       CG1N1    0.360000       12.0110           0
     63038 WT22     158      MECN     N3       NG1T1   -0.460000       14.0070           0
     63039 WT22     159      MECN     C1       CG331   -0.170000       12.0110           0
     63040 WT22     159      MECN     H11      HGA3     0.090000        1.0080           0
     63041 WT22     159      MECN     H12      HGA3     0.090000        1.0080           0
     63042 WT22     159      MECN     H13      HGA3     0.090000        1.0080           0
     63043 WT22     159      MECN     C2       CG1N1    0.360000       12.0110           0
     63044 WT22     159      MECN     N3       NG1T1   -0.460000       14.0070           0
     63045 WT22     161      MECN     C1       CG331   -0.170000       12.0110           0
     63046 WT22     161      MECN     H11      HGA3     0.090000        1.0080           0
     63047 WT22     161      MECN     H12      HGA3     0.090000        1.0080           0
     63048 WT22     161      MECN     H13      HGA3     0.090000        1.0080           0
     63049 WT22     161      MECN     C2       CG1N1    0.360000       12.0110           0
     63050 WT22     161      MECN     N3       NG1T1   -0.460000       14.0070           0
     63051 WT22     162      MECN     C1       CG331   -0.170000       12.0110           0
     63052 WT22     162      MECN     H11      HGA3     0.090000        1.0080           0
     63053 WT22     162      MECN     H12      HGA3     0.090000        1.0080           0
     63054 WT22     162      MECN     H13      HGA3     0.090000        1.0080           0
     63055 WT22     162      MECN     C2       CG1N1    0.360000       12.0110           0
     63056 WT22     162      MECN     N3       NG1T1   -0.460000       14.0070           0
     63057 WT22     173      MECN     C1       CG331   -0.170000       12.0110           0
     63058 WT22     173      MECN     H11      HGA3     0.090000        1.0080           0
     63059 WT22     173      MECN     H12      HGA3     0.090000        1.0080           0
     63060 WT22     173      MECN     H13      HGA3     0.090000        1.0080           0
     63061 WT22     173      MECN     C2       CG1N1    0.360000       12.0110           0
     63062 WT22     173      MECN     N3       NG1T1   -0.460000       14.0070           0
     63063 WT22     179      MECN     C1       CG331   -0.170000       12.0110           0
     63064 WT22     179      MECN     H11      HGA3     0.090000        1.0080           0
     63065 WT22     179      MECN     H12      HGA3     0.090000        1.0080           0
     63066 WT22     179      MECN     H13      HGA3     0.090000        1.0080           0
     63067 WT22     179      MECN     C2       CG1N1    0.360000       12.0110           0
     63068 WT22     179      MECN     N3       NG1T1   -0.460000       14.0070           0
     63069 WT22     189      MECN     C1       CG331   -0.170000       12.0110           0
     63070 WT22     189      MECN     H11      HGA3     0.090000        1.0080           0
     63071 WT22     189      MECN     H12      HGA3     0.090000        1.0080           0
     63072 WT22     189      MECN     H13      HGA3     0.090000        1.0080           0
     63073 WT22     189      MECN     C2       CG1N1    0.360000       12.0110           0
     63074 WT22     189      MECN     N3       NG1T1   -0.460000       14.0070           0
     63075 WT22     191      MECN     C1       CG331   -0.170000       12.0110           0
     63076 WT22     191      MECN     H11      HGA3     0.090000        1.0080           0
     63077 WT22     191      MECN     H12      HGA3     0.090000        1.0080           0
     63078 WT22     191      MECN     H13      HGA3     0.090000        1.0080           0
     63079 WT22     191      MECN     C2       CG1N1    0.360000       12.0110           0
     63080 WT22     191      MECN     N3       NG1T1   -0.460000       14.0070           0
     63081 WT22     193      MECN     C1       CG331   -0.170000       12.0110           0
     63082 WT22     193      MECN     H11      HGA3     0.090000        1.0080           0
     63083 WT22     193      MECN     H12      HGA3     0.090000        1.0080           0
     63084 WT22     193      MECN     H13      HGA3     0.090000        1.0080           0
     63085 WT22     193      MECN     C2       CG1N1    0.360000       12.0110           0
     63086 WT22     193      MECN     N3       NG1T1   -0.460000       14.0070           0
     63087 WT22     194      MECN     C1       CG331   -0.170000       12.0110           0
     63088 WT22     194      MECN     H11      HGA3     0.090000        1.0080           0
     63089 WT22     194      MECN     H12      HGA3     0.090000        1.0080           0
     63090 WT22     194      MECN     H13      HGA3     0.090000        1.0080           0
     63091 WT22     194      MECN     C2       CG1N1    0.360000       12.0110           0
     63092 WT22     194      MECN     N3       NG1T1   -0.460000       14.0070           0
     63093 WT22     195      MECN     C1       CG331   -0.170000       12.0110           0
     63094 WT22     195      MECN     H11      HGA3     0.090000        1.0080           0
     63095 WT22     195      MECN     H12      HGA3     0.090000        1.0080           0
     63096 WT22     195      MECN     H13      HGA3     0.090000        1.0080           0
     63097 WT22     195      MECN     C2       CG1N1    0.360000       12.0110           0
     63098 WT22     195      MECN     N3       NG1T1   -0.460000       14.0070           0
     63099 WT22     198      MECN     C1       CG331   -0.170000       12.0110           0
     63100 WT22     198      MECN     H11      HGA3     0.090000        1.0080           0
     63101 WT22     198      MECN     H12      HGA3     0.090000        1.0080           0
     63102 WT22     198      MECN     H13      HGA3     0.090000        1.0080           0
     63103 WT22     198      MECN     C2       CG1N1    0.360000       12.0110           0
     63104 WT22     198      MECN     N3       NG1T1   -0.460000       14.0070           0
     63105 WT22     201      MECN     C1       CG331   -0.170000       12.0110           0
     63106 WT22     201      MECN     H11      HGA3     0.090000        1.0080           0
     63107 WT22     201      MECN     H12      HGA3     0.090000        1.0080           0
     63108 WT22     201      MECN     H13      HGA3     0.090000        1.0080           0
     63109 WT22     201      MECN     C2       CG1N1    0.360000       12.0110           0
     63110 WT22     201      MECN     N3       NG1T1   -0.460000       14.0070           0
     63111 WT22     202      MECN     C1       CG331   -0.170000       12.0110           0
     63112 WT22     202      MECN     H11      HGA3     0.090000        1.0080           0
     63113 WT22     202      MECN     H12      HGA3     0.090000        1.0080           0
     63114 WT22     202      MECN     H13      HGA3     0.090000        1.0080           0
     63115 WT22     202      MECN     C2       CG1N1    0.360000       12.0110           0
     63116 WT22     202      MECN     N3       NG1T1   -0.460000       14.0070           0
     63117 WT22     204      MECN     C1       CG331   -0.170000       12.0110           0
     63118 WT22     204      MECN     H11      HGA3     0.090000        1.0080           0
     63119 WT22     204      MECN     H12      HGA3     0.090000        1.0080           0
     63120 WT22     204      MECN     H13      HGA3     0.090000        1.0080           0
     63121 WT22     204      MECN     C2       CG1N1    0.360000       12.0110           0
     63122 WT22     204      MECN     N3       NG1T1   -0.460000       14.0070           0
     63123 WT22     207      MECN     C1       CG331   -0.170000       12.0110           0
     63124 WT22     207      MECN     H11      HGA3     0.090000        1.0080           0
     63125 WT22     207      MECN     H12      HGA3     0.090000        1.0080           0
     63126 WT22     207      MECN     H13      HGA3     0.090000        1.0080           0
     63127 WT22     207      MECN     C2       CG1N1    0.360000       12.0110           0
     63128 WT22     207      MECN     N3       NG1T1   -0.460000       14.0070           0
     63129 WT22     208      MECN     C1       CG331   -0.170000       12.0110           0
     63130 WT22     208      MECN     H11      HGA3     0.090000        1.0080           0
     63131 WT22     208      MECN     H12      HGA3     0.090000        1.0080           0
     63132 WT22     208      MECN     H13      HGA3     0.090000        1.0080           0
     63133 WT22     208      MECN     C2       CG1N1    0.360000       12.0110           0
     63134 WT22     208      MECN     N3       NG1T1   -0.460000       14.0070           0
     63135 WT22     210      MECN     C1       CG331   -0.170000       12.0110           0
     63136 WT22     210      MECN     H11      HGA3     0.090000        1.0080           0
     63137 WT22     210      MECN     H12      HGA3     0.090000        1.0080           0
     63138 WT22     210      MECN     H13      HGA3     0.090000        1.0080           0
     63139 WT22     210      MECN     C2       CG1N1    0.360000       12.0110           0
     63140 WT22     210      MECN     N3       NG1T1   -0.460000       14.0070           0
     63141 WT22     216      MECN     C1       CG331   -0.170000       12.0110           0
     63142 WT22     216      MECN     H11      HGA3     0.090000        1.0080           0
     63143 WT22     216      MECN     H12      HGA3     0.090000        1.0080           0
     63144 WT22     216      MECN     H13      HGA3     0.090000        1.0080           0
     63145 WT22     216      MECN     C2       CG1N1    0.360000       12.0110           0
     63146 WT22     216      MECN     N3       NG1T1   -0.460000       14.0070           0
     63147 WT22     219      MECN     C1       CG331   -0.170000       12.0110           0
     63148 WT22     219      MECN     H11      HGA3     0.090000        1.0080           0
     63149 WT22     219      MECN     H12      HGA3     0.090000        1.0080           0
     63150 WT22     219      MECN     H13      HGA3     0.090000        1.0080           0
     63151 WT22     219      MECN     C2       CG1N1    0.360000       12.0110           0
     63152 WT22     219      MECN     N3       NG1T1   -0.460000       14.0070           0
     63153 WT22     221      MECN     C1       CG331   -0.170000       12.0110           0
     63154 WT22     221      MECN     H11      HGA3     0.090000        1.0080           0
     63155 WT22     221      MECN     H12      HGA3     0.090000        1.0080           0
     63156 WT22     221      MECN     H13      HGA3     0.090000        1.0080           0
     63157 WT22     221      MECN     C2       CG1N1    0.360000       12.0110           0
     63158 WT22     221      MECN     N3       NG1T1   -0.460000       14.0070           0
     63159 WT22     225      MECN     C1       CG331   -0.170000       12.0110           0
     63160 WT22     225      MECN     H11      HGA3     0.090000        1.0080           0
     63161 WT22     225      MECN     H12      HGA3     0.090000        1.0080           0
     63162 WT22     225      MECN     H13      HGA3     0.090000        1.0080           0
     63163 WT22     225      MECN     C2       CG1N1    0.360000       12.0110           0
     63164 WT22     225      MECN     N3       NG1T1   -0.460000       14.0070           0
     63165 WT22     230      MECN     C1       CG331   -0.170000       12.0110           0
     63166 WT22     230      MECN     H11      HGA3     0.090000        1.0080           0
     63167 WT22     230      MECN     H12      HGA3     0.090000        1.0080           0
     63168 WT22     230      MECN     H13      HGA3     0.090000        1.0080           0
     63169 WT22     230      MECN     C2       CG1N1    0.360000       12.0110           0
     63170 WT22     230      MECN     N3       NG1T1   -0.460000       14.0070           0
     63171 WT22     233      MECN     C1       CG331   -0.170000       12.0110           0
     63172 WT22     233      MECN     H11      HGA3     0.090000        1.0080           0
     63173 WT22     233      MECN     H12      HGA3     0.090000        1.0080           0
     63174 WT22     233      MECN     H13      HGA3     0.090000        1.0080           0
     63175 WT22     233      MECN     C2       CG1N1    0.360000       12.0110           0
     63176 WT22     233      MECN     N3       NG1T1   -0.460000       14.0070           0
     63177 WT22     241      MECN     C1       CG331   -0.170000       12.0110           0
     63178 WT22     241      MECN     H11      HGA3     0.090000        1.0080           0
     63179 WT22     241      MECN     H12      HGA3     0.090000        1.0080           0
     63180 WT22     241      MECN     H13      HGA3     0.090000        1.0080           0
     63181 WT22     241      MECN     C2       CG1N1    0.360000       12.0110           0
     63182 WT22     241      MECN     N3       NG1T1   -0.460000       14.0070           0
     63183 WT22     246      MECN     C1       CG331   -0.170000       12.0110           0
     63184 WT22     246      MECN     H11      HGA3     0.090000        1.0080           0
     63185 WT22     246      MECN     H12      HGA3     0.090000        1.0080           0
     63186 WT22     246      MECN     H13      HGA3     0.090000        1.0080           0
     63187 WT22     246      MECN     C2       CG1N1    0.360000       12.0110           0
     63188 WT22     246      MECN     N3       NG1T1   -0.460000       14.0070           0
     63189 WT22     247      MECN     C1       CG331   -0.170000       12.0110           0
     63190 WT22     247      MECN     H11      HGA3     0.090000        1.0080           0
     63191 WT22     247      MECN     H12      HGA3     0.090000        1.0080           0
     63192 WT22     247      MECN     H13      HGA3     0.090000        1.0080           0
     63193 WT22     247      MECN     C2       CG1N1    0.360000       12.0110           0
     63194 WT22     247      MECN     N3       NG1T1   -0.460000       14.0070           0
     63195 WT22     248      MECN     C1       CG331   -0.170000       12.0110           0
     63196 WT22     248      MECN     H11      HGA3     0.090000        1.0080           0
     63197 WT22     248      MECN     H12      HGA3     0.090000        1.0080           0
     63198 WT22     248      MECN     H13      HGA3     0.090000        1.0080           0
     63199 WT22     248      MECN     C2       CG1N1    0.360000       12.0110           0
     63200 WT22     248      MECN     N3       NG1T1   -0.460000       14.0070           0
     63201 WT22     251      MECN     C1       CG331   -0.170000       12.0110           0
     63202 WT22     251      MECN     H11      HGA3     0.090000        1.0080           0
     63203 WT22     251      MECN     H12      HGA3     0.090000        1.0080           0
     63204 WT22     251      MECN     H13      HGA3     0.090000        1.0080           0
     63205 WT22     251      MECN     C2       CG1N1    0.360000       12.0110           0
     63206 WT22     251      MECN     N3       NG1T1   -0.460000       14.0070           0
     63207 WT22     253      MECN     C1       CG331   -0.170000       12.0110           0
     63208 WT22     253      MECN     H11      HGA3     0.090000        1.0080           0
     63209 WT22     253      MECN     H12      HGA3     0.090000        1.0080           0
     63210 WT22     253      MECN     H13      HGA3     0.090000        1.0080           0
     63211 WT22     253      MECN     C2       CG1N1    0.360000       12.0110           0
     63212 WT22     253      MECN     N3       NG1T1   -0.460000       14.0070           0
     63213 WT22     255      MECN     C1       CG331   -0.170000       12.0110           0
     63214 WT22     255      MECN     H11      HGA3     0.090000        1.0080           0
     63215 WT22     255      MECN     H12      HGA3     0.090000        1.0080           0
     63216 WT22     255      MECN     H13      HGA3     0.090000        1.0080           0
     63217 WT22     255      MECN     C2       CG1N1    0.360000       12.0110           0
     63218 WT22     255      MECN     N3       NG1T1   -0.460000       14.0070           0
     63219 WT22     256      MECN     C1       CG331   -0.170000       12.0110           0
     63220 WT22     256      MECN     H11      HGA3     0.090000        1.0080           0
     63221 WT22     256      MECN     H12      HGA3     0.090000        1.0080           0
     63222 WT22     256      MECN     H13      HGA3     0.090000        1.0080           0
     63223 WT22     256      MECN     C2       CG1N1    0.360000       12.0110           0
     63224 WT22     256      MECN     N3       NG1T1   -0.460000       14.0070           0
     63225 WT22     260      MECN     C1       CG331   -0.170000       12.0110           0
     63226 WT22     260      MECN     H11      HGA3     0.090000        1.0080           0
     63227 WT22     260      MECN     H12      HGA3     0.090000        1.0080           0
     63228 WT22     260      MECN     H13      HGA3     0.090000        1.0080           0
     63229 WT22     260      MECN     C2       CG1N1    0.360000       12.0110           0
     63230 WT22     260      MECN     N3       NG1T1   -0.460000       14.0070           0
     63231 WT22     262      MECN     C1       CG331   -0.170000       12.0110           0
     63232 WT22     262      MECN     H11      HGA3     0.090000        1.0080           0
     63233 WT22     262      MECN     H12      HGA3     0.090000        1.0080           0
     63234 WT22     262      MECN     H13      HGA3     0.090000        1.0080           0
     63235 WT22     262      MECN     C2       CG1N1    0.360000       12.0110           0
     63236 WT22     262      MECN     N3       NG1T1   -0.460000       14.0070           0
     63237 WT22     265      MECN     C1       CG331   -0.170000       12.0110           0
     63238 WT22     265      MECN     H11      HGA3     0.090000        1.0080           0
     63239 WT22     265      MECN     H12      HGA3     0.090000        1.0080           0
     63240 WT22     265      MECN     H13      HGA3     0.090000        1.0080           0
     63241 WT22     265      MECN     C2       CG1N1    0.360000       12.0110           0
     63242 WT22     265      MECN     N3       NG1T1   -0.460000       14.0070           0
     63243 WT22     266      MECN     C1       CG331   -0.170000       12.0110           0
     63244 WT22     266      MECN     H11      HGA3     0.090000        1.0080           0
     63245 WT22     266      MECN     H12      HGA3     0.090000        1.0080           0
     63246 WT22     266      MECN     H13      HGA3     0.090000        1.0080           0
     63247 WT22     266      MECN     C2       CG1N1    0.360000       12.0110           0
     63248 WT22     266      MECN     N3       NG1T1   -0.460000       14.0070           0
     63249 WT22     270      MECN     C1       CG331   -0.170000       12.0110           0
     63250 WT22     270      MECN     H11      HGA3     0.090000        1.0080           0
     63251 WT22     270      MECN     H12      HGA3     0.090000        1.0080           0
     63252 WT22     270      MECN     H13      HGA3     0.090000        1.0080           0
     63253 WT22     270      MECN     C2       CG1N1    0.360000       12.0110           0
     63254 WT22     270      MECN     N3       NG1T1   -0.460000       14.0070           0
     63255 WT22     271      MECN     C1       CG331   -0.170000       12.0110           0
     63256 WT22     271      MECN     H11      HGA3     0.090000        1.0080           0
     63257 WT22     271      MECN     H12      HGA3     0.090000        1.0080           0
     63258 WT22     271      MECN     H13      HGA3     0.090000        1.0080           0
     63259 WT22     271      MECN     C2       CG1N1    0.360000       12.0110           0
     63260 WT22     271      MECN     N3       NG1T1   -0.460000       14.0070           0
     63261 WT22     272      MECN     C1       CG331   -0.170000       12.0110           0
     63262 WT22     272      MECN     H11      HGA3     0.090000        1.0080           0
     63263 WT22     272      MECN     H12      HGA3     0.090000        1.0080           0
     63264 WT22     272      MECN     H13      HGA3     0.090000        1.0080           0
     63265 WT22     272      MECN     C2       CG1N1    0.360000       12.0110           0
     63266 WT22     272      MECN     N3       NG1T1   -0.460000       14.0070           0
     63267 WT22     274      MECN     C1       CG331   -0.170000       12.0110           0
     63268 WT22     274      MECN     H11      HGA3     0.090000        1.0080           0
     63269 WT22     274      MECN     H12      HGA3     0.090000        1.0080           0
     63270 WT22     274      MECN     H13      HGA3     0.090000        1.0080           0
     63271 WT22     274      MECN     C2       CG1N1    0.360000       12.0110           0
     63272 WT22     274      MECN     N3       NG1T1   -0.460000       14.0070           0
     63273 WT22     275      MECN     C1       CG331   -0.170000       12.0110           0
     63274 WT22     275      MECN     H11      HGA3     0.090000        1.0080           0
     63275 WT22     275      MECN     H12      HGA3     0.090000        1.0080           0
     63276 WT22     275      MECN     H13      HGA3     0.090000        1.0080           0
     63277 WT22     275      MECN     C2       CG1N1    0.360000       12.0110           0
     63278 WT22     275      MECN     N3       NG1T1   -0.460000       14.0070           0
     63279 WT22     282      MECN     C1       CG331   -0.170000       12.0110           0
     63280 WT22     282      MECN     H11      HGA3     0.090000        1.0080           0
     63281 WT22     282      MECN     H12      HGA3     0.090000        1.0080           0
     63282 WT22     282      MECN     H13      HGA3     0.090000        1.0080           0
     63283 WT22     282      MECN     C2       CG1N1    0.360000       12.0110           0
     63284 WT22     282      MECN     N3       NG1T1   -0.460000       14.0070           0
     63285 WT22     285      MECN     C1       CG331   -0.170000       12.0110           0
     63286 WT22     285      MECN     H11      HGA3     0.090000        1.0080           0
     63287 WT22     285      MECN     H12      HGA3     0.090000        1.0080           0
     63288 WT22     285      MECN     H13      HGA3     0.090000        1.0080           0
     63289 WT22     285      MECN     C2       CG1N1    0.360000       12.0110           0
     63290 WT22     285      MECN     N3       NG1T1   -0.460000       14.0070           0
     63291 WT22     290      MECN     C1       CG331   -0.170000       12.0110           0
     63292 WT22     290      MECN     H11      HGA3     0.090000        1.0080           0
     63293 WT22     290      MECN     H12      HGA3     0.090000        1.0080           0
     63294 WT22     290      MECN     H13      HGA3     0.090000        1.0080           0
     63295 WT22     290      MECN     C2       CG1N1    0.360000       12.0110           0
     63296 WT22     290      MECN     N3       NG1T1   -0.460000       14.0070           0
     63297 WT22     292      MECN     C1       CG331   -0.170000       12.0110           0
     63298 WT22     292      MECN     H11      HGA3     0.090000        1.0080           0
     63299 WT22     292      MECN     H12      HGA3     0.090000        1.0080           0
     63300 WT22     292      MECN     H13      HGA3     0.090000        1.0080           0
     63301 WT22     292      MECN     C2       CG1N1    0.360000       12.0110           0
     63302 WT22     292      MECN     N3       NG1T1   -0.460000       14.0070           0
     63303 WT22     295      MECN     C1       CG331   -0.170000       12.0110           0
     63304 WT22     295      MECN     H11      HGA3     0.090000        1.0080           0
     63305 WT22     295      MECN     H12      HGA3     0.090000        1.0080           0
     63306 WT22     295      MECN     H13      HGA3     0.090000        1.0080           0
     63307 WT22     295      MECN     C2       CG1N1    0.360000       12.0110           0
     63308 WT22     295      MECN     N3       NG1T1   -0.460000       14.0070           0
     63309 WT22     297      MECN     C1       CG331   -0.170000       12.0110           0
     63310 WT22     297      MECN     H11      HGA3     0.090000        1.0080           0
     63311 WT22     297      MECN     H12      HGA3     0.090000        1.0080           0
     63312 WT22     297      MECN     H13      HGA3     0.090000        1.0080           0
     63313 WT22     297      MECN     C2       CG1N1    0.360000       12.0110           0
     63314 WT22     297      MECN     N3       NG1T1   -0.460000       14.0070           0
     63315 WT22     300      MECN     C1       CG331   -0.170000       12.0110           0
     63316 WT22     300      MECN     H11      HGA3     0.090000        1.0080           0
     63317 WT22     300      MECN     H12      HGA3     0.090000        1.0080           0
     63318 WT22     300      MECN     H13      HGA3     0.090000        1.0080           0
     63319 WT22     300      MECN     C2       CG1N1    0.360000       12.0110           0
     63320 WT22     300      MECN     N3       NG1T1   -0.460000       14.0070           0
     63321 WT22     301      MECN     C1       CG331   -0.170000       12.0110           0
     63322 WT22     301      MECN     H11      HGA3     0.090000        1.0080           0
     63323 WT22     301      MECN     H12      HGA3     0.090000        1.0080           0
     63324 WT22     301      MECN     H13      HGA3     0.090000        1.0080           0
     63325 WT22     301      MECN     C2       CG1N1    0.360000       12.0110           0
     63326 WT22     301      MECN     N3       NG1T1   -0.460000       14.0070           0
     63327 WT22     302      MECN     C1       CG331   -0.170000       12.0110           0
     63328 WT22     302      MECN     H11      HGA3     0.090000        1.0080           0
     63329 WT22     302      MECN     H12      HGA3     0.090000        1.0080           0
     63330 WT22     302      MECN     H13      HGA3     0.090000        1.0080           0
     63331 WT22     302      MECN     C2       CG1N1    0.360000       12.0110           0
     63332 WT22     302      MECN     N3       NG1T1   -0.460000       14.0070           0
     63333 WT22     303      MECN     C1       CG331   -0.170000       12.0110           0
     63334 WT22     303      MECN     H11      HGA3     0.090000        1.0080           0
     63335 WT22     303      MECN     H12      HGA3     0.090000        1.0080           0
     63336 WT22     303      MECN     H13      HGA3     0.090000        1.0080           0
     63337 WT22     303      MECN     C2       CG1N1    0.360000       12.0110           0
     63338 WT22     303      MECN     N3       NG1T1   -0.460000       14.0070           0
     63339 WT22     304      MECN     C1       CG331   -0.170000       12.0110           0
     63340 WT22     304      MECN     H11      HGA3     0.090000        1.0080           0
     63341 WT22     304      MECN     H12      HGA3     0.090000        1.0080           0
     63342 WT22     304      MECN     H13      HGA3     0.090000        1.0080           0
     63343 WT22     304      MECN     C2       CG1N1    0.360000       12.0110           0
     63344 WT22     304      MECN     N3       NG1T1   -0.460000       14.0070           0
     63345 WT22     308      MECN     C1       CG331   -0.170000       12.0110           0
     63346 WT22     308      MECN     H11      HGA3     0.090000        1.0080           0
     63347 WT22     308      MECN     H12      HGA3     0.090000        1.0080           0
     63348 WT22     308      MECN     H13      HGA3     0.090000        1.0080           0
     63349 WT22     308      MECN     C2       CG1N1    0.360000       12.0110           0
     63350 WT22     308      MECN     N3       NG1T1   -0.460000       14.0070           0
     63351 WT22     310      MECN     C1       CG331   -0.170000       12.0110           0
     63352 WT22     310      MECN     H11      HGA3     0.090000        1.0080           0
     63353 WT22     310      MECN     H12      HGA3     0.090000        1.0080           0
     63354 WT22     310      MECN     H13      HGA3     0.090000        1.0080           0
     63355 WT22     310      MECN     C2       CG1N1    0.360000       12.0110           0
     63356 WT22     310      MECN     N3       NG1T1   -0.460000       14.0070           0
     63357 WT22     311      MECN     C1       CG331   -0.170000       12.0110           0
     63358 WT22     311      MECN     H11      HGA3     0.090000        1.0080           0
     63359 WT22     311      MECN     H12      HGA3     0.090000        1.0080           0
     63360 WT22     311      MECN     H13      HGA3     0.090000        1.0080           0
     63361 WT22     311      MECN     C2       CG1N1    0.360000       12.0110           0
     63362 WT22     311      MECN     N3       NG1T1   -0.460000       14.0070           0
     63363 WT22     312      MECN     C1       CG331   -0.170000       12.0110           0
     63364 WT22     312      MECN     H11      HGA3     0.090000        1.0080           0
     63365 WT22     312      MECN     H12      HGA3     0.090000        1.0080           0
     63366 WT22     312      MECN     H13      HGA3     0.090000        1.0080           0
     63367 WT22     312      MECN     C2       CG1N1    0.360000       12.0110           0
     63368 WT22     312      MECN     N3       NG1T1   -0.460000       14.0070           0
     63369 WT22     313      MECN     C1       CG331   -0.170000       12.0110           0
     63370 WT22     313      MECN     H11      HGA3     0.090000        1.0080           0
     63371 WT22     313      MECN     H12      HGA3     0.090000        1.0080           0
     63372 WT22     313      MECN     H13      HGA3     0.090000        1.0080           0
     63373 WT22     313      MECN     C2       CG1N1    0.360000       12.0110           0
     63374 WT22     313      MECN     N3       NG1T1   -0.460000       14.0070           0
     63375 WT22     315      MECN     C1       CG331   -0.170000       12.0110           0
     63376 WT22     315      MECN     H11      HGA3     0.090000        1.0080           0
     63377 WT22     315      MECN     H12      HGA3     0.090000        1.0080           0
     63378 WT22     315      MECN     H13      HGA3     0.090000        1.0080           0
     63379 WT22     315      MECN     C2       CG1N1    0.360000       12.0110           0
     63380 WT22     315      MECN     N3       NG1T1   -0.460000       14.0070           0
     63381 WT22     317      MECN     C1       CG331   -0.170000       12.0110           0
     63382 WT22     317      MECN     H11      HGA3     0.090000        1.0080           0
     63383 WT22     317      MECN     H12      HGA3     0.090000        1.0080           0
     63384 WT22     317      MECN     H13      HGA3     0.090000        1.0080           0
     63385 WT22     317      MECN     C2       CG1N1    0.360000       12.0110           0
     63386 WT22     317      MECN     N3       NG1T1   -0.460000       14.0070           0
     63387 WT22     325      MECN     C1       CG331   -0.170000       12.0110           0
     63388 WT22     325      MECN     H11      HGA3     0.090000        1.0080           0
     63389 WT22     325      MECN     H12      HGA3     0.090000        1.0080           0
     63390 WT22     325      MECN     H13      HGA3     0.090000        1.0080           0
     63391 WT22     325      MECN     C2       CG1N1    0.360000       12.0110           0
     63392 WT22     325      MECN     N3       NG1T1   -0.460000       14.0070           0
     63393 WT22     327      MECN     C1       CG331   -0.170000       12.0110           0
     63394 WT22     327      MECN     H11      HGA3     0.090000        1.0080           0
     63395 WT22     327      MECN     H12      HGA3     0.090000        1.0080           0
     63396 WT22     327      MECN     H13      HGA3     0.090000        1.0080           0
     63397 WT22     327      MECN     C2       CG1N1    0.360000       12.0110           0
     63398 WT22     327      MECN     N3       NG1T1   -0.460000       14.0070           0
     63399 WT22     328      MECN     C1       CG331   -0.170000       12.0110           0
     63400 WT22     328      MECN     H11      HGA3     0.090000        1.0080           0
     63401 WT22     328      MECN     H12      HGA3     0.090000        1.0080           0
     63402 WT22     328      MECN     H13      HGA3     0.090000        1.0080           0
     63403 WT22     328      MECN     C2       CG1N1    0.360000       12.0110           0
     63404 WT22     328      MECN     N3       NG1T1   -0.460000       14.0070           0
     63405 WT22     332      MECN     C1       CG331   -0.170000       12.0110           0
     63406 WT22     332      MECN     H11      HGA3     0.090000        1.0080           0
     63407 WT22     332      MECN     H12      HGA3     0.090000        1.0080           0
     63408 WT22     332      MECN     H13      HGA3     0.090000        1.0080           0
     63409 WT22     332      MECN     C2       CG1N1    0.360000       12.0110           0
     63410 WT22     332      MECN     N3       NG1T1   -0.460000       14.0070           0
     63411 WT22     333      MECN     C1       CG331   -0.170000       12.0110           0
     63412 WT22     333      MECN     H11      HGA3     0.090000        1.0080           0
     63413 WT22     333      MECN     H12      HGA3     0.090000        1.0080           0
     63414 WT22     333      MECN     H13      HGA3     0.090000        1.0080           0
     63415 WT22     333      MECN     C2       CG1N1    0.360000       12.0110           0
     63416 WT22     333      MECN     N3       NG1T1   -0.460000       14.0070           0
     63417 WT22     335      MECN     C1       CG331   -0.170000       12.0110           0
     63418 WT22     335      MECN     H11      HGA3     0.090000        1.0080           0
     63419 WT22     335      MECN     H12      HGA3     0.090000        1.0080           0
     63420 WT22     335      MECN     H13      HGA3     0.090000        1.0080           0
     63421 WT22     335      MECN     C2       CG1N1    0.360000       12.0110           0
     63422 WT22     335      MECN     N3       NG1T1   -0.460000       14.0070           0
     63423 WT22     336      MECN     C1       CG331   -0.170000       12.0110           0
     63424 WT22     336      MECN     H11      HGA3     0.090000        1.0080           0
     63425 WT22     336      MECN     H12      HGA3     0.090000        1.0080           0
     63426 WT22     336      MECN     H13      HGA3     0.090000        1.0080           0
     63427 WT22     336      MECN     C2       CG1N1    0.360000       12.0110           0
     63428 WT22     336      MECN     N3       NG1T1   -0.460000       14.0070           0
     63429 WT22     339      MECN     C1       CG331   -0.170000       12.0110           0
     63430 WT22     339      MECN     H11      HGA3     0.090000        1.0080           0
     63431 WT22     339      MECN     H12      HGA3     0.090000        1.0080           0
     63432 WT22     339      MECN     H13      HGA3     0.090000        1.0080           0
     63433 WT22     339      MECN     C2       CG1N1    0.360000       12.0110           0
     63434 WT22     339      MECN     N3       NG1T1   -0.460000       14.0070           0
     63435 WT22     340      MECN     C1       CG331   -0.170000       12.0110           0
     63436 WT22     340      MECN     H11      HGA3     0.090000        1.0080           0
     63437 WT22     340      MECN     H12      HGA3     0.090000        1.0080           0
     63438 WT22     340      MECN     H13      HGA3     0.090000        1.0080           0
     63439 WT22     340      MECN     C2       CG1N1    0.360000       12.0110           0
     63440 WT22     340      MECN     N3       NG1T1   -0.460000       14.0070           0
     63441 WT22     341      MECN     C1       CG331   -0.170000       12.0110           0
     63442 WT22     341      MECN     H11      HGA3     0.090000        1.0080           0
     63443 WT22     341      MECN     H12      HGA3     0.090000        1.0080           0
     63444 WT22     341      MECN     H13      HGA3     0.090000        1.0080           0
     63445 WT22     341      MECN     C2       CG1N1    0.360000       12.0110           0
     63446 WT22     341      MECN     N3       NG1T1   -0.460000       14.0070           0
     63447 WT22     343      MECN     C1       CG331   -0.170000       12.0110           0
     63448 WT22     343      MECN     H11      HGA3     0.090000        1.0080           0
     63449 WT22     343      MECN     H12      HGA3     0.090000        1.0080           0
     63450 WT22     343      MECN     H13      HGA3     0.090000        1.0080           0
     63451 WT22     343      MECN     C2       CG1N1    0.360000       12.0110           0
     63452 WT22     343      MECN     N3       NG1T1   -0.460000       14.0070           0
     63453 WT22     344      MECN     C1       CG331   -0.170000       12.0110           0
     63454 WT22     344      MECN     H11      HGA3     0.090000        1.0080           0
     63455 WT22     344      MECN     H12      HGA3     0.090000        1.0080           0
     63456 WT22     344      MECN     H13      HGA3     0.090000        1.0080           0
     63457 WT22     344      MECN     C2       CG1N1    0.360000       12.0110           0
     63458 WT22     344      MECN     N3       NG1T1   -0.460000       14.0070           0
     63459 WT22     346      MECN     C1       CG331   -0.170000       12.0110           0
     63460 WT22     346      MECN     H11      HGA3     0.090000        1.0080           0
     63461 WT22     346      MECN     H12      HGA3     0.090000        1.0080           0
     63462 WT22     346      MECN     H13      HGA3     0.090000        1.0080           0
     63463 WT22     346      MECN     C2       CG1N1    0.360000       12.0110           0
     63464 WT22     346      MECN     N3       NG1T1   -0.460000       14.0070           0
     63465 WT22     349      MECN     C1       CG331   -0.170000       12.0110           0
     63466 WT22     349      MECN     H11      HGA3     0.090000        1.0080           0
     63467 WT22     349      MECN     H12      HGA3     0.090000        1.0080           0
     63468 WT22     349      MECN     H13      HGA3     0.090000        1.0080           0
     63469 WT22     349      MECN     C2       CG1N1    0.360000       12.0110           0
     63470 WT22     349      MECN     N3       NG1T1   -0.460000       14.0070           0
     63471 WT22     366      MECN     C1       CG331   -0.170000       12.0110           0
     63472 WT22     366      MECN     H11      HGA3     0.090000        1.0080           0
     63473 WT22     366      MECN     H12      HGA3     0.090000        1.0080           0
     63474 WT22     366      MECN     H13      HGA3     0.090000        1.0080           0
     63475 WT22     366      MECN     C2       CG1N1    0.360000       12.0110           0
     63476 WT22     366      MECN     N3       NG1T1   -0.460000       14.0070           0
     63477 WT22     367      MECN     C1       CG331   -0.170000       12.0110           0
     63478 WT22     367      MECN     H11      HGA3     0.090000        1.0080           0
     63479 WT22     367      MECN     H12      HGA3     0.090000        1.0080           0
     63480 WT22     367      MECN     H13      HGA3     0.090000        1.0080           0
     63481 WT22     367      MECN     C2       CG1N1    0.360000       12.0110           0
     63482 WT22     367      MECN     N3       NG1T1   -0.460000       14.0070           0
     63483 WT22     369      MECN     C1       CG331   -0.170000       12.0110           0
     63484 WT22     369      MECN     H11      HGA3     0.090000        1.0080           0
     63485 WT22     369      MECN     H12      HGA3     0.090000        1.0080           0
     63486 WT22     369      MECN     H13      HGA3     0.090000        1.0080           0
     63487 WT22     369      MECN     C2       CG1N1    0.360000       12.0110           0
     63488 WT22     369      MECN     N3       NG1T1   -0.460000       14.0070           0
     63489 WT22     374      MECN     C1       CG331   -0.170000       12.0110           0
     63490 WT22     374      MECN     H11      HGA3     0.090000        1.0080           0
     63491 WT22     374      MECN     H12      HGA3     0.090000        1.0080           0
     63492 WT22     374      MECN     H13      HGA3     0.090000        1.0080           0
     63493 WT22     374      MECN     C2       CG1N1    0.360000       12.0110           0
     63494 WT22     374      MECN     N3       NG1T1   -0.460000       14.0070           0
     63495 WT22     376      MECN     C1       CG331   -0.170000       12.0110           0
     63496 WT22     376      MECN     H11      HGA3     0.090000        1.0080           0
     63497 WT22     376      MECN     H12      HGA3     0.090000        1.0080           0
     63498 WT22     376      MECN     H13      HGA3     0.090000        1.0080           0
     63499 WT22     376      MECN     C2       CG1N1    0.360000       12.0110           0
     63500 WT22     376      MECN     N3       NG1T1   -0.460000       14.0070           0
     63501 WT22     378      MECN     C1       CG331   -0.170000       12.0110           0
     63502 WT22     378      MECN     H11      HGA3     0.090000        1.0080           0
     63503 WT22     378      MECN     H12      HGA3     0.090000        1.0080           0
     63504 WT22     378      MECN     H13      HGA3     0.090000        1.0080           0
     63505 WT22     378      MECN     C2       CG1N1    0.360000       12.0110           0
     63506 WT22     378      MECN     N3       NG1T1   -0.460000       14.0070           0
     63507 WT22     381      MECN     C1       CG331   -0.170000       12.0110           0
     63508 WT22     381      MECN     H11      HGA3     0.090000        1.0080           0
     63509 WT22     381      MECN     H12      HGA3     0.090000        1.0080           0
     63510 WT22     381      MECN     H13      HGA3     0.090000        1.0080           0
     63511 WT22     381      MECN     C2       CG1N1    0.360000       12.0110           0
     63512 WT22     381      MECN     N3       NG1T1   -0.460000       14.0070           0
     63513 WT22     383      MECN     C1       CG331   -0.170000       12.0110           0
     63514 WT22     383      MECN     H11      HGA3     0.090000        1.0080           0
     63515 WT22     383      MECN     H12      HGA3     0.090000        1.0080           0
     63516 WT22     383      MECN     H13      HGA3     0.090000        1.0080           0
     63517 WT22     383      MECN     C2       CG1N1    0.360000       12.0110           0
     63518 WT22     383      MECN     N3       NG1T1   -0.460000       14.0070           0
     63519 WT22     384      MECN     C1       CG331   -0.170000       12.0110           0
     63520 WT22     384      MECN     H11      HGA3     0.090000        1.0080           0
     63521 WT22     384      MECN     H12      HGA3     0.090000        1.0080           0
     63522 WT22     384      MECN     H13      HGA3     0.090000        1.0080           0
     63523 WT22     384      MECN     C2       CG1N1    0.360000       12.0110           0
     63524 WT22     384      MECN     N3       NG1T1   -0.460000       14.0070           0
     63525 WT22     386      MECN     C1       CG331   -0.170000       12.0110           0
     63526 WT22     386      MECN     H11      HGA3     0.090000        1.0080           0
     63527 WT22     386      MECN     H12      HGA3     0.090000        1.0080           0
     63528 WT22     386      MECN     H13      HGA3     0.090000        1.0080           0
     63529 WT22     386      MECN     C2       CG1N1    0.360000       12.0110           0
     63530 WT22     386      MECN     N3       NG1T1   -0.460000       14.0070           0
     63531 WT22     391      MECN     C1       CG331   -0.170000       12.0110           0
     63532 WT22     391      MECN     H11      HGA3     0.090000        1.0080           0
     63533 WT22     391      MECN     H12      HGA3     0.090000        1.0080           0
     63534 WT22     391      MECN     H13      HGA3     0.090000        1.0080           0
     63535 WT22     391      MECN     C2       CG1N1    0.360000       12.0110           0
     63536 WT22     391      MECN     N3       NG1T1   -0.460000       14.0070           0
     63537 WT22     395      MECN     C1       CG331   -0.170000       12.0110           0
     63538 WT22     395      MECN     H11      HGA3     0.090000        1.0080           0
     63539 WT22     395      MECN     H12      HGA3     0.090000        1.0080           0
     63540 WT22     395      MECN     H13      HGA3     0.090000        1.0080           0
     63541 WT22     395      MECN     C2       CG1N1    0.360000       12.0110           0
     63542 WT22     395      MECN     N3       NG1T1   -0.460000       14.0070           0
     63543 WT22     400      MECN     C1       CG331   -0.170000       12.0110           0
     63544 WT22     400      MECN     H11      HGA3     0.090000        1.0080           0
     63545 WT22     400      MECN     H12      HGA3     0.090000        1.0080           0
     63546 WT22     400      MECN     H13      HGA3     0.090000        1.0080           0
     63547 WT22     400      MECN     C2       CG1N1    0.360000       12.0110           0
     63548 WT22     400      MECN     N3       NG1T1   -0.460000       14.0070           0
     63549 WT22     401      MECN     C1       CG331   -0.170000       12.0110           0
     63550 WT22     401      MECN     H11      HGA3     0.090000        1.0080           0
     63551 WT22     401      MECN     H12      HGA3     0.090000        1.0080           0
     63552 WT22     401      MECN     H13      HGA3     0.090000        1.0080           0
     63553 WT22     401      MECN     C2       CG1N1    0.360000       12.0110           0
     63554 WT22     401      MECN     N3       NG1T1   -0.460000       14.0070           0
     63555 WT22     403      MECN     C1       CG331   -0.170000       12.0110           0
     63556 WT22     403      MECN     H11      HGA3     0.090000        1.0080           0
     63557 WT22     403      MECN     H12      HGA3     0.090000        1.0080           0
     63558 WT22     403      MECN     H13      HGA3     0.090000        1.0080           0
     63559 WT22     403      MECN     C2       CG1N1    0.360000       12.0110           0
     63560 WT22     403      MECN     N3       NG1T1   -0.460000       14.0070           0
     63561 WT22     404      MECN     C1       CG331   -0.170000       12.0110           0
     63562 WT22     404      MECN     H11      HGA3     0.090000        1.0080           0
     63563 WT22     404      MECN     H12      HGA3     0.090000        1.0080           0
     63564 WT22     404      MECN     H13      HGA3     0.090000        1.0080           0
     63565 WT22     404      MECN     C2       CG1N1    0.360000       12.0110           0
     63566 WT22     404      MECN     N3       NG1T1   -0.460000       14.0070           0
     63567 WT22     406      MECN     C1       CG331   -0.170000       12.0110           0
     63568 WT22     406      MECN     H11      HGA3     0.090000        1.0080           0
     63569 WT22     406      MECN     H12      HGA3     0.090000        1.0080           0
     63570 WT22     406      MECN     H13      HGA3     0.090000        1.0080           0
     63571 WT22     406      MECN     C2       CG1N1    0.360000       12.0110           0
     63572 WT22     406      MECN     N3       NG1T1   -0.460000       14.0070           0
     63573 WT22     407      MECN     C1       CG331   -0.170000       12.0110           0
     63574 WT22     407      MECN     H11      HGA3     0.090000        1.0080           0
     63575 WT22     407      MECN     H12      HGA3     0.090000        1.0080           0
     63576 WT22     407      MECN     H13      HGA3     0.090000        1.0080           0
     63577 WT22     407      MECN     C2       CG1N1    0.360000       12.0110           0
     63578 WT22     407      MECN     N3       NG1T1   -0.460000       14.0070           0
     63579 WT22     408      MECN     C1       CG331   -0.170000       12.0110           0
     63580 WT22     408      MECN     H11      HGA3     0.090000        1.0080           0
     63581 WT22     408      MECN     H12      HGA3     0.090000        1.0080           0
     63582 WT22     408      MECN     H13      HGA3     0.090000        1.0080           0
     63583 WT22     408      MECN     C2       CG1N1    0.360000       12.0110           0
     63584 WT22     408      MECN     N3       NG1T1   -0.460000       14.0070           0
     63585 WT22     412      MECN     C1       CG331   -0.170000       12.0110           0
     63586 WT22     412      MECN     H11      HGA3     0.090000        1.0080           0
     63587 WT22     412      MECN     H12      HGA3     0.090000        1.0080           0
     63588 WT22     412      MECN     H13      HGA3     0.090000        1.0080           0
     63589 WT22     412      MECN     C2       CG1N1    0.360000       12.0110           0
     63590 WT22     412      MECN     N3       NG1T1   -0.460000       14.0070           0
     63591 WT22     414      MECN     C1       CG331   -0.170000       12.0110           0
     63592 WT22     414      MECN     H11      HGA3     0.090000        1.0080           0
     63593 WT22     414      MECN     H12      HGA3     0.090000        1.0080           0
     63594 WT22     414      MECN     H13      HGA3     0.090000        1.0080           0
     63595 WT22     414      MECN     C2       CG1N1    0.360000       12.0110           0
     63596 WT22     414      MECN     N3       NG1T1   -0.460000       14.0070           0
     63597 WT22     421      MECN     C1       CG331   -0.170000       12.0110           0
     63598 WT22     421      MECN     H11      HGA3     0.090000        1.0080           0
     63599 WT22     421      MECN     H12      HGA3     0.090000        1.0080           0
     63600 WT22     421      MECN     H13      HGA3     0.090000        1.0080           0
     63601 WT22     421      MECN     C2       CG1N1    0.360000       12.0110           0
     63602 WT22     421      MECN     N3       NG1T1   -0.460000       14.0070           0
     63603 WT22     423      MECN     C1       CG331   -0.170000       12.0110           0
     63604 WT22     423      MECN     H11      HGA3     0.090000        1.0080           0
     63605 WT22     423      MECN     H12      HGA3     0.090000        1.0080           0
     63606 WT22     423      MECN     H13      HGA3     0.090000        1.0080           0
     63607 WT22     423      MECN     C2       CG1N1    0.360000       12.0110           0
     63608 WT22     423      MECN     N3       NG1T1   -0.460000       14.0070           0
     63609 WT22     432      MECN     C1       CG331   -0.170000       12.0110           0
     63610 WT22     432      MECN     H11      HGA3     0.090000        1.0080           0
     63611 WT22     432      MECN     H12      HGA3     0.090000        1.0080           0
     63612 WT22     432      MECN     H13      HGA3     0.090000        1.0080           0
     63613 WT22     432      MECN     C2       CG1N1    0.360000       12.0110           0
     63614 WT22     432      MECN     N3       NG1T1   -0.460000       14.0070           0
     63615 WT22     433      MECN     C1       CG331   -0.170000       12.0110           0
     63616 WT22     433      MECN     H11      HGA3     0.090000        1.0080           0
     63617 WT22     433      MECN     H12      HGA3     0.090000        1.0080           0
     63618 WT22     433      MECN     H13      HGA3     0.090000        1.0080           0
     63619 WT22     433      MECN     C2       CG1N1    0.360000       12.0110           0
     63620 WT22     433      MECN     N3       NG1T1   -0.460000       14.0070           0
     63621 WT22     437      MECN     C1       CG331   -0.170000       12.0110           0
     63622 WT22     437      MECN     H11      HGA3     0.090000        1.0080           0
     63623 WT22     437      MECN     H12      HGA3     0.090000        1.0080           0
     63624 WT22     437      MECN     H13      HGA3     0.090000        1.0080           0
     63625 WT22     437      MECN     C2       CG1N1    0.360000       12.0110           0
     63626 WT22     437      MECN     N3       NG1T1   -0.460000       14.0070           0
     63627 WT22     438      MECN     C1       CG331   -0.170000       12.0110           0
     63628 WT22     438      MECN     H11      HGA3     0.090000        1.0080           0
     63629 WT22     438      MECN     H12      HGA3     0.090000        1.0080           0
     63630 WT22     438      MECN     H13      HGA3     0.090000        1.0080           0
     63631 WT22     438      MECN     C2       CG1N1    0.360000       12.0110           0
     63632 WT22     438      MECN     N3       NG1T1   -0.460000       14.0070           0
     63633 WT22     440      MECN     C1       CG331   -0.170000       12.0110           0
     63634 WT22     440      MECN     H11      HGA3     0.090000        1.0080           0
     63635 WT22     440      MECN     H12      HGA3     0.090000        1.0080           0
     63636 WT22     440      MECN     H13      HGA3     0.090000        1.0080           0
     63637 WT22     440      MECN     C2       CG1N1    0.360000       12.0110           0
     63638 WT22     440      MECN     N3       NG1T1   -0.460000       14.0070           0
     63639 WT22     443      MECN     C1       CG331   -0.170000       12.0110           0
     63640 WT22     443      MECN     H11      HGA3     0.090000        1.0080           0
     63641 WT22     443      MECN     H12      HGA3     0.090000        1.0080           0
     63642 WT22     443      MECN     H13      HGA3     0.090000        1.0080           0
     63643 WT22     443      MECN     C2       CG1N1    0.360000       12.0110           0
     63644 WT22     443      MECN     N3       NG1T1   -0.460000       14.0070           0
     63645 WT22     446      MECN     C1       CG331   -0.170000       12.0110           0
     63646 WT22     446      MECN     H11      HGA3     0.090000        1.0080           0
     63647 WT22     446      MECN     H12      HGA3     0.090000        1.0080           0
     63648 WT22     446      MECN     H13      HGA3     0.090000        1.0080           0
     63649 WT22     446      MECN     C2       CG1N1    0.360000       12.0110           0
     63650 WT22     446      MECN     N3       NG1T1   -0.460000       14.0070           0
     63651 WT22     449      MECN     C1       CG331   -0.170000       12.0110           0
     63652 WT22     449      MECN     H11      HGA3     0.090000        1.0080           0
     63653 WT22     449      MECN     H12      HGA3     0.090000        1.0080           0
     63654 WT22     449      MECN     H13      HGA3     0.090000        1.0080           0
     63655 WT22     449      MECN     C2       CG1N1    0.360000       12.0110           0
     63656 WT22     449      MECN     N3       NG1T1   -0.460000       14.0070           0
     63657 WT22     452      MECN     C1       CG331   -0.170000       12.0110           0
     63658 WT22     452      MECN     H11      HGA3     0.090000        1.0080           0
     63659 WT22     452      MECN     H12      HGA3     0.090000        1.0080           0
     63660 WT22     452      MECN     H13      HGA3     0.090000        1.0080           0
     63661 WT22     452      MECN     C2       CG1N1    0.360000       12.0110           0
     63662 WT22     452      MECN     N3       NG1T1   -0.460000       14.0070           0
     63663 WT22     453      MECN     C1       CG331   -0.170000       12.0110           0
     63664 WT22     453      MECN     H11      HGA3     0.090000        1.0080           0
     63665 WT22     453      MECN     H12      HGA3     0.090000        1.0080           0
     63666 WT22     453      MECN     H13      HGA3     0.090000        1.0080           0
     63667 WT22     453      MECN     C2       CG1N1    0.360000       12.0110           0
     63668 WT22     453      MECN     N3       NG1T1   -0.460000       14.0070           0
     63669 WT22     454      MECN     C1       CG331   -0.170000       12.0110           0
     63670 WT22     454      MECN     H11      HGA3     0.090000        1.0080           0
     63671 WT22     454      MECN     H12      HGA3     0.090000        1.0080           0
     63672 WT22     454      MECN     H13      HGA3     0.090000        1.0080           0
     63673 WT22     454      MECN     C2       CG1N1    0.360000       12.0110           0
     63674 WT22     454      MECN     N3       NG1T1   -0.460000       14.0070           0
     63675 WT22     456      MECN     C1       CG331   -0.170000       12.0110           0
     63676 WT22     456      MECN     H11      HGA3     0.090000        1.0080           0
     63677 WT22     456      MECN     H12      HGA3     0.090000        1.0080           0
     63678 WT22     456      MECN     H13      HGA3     0.090000        1.0080           0
     63679 WT22     456      MECN     C2       CG1N1    0.360000       12.0110           0
     63680 WT22     456      MECN     N3       NG1T1   -0.460000       14.0070           0
     63681 WT22     458      MECN     C1       CG331   -0.170000       12.0110           0
     63682 WT22     458      MECN     H11      HGA3     0.090000        1.0080           0
     63683 WT22     458      MECN     H12      HGA3     0.090000        1.0080           0
     63684 WT22     458      MECN     H13      HGA3     0.090000        1.0080           0
     63685 WT22     458      MECN     C2       CG1N1    0.360000       12.0110           0
     63686 WT22     458      MECN     N3       NG1T1   -0.460000       14.0070           0
     63687 WT22     464      MECN     C1       CG331   -0.170000       12.0110           0
     63688 WT22     464      MECN     H11      HGA3     0.090000        1.0080           0
     63689 WT22     464      MECN     H12      HGA3     0.090000        1.0080           0
     63690 WT22     464      MECN     H13      HGA3     0.090000        1.0080           0
     63691 WT22     464      MECN     C2       CG1N1    0.360000       12.0110           0
     63692 WT22     464      MECN     N3       NG1T1   -0.460000       14.0070           0
     63693 WT22     467      MECN     C1       CG331   -0.170000       12.0110           0
     63694 WT22     467      MECN     H11      HGA3     0.090000        1.0080           0
     63695 WT22     467      MECN     H12      HGA3     0.090000        1.0080           0
     63696 WT22     467      MECN     H13      HGA3     0.090000        1.0080           0
     63697 WT22     467      MECN     C2       CG1N1    0.360000       12.0110           0
     63698 WT22     467      MECN     N3       NG1T1   -0.460000       14.0070           0
     63699 WT22     471      MECN     C1       CG331   -0.170000       12.0110           0
     63700 WT22     471      MECN     H11      HGA3     0.090000        1.0080           0
     63701 WT22     471      MECN     H12      HGA3     0.090000        1.0080           0
     63702 WT22     471      MECN     H13      HGA3     0.090000        1.0080           0
     63703 WT22     471      MECN     C2       CG1N1    0.360000       12.0110           0
     63704 WT22     471      MECN     N3       NG1T1   -0.460000       14.0070           0
     63705 WT22     474      MECN     C1       CG331   -0.170000       12.0110           0
     63706 WT22     474      MECN     H11      HGA3     0.090000        1.0080           0
     63707 WT22     474      MECN     H12      HGA3     0.090000        1.0080           0
     63708 WT22     474      MECN     H13      HGA3     0.090000        1.0080           0
     63709 WT22     474      MECN     C2       CG1N1    0.360000       12.0110           0
     63710 WT22     474      MECN     N3       NG1T1   -0.460000       14.0070           0
     63711 WT22     477      MECN     C1       CG331   -0.170000       12.0110           0
     63712 WT22     477      MECN     H11      HGA3     0.090000        1.0080           0
     63713 WT22     477      MECN     H12      HGA3     0.090000        1.0080           0
     63714 WT22     477      MECN     H13      HGA3     0.090000        1.0080           0
     63715 WT22     477      MECN     C2       CG1N1    0.360000       12.0110           0
     63716 WT22     477      MECN     N3       NG1T1   -0.460000       14.0070           0
     63717 WT22     478      MECN     C1       CG331   -0.170000       12.0110           0
     63718 WT22     478      MECN     H11      HGA3     0.090000        1.0080           0
     63719 WT22     478      MECN     H12      HGA3     0.090000        1.0080           0
     63720 WT22     478      MECN     H13      HGA3     0.090000        1.0080           0
     63721 WT22     478      MECN     C2       CG1N1    0.360000       12.0110           0
     63722 WT22     478      MECN     N3       NG1T1   -0.460000       14.0070           0
     63723 WT22     480      MECN     C1       CG331   -0.170000       12.0110           0
     63724 WT22     480      MECN     H11      HGA3     0.090000        1.0080           0
     63725 WT22     480      MECN     H12      HGA3     0.090000        1.0080           0
     63726 WT22     480      MECN     H13      HGA3     0.090000        1.0080           0
     63727 WT22     480      MECN     C2       CG1N1    0.360000       12.0110           0
     63728 WT22     480      MECN     N3       NG1T1   -0.460000       14.0070           0
     63729 WT22     481      MECN     C1       CG331   -0.170000       12.0110           0
     63730 WT22     481      MECN     H11      HGA3     0.090000        1.0080           0
     63731 WT22     481      MECN     H12      HGA3     0.090000        1.0080           0
     63732 WT22     481      MECN     H13      HGA3     0.090000        1.0080           0
     63733 WT22     481      MECN     C2       CG1N1    0.360000       12.0110           0
     63734 WT22     481      MECN     N3       NG1T1   -0.460000       14.0070           0
     63735 WT22     485      MECN     C1       CG331   -0.170000       12.0110           0
     63736 WT22     485      MECN     H11      HGA3     0.090000        1.0080           0
     63737 WT22     485      MECN     H12      HGA3     0.090000        1.0080           0
     63738 WT22     485      MECN     H13      HGA3     0.090000        1.0080           0
     63739 WT22     485      MECN     C2       CG1N1    0.360000       12.0110           0
     63740 WT22     485      MECN     N3       NG1T1   -0.460000       14.0070           0
     63741 WT22     494      MECN     C1       CG331   -0.170000       12.0110           0
     63742 WT22     494      MECN     H11      HGA3     0.090000        1.0080           0
     63743 WT22     494      MECN     H12      HGA3     0.090000        1.0080           0
     63744 WT22     494      MECN     H13      HGA3     0.090000        1.0080           0
     63745 WT22     494      MECN     C2       CG1N1    0.360000       12.0110           0
     63746 WT22     494      MECN     N3       NG1T1   -0.460000       14.0070           0
     63747 WT22     495      MECN     C1       CG331   -0.170000       12.0110           0
     63748 WT22     495      MECN     H11      HGA3     0.090000        1.0080           0
     63749 WT22     495      MECN     H12      HGA3     0.090000        1.0080           0
     63750 WT22     495      MECN     H13      HGA3     0.090000        1.0080           0
     63751 WT22     495      MECN     C2       CG1N1    0.360000       12.0110           0
     63752 WT22     495      MECN     N3       NG1T1   -0.460000       14.0070           0
     63753 WT22     497      MECN     C1       CG331   -0.170000       12.0110           0
     63754 WT22     497      MECN     H11      HGA3     0.090000        1.0080           0
     63755 WT22     497      MECN     H12      HGA3     0.090000        1.0080           0
     63756 WT22     497      MECN     H13      HGA3     0.090000        1.0080           0
     63757 WT22     497      MECN     C2       CG1N1    0.360000       12.0110           0
     63758 WT22     497      MECN     N3       NG1T1   -0.460000       14.0070           0
     63759 WT22     505      MECN     C1       CG331   -0.170000       12.0110           0
     63760 WT22     505      MECN     H11      HGA3     0.090000        1.0080           0
     63761 WT22     505      MECN     H12      HGA3     0.090000        1.0080           0
     63762 WT22     505      MECN     H13      HGA3     0.090000        1.0080           0
     63763 WT22     505      MECN     C2       CG1N1    0.360000       12.0110           0
     63764 WT22     505      MECN     N3       NG1T1   -0.460000       14.0070           0
     63765 WT22     508      MECN     C1       CG331   -0.170000       12.0110           0
     63766 WT22     508      MECN     H11      HGA3     0.090000        1.0080           0
     63767 WT22     508      MECN     H12      HGA3     0.090000        1.0080           0
     63768 WT22     508      MECN     H13      HGA3     0.090000        1.0080           0
     63769 WT22     508      MECN     C2       CG1N1    0.360000       12.0110           0
     63770 WT22     508      MECN     N3       NG1T1   -0.460000       14.0070           0
     63771 WT22     510      MECN     C1       CG331   -0.170000       12.0110           0
     63772 WT22     510      MECN     H11      HGA3     0.090000        1.0080           0
     63773 WT22     510      MECN     H12      HGA3     0.090000        1.0080           0
     63774 WT22     510      MECN     H13      HGA3     0.090000        1.0080           0
     63775 WT22     510      MECN     C2       CG1N1    0.360000       12.0110           0
     63776 WT22     510      MECN     N3       NG1T1   -0.460000       14.0070           0
     63777 WT22     511      MECN     C1       CG331   -0.170000       12.0110           0
     63778 WT22     511      MECN     H11      HGA3     0.090000        1.0080           0
     63779 WT22     511      MECN     H12      HGA3     0.090000        1.0080           0
     63780 WT22     511      MECN     H13      HGA3     0.090000        1.0080           0
     63781 WT22     511      MECN     C2       CG1N1    0.360000       12.0110           0
     63782 WT22     511      MECN     N3       NG1T1   -0.460000       14.0070           0
     63783 WT22     512      MECN     C1       CG331   -0.170000       12.0110           0
     63784 WT22     512      MECN     H11      HGA3     0.090000        1.0080           0
     63785 WT22     512      MECN     H12      HGA3     0.090000        1.0080           0
     63786 WT22     512      MECN     H13      HGA3     0.090000        1.0080           0
     63787 WT22     512      MECN     C2       CG1N1    0.360000       12.0110           0
     63788 WT22     512      MECN     N3       NG1T1   -0.460000       14.0070           0
     63789 WT22     517      MECN     C1       CG331   -0.170000       12.0110           0
     63790 WT22     517      MECN     H11      HGA3     0.090000        1.0080           0
     63791 WT22     517      MECN     H12      HGA3     0.090000        1.0080           0
     63792 WT22     517      MECN     H13      HGA3     0.090000        1.0080           0
     63793 WT22     517      MECN     C2       CG1N1    0.360000       12.0110           0
     63794 WT22     517      MECN     N3       NG1T1   -0.460000       14.0070           0
     63795 WT22     518      MECN     C1       CG331   -0.170000       12.0110           0
     63796 WT22     518      MECN     H11      HGA3     0.090000        1.0080           0
     63797 WT22     518      MECN     H12      HGA3     0.090000        1.0080           0
     63798 WT22     518      MECN     H13      HGA3     0.090000        1.0080           0
     63799 WT22     518      MECN     C2       CG1N1    0.360000       12.0110           0
     63800 WT22     518      MECN     N3       NG1T1   -0.460000       14.0070           0
     63801 WT22     519      MECN     C1       CG331   -0.170000       12.0110           0
     63802 WT22     519      MECN     H11      HGA3     0.090000        1.0080           0
     63803 WT22     519      MECN     H12      HGA3     0.090000        1.0080           0
     63804 WT22     519      MECN     H13      HGA3     0.090000        1.0080           0
     63805 WT22     519      MECN     C2       CG1N1    0.360000       12.0110           0
     63806 WT22     519      MECN     N3       NG1T1   -0.460000       14.0070           0
     63807 WT22     520      MECN     C1       CG331   -0.170000       12.0110           0
     63808 WT22     520      MECN     H11      HGA3     0.090000        1.0080           0
     63809 WT22     520      MECN     H12      HGA3     0.090000        1.0080           0
     63810 WT22     520      MECN     H13      HGA3     0.090000        1.0080           0
     63811 WT22     520      MECN     C2       CG1N1    0.360000       12.0110           0
     63812 WT22     520      MECN     N3       NG1T1   -0.460000       14.0070           0
     63813 WT22     526      MECN     C1       CG331   -0.170000       12.0110           0
     63814 WT22     526      MECN     H11      HGA3     0.090000        1.0080           0
     63815 WT22     526      MECN     H12      HGA3     0.090000        1.0080           0
     63816 WT22     526      MECN     H13      HGA3     0.090000        1.0080           0
     63817 WT22     526      MECN     C2       CG1N1    0.360000       12.0110           0
     63818 WT22     526      MECN     N3       NG1T1   -0.460000       14.0070           0
     63819 WT22     527      MECN     C1       CG331   -0.170000       12.0110           0
     63820 WT22     527      MECN     H11      HGA3     0.090000        1.0080           0
     63821 WT22     527      MECN     H12      HGA3     0.090000        1.0080           0
     63822 WT22     527      MECN     H13      HGA3     0.090000        1.0080           0
     63823 WT22     527      MECN     C2       CG1N1    0.360000       12.0110           0
     63824 WT22     527      MECN     N3       NG1T1   -0.460000       14.0070           0
     63825 WT22     528      MECN     C1       CG331   -0.170000       12.0110           0
     63826 WT22     528      MECN     H11      HGA3     0.090000        1.0080           0
     63827 WT22     528      MECN     H12      HGA3     0.090000        1.0080           0
     63828 WT22     528      MECN     H13      HGA3     0.090000        1.0080           0
     63829 WT22     528      MECN     C2       CG1N1    0.360000       12.0110           0
     63830 WT22     528      MECN     N3       NG1T1   -0.460000       14.0070           0
     63831 WT22     531      MECN     C1       CG331   -0.170000       12.0110           0
     63832 WT22     531      MECN     H11      HGA3     0.090000        1.0080           0
     63833 WT22     531      MECN     H12      HGA3     0.090000        1.0080           0
     63834 WT22     531      MECN     H13      HGA3     0.090000        1.0080           0
     63835 WT22     531      MECN     C2       CG1N1    0.360000       12.0110           0
     63836 WT22     531      MECN     N3       NG1T1   -0.460000       14.0070           0
     63837 WT22     535      MECN     C1       CG331   -0.170000       12.0110           0
     63838 WT22     535      MECN     H11      HGA3     0.090000        1.0080           0
     63839 WT22     535      MECN     H12      HGA3     0.090000        1.0080           0
     63840 WT22     535      MECN     H13      HGA3     0.090000        1.0080           0
     63841 WT22     535      MECN     C2       CG1N1    0.360000       12.0110           0
     63842 WT22     535      MECN     N3       NG1T1   -0.460000       14.0070           0
     63843 WT22     544      MECN     C1       CG331   -0.170000       12.0110           0
     63844 WT22     544      MECN     H11      HGA3     0.090000        1.0080           0
     63845 WT22     544      MECN     H12      HGA3     0.090000        1.0080           0
     63846 WT22     544      MECN     H13      HGA3     0.090000        1.0080           0
     63847 WT22     544      MECN     C2       CG1N1    0.360000       12.0110           0
     63848 WT22     544      MECN     N3       NG1T1   -0.460000       14.0070           0
     63849 WT22     553      MECN     C1       CG331   -0.170000       12.0110           0
     63850 WT22     553      MECN     H11      HGA3     0.090000        1.0080           0
     63851 WT22     553      MECN     H12      HGA3     0.090000        1.0080           0
     63852 WT22     553      MECN     H13      HGA3     0.090000        1.0080           0
     63853 WT22     553      MECN     C2       CG1N1    0.360000       12.0110           0
     63854 WT22     553      MECN     N3       NG1T1   -0.460000       14.0070           0
     63855 WT22     554      MECN     C1       CG331   -0.170000       12.0110           0
     63856 WT22     554      MECN     H11      HGA3     0.090000        1.0080           0
     63857 WT22     554      MECN     H12      HGA3     0.090000        1.0080           0
     63858 WT22     554      MECN     H13      HGA3     0.090000        1.0080           0
     63859 WT22     554      MECN     C2       CG1N1    0.360000       12.0110           0
     63860 WT22     554      MECN     N3       NG1T1   -0.460000       14.0070           0
     63861 WT22     555      MECN     C1       CG331   -0.170000       12.0110           0
     63862 WT22     555      MECN     H11      HGA3     0.090000        1.0080           0
     63863 WT22     555      MECN     H12      HGA3     0.090000        1.0080           0
     63864 WT22     555      MECN     H13      HGA3     0.090000        1.0080           0
     63865 WT22     555      MECN     C2       CG1N1    0.360000       12.0110           0
     63866 WT22     555      MECN     N3       NG1T1   -0.460000       14.0070           0
     63867 WT22     556      MECN     C1       CG331   -0.170000       12.0110           0
     63868 WT22     556      MECN     H11      HGA3     0.090000        1.0080           0
     63869 WT22     556      MECN     H12      HGA3     0.090000        1.0080           0
     63870 WT22     556      MECN     H13      HGA3     0.090000        1.0080           0
     63871 WT22     556      MECN     C2       CG1N1    0.360000       12.0110           0
     63872 WT22     556      MECN     N3       NG1T1   -0.460000       14.0070           0
     63873 WT22     559      MECN     C1       CG331   -0.170000       12.0110           0
     63874 WT22     559      MECN     H11      HGA3     0.090000        1.0080           0
     63875 WT22     559      MECN     H12      HGA3     0.090000        1.0080           0
     63876 WT22     559      MECN     H13      HGA3     0.090000        1.0080           0
     63877 WT22     559      MECN     C2       CG1N1    0.360000       12.0110           0
     63878 WT22     559      MECN     N3       NG1T1   -0.460000       14.0070           0
     63879 WT22     562      MECN     C1       CG331   -0.170000       12.0110           0
     63880 WT22     562      MECN     H11      HGA3     0.090000        1.0080           0
     63881 WT22     562      MECN     H12      HGA3     0.090000        1.0080           0
     63882 WT22     562      MECN     H13      HGA3     0.090000        1.0080           0
     63883 WT22     562      MECN     C2       CG1N1    0.360000       12.0110           0
     63884 WT22     562      MECN     N3       NG1T1   -0.460000       14.0070           0
     63885 WT22     580      MECN     C1       CG331   -0.170000       12.0110           0
     63886 WT22     580      MECN     H11      HGA3     0.090000        1.0080           0
     63887 WT22     580      MECN     H12      HGA3     0.090000        1.0080           0
     63888 WT22     580      MECN     H13      HGA3     0.090000        1.0080           0
     63889 WT22     580      MECN     C2       CG1N1    0.360000       12.0110           0
     63890 WT22     580      MECN     N3       NG1T1   -0.460000       14.0070           0
     63891 WT22     584      MECN     C1       CG331   -0.170000       12.0110           0
     63892 WT22     584      MECN     H11      HGA3     0.090000        1.0080           0
     63893 WT22     584      MECN     H12      HGA3     0.090000        1.0080           0
     63894 WT22     584      MECN     H13      HGA3     0.090000        1.0080           0
     63895 WT22     584      MECN     C2       CG1N1    0.360000       12.0110           0
     63896 WT22     584      MECN     N3       NG1T1   -0.460000       14.0070           0
     63897 WT22     585      MECN     C1       CG331   -0.170000       12.0110           0
     63898 WT22     585      MECN     H11      HGA3     0.090000        1.0080           0
     63899 WT22     585      MECN     H12      HGA3     0.090000        1.0080           0
     63900 WT22     585      MECN     H13      HGA3     0.090000        1.0080           0
     63901 WT22     585      MECN     C2       CG1N1    0.360000       12.0110           0
     63902 WT22     585      MECN     N3       NG1T1   -0.460000       14.0070           0
     63903 WT22     587      MECN     C1       CG331   -0.170000       12.0110           0
     63904 WT22     587      MECN     H11      HGA3     0.090000        1.0080           0
     63905 WT22     587      MECN     H12      HGA3     0.090000        1.0080           0
     63906 WT22     587      MECN     H13      HGA3     0.090000        1.0080           0
     63907 WT22     587      MECN     C2       CG1N1    0.360000       12.0110           0
     63908 WT22     587      MECN     N3       NG1T1   -0.460000       14.0070           0
     63909 WT22     588      MECN     C1       CG331   -0.170000       12.0110           0
     63910 WT22     588      MECN     H11      HGA3     0.090000        1.0080           0
     63911 WT22     588      MECN     H12      HGA3     0.090000        1.0080           0
     63912 WT22     588      MECN     H13      HGA3     0.090000        1.0080           0
     63913 WT22     588      MECN     C2       CG1N1    0.360000       12.0110           0
     63914 WT22     588      MECN     N3       NG1T1   -0.460000       14.0070           0
     63915 WT22     589      MECN     C1       CG331   -0.170000       12.0110           0
     63916 WT22     589      MECN     H11      HGA3     0.090000        1.0080           0
     63917 WT22     589      MECN     H12      HGA3     0.090000        1.0080           0
     63918 WT22     589      MECN     H13      HGA3     0.090000        1.0080           0
     63919 WT22     589      MECN     C2       CG1N1    0.360000       12.0110           0
     63920 WT22     589      MECN     N3       NG1T1   -0.460000       14.0070           0
     63921 WT22     590      MECN     C1       CG331   -0.170000       12.0110           0
     63922 WT22     590      MECN     H11      HGA3     0.090000        1.0080           0
     63923 WT22     590      MECN     H12      HGA3     0.090000        1.0080           0
     63924 WT22     590      MECN     H13      HGA3     0.090000        1.0080           0
     63925 WT22     590      MECN     C2       CG1N1    0.360000       12.0110           0
     63926 WT22     590      MECN     N3       NG1T1   -0.460000       14.0070           0
     63927 WT22     599      MECN     C1       CG331   -0.170000       12.0110           0
     63928 WT22     599      MECN     H11      HGA3     0.090000        1.0080           0
     63929 WT22     599      MECN     H12      HGA3     0.090000        1.0080           0
     63930 WT22     599      MECN     H13      HGA3     0.090000        1.0080           0
     63931 WT22     599      MECN     C2       CG1N1    0.360000       12.0110           0
     63932 WT22     599      MECN     N3       NG1T1   -0.460000       14.0070           0
     63933 WT22     601      MECN     C1       CG331   -0.170000       12.0110           0
     63934 WT22     601      MECN     H11      HGA3     0.090000        1.0080           0
     63935 WT22     601      MECN     H12      HGA3     0.090000        1.0080           0
     63936 WT22     601      MECN     H13      HGA3     0.090000        1.0080           0
     63937 WT22     601      MECN     C2       CG1N1    0.360000       12.0110           0
     63938 WT22     601      MECN     N3       NG1T1   -0.460000       14.0070           0
     63939 WT22     602      MECN     C1       CG331   -0.170000       12.0110           0
     63940 WT22     602      MECN     H11      HGA3     0.090000        1.0080           0
     63941 WT22     602      MECN     H12      HGA3     0.090000        1.0080           0
     63942 WT22     602      MECN     H13      HGA3     0.090000        1.0080           0
     63943 WT22     602      MECN     C2       CG1N1    0.360000       12.0110           0
     63944 WT22     602      MECN     N3       NG1T1   -0.460000       14.0070           0
     63945 WT22     608      MECN     C1       CG331   -0.170000       12.0110           0
     63946 WT22     608      MECN     H11      HGA3     0.090000        1.0080           0
     63947 WT22     608      MECN     H12      HGA3     0.090000        1.0080           0
     63948 WT22     608      MECN     H13      HGA3     0.090000        1.0080           0
     63949 WT22     608      MECN     C2       CG1N1    0.360000       12.0110           0
     63950 WT22     608      MECN     N3       NG1T1   -0.460000       14.0070           0
     63951 WT22     613      MECN     C1       CG331   -0.170000       12.0110           0
     63952 WT22     613      MECN     H11      HGA3     0.090000        1.0080           0
     63953 WT22     613      MECN     H12      HGA3     0.090000        1.0080           0
     63954 WT22     613      MECN     H13      HGA3     0.090000        1.0080           0
     63955 WT22     613      MECN     C2       CG1N1    0.360000       12.0110           0
     63956 WT22     613      MECN     N3       NG1T1   -0.460000       14.0070           0
     63957 WT22     615      MECN     C1       CG331   -0.170000       12.0110           0
     63958 WT22     615      MECN     H11      HGA3     0.090000        1.0080           0
     63959 WT22     615      MECN     H12      HGA3     0.090000        1.0080           0
     63960 WT22     615      MECN     H13      HGA3     0.090000        1.0080           0
     63961 WT22     615      MECN     C2       CG1N1    0.360000       12.0110           0
     63962 WT22     615      MECN     N3       NG1T1   -0.460000       14.0070           0
     63963 WT22     618      MECN     C1       CG331   -0.170000       12.0110           0
     63964 WT22     618      MECN     H11      HGA3     0.090000        1.0080           0
     63965 WT22     618      MECN     H12      HGA3     0.090000        1.0080           0
     63966 WT22     618      MECN     H13      HGA3     0.090000        1.0080           0
     63967 WT22     618      MECN     C2       CG1N1    0.360000       12.0110           0
     63968 WT22     618      MECN     N3       NG1T1   -0.460000       14.0070           0
     63969 WT22     619      MECN     C1       CG331   -0.170000       12.0110           0
     63970 WT22     619      MECN     H11      HGA3     0.090000        1.0080           0
     63971 WT22     619      MECN     H12      HGA3     0.090000        1.0080           0
     63972 WT22     619      MECN     H13      HGA3     0.090000        1.0080           0
     63973 WT22     619      MECN     C2       CG1N1    0.360000       12.0110           0
     63974 WT22     619      MECN     N3       NG1T1   -0.460000       14.0070           0
     63975 WT22     620      MECN     C1       CG331   -0.170000       12.0110           0
     63976 WT22     620      MECN     H11      HGA3     0.090000        1.0080           0
     63977 WT22     620      MECN     H12      HGA3     0.090000        1.0080           0
     63978 WT22     620      MECN     H13      HGA3     0.090000        1.0080           0
     63979 WT22     620      MECN     C2       CG1N1    0.360000       12.0110           0
     63980 WT22     620      MECN     N3       NG1T1   -0.460000       14.0070           0
     63981 WT22     621      MECN     C1       CG331   -0.170000       12.0110           0
     63982 WT22     621      MECN     H11      HGA3     0.090000        1.0080           0
     63983 WT22     621      MECN     H12      HGA3     0.090000        1.0080           0
     63984 WT22     621      MECN     H13      HGA3     0.090000        1.0080           0
     63985 WT22     621      MECN     C2       CG1N1    0.360000       12.0110           0
     63986 WT22     621      MECN     N3       NG1T1   -0.460000       14.0070           0
     63987 WT22     622      MECN     C1       CG331   -0.170000       12.0110           0
     63988 WT22     622      MECN     H11      HGA3     0.090000        1.0080           0
     63989 WT22     622      MECN     H12      HGA3     0.090000        1.0080           0
     63990 WT22     622      MECN     H13      HGA3     0.090000        1.0080           0
     63991 WT22     622      MECN     C2       CG1N1    0.360000       12.0110           0
     63992 WT22     622      MECN     N3       NG1T1   -0.460000       14.0070           0
     63993 WT22     623      MECN     C1       CG331   -0.170000       12.0110           0
     63994 WT22     623      MECN     H11      HGA3     0.090000        1.0080           0
     63995 WT22     623      MECN     H12      HGA3     0.090000        1.0080           0
     63996 WT22     623      MECN     H13      HGA3     0.090000        1.0080           0
     63997 WT22     623      MECN     C2       CG1N1    0.360000       12.0110           0
     63998 WT22     623      MECN     N3       NG1T1   -0.460000       14.0070           0
     63999 WT22     627      MECN     C1       CG331   -0.170000       12.0110           0
     64000 WT22     627      MECN     H11      HGA3     0.090000        1.0080           0
     64001 WT22     627      MECN     H12      HGA3     0.090000        1.0080           0
     64002 WT22     627      MECN     H13      HGA3     0.090000        1.0080           0
     64003 WT22     627      MECN     C2       CG1N1    0.360000       12.0110           0
     64004 WT22     627      MECN     N3       NG1T1   -0.460000       14.0070           0
     64005 WT22     633      MECN     C1       CG331   -0.170000       12.0110           0
     64006 WT22     633      MECN     H11      HGA3     0.090000        1.0080           0
     64007 WT22     633      MECN     H12      HGA3     0.090000        1.0080           0
     64008 WT22     633      MECN     H13      HGA3     0.090000        1.0080           0
     64009 WT22     633      MECN     C2       CG1N1    0.360000       12.0110           0
     64010 WT22     633      MECN     N3       NG1T1   -0.460000       14.0070           0
     64011 WT22     634      MECN     C1       CG331   -0.170000       12.0110           0
     64012 WT22     634      MECN     H11      HGA3     0.090000        1.0080           0
     64013 WT22     634      MECN     H12      HGA3     0.090000        1.0080           0
     64014 WT22     634      MECN     H13      HGA3     0.090000        1.0080           0
     64015 WT22     634      MECN     C2       CG1N1    0.360000       12.0110           0
     64016 WT22     634      MECN     N3       NG1T1   -0.460000       14.0070           0
     64017 WT22     636      MECN     C1       CG331   -0.170000       12.0110           0
     64018 WT22     636      MECN     H11      HGA3     0.090000        1.0080           0
     64019 WT22     636      MECN     H12      HGA3     0.090000        1.0080           0
     64020 WT22     636      MECN     H13      HGA3     0.090000        1.0080           0
     64021 WT22     636      MECN     C2       CG1N1    0.360000       12.0110           0
     64022 WT22     636      MECN     N3       NG1T1   -0.460000       14.0070           0
     64023 WT22     637      MECN     C1       CG331   -0.170000       12.0110           0
     64024 WT22     637      MECN     H11      HGA3     0.090000        1.0080           0
     64025 WT22     637      MECN     H12      HGA3     0.090000        1.0080           0
     64026 WT22     637      MECN     H13      HGA3     0.090000        1.0080           0
     64027 WT22     637      MECN     C2       CG1N1    0.360000       12.0110           0
     64028 WT22     637      MECN     N3       NG1T1   -0.460000       14.0070           0
     64029 WT22     639      MECN     C1       CG331   -0.170000       12.0110           0
     64030 WT22     639      MECN     H11      HGA3     0.090000        1.0080           0
     64031 WT22     639      MECN     H12      HGA3     0.090000        1.0080           0
     64032 WT22     639      MECN     H13      HGA3     0.090000        1.0080           0
     64033 WT22     639      MECN     C2       CG1N1    0.360000       12.0110           0
     64034 WT22     639      MECN     N3       NG1T1   -0.460000       14.0070           0
     64035 WT22     640      MECN     C1       CG331   -0.170000       12.0110           0
     64036 WT22     640      MECN     H11      HGA3     0.090000        1.0080           0
     64037 WT22     640      MECN     H12      HGA3     0.090000        1.0080           0
     64038 WT22     640      MECN     H13      HGA3     0.090000        1.0080           0
     64039 WT22     640      MECN     C2       CG1N1    0.360000       12.0110           0
     64040 WT22     640      MECN     N3       NG1T1   -0.460000       14.0070           0
     64041 WT22     645      MECN     C1       CG331   -0.170000       12.0110           0
     64042 WT22     645      MECN     H11      HGA3     0.090000        1.0080           0
     64043 WT22     645      MECN     H12      HGA3     0.090000        1.0080           0
     64044 WT22     645      MECN     H13      HGA3     0.090000        1.0080           0
     64045 WT22     645      MECN     C2       CG1N1    0.360000       12.0110           0
     64046 WT22     645      MECN     N3       NG1T1   -0.460000       14.0070           0
     64047 WT22     646      MECN     C1       CG331   -0.170000       12.0110           0
     64048 WT22     646      MECN     H11      HGA3     0.090000        1.0080           0
     64049 WT22     646      MECN     H12      HGA3     0.090000        1.0080           0
     64050 WT22     646      MECN     H13      HGA3     0.090000        1.0080           0
     64051 WT22     646      MECN     C2       CG1N1    0.360000       12.0110           0
     64052 WT22     646      MECN     N3       NG1T1   -0.460000       14.0070           0
     64053 WT22     649      MECN     C1       CG331   -0.170000       12.0110           0
     64054 WT22     649      MECN     H11      HGA3     0.090000        1.0080           0
     64055 WT22     649      MECN     H12      HGA3     0.090000        1.0080           0
     64056 WT22     649      MECN     H13      HGA3     0.090000        1.0080           0
     64057 WT22     649      MECN     C2       CG1N1    0.360000       12.0110           0
     64058 WT22     649      MECN     N3       NG1T1   -0.460000       14.0070           0
     64059 WT22     650      MECN     C1       CG331   -0.170000       12.0110           0
     64060 WT22     650      MECN     H11      HGA3     0.090000        1.0080           0
     64061 WT22     650      MECN     H12      HGA3     0.090000        1.0080           0
     64062 WT22     650      MECN     H13      HGA3     0.090000        1.0080           0
     64063 WT22     650      MECN     C2       CG1N1    0.360000       12.0110           0
     64064 WT22     650      MECN     N3       NG1T1   -0.460000       14.0070           0
     64065 WT22     657      MECN     C1       CG331   -0.170000       12.0110           0
     64066 WT22     657      MECN     H11      HGA3     0.090000        1.0080           0
     64067 WT22     657      MECN     H12      HGA3     0.090000        1.0080           0
     64068 WT22     657      MECN     H13      HGA3     0.090000        1.0080           0
     64069 WT22     657      MECN     C2       CG1N1    0.360000       12.0110           0
     64070 WT22     657      MECN     N3       NG1T1   -0.460000       14.0070           0
     64071 WT22     665      MECN     C1       CG331   -0.170000       12.0110           0
     64072 WT22     665      MECN     H11      HGA3     0.090000        1.0080           0
     64073 WT22     665      MECN     H12      HGA3     0.090000        1.0080           0
     64074 WT22     665      MECN     H13      HGA3     0.090000        1.0080           0
     64075 WT22     665      MECN     C2       CG1N1    0.360000       12.0110           0
     64076 WT22     665      MECN     N3       NG1T1   -0.460000       14.0070           0
     64077 WT22     666      MECN     C1       CG331   -0.170000       12.0110           0
     64078 WT22     666      MECN     H11      HGA3     0.090000        1.0080           0
     64079 WT22     666      MECN     H12      HGA3     0.090000        1.0080           0
     64080 WT22     666      MECN     H13      HGA3     0.090000        1.0080           0
     64081 WT22     666      MECN     C2       CG1N1    0.360000       12.0110           0
     64082 WT22     666      MECN     N3       NG1T1   -0.460000       14.0070           0
     64083 WT22     667      MECN     C1       CG331   -0.170000       12.0110           0
     64084 WT22     667      MECN     H11      HGA3     0.090000        1.0080           0
     64085 WT22     667      MECN     H12      HGA3     0.090000        1.0080           0
     64086 WT22     667      MECN     H13      HGA3     0.090000        1.0080           0
     64087 WT22     667      MECN     C2       CG1N1    0.360000       12.0110           0
     64088 WT22     667      MECN     N3       NG1T1   -0.460000       14.0070           0
     64089 WT22     673      MECN     C1       CG331   -0.170000       12.0110           0
     64090 WT22     673      MECN     H11      HGA3     0.090000        1.0080           0
     64091 WT22     673      MECN     H12      HGA3     0.090000        1.0080           0
     64092 WT22     673      MECN     H13      HGA3     0.090000        1.0080           0
     64093 WT22     673      MECN     C2       CG1N1    0.360000       12.0110           0
     64094 WT22     673      MECN     N3       NG1T1   -0.460000       14.0070           0
     64095 WT22     678      MECN     C1       CG331   -0.170000       12.0110           0
     64096 WT22     678      MECN     H11      HGA3     0.090000        1.0080           0
     64097 WT22     678      MECN     H12      HGA3     0.090000        1.0080           0
     64098 WT22     678      MECN     H13      HGA3     0.090000        1.0080           0
     64099 WT22     678      MECN     C2       CG1N1    0.360000       12.0110           0
     64100 WT22     678      MECN     N3       NG1T1   -0.460000       14.0070           0
     64101 WT22     682      MECN     C1       CG331   -0.170000       12.0110           0
     64102 WT22     682      MECN     H11      HGA3     0.090000        1.0080           0
     64103 WT22     682      MECN     H12      HGA3     0.090000        1.0080           0
     64104 WT22     682      MECN     H13      HGA3     0.090000        1.0080           0
     64105 WT22     682      MECN     C2       CG1N1    0.360000       12.0110           0
     64106 WT22     682      MECN     N3       NG1T1   -0.460000       14.0070           0
     64107 WT22     691      MECN     C1       CG331   -0.170000       12.0110           0
     64108 WT22     691      MECN     H11      HGA3     0.090000        1.0080           0
     64109 WT22     691      MECN     H12      HGA3     0.090000        1.0080           0
     64110 WT22     691      MECN     H13      HGA3     0.090000        1.0080           0
     64111 WT22     691      MECN     C2       CG1N1    0.360000       12.0110           0
     64112 WT22     691      MECN     N3       NG1T1   -0.460000       14.0070           0
     64113 WT22     696      MECN     C1       CG331   -0.170000       12.0110           0
     64114 WT22     696      MECN     H11      HGA3     0.090000        1.0080           0
     64115 WT22     696      MECN     H12      HGA3     0.090000        1.0080           0
     64116 WT22     696      MECN     H13      HGA3     0.090000        1.0080           0
     64117 WT22     696      MECN     C2       CG1N1    0.360000       12.0110           0
     64118 WT22     696      MECN     N3       NG1T1   -0.460000       14.0070           0
     64119 WT22     698      MECN     C1       CG331   -0.170000       12.0110           0
     64120 WT22     698      MECN     H11      HGA3     0.090000        1.0080           0
     64121 WT22     698      MECN     H12      HGA3     0.090000        1.0080           0
     64122 WT22     698      MECN     H13      HGA3     0.090000        1.0080           0
     64123 WT22     698      MECN     C2       CG1N1    0.360000       12.0110           0
     64124 WT22     698      MECN     N3       NG1T1   -0.460000       14.0070           0
     64125 WT22     699      MECN     C1       CG331   -0.170000       12.0110           0
     64126 WT22     699      MECN     H11      HGA3     0.090000        1.0080           0
     64127 WT22     699      MECN     H12      HGA3     0.090000        1.0080           0
     64128 WT22     699      MECN     H13      HGA3     0.090000        1.0080           0
     64129 WT22     699      MECN     C2       CG1N1    0.360000       12.0110           0
     64130 WT22     699      MECN     N3       NG1T1   -0.460000       14.0070           0
     64131 WT22     704      MECN     C1       CG331   -0.170000       12.0110           0
     64132 WT22     704      MECN     H11      HGA3     0.090000        1.0080           0
     64133 WT22     704      MECN     H12      HGA3     0.090000        1.0080           0
     64134 WT22     704      MECN     H13      HGA3     0.090000        1.0080           0
     64135 WT22     704      MECN     C2       CG1N1    0.360000       12.0110           0
     64136 WT22     704      MECN     N3       NG1T1   -0.460000       14.0070           0
     64137 WT22     709      MECN     C1       CG331   -0.170000       12.0110           0
     64138 WT22     709      MECN     H11      HGA3     0.090000        1.0080           0
     64139 WT22     709      MECN     H12      HGA3     0.090000        1.0080           0
     64140 WT22     709      MECN     H13      HGA3     0.090000        1.0080           0
     64141 WT22     709      MECN     C2       CG1N1    0.360000       12.0110           0
     64142 WT22     709      MECN     N3       NG1T1   -0.460000       14.0070           0
     64143 WT22     711      MECN     C1       CG331   -0.170000       12.0110           0
     64144 WT22     711      MECN     H11      HGA3     0.090000        1.0080           0
     64145 WT22     711      MECN     H12      HGA3     0.090000        1.0080           0
     64146 WT22     711      MECN     H13      HGA3     0.090000        1.0080           0
     64147 WT22     711      MECN     C2       CG1N1    0.360000       12.0110           0
     64148 WT22     711      MECN     N3       NG1T1   -0.460000       14.0070           0
     64149 WT22     714      MECN     C1       CG331   -0.170000       12.0110           0
     64150 WT22     714      MECN     H11      HGA3     0.090000        1.0080           0
     64151 WT22     714      MECN     H12      HGA3     0.090000        1.0080           0
     64152 WT22     714      MECN     H13      HGA3     0.090000        1.0080           0
     64153 WT22     714      MECN     C2       CG1N1    0.360000       12.0110           0
     64154 WT22     714      MECN     N3       NG1T1   -0.460000       14.0070           0
     64155 WT22     717      MECN     C1       CG331   -0.170000       12.0110           0
     64156 WT22     717      MECN     H11      HGA3     0.090000        1.0080           0
     64157 WT22     717      MECN     H12      HGA3     0.090000        1.0080           0
     64158 WT22     717      MECN     H13      HGA3     0.090000        1.0080           0
     64159 WT22     717      MECN     C2       CG1N1    0.360000       12.0110           0
     64160 WT22     717      MECN     N3       NG1T1   -0.460000       14.0070           0
     64161 WT22     721      MECN     C1       CG331   -0.170000       12.0110           0
     64162 WT22     721      MECN     H11      HGA3     0.090000        1.0080           0
     64163 WT22     721      MECN     H12      HGA3     0.090000        1.0080           0
     64164 WT22     721      MECN     H13      HGA3     0.090000        1.0080           0
     64165 WT22     721      MECN     C2       CG1N1    0.360000       12.0110           0
     64166 WT22     721      MECN     N3       NG1T1   -0.460000       14.0070           0
     64167 WT22     723      MECN     C1       CG331   -0.170000       12.0110           0
     64168 WT22     723      MECN     H11      HGA3     0.090000        1.0080           0
     64169 WT22     723      MECN     H12      HGA3     0.090000        1.0080           0
     64170 WT22     723      MECN     H13      HGA3     0.090000        1.0080           0
     64171 WT22     723      MECN     C2       CG1N1    0.360000       12.0110           0
     64172 WT22     723      MECN     N3       NG1T1   -0.460000       14.0070           0
     64173 WT22     731      MECN     C1       CG331   -0.170000       12.0110           0
     64174 WT22     731      MECN     H11      HGA3     0.090000        1.0080           0
     64175 WT22     731      MECN     H12      HGA3     0.090000        1.0080           0
     64176 WT22     731      MECN     H13      HGA3     0.090000        1.0080           0
     64177 WT22     731      MECN     C2       CG1N1    0.360000       12.0110           0
     64178 WT22     731      MECN     N3       NG1T1   -0.460000       14.0070           0
     64179 WT22     735      MECN     C1       CG331   -0.170000       12.0110           0
     64180 WT22     735      MECN     H11      HGA3     0.090000        1.0080           0
     64181 WT22     735      MECN     H12      HGA3     0.090000        1.0080           0
     64182 WT22     735      MECN     H13      HGA3     0.090000        1.0080           0
     64183 WT22     735      MECN     C2       CG1N1    0.360000       12.0110           0
     64184 WT22     735      MECN     N3       NG1T1   -0.460000       14.0070           0
     64185 WT22     743      MECN     C1       CG331   -0.170000       12.0110           0
     64186 WT22     743      MECN     H11      HGA3     0.090000        1.0080           0
     64187 WT22     743      MECN     H12      HGA3     0.090000        1.0080           0
     64188 WT22     743      MECN     H13      HGA3     0.090000        1.0080           0
     64189 WT22     743      MECN     C2       CG1N1    0.360000       12.0110           0
     64190 WT22     743      MECN     N3       NG1T1   -0.460000       14.0070           0
     64191 WT22     748      MECN     C1       CG331   -0.170000       12.0110           0
     64192 WT22     748      MECN     H11      HGA3     0.090000        1.0080           0
     64193 WT22     748      MECN     H12      HGA3     0.090000        1.0080           0
     64194 WT22     748      MECN     H13      HGA3     0.090000        1.0080           0
     64195 WT22     748      MECN     C2       CG1N1    0.360000       12.0110           0
     64196 WT22     748      MECN     N3       NG1T1   -0.460000       14.0070           0
     64197 WT22     751      MECN     C1       CG331   -0.170000       12.0110           0
     64198 WT22     751      MECN     H11      HGA3     0.090000        1.0080           0
     64199 WT22     751      MECN     H12      HGA3     0.090000        1.0080           0
     64200 WT22     751      MECN     H13      HGA3     0.090000        1.0080           0
     64201 WT22     751      MECN     C2       CG1N1    0.360000       12.0110           0
     64202 WT22     751      MECN     N3       NG1T1   -0.460000       14.0070           0
     64203 WT22     760      MECN     C1       CG331   -0.170000       12.0110           0
     64204 WT22     760      MECN     H11      HGA3     0.090000        1.0080           0
     64205 WT22     760      MECN     H12      HGA3     0.090000        1.0080           0
     64206 WT22     760      MECN     H13      HGA3     0.090000        1.0080           0
     64207 WT22     760      MECN     C2       CG1N1    0.360000       12.0110           0
     64208 WT22     760      MECN     N3       NG1T1   -0.460000       14.0070           0
     64209 WT22     761      MECN     C1       CG331   -0.170000       12.0110           0
     64210 WT22     761      MECN     H11      HGA3     0.090000        1.0080           0
     64211 WT22     761      MECN     H12      HGA3     0.090000        1.0080           0
     64212 WT22     761      MECN     H13      HGA3     0.090000        1.0080           0
     64213 WT22     761      MECN     C2       CG1N1    0.360000       12.0110           0
     64214 WT22     761      MECN     N3       NG1T1   -0.460000       14.0070           0
     64215 WT22     763      MECN     C1       CG331   -0.170000       12.0110           0
     64216 WT22     763      MECN     H11      HGA3     0.090000        1.0080           0
     64217 WT22     763      MECN     H12      HGA3     0.090000        1.0080           0
     64218 WT22     763      MECN     H13      HGA3     0.090000        1.0080           0
     64219 WT22     763      MECN     C2       CG1N1    0.360000       12.0110           0
     64220 WT22     763      MECN     N3       NG1T1   -0.460000       14.0070           0
     64221 WT22     765      MECN     C1       CG331   -0.170000       12.0110           0
     64222 WT22     765      MECN     H11      HGA3     0.090000        1.0080           0
     64223 WT22     765      MECN     H12      HGA3     0.090000        1.0080           0
     64224 WT22     765      MECN     H13      HGA3     0.090000        1.0080           0
     64225 WT22     765      MECN     C2       CG1N1    0.360000       12.0110           0
     64226 WT22     765      MECN     N3       NG1T1   -0.460000       14.0070           0
     64227 WT22     766      MECN     C1       CG331   -0.170000       12.0110           0
     64228 WT22     766      MECN     H11      HGA3     0.090000        1.0080           0
     64229 WT22     766      MECN     H12      HGA3     0.090000        1.0080           0
     64230 WT22     766      MECN     H13      HGA3     0.090000        1.0080           0
     64231 WT22     766      MECN     C2       CG1N1    0.360000       12.0110           0
     64232 WT22     766      MECN     N3       NG1T1   -0.460000       14.0070           0
     64233 WT22     767      MECN     C1       CG331   -0.170000       12.0110           0
     64234 WT22     767      MECN     H11      HGA3     0.090000        1.0080           0
     64235 WT22     767      MECN     H12      HGA3     0.090000        1.0080           0
     64236 WT22     767      MECN     H13      HGA3     0.090000        1.0080           0
     64237 WT22     767      MECN     C2       CG1N1    0.360000       12.0110           0
     64238 WT22     767      MECN     N3       NG1T1   -0.460000       14.0070           0
     64239 WT22     768      MECN     C1       CG331   -0.170000       12.0110           0
     64240 WT22     768      MECN     H11      HGA3     0.090000        1.0080           0
     64241 WT22     768      MECN     H12      HGA3     0.090000        1.0080           0
     64242 WT22     768      MECN     H13      HGA3     0.090000        1.0080           0
     64243 WT22     768      MECN     C2       CG1N1    0.360000       12.0110           0
     64244 WT22     768      MECN     N3       NG1T1   -0.460000       14.0070           0
     64245 WT22     769      MECN     C1       CG331   -0.170000       12.0110           0
     64246 WT22     769      MECN     H11      HGA3     0.090000        1.0080           0
     64247 WT22     769      MECN     H12      HGA3     0.090000        1.0080           0
     64248 WT22     769      MECN     H13      HGA3     0.090000        1.0080           0
     64249 WT22     769      MECN     C2       CG1N1    0.360000       12.0110           0
     64250 WT22     769      MECN     N3       NG1T1   -0.460000       14.0070           0
     64251 WT22     772      MECN     C1       CG331   -0.170000       12.0110           0
     64252 WT22     772      MECN     H11      HGA3     0.090000        1.0080           0
     64253 WT22     772      MECN     H12      HGA3     0.090000        1.0080           0
     64254 WT22     772      MECN     H13      HGA3     0.090000        1.0080           0
     64255 WT22     772      MECN     C2       CG1N1    0.360000       12.0110           0
     64256 WT22     772      MECN     N3       NG1T1   -0.460000       14.0070           0
     64257 WT22     773      MECN     C1       CG331   -0.170000       12.0110           0
     64258 WT22     773      MECN     H11      HGA3     0.090000        1.0080           0
     64259 WT22     773      MECN     H12      HGA3     0.090000        1.0080           0
     64260 WT22     773      MECN     H13      HGA3     0.090000        1.0080           0
     64261 WT22     773      MECN     C2       CG1N1    0.360000       12.0110           0
     64262 WT22     773      MECN     N3       NG1T1   -0.460000       14.0070           0
     64263 WT22     774      MECN     C1       CG331   -0.170000       12.0110           0
     64264 WT22     774      MECN     H11      HGA3     0.090000        1.0080           0
     64265 WT22     774      MECN     H12      HGA3     0.090000        1.0080           0
     64266 WT22     774      MECN     H13      HGA3     0.090000        1.0080           0
     64267 WT22     774      MECN     C2       CG1N1    0.360000       12.0110           0
     64268 WT22     774      MECN     N3       NG1T1   -0.460000       14.0070           0
     64269 WT22     775      MECN     C1       CG331   -0.170000       12.0110           0
     64270 WT22     775      MECN     H11      HGA3     0.090000        1.0080           0
     64271 WT22     775      MECN     H12      HGA3     0.090000        1.0080           0
     64272 WT22     775      MECN     H13      HGA3     0.090000        1.0080           0
     64273 WT22     775      MECN     C2       CG1N1    0.360000       12.0110           0
     64274 WT22     775      MECN     N3       NG1T1   -0.460000       14.0070           0
     64275 WT22     776      MECN     C1       CG331   -0.170000       12.0110           0
     64276 WT22     776      MECN     H11      HGA3     0.090000        1.0080           0
     64277 WT22     776      MECN     H12      HGA3     0.090000        1.0080           0
     64278 WT22     776      MECN     H13      HGA3     0.090000        1.0080           0
     64279 WT22     776      MECN     C2       CG1N1    0.360000       12.0110           0
     64280 WT22     776      MECN     N3       NG1T1   -0.460000       14.0070           0
     64281 WT22     778      MECN     C1       CG331   -0.170000       12.0110           0
     64282 WT22     778      MECN     H11      HGA3     0.090000        1.0080           0
     64283 WT22     778      MECN     H12      HGA3     0.090000        1.0080           0
     64284 WT22     778      MECN     H13      HGA3     0.090000        1.0080           0
     64285 WT22     778      MECN     C2       CG1N1    0.360000       12.0110           0
     64286 WT22     778      MECN     N3       NG1T1   -0.460000       14.0070           0
     64287 WT22     782      MECN     C1       CG331   -0.170000       12.0110           0
     64288 WT22     782      MECN     H11      HGA3     0.090000        1.0080           0
     64289 WT22     782      MECN     H12      HGA3     0.090000        1.0080           0
     64290 WT22     782      MECN     H13      HGA3     0.090000        1.0080           0
     64291 WT22     782      MECN     C2       CG1N1    0.360000       12.0110           0
     64292 WT22     782      MECN     N3       NG1T1   -0.460000       14.0070           0
     64293 WT22     783      MECN     C1       CG331   -0.170000       12.0110           0
     64294 WT22     783      MECN     H11      HGA3     0.090000        1.0080           0
     64295 WT22     783      MECN     H12      HGA3     0.090000        1.0080           0
     64296 WT22     783      MECN     H13      HGA3     0.090000        1.0080           0
     64297 WT22     783      MECN     C2       CG1N1    0.360000       12.0110           0
     64298 WT22     783      MECN     N3       NG1T1   -0.460000       14.0070           0
     64299 WT22     786      MECN     C1       CG331   -0.170000       12.0110           0
     64300 WT22     786      MECN     H11      HGA3     0.090000        1.0080           0
     64301 WT22     786      MECN     H12      HGA3     0.090000        1.0080           0
     64302 WT22     786      MECN     H13      HGA3     0.090000        1.0080           0
     64303 WT22     786      MECN     C2       CG1N1    0.360000       12.0110           0
     64304 WT22     786      MECN     N3       NG1T1   -0.460000       14.0070           0
     64305 WT22     788      MECN     C1       CG331   -0.170000       12.0110           0
     64306 WT22     788      MECN     H11      HGA3     0.090000        1.0080           0
     64307 WT22     788      MECN     H12      HGA3     0.090000        1.0080           0
     64308 WT22     788      MECN     H13      HGA3     0.090000        1.0080           0
     64309 WT22     788      MECN     C2       CG1N1    0.360000       12.0110           0
     64310 WT22     788      MECN     N3       NG1T1   -0.460000       14.0070           0
     64311 WT22     797      MECN     C1       CG331   -0.170000       12.0110           0
     64312 WT22     797      MECN     H11      HGA3     0.090000        1.0080           0
     64313 WT22     797      MECN     H12      HGA3     0.090000        1.0080           0
     64314 WT22     797      MECN     H13      HGA3     0.090000        1.0080           0
     64315 WT22     797      MECN     C2       CG1N1    0.360000       12.0110           0
     64316 WT22     797      MECN     N3       NG1T1   -0.460000       14.0070           0
     64317 WT22     799      MECN     C1       CG331   -0.170000       12.0110           0
     64318 WT22     799      MECN     H11      HGA3     0.090000        1.0080           0
     64319 WT22     799      MECN     H12      HGA3     0.090000        1.0080           0
     64320 WT22     799      MECN     H13      HGA3     0.090000        1.0080           0
     64321 WT22     799      MECN     C2       CG1N1    0.360000       12.0110           0
     64322 WT22     799      MECN     N3       NG1T1   -0.460000       14.0070           0
     64323 WT22     806      MECN     C1       CG331   -0.170000       12.0110           0
     64324 WT22     806      MECN     H11      HGA3     0.090000        1.0080           0
     64325 WT22     806      MECN     H12      HGA3     0.090000        1.0080           0
     64326 WT22     806      MECN     H13      HGA3     0.090000        1.0080           0
     64327 WT22     806      MECN     C2       CG1N1    0.360000       12.0110           0
     64328 WT22     806      MECN     N3       NG1T1   -0.460000       14.0070           0
     64329 WT22     809      MECN     C1       CG331   -0.170000       12.0110           0
     64330 WT22     809      MECN     H11      HGA3     0.090000        1.0080           0
     64331 WT22     809      MECN     H12      HGA3     0.090000        1.0080           0
     64332 WT22     809      MECN     H13      HGA3     0.090000        1.0080           0
     64333 WT22     809      MECN     C2       CG1N1    0.360000       12.0110           0
     64334 WT22     809      MECN     N3       NG1T1   -0.460000       14.0070           0
     64335 WT22     815      MECN     C1       CG331   -0.170000       12.0110           0
     64336 WT22     815      MECN     H11      HGA3     0.090000        1.0080           0
     64337 WT22     815      MECN     H12      HGA3     0.090000        1.0080           0
     64338 WT22     815      MECN     H13      HGA3     0.090000        1.0080           0
     64339 WT22     815      MECN     C2       CG1N1    0.360000       12.0110           0
     64340 WT22     815      MECN     N3       NG1T1   -0.460000       14.0070           0
     64341 WT22     817      MECN     C1       CG331   -0.170000       12.0110           0
     64342 WT22     817      MECN     H11      HGA3     0.090000        1.0080           0
     64343 WT22     817      MECN     H12      HGA3     0.090000        1.0080           0
     64344 WT22     817      MECN     H13      HGA3     0.090000        1.0080           0
     64345 WT22     817      MECN     C2       CG1N1    0.360000       12.0110           0
     64346 WT22     817      MECN     N3       NG1T1   -0.460000       14.0070           0
     64347 WT22     822      MECN     C1       CG331   -0.170000       12.0110           0
     64348 WT22     822      MECN     H11      HGA3     0.090000        1.0080           0
     64349 WT22     822      MECN     H12      HGA3     0.090000        1.0080           0
     64350 WT22     822      MECN     H13      HGA3     0.090000        1.0080           0
     64351 WT22     822      MECN     C2       CG1N1    0.360000       12.0110           0
     64352 WT22     822      MECN     N3       NG1T1   -0.460000       14.0070           0
     64353 WT22     823      MECN     C1       CG331   -0.170000       12.0110           0
     64354 WT22     823      MECN     H11      HGA3     0.090000        1.0080           0
     64355 WT22     823      MECN     H12      HGA3     0.090000        1.0080           0
     64356 WT22     823      MECN     H13      HGA3     0.090000        1.0080           0
     64357 WT22     823      MECN     C2       CG1N1    0.360000       12.0110           0
     64358 WT22     823      MECN     N3       NG1T1   -0.460000       14.0070           0
     64359 WT22     827      MECN     C1       CG331   -0.170000       12.0110           0
     64360 WT22     827      MECN     H11      HGA3     0.090000        1.0080           0
     64361 WT22     827      MECN     H12      HGA3     0.090000        1.0080           0
     64362 WT22     827      MECN     H13      HGA3     0.090000        1.0080           0
     64363 WT22     827      MECN     C2       CG1N1    0.360000       12.0110           0
     64364 WT22     827      MECN     N3       NG1T1   -0.460000       14.0070           0
     64365 WT22     828      MECN     C1       CG331   -0.170000       12.0110           0
     64366 WT22     828      MECN     H11      HGA3     0.090000        1.0080           0
     64367 WT22     828      MECN     H12      HGA3     0.090000        1.0080           0
     64368 WT22     828      MECN     H13      HGA3     0.090000        1.0080           0
     64369 WT22     828      MECN     C2       CG1N1    0.360000       12.0110           0
     64370 WT22     828      MECN     N3       NG1T1   -0.460000       14.0070           0
     64371 WT22     832      MECN     C1       CG331   -0.170000       12.0110           0
     64372 WT22     832      MECN     H11      HGA3     0.090000        1.0080           0
     64373 WT22     832      MECN     H12      HGA3     0.090000        1.0080           0
     64374 WT22     832      MECN     H13      HGA3     0.090000        1.0080           0
     64375 WT22     832      MECN     C2       CG1N1    0.360000       12.0110           0
     64376 WT22     832      MECN     N3       NG1T1   -0.460000       14.0070           0
     64377 WT22     833      MECN     C1       CG331   -0.170000       12.0110           0
     64378 WT22     833      MECN     H11      HGA3     0.090000        1.0080           0
     64379 WT22     833      MECN     H12      HGA3     0.090000        1.0080           0
     64380 WT22     833      MECN     H13      HGA3     0.090000        1.0080           0
     64381 WT22     833      MECN     C2       CG1N1    0.360000       12.0110           0
     64382 WT22     833      MECN     N3       NG1T1   -0.460000       14.0070           0
     64383 WT22     834      MECN     C1       CG331   -0.170000       12.0110           0
     64384 WT22     834      MECN     H11      HGA3     0.090000        1.0080           0
     64385 WT22     834      MECN     H12      HGA3     0.090000        1.0080           0
     64386 WT22     834      MECN     H13      HGA3     0.090000        1.0080           0
     64387 WT22     834      MECN     C2       CG1N1    0.360000       12.0110           0
     64388 WT22     834      MECN     N3       NG1T1   -0.460000       14.0070           0
     64389 WT22     835      MECN     C1       CG331   -0.170000       12.0110           0
     64390 WT22     835      MECN     H11      HGA3     0.090000        1.0080           0
     64391 WT22     835      MECN     H12      HGA3     0.090000        1.0080           0
     64392 WT22     835      MECN     H13      HGA3     0.090000        1.0080           0
     64393 WT22     835      MECN     C2       CG1N1    0.360000       12.0110           0
     64394 WT22     835      MECN     N3       NG1T1   -0.460000       14.0070           0
     64395 WT22     840      MECN     C1       CG331   -0.170000       12.0110           0
     64396 WT22     840      MECN     H11      HGA3     0.090000        1.0080           0
     64397 WT22     840      MECN     H12      HGA3     0.090000        1.0080           0
     64398 WT22     840      MECN     H13      HGA3     0.090000        1.0080           0
     64399 WT22     840      MECN     C2       CG1N1    0.360000       12.0110           0
     64400 WT22     840      MECN     N3       NG1T1   -0.460000       14.0070           0
     64401 WT22     848      MECN     C1       CG331   -0.170000       12.0110           0
     64402 WT22     848      MECN     H11      HGA3     0.090000        1.0080           0
     64403 WT22     848      MECN     H12      HGA3     0.090000        1.0080           0
     64404 WT22     848      MECN     H13      HGA3     0.090000        1.0080           0
     64405 WT22     848      MECN     C2       CG1N1    0.360000       12.0110           0
     64406 WT22     848      MECN     N3       NG1T1   -0.460000       14.0070           0
     64407 WT22     849      MECN     C1       CG331   -0.170000       12.0110           0
     64408 WT22     849      MECN     H11      HGA3     0.090000        1.0080           0
     64409 WT22     849      MECN     H12      HGA3     0.090000        1.0080           0
     64410 WT22     849      MECN     H13      HGA3     0.090000        1.0080           0
     64411 WT22     849      MECN     C2       CG1N1    0.360000       12.0110           0
     64412 WT22     849      MECN     N3       NG1T1   -0.460000       14.0070           0
     64413 WT22     859      MECN     C1       CG331   -0.170000       12.0110           0
     64414 WT22     859      MECN     H11      HGA3     0.090000        1.0080           0
     64415 WT22     859      MECN     H12      HGA3     0.090000        1.0080           0
     64416 WT22     859      MECN     H13      HGA3     0.090000        1.0080           0
     64417 WT22     859      MECN     C2       CG1N1    0.360000       12.0110           0
     64418 WT22     859      MECN     N3       NG1T1   -0.460000       14.0070           0
     64419 WT22     860      MECN     C1       CG331   -0.170000       12.0110           0
     64420 WT22     860      MECN     H11      HGA3     0.090000        1.0080           0
     64421 WT22     860      MECN     H12      HGA3     0.090000        1.0080           0
     64422 WT22     860      MECN     H13      HGA3     0.090000        1.0080           0
     64423 WT22     860      MECN     C2       CG1N1    0.360000       12.0110           0
     64424 WT22     860      MECN     N3       NG1T1   -0.460000       14.0070           0
     64425 WT22     863      MECN     C1       CG331   -0.170000       12.0110           0
     64426 WT22     863      MECN     H11      HGA3     0.090000        1.0080           0
     64427 WT22     863      MECN     H12      HGA3     0.090000        1.0080           0
     64428 WT22     863      MECN     H13      HGA3     0.090000        1.0080           0
     64429 WT22     863      MECN     C2       CG1N1    0.360000       12.0110           0
     64430 WT22     863      MECN     N3       NG1T1   -0.460000       14.0070           0
     64431 WT22     864      MECN     C1       CG331   -0.170000       12.0110           0
     64432 WT22     864      MECN     H11      HGA3     0.090000        1.0080           0
     64433 WT22     864      MECN     H12      HGA3     0.090000        1.0080           0
     64434 WT22     864      MECN     H13      HGA3     0.090000        1.0080           0
     64435 WT22     864      MECN     C2       CG1N1    0.360000       12.0110           0
     64436 WT22     864      MECN     N3       NG1T1   -0.460000       14.0070           0
     64437 WT22     873      MECN     C1       CG331   -0.170000       12.0110           0
     64438 WT22     873      MECN     H11      HGA3     0.090000        1.0080           0
     64439 WT22     873      MECN     H12      HGA3     0.090000        1.0080           0
     64440 WT22     873      MECN     H13      HGA3     0.090000        1.0080           0
     64441 WT22     873      MECN     C2       CG1N1    0.360000       12.0110           0
     64442 WT22     873      MECN     N3       NG1T1   -0.460000       14.0070           0
     64443 WT22     875      MECN     C1       CG331   -0.170000       12.0110           0
     64444 WT22     875      MECN     H11      HGA3     0.090000        1.0080           0
     64445 WT22     875      MECN     H12      HGA3     0.090000        1.0080           0
     64446 WT22     875      MECN     H13      HGA3     0.090000        1.0080           0
     64447 WT22     875      MECN     C2       CG1N1    0.360000       12.0110           0
     64448 WT22     875      MECN     N3       NG1T1   -0.460000       14.0070           0
     64449 WT22     876      MECN     C1       CG331   -0.170000       12.0110           0
     64450 WT22     876      MECN     H11      HGA3     0.090000        1.0080           0
     64451 WT22     876      MECN     H12      HGA3     0.090000        1.0080           0
     64452 WT22     876      MECN     H13      HGA3     0.090000        1.0080           0
     64453 WT22     876      MECN     C2       CG1N1    0.360000       12.0110           0
     64454 WT22     876      MECN     N3       NG1T1   -0.460000       14.0070           0
     64455 WT22     878      MECN     C1       CG331   -0.170000       12.0110           0
     64456 WT22     878      MECN     H11      HGA3     0.090000        1.0080           0
     64457 WT22     878      MECN     H12      HGA3     0.090000        1.0080           0
     64458 WT22     878      MECN     H13      HGA3     0.090000        1.0080           0
     64459 WT22     878      MECN     C2       CG1N1    0.360000       12.0110           0
     64460 WT22     878      MECN     N3       NG1T1   -0.460000       14.0070           0
     64461 WT22     886      MECN     C1       CG331   -0.170000       12.0110           0
     64462 WT22     886      MECN     H11      HGA3     0.090000        1.0080           0
     64463 WT22     886      MECN     H12      HGA3     0.090000        1.0080           0
     64464 WT22     886      MECN     H13      HGA3     0.090000        1.0080           0
     64465 WT22     886      MECN     C2       CG1N1    0.360000       12.0110           0
     64466 WT22     886      MECN     N3       NG1T1   -0.460000       14.0070           0
     64467 WT22     888      MECN     C1       CG331   -0.170000       12.0110           0
     64468 WT22     888      MECN     H11      HGA3     0.090000        1.0080           0
     64469 WT22     888      MECN     H12      HGA3     0.090000        1.0080           0
     64470 WT22     888      MECN     H13      HGA3     0.090000        1.0080           0
     64471 WT22     888      MECN     C2       CG1N1    0.360000       12.0110           0
     64472 WT22     888      MECN     N3       NG1T1   -0.460000       14.0070           0
     64473 WT22     890      MECN     C1       CG331   -0.170000       12.0110           0
     64474 WT22     890      MECN     H11      HGA3     0.090000        1.0080           0
     64475 WT22     890      MECN     H12      HGA3     0.090000        1.0080           0
     64476 WT22     890      MECN     H13      HGA3     0.090000        1.0080           0
     64477 WT22     890      MECN     C2       CG1N1    0.360000       12.0110           0
     64478 WT22     890      MECN     N3       NG1T1   -0.460000       14.0070           0
     64479 WT22     891      MECN     C1       CG331   -0.170000       12.0110           0
     64480 WT22     891      MECN     H11      HGA3     0.090000        1.0080           0
     64481 WT22     891      MECN     H12      HGA3     0.090000        1.0080           0
     64482 WT22     891      MECN     H13      HGA3     0.090000        1.0080           0
     64483 WT22     891      MECN     C2       CG1N1    0.360000       12.0110           0
     64484 WT22     891      MECN     N3       NG1T1   -0.460000       14.0070           0
     64485 WT22     892      MECN     C1       CG331   -0.170000       12.0110           0
     64486 WT22     892      MECN     H11      HGA3     0.090000        1.0080           0
     64487 WT22     892      MECN     H12      HGA3     0.090000        1.0080           0
     64488 WT22     892      MECN     H13      HGA3     0.090000        1.0080           0
     64489 WT22     892      MECN     C2       CG1N1    0.360000       12.0110           0
     64490 WT22     892      MECN     N3       NG1T1   -0.460000       14.0070           0
     64491 WT22     902      MECN     C1       CG331   -0.170000       12.0110           0
     64492 WT22     902      MECN     H11      HGA3     0.090000        1.0080           0
     64493 WT22     902      MECN     H12      HGA3     0.090000        1.0080           0
     64494 WT22     902      MECN     H13      HGA3     0.090000        1.0080           0
     64495 WT22     902      MECN     C2       CG1N1    0.360000       12.0110           0
     64496 WT22     902      MECN     N3       NG1T1   -0.460000       14.0070           0
     64497 WT22     904      MECN     C1       CG331   -0.170000       12.0110           0
     64498 WT22     904      MECN     H11      HGA3     0.090000        1.0080           0
     64499 WT22     904      MECN     H12      HGA3     0.090000        1.0080           0
     64500 WT22     904      MECN     H13      HGA3     0.090000        1.0080           0
     64501 WT22     904      MECN     C2       CG1N1    0.360000       12.0110           0
     64502 WT22     904      MECN     N3       NG1T1   -0.460000       14.0070           0
     64503 WT22     905      MECN     C1       CG331   -0.170000       12.0110           0
     64504 WT22     905      MECN     H11      HGA3     0.090000        1.0080           0
     64505 WT22     905      MECN     H12      HGA3     0.090000        1.0080           0
     64506 WT22     905      MECN     H13      HGA3     0.090000        1.0080           0
     64507 WT22     905      MECN     C2       CG1N1    0.360000       12.0110           0
     64508 WT22     905      MECN     N3       NG1T1   -0.460000       14.0070           0
     64509 WT22     909      MECN     C1       CG331   -0.170000       12.0110           0
     64510 WT22     909      MECN     H11      HGA3     0.090000        1.0080           0
     64511 WT22     909      MECN     H12      HGA3     0.090000        1.0080           0
     64512 WT22     909      MECN     H13      HGA3     0.090000        1.0080           0
     64513 WT22     909      MECN     C2       CG1N1    0.360000       12.0110           0
     64514 WT22     909      MECN     N3       NG1T1   -0.460000       14.0070           0
     64515 WT22     910      MECN     C1       CG331   -0.170000       12.0110           0
     64516 WT22     910      MECN     H11      HGA3     0.090000        1.0080           0
     64517 WT22     910      MECN     H12      HGA3     0.090000        1.0080           0
     64518 WT22     910      MECN     H13      HGA3     0.090000        1.0080           0
     64519 WT22     910      MECN     C2       CG1N1    0.360000       12.0110           0
     64520 WT22     910      MECN     N3       NG1T1   -0.460000       14.0070           0
     64521 WT22     911      MECN     C1       CG331   -0.170000       12.0110           0
     64522 WT22     911      MECN     H11      HGA3     0.090000        1.0080           0
     64523 WT22     911      MECN     H12      HGA3     0.090000        1.0080           0
     64524 WT22     911      MECN     H13      HGA3     0.090000        1.0080           0
     64525 WT22     911      MECN     C2       CG1N1    0.360000       12.0110           0
     64526 WT22     911      MECN     N3       NG1T1   -0.460000       14.0070           0
     64527 WT22     913      MECN     C1       CG331   -0.170000       12.0110           0
     64528 WT22     913      MECN     H11      HGA3     0.090000        1.0080           0
     64529 WT22     913      MECN     H12      HGA3     0.090000        1.0080           0
     64530 WT22     913      MECN     H13      HGA3     0.090000        1.0080           0
     64531 WT22     913      MECN     C2       CG1N1    0.360000       12.0110           0
     64532 WT22     913      MECN     N3       NG1T1   -0.460000       14.0070           0
     64533 WT22     914      MECN     C1       CG331   -0.170000       12.0110           0
     64534 WT22     914      MECN     H11      HGA3     0.090000        1.0080           0
     64535 WT22     914      MECN     H12      HGA3     0.090000        1.0080           0
     64536 WT22     914      MECN     H13      HGA3     0.090000        1.0080           0
     64537 WT22     914      MECN     C2       CG1N1    0.360000       12.0110           0
     64538 WT22     914      MECN     N3       NG1T1   -0.460000       14.0070           0
     64539 WT22     915      MECN     C1       CG331   -0.170000       12.0110           0
     64540 WT22     915      MECN     H11      HGA3     0.090000        1.0080           0
     64541 WT22     915      MECN     H12      HGA3     0.090000        1.0080           0
     64542 WT22     915      MECN     H13      HGA3     0.090000        1.0080           0
     64543 WT22     915      MECN     C2       CG1N1    0.360000       12.0110           0
     64544 WT22     915      MECN     N3       NG1T1   -0.460000       14.0070           0
     64545 WT22     917      MECN     C1       CG331   -0.170000       12.0110           0
     64546 WT22     917      MECN     H11      HGA3     0.090000        1.0080           0
     64547 WT22     917      MECN     H12      HGA3     0.090000        1.0080           0
     64548 WT22     917      MECN     H13      HGA3     0.090000        1.0080           0
     64549 WT22     917      MECN     C2       CG1N1    0.360000       12.0110           0
     64550 WT22     917      MECN     N3       NG1T1   -0.460000       14.0070           0
     64551 WT22     918      MECN     C1       CG331   -0.170000       12.0110           0
     64552 WT22     918      MECN     H11      HGA3     0.090000        1.0080           0
     64553 WT22     918      MECN     H12      HGA3     0.090000        1.0080           0
     64554 WT22     918      MECN     H13      HGA3     0.090000        1.0080           0
     64555 WT22     918      MECN     C2       CG1N1    0.360000       12.0110           0
     64556 WT22     918      MECN     N3       NG1T1   -0.460000       14.0070           0
     64557 WT22     920      MECN     C1       CG331   -0.170000       12.0110           0
     64558 WT22     920      MECN     H11      HGA3     0.090000        1.0080           0
     64559 WT22     920      MECN     H12      HGA3     0.090000        1.0080           0
     64560 WT22     920      MECN     H13      HGA3     0.090000        1.0080           0
     64561 WT22     920      MECN     C2       CG1N1    0.360000       12.0110           0
     64562 WT22     920      MECN     N3       NG1T1   -0.460000       14.0070           0
     64563 WT22     923      MECN     C1       CG331   -0.170000       12.0110           0
     64564 WT22     923      MECN     H11      HGA3     0.090000        1.0080           0
     64565 WT22     923      MECN     H12      HGA3     0.090000        1.0080           0
     64566 WT22     923      MECN     H13      HGA3     0.090000        1.0080           0
     64567 WT22     923      MECN     C2       CG1N1    0.360000       12.0110           0
     64568 WT22     923      MECN     N3       NG1T1   -0.460000       14.0070           0
     64569 WT22     926      MECN     C1       CG331   -0.170000       12.0110           0
     64570 WT22     926      MECN     H11      HGA3     0.090000        1.0080           0
     64571 WT22     926      MECN     H12      HGA3     0.090000        1.0080           0
     64572 WT22     926      MECN     H13      HGA3     0.090000        1.0080           0
     64573 WT22     926      MECN     C2       CG1N1    0.360000       12.0110           0
     64574 WT22     926      MECN     N3       NG1T1   -0.460000       14.0070           0
     64575 WT22     928      MECN     C1       CG331   -0.170000       12.0110           0
     64576 WT22     928      MECN     H11      HGA3     0.090000        1.0080           0
     64577 WT22     928      MECN     H12      HGA3     0.090000        1.0080           0
     64578 WT22     928      MECN     H13      HGA3     0.090000        1.0080           0
     64579 WT22     928      MECN     C2       CG1N1    0.360000       12.0110           0
     64580 WT22     928      MECN     N3       NG1T1   -0.460000       14.0070           0
     64581 WT22     933      MECN     C1       CG331   -0.170000       12.0110           0
     64582 WT22     933      MECN     H11      HGA3     0.090000        1.0080           0
     64583 WT22     933      MECN     H12      HGA3     0.090000        1.0080           0
     64584 WT22     933      MECN     H13      HGA3     0.090000        1.0080           0
     64585 WT22     933      MECN     C2       CG1N1    0.360000       12.0110           0
     64586 WT22     933      MECN     N3       NG1T1   -0.460000       14.0070           0
     64587 WT22     934      MECN     C1       CG331   -0.170000       12.0110           0
     64588 WT22     934      MECN     H11      HGA3     0.090000        1.0080           0
     64589 WT22     934      MECN     H12      HGA3     0.090000        1.0080           0
     64590 WT22     934      MECN     H13      HGA3     0.090000        1.0080           0
     64591 WT22     934      MECN     C2       CG1N1    0.360000       12.0110           0
     64592 WT22     934      MECN     N3       NG1T1   -0.460000       14.0070           0
     64593 WT22     939      MECN     C1       CG331   -0.170000       12.0110           0
     64594 WT22     939      MECN     H11      HGA3     0.090000        1.0080           0
     64595 WT22     939      MECN     H12      HGA3     0.090000        1.0080           0
     64596 WT22     939      MECN     H13      HGA3     0.090000        1.0080           0
     64597 WT22     939      MECN     C2       CG1N1    0.360000       12.0110           0
     64598 WT22     939      MECN     N3       NG1T1   -0.460000       14.0070           0
     64599 WT22     943      MECN     C1       CG331   -0.170000       12.0110           0
     64600 WT22     943      MECN     H11      HGA3     0.090000        1.0080           0
     64601 WT22     943      MECN     H12      HGA3     0.090000        1.0080           0
     64602 WT22     943      MECN     H13      HGA3     0.090000        1.0080           0
     64603 WT22     943      MECN     C2       CG1N1    0.360000       12.0110           0
     64604 WT22     943      MECN     N3       NG1T1   -0.460000       14.0070           0
     64605 WT22     949      MECN     C1       CG331   -0.170000       12.0110           0
     64606 WT22     949      MECN     H11      HGA3     0.090000        1.0080           0
     64607 WT22     949      MECN     H12      HGA3     0.090000        1.0080           0
     64608 WT22     949      MECN     H13      HGA3     0.090000        1.0080           0
     64609 WT22     949      MECN     C2       CG1N1    0.360000       12.0110           0
     64610 WT22     949      MECN     N3       NG1T1   -0.460000       14.0070           0
     64611 WT22     955      MECN     C1       CG331   -0.170000       12.0110           0
     64612 WT22     955      MECN     H11      HGA3     0.090000        1.0080           0
     64613 WT22     955      MECN     H12      HGA3     0.090000        1.0080           0
     64614 WT22     955      MECN     H13      HGA3     0.090000        1.0080           0
     64615 WT22     955      MECN     C2       CG1N1    0.360000       12.0110           0
     64616 WT22     955      MECN     N3       NG1T1   -0.460000       14.0070           0
     64617 WT22     956      MECN     C1       CG331   -0.170000       12.0110           0
     64618 WT22     956      MECN     H11      HGA3     0.090000        1.0080           0
     64619 WT22     956      MECN     H12      HGA3     0.090000        1.0080           0
     64620 WT22     956      MECN     H13      HGA3     0.090000        1.0080           0
     64621 WT22     956      MECN     C2       CG1N1    0.360000       12.0110           0
     64622 WT22     956      MECN     N3       NG1T1   -0.460000       14.0070           0
     64623 WT22     961      MECN     C1       CG331   -0.170000       12.0110           0
     64624 WT22     961      MECN     H11      HGA3     0.090000        1.0080           0
     64625 WT22     961      MECN     H12      HGA3     0.090000        1.0080           0
     64626 WT22     961      MECN     H13      HGA3     0.090000        1.0080           0
     64627 WT22     961      MECN     C2       CG1N1    0.360000       12.0110           0
     64628 WT22     961      MECN     N3       NG1T1   -0.460000       14.0070           0
     64629 WT22     965      MECN     C1       CG331   -0.170000       12.0110           0
     64630 WT22     965      MECN     H11      HGA3     0.090000        1.0080           0
     64631 WT22     965      MECN     H12      HGA3     0.090000        1.0080           0
     64632 WT22     965      MECN     H13      HGA3     0.090000        1.0080           0
     64633 WT22     965      MECN     C2       CG1N1    0.360000       12.0110           0
     64634 WT22     965      MECN     N3       NG1T1   -0.460000       14.0070           0
     64635 WT22     966      MECN     C1       CG331   -0.170000       12.0110           0
     64636 WT22     966      MECN     H11      HGA3     0.090000        1.0080           0
     64637 WT22     966      MECN     H12      HGA3     0.090000        1.0080           0
     64638 WT22     966      MECN     H13      HGA3     0.090000        1.0080           0
     64639 WT22     966      MECN     C2       CG1N1    0.360000       12.0110           0
     64640 WT22     966      MECN     N3       NG1T1   -0.460000       14.0070           0
     64641 WT22     968      MECN     C1       CG331   -0.170000       12.0110           0
     64642 WT22     968      MECN     H11      HGA3     0.090000        1.0080           0
     64643 WT22     968      MECN     H12      HGA3     0.090000        1.0080           0
     64644 WT22     968      MECN     H13      HGA3     0.090000        1.0080           0
     64645 WT22     968      MECN     C2       CG1N1    0.360000       12.0110           0
     64646 WT22     968      MECN     N3       NG1T1   -0.460000       14.0070           0
     64647 WT22     977      MECN     C1       CG331   -0.170000       12.0110           0
     64648 WT22     977      MECN     H11      HGA3     0.090000        1.0080           0
     64649 WT22     977      MECN     H12      HGA3     0.090000        1.0080           0
     64650 WT22     977      MECN     H13      HGA3     0.090000        1.0080           0
     64651 WT22     977      MECN     C2       CG1N1    0.360000       12.0110           0
     64652 WT22     977      MECN     N3       NG1T1   -0.460000       14.0070           0
     64653 WT22     978      MECN     C1       CG331   -0.170000       12.0110           0
     64654 WT22     978      MECN     H11      HGA3     0.090000        1.0080           0
     64655 WT22     978      MECN     H12      HGA3     0.090000        1.0080           0
     64656 WT22     978      MECN     H13      HGA3     0.090000        1.0080           0
     64657 WT22     978      MECN     C2       CG1N1    0.360000       12.0110           0
     64658 WT22     978      MECN     N3       NG1T1   -0.460000       14.0070           0
     64659 WT22     983      MECN     C1       CG331   -0.170000       12.0110           0
     64660 WT22     983      MECN     H11      HGA3     0.090000        1.0080           0
     64661 WT22     983      MECN     H12      HGA3     0.090000        1.0080           0
     64662 WT22     983      MECN     H13      HGA3     0.090000        1.0080           0
     64663 WT22     983      MECN     C2       CG1N1    0.360000       12.0110           0
     64664 WT22     983      MECN     N3       NG1T1   -0.460000       14.0070           0
     64665 WT22     984      MECN     C1       CG331   -0.170000       12.0110           0
     64666 WT22     984      MECN     H11      HGA3     0.090000        1.0080           0
     64667 WT22     984      MECN     H12      HGA3     0.090000        1.0080           0
     64668 WT22     984      MECN     H13      HGA3     0.090000        1.0080           0
     64669 WT22     984      MECN     C2       CG1N1    0.360000       12.0110           0
     64670 WT22     984      MECN     N3       NG1T1   -0.460000       14.0070           0
     64671 WT22     985      MECN     C1       CG331   -0.170000       12.0110           0
     64672 WT22     985      MECN     H11      HGA3     0.090000        1.0080           0
     64673 WT22     985      MECN     H12      HGA3     0.090000        1.0080           0
     64674 WT22     985      MECN     H13      HGA3     0.090000        1.0080           0
     64675 WT22     985      MECN     C2       CG1N1    0.360000       12.0110           0
     64676 WT22     985      MECN     N3       NG1T1   -0.460000       14.0070           0
     64677 WT22     986      MECN     C1       CG331   -0.170000       12.0110           0
     64678 WT22     986      MECN     H11      HGA3     0.090000        1.0080           0
     64679 WT22     986      MECN     H12      HGA3     0.090000        1.0080           0
     64680 WT22     986      MECN     H13      HGA3     0.090000        1.0080           0
     64681 WT22     986      MECN     C2       CG1N1    0.360000       12.0110           0
     64682 WT22     986      MECN     N3       NG1T1   -0.460000       14.0070           0
     64683 WT22     989      MECN     C1       CG331   -0.170000       12.0110           0
     64684 WT22     989      MECN     H11      HGA3     0.090000        1.0080           0
     64685 WT22     989      MECN     H12      HGA3     0.090000        1.0080           0
     64686 WT22     989      MECN     H13      HGA3     0.090000        1.0080           0
     64687 WT22     989      MECN     C2       CG1N1    0.360000       12.0110           0
     64688 WT22     989      MECN     N3       NG1T1   -0.460000       14.0070           0
     64689 WT22     990      MECN     C1       CG331   -0.170000       12.0110           0
     64690 WT22     990      MECN     H11      HGA3     0.090000        1.0080           0
     64691 WT22     990      MECN     H12      HGA3     0.090000        1.0080           0
     64692 WT22     990      MECN     H13      HGA3     0.090000        1.0080           0
     64693 WT22     990      MECN     C2       CG1N1    0.360000       12.0110           0
     64694 WT22     990      MECN     N3       NG1T1   -0.460000       14.0070           0
     64695 WT22     991      MECN     C1       CG331   -0.170000       12.0110           0
     64696 WT22     991      MECN     H11      HGA3     0.090000        1.0080           0
     64697 WT22     991      MECN     H12      HGA3     0.090000        1.0080           0
     64698 WT22     991      MECN     H13      HGA3     0.090000        1.0080           0
     64699 WT22     991      MECN     C2       CG1N1    0.360000       12.0110           0
     64700 WT22     991      MECN     N3       NG1T1   -0.460000       14.0070           0
     64701 WT22     992      MECN     C1       CG331   -0.170000       12.0110           0
     64702 WT22     992      MECN     H11      HGA3     0.090000        1.0080           0
     64703 WT22     992      MECN     H12      HGA3     0.090000        1.0080           0
     64704 WT22     992      MECN     H13      HGA3     0.090000        1.0080           0
     64705 WT22     992      MECN     C2       CG1N1    0.360000       12.0110           0
     64706 WT22     992      MECN     N3       NG1T1   -0.460000       14.0070           0
     64707 WT22     993      MECN     C1       CG331   -0.170000       12.0110           0
     64708 WT22     993      MECN     H11      HGA3     0.090000        1.0080           0
     64709 WT22     993      MECN     H12      HGA3     0.090000        1.0080           0
     64710 WT22     993      MECN     H13      HGA3     0.090000        1.0080           0
     64711 WT22     993      MECN     C2       CG1N1    0.360000       12.0110           0
     64712 WT22     993      MECN     N3       NG1T1   -0.460000       14.0070           0
     64713 WT22     994      MECN     C1       CG331   -0.170000       12.0110           0
     64714 WT22     994      MECN     H11      HGA3     0.090000        1.0080           0
     64715 WT22     994      MECN     H12      HGA3     0.090000        1.0080           0
     64716 WT22     994      MECN     H13      HGA3     0.090000        1.0080           0
     64717 WT22     994      MECN     C2       CG1N1    0.360000       12.0110           0
     64718 WT22     994      MECN     N3       NG1T1   -0.460000       14.0070           0
     64719 WT22     1004     MECN     C1       CG331   -0.170000       12.0110           0
     64720 WT22     1004     MECN     H11      HGA3     0.090000        1.0080           0
     64721 WT22     1004     MECN     H12      HGA3     0.090000        1.0080           0
     64722 WT22     1004     MECN     H13      HGA3     0.090000        1.0080           0
     64723 WT22     1004     MECN     C2       CG1N1    0.360000       12.0110           0
     64724 WT22     1004     MECN     N3       NG1T1   -0.460000       14.0070           0
     64725 WT22     1006     MECN     C1       CG331   -0.170000       12.0110           0
     64726 WT22     1006     MECN     H11      HGA3     0.090000        1.0080           0
     64727 WT22     1006     MECN     H12      HGA3     0.090000        1.0080           0
     64728 WT22     1006     MECN     H13      HGA3     0.090000        1.0080           0
     64729 WT22     1006     MECN     C2       CG1N1    0.360000       12.0110           0
     64730 WT22     1006     MECN     N3       NG1T1   -0.460000       14.0070           0
     64731 WT22     1008     MECN     C1       CG331   -0.170000       12.0110           0
     64732 WT22     1008     MECN     H11      HGA3     0.090000        1.0080           0
     64733 WT22     1008     MECN     H12      HGA3     0.090000        1.0080           0
     64734 WT22     1008     MECN     H13      HGA3     0.090000        1.0080           0
     64735 WT22     1008     MECN     C2       CG1N1    0.360000       12.0110           0
     64736 WT22     1008     MECN     N3       NG1T1   -0.460000       14.0070           0
     64737 WT22     1010     MECN     C1       CG331   -0.170000       12.0110           0
     64738 WT22     1010     MECN     H11      HGA3     0.090000        1.0080           0
     64739 WT22     1010     MECN     H12      HGA3     0.090000        1.0080           0
     64740 WT22     1010     MECN     H13      HGA3     0.090000        1.0080           0
     64741 WT22     1010     MECN     C2       CG1N1    0.360000       12.0110           0
     64742 WT22     1010     MECN     N3       NG1T1   -0.460000       14.0070           0
     64743 WT22     1011     MECN     C1       CG331   -0.170000       12.0110           0
     64744 WT22     1011     MECN     H11      HGA3     0.090000        1.0080           0
     64745 WT22     1011     MECN     H12      HGA3     0.090000        1.0080           0
     64746 WT22     1011     MECN     H13      HGA3     0.090000        1.0080           0
     64747 WT22     1011     MECN     C2       CG1N1    0.360000       12.0110           0
     64748 WT22     1011     MECN     N3       NG1T1   -0.460000       14.0070           0
     64749 WT22     1012     MECN     C1       CG331   -0.170000       12.0110           0
     64750 WT22     1012     MECN     H11      HGA3     0.090000        1.0080           0
     64751 WT22     1012     MECN     H12      HGA3     0.090000        1.0080           0
     64752 WT22     1012     MECN     H13      HGA3     0.090000        1.0080           0
     64753 WT22     1012     MECN     C2       CG1N1    0.360000       12.0110           0
     64754 WT22     1012     MECN     N3       NG1T1   -0.460000       14.0070           0
     64755 WT22     1014     MECN     C1       CG331   -0.170000       12.0110           0
     64756 WT22     1014     MECN     H11      HGA3     0.090000        1.0080           0
     64757 WT22     1014     MECN     H12      HGA3     0.090000        1.0080           0
     64758 WT22     1014     MECN     H13      HGA3     0.090000        1.0080           0
     64759 WT22     1014     MECN     C2       CG1N1    0.360000       12.0110           0
     64760 WT22     1014     MECN     N3       NG1T1   -0.460000       14.0070           0
     64761 WT22     1019     MECN     C1       CG331   -0.170000       12.0110           0
     64762 WT22     1019     MECN     H11      HGA3     0.090000        1.0080           0
     64763 WT22     1019     MECN     H12      HGA3     0.090000        1.0080           0
     64764 WT22     1019     MECN     H13      HGA3     0.090000        1.0080           0
     64765 WT22     1019     MECN     C2       CG1N1    0.360000       12.0110           0
     64766 WT22     1019     MECN     N3       NG1T1   -0.460000       14.0070           0
     64767 WT22     1021     MECN     C1       CG331   -0.170000       12.0110           0
     64768 WT22     1021     MECN     H11      HGA3     0.090000        1.0080           0
     64769 WT22     1021     MECN     H12      HGA3     0.090000        1.0080           0
     64770 WT22     1021     MECN     H13      HGA3     0.090000        1.0080           0
     64771 WT22     1021     MECN     C2       CG1N1    0.360000       12.0110           0
     64772 WT22     1021     MECN     N3       NG1T1   -0.460000       14.0070           0
     64773 WT22     1029     MECN     C1       CG331   -0.170000       12.0110           0
     64774 WT22     1029     MECN     H11      HGA3     0.090000        1.0080           0
     64775 WT22     1029     MECN     H12      HGA3     0.090000        1.0080           0
     64776 WT22     1029     MECN     H13      HGA3     0.090000        1.0080           0
     64777 WT22     1029     MECN     C2       CG1N1    0.360000       12.0110           0
     64778 WT22     1029     MECN     N3       NG1T1   -0.460000       14.0070           0
     64779 WT22     1030     MECN     C1       CG331   -0.170000       12.0110           0
     64780 WT22     1030     MECN     H11      HGA3     0.090000        1.0080           0
     64781 WT22     1030     MECN     H12      HGA3     0.090000        1.0080           0
     64782 WT22     1030     MECN     H13      HGA3     0.090000        1.0080           0
     64783 WT22     1030     MECN     C2       CG1N1    0.360000       12.0110           0
     64784 WT22     1030     MECN     N3       NG1T1   -0.460000       14.0070           0
     64785 WT22     1033     MECN     C1       CG331   -0.170000       12.0110           0
     64786 WT22     1033     MECN     H11      HGA3     0.090000        1.0080           0
     64787 WT22     1033     MECN     H12      HGA3     0.090000        1.0080           0
     64788 WT22     1033     MECN     H13      HGA3     0.090000        1.0080           0
     64789 WT22     1033     MECN     C2       CG1N1    0.360000       12.0110           0
     64790 WT22     1033     MECN     N3       NG1T1   -0.460000       14.0070           0
     64791 WT22     1034     MECN     C1       CG331   -0.170000       12.0110           0
     64792 WT22     1034     MECN     H11      HGA3     0.090000        1.0080           0
     64793 WT22     1034     MECN     H12      HGA3     0.090000        1.0080           0
     64794 WT22     1034     MECN     H13      HGA3     0.090000        1.0080           0
     64795 WT22     1034     MECN     C2       CG1N1    0.360000       12.0110           0
     64796 WT22     1034     MECN     N3       NG1T1   -0.460000       14.0070           0
     64797 WT22     1035     MECN     C1       CG331   -0.170000       12.0110           0
     64798 WT22     1035     MECN     H11      HGA3     0.090000        1.0080           0
     64799 WT22     1035     MECN     H12      HGA3     0.090000        1.0080           0
     64800 WT22     1035     MECN     H13      HGA3     0.090000        1.0080           0
     64801 WT22     1035     MECN     C2       CG1N1    0.360000       12.0110           0
     64802 WT22     1035     MECN     N3       NG1T1   -0.460000       14.0070           0
     64803 WT22     1036     MECN     C1       CG331   -0.170000       12.0110           0
     64804 WT22     1036     MECN     H11      HGA3     0.090000        1.0080           0
     64805 WT22     1036     MECN     H12      HGA3     0.090000        1.0080           0
     64806 WT22     1036     MECN     H13      HGA3     0.090000        1.0080           0
     64807 WT22     1036     MECN     C2       CG1N1    0.360000       12.0110           0
     64808 WT22     1036     MECN     N3       NG1T1   -0.460000       14.0070           0
     64809 WT22     1039     MECN     C1       CG331   -0.170000       12.0110           0
     64810 WT22     1039     MECN     H11      HGA3     0.090000        1.0080           0
     64811 WT22     1039     MECN     H12      HGA3     0.090000        1.0080           0
     64812 WT22     1039     MECN     H13      HGA3     0.090000        1.0080           0
     64813 WT22     1039     MECN     C2       CG1N1    0.360000       12.0110           0
     64814 WT22     1039     MECN     N3       NG1T1   -0.460000       14.0070           0
     64815 WT22     1040     MECN     C1       CG331   -0.170000       12.0110           0
     64816 WT22     1040     MECN     H11      HGA3     0.090000        1.0080           0
     64817 WT22     1040     MECN     H12      HGA3     0.090000        1.0080           0
     64818 WT22     1040     MECN     H13      HGA3     0.090000        1.0080           0
     64819 WT22     1040     MECN     C2       CG1N1    0.360000       12.0110           0
     64820 WT22     1040     MECN     N3       NG1T1   -0.460000       14.0070           0
     64821 WT22     1043     MECN     C1       CG331   -0.170000       12.0110           0
     64822 WT22     1043     MECN     H11      HGA3     0.090000        1.0080           0
     64823 WT22     1043     MECN     H12      HGA3     0.090000        1.0080           0
     64824 WT22     1043     MECN     H13      HGA3     0.090000        1.0080           0
     64825 WT22     1043     MECN     C2       CG1N1    0.360000       12.0110           0
     64826 WT22     1043     MECN     N3       NG1T1   -0.460000       14.0070           0
     64827 WT22     1044     MECN     C1       CG331   -0.170000       12.0110           0
     64828 WT22     1044     MECN     H11      HGA3     0.090000        1.0080           0
     64829 WT22     1044     MECN     H12      HGA3     0.090000        1.0080           0
     64830 WT22     1044     MECN     H13      HGA3     0.090000        1.0080           0
     64831 WT22     1044     MECN     C2       CG1N1    0.360000       12.0110           0
     64832 WT22     1044     MECN     N3       NG1T1   -0.460000       14.0070           0
     64833 WT22     1048     MECN     C1       CG331   -0.170000       12.0110           0
     64834 WT22     1048     MECN     H11      HGA3     0.090000        1.0080           0
     64835 WT22     1048     MECN     H12      HGA3     0.090000        1.0080           0
     64836 WT22     1048     MECN     H13      HGA3     0.090000        1.0080           0
     64837 WT22     1048     MECN     C2       CG1N1    0.360000       12.0110           0
     64838 WT22     1048     MECN     N3       NG1T1   -0.460000       14.0070           0
     64839 WT22     1051     MECN     C1       CG331   -0.170000       12.0110           0
     64840 WT22     1051     MECN     H11      HGA3     0.090000        1.0080           0
     64841 WT22     1051     MECN     H12      HGA3     0.090000        1.0080           0
     64842 WT22     1051     MECN     H13      HGA3     0.090000        1.0080           0
     64843 WT22     1051     MECN     C2       CG1N1    0.360000       12.0110           0
     64844 WT22     1051     MECN     N3       NG1T1   -0.460000       14.0070           0
     64845 WT22     1052     MECN     C1       CG331   -0.170000       12.0110           0
     64846 WT22     1052     MECN     H11      HGA3     0.090000        1.0080           0
     64847 WT22     1052     MECN     H12      HGA3     0.090000        1.0080           0
     64848 WT22     1052     MECN     H13      HGA3     0.090000        1.0080           0
     64849 WT22     1052     MECN     C2       CG1N1    0.360000       12.0110           0
     64850 WT22     1052     MECN     N3       NG1T1   -0.460000       14.0070           0
     64851 WT22     1054     MECN     C1       CG331   -0.170000       12.0110           0
     64852 WT22     1054     MECN     H11      HGA3     0.090000        1.0080           0
     64853 WT22     1054     MECN     H12      HGA3     0.090000        1.0080           0
     64854 WT22     1054     MECN     H13      HGA3     0.090000        1.0080           0
     64855 WT22     1054     MECN     C2       CG1N1    0.360000       12.0110           0
     64856 WT22     1054     MECN     N3       NG1T1   -0.460000       14.0070           0
     64857 WT22     1055     MECN     C1       CG331   -0.170000       12.0110           0
     64858 WT22     1055     MECN     H11      HGA3     0.090000        1.0080           0
     64859 WT22     1055     MECN     H12      HGA3     0.090000        1.0080           0
     64860 WT22     1055     MECN     H13      HGA3     0.090000        1.0080           0
     64861 WT22     1055     MECN     C2       CG1N1    0.360000       12.0110           0
     64862 WT22     1055     MECN     N3       NG1T1   -0.460000       14.0070           0
     64863 WT22     1057     MECN     C1       CG331   -0.170000       12.0110           0
     64864 WT22     1057     MECN     H11      HGA3     0.090000        1.0080           0
     64865 WT22     1057     MECN     H12      HGA3     0.090000        1.0080           0
     64866 WT22     1057     MECN     H13      HGA3     0.090000        1.0080           0
     64867 WT22     1057     MECN     C2       CG1N1    0.360000       12.0110           0
     64868 WT22     1057     MECN     N3       NG1T1   -0.460000       14.0070           0
     64869 WT22     1058     MECN     C1       CG331   -0.170000       12.0110           0
     64870 WT22     1058     MECN     H11      HGA3     0.090000        1.0080           0
     64871 WT22     1058     MECN     H12      HGA3     0.090000        1.0080           0
     64872 WT22     1058     MECN     H13      HGA3     0.090000        1.0080           0
     64873 WT22     1058     MECN     C2       CG1N1    0.360000       12.0110           0
     64874 WT22     1058     MECN     N3       NG1T1   -0.460000       14.0070           0
     64875 WT22     1059     MECN     C1       CG331   -0.170000       12.0110           0
     64876 WT22     1059     MECN     H11      HGA3     0.090000        1.0080           0
     64877 WT22     1059     MECN     H12      HGA3     0.090000        1.0080           0
     64878 WT22     1059     MECN     H13      HGA3     0.090000        1.0080           0
     64879 WT22     1059     MECN     C2       CG1N1    0.360000       12.0110           0
     64880 WT22     1059     MECN     N3       NG1T1   -0.460000       14.0070           0
     64881 WT22     1061     MECN     C1       CG331   -0.170000       12.0110           0
     64882 WT22     1061     MECN     H11      HGA3     0.090000        1.0080           0
     64883 WT22     1061     MECN     H12      HGA3     0.090000        1.0080           0
     64884 WT22     1061     MECN     H13      HGA3     0.090000        1.0080           0
     64885 WT22     1061     MECN     C2       CG1N1    0.360000       12.0110           0
     64886 WT22     1061     MECN     N3       NG1T1   -0.460000       14.0070           0
     64887 WT22     1062     MECN     C1       CG331   -0.170000       12.0110           0
     64888 WT22     1062     MECN     H11      HGA3     0.090000        1.0080           0
     64889 WT22     1062     MECN     H12      HGA3     0.090000        1.0080           0
     64890 WT22     1062     MECN     H13      HGA3     0.090000        1.0080           0
     64891 WT22     1062     MECN     C2       CG1N1    0.360000       12.0110           0
     64892 WT22     1062     MECN     N3       NG1T1   -0.460000       14.0070           0
     64893 WT22     1063     MECN     C1       CG331   -0.170000       12.0110           0
     64894 WT22     1063     MECN     H11      HGA3     0.090000        1.0080           0
     64895 WT22     1063     MECN     H12      HGA3     0.090000        1.0080           0
     64896 WT22     1063     MECN     H13      HGA3     0.090000        1.0080           0
     64897 WT22     1063     MECN     C2       CG1N1    0.360000       12.0110           0
     64898 WT22     1063     MECN     N3       NG1T1   -0.460000       14.0070           0
     64899 WT22     1071     MECN     C1       CG331   -0.170000       12.0110           0
     64900 WT22     1071     MECN     H11      HGA3     0.090000        1.0080           0
     64901 WT22     1071     MECN     H12      HGA3     0.090000        1.0080           0
     64902 WT22     1071     MECN     H13      HGA3     0.090000        1.0080           0
     64903 WT22     1071     MECN     C2       CG1N1    0.360000       12.0110           0
     64904 WT22     1071     MECN     N3       NG1T1   -0.460000       14.0070           0
     64905 WT22     1072     MECN     C1       CG331   -0.170000       12.0110           0
     64906 WT22     1072     MECN     H11      HGA3     0.090000        1.0080           0
     64907 WT22     1072     MECN     H12      HGA3     0.090000        1.0080           0
     64908 WT22     1072     MECN     H13      HGA3     0.090000        1.0080           0
     64909 WT22     1072     MECN     C2       CG1N1    0.360000       12.0110           0
     64910 WT22     1072     MECN     N3       NG1T1   -0.460000       14.0070           0
     64911 WT22     1075     MECN     C1       CG331   -0.170000       12.0110           0
     64912 WT22     1075     MECN     H11      HGA3     0.090000        1.0080           0
     64913 WT22     1075     MECN     H12      HGA3     0.090000        1.0080           0
     64914 WT22     1075     MECN     H13      HGA3     0.090000        1.0080           0
     64915 WT22     1075     MECN     C2       CG1N1    0.360000       12.0110           0
     64916 WT22     1075     MECN     N3       NG1T1   -0.460000       14.0070           0
     64917 WT22     1076     MECN     C1       CG331   -0.170000       12.0110           0
     64918 WT22     1076     MECN     H11      HGA3     0.090000        1.0080           0
     64919 WT22     1076     MECN     H12      HGA3     0.090000        1.0080           0
     64920 WT22     1076     MECN     H13      HGA3     0.090000        1.0080           0
     64921 WT22     1076     MECN     C2       CG1N1    0.360000       12.0110           0
     64922 WT22     1076     MECN     N3       NG1T1   -0.460000       14.0070           0
     64923 WT22     1089     MECN     C1       CG331   -0.170000       12.0110           0
     64924 WT22     1089     MECN     H11      HGA3     0.090000        1.0080           0
     64925 WT22     1089     MECN     H12      HGA3     0.090000        1.0080           0
     64926 WT22     1089     MECN     H13      HGA3     0.090000        1.0080           0
     64927 WT22     1089     MECN     C2       CG1N1    0.360000       12.0110           0
     64928 WT22     1089     MECN     N3       NG1T1   -0.460000       14.0070           0
     64929 WT22     1091     MECN     C1       CG331   -0.170000       12.0110           0
     64930 WT22     1091     MECN     H11      HGA3     0.090000        1.0080           0
     64931 WT22     1091     MECN     H12      HGA3     0.090000        1.0080           0
     64932 WT22     1091     MECN     H13      HGA3     0.090000        1.0080           0
     64933 WT22     1091     MECN     C2       CG1N1    0.360000       12.0110           0
     64934 WT22     1091     MECN     N3       NG1T1   -0.460000       14.0070           0
     64935 WT22     1093     MECN     C1       CG331   -0.170000       12.0110           0
     64936 WT22     1093     MECN     H11      HGA3     0.090000        1.0080           0
     64937 WT22     1093     MECN     H12      HGA3     0.090000        1.0080           0
     64938 WT22     1093     MECN     H13      HGA3     0.090000        1.0080           0
     64939 WT22     1093     MECN     C2       CG1N1    0.360000       12.0110           0
     64940 WT22     1093     MECN     N3       NG1T1   -0.460000       14.0070           0
     64941 WT22     1099     MECN     C1       CG331   -0.170000       12.0110           0
     64942 WT22     1099     MECN     H11      HGA3     0.090000        1.0080           0
     64943 WT22     1099     MECN     H12      HGA3     0.090000        1.0080           0
     64944 WT22     1099     MECN     H13      HGA3     0.090000        1.0080           0
     64945 WT22     1099     MECN     C2       CG1N1    0.360000       12.0110           0
     64946 WT22     1099     MECN     N3       NG1T1   -0.460000       14.0070           0
     64947 WT22     1102     MECN     C1       CG331   -0.170000       12.0110           0
     64948 WT22     1102     MECN     H11      HGA3     0.090000        1.0080           0
     64949 WT22     1102     MECN     H12      HGA3     0.090000        1.0080           0
     64950 WT22     1102     MECN     H13      HGA3     0.090000        1.0080           0
     64951 WT22     1102     MECN     C2       CG1N1    0.360000       12.0110           0
     64952 WT22     1102     MECN     N3       NG1T1   -0.460000       14.0070           0
     64953 WT22     1106     MECN     C1       CG331   -0.170000       12.0110           0
     64954 WT22     1106     MECN     H11      HGA3     0.090000        1.0080           0
     64955 WT22     1106     MECN     H12      HGA3     0.090000        1.0080           0
     64956 WT22     1106     MECN     H13      HGA3     0.090000        1.0080           0
     64957 WT22     1106     MECN     C2       CG1N1    0.360000       12.0110           0
     64958 WT22     1106     MECN     N3       NG1T1   -0.460000       14.0070           0
     64959 WT22     1109     MECN     C1       CG331   -0.170000       12.0110           0
     64960 WT22     1109     MECN     H11      HGA3     0.090000        1.0080           0
     64961 WT22     1109     MECN     H12      HGA3     0.090000        1.0080           0
     64962 WT22     1109     MECN     H13      HGA3     0.090000        1.0080           0
     64963 WT22     1109     MECN     C2       CG1N1    0.360000       12.0110           0
     64964 WT22     1109     MECN     N3       NG1T1   -0.460000       14.0070           0
     64965 WT22     1113     MECN     C1       CG331   -0.170000       12.0110           0
     64966 WT22     1113     MECN     H11      HGA3     0.090000        1.0080           0
     64967 WT22     1113     MECN     H12      HGA3     0.090000        1.0080           0
     64968 WT22     1113     MECN     H13      HGA3     0.090000        1.0080           0
     64969 WT22     1113     MECN     C2       CG1N1    0.360000       12.0110           0
     64970 WT22     1113     MECN     N3       NG1T1   -0.460000       14.0070           0
     64971 WT22     1120     MECN     C1       CG331   -0.170000       12.0110           0
     64972 WT22     1120     MECN     H11      HGA3     0.090000        1.0080           0
     64973 WT22     1120     MECN     H12      HGA3     0.090000        1.0080           0
     64974 WT22     1120     MECN     H13      HGA3     0.090000        1.0080           0
     64975 WT22     1120     MECN     C2       CG1N1    0.360000       12.0110           0
     64976 WT22     1120     MECN     N3       NG1T1   -0.460000       14.0070           0
     64977 WT22     1121     MECN     C1       CG331   -0.170000       12.0110           0
     64978 WT22     1121     MECN     H11      HGA3     0.090000        1.0080           0
     64979 WT22     1121     MECN     H12      HGA3     0.090000        1.0080           0
     64980 WT22     1121     MECN     H13      HGA3     0.090000        1.0080           0
     64981 WT22     1121     MECN     C2       CG1N1    0.360000       12.0110           0
     64982 WT22     1121     MECN     N3       NG1T1   -0.460000       14.0070           0
     64983 WT22     1122     MECN     C1       CG331   -0.170000       12.0110           0
     64984 WT22     1122     MECN     H11      HGA3     0.090000        1.0080           0
     64985 WT22     1122     MECN     H12      HGA3     0.090000        1.0080           0
     64986 WT22     1122     MECN     H13      HGA3     0.090000        1.0080           0
     64987 WT22     1122     MECN     C2       CG1N1    0.360000       12.0110           0
     64988 WT22     1122     MECN     N3       NG1T1   -0.460000       14.0070           0
     64989 WT22     1124     MECN     C1       CG331   -0.170000       12.0110           0
     64990 WT22     1124     MECN     H11      HGA3     0.090000        1.0080           0
     64991 WT22     1124     MECN     H12      HGA3     0.090000        1.0080           0
     64992 WT22     1124     MECN     H13      HGA3     0.090000        1.0080           0
     64993 WT22     1124     MECN     C2       CG1N1    0.360000       12.0110           0
     64994 WT22     1124     MECN     N3       NG1T1   -0.460000       14.0070           0
     64995 WT22     1126     MECN     C1       CG331   -0.170000       12.0110           0
     64996 WT22     1126     MECN     H11      HGA3     0.090000        1.0080           0
     64997 WT22     1126     MECN     H12      HGA3     0.090000        1.0080           0
     64998 WT22     1126     MECN     H13      HGA3     0.090000        1.0080           0
     64999 WT22     1126     MECN     C2       CG1N1    0.360000       12.0110           0
     65000 WT22     1126     MECN     N3       NG1T1   -0.460000       14.0070           0
     65001 WT22     1130     MECN     C1       CG331   -0.170000       12.0110           0
     65002 WT22     1130     MECN     H11      HGA3     0.090000        1.0080           0
     65003 WT22     1130     MECN     H12      HGA3     0.090000        1.0080           0
     65004 WT22     1130     MECN     H13      HGA3     0.090000        1.0080           0
     65005 WT22     1130     MECN     C2       CG1N1    0.360000       12.0110           0
     65006 WT22     1130     MECN     N3       NG1T1   -0.460000       14.0070           0
     65007 WT22     1131     MECN     C1       CG331   -0.170000       12.0110           0
     65008 WT22     1131     MECN     H11      HGA3     0.090000        1.0080           0
     65009 WT22     1131     MECN     H12      HGA3     0.090000        1.0080           0
     65010 WT22     1131     MECN     H13      HGA3     0.090000        1.0080           0
     65011 WT22     1131     MECN     C2       CG1N1    0.360000       12.0110           0
     65012 WT22     1131     MECN     N3       NG1T1   -0.460000       14.0070           0
     65013 WT22     1132     MECN     C1       CG331   -0.170000       12.0110           0
     65014 WT22     1132     MECN     H11      HGA3     0.090000        1.0080           0
     65015 WT22     1132     MECN     H12      HGA3     0.090000        1.0080           0
     65016 WT22     1132     MECN     H13      HGA3     0.090000        1.0080           0
     65017 WT22     1132     MECN     C2       CG1N1    0.360000       12.0110           0
     65018 WT22     1132     MECN     N3       NG1T1   -0.460000       14.0070           0
     65019 WT22     1134     MECN     C1       CG331   -0.170000       12.0110           0
     65020 WT22     1134     MECN     H11      HGA3     0.090000        1.0080           0
     65021 WT22     1134     MECN     H12      HGA3     0.090000        1.0080           0
     65022 WT22     1134     MECN     H13      HGA3     0.090000        1.0080           0
     65023 WT22     1134     MECN     C2       CG1N1    0.360000       12.0110           0
     65024 WT22     1134     MECN     N3       NG1T1   -0.460000       14.0070           0
     65025 WT22     1137     MECN     C1       CG331   -0.170000       12.0110           0
     65026 WT22     1137     MECN     H11      HGA3     0.090000        1.0080           0
     65027 WT22     1137     MECN     H12      HGA3     0.090000        1.0080           0
     65028 WT22     1137     MECN     H13      HGA3     0.090000        1.0080           0
     65029 WT22     1137     MECN     C2       CG1N1    0.360000       12.0110           0
     65030 WT22     1137     MECN     N3       NG1T1   -0.460000       14.0070           0
     65031 WT22     1146     MECN     C1       CG331   -0.170000       12.0110           0
     65032 WT22     1146     MECN     H11      HGA3     0.090000        1.0080           0
     65033 WT22     1146     MECN     H12      HGA3     0.090000        1.0080           0
     65034 WT22     1146     MECN     H13      HGA3     0.090000        1.0080           0
     65035 WT22     1146     MECN     C2       CG1N1    0.360000       12.0110           0
     65036 WT22     1146     MECN     N3       NG1T1   -0.460000       14.0070           0
     65037 WT22     1148     MECN     C1       CG331   -0.170000       12.0110           0
     65038 WT22     1148     MECN     H11      HGA3     0.090000        1.0080           0
     65039 WT22     1148     MECN     H12      HGA3     0.090000        1.0080           0
     65040 WT22     1148     MECN     H13      HGA3     0.090000        1.0080           0
     65041 WT22     1148     MECN     C2       CG1N1    0.360000       12.0110           0
     65042 WT22     1148     MECN     N3       NG1T1   -0.460000       14.0070           0
     65043 WT22     1155     MECN     C1       CG331   -0.170000       12.0110           0
     65044 WT22     1155     MECN     H11      HGA3     0.090000        1.0080           0
     65045 WT22     1155     MECN     H12      HGA3     0.090000        1.0080           0
     65046 WT22     1155     MECN     H13      HGA3     0.090000        1.0080           0
     65047 WT22     1155     MECN     C2       CG1N1    0.360000       12.0110           0
     65048 WT22     1155     MECN     N3       NG1T1   -0.460000       14.0070           0
     65049 WT22     1158     MECN     C1       CG331   -0.170000       12.0110           0
     65050 WT22     1158     MECN     H11      HGA3     0.090000        1.0080           0
     65051 WT22     1158     MECN     H12      HGA3     0.090000        1.0080           0
     65052 WT22     1158     MECN     H13      HGA3     0.090000        1.0080           0
     65053 WT22     1158     MECN     C2       CG1N1    0.360000       12.0110           0
     65054 WT22     1158     MECN     N3       NG1T1   -0.460000       14.0070           0
     65055 WT22     1161     MECN     C1       CG331   -0.170000       12.0110           0
     65056 WT22     1161     MECN     H11      HGA3     0.090000        1.0080           0
     65057 WT22     1161     MECN     H12      HGA3     0.090000        1.0080           0
     65058 WT22     1161     MECN     H13      HGA3     0.090000        1.0080           0
     65059 WT22     1161     MECN     C2       CG1N1    0.360000       12.0110           0
     65060 WT22     1161     MECN     N3       NG1T1   -0.460000       14.0070           0
     65061 WT22     1166     MECN     C1       CG331   -0.170000       12.0110           0
     65062 WT22     1166     MECN     H11      HGA3     0.090000        1.0080           0
     65063 WT22     1166     MECN     H12      HGA3     0.090000        1.0080           0
     65064 WT22     1166     MECN     H13      HGA3     0.090000        1.0080           0
     65065 WT22     1166     MECN     C2       CG1N1    0.360000       12.0110           0
     65066 WT22     1166     MECN     N3       NG1T1   -0.460000       14.0070           0
     65067 WT22     1168     MECN     C1       CG331   -0.170000       12.0110           0
     65068 WT22     1168     MECN     H11      HGA3     0.090000        1.0080           0
     65069 WT22     1168     MECN     H12      HGA3     0.090000        1.0080           0
     65070 WT22     1168     MECN     H13      HGA3     0.090000        1.0080           0
     65071 WT22     1168     MECN     C2       CG1N1    0.360000       12.0110           0
     65072 WT22     1168     MECN     N3       NG1T1   -0.460000       14.0070           0
     65073 WT22     1171     MECN     C1       CG331   -0.170000       12.0110           0
     65074 WT22     1171     MECN     H11      HGA3     0.090000        1.0080           0
     65075 WT22     1171     MECN     H12      HGA3     0.090000        1.0080           0
     65076 WT22     1171     MECN     H13      HGA3     0.090000        1.0080           0
     65077 WT22     1171     MECN     C2       CG1N1    0.360000       12.0110           0
     65078 WT22     1171     MECN     N3       NG1T1   -0.460000       14.0070           0
     65079 WT22     1174     MECN     C1       CG331   -0.170000       12.0110           0
     65080 WT22     1174     MECN     H11      HGA3     0.090000        1.0080           0
     65081 WT22     1174     MECN     H12      HGA3     0.090000        1.0080           0
     65082 WT22     1174     MECN     H13      HGA3     0.090000        1.0080           0
     65083 WT22     1174     MECN     C2       CG1N1    0.360000       12.0110           0
     65084 WT22     1174     MECN     N3       NG1T1   -0.460000       14.0070           0
     65085 WT22     1181     MECN     C1       CG331   -0.170000       12.0110           0
     65086 WT22     1181     MECN     H11      HGA3     0.090000        1.0080           0
     65087 WT22     1181     MECN     H12      HGA3     0.090000        1.0080           0
     65088 WT22     1181     MECN     H13      HGA3     0.090000        1.0080           0
     65089 WT22     1181     MECN     C2       CG1N1    0.360000       12.0110           0
     65090 WT22     1181     MECN     N3       NG1T1   -0.460000       14.0070           0
     65091 WT22     1184     MECN     C1       CG331   -0.170000       12.0110           0
     65092 WT22     1184     MECN     H11      HGA3     0.090000        1.0080           0
     65093 WT22     1184     MECN     H12      HGA3     0.090000        1.0080           0
     65094 WT22     1184     MECN     H13      HGA3     0.090000        1.0080           0
     65095 WT22     1184     MECN     C2       CG1N1    0.360000       12.0110           0
     65096 WT22     1184     MECN     N3       NG1T1   -0.460000       14.0070           0
     65097 WT22     1188     MECN     C1       CG331   -0.170000       12.0110           0
     65098 WT22     1188     MECN     H11      HGA3     0.090000        1.0080           0
     65099 WT22     1188     MECN     H12      HGA3     0.090000        1.0080           0
     65100 WT22     1188     MECN     H13      HGA3     0.090000        1.0080           0
     65101 WT22     1188     MECN     C2       CG1N1    0.360000       12.0110           0
     65102 WT22     1188     MECN     N3       NG1T1   -0.460000       14.0070           0
     65103 WT22     1191     MECN     C1       CG331   -0.170000       12.0110           0
     65104 WT22     1191     MECN     H11      HGA3     0.090000        1.0080           0
     65105 WT22     1191     MECN     H12      HGA3     0.090000        1.0080           0
     65106 WT22     1191     MECN     H13      HGA3     0.090000        1.0080           0
     65107 WT22     1191     MECN     C2       CG1N1    0.360000       12.0110           0
     65108 WT22     1191     MECN     N3       NG1T1   -0.460000       14.0070           0
     65109 WT22     1193     MECN     C1       CG331   -0.170000       12.0110           0
     65110 WT22     1193     MECN     H11      HGA3     0.090000        1.0080           0
     65111 WT22     1193     MECN     H12      HGA3     0.090000        1.0080           0
     65112 WT22     1193     MECN     H13      HGA3     0.090000        1.0080           0
     65113 WT22     1193     MECN     C2       CG1N1    0.360000       12.0110           0
     65114 WT22     1193     MECN     N3       NG1T1   -0.460000       14.0070           0
     65115 WT22     1197     MECN     C1       CG331   -0.170000       12.0110           0
     65116 WT22     1197     MECN     H11      HGA3     0.090000        1.0080           0
     65117 WT22     1197     MECN     H12      HGA3     0.090000        1.0080           0
     65118 WT22     1197     MECN     H13      HGA3     0.090000        1.0080           0
     65119 WT22     1197     MECN     C2       CG1N1    0.360000       12.0110           0
     65120 WT22     1197     MECN     N3       NG1T1   -0.460000       14.0070           0
     65121 WT22     1199     MECN     C1       CG331   -0.170000       12.0110           0
     65122 WT22     1199     MECN     H11      HGA3     0.090000        1.0080           0
     65123 WT22     1199     MECN     H12      HGA3     0.090000        1.0080           0
     65124 WT22     1199     MECN     H13      HGA3     0.090000        1.0080           0
     65125 WT22     1199     MECN     C2       CG1N1    0.360000       12.0110           0
     65126 WT22     1199     MECN     N3       NG1T1   -0.460000       14.0070           0
     65127 WT22     1200     MECN     C1       CG331   -0.170000       12.0110           0
     65128 WT22     1200     MECN     H11      HGA3     0.090000        1.0080           0
     65129 WT22     1200     MECN     H12      HGA3     0.090000        1.0080           0
     65130 WT22     1200     MECN     H13      HGA3     0.090000        1.0080           0
     65131 WT22     1200     MECN     C2       CG1N1    0.360000       12.0110           0
     65132 WT22     1200     MECN     N3       NG1T1   -0.460000       14.0070           0
     65133 WT22     1205     MECN     C1       CG331   -0.170000       12.0110           0
     65134 WT22     1205     MECN     H11      HGA3     0.090000        1.0080           0
     65135 WT22     1205     MECN     H12      HGA3     0.090000        1.0080           0
     65136 WT22     1205     MECN     H13      HGA3     0.090000        1.0080           0
     65137 WT22     1205     MECN     C2       CG1N1    0.360000       12.0110           0
     65138 WT22     1205     MECN     N3       NG1T1   -0.460000       14.0070           0
     65139 WT22     1207     MECN     C1       CG331   -0.170000       12.0110           0
     65140 WT22     1207     MECN     H11      HGA3     0.090000        1.0080           0
     65141 WT22     1207     MECN     H12      HGA3     0.090000        1.0080           0
     65142 WT22     1207     MECN     H13      HGA3     0.090000        1.0080           0
     65143 WT22     1207     MECN     C2       CG1N1    0.360000       12.0110           0
     65144 WT22     1207     MECN     N3       NG1T1   -0.460000       14.0070           0
     65145 WT22     1210     MECN     C1       CG331   -0.170000       12.0110           0
     65146 WT22     1210     MECN     H11      HGA3     0.090000        1.0080           0
     65147 WT22     1210     MECN     H12      HGA3     0.090000        1.0080           0
     65148 WT22     1210     MECN     H13      HGA3     0.090000        1.0080           0
     65149 WT22     1210     MECN     C2       CG1N1    0.360000       12.0110           0
     65150 WT22     1210     MECN     N3       NG1T1   -0.460000       14.0070           0
     65151 WT22     1211     MECN     C1       CG331   -0.170000       12.0110           0
     65152 WT22     1211     MECN     H11      HGA3     0.090000        1.0080           0
     65153 WT22     1211     MECN     H12      HGA3     0.090000        1.0080           0
     65154 WT22     1211     MECN     H13      HGA3     0.090000        1.0080           0
     65155 WT22     1211     MECN     C2       CG1N1    0.360000       12.0110           0
     65156 WT22     1211     MECN     N3       NG1T1   -0.460000       14.0070           0
     65157 WT22     1220     MECN     C1       CG331   -0.170000       12.0110           0
     65158 WT22     1220     MECN     H11      HGA3     0.090000        1.0080           0
     65159 WT22     1220     MECN     H12      HGA3     0.090000        1.0080           0
     65160 WT22     1220     MECN     H13      HGA3     0.090000        1.0080           0
     65161 WT22     1220     MECN     C2       CG1N1    0.360000       12.0110           0
     65162 WT22     1220     MECN     N3       NG1T1   -0.460000       14.0070           0
     65163 WT22     1222     MECN     C1       CG331   -0.170000       12.0110           0
     65164 WT22     1222     MECN     H11      HGA3     0.090000        1.0080           0
     65165 WT22     1222     MECN     H12      HGA3     0.090000        1.0080           0
     65166 WT22     1222     MECN     H13      HGA3     0.090000        1.0080           0
     65167 WT22     1222     MECN     C2       CG1N1    0.360000       12.0110           0
     65168 WT22     1222     MECN     N3       NG1T1   -0.460000       14.0070           0
     65169 WT22     1223     MECN     C1       CG331   -0.170000       12.0110           0
     65170 WT22     1223     MECN     H11      HGA3     0.090000        1.0080           0
     65171 WT22     1223     MECN     H12      HGA3     0.090000        1.0080           0
     65172 WT22     1223     MECN     H13      HGA3     0.090000        1.0080           0
     65173 WT22     1223     MECN     C2       CG1N1    0.360000       12.0110           0
     65174 WT22     1223     MECN     N3       NG1T1   -0.460000       14.0070           0
     65175 WT22     1229     MECN     C1       CG331   -0.170000       12.0110           0
     65176 WT22     1229     MECN     H11      HGA3     0.090000        1.0080           0
     65177 WT22     1229     MECN     H12      HGA3     0.090000        1.0080           0
     65178 WT22     1229     MECN     H13      HGA3     0.090000        1.0080           0
     65179 WT22     1229     MECN     C2       CG1N1    0.360000       12.0110           0
     65180 WT22     1229     MECN     N3       NG1T1   -0.460000       14.0070           0
     65181 WT22     1230     MECN     C1       CG331   -0.170000       12.0110           0
     65182 WT22     1230     MECN     H11      HGA3     0.090000        1.0080           0
     65183 WT22     1230     MECN     H12      HGA3     0.090000        1.0080           0
     65184 WT22     1230     MECN     H13      HGA3     0.090000        1.0080           0
     65185 WT22     1230     MECN     C2       CG1N1    0.360000       12.0110           0
     65186 WT22     1230     MECN     N3       NG1T1   -0.460000       14.0070           0
     65187 WT22     1236     MECN     C1       CG331   -0.170000       12.0110           0
     65188 WT22     1236     MECN     H11      HGA3     0.090000        1.0080           0
     65189 WT22     1236     MECN     H12      HGA3     0.090000        1.0080           0
     65190 WT22     1236     MECN     H13      HGA3     0.090000        1.0080           0
     65191 WT22     1236     MECN     C2       CG1N1    0.360000       12.0110           0
     65192 WT22     1236     MECN     N3       NG1T1   -0.460000       14.0070           0
     65193 WT22     1239     MECN     C1       CG331   -0.170000       12.0110           0
     65194 WT22     1239     MECN     H11      HGA3     0.090000        1.0080           0
     65195 WT22     1239     MECN     H12      HGA3     0.090000        1.0080           0
     65196 WT22     1239     MECN     H13      HGA3     0.090000        1.0080           0
     65197 WT22     1239     MECN     C2       CG1N1    0.360000       12.0110           0
     65198 WT22     1239     MECN     N3       NG1T1   -0.460000       14.0070           0
     65199 WT22     1249     MECN     C1       CG331   -0.170000       12.0110           0
     65200 WT22     1249     MECN     H11      HGA3     0.090000        1.0080           0
     65201 WT22     1249     MECN     H12      HGA3     0.090000        1.0080           0
     65202 WT22     1249     MECN     H13      HGA3     0.090000        1.0080           0
     65203 WT22     1249     MECN     C2       CG1N1    0.360000       12.0110           0
     65204 WT22     1249     MECN     N3       NG1T1   -0.460000       14.0070           0
     65205 WT22     1252     MECN     C1       CG331   -0.170000       12.0110           0
     65206 WT22     1252     MECN     H11      HGA3     0.090000        1.0080           0
     65207 WT22     1252     MECN     H12      HGA3     0.090000        1.0080           0
     65208 WT22     1252     MECN     H13      HGA3     0.090000        1.0080           0
     65209 WT22     1252     MECN     C2       CG1N1    0.360000       12.0110           0
     65210 WT22     1252     MECN     N3       NG1T1   -0.460000       14.0070           0
     65211 WT22     1253     MECN     C1       CG331   -0.170000       12.0110           0
     65212 WT22     1253     MECN     H11      HGA3     0.090000        1.0080           0
     65213 WT22     1253     MECN     H12      HGA3     0.090000        1.0080           0
     65214 WT22     1253     MECN     H13      HGA3     0.090000        1.0080           0
     65215 WT22     1253     MECN     C2       CG1N1    0.360000       12.0110           0
     65216 WT22     1253     MECN     N3       NG1T1   -0.460000       14.0070           0
     65217 WT22     1256     MECN     C1       CG331   -0.170000       12.0110           0
     65218 WT22     1256     MECN     H11      HGA3     0.090000        1.0080           0
     65219 WT22     1256     MECN     H12      HGA3     0.090000        1.0080           0
     65220 WT22     1256     MECN     H13      HGA3     0.090000        1.0080           0
     65221 WT22     1256     MECN     C2       CG1N1    0.360000       12.0110           0
     65222 WT22     1256     MECN     N3       NG1T1   -0.460000       14.0070           0
     65223 WT22     1257     MECN     C1       CG331   -0.170000       12.0110           0
     65224 WT22     1257     MECN     H11      HGA3     0.090000        1.0080           0
     65225 WT22     1257     MECN     H12      HGA3     0.090000        1.0080           0
     65226 WT22     1257     MECN     H13      HGA3     0.090000        1.0080           0
     65227 WT22     1257     MECN     C2       CG1N1    0.360000       12.0110           0
     65228 WT22     1257     MECN     N3       NG1T1   -0.460000       14.0070           0
     65229 WT22     1261     MECN     C1       CG331   -0.170000       12.0110           0
     65230 WT22     1261     MECN     H11      HGA3     0.090000        1.0080           0
     65231 WT22     1261     MECN     H12      HGA3     0.090000        1.0080           0
     65232 WT22     1261     MECN     H13      HGA3     0.090000        1.0080           0
     65233 WT22     1261     MECN     C2       CG1N1    0.360000       12.0110           0
     65234 WT22     1261     MECN     N3       NG1T1   -0.460000       14.0070           0
     65235 WT22     1263     MECN     C1       CG331   -0.170000       12.0110           0
     65236 WT22     1263     MECN     H11      HGA3     0.090000        1.0080           0
     65237 WT22     1263     MECN     H12      HGA3     0.090000        1.0080           0
     65238 WT22     1263     MECN     H13      HGA3     0.090000        1.0080           0
     65239 WT22     1263     MECN     C2       CG1N1    0.360000       12.0110           0
     65240 WT22     1263     MECN     N3       NG1T1   -0.460000       14.0070           0
     65241 WT22     1264     MECN     C1       CG331   -0.170000       12.0110           0
     65242 WT22     1264     MECN     H11      HGA3     0.090000        1.0080           0
     65243 WT22     1264     MECN     H12      HGA3     0.090000        1.0080           0
     65244 WT22     1264     MECN     H13      HGA3     0.090000        1.0080           0
     65245 WT22     1264     MECN     C2       CG1N1    0.360000       12.0110           0
     65246 WT22     1264     MECN     N3       NG1T1   -0.460000       14.0070           0
     65247 WT22     1265     MECN     C1       CG331   -0.170000       12.0110           0
     65248 WT22     1265     MECN     H11      HGA3     0.090000        1.0080           0
     65249 WT22     1265     MECN     H12      HGA3     0.090000        1.0080           0
     65250 WT22     1265     MECN     H13      HGA3     0.090000        1.0080           0
     65251 WT22     1265     MECN     C2       CG1N1    0.360000       12.0110           0
     65252 WT22     1265     MECN     N3       NG1T1   -0.460000       14.0070           0
     65253 WT22     1269     MECN     C1       CG331   -0.170000       12.0110           0
     65254 WT22     1269     MECN     H11      HGA3     0.090000        1.0080           0
     65255 WT22     1269     MECN     H12      HGA3     0.090000        1.0080           0
     65256 WT22     1269     MECN     H13      HGA3     0.090000        1.0080           0
     65257 WT22     1269     MECN     C2       CG1N1    0.360000       12.0110           0
     65258 WT22     1269     MECN     N3       NG1T1   -0.460000       14.0070           0
     65259 WT22     1270     MECN     C1       CG331   -0.170000       12.0110           0
     65260 WT22     1270     MECN     H11      HGA3     0.090000        1.0080           0
     65261 WT22     1270     MECN     H12      HGA3     0.090000        1.0080           0
     65262 WT22     1270     MECN     H13      HGA3     0.090000        1.0080           0
     65263 WT22     1270     MECN     C2       CG1N1    0.360000       12.0110           0
     65264 WT22     1270     MECN     N3       NG1T1   -0.460000       14.0070           0
     65265 WT22     1271     MECN     C1       CG331   -0.170000       12.0110           0
     65266 WT22     1271     MECN     H11      HGA3     0.090000        1.0080           0
     65267 WT22     1271     MECN     H12      HGA3     0.090000        1.0080           0
     65268 WT22     1271     MECN     H13      HGA3     0.090000        1.0080           0
     65269 WT22     1271     MECN     C2       CG1N1    0.360000       12.0110           0
     65270 WT22     1271     MECN     N3       NG1T1   -0.460000       14.0070           0
     65271 WT22     1273     MECN     C1       CG331   -0.170000       12.0110           0
     65272 WT22     1273     MECN     H11      HGA3     0.090000        1.0080           0
     65273 WT22     1273     MECN     H12      HGA3     0.090000        1.0080           0
     65274 WT22     1273     MECN     H13      HGA3     0.090000        1.0080           0
     65275 WT22     1273     MECN     C2       CG1N1    0.360000       12.0110           0
     65276 WT22     1273     MECN     N3       NG1T1   -0.460000       14.0070           0
     65277 WT22     1274     MECN     C1       CG331   -0.170000       12.0110           0
     65278 WT22     1274     MECN     H11      HGA3     0.090000        1.0080           0
     65279 WT22     1274     MECN     H12      HGA3     0.090000        1.0080           0
     65280 WT22     1274     MECN     H13      HGA3     0.090000        1.0080           0
     65281 WT22     1274     MECN     C2       CG1N1    0.360000       12.0110           0
     65282 WT22     1274     MECN     N3       NG1T1   -0.460000       14.0070           0
     65283 WT22     1276     MECN     C1       CG331   -0.170000       12.0110           0
     65284 WT22     1276     MECN     H11      HGA3     0.090000        1.0080           0
     65285 WT22     1276     MECN     H12      HGA3     0.090000        1.0080           0
     65286 WT22     1276     MECN     H13      HGA3     0.090000        1.0080           0
     65287 WT22     1276     MECN     C2       CG1N1    0.360000       12.0110           0
     65288 WT22     1276     MECN     N3       NG1T1   -0.460000       14.0070           0
     65289 WT22     1287     MECN     C1       CG331   -0.170000       12.0110           0
     65290 WT22     1287     MECN     H11      HGA3     0.090000        1.0080           0
     65291 WT22     1287     MECN     H12      HGA3     0.090000        1.0080           0
     65292 WT22     1287     MECN     H13      HGA3     0.090000        1.0080           0
     65293 WT22     1287     MECN     C2       CG1N1    0.360000       12.0110           0
     65294 WT22     1287     MECN     N3       NG1T1   -0.460000       14.0070           0
     65295 WT22     1288     MECN     C1       CG331   -0.170000       12.0110           0
     65296 WT22     1288     MECN     H11      HGA3     0.090000        1.0080           0
     65297 WT22     1288     MECN     H12      HGA3     0.090000        1.0080           0
     65298 WT22     1288     MECN     H13      HGA3     0.090000        1.0080           0
     65299 WT22     1288     MECN     C2       CG1N1    0.360000       12.0110           0
     65300 WT22     1288     MECN     N3       NG1T1   -0.460000       14.0070           0
     65301 WT22     1289     MECN     C1       CG331   -0.170000       12.0110           0
     65302 WT22     1289     MECN     H11      HGA3     0.090000        1.0080           0
     65303 WT22     1289     MECN     H12      HGA3     0.090000        1.0080           0
     65304 WT22     1289     MECN     H13      HGA3     0.090000        1.0080           0
     65305 WT22     1289     MECN     C2       CG1N1    0.360000       12.0110           0
     65306 WT22     1289     MECN     N3       NG1T1   -0.460000       14.0070           0
     65307 WT22     1291     MECN     C1       CG331   -0.170000       12.0110           0
     65308 WT22     1291     MECN     H11      HGA3     0.090000        1.0080           0
     65309 WT22     1291     MECN     H12      HGA3     0.090000        1.0080           0
     65310 WT22     1291     MECN     H13      HGA3     0.090000        1.0080           0
     65311 WT22     1291     MECN     C2       CG1N1    0.360000       12.0110           0
     65312 WT22     1291     MECN     N3       NG1T1   -0.460000       14.0070           0
     65313 WT22     1292     MECN     C1       CG331   -0.170000       12.0110           0
     65314 WT22     1292     MECN     H11      HGA3     0.090000        1.0080           0
     65315 WT22     1292     MECN     H12      HGA3     0.090000        1.0080           0
     65316 WT22     1292     MECN     H13      HGA3     0.090000        1.0080           0
     65317 WT22     1292     MECN     C2       CG1N1    0.360000       12.0110           0
     65318 WT22     1292     MECN     N3       NG1T1   -0.460000       14.0070           0
     65319 WT22     1293     MECN     C1       CG331   -0.170000       12.0110           0
     65320 WT22     1293     MECN     H11      HGA3     0.090000        1.0080           0
     65321 WT22     1293     MECN     H12      HGA3     0.090000        1.0080           0
     65322 WT22     1293     MECN     H13      HGA3     0.090000        1.0080           0
     65323 WT22     1293     MECN     C2       CG1N1    0.360000       12.0110           0
     65324 WT22     1293     MECN     N3       NG1T1   -0.460000       14.0070           0
     65325 WT22     1295     MECN     C1       CG331   -0.170000       12.0110           0
     65326 WT22     1295     MECN     H11      HGA3     0.090000        1.0080           0
     65327 WT22     1295     MECN     H12      HGA3     0.090000        1.0080           0
     65328 WT22     1295     MECN     H13      HGA3     0.090000        1.0080           0
     65329 WT22     1295     MECN     C2       CG1N1    0.360000       12.0110           0
     65330 WT22     1295     MECN     N3       NG1T1   -0.460000       14.0070           0
     65331 WT22     1296     MECN     C1       CG331   -0.170000       12.0110           0
     65332 WT22     1296     MECN     H11      HGA3     0.090000        1.0080           0
     65333 WT22     1296     MECN     H12      HGA3     0.090000        1.0080           0
     65334 WT22     1296     MECN     H13      HGA3     0.090000        1.0080           0
     65335 WT22     1296     MECN     C2       CG1N1    0.360000       12.0110           0
     65336 WT22     1296     MECN     N3       NG1T1   -0.460000       14.0070           0
     65337 WT22     1300     MECN     C1       CG331   -0.170000       12.0110           0
     65338 WT22     1300     MECN     H11      HGA3     0.090000        1.0080           0
     65339 WT22     1300     MECN     H12      HGA3     0.090000        1.0080           0
     65340 WT22     1300     MECN     H13      HGA3     0.090000        1.0080           0
     65341 WT22     1300     MECN     C2       CG1N1    0.360000       12.0110           0
     65342 WT22     1300     MECN     N3       NG1T1   -0.460000       14.0070           0
     65343 WT22     1305     MECN     C1       CG331   -0.170000       12.0110           0
     65344 WT22     1305     MECN     H11      HGA3     0.090000        1.0080           0
     65345 WT22     1305     MECN     H12      HGA3     0.090000        1.0080           0
     65346 WT22     1305     MECN     H13      HGA3     0.090000        1.0080           0
     65347 WT22     1305     MECN     C2       CG1N1    0.360000       12.0110           0
     65348 WT22     1305     MECN     N3       NG1T1   -0.460000       14.0070           0
     65349 WT22     1310     MECN     C1       CG331   -0.170000       12.0110           0
     65350 WT22     1310     MECN     H11      HGA3     0.090000        1.0080           0
     65351 WT22     1310     MECN     H12      HGA3     0.090000        1.0080           0
     65352 WT22     1310     MECN     H13      HGA3     0.090000        1.0080           0
     65353 WT22     1310     MECN     C2       CG1N1    0.360000       12.0110           0
     65354 WT22     1310     MECN     N3       NG1T1   -0.460000       14.0070           0
     65355 WT22     1315     MECN     C1       CG331   -0.170000       12.0110           0
     65356 WT22     1315     MECN     H11      HGA3     0.090000        1.0080           0
     65357 WT22     1315     MECN     H12      HGA3     0.090000        1.0080           0
     65358 WT22     1315     MECN     H13      HGA3     0.090000        1.0080           0
     65359 WT22     1315     MECN     C2       CG1N1    0.360000       12.0110           0
     65360 WT22     1315     MECN     N3       NG1T1   -0.460000       14.0070           0
     65361 WT22     1322     MECN     C1       CG331   -0.170000       12.0110           0
     65362 WT22     1322     MECN     H11      HGA3     0.090000        1.0080           0
     65363 WT22     1322     MECN     H12      HGA3     0.090000        1.0080           0
     65364 WT22     1322     MECN     H13      HGA3     0.090000        1.0080           0
     65365 WT22     1322     MECN     C2       CG1N1    0.360000       12.0110           0
     65366 WT22     1322     MECN     N3       NG1T1   -0.460000       14.0070           0
     65367 WT22     1325     MECN     C1       CG331   -0.170000       12.0110           0
     65368 WT22     1325     MECN     H11      HGA3     0.090000        1.0080           0
     65369 WT22     1325     MECN     H12      HGA3     0.090000        1.0080           0
     65370 WT22     1325     MECN     H13      HGA3     0.090000        1.0080           0
     65371 WT22     1325     MECN     C2       CG1N1    0.360000       12.0110           0
     65372 WT22     1325     MECN     N3       NG1T1   -0.460000       14.0070           0
     65373 WT22     1328     MECN     C1       CG331   -0.170000       12.0110           0
     65374 WT22     1328     MECN     H11      HGA3     0.090000        1.0080           0
     65375 WT22     1328     MECN     H12      HGA3     0.090000        1.0080           0
     65376 WT22     1328     MECN     H13      HGA3     0.090000        1.0080           0
     65377 WT22     1328     MECN     C2       CG1N1    0.360000       12.0110           0
     65378 WT22     1328     MECN     N3       NG1T1   -0.460000       14.0070           0
     65379 WT23     1        MECN     C1       CG331   -0.170000       12.0110           0
     65380 WT23     1        MECN     H11      HGA3     0.090000        1.0080           0
     65381 WT23     1        MECN     H12      HGA3     0.090000        1.0080           0
     65382 WT23     1        MECN     H13      HGA3     0.090000        1.0080           0
     65383 WT23     1        MECN     C2       CG1N1    0.360000       12.0110           0
     65384 WT23     1        MECN     N3       NG1T1   -0.460000       14.0070           0
     65385 WT23     2        MECN     C1       CG331   -0.170000       12.0110           0
     65386 WT23     2        MECN     H11      HGA3     0.090000        1.0080           0
     65387 WT23     2        MECN     H12      HGA3     0.090000        1.0080           0
     65388 WT23     2        MECN     H13      HGA3     0.090000        1.0080           0
     65389 WT23     2        MECN     C2       CG1N1    0.360000       12.0110           0
     65390 WT23     2        MECN     N3       NG1T1   -0.460000       14.0070           0
     65391 WT23     5        MECN     C1       CG331   -0.170000       12.0110           0
     65392 WT23     5        MECN     H11      HGA3     0.090000        1.0080           0
     65393 WT23     5        MECN     H12      HGA3     0.090000        1.0080           0
     65394 WT23     5        MECN     H13      HGA3     0.090000        1.0080           0
     65395 WT23     5        MECN     C2       CG1N1    0.360000       12.0110           0
     65396 WT23     5        MECN     N3       NG1T1   -0.460000       14.0070           0
     65397 WT23     7        MECN     C1       CG331   -0.170000       12.0110           0
     65398 WT23     7        MECN     H11      HGA3     0.090000        1.0080           0
     65399 WT23     7        MECN     H12      HGA3     0.090000        1.0080           0
     65400 WT23     7        MECN     H13      HGA3     0.090000        1.0080           0
     65401 WT23     7        MECN     C2       CG1N1    0.360000       12.0110           0
     65402 WT23     7        MECN     N3       NG1T1   -0.460000       14.0070           0
     65403 WT23     10       MECN     C1       CG331   -0.170000       12.0110           0
     65404 WT23     10       MECN     H11      HGA3     0.090000        1.0080           0
     65405 WT23     10       MECN     H12      HGA3     0.090000        1.0080           0
     65406 WT23     10       MECN     H13      HGA3     0.090000        1.0080           0
     65407 WT23     10       MECN     C2       CG1N1    0.360000       12.0110           0
     65408 WT23     10       MECN     N3       NG1T1   -0.460000       14.0070           0
     65409 WT23     11       MECN     C1       CG331   -0.170000       12.0110           0
     65410 WT23     11       MECN     H11      HGA3     0.090000        1.0080           0
     65411 WT23     11       MECN     H12      HGA3     0.090000        1.0080           0
     65412 WT23     11       MECN     H13      HGA3     0.090000        1.0080           0
     65413 WT23     11       MECN     C2       CG1N1    0.360000       12.0110           0
     65414 WT23     11       MECN     N3       NG1T1   -0.460000       14.0070           0
     65415 WT23     13       MECN     C1       CG331   -0.170000       12.0110           0
     65416 WT23     13       MECN     H11      HGA3     0.090000        1.0080           0
     65417 WT23     13       MECN     H12      HGA3     0.090000        1.0080           0
     65418 WT23     13       MECN     H13      HGA3     0.090000        1.0080           0
     65419 WT23     13       MECN     C2       CG1N1    0.360000       12.0110           0
     65420 WT23     13       MECN     N3       NG1T1   -0.460000       14.0070           0
     65421 WT23     15       MECN     C1       CG331   -0.170000       12.0110           0
     65422 WT23     15       MECN     H11      HGA3     0.090000        1.0080           0
     65423 WT23     15       MECN     H12      HGA3     0.090000        1.0080           0
     65424 WT23     15       MECN     H13      HGA3     0.090000        1.0080           0
     65425 WT23     15       MECN     C2       CG1N1    0.360000       12.0110           0
     65426 WT23     15       MECN     N3       NG1T1   -0.460000       14.0070           0
     65427 WT23     18       MECN     C1       CG331   -0.170000       12.0110           0
     65428 WT23     18       MECN     H11      HGA3     0.090000        1.0080           0
     65429 WT23     18       MECN     H12      HGA3     0.090000        1.0080           0
     65430 WT23     18       MECN     H13      HGA3     0.090000        1.0080           0
     65431 WT23     18       MECN     C2       CG1N1    0.360000       12.0110           0
     65432 WT23     18       MECN     N3       NG1T1   -0.460000       14.0070           0
     65433 WT23     19       MECN     C1       CG331   -0.170000       12.0110           0
     65434 WT23     19       MECN     H11      HGA3     0.090000        1.0080           0
     65435 WT23     19       MECN     H12      HGA3     0.090000        1.0080           0
     65436 WT23     19       MECN     H13      HGA3     0.090000        1.0080           0
     65437 WT23     19       MECN     C2       CG1N1    0.360000       12.0110           0
     65438 WT23     19       MECN     N3       NG1T1   -0.460000       14.0070           0
     65439 WT23     20       MECN     C1       CG331   -0.170000       12.0110           0
     65440 WT23     20       MECN     H11      HGA3     0.090000        1.0080           0
     65441 WT23     20       MECN     H12      HGA3     0.090000        1.0080           0
     65442 WT23     20       MECN     H13      HGA3     0.090000        1.0080           0
     65443 WT23     20       MECN     C2       CG1N1    0.360000       12.0110           0
     65444 WT23     20       MECN     N3       NG1T1   -0.460000       14.0070           0
     65445 WT23     21       MECN     C1       CG331   -0.170000       12.0110           0
     65446 WT23     21       MECN     H11      HGA3     0.090000        1.0080           0
     65447 WT23     21       MECN     H12      HGA3     0.090000        1.0080           0
     65448 WT23     21       MECN     H13      HGA3     0.090000        1.0080           0
     65449 WT23     21       MECN     C2       CG1N1    0.360000       12.0110           0
     65450 WT23     21       MECN     N3       NG1T1   -0.460000       14.0070           0
     65451 WT23     23       MECN     C1       CG331   -0.170000       12.0110           0
     65452 WT23     23       MECN     H11      HGA3     0.090000        1.0080           0
     65453 WT23     23       MECN     H12      HGA3     0.090000        1.0080           0
     65454 WT23     23       MECN     H13      HGA3     0.090000        1.0080           0
     65455 WT23     23       MECN     C2       CG1N1    0.360000       12.0110           0
     65456 WT23     23       MECN     N3       NG1T1   -0.460000       14.0070           0
     65457 WT23     24       MECN     C1       CG331   -0.170000       12.0110           0
     65458 WT23     24       MECN     H11      HGA3     0.090000        1.0080           0
     65459 WT23     24       MECN     H12      HGA3     0.090000        1.0080           0
     65460 WT23     24       MECN     H13      HGA3     0.090000        1.0080           0
     65461 WT23     24       MECN     C2       CG1N1    0.360000       12.0110           0
     65462 WT23     24       MECN     N3       NG1T1   -0.460000       14.0070           0
     65463 WT23     27       MECN     C1       CG331   -0.170000       12.0110           0
     65464 WT23     27       MECN     H11      HGA3     0.090000        1.0080           0
     65465 WT23     27       MECN     H12      HGA3     0.090000        1.0080           0
     65466 WT23     27       MECN     H13      HGA3     0.090000        1.0080           0
     65467 WT23     27       MECN     C2       CG1N1    0.360000       12.0110           0
     65468 WT23     27       MECN     N3       NG1T1   -0.460000       14.0070           0
     65469 WT23     28       MECN     C1       CG331   -0.170000       12.0110           0
     65470 WT23     28       MECN     H11      HGA3     0.090000        1.0080           0
     65471 WT23     28       MECN     H12      HGA3     0.090000        1.0080           0
     65472 WT23     28       MECN     H13      HGA3     0.090000        1.0080           0
     65473 WT23     28       MECN     C2       CG1N1    0.360000       12.0110           0
     65474 WT23     28       MECN     N3       NG1T1   -0.460000       14.0070           0
     65475 WT23     29       MECN     C1       CG331   -0.170000       12.0110           0
     65476 WT23     29       MECN     H11      HGA3     0.090000        1.0080           0
     65477 WT23     29       MECN     H12      HGA3     0.090000        1.0080           0
     65478 WT23     29       MECN     H13      HGA3     0.090000        1.0080           0
     65479 WT23     29       MECN     C2       CG1N1    0.360000       12.0110           0
     65480 WT23     29       MECN     N3       NG1T1   -0.460000       14.0070           0
     65481 WT23     30       MECN     C1       CG331   -0.170000       12.0110           0
     65482 WT23     30       MECN     H11      HGA3     0.090000        1.0080           0
     65483 WT23     30       MECN     H12      HGA3     0.090000        1.0080           0
     65484 WT23     30       MECN     H13      HGA3     0.090000        1.0080           0
     65485 WT23     30       MECN     C2       CG1N1    0.360000       12.0110           0
     65486 WT23     30       MECN     N3       NG1T1   -0.460000       14.0070           0
     65487 WT23     32       MECN     C1       CG331   -0.170000       12.0110           0
     65488 WT23     32       MECN     H11      HGA3     0.090000        1.0080           0
     65489 WT23     32       MECN     H12      HGA3     0.090000        1.0080           0
     65490 WT23     32       MECN     H13      HGA3     0.090000        1.0080           0
     65491 WT23     32       MECN     C2       CG1N1    0.360000       12.0110           0
     65492 WT23     32       MECN     N3       NG1T1   -0.460000       14.0070           0
     65493 WT23     35       MECN     C1       CG331   -0.170000       12.0110           0
     65494 WT23     35       MECN     H11      HGA3     0.090000        1.0080           0
     65495 WT23     35       MECN     H12      HGA3     0.090000        1.0080           0
     65496 WT23     35       MECN     H13      HGA3     0.090000        1.0080           0
     65497 WT23     35       MECN     C2       CG1N1    0.360000       12.0110           0
     65498 WT23     35       MECN     N3       NG1T1   -0.460000       14.0070           0
     65499 WT23     36       MECN     C1       CG331   -0.170000       12.0110           0
     65500 WT23     36       MECN     H11      HGA3     0.090000        1.0080           0
     65501 WT23     36       MECN     H12      HGA3     0.090000        1.0080           0
     65502 WT23     36       MECN     H13      HGA3     0.090000        1.0080           0
     65503 WT23     36       MECN     C2       CG1N1    0.360000       12.0110           0
     65504 WT23     36       MECN     N3       NG1T1   -0.460000       14.0070           0
     65505 WT23     37       MECN     C1       CG331   -0.170000       12.0110           0
     65506 WT23     37       MECN     H11      HGA3     0.090000        1.0080           0
     65507 WT23     37       MECN     H12      HGA3     0.090000        1.0080           0
     65508 WT23     37       MECN     H13      HGA3     0.090000        1.0080           0
     65509 WT23     37       MECN     C2       CG1N1    0.360000       12.0110           0
     65510 WT23     37       MECN     N3       NG1T1   -0.460000       14.0070           0
     65511 WT23     40       MECN     C1       CG331   -0.170000       12.0110           0
     65512 WT23     40       MECN     H11      HGA3     0.090000        1.0080           0
     65513 WT23     40       MECN     H12      HGA3     0.090000        1.0080           0
     65514 WT23     40       MECN     H13      HGA3     0.090000        1.0080           0
     65515 WT23     40       MECN     C2       CG1N1    0.360000       12.0110           0
     65516 WT23     40       MECN     N3       NG1T1   -0.460000       14.0070           0
     65517 WT23     43       MECN     C1       CG331   -0.170000       12.0110           0
     65518 WT23     43       MECN     H11      HGA3     0.090000        1.0080           0
     65519 WT23     43       MECN     H12      HGA3     0.090000        1.0080           0
     65520 WT23     43       MECN     H13      HGA3     0.090000        1.0080           0
     65521 WT23     43       MECN     C2       CG1N1    0.360000       12.0110           0
     65522 WT23     43       MECN     N3       NG1T1   -0.460000       14.0070           0
     65523 WT23     44       MECN     C1       CG331   -0.170000       12.0110           0
     65524 WT23     44       MECN     H11      HGA3     0.090000        1.0080           0
     65525 WT23     44       MECN     H12      HGA3     0.090000        1.0080           0
     65526 WT23     44       MECN     H13      HGA3     0.090000        1.0080           0
     65527 WT23     44       MECN     C2       CG1N1    0.360000       12.0110           0
     65528 WT23     44       MECN     N3       NG1T1   -0.460000       14.0070           0
     65529 WT23     45       MECN     C1       CG331   -0.170000       12.0110           0
     65530 WT23     45       MECN     H11      HGA3     0.090000        1.0080           0
     65531 WT23     45       MECN     H12      HGA3     0.090000        1.0080           0
     65532 WT23     45       MECN     H13      HGA3     0.090000        1.0080           0
     65533 WT23     45       MECN     C2       CG1N1    0.360000       12.0110           0
     65534 WT23     45       MECN     N3       NG1T1   -0.460000       14.0070           0
     65535 WT23     46       MECN     C1       CG331   -0.170000       12.0110           0
     65536 WT23     46       MECN     H11      HGA3     0.090000        1.0080           0
     65537 WT23     46       MECN     H12      HGA3     0.090000        1.0080           0
     65538 WT23     46       MECN     H13      HGA3     0.090000        1.0080           0
     65539 WT23     46       MECN     C2       CG1N1    0.360000       12.0110           0
     65540 WT23     46       MECN     N3       NG1T1   -0.460000       14.0070           0
     65541 WT23     47       MECN     C1       CG331   -0.170000       12.0110           0
     65542 WT23     47       MECN     H11      HGA3     0.090000        1.0080           0
     65543 WT23     47       MECN     H12      HGA3     0.090000        1.0080           0
     65544 WT23     47       MECN     H13      HGA3     0.090000        1.0080           0
     65545 WT23     47       MECN     C2       CG1N1    0.360000       12.0110           0
     65546 WT23     47       MECN     N3       NG1T1   -0.460000       14.0070           0
     65547 WT23     48       MECN     C1       CG331   -0.170000       12.0110           0
     65548 WT23     48       MECN     H11      HGA3     0.090000        1.0080           0
     65549 WT23     48       MECN     H12      HGA3     0.090000        1.0080           0
     65550 WT23     48       MECN     H13      HGA3     0.090000        1.0080           0
     65551 WT23     48       MECN     C2       CG1N1    0.360000       12.0110           0
     65552 WT23     48       MECN     N3       NG1T1   -0.460000       14.0070           0
     65553 WT23     49       MECN     C1       CG331   -0.170000       12.0110           0
     65554 WT23     49       MECN     H11      HGA3     0.090000        1.0080           0
     65555 WT23     49       MECN     H12      HGA3     0.090000        1.0080           0
     65556 WT23     49       MECN     H13      HGA3     0.090000        1.0080           0
     65557 WT23     49       MECN     C2       CG1N1    0.360000       12.0110           0
     65558 WT23     49       MECN     N3       NG1T1   -0.460000       14.0070           0
     65559 WT23     50       MECN     C1       CG331   -0.170000       12.0110           0
     65560 WT23     50       MECN     H11      HGA3     0.090000        1.0080           0
     65561 WT23     50       MECN     H12      HGA3     0.090000        1.0080           0
     65562 WT23     50       MECN     H13      HGA3     0.090000        1.0080           0
     65563 WT23     50       MECN     C2       CG1N1    0.360000       12.0110           0
     65564 WT23     50       MECN     N3       NG1T1   -0.460000       14.0070           0
     65565 WT23     52       MECN     C1       CG331   -0.170000       12.0110           0
     65566 WT23     52       MECN     H11      HGA3     0.090000        1.0080           0
     65567 WT23     52       MECN     H12      HGA3     0.090000        1.0080           0
     65568 WT23     52       MECN     H13      HGA3     0.090000        1.0080           0
     65569 WT23     52       MECN     C2       CG1N1    0.360000       12.0110           0
     65570 WT23     52       MECN     N3       NG1T1   -0.460000       14.0070           0
     65571 WT23     55       MECN     C1       CG331   -0.170000       12.0110           0
     65572 WT23     55       MECN     H11      HGA3     0.090000        1.0080           0
     65573 WT23     55       MECN     H12      HGA3     0.090000        1.0080           0
     65574 WT23     55       MECN     H13      HGA3     0.090000        1.0080           0
     65575 WT23     55       MECN     C2       CG1N1    0.360000       12.0110           0
     65576 WT23     55       MECN     N3       NG1T1   -0.460000       14.0070           0
     65577 WT23     56       MECN     C1       CG331   -0.170000       12.0110           0
     65578 WT23     56       MECN     H11      HGA3     0.090000        1.0080           0
     65579 WT23     56       MECN     H12      HGA3     0.090000        1.0080           0
     65580 WT23     56       MECN     H13      HGA3     0.090000        1.0080           0
     65581 WT23     56       MECN     C2       CG1N1    0.360000       12.0110           0
     65582 WT23     56       MECN     N3       NG1T1   -0.460000       14.0070           0
     65583 WT23     57       MECN     C1       CG331   -0.170000       12.0110           0
     65584 WT23     57       MECN     H11      HGA3     0.090000        1.0080           0
     65585 WT23     57       MECN     H12      HGA3     0.090000        1.0080           0
     65586 WT23     57       MECN     H13      HGA3     0.090000        1.0080           0
     65587 WT23     57       MECN     C2       CG1N1    0.360000       12.0110           0
     65588 WT23     57       MECN     N3       NG1T1   -0.460000       14.0070           0
     65589 WT23     59       MECN     C1       CG331   -0.170000       12.0110           0
     65590 WT23     59       MECN     H11      HGA3     0.090000        1.0080           0
     65591 WT23     59       MECN     H12      HGA3     0.090000        1.0080           0
     65592 WT23     59       MECN     H13      HGA3     0.090000        1.0080           0
     65593 WT23     59       MECN     C2       CG1N1    0.360000       12.0110           0
     65594 WT23     59       MECN     N3       NG1T1   -0.460000       14.0070           0
     65595 WT23     60       MECN     C1       CG331   -0.170000       12.0110           0
     65596 WT23     60       MECN     H11      HGA3     0.090000        1.0080           0
     65597 WT23     60       MECN     H12      HGA3     0.090000        1.0080           0
     65598 WT23     60       MECN     H13      HGA3     0.090000        1.0080           0
     65599 WT23     60       MECN     C2       CG1N1    0.360000       12.0110           0
     65600 WT23     60       MECN     N3       NG1T1   -0.460000       14.0070           0
     65601 WT23     61       MECN     C1       CG331   -0.170000       12.0110           0
     65602 WT23     61       MECN     H11      HGA3     0.090000        1.0080           0
     65603 WT23     61       MECN     H12      HGA3     0.090000        1.0080           0
     65604 WT23     61       MECN     H13      HGA3     0.090000        1.0080           0
     65605 WT23     61       MECN     C2       CG1N1    0.360000       12.0110           0
     65606 WT23     61       MECN     N3       NG1T1   -0.460000       14.0070           0
     65607 WT23     63       MECN     C1       CG331   -0.170000       12.0110           0
     65608 WT23     63       MECN     H11      HGA3     0.090000        1.0080           0
     65609 WT23     63       MECN     H12      HGA3     0.090000        1.0080           0
     65610 WT23     63       MECN     H13      HGA3     0.090000        1.0080           0
     65611 WT23     63       MECN     C2       CG1N1    0.360000       12.0110           0
     65612 WT23     63       MECN     N3       NG1T1   -0.460000       14.0070           0
     65613 WT23     64       MECN     C1       CG331   -0.170000       12.0110           0
     65614 WT23     64       MECN     H11      HGA3     0.090000        1.0080           0
     65615 WT23     64       MECN     H12      HGA3     0.090000        1.0080           0
     65616 WT23     64       MECN     H13      HGA3     0.090000        1.0080           0
     65617 WT23     64       MECN     C2       CG1N1    0.360000       12.0110           0
     65618 WT23     64       MECN     N3       NG1T1   -0.460000       14.0070           0
     65619 WT23     65       MECN     C1       CG331   -0.170000       12.0110           0
     65620 WT23     65       MECN     H11      HGA3     0.090000        1.0080           0
     65621 WT23     65       MECN     H12      HGA3     0.090000        1.0080           0
     65622 WT23     65       MECN     H13      HGA3     0.090000        1.0080           0
     65623 WT23     65       MECN     C2       CG1N1    0.360000       12.0110           0
     65624 WT23     65       MECN     N3       NG1T1   -0.460000       14.0070           0
     65625 WT23     66       MECN     C1       CG331   -0.170000       12.0110           0
     65626 WT23     66       MECN     H11      HGA3     0.090000        1.0080           0
     65627 WT23     66       MECN     H12      HGA3     0.090000        1.0080           0
     65628 WT23     66       MECN     H13      HGA3     0.090000        1.0080           0
     65629 WT23     66       MECN     C2       CG1N1    0.360000       12.0110           0
     65630 WT23     66       MECN     N3       NG1T1   -0.460000       14.0070           0
     65631 WT23     67       MECN     C1       CG331   -0.170000       12.0110           0
     65632 WT23     67       MECN     H11      HGA3     0.090000        1.0080           0
     65633 WT23     67       MECN     H12      HGA3     0.090000        1.0080           0
     65634 WT23     67       MECN     H13      HGA3     0.090000        1.0080           0
     65635 WT23     67       MECN     C2       CG1N1    0.360000       12.0110           0
     65636 WT23     67       MECN     N3       NG1T1   -0.460000       14.0070           0
     65637 WT23     68       MECN     C1       CG331   -0.170000       12.0110           0
     65638 WT23     68       MECN     H11      HGA3     0.090000        1.0080           0
     65639 WT23     68       MECN     H12      HGA3     0.090000        1.0080           0
     65640 WT23     68       MECN     H13      HGA3     0.090000        1.0080           0
     65641 WT23     68       MECN     C2       CG1N1    0.360000       12.0110           0
     65642 WT23     68       MECN     N3       NG1T1   -0.460000       14.0070           0
     65643 WT23     70       MECN     C1       CG331   -0.170000       12.0110           0
     65644 WT23     70       MECN     H11      HGA3     0.090000        1.0080           0
     65645 WT23     70       MECN     H12      HGA3     0.090000        1.0080           0
     65646 WT23     70       MECN     H13      HGA3     0.090000        1.0080           0
     65647 WT23     70       MECN     C2       CG1N1    0.360000       12.0110           0
     65648 WT23     70       MECN     N3       NG1T1   -0.460000       14.0070           0
     65649 WT23     71       MECN     C1       CG331   -0.170000       12.0110           0
     65650 WT23     71       MECN     H11      HGA3     0.090000        1.0080           0
     65651 WT23     71       MECN     H12      HGA3     0.090000        1.0080           0
     65652 WT23     71       MECN     H13      HGA3     0.090000        1.0080           0
     65653 WT23     71       MECN     C2       CG1N1    0.360000       12.0110           0
     65654 WT23     71       MECN     N3       NG1T1   -0.460000       14.0070           0
     65655 WT23     72       MECN     C1       CG331   -0.170000       12.0110           0
     65656 WT23     72       MECN     H11      HGA3     0.090000        1.0080           0
     65657 WT23     72       MECN     H12      HGA3     0.090000        1.0080           0
     65658 WT23     72       MECN     H13      HGA3     0.090000        1.0080           0
     65659 WT23     72       MECN     C2       CG1N1    0.360000       12.0110           0
     65660 WT23     72       MECN     N3       NG1T1   -0.460000       14.0070           0
     65661 WT23     75       MECN     C1       CG331   -0.170000       12.0110           0
     65662 WT23     75       MECN     H11      HGA3     0.090000        1.0080           0
     65663 WT23     75       MECN     H12      HGA3     0.090000        1.0080           0
     65664 WT23     75       MECN     H13      HGA3     0.090000        1.0080           0
     65665 WT23     75       MECN     C2       CG1N1    0.360000       12.0110           0
     65666 WT23     75       MECN     N3       NG1T1   -0.460000       14.0070           0
     65667 WT23     78       MECN     C1       CG331   -0.170000       12.0110           0
     65668 WT23     78       MECN     H11      HGA3     0.090000        1.0080           0
     65669 WT23     78       MECN     H12      HGA3     0.090000        1.0080           0
     65670 WT23     78       MECN     H13      HGA3     0.090000        1.0080           0
     65671 WT23     78       MECN     C2       CG1N1    0.360000       12.0110           0
     65672 WT23     78       MECN     N3       NG1T1   -0.460000       14.0070           0
     65673 WT23     79       MECN     C1       CG331   -0.170000       12.0110           0
     65674 WT23     79       MECN     H11      HGA3     0.090000        1.0080           0
     65675 WT23     79       MECN     H12      HGA3     0.090000        1.0080           0
     65676 WT23     79       MECN     H13      HGA3     0.090000        1.0080           0
     65677 WT23     79       MECN     C2       CG1N1    0.360000       12.0110           0
     65678 WT23     79       MECN     N3       NG1T1   -0.460000       14.0070           0
     65679 WT23     82       MECN     C1       CG331   -0.170000       12.0110           0
     65680 WT23     82       MECN     H11      HGA3     0.090000        1.0080           0
     65681 WT23     82       MECN     H12      HGA3     0.090000        1.0080           0
     65682 WT23     82       MECN     H13      HGA3     0.090000        1.0080           0
     65683 WT23     82       MECN     C2       CG1N1    0.360000       12.0110           0
     65684 WT23     82       MECN     N3       NG1T1   -0.460000       14.0070           0
     65685 WT23     83       MECN     C1       CG331   -0.170000       12.0110           0
     65686 WT23     83       MECN     H11      HGA3     0.090000        1.0080           0
     65687 WT23     83       MECN     H12      HGA3     0.090000        1.0080           0
     65688 WT23     83       MECN     H13      HGA3     0.090000        1.0080           0
     65689 WT23     83       MECN     C2       CG1N1    0.360000       12.0110           0
     65690 WT23     83       MECN     N3       NG1T1   -0.460000       14.0070           0
     65691 WT23     86       MECN     C1       CG331   -0.170000       12.0110           0
     65692 WT23     86       MECN     H11      HGA3     0.090000        1.0080           0
     65693 WT23     86       MECN     H12      HGA3     0.090000        1.0080           0
     65694 WT23     86       MECN     H13      HGA3     0.090000        1.0080           0
     65695 WT23     86       MECN     C2       CG1N1    0.360000       12.0110           0
     65696 WT23     86       MECN     N3       NG1T1   -0.460000       14.0070           0
     65697 WT23     88       MECN     C1       CG331   -0.170000       12.0110           0
     65698 WT23     88       MECN     H11      HGA3     0.090000        1.0080           0
     65699 WT23     88       MECN     H12      HGA3     0.090000        1.0080           0
     65700 WT23     88       MECN     H13      HGA3     0.090000        1.0080           0
     65701 WT23     88       MECN     C2       CG1N1    0.360000       12.0110           0
     65702 WT23     88       MECN     N3       NG1T1   -0.460000       14.0070           0
     65703 WT23     89       MECN     C1       CG331   -0.170000       12.0110           0
     65704 WT23     89       MECN     H11      HGA3     0.090000        1.0080           0
     65705 WT23     89       MECN     H12      HGA3     0.090000        1.0080           0
     65706 WT23     89       MECN     H13      HGA3     0.090000        1.0080           0
     65707 WT23     89       MECN     C2       CG1N1    0.360000       12.0110           0
     65708 WT23     89       MECN     N3       NG1T1   -0.460000       14.0070           0
     65709 WT23     90       MECN     C1       CG331   -0.170000       12.0110           0
     65710 WT23     90       MECN     H11      HGA3     0.090000        1.0080           0
     65711 WT23     90       MECN     H12      HGA3     0.090000        1.0080           0
     65712 WT23     90       MECN     H13      HGA3     0.090000        1.0080           0
     65713 WT23     90       MECN     C2       CG1N1    0.360000       12.0110           0
     65714 WT23     90       MECN     N3       NG1T1   -0.460000       14.0070           0
     65715 WT23     92       MECN     C1       CG331   -0.170000       12.0110           0
     65716 WT23     92       MECN     H11      HGA3     0.090000        1.0080           0
     65717 WT23     92       MECN     H12      HGA3     0.090000        1.0080           0
     65718 WT23     92       MECN     H13      HGA3     0.090000        1.0080           0
     65719 WT23     92       MECN     C2       CG1N1    0.360000       12.0110           0
     65720 WT23     92       MECN     N3       NG1T1   -0.460000       14.0070           0
     65721 WT23     93       MECN     C1       CG331   -0.170000       12.0110           0
     65722 WT23     93       MECN     H11      HGA3     0.090000        1.0080           0
     65723 WT23     93       MECN     H12      HGA3     0.090000        1.0080           0
     65724 WT23     93       MECN     H13      HGA3     0.090000        1.0080           0
     65725 WT23     93       MECN     C2       CG1N1    0.360000       12.0110           0
     65726 WT23     93       MECN     N3       NG1T1   -0.460000       14.0070           0
     65727 WT23     95       MECN     C1       CG331   -0.170000       12.0110           0
     65728 WT23     95       MECN     H11      HGA3     0.090000        1.0080           0
     65729 WT23     95       MECN     H12      HGA3     0.090000        1.0080           0
     65730 WT23     95       MECN     H13      HGA3     0.090000        1.0080           0
     65731 WT23     95       MECN     C2       CG1N1    0.360000       12.0110           0
     65732 WT23     95       MECN     N3       NG1T1   -0.460000       14.0070           0
     65733 WT23     97       MECN     C1       CG331   -0.170000       12.0110           0
     65734 WT23     97       MECN     H11      HGA3     0.090000        1.0080           0
     65735 WT23     97       MECN     H12      HGA3     0.090000        1.0080           0
     65736 WT23     97       MECN     H13      HGA3     0.090000        1.0080           0
     65737 WT23     97       MECN     C2       CG1N1    0.360000       12.0110           0
     65738 WT23     97       MECN     N3       NG1T1   -0.460000       14.0070           0
     65739 WT23     99       MECN     C1       CG331   -0.170000       12.0110           0
     65740 WT23     99       MECN     H11      HGA3     0.090000        1.0080           0
     65741 WT23     99       MECN     H12      HGA3     0.090000        1.0080           0
     65742 WT23     99       MECN     H13      HGA3     0.090000        1.0080           0
     65743 WT23     99       MECN     C2       CG1N1    0.360000       12.0110           0
     65744 WT23     99       MECN     N3       NG1T1   -0.460000       14.0070           0
     65745 WT23     104      MECN     C1       CG331   -0.170000       12.0110           0
     65746 WT23     104      MECN     H11      HGA3     0.090000        1.0080           0
     65747 WT23     104      MECN     H12      HGA3     0.090000        1.0080           0
     65748 WT23     104      MECN     H13      HGA3     0.090000        1.0080           0
     65749 WT23     104      MECN     C2       CG1N1    0.360000       12.0110           0
     65750 WT23     104      MECN     N3       NG1T1   -0.460000       14.0070           0
     65751 WT23     105      MECN     C1       CG331   -0.170000       12.0110           0
     65752 WT23     105      MECN     H11      HGA3     0.090000        1.0080           0
     65753 WT23     105      MECN     H12      HGA3     0.090000        1.0080           0
     65754 WT23     105      MECN     H13      HGA3     0.090000        1.0080           0
     65755 WT23     105      MECN     C2       CG1N1    0.360000       12.0110           0
     65756 WT23     105      MECN     N3       NG1T1   -0.460000       14.0070           0
     65757 WT23     106      MECN     C1       CG331   -0.170000       12.0110           0
     65758 WT23     106      MECN     H11      HGA3     0.090000        1.0080           0
     65759 WT23     106      MECN     H12      HGA3     0.090000        1.0080           0
     65760 WT23     106      MECN     H13      HGA3     0.090000        1.0080           0
     65761 WT23     106      MECN     C2       CG1N1    0.360000       12.0110           0
     65762 WT23     106      MECN     N3       NG1T1   -0.460000       14.0070           0
     65763 WT23     107      MECN     C1       CG331   -0.170000       12.0110           0
     65764 WT23     107      MECN     H11      HGA3     0.090000        1.0080           0
     65765 WT23     107      MECN     H12      HGA3     0.090000        1.0080           0
     65766 WT23     107      MECN     H13      HGA3     0.090000        1.0080           0
     65767 WT23     107      MECN     C2       CG1N1    0.360000       12.0110           0
     65768 WT23     107      MECN     N3       NG1T1   -0.460000       14.0070           0
     65769 WT23     111      MECN     C1       CG331   -0.170000       12.0110           0
     65770 WT23     111      MECN     H11      HGA3     0.090000        1.0080           0
     65771 WT23     111      MECN     H12      HGA3     0.090000        1.0080           0
     65772 WT23     111      MECN     H13      HGA3     0.090000        1.0080           0
     65773 WT23     111      MECN     C2       CG1N1    0.360000       12.0110           0
     65774 WT23     111      MECN     N3       NG1T1   -0.460000       14.0070           0
     65775 WT23     112      MECN     C1       CG331   -0.170000       12.0110           0
     65776 WT23     112      MECN     H11      HGA3     0.090000        1.0080           0
     65777 WT23     112      MECN     H12      HGA3     0.090000        1.0080           0
     65778 WT23     112      MECN     H13      HGA3     0.090000        1.0080           0
     65779 WT23     112      MECN     C2       CG1N1    0.360000       12.0110           0
     65780 WT23     112      MECN     N3       NG1T1   -0.460000       14.0070           0
     65781 WT23     113      MECN     C1       CG331   -0.170000       12.0110           0
     65782 WT23     113      MECN     H11      HGA3     0.090000        1.0080           0
     65783 WT23     113      MECN     H12      HGA3     0.090000        1.0080           0
     65784 WT23     113      MECN     H13      HGA3     0.090000        1.0080           0
     65785 WT23     113      MECN     C2       CG1N1    0.360000       12.0110           0
     65786 WT23     113      MECN     N3       NG1T1   -0.460000       14.0070           0
     65787 WT23     114      MECN     C1       CG331   -0.170000       12.0110           0
     65788 WT23     114      MECN     H11      HGA3     0.090000        1.0080           0
     65789 WT23     114      MECN     H12      HGA3     0.090000        1.0080           0
     65790 WT23     114      MECN     H13      HGA3     0.090000        1.0080           0
     65791 WT23     114      MECN     C2       CG1N1    0.360000       12.0110           0
     65792 WT23     114      MECN     N3       NG1T1   -0.460000       14.0070           0
     65793 WT23     115      MECN     C1       CG331   -0.170000       12.0110           0
     65794 WT23     115      MECN     H11      HGA3     0.090000        1.0080           0
     65795 WT23     115      MECN     H12      HGA3     0.090000        1.0080           0
     65796 WT23     115      MECN     H13      HGA3     0.090000        1.0080           0
     65797 WT23     115      MECN     C2       CG1N1    0.360000       12.0110           0
     65798 WT23     115      MECN     N3       NG1T1   -0.460000       14.0070           0
     65799 WT23     117      MECN     C1       CG331   -0.170000       12.0110           0
     65800 WT23     117      MECN     H11      HGA3     0.090000        1.0080           0
     65801 WT23     117      MECN     H12      HGA3     0.090000        1.0080           0
     65802 WT23     117      MECN     H13      HGA3     0.090000        1.0080           0
     65803 WT23     117      MECN     C2       CG1N1    0.360000       12.0110           0
     65804 WT23     117      MECN     N3       NG1T1   -0.460000       14.0070           0
     65805 WT23     118      MECN     C1       CG331   -0.170000       12.0110           0
     65806 WT23     118      MECN     H11      HGA3     0.090000        1.0080           0
     65807 WT23     118      MECN     H12      HGA3     0.090000        1.0080           0
     65808 WT23     118      MECN     H13      HGA3     0.090000        1.0080           0
     65809 WT23     118      MECN     C2       CG1N1    0.360000       12.0110           0
     65810 WT23     118      MECN     N3       NG1T1   -0.460000       14.0070           0
     65811 WT23     119      MECN     C1       CG331   -0.170000       12.0110           0
     65812 WT23     119      MECN     H11      HGA3     0.090000        1.0080           0
     65813 WT23     119      MECN     H12      HGA3     0.090000        1.0080           0
     65814 WT23     119      MECN     H13      HGA3     0.090000        1.0080           0
     65815 WT23     119      MECN     C2       CG1N1    0.360000       12.0110           0
     65816 WT23     119      MECN     N3       NG1T1   -0.460000       14.0070           0
     65817 WT23     121      MECN     C1       CG331   -0.170000       12.0110           0
     65818 WT23     121      MECN     H11      HGA3     0.090000        1.0080           0
     65819 WT23     121      MECN     H12      HGA3     0.090000        1.0080           0
     65820 WT23     121      MECN     H13      HGA3     0.090000        1.0080           0
     65821 WT23     121      MECN     C2       CG1N1    0.360000       12.0110           0
     65822 WT23     121      MECN     N3       NG1T1   -0.460000       14.0070           0
     65823 WT23     122      MECN     C1       CG331   -0.170000       12.0110           0
     65824 WT23     122      MECN     H11      HGA3     0.090000        1.0080           0
     65825 WT23     122      MECN     H12      HGA3     0.090000        1.0080           0
     65826 WT23     122      MECN     H13      HGA3     0.090000        1.0080           0
     65827 WT23     122      MECN     C2       CG1N1    0.360000       12.0110           0
     65828 WT23     122      MECN     N3       NG1T1   -0.460000       14.0070           0
     65829 WT23     123      MECN     C1       CG331   -0.170000       12.0110           0
     65830 WT23     123      MECN     H11      HGA3     0.090000        1.0080           0
     65831 WT23     123      MECN     H12      HGA3     0.090000        1.0080           0
     65832 WT23     123      MECN     H13      HGA3     0.090000        1.0080           0
     65833 WT23     123      MECN     C2       CG1N1    0.360000       12.0110           0
     65834 WT23     123      MECN     N3       NG1T1   -0.460000       14.0070           0
     65835 WT23     124      MECN     C1       CG331   -0.170000       12.0110           0
     65836 WT23     124      MECN     H11      HGA3     0.090000        1.0080           0
     65837 WT23     124      MECN     H12      HGA3     0.090000        1.0080           0
     65838 WT23     124      MECN     H13      HGA3     0.090000        1.0080           0
     65839 WT23     124      MECN     C2       CG1N1    0.360000       12.0110           0
     65840 WT23     124      MECN     N3       NG1T1   -0.460000       14.0070           0
     65841 WT23     126      MECN     C1       CG331   -0.170000       12.0110           0
     65842 WT23     126      MECN     H11      HGA3     0.090000        1.0080           0
     65843 WT23     126      MECN     H12      HGA3     0.090000        1.0080           0
     65844 WT23     126      MECN     H13      HGA3     0.090000        1.0080           0
     65845 WT23     126      MECN     C2       CG1N1    0.360000       12.0110           0
     65846 WT23     126      MECN     N3       NG1T1   -0.460000       14.0070           0
     65847 WT23     127      MECN     C1       CG331   -0.170000       12.0110           0
     65848 WT23     127      MECN     H11      HGA3     0.090000        1.0080           0
     65849 WT23     127      MECN     H12      HGA3     0.090000        1.0080           0
     65850 WT23     127      MECN     H13      HGA3     0.090000        1.0080           0
     65851 WT23     127      MECN     C2       CG1N1    0.360000       12.0110           0
     65852 WT23     127      MECN     N3       NG1T1   -0.460000       14.0070           0
     65853 WT23     128      MECN     C1       CG331   -0.170000       12.0110           0
     65854 WT23     128      MECN     H11      HGA3     0.090000        1.0080           0
     65855 WT23     128      MECN     H12      HGA3     0.090000        1.0080           0
     65856 WT23     128      MECN     H13      HGA3     0.090000        1.0080           0
     65857 WT23     128      MECN     C2       CG1N1    0.360000       12.0110           0
     65858 WT23     128      MECN     N3       NG1T1   -0.460000       14.0070           0
     65859 WT23     129      MECN     C1       CG331   -0.170000       12.0110           0
     65860 WT23     129      MECN     H11      HGA3     0.090000        1.0080           0
     65861 WT23     129      MECN     H12      HGA3     0.090000        1.0080           0
     65862 WT23     129      MECN     H13      HGA3     0.090000        1.0080           0
     65863 WT23     129      MECN     C2       CG1N1    0.360000       12.0110           0
     65864 WT23     129      MECN     N3       NG1T1   -0.460000       14.0070           0
     65865 WT23     130      MECN     C1       CG331   -0.170000       12.0110           0
     65866 WT23     130      MECN     H11      HGA3     0.090000        1.0080           0
     65867 WT23     130      MECN     H12      HGA3     0.090000        1.0080           0
     65868 WT23     130      MECN     H13      HGA3     0.090000        1.0080           0
     65869 WT23     130      MECN     C2       CG1N1    0.360000       12.0110           0
     65870 WT23     130      MECN     N3       NG1T1   -0.460000       14.0070           0
     65871 WT23     131      MECN     C1       CG331   -0.170000       12.0110           0
     65872 WT23     131      MECN     H11      HGA3     0.090000        1.0080           0
     65873 WT23     131      MECN     H12      HGA3     0.090000        1.0080           0
     65874 WT23     131      MECN     H13      HGA3     0.090000        1.0080           0
     65875 WT23     131      MECN     C2       CG1N1    0.360000       12.0110           0
     65876 WT23     131      MECN     N3       NG1T1   -0.460000       14.0070           0
     65877 WT23     133      MECN     C1       CG331   -0.170000       12.0110           0
     65878 WT23     133      MECN     H11      HGA3     0.090000        1.0080           0
     65879 WT23     133      MECN     H12      HGA3     0.090000        1.0080           0
     65880 WT23     133      MECN     H13      HGA3     0.090000        1.0080           0
     65881 WT23     133      MECN     C2       CG1N1    0.360000       12.0110           0
     65882 WT23     133      MECN     N3       NG1T1   -0.460000       14.0070           0
     65883 WT23     134      MECN     C1       CG331   -0.170000       12.0110           0
     65884 WT23     134      MECN     H11      HGA3     0.090000        1.0080           0
     65885 WT23     134      MECN     H12      HGA3     0.090000        1.0080           0
     65886 WT23     134      MECN     H13      HGA3     0.090000        1.0080           0
     65887 WT23     134      MECN     C2       CG1N1    0.360000       12.0110           0
     65888 WT23     134      MECN     N3       NG1T1   -0.460000       14.0070           0
     65889 WT23     135      MECN     C1       CG331   -0.170000       12.0110           0
     65890 WT23     135      MECN     H11      HGA3     0.090000        1.0080           0
     65891 WT23     135      MECN     H12      HGA3     0.090000        1.0080           0
     65892 WT23     135      MECN     H13      HGA3     0.090000        1.0080           0
     65893 WT23     135      MECN     C2       CG1N1    0.360000       12.0110           0
     65894 WT23     135      MECN     N3       NG1T1   -0.460000       14.0070           0
     65895 WT23     136      MECN     C1       CG331   -0.170000       12.0110           0
     65896 WT23     136      MECN     H11      HGA3     0.090000        1.0080           0
     65897 WT23     136      MECN     H12      HGA3     0.090000        1.0080           0
     65898 WT23     136      MECN     H13      HGA3     0.090000        1.0080           0
     65899 WT23     136      MECN     C2       CG1N1    0.360000       12.0110           0
     65900 WT23     136      MECN     N3       NG1T1   -0.460000       14.0070           0
     65901 WT23     137      MECN     C1       CG331   -0.170000       12.0110           0
     65902 WT23     137      MECN     H11      HGA3     0.090000        1.0080           0
     65903 WT23     137      MECN     H12      HGA3     0.090000        1.0080           0
     65904 WT23     137      MECN     H13      HGA3     0.090000        1.0080           0
     65905 WT23     137      MECN     C2       CG1N1    0.360000       12.0110           0
     65906 WT23     137      MECN     N3       NG1T1   -0.460000       14.0070           0
     65907 WT23     142      MECN     C1       CG331   -0.170000       12.0110           0
     65908 WT23     142      MECN     H11      HGA3     0.090000        1.0080           0
     65909 WT23     142      MECN     H12      HGA3     0.090000        1.0080           0
     65910 WT23     142      MECN     H13      HGA3     0.090000        1.0080           0
     65911 WT23     142      MECN     C2       CG1N1    0.360000       12.0110           0
     65912 WT23     142      MECN     N3       NG1T1   -0.460000       14.0070           0
     65913 WT23     143      MECN     C1       CG331   -0.170000       12.0110           0
     65914 WT23     143      MECN     H11      HGA3     0.090000        1.0080           0
     65915 WT23     143      MECN     H12      HGA3     0.090000        1.0080           0
     65916 WT23     143      MECN     H13      HGA3     0.090000        1.0080           0
     65917 WT23     143      MECN     C2       CG1N1    0.360000       12.0110           0
     65918 WT23     143      MECN     N3       NG1T1   -0.460000       14.0070           0
     65919 WT23     144      MECN     C1       CG331   -0.170000       12.0110           0
     65920 WT23     144      MECN     H11      HGA3     0.090000        1.0080           0
     65921 WT23     144      MECN     H12      HGA3     0.090000        1.0080           0
     65922 WT23     144      MECN     H13      HGA3     0.090000        1.0080           0
     65923 WT23     144      MECN     C2       CG1N1    0.360000       12.0110           0
     65924 WT23     144      MECN     N3       NG1T1   -0.460000       14.0070           0
     65925 WT23     145      MECN     C1       CG331   -0.170000       12.0110           0
     65926 WT23     145      MECN     H11      HGA3     0.090000        1.0080           0
     65927 WT23     145      MECN     H12      HGA3     0.090000        1.0080           0
     65928 WT23     145      MECN     H13      HGA3     0.090000        1.0080           0
     65929 WT23     145      MECN     C2       CG1N1    0.360000       12.0110           0
     65930 WT23     145      MECN     N3       NG1T1   -0.460000       14.0070           0
     65931 WT23     146      MECN     C1       CG331   -0.170000       12.0110           0
     65932 WT23     146      MECN     H11      HGA3     0.090000        1.0080           0
     65933 WT23     146      MECN     H12      HGA3     0.090000        1.0080           0
     65934 WT23     146      MECN     H13      HGA3     0.090000        1.0080           0
     65935 WT23     146      MECN     C2       CG1N1    0.360000       12.0110           0
     65936 WT23     146      MECN     N3       NG1T1   -0.460000       14.0070           0
     65937 WT23     147      MECN     C1       CG331   -0.170000       12.0110           0
     65938 WT23     147      MECN     H11      HGA3     0.090000        1.0080           0
     65939 WT23     147      MECN     H12      HGA3     0.090000        1.0080           0
     65940 WT23     147      MECN     H13      HGA3     0.090000        1.0080           0
     65941 WT23     147      MECN     C2       CG1N1    0.360000       12.0110           0
     65942 WT23     147      MECN     N3       NG1T1   -0.460000       14.0070           0
     65943 WT23     148      MECN     C1       CG331   -0.170000       12.0110           0
     65944 WT23     148      MECN     H11      HGA3     0.090000        1.0080           0
     65945 WT23     148      MECN     H12      HGA3     0.090000        1.0080           0
     65946 WT23     148      MECN     H13      HGA3     0.090000        1.0080           0
     65947 WT23     148      MECN     C2       CG1N1    0.360000       12.0110           0
     65948 WT23     148      MECN     N3       NG1T1   -0.460000       14.0070           0
     65949 WT23     149      MECN     C1       CG331   -0.170000       12.0110           0
     65950 WT23     149      MECN     H11      HGA3     0.090000        1.0080           0
     65951 WT23     149      MECN     H12      HGA3     0.090000        1.0080           0
     65952 WT23     149      MECN     H13      HGA3     0.090000        1.0080           0
     65953 WT23     149      MECN     C2       CG1N1    0.360000       12.0110           0
     65954 WT23     149      MECN     N3       NG1T1   -0.460000       14.0070           0
     65955 WT23     150      MECN     C1       CG331   -0.170000       12.0110           0
     65956 WT23     150      MECN     H11      HGA3     0.090000        1.0080           0
     65957 WT23     150      MECN     H12      HGA3     0.090000        1.0080           0
     65958 WT23     150      MECN     H13      HGA3     0.090000        1.0080           0
     65959 WT23     150      MECN     C2       CG1N1    0.360000       12.0110           0
     65960 WT23     150      MECN     N3       NG1T1   -0.460000       14.0070           0
     65961 WT23     153      MECN     C1       CG331   -0.170000       12.0110           0
     65962 WT23     153      MECN     H11      HGA3     0.090000        1.0080           0
     65963 WT23     153      MECN     H12      HGA3     0.090000        1.0080           0
     65964 WT23     153      MECN     H13      HGA3     0.090000        1.0080           0
     65965 WT23     153      MECN     C2       CG1N1    0.360000       12.0110           0
     65966 WT23     153      MECN     N3       NG1T1   -0.460000       14.0070           0
     65967 WT23     154      MECN     C1       CG331   -0.170000       12.0110           0
     65968 WT23     154      MECN     H11      HGA3     0.090000        1.0080           0
     65969 WT23     154      MECN     H12      HGA3     0.090000        1.0080           0
     65970 WT23     154      MECN     H13      HGA3     0.090000        1.0080           0
     65971 WT23     154      MECN     C2       CG1N1    0.360000       12.0110           0
     65972 WT23     154      MECN     N3       NG1T1   -0.460000       14.0070           0
     65973 WT23     155      MECN     C1       CG331   -0.170000       12.0110           0
     65974 WT23     155      MECN     H11      HGA3     0.090000        1.0080           0
     65975 WT23     155      MECN     H12      HGA3     0.090000        1.0080           0
     65976 WT23     155      MECN     H13      HGA3     0.090000        1.0080           0
     65977 WT23     155      MECN     C2       CG1N1    0.360000       12.0110           0
     65978 WT23     155      MECN     N3       NG1T1   -0.460000       14.0070           0
     65979 WT23     157      MECN     C1       CG331   -0.170000       12.0110           0
     65980 WT23     157      MECN     H11      HGA3     0.090000        1.0080           0
     65981 WT23     157      MECN     H12      HGA3     0.090000        1.0080           0
     65982 WT23     157      MECN     H13      HGA3     0.090000        1.0080           0
     65983 WT23     157      MECN     C2       CG1N1    0.360000       12.0110           0
     65984 WT23     157      MECN     N3       NG1T1   -0.460000       14.0070           0
     65985 WT23     158      MECN     C1       CG331   -0.170000       12.0110           0
     65986 WT23     158      MECN     H11      HGA3     0.090000        1.0080           0
     65987 WT23     158      MECN     H12      HGA3     0.090000        1.0080           0
     65988 WT23     158      MECN     H13      HGA3     0.090000        1.0080           0
     65989 WT23     158      MECN     C2       CG1N1    0.360000       12.0110           0
     65990 WT23     158      MECN     N3       NG1T1   -0.460000       14.0070           0
     65991 WT23     159      MECN     C1       CG331   -0.170000       12.0110           0
     65992 WT23     159      MECN     H11      HGA3     0.090000        1.0080           0
     65993 WT23     159      MECN     H12      HGA3     0.090000        1.0080           0
     65994 WT23     159      MECN     H13      HGA3     0.090000        1.0080           0
     65995 WT23     159      MECN     C2       CG1N1    0.360000       12.0110           0
     65996 WT23     159      MECN     N3       NG1T1   -0.460000       14.0070           0
     65997 WT23     162      MECN     C1       CG331   -0.170000       12.0110           0
     65998 WT23     162      MECN     H11      HGA3     0.090000        1.0080           0
     65999 WT23     162      MECN     H12      HGA3     0.090000        1.0080           0
     66000 WT23     162      MECN     H13      HGA3     0.090000        1.0080           0
     66001 WT23     162      MECN     C2       CG1N1    0.360000       12.0110           0
     66002 WT23     162      MECN     N3       NG1T1   -0.460000       14.0070           0
     66003 WT23     163      MECN     C1       CG331   -0.170000       12.0110           0
     66004 WT23     163      MECN     H11      HGA3     0.090000        1.0080           0
     66005 WT23     163      MECN     H12      HGA3     0.090000        1.0080           0
     66006 WT23     163      MECN     H13      HGA3     0.090000        1.0080           0
     66007 WT23     163      MECN     C2       CG1N1    0.360000       12.0110           0
     66008 WT23     163      MECN     N3       NG1T1   -0.460000       14.0070           0
     66009 WT23     164      MECN     C1       CG331   -0.170000       12.0110           0
     66010 WT23     164      MECN     H11      HGA3     0.090000        1.0080           0
     66011 WT23     164      MECN     H12      HGA3     0.090000        1.0080           0
     66012 WT23     164      MECN     H13      HGA3     0.090000        1.0080           0
     66013 WT23     164      MECN     C2       CG1N1    0.360000       12.0110           0
     66014 WT23     164      MECN     N3       NG1T1   -0.460000       14.0070           0
     66015 WT23     165      MECN     C1       CG331   -0.170000       12.0110           0
     66016 WT23     165      MECN     H11      HGA3     0.090000        1.0080           0
     66017 WT23     165      MECN     H12      HGA3     0.090000        1.0080           0
     66018 WT23     165      MECN     H13      HGA3     0.090000        1.0080           0
     66019 WT23     165      MECN     C2       CG1N1    0.360000       12.0110           0
     66020 WT23     165      MECN     N3       NG1T1   -0.460000       14.0070           0
     66021 WT23     166      MECN     C1       CG331   -0.170000       12.0110           0
     66022 WT23     166      MECN     H11      HGA3     0.090000        1.0080           0
     66023 WT23     166      MECN     H12      HGA3     0.090000        1.0080           0
     66024 WT23     166      MECN     H13      HGA3     0.090000        1.0080           0
     66025 WT23     166      MECN     C2       CG1N1    0.360000       12.0110           0
     66026 WT23     166      MECN     N3       NG1T1   -0.460000       14.0070           0
     66027 WT23     167      MECN     C1       CG331   -0.170000       12.0110           0
     66028 WT23     167      MECN     H11      HGA3     0.090000        1.0080           0
     66029 WT23     167      MECN     H12      HGA3     0.090000        1.0080           0
     66030 WT23     167      MECN     H13      HGA3     0.090000        1.0080           0
     66031 WT23     167      MECN     C2       CG1N1    0.360000       12.0110           0
     66032 WT23     167      MECN     N3       NG1T1   -0.460000       14.0070           0
     66033 WT23     168      MECN     C1       CG331   -0.170000       12.0110           0
     66034 WT23     168      MECN     H11      HGA3     0.090000        1.0080           0
     66035 WT23     168      MECN     H12      HGA3     0.090000        1.0080           0
     66036 WT23     168      MECN     H13      HGA3     0.090000        1.0080           0
     66037 WT23     168      MECN     C2       CG1N1    0.360000       12.0110           0
     66038 WT23     168      MECN     N3       NG1T1   -0.460000       14.0070           0
     66039 WT23     173      MECN     C1       CG331   -0.170000       12.0110           0
     66040 WT23     173      MECN     H11      HGA3     0.090000        1.0080           0
     66041 WT23     173      MECN     H12      HGA3     0.090000        1.0080           0
     66042 WT23     173      MECN     H13      HGA3     0.090000        1.0080           0
     66043 WT23     173      MECN     C2       CG1N1    0.360000       12.0110           0
     66044 WT23     173      MECN     N3       NG1T1   -0.460000       14.0070           0
     66045 WT23     175      MECN     C1       CG331   -0.170000       12.0110           0
     66046 WT23     175      MECN     H11      HGA3     0.090000        1.0080           0
     66047 WT23     175      MECN     H12      HGA3     0.090000        1.0080           0
     66048 WT23     175      MECN     H13      HGA3     0.090000        1.0080           0
     66049 WT23     175      MECN     C2       CG1N1    0.360000       12.0110           0
     66050 WT23     175      MECN     N3       NG1T1   -0.460000       14.0070           0
     66051 WT23     178      MECN     C1       CG331   -0.170000       12.0110           0
     66052 WT23     178      MECN     H11      HGA3     0.090000        1.0080           0
     66053 WT23     178      MECN     H12      HGA3     0.090000        1.0080           0
     66054 WT23     178      MECN     H13      HGA3     0.090000        1.0080           0
     66055 WT23     178      MECN     C2       CG1N1    0.360000       12.0110           0
     66056 WT23     178      MECN     N3       NG1T1   -0.460000       14.0070           0
     66057 WT23     179      MECN     C1       CG331   -0.170000       12.0110           0
     66058 WT23     179      MECN     H11      HGA3     0.090000        1.0080           0
     66059 WT23     179      MECN     H12      HGA3     0.090000        1.0080           0
     66060 WT23     179      MECN     H13      HGA3     0.090000        1.0080           0
     66061 WT23     179      MECN     C2       CG1N1    0.360000       12.0110           0
     66062 WT23     179      MECN     N3       NG1T1   -0.460000       14.0070           0
     66063 WT23     181      MECN     C1       CG331   -0.170000       12.0110           0
     66064 WT23     181      MECN     H11      HGA3     0.090000        1.0080           0
     66065 WT23     181      MECN     H12      HGA3     0.090000        1.0080           0
     66066 WT23     181      MECN     H13      HGA3     0.090000        1.0080           0
     66067 WT23     181      MECN     C2       CG1N1    0.360000       12.0110           0
     66068 WT23     181      MECN     N3       NG1T1   -0.460000       14.0070           0
     66069 WT23     184      MECN     C1       CG331   -0.170000       12.0110           0
     66070 WT23     184      MECN     H11      HGA3     0.090000        1.0080           0
     66071 WT23     184      MECN     H12      HGA3     0.090000        1.0080           0
     66072 WT23     184      MECN     H13      HGA3     0.090000        1.0080           0
     66073 WT23     184      MECN     C2       CG1N1    0.360000       12.0110           0
     66074 WT23     184      MECN     N3       NG1T1   -0.460000       14.0070           0
     66075 WT23     186      MECN     C1       CG331   -0.170000       12.0110           0
     66076 WT23     186      MECN     H11      HGA3     0.090000        1.0080           0
     66077 WT23     186      MECN     H12      HGA3     0.090000        1.0080           0
     66078 WT23     186      MECN     H13      HGA3     0.090000        1.0080           0
     66079 WT23     186      MECN     C2       CG1N1    0.360000       12.0110           0
     66080 WT23     186      MECN     N3       NG1T1   -0.460000       14.0070           0
     66081 WT23     189      MECN     C1       CG331   -0.170000       12.0110           0
     66082 WT23     189      MECN     H11      HGA3     0.090000        1.0080           0
     66083 WT23     189      MECN     H12      HGA3     0.090000        1.0080           0
     66084 WT23     189      MECN     H13      HGA3     0.090000        1.0080           0
     66085 WT23     189      MECN     C2       CG1N1    0.360000       12.0110           0
     66086 WT23     189      MECN     N3       NG1T1   -0.460000       14.0070           0
     66087 WT23     190      MECN     C1       CG331   -0.170000       12.0110           0
     66088 WT23     190      MECN     H11      HGA3     0.090000        1.0080           0
     66089 WT23     190      MECN     H12      HGA3     0.090000        1.0080           0
     66090 WT23     190      MECN     H13      HGA3     0.090000        1.0080           0
     66091 WT23     190      MECN     C2       CG1N1    0.360000       12.0110           0
     66092 WT23     190      MECN     N3       NG1T1   -0.460000       14.0070           0
     66093 WT23     191      MECN     C1       CG331   -0.170000       12.0110           0
     66094 WT23     191      MECN     H11      HGA3     0.090000        1.0080           0
     66095 WT23     191      MECN     H12      HGA3     0.090000        1.0080           0
     66096 WT23     191      MECN     H13      HGA3     0.090000        1.0080           0
     66097 WT23     191      MECN     C2       CG1N1    0.360000       12.0110           0
     66098 WT23     191      MECN     N3       NG1T1   -0.460000       14.0070           0
     66099 WT23     192      MECN     C1       CG331   -0.170000       12.0110           0
     66100 WT23     192      MECN     H11      HGA3     0.090000        1.0080           0
     66101 WT23     192      MECN     H12      HGA3     0.090000        1.0080           0
     66102 WT23     192      MECN     H13      HGA3     0.090000        1.0080           0
     66103 WT23     192      MECN     C2       CG1N1    0.360000       12.0110           0
     66104 WT23     192      MECN     N3       NG1T1   -0.460000       14.0070           0
     66105 WT23     194      MECN     C1       CG331   -0.170000       12.0110           0
     66106 WT23     194      MECN     H11      HGA3     0.090000        1.0080           0
     66107 WT23     194      MECN     H12      HGA3     0.090000        1.0080           0
     66108 WT23     194      MECN     H13      HGA3     0.090000        1.0080           0
     66109 WT23     194      MECN     C2       CG1N1    0.360000       12.0110           0
     66110 WT23     194      MECN     N3       NG1T1   -0.460000       14.0070           0
     66111 WT23     196      MECN     C1       CG331   -0.170000       12.0110           0
     66112 WT23     196      MECN     H11      HGA3     0.090000        1.0080           0
     66113 WT23     196      MECN     H12      HGA3     0.090000        1.0080           0
     66114 WT23     196      MECN     H13      HGA3     0.090000        1.0080           0
     66115 WT23     196      MECN     C2       CG1N1    0.360000       12.0110           0
     66116 WT23     196      MECN     N3       NG1T1   -0.460000       14.0070           0
     66117 WT23     198      MECN     C1       CG331   -0.170000       12.0110           0
     66118 WT23     198      MECN     H11      HGA3     0.090000        1.0080           0
     66119 WT23     198      MECN     H12      HGA3     0.090000        1.0080           0
     66120 WT23     198      MECN     H13      HGA3     0.090000        1.0080           0
     66121 WT23     198      MECN     C2       CG1N1    0.360000       12.0110           0
     66122 WT23     198      MECN     N3       NG1T1   -0.460000       14.0070           0
     66123 WT23     199      MECN     C1       CG331   -0.170000       12.0110           0
     66124 WT23     199      MECN     H11      HGA3     0.090000        1.0080           0
     66125 WT23     199      MECN     H12      HGA3     0.090000        1.0080           0
     66126 WT23     199      MECN     H13      HGA3     0.090000        1.0080           0
     66127 WT23     199      MECN     C2       CG1N1    0.360000       12.0110           0
     66128 WT23     199      MECN     N3       NG1T1   -0.460000       14.0070           0
     66129 WT23     202      MECN     C1       CG331   -0.170000       12.0110           0
     66130 WT23     202      MECN     H11      HGA3     0.090000        1.0080           0
     66131 WT23     202      MECN     H12      HGA3     0.090000        1.0080           0
     66132 WT23     202      MECN     H13      HGA3     0.090000        1.0080           0
     66133 WT23     202      MECN     C2       CG1N1    0.360000       12.0110           0
     66134 WT23     202      MECN     N3       NG1T1   -0.460000       14.0070           0
     66135 WT23     203      MECN     C1       CG331   -0.170000       12.0110           0
     66136 WT23     203      MECN     H11      HGA3     0.090000        1.0080           0
     66137 WT23     203      MECN     H12      HGA3     0.090000        1.0080           0
     66138 WT23     203      MECN     H13      HGA3     0.090000        1.0080           0
     66139 WT23     203      MECN     C2       CG1N1    0.360000       12.0110           0
     66140 WT23     203      MECN     N3       NG1T1   -0.460000       14.0070           0
     66141 WT23     204      MECN     C1       CG331   -0.170000       12.0110           0
     66142 WT23     204      MECN     H11      HGA3     0.090000        1.0080           0
     66143 WT23     204      MECN     H12      HGA3     0.090000        1.0080           0
     66144 WT23     204      MECN     H13      HGA3     0.090000        1.0080           0
     66145 WT23     204      MECN     C2       CG1N1    0.360000       12.0110           0
     66146 WT23     204      MECN     N3       NG1T1   -0.460000       14.0070           0
     66147 WT23     205      MECN     C1       CG331   -0.170000       12.0110           0
     66148 WT23     205      MECN     H11      HGA3     0.090000        1.0080           0
     66149 WT23     205      MECN     H12      HGA3     0.090000        1.0080           0
     66150 WT23     205      MECN     H13      HGA3     0.090000        1.0080           0
     66151 WT23     205      MECN     C2       CG1N1    0.360000       12.0110           0
     66152 WT23     205      MECN     N3       NG1T1   -0.460000       14.0070           0
     66153 WT23     208      MECN     C1       CG331   -0.170000       12.0110           0
     66154 WT23     208      MECN     H11      HGA3     0.090000        1.0080           0
     66155 WT23     208      MECN     H12      HGA3     0.090000        1.0080           0
     66156 WT23     208      MECN     H13      HGA3     0.090000        1.0080           0
     66157 WT23     208      MECN     C2       CG1N1    0.360000       12.0110           0
     66158 WT23     208      MECN     N3       NG1T1   -0.460000       14.0070           0
     66159 WT23     209      MECN     C1       CG331   -0.170000       12.0110           0
     66160 WT23     209      MECN     H11      HGA3     0.090000        1.0080           0
     66161 WT23     209      MECN     H12      HGA3     0.090000        1.0080           0
     66162 WT23     209      MECN     H13      HGA3     0.090000        1.0080           0
     66163 WT23     209      MECN     C2       CG1N1    0.360000       12.0110           0
     66164 WT23     209      MECN     N3       NG1T1   -0.460000       14.0070           0
     66165 WT23     210      MECN     C1       CG331   -0.170000       12.0110           0
     66166 WT23     210      MECN     H11      HGA3     0.090000        1.0080           0
     66167 WT23     210      MECN     H12      HGA3     0.090000        1.0080           0
     66168 WT23     210      MECN     H13      HGA3     0.090000        1.0080           0
     66169 WT23     210      MECN     C2       CG1N1    0.360000       12.0110           0
     66170 WT23     210      MECN     N3       NG1T1   -0.460000       14.0070           0
     66171 WT23     212      MECN     C1       CG331   -0.170000       12.0110           0
     66172 WT23     212      MECN     H11      HGA3     0.090000        1.0080           0
     66173 WT23     212      MECN     H12      HGA3     0.090000        1.0080           0
     66174 WT23     212      MECN     H13      HGA3     0.090000        1.0080           0
     66175 WT23     212      MECN     C2       CG1N1    0.360000       12.0110           0
     66176 WT23     212      MECN     N3       NG1T1   -0.460000       14.0070           0
     66177 WT23     216      MECN     C1       CG331   -0.170000       12.0110           0
     66178 WT23     216      MECN     H11      HGA3     0.090000        1.0080           0
     66179 WT23     216      MECN     H12      HGA3     0.090000        1.0080           0
     66180 WT23     216      MECN     H13      HGA3     0.090000        1.0080           0
     66181 WT23     216      MECN     C2       CG1N1    0.360000       12.0110           0
     66182 WT23     216      MECN     N3       NG1T1   -0.460000       14.0070           0
     66183 WT23     217      MECN     C1       CG331   -0.170000       12.0110           0
     66184 WT23     217      MECN     H11      HGA3     0.090000        1.0080           0
     66185 WT23     217      MECN     H12      HGA3     0.090000        1.0080           0
     66186 WT23     217      MECN     H13      HGA3     0.090000        1.0080           0
     66187 WT23     217      MECN     C2       CG1N1    0.360000       12.0110           0
     66188 WT23     217      MECN     N3       NG1T1   -0.460000       14.0070           0
     66189 WT23     218      MECN     C1       CG331   -0.170000       12.0110           0
     66190 WT23     218      MECN     H11      HGA3     0.090000        1.0080           0
     66191 WT23     218      MECN     H12      HGA3     0.090000        1.0080           0
     66192 WT23     218      MECN     H13      HGA3     0.090000        1.0080           0
     66193 WT23     218      MECN     C2       CG1N1    0.360000       12.0110           0
     66194 WT23     218      MECN     N3       NG1T1   -0.460000       14.0070           0
     66195 WT23     219      MECN     C1       CG331   -0.170000       12.0110           0
     66196 WT23     219      MECN     H11      HGA3     0.090000        1.0080           0
     66197 WT23     219      MECN     H12      HGA3     0.090000        1.0080           0
     66198 WT23     219      MECN     H13      HGA3     0.090000        1.0080           0
     66199 WT23     219      MECN     C2       CG1N1    0.360000       12.0110           0
     66200 WT23     219      MECN     N3       NG1T1   -0.460000       14.0070           0
     66201 WT23     221      MECN     C1       CG331   -0.170000       12.0110           0
     66202 WT23     221      MECN     H11      HGA3     0.090000        1.0080           0
     66203 WT23     221      MECN     H12      HGA3     0.090000        1.0080           0
     66204 WT23     221      MECN     H13      HGA3     0.090000        1.0080           0
     66205 WT23     221      MECN     C2       CG1N1    0.360000       12.0110           0
     66206 WT23     221      MECN     N3       NG1T1   -0.460000       14.0070           0
     66207 WT23     223      MECN     C1       CG331   -0.170000       12.0110           0
     66208 WT23     223      MECN     H11      HGA3     0.090000        1.0080           0
     66209 WT23     223      MECN     H12      HGA3     0.090000        1.0080           0
     66210 WT23     223      MECN     H13      HGA3     0.090000        1.0080           0
     66211 WT23     223      MECN     C2       CG1N1    0.360000       12.0110           0
     66212 WT23     223      MECN     N3       NG1T1   -0.460000       14.0070           0
     66213 WT23     229      MECN     C1       CG331   -0.170000       12.0110           0
     66214 WT23     229      MECN     H11      HGA3     0.090000        1.0080           0
     66215 WT23     229      MECN     H12      HGA3     0.090000        1.0080           0
     66216 WT23     229      MECN     H13      HGA3     0.090000        1.0080           0
     66217 WT23     229      MECN     C2       CG1N1    0.360000       12.0110           0
     66218 WT23     229      MECN     N3       NG1T1   -0.460000       14.0070           0
     66219 WT23     230      MECN     C1       CG331   -0.170000       12.0110           0
     66220 WT23     230      MECN     H11      HGA3     0.090000        1.0080           0
     66221 WT23     230      MECN     H12      HGA3     0.090000        1.0080           0
     66222 WT23     230      MECN     H13      HGA3     0.090000        1.0080           0
     66223 WT23     230      MECN     C2       CG1N1    0.360000       12.0110           0
     66224 WT23     230      MECN     N3       NG1T1   -0.460000       14.0070           0
     66225 WT23     231      MECN     C1       CG331   -0.170000       12.0110           0
     66226 WT23     231      MECN     H11      HGA3     0.090000        1.0080           0
     66227 WT23     231      MECN     H12      HGA3     0.090000        1.0080           0
     66228 WT23     231      MECN     H13      HGA3     0.090000        1.0080           0
     66229 WT23     231      MECN     C2       CG1N1    0.360000       12.0110           0
     66230 WT23     231      MECN     N3       NG1T1   -0.460000       14.0070           0
     66231 WT23     232      MECN     C1       CG331   -0.170000       12.0110           0
     66232 WT23     232      MECN     H11      HGA3     0.090000        1.0080           0
     66233 WT23     232      MECN     H12      HGA3     0.090000        1.0080           0
     66234 WT23     232      MECN     H13      HGA3     0.090000        1.0080           0
     66235 WT23     232      MECN     C2       CG1N1    0.360000       12.0110           0
     66236 WT23     232      MECN     N3       NG1T1   -0.460000       14.0070           0
     66237 WT23     235      MECN     C1       CG331   -0.170000       12.0110           0
     66238 WT23     235      MECN     H11      HGA3     0.090000        1.0080           0
     66239 WT23     235      MECN     H12      HGA3     0.090000        1.0080           0
     66240 WT23     235      MECN     H13      HGA3     0.090000        1.0080           0
     66241 WT23     235      MECN     C2       CG1N1    0.360000       12.0110           0
     66242 WT23     235      MECN     N3       NG1T1   -0.460000       14.0070           0
     66243 WT23     239      MECN     C1       CG331   -0.170000       12.0110           0
     66244 WT23     239      MECN     H11      HGA3     0.090000        1.0080           0
     66245 WT23     239      MECN     H12      HGA3     0.090000        1.0080           0
     66246 WT23     239      MECN     H13      HGA3     0.090000        1.0080           0
     66247 WT23     239      MECN     C2       CG1N1    0.360000       12.0110           0
     66248 WT23     239      MECN     N3       NG1T1   -0.460000       14.0070           0
     66249 WT23     241      MECN     C1       CG331   -0.170000       12.0110           0
     66250 WT23     241      MECN     H11      HGA3     0.090000        1.0080           0
     66251 WT23     241      MECN     H12      HGA3     0.090000        1.0080           0
     66252 WT23     241      MECN     H13      HGA3     0.090000        1.0080           0
     66253 WT23     241      MECN     C2       CG1N1    0.360000       12.0110           0
     66254 WT23     241      MECN     N3       NG1T1   -0.460000       14.0070           0
     66255 WT23     243      MECN     C1       CG331   -0.170000       12.0110           0
     66256 WT23     243      MECN     H11      HGA3     0.090000        1.0080           0
     66257 WT23     243      MECN     H12      HGA3     0.090000        1.0080           0
     66258 WT23     243      MECN     H13      HGA3     0.090000        1.0080           0
     66259 WT23     243      MECN     C2       CG1N1    0.360000       12.0110           0
     66260 WT23     243      MECN     N3       NG1T1   -0.460000       14.0070           0
     66261 WT23     244      MECN     C1       CG331   -0.170000       12.0110           0
     66262 WT23     244      MECN     H11      HGA3     0.090000        1.0080           0
     66263 WT23     244      MECN     H12      HGA3     0.090000        1.0080           0
     66264 WT23     244      MECN     H13      HGA3     0.090000        1.0080           0
     66265 WT23     244      MECN     C2       CG1N1    0.360000       12.0110           0
     66266 WT23     244      MECN     N3       NG1T1   -0.460000       14.0070           0
     66267 WT23     246      MECN     C1       CG331   -0.170000       12.0110           0
     66268 WT23     246      MECN     H11      HGA3     0.090000        1.0080           0
     66269 WT23     246      MECN     H12      HGA3     0.090000        1.0080           0
     66270 WT23     246      MECN     H13      HGA3     0.090000        1.0080           0
     66271 WT23     246      MECN     C2       CG1N1    0.360000       12.0110           0
     66272 WT23     246      MECN     N3       NG1T1   -0.460000       14.0070           0
     66273 WT23     247      MECN     C1       CG331   -0.170000       12.0110           0
     66274 WT23     247      MECN     H11      HGA3     0.090000        1.0080           0
     66275 WT23     247      MECN     H12      HGA3     0.090000        1.0080           0
     66276 WT23     247      MECN     H13      HGA3     0.090000        1.0080           0
     66277 WT23     247      MECN     C2       CG1N1    0.360000       12.0110           0
     66278 WT23     247      MECN     N3       NG1T1   -0.460000       14.0070           0
     66279 WT23     248      MECN     C1       CG331   -0.170000       12.0110           0
     66280 WT23     248      MECN     H11      HGA3     0.090000        1.0080           0
     66281 WT23     248      MECN     H12      HGA3     0.090000        1.0080           0
     66282 WT23     248      MECN     H13      HGA3     0.090000        1.0080           0
     66283 WT23     248      MECN     C2       CG1N1    0.360000       12.0110           0
     66284 WT23     248      MECN     N3       NG1T1   -0.460000       14.0070           0
     66285 WT23     249      MECN     C1       CG331   -0.170000       12.0110           0
     66286 WT23     249      MECN     H11      HGA3     0.090000        1.0080           0
     66287 WT23     249      MECN     H12      HGA3     0.090000        1.0080           0
     66288 WT23     249      MECN     H13      HGA3     0.090000        1.0080           0
     66289 WT23     249      MECN     C2       CG1N1    0.360000       12.0110           0
     66290 WT23     249      MECN     N3       NG1T1   -0.460000       14.0070           0
     66291 WT23     250      MECN     C1       CG331   -0.170000       12.0110           0
     66292 WT23     250      MECN     H11      HGA3     0.090000        1.0080           0
     66293 WT23     250      MECN     H12      HGA3     0.090000        1.0080           0
     66294 WT23     250      MECN     H13      HGA3     0.090000        1.0080           0
     66295 WT23     250      MECN     C2       CG1N1    0.360000       12.0110           0
     66296 WT23     250      MECN     N3       NG1T1   -0.460000       14.0070           0
     66297 WT23     252      MECN     C1       CG331   -0.170000       12.0110           0
     66298 WT23     252      MECN     H11      HGA3     0.090000        1.0080           0
     66299 WT23     252      MECN     H12      HGA3     0.090000        1.0080           0
     66300 WT23     252      MECN     H13      HGA3     0.090000        1.0080           0
     66301 WT23     252      MECN     C2       CG1N1    0.360000       12.0110           0
     66302 WT23     252      MECN     N3       NG1T1   -0.460000       14.0070           0
     66303 WT23     253      MECN     C1       CG331   -0.170000       12.0110           0
     66304 WT23     253      MECN     H11      HGA3     0.090000        1.0080           0
     66305 WT23     253      MECN     H12      HGA3     0.090000        1.0080           0
     66306 WT23     253      MECN     H13      HGA3     0.090000        1.0080           0
     66307 WT23     253      MECN     C2       CG1N1    0.360000       12.0110           0
     66308 WT23     253      MECN     N3       NG1T1   -0.460000       14.0070           0
     66309 WT23     254      MECN     C1       CG331   -0.170000       12.0110           0
     66310 WT23     254      MECN     H11      HGA3     0.090000        1.0080           0
     66311 WT23     254      MECN     H12      HGA3     0.090000        1.0080           0
     66312 WT23     254      MECN     H13      HGA3     0.090000        1.0080           0
     66313 WT23     254      MECN     C2       CG1N1    0.360000       12.0110           0
     66314 WT23     254      MECN     N3       NG1T1   -0.460000       14.0070           0
     66315 WT23     256      MECN     C1       CG331   -0.170000       12.0110           0
     66316 WT23     256      MECN     H11      HGA3     0.090000        1.0080           0
     66317 WT23     256      MECN     H12      HGA3     0.090000        1.0080           0
     66318 WT23     256      MECN     H13      HGA3     0.090000        1.0080           0
     66319 WT23     256      MECN     C2       CG1N1    0.360000       12.0110           0
     66320 WT23     256      MECN     N3       NG1T1   -0.460000       14.0070           0
     66321 WT23     258      MECN     C1       CG331   -0.170000       12.0110           0
     66322 WT23     258      MECN     H11      HGA3     0.090000        1.0080           0
     66323 WT23     258      MECN     H12      HGA3     0.090000        1.0080           0
     66324 WT23     258      MECN     H13      HGA3     0.090000        1.0080           0
     66325 WT23     258      MECN     C2       CG1N1    0.360000       12.0110           0
     66326 WT23     258      MECN     N3       NG1T1   -0.460000       14.0070           0
     66327 WT23     260      MECN     C1       CG331   -0.170000       12.0110           0
     66328 WT23     260      MECN     H11      HGA3     0.090000        1.0080           0
     66329 WT23     260      MECN     H12      HGA3     0.090000        1.0080           0
     66330 WT23     260      MECN     H13      HGA3     0.090000        1.0080           0
     66331 WT23     260      MECN     C2       CG1N1    0.360000       12.0110           0
     66332 WT23     260      MECN     N3       NG1T1   -0.460000       14.0070           0
     66333 WT23     263      MECN     C1       CG331   -0.170000       12.0110           0
     66334 WT23     263      MECN     H11      HGA3     0.090000        1.0080           0
     66335 WT23     263      MECN     H12      HGA3     0.090000        1.0080           0
     66336 WT23     263      MECN     H13      HGA3     0.090000        1.0080           0
     66337 WT23     263      MECN     C2       CG1N1    0.360000       12.0110           0
     66338 WT23     263      MECN     N3       NG1T1   -0.460000       14.0070           0
     66339 WT23     264      MECN     C1       CG331   -0.170000       12.0110           0
     66340 WT23     264      MECN     H11      HGA3     0.090000        1.0080           0
     66341 WT23     264      MECN     H12      HGA3     0.090000        1.0080           0
     66342 WT23     264      MECN     H13      HGA3     0.090000        1.0080           0
     66343 WT23     264      MECN     C2       CG1N1    0.360000       12.0110           0
     66344 WT23     264      MECN     N3       NG1T1   -0.460000       14.0070           0
     66345 WT23     265      MECN     C1       CG331   -0.170000       12.0110           0
     66346 WT23     265      MECN     H11      HGA3     0.090000        1.0080           0
     66347 WT23     265      MECN     H12      HGA3     0.090000        1.0080           0
     66348 WT23     265      MECN     H13      HGA3     0.090000        1.0080           0
     66349 WT23     265      MECN     C2       CG1N1    0.360000       12.0110           0
     66350 WT23     265      MECN     N3       NG1T1   -0.460000       14.0070           0
     66351 WT23     266      MECN     C1       CG331   -0.170000       12.0110           0
     66352 WT23     266      MECN     H11      HGA3     0.090000        1.0080           0
     66353 WT23     266      MECN     H12      HGA3     0.090000        1.0080           0
     66354 WT23     266      MECN     H13      HGA3     0.090000        1.0080           0
     66355 WT23     266      MECN     C2       CG1N1    0.360000       12.0110           0
     66356 WT23     266      MECN     N3       NG1T1   -0.460000       14.0070           0
     66357 WT23     269      MECN     C1       CG331   -0.170000       12.0110           0
     66358 WT23     269      MECN     H11      HGA3     0.090000        1.0080           0
     66359 WT23     269      MECN     H12      HGA3     0.090000        1.0080           0
     66360 WT23     269      MECN     H13      HGA3     0.090000        1.0080           0
     66361 WT23     269      MECN     C2       CG1N1    0.360000       12.0110           0
     66362 WT23     269      MECN     N3       NG1T1   -0.460000       14.0070           0
     66363 WT23     270      MECN     C1       CG331   -0.170000       12.0110           0
     66364 WT23     270      MECN     H11      HGA3     0.090000        1.0080           0
     66365 WT23     270      MECN     H12      HGA3     0.090000        1.0080           0
     66366 WT23     270      MECN     H13      HGA3     0.090000        1.0080           0
     66367 WT23     270      MECN     C2       CG1N1    0.360000       12.0110           0
     66368 WT23     270      MECN     N3       NG1T1   -0.460000       14.0070           0
     66369 WT23     271      MECN     C1       CG331   -0.170000       12.0110           0
     66370 WT23     271      MECN     H11      HGA3     0.090000        1.0080           0
     66371 WT23     271      MECN     H12      HGA3     0.090000        1.0080           0
     66372 WT23     271      MECN     H13      HGA3     0.090000        1.0080           0
     66373 WT23     271      MECN     C2       CG1N1    0.360000       12.0110           0
     66374 WT23     271      MECN     N3       NG1T1   -0.460000       14.0070           0
     66375 WT23     272      MECN     C1       CG331   -0.170000       12.0110           0
     66376 WT23     272      MECN     H11      HGA3     0.090000        1.0080           0
     66377 WT23     272      MECN     H12      HGA3     0.090000        1.0080           0
     66378 WT23     272      MECN     H13      HGA3     0.090000        1.0080           0
     66379 WT23     272      MECN     C2       CG1N1    0.360000       12.0110           0
     66380 WT23     272      MECN     N3       NG1T1   -0.460000       14.0070           0
     66381 WT23     274      MECN     C1       CG331   -0.170000       12.0110           0
     66382 WT23     274      MECN     H11      HGA3     0.090000        1.0080           0
     66383 WT23     274      MECN     H12      HGA3     0.090000        1.0080           0
     66384 WT23     274      MECN     H13      HGA3     0.090000        1.0080           0
     66385 WT23     274      MECN     C2       CG1N1    0.360000       12.0110           0
     66386 WT23     274      MECN     N3       NG1T1   -0.460000       14.0070           0
     66387 WT23     275      MECN     C1       CG331   -0.170000       12.0110           0
     66388 WT23     275      MECN     H11      HGA3     0.090000        1.0080           0
     66389 WT23     275      MECN     H12      HGA3     0.090000        1.0080           0
     66390 WT23     275      MECN     H13      HGA3     0.090000        1.0080           0
     66391 WT23     275      MECN     C2       CG1N1    0.360000       12.0110           0
     66392 WT23     275      MECN     N3       NG1T1   -0.460000       14.0070           0
     66393 WT23     276      MECN     C1       CG331   -0.170000       12.0110           0
     66394 WT23     276      MECN     H11      HGA3     0.090000        1.0080           0
     66395 WT23     276      MECN     H12      HGA3     0.090000        1.0080           0
     66396 WT23     276      MECN     H13      HGA3     0.090000        1.0080           0
     66397 WT23     276      MECN     C2       CG1N1    0.360000       12.0110           0
     66398 WT23     276      MECN     N3       NG1T1   -0.460000       14.0070           0
     66399 WT23     278      MECN     C1       CG331   -0.170000       12.0110           0
     66400 WT23     278      MECN     H11      HGA3     0.090000        1.0080           0
     66401 WT23     278      MECN     H12      HGA3     0.090000        1.0080           0
     66402 WT23     278      MECN     H13      HGA3     0.090000        1.0080           0
     66403 WT23     278      MECN     C2       CG1N1    0.360000       12.0110           0
     66404 WT23     278      MECN     N3       NG1T1   -0.460000       14.0070           0
     66405 WT23     279      MECN     C1       CG331   -0.170000       12.0110           0
     66406 WT23     279      MECN     H11      HGA3     0.090000        1.0080           0
     66407 WT23     279      MECN     H12      HGA3     0.090000        1.0080           0
     66408 WT23     279      MECN     H13      HGA3     0.090000        1.0080           0
     66409 WT23     279      MECN     C2       CG1N1    0.360000       12.0110           0
     66410 WT23     279      MECN     N3       NG1T1   -0.460000       14.0070           0
     66411 WT23     280      MECN     C1       CG331   -0.170000       12.0110           0
     66412 WT23     280      MECN     H11      HGA3     0.090000        1.0080           0
     66413 WT23     280      MECN     H12      HGA3     0.090000        1.0080           0
     66414 WT23     280      MECN     H13      HGA3     0.090000        1.0080           0
     66415 WT23     280      MECN     C2       CG1N1    0.360000       12.0110           0
     66416 WT23     280      MECN     N3       NG1T1   -0.460000       14.0070           0
     66417 WT23     281      MECN     C1       CG331   -0.170000       12.0110           0
     66418 WT23     281      MECN     H11      HGA3     0.090000        1.0080           0
     66419 WT23     281      MECN     H12      HGA3     0.090000        1.0080           0
     66420 WT23     281      MECN     H13      HGA3     0.090000        1.0080           0
     66421 WT23     281      MECN     C2       CG1N1    0.360000       12.0110           0
     66422 WT23     281      MECN     N3       NG1T1   -0.460000       14.0070           0
     66423 WT23     283      MECN     C1       CG331   -0.170000       12.0110           0
     66424 WT23     283      MECN     H11      HGA3     0.090000        1.0080           0
     66425 WT23     283      MECN     H12      HGA3     0.090000        1.0080           0
     66426 WT23     283      MECN     H13      HGA3     0.090000        1.0080           0
     66427 WT23     283      MECN     C2       CG1N1    0.360000       12.0110           0
     66428 WT23     283      MECN     N3       NG1T1   -0.460000       14.0070           0
     66429 WT23     284      MECN     C1       CG331   -0.170000       12.0110           0
     66430 WT23     284      MECN     H11      HGA3     0.090000        1.0080           0
     66431 WT23     284      MECN     H12      HGA3     0.090000        1.0080           0
     66432 WT23     284      MECN     H13      HGA3     0.090000        1.0080           0
     66433 WT23     284      MECN     C2       CG1N1    0.360000       12.0110           0
     66434 WT23     284      MECN     N3       NG1T1   -0.460000       14.0070           0
     66435 WT23     286      MECN     C1       CG331   -0.170000       12.0110           0
     66436 WT23     286      MECN     H11      HGA3     0.090000        1.0080           0
     66437 WT23     286      MECN     H12      HGA3     0.090000        1.0080           0
     66438 WT23     286      MECN     H13      HGA3     0.090000        1.0080           0
     66439 WT23     286      MECN     C2       CG1N1    0.360000       12.0110           0
     66440 WT23     286      MECN     N3       NG1T1   -0.460000       14.0070           0
     66441 WT23     288      MECN     C1       CG331   -0.170000       12.0110           0
     66442 WT23     288      MECN     H11      HGA3     0.090000        1.0080           0
     66443 WT23     288      MECN     H12      HGA3     0.090000        1.0080           0
     66444 WT23     288      MECN     H13      HGA3     0.090000        1.0080           0
     66445 WT23     288      MECN     C2       CG1N1    0.360000       12.0110           0
     66446 WT23     288      MECN     N3       NG1T1   -0.460000       14.0070           0
     66447 WT23     290      MECN     C1       CG331   -0.170000       12.0110           0
     66448 WT23     290      MECN     H11      HGA3     0.090000        1.0080           0
     66449 WT23     290      MECN     H12      HGA3     0.090000        1.0080           0
     66450 WT23     290      MECN     H13      HGA3     0.090000        1.0080           0
     66451 WT23     290      MECN     C2       CG1N1    0.360000       12.0110           0
     66452 WT23     290      MECN     N3       NG1T1   -0.460000       14.0070           0
     66453 WT23     292      MECN     C1       CG331   -0.170000       12.0110           0
     66454 WT23     292      MECN     H11      HGA3     0.090000        1.0080           0
     66455 WT23     292      MECN     H12      HGA3     0.090000        1.0080           0
     66456 WT23     292      MECN     H13      HGA3     0.090000        1.0080           0
     66457 WT23     292      MECN     C2       CG1N1    0.360000       12.0110           0
     66458 WT23     292      MECN     N3       NG1T1   -0.460000       14.0070           0
     66459 WT23     294      MECN     C1       CG331   -0.170000       12.0110           0
     66460 WT23     294      MECN     H11      HGA3     0.090000        1.0080           0
     66461 WT23     294      MECN     H12      HGA3     0.090000        1.0080           0
     66462 WT23     294      MECN     H13      HGA3     0.090000        1.0080           0
     66463 WT23     294      MECN     C2       CG1N1    0.360000       12.0110           0
     66464 WT23     294      MECN     N3       NG1T1   -0.460000       14.0070           0
     66465 WT23     300      MECN     C1       CG331   -0.170000       12.0110           0
     66466 WT23     300      MECN     H11      HGA3     0.090000        1.0080           0
     66467 WT23     300      MECN     H12      HGA3     0.090000        1.0080           0
     66468 WT23     300      MECN     H13      HGA3     0.090000        1.0080           0
     66469 WT23     300      MECN     C2       CG1N1    0.360000       12.0110           0
     66470 WT23     300      MECN     N3       NG1T1   -0.460000       14.0070           0
     66471 WT23     301      MECN     C1       CG331   -0.170000       12.0110           0
     66472 WT23     301      MECN     H11      HGA3     0.090000        1.0080           0
     66473 WT23     301      MECN     H12      HGA3     0.090000        1.0080           0
     66474 WT23     301      MECN     H13      HGA3     0.090000        1.0080           0
     66475 WT23     301      MECN     C2       CG1N1    0.360000       12.0110           0
     66476 WT23     301      MECN     N3       NG1T1   -0.460000       14.0070           0
     66477 WT23     303      MECN     C1       CG331   -0.170000       12.0110           0
     66478 WT23     303      MECN     H11      HGA3     0.090000        1.0080           0
     66479 WT23     303      MECN     H12      HGA3     0.090000        1.0080           0
     66480 WT23     303      MECN     H13      HGA3     0.090000        1.0080           0
     66481 WT23     303      MECN     C2       CG1N1    0.360000       12.0110           0
     66482 WT23     303      MECN     N3       NG1T1   -0.460000       14.0070           0
     66483 WT23     304      MECN     C1       CG331   -0.170000       12.0110           0
     66484 WT23     304      MECN     H11      HGA3     0.090000        1.0080           0
     66485 WT23     304      MECN     H12      HGA3     0.090000        1.0080           0
     66486 WT23     304      MECN     H13      HGA3     0.090000        1.0080           0
     66487 WT23     304      MECN     C2       CG1N1    0.360000       12.0110           0
     66488 WT23     304      MECN     N3       NG1T1   -0.460000       14.0070           0
     66489 WT23     305      MECN     C1       CG331   -0.170000       12.0110           0
     66490 WT23     305      MECN     H11      HGA3     0.090000        1.0080           0
     66491 WT23     305      MECN     H12      HGA3     0.090000        1.0080           0
     66492 WT23     305      MECN     H13      HGA3     0.090000        1.0080           0
     66493 WT23     305      MECN     C2       CG1N1    0.360000       12.0110           0
     66494 WT23     305      MECN     N3       NG1T1   -0.460000       14.0070           0
     66495 WT23     307      MECN     C1       CG331   -0.170000       12.0110           0
     66496 WT23     307      MECN     H11      HGA3     0.090000        1.0080           0
     66497 WT23     307      MECN     H12      HGA3     0.090000        1.0080           0
     66498 WT23     307      MECN     H13      HGA3     0.090000        1.0080           0
     66499 WT23     307      MECN     C2       CG1N1    0.360000       12.0110           0
     66500 WT23     307      MECN     N3       NG1T1   -0.460000       14.0070           0
     66501 WT23     309      MECN     C1       CG331   -0.170000       12.0110           0
     66502 WT23     309      MECN     H11      HGA3     0.090000        1.0080           0
     66503 WT23     309      MECN     H12      HGA3     0.090000        1.0080           0
     66504 WT23     309      MECN     H13      HGA3     0.090000        1.0080           0
     66505 WT23     309      MECN     C2       CG1N1    0.360000       12.0110           0
     66506 WT23     309      MECN     N3       NG1T1   -0.460000       14.0070           0
     66507 WT23     310      MECN     C1       CG331   -0.170000       12.0110           0
     66508 WT23     310      MECN     H11      HGA3     0.090000        1.0080           0
     66509 WT23     310      MECN     H12      HGA3     0.090000        1.0080           0
     66510 WT23     310      MECN     H13      HGA3     0.090000        1.0080           0
     66511 WT23     310      MECN     C2       CG1N1    0.360000       12.0110           0
     66512 WT23     310      MECN     N3       NG1T1   -0.460000       14.0070           0
     66513 WT23     311      MECN     C1       CG331   -0.170000       12.0110           0
     66514 WT23     311      MECN     H11      HGA3     0.090000        1.0080           0
     66515 WT23     311      MECN     H12      HGA3     0.090000        1.0080           0
     66516 WT23     311      MECN     H13      HGA3     0.090000        1.0080           0
     66517 WT23     311      MECN     C2       CG1N1    0.360000       12.0110           0
     66518 WT23     311      MECN     N3       NG1T1   -0.460000       14.0070           0
     66519 WT23     312      MECN     C1       CG331   -0.170000       12.0110           0
     66520 WT23     312      MECN     H11      HGA3     0.090000        1.0080           0
     66521 WT23     312      MECN     H12      HGA3     0.090000        1.0080           0
     66522 WT23     312      MECN     H13      HGA3     0.090000        1.0080           0
     66523 WT23     312      MECN     C2       CG1N1    0.360000       12.0110           0
     66524 WT23     312      MECN     N3       NG1T1   -0.460000       14.0070           0
     66525 WT23     313      MECN     C1       CG331   -0.170000       12.0110           0
     66526 WT23     313      MECN     H11      HGA3     0.090000        1.0080           0
     66527 WT23     313      MECN     H12      HGA3     0.090000        1.0080           0
     66528 WT23     313      MECN     H13      HGA3     0.090000        1.0080           0
     66529 WT23     313      MECN     C2       CG1N1    0.360000       12.0110           0
     66530 WT23     313      MECN     N3       NG1T1   -0.460000       14.0070           0
     66531 WT23     314      MECN     C1       CG331   -0.170000       12.0110           0
     66532 WT23     314      MECN     H11      HGA3     0.090000        1.0080           0
     66533 WT23     314      MECN     H12      HGA3     0.090000        1.0080           0
     66534 WT23     314      MECN     H13      HGA3     0.090000        1.0080           0
     66535 WT23     314      MECN     C2       CG1N1    0.360000       12.0110           0
     66536 WT23     314      MECN     N3       NG1T1   -0.460000       14.0070           0
     66537 WT23     315      MECN     C1       CG331   -0.170000       12.0110           0
     66538 WT23     315      MECN     H11      HGA3     0.090000        1.0080           0
     66539 WT23     315      MECN     H12      HGA3     0.090000        1.0080           0
     66540 WT23     315      MECN     H13      HGA3     0.090000        1.0080           0
     66541 WT23     315      MECN     C2       CG1N1    0.360000       12.0110           0
     66542 WT23     315      MECN     N3       NG1T1   -0.460000       14.0070           0
     66543 WT23     316      MECN     C1       CG331   -0.170000       12.0110           0
     66544 WT23     316      MECN     H11      HGA3     0.090000        1.0080           0
     66545 WT23     316      MECN     H12      HGA3     0.090000        1.0080           0
     66546 WT23     316      MECN     H13      HGA3     0.090000        1.0080           0
     66547 WT23     316      MECN     C2       CG1N1    0.360000       12.0110           0
     66548 WT23     316      MECN     N3       NG1T1   -0.460000       14.0070           0
     66549 WT23     317      MECN     C1       CG331   -0.170000       12.0110           0
     66550 WT23     317      MECN     H11      HGA3     0.090000        1.0080           0
     66551 WT23     317      MECN     H12      HGA3     0.090000        1.0080           0
     66552 WT23     317      MECN     H13      HGA3     0.090000        1.0080           0
     66553 WT23     317      MECN     C2       CG1N1    0.360000       12.0110           0
     66554 WT23     317      MECN     N3       NG1T1   -0.460000       14.0070           0
     66555 WT23     318      MECN     C1       CG331   -0.170000       12.0110           0
     66556 WT23     318      MECN     H11      HGA3     0.090000        1.0080           0
     66557 WT23     318      MECN     H12      HGA3     0.090000        1.0080           0
     66558 WT23     318      MECN     H13      HGA3     0.090000        1.0080           0
     66559 WT23     318      MECN     C2       CG1N1    0.360000       12.0110           0
     66560 WT23     318      MECN     N3       NG1T1   -0.460000       14.0070           0
     66561 WT23     319      MECN     C1       CG331   -0.170000       12.0110           0
     66562 WT23     319      MECN     H11      HGA3     0.090000        1.0080           0
     66563 WT23     319      MECN     H12      HGA3     0.090000        1.0080           0
     66564 WT23     319      MECN     H13      HGA3     0.090000        1.0080           0
     66565 WT23     319      MECN     C2       CG1N1    0.360000       12.0110           0
     66566 WT23     319      MECN     N3       NG1T1   -0.460000       14.0070           0
     66567 WT23     320      MECN     C1       CG331   -0.170000       12.0110           0
     66568 WT23     320      MECN     H11      HGA3     0.090000        1.0080           0
     66569 WT23     320      MECN     H12      HGA3     0.090000        1.0080           0
     66570 WT23     320      MECN     H13      HGA3     0.090000        1.0080           0
     66571 WT23     320      MECN     C2       CG1N1    0.360000       12.0110           0
     66572 WT23     320      MECN     N3       NG1T1   -0.460000       14.0070           0
     66573 WT23     325      MECN     C1       CG331   -0.170000       12.0110           0
     66574 WT23     325      MECN     H11      HGA3     0.090000        1.0080           0
     66575 WT23     325      MECN     H12      HGA3     0.090000        1.0080           0
     66576 WT23     325      MECN     H13      HGA3     0.090000        1.0080           0
     66577 WT23     325      MECN     C2       CG1N1    0.360000       12.0110           0
     66578 WT23     325      MECN     N3       NG1T1   -0.460000       14.0070           0
     66579 WT23     327      MECN     C1       CG331   -0.170000       12.0110           0
     66580 WT23     327      MECN     H11      HGA3     0.090000        1.0080           0
     66581 WT23     327      MECN     H12      HGA3     0.090000        1.0080           0
     66582 WT23     327      MECN     H13      HGA3     0.090000        1.0080           0
     66583 WT23     327      MECN     C2       CG1N1    0.360000       12.0110           0
     66584 WT23     327      MECN     N3       NG1T1   -0.460000       14.0070           0
     66585 WT23     328      MECN     C1       CG331   -0.170000       12.0110           0
     66586 WT23     328      MECN     H11      HGA3     0.090000        1.0080           0
     66587 WT23     328      MECN     H12      HGA3     0.090000        1.0080           0
     66588 WT23     328      MECN     H13      HGA3     0.090000        1.0080           0
     66589 WT23     328      MECN     C2       CG1N1    0.360000       12.0110           0
     66590 WT23     328      MECN     N3       NG1T1   -0.460000       14.0070           0
     66591 WT23     329      MECN     C1       CG331   -0.170000       12.0110           0
     66592 WT23     329      MECN     H11      HGA3     0.090000        1.0080           0
     66593 WT23     329      MECN     H12      HGA3     0.090000        1.0080           0
     66594 WT23     329      MECN     H13      HGA3     0.090000        1.0080           0
     66595 WT23     329      MECN     C2       CG1N1    0.360000       12.0110           0
     66596 WT23     329      MECN     N3       NG1T1   -0.460000       14.0070           0
     66597 WT23     330      MECN     C1       CG331   -0.170000       12.0110           0
     66598 WT23     330      MECN     H11      HGA3     0.090000        1.0080           0
     66599 WT23     330      MECN     H12      HGA3     0.090000        1.0080           0
     66600 WT23     330      MECN     H13      HGA3     0.090000        1.0080           0
     66601 WT23     330      MECN     C2       CG1N1    0.360000       12.0110           0
     66602 WT23     330      MECN     N3       NG1T1   -0.460000       14.0070           0
     66603 WT23     331      MECN     C1       CG331   -0.170000       12.0110           0
     66604 WT23     331      MECN     H11      HGA3     0.090000        1.0080           0
     66605 WT23     331      MECN     H12      HGA3     0.090000        1.0080           0
     66606 WT23     331      MECN     H13      HGA3     0.090000        1.0080           0
     66607 WT23     331      MECN     C2       CG1N1    0.360000       12.0110           0
     66608 WT23     331      MECN     N3       NG1T1   -0.460000       14.0070           0
     66609 WT23     334      MECN     C1       CG331   -0.170000       12.0110           0
     66610 WT23     334      MECN     H11      HGA3     0.090000        1.0080           0
     66611 WT23     334      MECN     H12      HGA3     0.090000        1.0080           0
     66612 WT23     334      MECN     H13      HGA3     0.090000        1.0080           0
     66613 WT23     334      MECN     C2       CG1N1    0.360000       12.0110           0
     66614 WT23     334      MECN     N3       NG1T1   -0.460000       14.0070           0
     66615 WT23     335      MECN     C1       CG331   -0.170000       12.0110           0
     66616 WT23     335      MECN     H11      HGA3     0.090000        1.0080           0
     66617 WT23     335      MECN     H12      HGA3     0.090000        1.0080           0
     66618 WT23     335      MECN     H13      HGA3     0.090000        1.0080           0
     66619 WT23     335      MECN     C2       CG1N1    0.360000       12.0110           0
     66620 WT23     335      MECN     N3       NG1T1   -0.460000       14.0070           0
     66621 WT23     336      MECN     C1       CG331   -0.170000       12.0110           0
     66622 WT23     336      MECN     H11      HGA3     0.090000        1.0080           0
     66623 WT23     336      MECN     H12      HGA3     0.090000        1.0080           0
     66624 WT23     336      MECN     H13      HGA3     0.090000        1.0080           0
     66625 WT23     336      MECN     C2       CG1N1    0.360000       12.0110           0
     66626 WT23     336      MECN     N3       NG1T1   -0.460000       14.0070           0
     66627 WT23     339      MECN     C1       CG331   -0.170000       12.0110           0
     66628 WT23     339      MECN     H11      HGA3     0.090000        1.0080           0
     66629 WT23     339      MECN     H12      HGA3     0.090000        1.0080           0
     66630 WT23     339      MECN     H13      HGA3     0.090000        1.0080           0
     66631 WT23     339      MECN     C2       CG1N1    0.360000       12.0110           0
     66632 WT23     339      MECN     N3       NG1T1   -0.460000       14.0070           0
     66633 WT23     340      MECN     C1       CG331   -0.170000       12.0110           0
     66634 WT23     340      MECN     H11      HGA3     0.090000        1.0080           0
     66635 WT23     340      MECN     H12      HGA3     0.090000        1.0080           0
     66636 WT23     340      MECN     H13      HGA3     0.090000        1.0080           0
     66637 WT23     340      MECN     C2       CG1N1    0.360000       12.0110           0
     66638 WT23     340      MECN     N3       NG1T1   -0.460000       14.0070           0
     66639 WT23     341      MECN     C1       CG331   -0.170000       12.0110           0
     66640 WT23     341      MECN     H11      HGA3     0.090000        1.0080           0
     66641 WT23     341      MECN     H12      HGA3     0.090000        1.0080           0
     66642 WT23     341      MECN     H13      HGA3     0.090000        1.0080           0
     66643 WT23     341      MECN     C2       CG1N1    0.360000       12.0110           0
     66644 WT23     341      MECN     N3       NG1T1   -0.460000       14.0070           0
     66645 WT23     343      MECN     C1       CG331   -0.170000       12.0110           0
     66646 WT23     343      MECN     H11      HGA3     0.090000        1.0080           0
     66647 WT23     343      MECN     H12      HGA3     0.090000        1.0080           0
     66648 WT23     343      MECN     H13      HGA3     0.090000        1.0080           0
     66649 WT23     343      MECN     C2       CG1N1    0.360000       12.0110           0
     66650 WT23     343      MECN     N3       NG1T1   -0.460000       14.0070           0
     66651 WT23     344      MECN     C1       CG331   -0.170000       12.0110           0
     66652 WT23     344      MECN     H11      HGA3     0.090000        1.0080           0
     66653 WT23     344      MECN     H12      HGA3     0.090000        1.0080           0
     66654 WT23     344      MECN     H13      HGA3     0.090000        1.0080           0
     66655 WT23     344      MECN     C2       CG1N1    0.360000       12.0110           0
     66656 WT23     344      MECN     N3       NG1T1   -0.460000       14.0070           0
     66657 WT23     345      MECN     C1       CG331   -0.170000       12.0110           0
     66658 WT23     345      MECN     H11      HGA3     0.090000        1.0080           0
     66659 WT23     345      MECN     H12      HGA3     0.090000        1.0080           0
     66660 WT23     345      MECN     H13      HGA3     0.090000        1.0080           0
     66661 WT23     345      MECN     C2       CG1N1    0.360000       12.0110           0
     66662 WT23     345      MECN     N3       NG1T1   -0.460000       14.0070           0
     66663 WT23     347      MECN     C1       CG331   -0.170000       12.0110           0
     66664 WT23     347      MECN     H11      HGA3     0.090000        1.0080           0
     66665 WT23     347      MECN     H12      HGA3     0.090000        1.0080           0
     66666 WT23     347      MECN     H13      HGA3     0.090000        1.0080           0
     66667 WT23     347      MECN     C2       CG1N1    0.360000       12.0110           0
     66668 WT23     347      MECN     N3       NG1T1   -0.460000       14.0070           0
     66669 WT23     349      MECN     C1       CG331   -0.170000       12.0110           0
     66670 WT23     349      MECN     H11      HGA3     0.090000        1.0080           0
     66671 WT23     349      MECN     H12      HGA3     0.090000        1.0080           0
     66672 WT23     349      MECN     H13      HGA3     0.090000        1.0080           0
     66673 WT23     349      MECN     C2       CG1N1    0.360000       12.0110           0
     66674 WT23     349      MECN     N3       NG1T1   -0.460000       14.0070           0
     66675 WT23     350      MECN     C1       CG331   -0.170000       12.0110           0
     66676 WT23     350      MECN     H11      HGA3     0.090000        1.0080           0
     66677 WT23     350      MECN     H12      HGA3     0.090000        1.0080           0
     66678 WT23     350      MECN     H13      HGA3     0.090000        1.0080           0
     66679 WT23     350      MECN     C2       CG1N1    0.360000       12.0110           0
     66680 WT23     350      MECN     N3       NG1T1   -0.460000       14.0070           0
     66681 WT23     351      MECN     C1       CG331   -0.170000       12.0110           0
     66682 WT23     351      MECN     H11      HGA3     0.090000        1.0080           0
     66683 WT23     351      MECN     H12      HGA3     0.090000        1.0080           0
     66684 WT23     351      MECN     H13      HGA3     0.090000        1.0080           0
     66685 WT23     351      MECN     C2       CG1N1    0.360000       12.0110           0
     66686 WT23     351      MECN     N3       NG1T1   -0.460000       14.0070           0
     66687 WT23     353      MECN     C1       CG331   -0.170000       12.0110           0
     66688 WT23     353      MECN     H11      HGA3     0.090000        1.0080           0
     66689 WT23     353      MECN     H12      HGA3     0.090000        1.0080           0
     66690 WT23     353      MECN     H13      HGA3     0.090000        1.0080           0
     66691 WT23     353      MECN     C2       CG1N1    0.360000       12.0110           0
     66692 WT23     353      MECN     N3       NG1T1   -0.460000       14.0070           0
     66693 WT23     355      MECN     C1       CG331   -0.170000       12.0110           0
     66694 WT23     355      MECN     H11      HGA3     0.090000        1.0080           0
     66695 WT23     355      MECN     H12      HGA3     0.090000        1.0080           0
     66696 WT23     355      MECN     H13      HGA3     0.090000        1.0080           0
     66697 WT23     355      MECN     C2       CG1N1    0.360000       12.0110           0
     66698 WT23     355      MECN     N3       NG1T1   -0.460000       14.0070           0
     66699 WT23     358      MECN     C1       CG331   -0.170000       12.0110           0
     66700 WT23     358      MECN     H11      HGA3     0.090000        1.0080           0
     66701 WT23     358      MECN     H12      HGA3     0.090000        1.0080           0
     66702 WT23     358      MECN     H13      HGA3     0.090000        1.0080           0
     66703 WT23     358      MECN     C2       CG1N1    0.360000       12.0110           0
     66704 WT23     358      MECN     N3       NG1T1   -0.460000       14.0070           0
     66705 WT23     359      MECN     C1       CG331   -0.170000       12.0110           0
     66706 WT23     359      MECN     H11      HGA3     0.090000        1.0080           0
     66707 WT23     359      MECN     H12      HGA3     0.090000        1.0080           0
     66708 WT23     359      MECN     H13      HGA3     0.090000        1.0080           0
     66709 WT23     359      MECN     C2       CG1N1    0.360000       12.0110           0
     66710 WT23     359      MECN     N3       NG1T1   -0.460000       14.0070           0
     66711 WT23     360      MECN     C1       CG331   -0.170000       12.0110           0
     66712 WT23     360      MECN     H11      HGA3     0.090000        1.0080           0
     66713 WT23     360      MECN     H12      HGA3     0.090000        1.0080           0
     66714 WT23     360      MECN     H13      HGA3     0.090000        1.0080           0
     66715 WT23     360      MECN     C2       CG1N1    0.360000       12.0110           0
     66716 WT23     360      MECN     N3       NG1T1   -0.460000       14.0070           0
     66717 WT23     361      MECN     C1       CG331   -0.170000       12.0110           0
     66718 WT23     361      MECN     H11      HGA3     0.090000        1.0080           0
     66719 WT23     361      MECN     H12      HGA3     0.090000        1.0080           0
     66720 WT23     361      MECN     H13      HGA3     0.090000        1.0080           0
     66721 WT23     361      MECN     C2       CG1N1    0.360000       12.0110           0
     66722 WT23     361      MECN     N3       NG1T1   -0.460000       14.0070           0
     66723 WT23     362      MECN     C1       CG331   -0.170000       12.0110           0
     66724 WT23     362      MECN     H11      HGA3     0.090000        1.0080           0
     66725 WT23     362      MECN     H12      HGA3     0.090000        1.0080           0
     66726 WT23     362      MECN     H13      HGA3     0.090000        1.0080           0
     66727 WT23     362      MECN     C2       CG1N1    0.360000       12.0110           0
     66728 WT23     362      MECN     N3       NG1T1   -0.460000       14.0070           0
     66729 WT23     363      MECN     C1       CG331   -0.170000       12.0110           0
     66730 WT23     363      MECN     H11      HGA3     0.090000        1.0080           0
     66731 WT23     363      MECN     H12      HGA3     0.090000        1.0080           0
     66732 WT23     363      MECN     H13      HGA3     0.090000        1.0080           0
     66733 WT23     363      MECN     C2       CG1N1    0.360000       12.0110           0
     66734 WT23     363      MECN     N3       NG1T1   -0.460000       14.0070           0
     66735 WT23     364      MECN     C1       CG331   -0.170000       12.0110           0
     66736 WT23     364      MECN     H11      HGA3     0.090000        1.0080           0
     66737 WT23     364      MECN     H12      HGA3     0.090000        1.0080           0
     66738 WT23     364      MECN     H13      HGA3     0.090000        1.0080           0
     66739 WT23     364      MECN     C2       CG1N1    0.360000       12.0110           0
     66740 WT23     364      MECN     N3       NG1T1   -0.460000       14.0070           0
     66741 WT23     365      MECN     C1       CG331   -0.170000       12.0110           0
     66742 WT23     365      MECN     H11      HGA3     0.090000        1.0080           0
     66743 WT23     365      MECN     H12      HGA3     0.090000        1.0080           0
     66744 WT23     365      MECN     H13      HGA3     0.090000        1.0080           0
     66745 WT23     365      MECN     C2       CG1N1    0.360000       12.0110           0
     66746 WT23     365      MECN     N3       NG1T1   -0.460000       14.0070           0
     66747 WT23     366      MECN     C1       CG331   -0.170000       12.0110           0
     66748 WT23     366      MECN     H11      HGA3     0.090000        1.0080           0
     66749 WT23     366      MECN     H12      HGA3     0.090000        1.0080           0
     66750 WT23     366      MECN     H13      HGA3     0.090000        1.0080           0
     66751 WT23     366      MECN     C2       CG1N1    0.360000       12.0110           0
     66752 WT23     366      MECN     N3       NG1T1   -0.460000       14.0070           0
     66753 WT23     367      MECN     C1       CG331   -0.170000       12.0110           0
     66754 WT23     367      MECN     H11      HGA3     0.090000        1.0080           0
     66755 WT23     367      MECN     H12      HGA3     0.090000        1.0080           0
     66756 WT23     367      MECN     H13      HGA3     0.090000        1.0080           0
     66757 WT23     367      MECN     C2       CG1N1    0.360000       12.0110           0
     66758 WT23     367      MECN     N3       NG1T1   -0.460000       14.0070           0
     66759 WT23     373      MECN     C1       CG331   -0.170000       12.0110           0
     66760 WT23     373      MECN     H11      HGA3     0.090000        1.0080           0
     66761 WT23     373      MECN     H12      HGA3     0.090000        1.0080           0
     66762 WT23     373      MECN     H13      HGA3     0.090000        1.0080           0
     66763 WT23     373      MECN     C2       CG1N1    0.360000       12.0110           0
     66764 WT23     373      MECN     N3       NG1T1   -0.460000       14.0070           0
     66765 WT23     374      MECN     C1       CG331   -0.170000       12.0110           0
     66766 WT23     374      MECN     H11      HGA3     0.090000        1.0080           0
     66767 WT23     374      MECN     H12      HGA3     0.090000        1.0080           0
     66768 WT23     374      MECN     H13      HGA3     0.090000        1.0080           0
     66769 WT23     374      MECN     C2       CG1N1    0.360000       12.0110           0
     66770 WT23     374      MECN     N3       NG1T1   -0.460000       14.0070           0
     66771 WT23     375      MECN     C1       CG331   -0.170000       12.0110           0
     66772 WT23     375      MECN     H11      HGA3     0.090000        1.0080           0
     66773 WT23     375      MECN     H12      HGA3     0.090000        1.0080           0
     66774 WT23     375      MECN     H13      HGA3     0.090000        1.0080           0
     66775 WT23     375      MECN     C2       CG1N1    0.360000       12.0110           0
     66776 WT23     375      MECN     N3       NG1T1   -0.460000       14.0070           0
     66777 WT23     376      MECN     C1       CG331   -0.170000       12.0110           0
     66778 WT23     376      MECN     H11      HGA3     0.090000        1.0080           0
     66779 WT23     376      MECN     H12      HGA3     0.090000        1.0080           0
     66780 WT23     376      MECN     H13      HGA3     0.090000        1.0080           0
     66781 WT23     376      MECN     C2       CG1N1    0.360000       12.0110           0
     66782 WT23     376      MECN     N3       NG1T1   -0.460000       14.0070           0
     66783 WT23     377      MECN     C1       CG331   -0.170000       12.0110           0
     66784 WT23     377      MECN     H11      HGA3     0.090000        1.0080           0
     66785 WT23     377      MECN     H12      HGA3     0.090000        1.0080           0
     66786 WT23     377      MECN     H13      HGA3     0.090000        1.0080           0
     66787 WT23     377      MECN     C2       CG1N1    0.360000       12.0110           0
     66788 WT23     377      MECN     N3       NG1T1   -0.460000       14.0070           0
     66789 WT23     378      MECN     C1       CG331   -0.170000       12.0110           0
     66790 WT23     378      MECN     H11      HGA3     0.090000        1.0080           0
     66791 WT23     378      MECN     H12      HGA3     0.090000        1.0080           0
     66792 WT23     378      MECN     H13      HGA3     0.090000        1.0080           0
     66793 WT23     378      MECN     C2       CG1N1    0.360000       12.0110           0
     66794 WT23     378      MECN     N3       NG1T1   -0.460000       14.0070           0
     66795 WT23     380      MECN     C1       CG331   -0.170000       12.0110           0
     66796 WT23     380      MECN     H11      HGA3     0.090000        1.0080           0
     66797 WT23     380      MECN     H12      HGA3     0.090000        1.0080           0
     66798 WT23     380      MECN     H13      HGA3     0.090000        1.0080           0
     66799 WT23     380      MECN     C2       CG1N1    0.360000       12.0110           0
     66800 WT23     380      MECN     N3       NG1T1   -0.460000       14.0070           0
     66801 WT23     381      MECN     C1       CG331   -0.170000       12.0110           0
     66802 WT23     381      MECN     H11      HGA3     0.090000        1.0080           0
     66803 WT23     381      MECN     H12      HGA3     0.090000        1.0080           0
     66804 WT23     381      MECN     H13      HGA3     0.090000        1.0080           0
     66805 WT23     381      MECN     C2       CG1N1    0.360000       12.0110           0
     66806 WT23     381      MECN     N3       NG1T1   -0.460000       14.0070           0
     66807 WT23     383      MECN     C1       CG331   -0.170000       12.0110           0
     66808 WT23     383      MECN     H11      HGA3     0.090000        1.0080           0
     66809 WT23     383      MECN     H12      HGA3     0.090000        1.0080           0
     66810 WT23     383      MECN     H13      HGA3     0.090000        1.0080           0
     66811 WT23     383      MECN     C2       CG1N1    0.360000       12.0110           0
     66812 WT23     383      MECN     N3       NG1T1   -0.460000       14.0070           0
     66813 WT23     384      MECN     C1       CG331   -0.170000       12.0110           0
     66814 WT23     384      MECN     H11      HGA3     0.090000        1.0080           0
     66815 WT23     384      MECN     H12      HGA3     0.090000        1.0080           0
     66816 WT23     384      MECN     H13      HGA3     0.090000        1.0080           0
     66817 WT23     384      MECN     C2       CG1N1    0.360000       12.0110           0
     66818 WT23     384      MECN     N3       NG1T1   -0.460000       14.0070           0
     66819 WT23     385      MECN     C1       CG331   -0.170000       12.0110           0
     66820 WT23     385      MECN     H11      HGA3     0.090000        1.0080           0
     66821 WT23     385      MECN     H12      HGA3     0.090000        1.0080           0
     66822 WT23     385      MECN     H13      HGA3     0.090000        1.0080           0
     66823 WT23     385      MECN     C2       CG1N1    0.360000       12.0110           0
     66824 WT23     385      MECN     N3       NG1T1   -0.460000       14.0070           0
     66825 WT23     386      MECN     C1       CG331   -0.170000       12.0110           0
     66826 WT23     386      MECN     H11      HGA3     0.090000        1.0080           0
     66827 WT23     386      MECN     H12      HGA3     0.090000        1.0080           0
     66828 WT23     386      MECN     H13      HGA3     0.090000        1.0080           0
     66829 WT23     386      MECN     C2       CG1N1    0.360000       12.0110           0
     66830 WT23     386      MECN     N3       NG1T1   -0.460000       14.0070           0
     66831 WT23     393      MECN     C1       CG331   -0.170000       12.0110           0
     66832 WT23     393      MECN     H11      HGA3     0.090000        1.0080           0
     66833 WT23     393      MECN     H12      HGA3     0.090000        1.0080           0
     66834 WT23     393      MECN     H13      HGA3     0.090000        1.0080           0
     66835 WT23     393      MECN     C2       CG1N1    0.360000       12.0110           0
     66836 WT23     393      MECN     N3       NG1T1   -0.460000       14.0070           0
     66837 WT23     394      MECN     C1       CG331   -0.170000       12.0110           0
     66838 WT23     394      MECN     H11      HGA3     0.090000        1.0080           0
     66839 WT23     394      MECN     H12      HGA3     0.090000        1.0080           0
     66840 WT23     394      MECN     H13      HGA3     0.090000        1.0080           0
     66841 WT23     394      MECN     C2       CG1N1    0.360000       12.0110           0
     66842 WT23     394      MECN     N3       NG1T1   -0.460000       14.0070           0
     66843 WT23     399      MECN     C1       CG331   -0.170000       12.0110           0
     66844 WT23     399      MECN     H11      HGA3     0.090000        1.0080           0
     66845 WT23     399      MECN     H12      HGA3     0.090000        1.0080           0
     66846 WT23     399      MECN     H13      HGA3     0.090000        1.0080           0
     66847 WT23     399      MECN     C2       CG1N1    0.360000       12.0110           0
     66848 WT23     399      MECN     N3       NG1T1   -0.460000       14.0070           0
     66849 WT23     403      MECN     C1       CG331   -0.170000       12.0110           0
     66850 WT23     403      MECN     H11      HGA3     0.090000        1.0080           0
     66851 WT23     403      MECN     H12      HGA3     0.090000        1.0080           0
     66852 WT23     403      MECN     H13      HGA3     0.090000        1.0080           0
     66853 WT23     403      MECN     C2       CG1N1    0.360000       12.0110           0
     66854 WT23     403      MECN     N3       NG1T1   -0.460000       14.0070           0
     66855 WT23     405      MECN     C1       CG331   -0.170000       12.0110           0
     66856 WT23     405      MECN     H11      HGA3     0.090000        1.0080           0
     66857 WT23     405      MECN     H12      HGA3     0.090000        1.0080           0
     66858 WT23     405      MECN     H13      HGA3     0.090000        1.0080           0
     66859 WT23     405      MECN     C2       CG1N1    0.360000       12.0110           0
     66860 WT23     405      MECN     N3       NG1T1   -0.460000       14.0070           0
     66861 WT23     406      MECN     C1       CG331   -0.170000       12.0110           0
     66862 WT23     406      MECN     H11      HGA3     0.090000        1.0080           0
     66863 WT23     406      MECN     H12      HGA3     0.090000        1.0080           0
     66864 WT23     406      MECN     H13      HGA3     0.090000        1.0080           0
     66865 WT23     406      MECN     C2       CG1N1    0.360000       12.0110           0
     66866 WT23     406      MECN     N3       NG1T1   -0.460000       14.0070           0
     66867 WT23     407      MECN     C1       CG331   -0.170000       12.0110           0
     66868 WT23     407      MECN     H11      HGA3     0.090000        1.0080           0
     66869 WT23     407      MECN     H12      HGA3     0.090000        1.0080           0
     66870 WT23     407      MECN     H13      HGA3     0.090000        1.0080           0
     66871 WT23     407      MECN     C2       CG1N1    0.360000       12.0110           0
     66872 WT23     407      MECN     N3       NG1T1   -0.460000       14.0070           0
     66873 WT23     408      MECN     C1       CG331   -0.170000       12.0110           0
     66874 WT23     408      MECN     H11      HGA3     0.090000        1.0080           0
     66875 WT23     408      MECN     H12      HGA3     0.090000        1.0080           0
     66876 WT23     408      MECN     H13      HGA3     0.090000        1.0080           0
     66877 WT23     408      MECN     C2       CG1N1    0.360000       12.0110           0
     66878 WT23     408      MECN     N3       NG1T1   -0.460000       14.0070           0
     66879 WT23     409      MECN     C1       CG331   -0.170000       12.0110           0
     66880 WT23     409      MECN     H11      HGA3     0.090000        1.0080           0
     66881 WT23     409      MECN     H12      HGA3     0.090000        1.0080           0
     66882 WT23     409      MECN     H13      HGA3     0.090000        1.0080           0
     66883 WT23     409      MECN     C2       CG1N1    0.360000       12.0110           0
     66884 WT23     409      MECN     N3       NG1T1   -0.460000       14.0070           0
     66885 WT23     411      MECN     C1       CG331   -0.170000       12.0110           0
     66886 WT23     411      MECN     H11      HGA3     0.090000        1.0080           0
     66887 WT23     411      MECN     H12      HGA3     0.090000        1.0080           0
     66888 WT23     411      MECN     H13      HGA3     0.090000        1.0080           0
     66889 WT23     411      MECN     C2       CG1N1    0.360000       12.0110           0
     66890 WT23     411      MECN     N3       NG1T1   -0.460000       14.0070           0
     66891 WT23     412      MECN     C1       CG331   -0.170000       12.0110           0
     66892 WT23     412      MECN     H11      HGA3     0.090000        1.0080           0
     66893 WT23     412      MECN     H12      HGA3     0.090000        1.0080           0
     66894 WT23     412      MECN     H13      HGA3     0.090000        1.0080           0
     66895 WT23     412      MECN     C2       CG1N1    0.360000       12.0110           0
     66896 WT23     412      MECN     N3       NG1T1   -0.460000       14.0070           0
     66897 WT23     413      MECN     C1       CG331   -0.170000       12.0110           0
     66898 WT23     413      MECN     H11      HGA3     0.090000        1.0080           0
     66899 WT23     413      MECN     H12      HGA3     0.090000        1.0080           0
     66900 WT23     413      MECN     H13      HGA3     0.090000        1.0080           0
     66901 WT23     413      MECN     C2       CG1N1    0.360000       12.0110           0
     66902 WT23     413      MECN     N3       NG1T1   -0.460000       14.0070           0
     66903 WT23     417      MECN     C1       CG331   -0.170000       12.0110           0
     66904 WT23     417      MECN     H11      HGA3     0.090000        1.0080           0
     66905 WT23     417      MECN     H12      HGA3     0.090000        1.0080           0
     66906 WT23     417      MECN     H13      HGA3     0.090000        1.0080           0
     66907 WT23     417      MECN     C2       CG1N1    0.360000       12.0110           0
     66908 WT23     417      MECN     N3       NG1T1   -0.460000       14.0070           0
     66909 WT23     418      MECN     C1       CG331   -0.170000       12.0110           0
     66910 WT23     418      MECN     H11      HGA3     0.090000        1.0080           0
     66911 WT23     418      MECN     H12      HGA3     0.090000        1.0080           0
     66912 WT23     418      MECN     H13      HGA3     0.090000        1.0080           0
     66913 WT23     418      MECN     C2       CG1N1    0.360000       12.0110           0
     66914 WT23     418      MECN     N3       NG1T1   -0.460000       14.0070           0
     66915 WT23     419      MECN     C1       CG331   -0.170000       12.0110           0
     66916 WT23     419      MECN     H11      HGA3     0.090000        1.0080           0
     66917 WT23     419      MECN     H12      HGA3     0.090000        1.0080           0
     66918 WT23     419      MECN     H13      HGA3     0.090000        1.0080           0
     66919 WT23     419      MECN     C2       CG1N1    0.360000       12.0110           0
     66920 WT23     419      MECN     N3       NG1T1   -0.460000       14.0070           0
     66921 WT23     420      MECN     C1       CG331   -0.170000       12.0110           0
     66922 WT23     420      MECN     H11      HGA3     0.090000        1.0080           0
     66923 WT23     420      MECN     H12      HGA3     0.090000        1.0080           0
     66924 WT23     420      MECN     H13      HGA3     0.090000        1.0080           0
     66925 WT23     420      MECN     C2       CG1N1    0.360000       12.0110           0
     66926 WT23     420      MECN     N3       NG1T1   -0.460000       14.0070           0
     66927 WT23     421      MECN     C1       CG331   -0.170000       12.0110           0
     66928 WT23     421      MECN     H11      HGA3     0.090000        1.0080           0
     66929 WT23     421      MECN     H12      HGA3     0.090000        1.0080           0
     66930 WT23     421      MECN     H13      HGA3     0.090000        1.0080           0
     66931 WT23     421      MECN     C2       CG1N1    0.360000       12.0110           0
     66932 WT23     421      MECN     N3       NG1T1   -0.460000       14.0070           0
     66933 WT23     422      MECN     C1       CG331   -0.170000       12.0110           0
     66934 WT23     422      MECN     H11      HGA3     0.090000        1.0080           0
     66935 WT23     422      MECN     H12      HGA3     0.090000        1.0080           0
     66936 WT23     422      MECN     H13      HGA3     0.090000        1.0080           0
     66937 WT23     422      MECN     C2       CG1N1    0.360000       12.0110           0
     66938 WT23     422      MECN     N3       NG1T1   -0.460000       14.0070           0
     66939 WT23     423      MECN     C1       CG331   -0.170000       12.0110           0
     66940 WT23     423      MECN     H11      HGA3     0.090000        1.0080           0
     66941 WT23     423      MECN     H12      HGA3     0.090000        1.0080           0
     66942 WT23     423      MECN     H13      HGA3     0.090000        1.0080           0
     66943 WT23     423      MECN     C2       CG1N1    0.360000       12.0110           0
     66944 WT23     423      MECN     N3       NG1T1   -0.460000       14.0070           0
     66945 WT23     427      MECN     C1       CG331   -0.170000       12.0110           0
     66946 WT23     427      MECN     H11      HGA3     0.090000        1.0080           0
     66947 WT23     427      MECN     H12      HGA3     0.090000        1.0080           0
     66948 WT23     427      MECN     H13      HGA3     0.090000        1.0080           0
     66949 WT23     427      MECN     C2       CG1N1    0.360000       12.0110           0
     66950 WT23     427      MECN     N3       NG1T1   -0.460000       14.0070           0
     66951 WT23     429      MECN     C1       CG331   -0.170000       12.0110           0
     66952 WT23     429      MECN     H11      HGA3     0.090000        1.0080           0
     66953 WT23     429      MECN     H12      HGA3     0.090000        1.0080           0
     66954 WT23     429      MECN     H13      HGA3     0.090000        1.0080           0
     66955 WT23     429      MECN     C2       CG1N1    0.360000       12.0110           0
     66956 WT23     429      MECN     N3       NG1T1   -0.460000       14.0070           0
     66957 WT23     431      MECN     C1       CG331   -0.170000       12.0110           0
     66958 WT23     431      MECN     H11      HGA3     0.090000        1.0080           0
     66959 WT23     431      MECN     H12      HGA3     0.090000        1.0080           0
     66960 WT23     431      MECN     H13      HGA3     0.090000        1.0080           0
     66961 WT23     431      MECN     C2       CG1N1    0.360000       12.0110           0
     66962 WT23     431      MECN     N3       NG1T1   -0.460000       14.0070           0
     66963 WT23     432      MECN     C1       CG331   -0.170000       12.0110           0
     66964 WT23     432      MECN     H11      HGA3     0.090000        1.0080           0
     66965 WT23     432      MECN     H12      HGA3     0.090000        1.0080           0
     66966 WT23     432      MECN     H13      HGA3     0.090000        1.0080           0
     66967 WT23     432      MECN     C2       CG1N1    0.360000       12.0110           0
     66968 WT23     432      MECN     N3       NG1T1   -0.460000       14.0070           0
     66969 WT23     433      MECN     C1       CG331   -0.170000       12.0110           0
     66970 WT23     433      MECN     H11      HGA3     0.090000        1.0080           0
     66971 WT23     433      MECN     H12      HGA3     0.090000        1.0080           0
     66972 WT23     433      MECN     H13      HGA3     0.090000        1.0080           0
     66973 WT23     433      MECN     C2       CG1N1    0.360000       12.0110           0
     66974 WT23     433      MECN     N3       NG1T1   -0.460000       14.0070           0
     66975 WT23     434      MECN     C1       CG331   -0.170000       12.0110           0
     66976 WT23     434      MECN     H11      HGA3     0.090000        1.0080           0
     66977 WT23     434      MECN     H12      HGA3     0.090000        1.0080           0
     66978 WT23     434      MECN     H13      HGA3     0.090000        1.0080           0
     66979 WT23     434      MECN     C2       CG1N1    0.360000       12.0110           0
     66980 WT23     434      MECN     N3       NG1T1   -0.460000       14.0070           0
     66981 WT23     435      MECN     C1       CG331   -0.170000       12.0110           0
     66982 WT23     435      MECN     H11      HGA3     0.090000        1.0080           0
     66983 WT23     435      MECN     H12      HGA3     0.090000        1.0080           0
     66984 WT23     435      MECN     H13      HGA3     0.090000        1.0080           0
     66985 WT23     435      MECN     C2       CG1N1    0.360000       12.0110           0
     66986 WT23     435      MECN     N3       NG1T1   -0.460000       14.0070           0
     66987 WT23     437      MECN     C1       CG331   -0.170000       12.0110           0
     66988 WT23     437      MECN     H11      HGA3     0.090000        1.0080           0
     66989 WT23     437      MECN     H12      HGA3     0.090000        1.0080           0
     66990 WT23     437      MECN     H13      HGA3     0.090000        1.0080           0
     66991 WT23     437      MECN     C2       CG1N1    0.360000       12.0110           0
     66992 WT23     437      MECN     N3       NG1T1   -0.460000       14.0070           0
     66993 WT23     438      MECN     C1       CG331   -0.170000       12.0110           0
     66994 WT23     438      MECN     H11      HGA3     0.090000        1.0080           0
     66995 WT23     438      MECN     H12      HGA3     0.090000        1.0080           0
     66996 WT23     438      MECN     H13      HGA3     0.090000        1.0080           0
     66997 WT23     438      MECN     C2       CG1N1    0.360000       12.0110           0
     66998 WT23     438      MECN     N3       NG1T1   -0.460000       14.0070           0
     66999 WT23     441      MECN     C1       CG331   -0.170000       12.0110           0
     67000 WT23     441      MECN     H11      HGA3     0.090000        1.0080           0
     67001 WT23     441      MECN     H12      HGA3     0.090000        1.0080           0
     67002 WT23     441      MECN     H13      HGA3     0.090000        1.0080           0
     67003 WT23     441      MECN     C2       CG1N1    0.360000       12.0110           0
     67004 WT23     441      MECN     N3       NG1T1   -0.460000       14.0070           0
     67005 WT23     443      MECN     C1       CG331   -0.170000       12.0110           0
     67006 WT23     443      MECN     H11      HGA3     0.090000        1.0080           0
     67007 WT23     443      MECN     H12      HGA3     0.090000        1.0080           0
     67008 WT23     443      MECN     H13      HGA3     0.090000        1.0080           0
     67009 WT23     443      MECN     C2       CG1N1    0.360000       12.0110           0
     67010 WT23     443      MECN     N3       NG1T1   -0.460000       14.0070           0
     67011 WT23     445      MECN     C1       CG331   -0.170000       12.0110           0
     67012 WT23     445      MECN     H11      HGA3     0.090000        1.0080           0
     67013 WT23     445      MECN     H12      HGA3     0.090000        1.0080           0
     67014 WT23     445      MECN     H13      HGA3     0.090000        1.0080           0
     67015 WT23     445      MECN     C2       CG1N1    0.360000       12.0110           0
     67016 WT23     445      MECN     N3       NG1T1   -0.460000       14.0070           0
     67017 WT23     446      MECN     C1       CG331   -0.170000       12.0110           0
     67018 WT23     446      MECN     H11      HGA3     0.090000        1.0080           0
     67019 WT23     446      MECN     H12      HGA3     0.090000        1.0080           0
     67020 WT23     446      MECN     H13      HGA3     0.090000        1.0080           0
     67021 WT23     446      MECN     C2       CG1N1    0.360000       12.0110           0
     67022 WT23     446      MECN     N3       NG1T1   -0.460000       14.0070           0
     67023 WT23     448      MECN     C1       CG331   -0.170000       12.0110           0
     67024 WT23     448      MECN     H11      HGA3     0.090000        1.0080           0
     67025 WT23     448      MECN     H12      HGA3     0.090000        1.0080           0
     67026 WT23     448      MECN     H13      HGA3     0.090000        1.0080           0
     67027 WT23     448      MECN     C2       CG1N1    0.360000       12.0110           0
     67028 WT23     448      MECN     N3       NG1T1   -0.460000       14.0070           0
     67029 WT23     450      MECN     C1       CG331   -0.170000       12.0110           0
     67030 WT23     450      MECN     H11      HGA3     0.090000        1.0080           0
     67031 WT23     450      MECN     H12      HGA3     0.090000        1.0080           0
     67032 WT23     450      MECN     H13      HGA3     0.090000        1.0080           0
     67033 WT23     450      MECN     C2       CG1N1    0.360000       12.0110           0
     67034 WT23     450      MECN     N3       NG1T1   -0.460000       14.0070           0
     67035 WT23     452      MECN     C1       CG331   -0.170000       12.0110           0
     67036 WT23     452      MECN     H11      HGA3     0.090000        1.0080           0
     67037 WT23     452      MECN     H12      HGA3     0.090000        1.0080           0
     67038 WT23     452      MECN     H13      HGA3     0.090000        1.0080           0
     67039 WT23     452      MECN     C2       CG1N1    0.360000       12.0110           0
     67040 WT23     452      MECN     N3       NG1T1   -0.460000       14.0070           0
     67041 WT23     453      MECN     C1       CG331   -0.170000       12.0110           0
     67042 WT23     453      MECN     H11      HGA3     0.090000        1.0080           0
     67043 WT23     453      MECN     H12      HGA3     0.090000        1.0080           0
     67044 WT23     453      MECN     H13      HGA3     0.090000        1.0080           0
     67045 WT23     453      MECN     C2       CG1N1    0.360000       12.0110           0
     67046 WT23     453      MECN     N3       NG1T1   -0.460000       14.0070           0
     67047 WT23     455      MECN     C1       CG331   -0.170000       12.0110           0
     67048 WT23     455      MECN     H11      HGA3     0.090000        1.0080           0
     67049 WT23     455      MECN     H12      HGA3     0.090000        1.0080           0
     67050 WT23     455      MECN     H13      HGA3     0.090000        1.0080           0
     67051 WT23     455      MECN     C2       CG1N1    0.360000       12.0110           0
     67052 WT23     455      MECN     N3       NG1T1   -0.460000       14.0070           0
     67053 WT23     458      MECN     C1       CG331   -0.170000       12.0110           0
     67054 WT23     458      MECN     H11      HGA3     0.090000        1.0080           0
     67055 WT23     458      MECN     H12      HGA3     0.090000        1.0080           0
     67056 WT23     458      MECN     H13      HGA3     0.090000        1.0080           0
     67057 WT23     458      MECN     C2       CG1N1    0.360000       12.0110           0
     67058 WT23     458      MECN     N3       NG1T1   -0.460000       14.0070           0
     67059 WT23     459      MECN     C1       CG331   -0.170000       12.0110           0
     67060 WT23     459      MECN     H11      HGA3     0.090000        1.0080           0
     67061 WT23     459      MECN     H12      HGA3     0.090000        1.0080           0
     67062 WT23     459      MECN     H13      HGA3     0.090000        1.0080           0
     67063 WT23     459      MECN     C2       CG1N1    0.360000       12.0110           0
     67064 WT23     459      MECN     N3       NG1T1   -0.460000       14.0070           0
     67065 WT23     460      MECN     C1       CG331   -0.170000       12.0110           0
     67066 WT23     460      MECN     H11      HGA3     0.090000        1.0080           0
     67067 WT23     460      MECN     H12      HGA3     0.090000        1.0080           0
     67068 WT23     460      MECN     H13      HGA3     0.090000        1.0080           0
     67069 WT23     460      MECN     C2       CG1N1    0.360000       12.0110           0
     67070 WT23     460      MECN     N3       NG1T1   -0.460000       14.0070           0
     67071 WT23     461      MECN     C1       CG331   -0.170000       12.0110           0
     67072 WT23     461      MECN     H11      HGA3     0.090000        1.0080           0
     67073 WT23     461      MECN     H12      HGA3     0.090000        1.0080           0
     67074 WT23     461      MECN     H13      HGA3     0.090000        1.0080           0
     67075 WT23     461      MECN     C2       CG1N1    0.360000       12.0110           0
     67076 WT23     461      MECN     N3       NG1T1   -0.460000       14.0070           0
     67077 WT23     462      MECN     C1       CG331   -0.170000       12.0110           0
     67078 WT23     462      MECN     H11      HGA3     0.090000        1.0080           0
     67079 WT23     462      MECN     H12      HGA3     0.090000        1.0080           0
     67080 WT23     462      MECN     H13      HGA3     0.090000        1.0080           0
     67081 WT23     462      MECN     C2       CG1N1    0.360000       12.0110           0
     67082 WT23     462      MECN     N3       NG1T1   -0.460000       14.0070           0
     67083 WT23     463      MECN     C1       CG331   -0.170000       12.0110           0
     67084 WT23     463      MECN     H11      HGA3     0.090000        1.0080           0
     67085 WT23     463      MECN     H12      HGA3     0.090000        1.0080           0
     67086 WT23     463      MECN     H13      HGA3     0.090000        1.0080           0
     67087 WT23     463      MECN     C2       CG1N1    0.360000       12.0110           0
     67088 WT23     463      MECN     N3       NG1T1   -0.460000       14.0070           0
     67089 WT23     466      MECN     C1       CG331   -0.170000       12.0110           0
     67090 WT23     466      MECN     H11      HGA3     0.090000        1.0080           0
     67091 WT23     466      MECN     H12      HGA3     0.090000        1.0080           0
     67092 WT23     466      MECN     H13      HGA3     0.090000        1.0080           0
     67093 WT23     466      MECN     C2       CG1N1    0.360000       12.0110           0
     67094 WT23     466      MECN     N3       NG1T1   -0.460000       14.0070           0
     67095 WT23     467      MECN     C1       CG331   -0.170000       12.0110           0
     67096 WT23     467      MECN     H11      HGA3     0.090000        1.0080           0
     67097 WT23     467      MECN     H12      HGA3     0.090000        1.0080           0
     67098 WT23     467      MECN     H13      HGA3     0.090000        1.0080           0
     67099 WT23     467      MECN     C2       CG1N1    0.360000       12.0110           0
     67100 WT23     467      MECN     N3       NG1T1   -0.460000       14.0070           0
     67101 WT23     468      MECN     C1       CG331   -0.170000       12.0110           0
     67102 WT23     468      MECN     H11      HGA3     0.090000        1.0080           0
     67103 WT23     468      MECN     H12      HGA3     0.090000        1.0080           0
     67104 WT23     468      MECN     H13      HGA3     0.090000        1.0080           0
     67105 WT23     468      MECN     C2       CG1N1    0.360000       12.0110           0
     67106 WT23     468      MECN     N3       NG1T1   -0.460000       14.0070           0
     67107 WT23     470      MECN     C1       CG331   -0.170000       12.0110           0
     67108 WT23     470      MECN     H11      HGA3     0.090000        1.0080           0
     67109 WT23     470      MECN     H12      HGA3     0.090000        1.0080           0
     67110 WT23     470      MECN     H13      HGA3     0.090000        1.0080           0
     67111 WT23     470      MECN     C2       CG1N1    0.360000       12.0110           0
     67112 WT23     470      MECN     N3       NG1T1   -0.460000       14.0070           0
     67113 WT23     471      MECN     C1       CG331   -0.170000       12.0110           0
     67114 WT23     471      MECN     H11      HGA3     0.090000        1.0080           0
     67115 WT23     471      MECN     H12      HGA3     0.090000        1.0080           0
     67116 WT23     471      MECN     H13      HGA3     0.090000        1.0080           0
     67117 WT23     471      MECN     C2       CG1N1    0.360000       12.0110           0
     67118 WT23     471      MECN     N3       NG1T1   -0.460000       14.0070           0
     67119 WT23     474      MECN     C1       CG331   -0.170000       12.0110           0
     67120 WT23     474      MECN     H11      HGA3     0.090000        1.0080           0
     67121 WT23     474      MECN     H12      HGA3     0.090000        1.0080           0
     67122 WT23     474      MECN     H13      HGA3     0.090000        1.0080           0
     67123 WT23     474      MECN     C2       CG1N1    0.360000       12.0110           0
     67124 WT23     474      MECN     N3       NG1T1   -0.460000       14.0070           0
     67125 WT23     476      MECN     C1       CG331   -0.170000       12.0110           0
     67126 WT23     476      MECN     H11      HGA3     0.090000        1.0080           0
     67127 WT23     476      MECN     H12      HGA3     0.090000        1.0080           0
     67128 WT23     476      MECN     H13      HGA3     0.090000        1.0080           0
     67129 WT23     476      MECN     C2       CG1N1    0.360000       12.0110           0
     67130 WT23     476      MECN     N3       NG1T1   -0.460000       14.0070           0
     67131 WT23     478      MECN     C1       CG331   -0.170000       12.0110           0
     67132 WT23     478      MECN     H11      HGA3     0.090000        1.0080           0
     67133 WT23     478      MECN     H12      HGA3     0.090000        1.0080           0
     67134 WT23     478      MECN     H13      HGA3     0.090000        1.0080           0
     67135 WT23     478      MECN     C2       CG1N1    0.360000       12.0110           0
     67136 WT23     478      MECN     N3       NG1T1   -0.460000       14.0070           0
     67137 WT23     479      MECN     C1       CG331   -0.170000       12.0110           0
     67138 WT23     479      MECN     H11      HGA3     0.090000        1.0080           0
     67139 WT23     479      MECN     H12      HGA3     0.090000        1.0080           0
     67140 WT23     479      MECN     H13      HGA3     0.090000        1.0080           0
     67141 WT23     479      MECN     C2       CG1N1    0.360000       12.0110           0
     67142 WT23     479      MECN     N3       NG1T1   -0.460000       14.0070           0
     67143 WT23     481      MECN     C1       CG331   -0.170000       12.0110           0
     67144 WT23     481      MECN     H11      HGA3     0.090000        1.0080           0
     67145 WT23     481      MECN     H12      HGA3     0.090000        1.0080           0
     67146 WT23     481      MECN     H13      HGA3     0.090000        1.0080           0
     67147 WT23     481      MECN     C2       CG1N1    0.360000       12.0110           0
     67148 WT23     481      MECN     N3       NG1T1   -0.460000       14.0070           0
     67149 WT23     482      MECN     C1       CG331   -0.170000       12.0110           0
     67150 WT23     482      MECN     H11      HGA3     0.090000        1.0080           0
     67151 WT23     482      MECN     H12      HGA3     0.090000        1.0080           0
     67152 WT23     482      MECN     H13      HGA3     0.090000        1.0080           0
     67153 WT23     482      MECN     C2       CG1N1    0.360000       12.0110           0
     67154 WT23     482      MECN     N3       NG1T1   -0.460000       14.0070           0
     67155 WT23     483      MECN     C1       CG331   -0.170000       12.0110           0
     67156 WT23     483      MECN     H11      HGA3     0.090000        1.0080           0
     67157 WT23     483      MECN     H12      HGA3     0.090000        1.0080           0
     67158 WT23     483      MECN     H13      HGA3     0.090000        1.0080           0
     67159 WT23     483      MECN     C2       CG1N1    0.360000       12.0110           0
     67160 WT23     483      MECN     N3       NG1T1   -0.460000       14.0070           0
     67161 WT23     485      MECN     C1       CG331   -0.170000       12.0110           0
     67162 WT23     485      MECN     H11      HGA3     0.090000        1.0080           0
     67163 WT23     485      MECN     H12      HGA3     0.090000        1.0080           0
     67164 WT23     485      MECN     H13      HGA3     0.090000        1.0080           0
     67165 WT23     485      MECN     C2       CG1N1    0.360000       12.0110           0
     67166 WT23     485      MECN     N3       NG1T1   -0.460000       14.0070           0
     67167 WT23     487      MECN     C1       CG331   -0.170000       12.0110           0
     67168 WT23     487      MECN     H11      HGA3     0.090000        1.0080           0
     67169 WT23     487      MECN     H12      HGA3     0.090000        1.0080           0
     67170 WT23     487      MECN     H13      HGA3     0.090000        1.0080           0
     67171 WT23     487      MECN     C2       CG1N1    0.360000       12.0110           0
     67172 WT23     487      MECN     N3       NG1T1   -0.460000       14.0070           0
     67173 WT23     489      MECN     C1       CG331   -0.170000       12.0110           0
     67174 WT23     489      MECN     H11      HGA3     0.090000        1.0080           0
     67175 WT23     489      MECN     H12      HGA3     0.090000        1.0080           0
     67176 WT23     489      MECN     H13      HGA3     0.090000        1.0080           0
     67177 WT23     489      MECN     C2       CG1N1    0.360000       12.0110           0
     67178 WT23     489      MECN     N3       NG1T1   -0.460000       14.0070           0
     67179 WT23     490      MECN     C1       CG331   -0.170000       12.0110           0
     67180 WT23     490      MECN     H11      HGA3     0.090000        1.0080           0
     67181 WT23     490      MECN     H12      HGA3     0.090000        1.0080           0
     67182 WT23     490      MECN     H13      HGA3     0.090000        1.0080           0
     67183 WT23     490      MECN     C2       CG1N1    0.360000       12.0110           0
     67184 WT23     490      MECN     N3       NG1T1   -0.460000       14.0070           0
     67185 WT23     491      MECN     C1       CG331   -0.170000       12.0110           0
     67186 WT23     491      MECN     H11      HGA3     0.090000        1.0080           0
     67187 WT23     491      MECN     H12      HGA3     0.090000        1.0080           0
     67188 WT23     491      MECN     H13      HGA3     0.090000        1.0080           0
     67189 WT23     491      MECN     C2       CG1N1    0.360000       12.0110           0
     67190 WT23     491      MECN     N3       NG1T1   -0.460000       14.0070           0
     67191 WT23     493      MECN     C1       CG331   -0.170000       12.0110           0
     67192 WT23     493      MECN     H11      HGA3     0.090000        1.0080           0
     67193 WT23     493      MECN     H12      HGA3     0.090000        1.0080           0
     67194 WT23     493      MECN     H13      HGA3     0.090000        1.0080           0
     67195 WT23     493      MECN     C2       CG1N1    0.360000       12.0110           0
     67196 WT23     493      MECN     N3       NG1T1   -0.460000       14.0070           0
     67197 WT23     495      MECN     C1       CG331   -0.170000       12.0110           0
     67198 WT23     495      MECN     H11      HGA3     0.090000        1.0080           0
     67199 WT23     495      MECN     H12      HGA3     0.090000        1.0080           0
     67200 WT23     495      MECN     H13      HGA3     0.090000        1.0080           0
     67201 WT23     495      MECN     C2       CG1N1    0.360000       12.0110           0
     67202 WT23     495      MECN     N3       NG1T1   -0.460000       14.0070           0
     67203 WT23     496      MECN     C1       CG331   -0.170000       12.0110           0
     67204 WT23     496      MECN     H11      HGA3     0.090000        1.0080           0
     67205 WT23     496      MECN     H12      HGA3     0.090000        1.0080           0
     67206 WT23     496      MECN     H13      HGA3     0.090000        1.0080           0
     67207 WT23     496      MECN     C2       CG1N1    0.360000       12.0110           0
     67208 WT23     496      MECN     N3       NG1T1   -0.460000       14.0070           0
     67209 WT23     498      MECN     C1       CG331   -0.170000       12.0110           0
     67210 WT23     498      MECN     H11      HGA3     0.090000        1.0080           0
     67211 WT23     498      MECN     H12      HGA3     0.090000        1.0080           0
     67212 WT23     498      MECN     H13      HGA3     0.090000        1.0080           0
     67213 WT23     498      MECN     C2       CG1N1    0.360000       12.0110           0
     67214 WT23     498      MECN     N3       NG1T1   -0.460000       14.0070           0
     67215 WT23     499      MECN     C1       CG331   -0.170000       12.0110           0
     67216 WT23     499      MECN     H11      HGA3     0.090000        1.0080           0
     67217 WT23     499      MECN     H12      HGA3     0.090000        1.0080           0
     67218 WT23     499      MECN     H13      HGA3     0.090000        1.0080           0
     67219 WT23     499      MECN     C2       CG1N1    0.360000       12.0110           0
     67220 WT23     499      MECN     N3       NG1T1   -0.460000       14.0070           0
     67221 WT23     501      MECN     C1       CG331   -0.170000       12.0110           0
     67222 WT23     501      MECN     H11      HGA3     0.090000        1.0080           0
     67223 WT23     501      MECN     H12      HGA3     0.090000        1.0080           0
     67224 WT23     501      MECN     H13      HGA3     0.090000        1.0080           0
     67225 WT23     501      MECN     C2       CG1N1    0.360000       12.0110           0
     67226 WT23     501      MECN     N3       NG1T1   -0.460000       14.0070           0
     67227 WT23     502      MECN     C1       CG331   -0.170000       12.0110           0
     67228 WT23     502      MECN     H11      HGA3     0.090000        1.0080           0
     67229 WT23     502      MECN     H12      HGA3     0.090000        1.0080           0
     67230 WT23     502      MECN     H13      HGA3     0.090000        1.0080           0
     67231 WT23     502      MECN     C2       CG1N1    0.360000       12.0110           0
     67232 WT23     502      MECN     N3       NG1T1   -0.460000       14.0070           0
     67233 WT23     503      MECN     C1       CG331   -0.170000       12.0110           0
     67234 WT23     503      MECN     H11      HGA3     0.090000        1.0080           0
     67235 WT23     503      MECN     H12      HGA3     0.090000        1.0080           0
     67236 WT23     503      MECN     H13      HGA3     0.090000        1.0080           0
     67237 WT23     503      MECN     C2       CG1N1    0.360000       12.0110           0
     67238 WT23     503      MECN     N3       NG1T1   -0.460000       14.0070           0
     67239 WT23     504      MECN     C1       CG331   -0.170000       12.0110           0
     67240 WT23     504      MECN     H11      HGA3     0.090000        1.0080           0
     67241 WT23     504      MECN     H12      HGA3     0.090000        1.0080           0
     67242 WT23     504      MECN     H13      HGA3     0.090000        1.0080           0
     67243 WT23     504      MECN     C2       CG1N1    0.360000       12.0110           0
     67244 WT23     504      MECN     N3       NG1T1   -0.460000       14.0070           0
     67245 WT23     505      MECN     C1       CG331   -0.170000       12.0110           0
     67246 WT23     505      MECN     H11      HGA3     0.090000        1.0080           0
     67247 WT23     505      MECN     H12      HGA3     0.090000        1.0080           0
     67248 WT23     505      MECN     H13      HGA3     0.090000        1.0080           0
     67249 WT23     505      MECN     C2       CG1N1    0.360000       12.0110           0
     67250 WT23     505      MECN     N3       NG1T1   -0.460000       14.0070           0
     67251 WT23     506      MECN     C1       CG331   -0.170000       12.0110           0
     67252 WT23     506      MECN     H11      HGA3     0.090000        1.0080           0
     67253 WT23     506      MECN     H12      HGA3     0.090000        1.0080           0
     67254 WT23     506      MECN     H13      HGA3     0.090000        1.0080           0
     67255 WT23     506      MECN     C2       CG1N1    0.360000       12.0110           0
     67256 WT23     506      MECN     N3       NG1T1   -0.460000       14.0070           0
     67257 WT23     507      MECN     C1       CG331   -0.170000       12.0110           0
     67258 WT23     507      MECN     H11      HGA3     0.090000        1.0080           0
     67259 WT23     507      MECN     H12      HGA3     0.090000        1.0080           0
     67260 WT23     507      MECN     H13      HGA3     0.090000        1.0080           0
     67261 WT23     507      MECN     C2       CG1N1    0.360000       12.0110           0
     67262 WT23     507      MECN     N3       NG1T1   -0.460000       14.0070           0
     67263 WT23     509      MECN     C1       CG331   -0.170000       12.0110           0
     67264 WT23     509      MECN     H11      HGA3     0.090000        1.0080           0
     67265 WT23     509      MECN     H12      HGA3     0.090000        1.0080           0
     67266 WT23     509      MECN     H13      HGA3     0.090000        1.0080           0
     67267 WT23     509      MECN     C2       CG1N1    0.360000       12.0110           0
     67268 WT23     509      MECN     N3       NG1T1   -0.460000       14.0070           0
     67269 WT23     510      MECN     C1       CG331   -0.170000       12.0110           0
     67270 WT23     510      MECN     H11      HGA3     0.090000        1.0080           0
     67271 WT23     510      MECN     H12      HGA3     0.090000        1.0080           0
     67272 WT23     510      MECN     H13      HGA3     0.090000        1.0080           0
     67273 WT23     510      MECN     C2       CG1N1    0.360000       12.0110           0
     67274 WT23     510      MECN     N3       NG1T1   -0.460000       14.0070           0
     67275 WT23     512      MECN     C1       CG331   -0.170000       12.0110           0
     67276 WT23     512      MECN     H11      HGA3     0.090000        1.0080           0
     67277 WT23     512      MECN     H12      HGA3     0.090000        1.0080           0
     67278 WT23     512      MECN     H13      HGA3     0.090000        1.0080           0
     67279 WT23     512      MECN     C2       CG1N1    0.360000       12.0110           0
     67280 WT23     512      MECN     N3       NG1T1   -0.460000       14.0070           0
     67281 WT23     514      MECN     C1       CG331   -0.170000       12.0110           0
     67282 WT23     514      MECN     H11      HGA3     0.090000        1.0080           0
     67283 WT23     514      MECN     H12      HGA3     0.090000        1.0080           0
     67284 WT23     514      MECN     H13      HGA3     0.090000        1.0080           0
     67285 WT23     514      MECN     C2       CG1N1    0.360000       12.0110           0
     67286 WT23     514      MECN     N3       NG1T1   -0.460000       14.0070           0
     67287 WT23     515      MECN     C1       CG331   -0.170000       12.0110           0
     67288 WT23     515      MECN     H11      HGA3     0.090000        1.0080           0
     67289 WT23     515      MECN     H12      HGA3     0.090000        1.0080           0
     67290 WT23     515      MECN     H13      HGA3     0.090000        1.0080           0
     67291 WT23     515      MECN     C2       CG1N1    0.360000       12.0110           0
     67292 WT23     515      MECN     N3       NG1T1   -0.460000       14.0070           0
     67293 WT23     516      MECN     C1       CG331   -0.170000       12.0110           0
     67294 WT23     516      MECN     H11      HGA3     0.090000        1.0080           0
     67295 WT23     516      MECN     H12      HGA3     0.090000        1.0080           0
     67296 WT23     516      MECN     H13      HGA3     0.090000        1.0080           0
     67297 WT23     516      MECN     C2       CG1N1    0.360000       12.0110           0
     67298 WT23     516      MECN     N3       NG1T1   -0.460000       14.0070           0
     67299 WT23     517      MECN     C1       CG331   -0.170000       12.0110           0
     67300 WT23     517      MECN     H11      HGA3     0.090000        1.0080           0
     67301 WT23     517      MECN     H12      HGA3     0.090000        1.0080           0
     67302 WT23     517      MECN     H13      HGA3     0.090000        1.0080           0
     67303 WT23     517      MECN     C2       CG1N1    0.360000       12.0110           0
     67304 WT23     517      MECN     N3       NG1T1   -0.460000       14.0070           0
     67305 WT23     520      MECN     C1       CG331   -0.170000       12.0110           0
     67306 WT23     520      MECN     H11      HGA3     0.090000        1.0080           0
     67307 WT23     520      MECN     H12      HGA3     0.090000        1.0080           0
     67308 WT23     520      MECN     H13      HGA3     0.090000        1.0080           0
     67309 WT23     520      MECN     C2       CG1N1    0.360000       12.0110           0
     67310 WT23     520      MECN     N3       NG1T1   -0.460000       14.0070           0
     67311 WT23     521      MECN     C1       CG331   -0.170000       12.0110           0
     67312 WT23     521      MECN     H11      HGA3     0.090000        1.0080           0
     67313 WT23     521      MECN     H12      HGA3     0.090000        1.0080           0
     67314 WT23     521      MECN     H13      HGA3     0.090000        1.0080           0
     67315 WT23     521      MECN     C2       CG1N1    0.360000       12.0110           0
     67316 WT23     521      MECN     N3       NG1T1   -0.460000       14.0070           0
     67317 WT23     522      MECN     C1       CG331   -0.170000       12.0110           0
     67318 WT23     522      MECN     H11      HGA3     0.090000        1.0080           0
     67319 WT23     522      MECN     H12      HGA3     0.090000        1.0080           0
     67320 WT23     522      MECN     H13      HGA3     0.090000        1.0080           0
     67321 WT23     522      MECN     C2       CG1N1    0.360000       12.0110           0
     67322 WT23     522      MECN     N3       NG1T1   -0.460000       14.0070           0
     67323 WT23     523      MECN     C1       CG331   -0.170000       12.0110           0
     67324 WT23     523      MECN     H11      HGA3     0.090000        1.0080           0
     67325 WT23     523      MECN     H12      HGA3     0.090000        1.0080           0
     67326 WT23     523      MECN     H13      HGA3     0.090000        1.0080           0
     67327 WT23     523      MECN     C2       CG1N1    0.360000       12.0110           0
     67328 WT23     523      MECN     N3       NG1T1   -0.460000       14.0070           0
     67329 WT23     524      MECN     C1       CG331   -0.170000       12.0110           0
     67330 WT23     524      MECN     H11      HGA3     0.090000        1.0080           0
     67331 WT23     524      MECN     H12      HGA3     0.090000        1.0080           0
     67332 WT23     524      MECN     H13      HGA3     0.090000        1.0080           0
     67333 WT23     524      MECN     C2       CG1N1    0.360000       12.0110           0
     67334 WT23     524      MECN     N3       NG1T1   -0.460000       14.0070           0
     67335 WT23     525      MECN     C1       CG331   -0.170000       12.0110           0
     67336 WT23     525      MECN     H11      HGA3     0.090000        1.0080           0
     67337 WT23     525      MECN     H12      HGA3     0.090000        1.0080           0
     67338 WT23     525      MECN     H13      HGA3     0.090000        1.0080           0
     67339 WT23     525      MECN     C2       CG1N1    0.360000       12.0110           0
     67340 WT23     525      MECN     N3       NG1T1   -0.460000       14.0070           0
     67341 WT23     527      MECN     C1       CG331   -0.170000       12.0110           0
     67342 WT23     527      MECN     H11      HGA3     0.090000        1.0080           0
     67343 WT23     527      MECN     H12      HGA3     0.090000        1.0080           0
     67344 WT23     527      MECN     H13      HGA3     0.090000        1.0080           0
     67345 WT23     527      MECN     C2       CG1N1    0.360000       12.0110           0
     67346 WT23     527      MECN     N3       NG1T1   -0.460000       14.0070           0
     67347 WT23     528      MECN     C1       CG331   -0.170000       12.0110           0
     67348 WT23     528      MECN     H11      HGA3     0.090000        1.0080           0
     67349 WT23     528      MECN     H12      HGA3     0.090000        1.0080           0
     67350 WT23     528      MECN     H13      HGA3     0.090000        1.0080           0
     67351 WT23     528      MECN     C2       CG1N1    0.360000       12.0110           0
     67352 WT23     528      MECN     N3       NG1T1   -0.460000       14.0070           0
     67353 WT23     529      MECN     C1       CG331   -0.170000       12.0110           0
     67354 WT23     529      MECN     H11      HGA3     0.090000        1.0080           0
     67355 WT23     529      MECN     H12      HGA3     0.090000        1.0080           0
     67356 WT23     529      MECN     H13      HGA3     0.090000        1.0080           0
     67357 WT23     529      MECN     C2       CG1N1    0.360000       12.0110           0
     67358 WT23     529      MECN     N3       NG1T1   -0.460000       14.0070           0
     67359 WT23     530      MECN     C1       CG331   -0.170000       12.0110           0
     67360 WT23     530      MECN     H11      HGA3     0.090000        1.0080           0
     67361 WT23     530      MECN     H12      HGA3     0.090000        1.0080           0
     67362 WT23     530      MECN     H13      HGA3     0.090000        1.0080           0
     67363 WT23     530      MECN     C2       CG1N1    0.360000       12.0110           0
     67364 WT23     530      MECN     N3       NG1T1   -0.460000       14.0070           0
     67365 WT23     531      MECN     C1       CG331   -0.170000       12.0110           0
     67366 WT23     531      MECN     H11      HGA3     0.090000        1.0080           0
     67367 WT23     531      MECN     H12      HGA3     0.090000        1.0080           0
     67368 WT23     531      MECN     H13      HGA3     0.090000        1.0080           0
     67369 WT23     531      MECN     C2       CG1N1    0.360000       12.0110           0
     67370 WT23     531      MECN     N3       NG1T1   -0.460000       14.0070           0
     67371 WT23     533      MECN     C1       CG331   -0.170000       12.0110           0
     67372 WT23     533      MECN     H11      HGA3     0.090000        1.0080           0
     67373 WT23     533      MECN     H12      HGA3     0.090000        1.0080           0
     67374 WT23     533      MECN     H13      HGA3     0.090000        1.0080           0
     67375 WT23     533      MECN     C2       CG1N1    0.360000       12.0110           0
     67376 WT23     533      MECN     N3       NG1T1   -0.460000       14.0070           0
     67377 WT23     534      MECN     C1       CG331   -0.170000       12.0110           0
     67378 WT23     534      MECN     H11      HGA3     0.090000        1.0080           0
     67379 WT23     534      MECN     H12      HGA3     0.090000        1.0080           0
     67380 WT23     534      MECN     H13      HGA3     0.090000        1.0080           0
     67381 WT23     534      MECN     C2       CG1N1    0.360000       12.0110           0
     67382 WT23     534      MECN     N3       NG1T1   -0.460000       14.0070           0
     67383 WT23     535      MECN     C1       CG331   -0.170000       12.0110           0
     67384 WT23     535      MECN     H11      HGA3     0.090000        1.0080           0
     67385 WT23     535      MECN     H12      HGA3     0.090000        1.0080           0
     67386 WT23     535      MECN     H13      HGA3     0.090000        1.0080           0
     67387 WT23     535      MECN     C2       CG1N1    0.360000       12.0110           0
     67388 WT23     535      MECN     N3       NG1T1   -0.460000       14.0070           0
     67389 WT23     536      MECN     C1       CG331   -0.170000       12.0110           0
     67390 WT23     536      MECN     H11      HGA3     0.090000        1.0080           0
     67391 WT23     536      MECN     H12      HGA3     0.090000        1.0080           0
     67392 WT23     536      MECN     H13      HGA3     0.090000        1.0080           0
     67393 WT23     536      MECN     C2       CG1N1    0.360000       12.0110           0
     67394 WT23     536      MECN     N3       NG1T1   -0.460000       14.0070           0
     67395 WT23     537      MECN     C1       CG331   -0.170000       12.0110           0
     67396 WT23     537      MECN     H11      HGA3     0.090000        1.0080           0
     67397 WT23     537      MECN     H12      HGA3     0.090000        1.0080           0
     67398 WT23     537      MECN     H13      HGA3     0.090000        1.0080           0
     67399 WT23     537      MECN     C2       CG1N1    0.360000       12.0110           0
     67400 WT23     537      MECN     N3       NG1T1   -0.460000       14.0070           0
     67401 WT23     538      MECN     C1       CG331   -0.170000       12.0110           0
     67402 WT23     538      MECN     H11      HGA3     0.090000        1.0080           0
     67403 WT23     538      MECN     H12      HGA3     0.090000        1.0080           0
     67404 WT23     538      MECN     H13      HGA3     0.090000        1.0080           0
     67405 WT23     538      MECN     C2       CG1N1    0.360000       12.0110           0
     67406 WT23     538      MECN     N3       NG1T1   -0.460000       14.0070           0
     67407 WT23     539      MECN     C1       CG331   -0.170000       12.0110           0
     67408 WT23     539      MECN     H11      HGA3     0.090000        1.0080           0
     67409 WT23     539      MECN     H12      HGA3     0.090000        1.0080           0
     67410 WT23     539      MECN     H13      HGA3     0.090000        1.0080           0
     67411 WT23     539      MECN     C2       CG1N1    0.360000       12.0110           0
     67412 WT23     539      MECN     N3       NG1T1   -0.460000       14.0070           0
     67413 WT23     540      MECN     C1       CG331   -0.170000       12.0110           0
     67414 WT23     540      MECN     H11      HGA3     0.090000        1.0080           0
     67415 WT23     540      MECN     H12      HGA3     0.090000        1.0080           0
     67416 WT23     540      MECN     H13      HGA3     0.090000        1.0080           0
     67417 WT23     540      MECN     C2       CG1N1    0.360000       12.0110           0
     67418 WT23     540      MECN     N3       NG1T1   -0.460000       14.0070           0
     67419 WT23     544      MECN     C1       CG331   -0.170000       12.0110           0
     67420 WT23     544      MECN     H11      HGA3     0.090000        1.0080           0
     67421 WT23     544      MECN     H12      HGA3     0.090000        1.0080           0
     67422 WT23     544      MECN     H13      HGA3     0.090000        1.0080           0
     67423 WT23     544      MECN     C2       CG1N1    0.360000       12.0110           0
     67424 WT23     544      MECN     N3       NG1T1   -0.460000       14.0070           0
     67425 WT23     545      MECN     C1       CG331   -0.170000       12.0110           0
     67426 WT23     545      MECN     H11      HGA3     0.090000        1.0080           0
     67427 WT23     545      MECN     H12      HGA3     0.090000        1.0080           0
     67428 WT23     545      MECN     H13      HGA3     0.090000        1.0080           0
     67429 WT23     545      MECN     C2       CG1N1    0.360000       12.0110           0
     67430 WT23     545      MECN     N3       NG1T1   -0.460000       14.0070           0
     67431 WT23     547      MECN     C1       CG331   -0.170000       12.0110           0
     67432 WT23     547      MECN     H11      HGA3     0.090000        1.0080           0
     67433 WT23     547      MECN     H12      HGA3     0.090000        1.0080           0
     67434 WT23     547      MECN     H13      HGA3     0.090000        1.0080           0
     67435 WT23     547      MECN     C2       CG1N1    0.360000       12.0110           0
     67436 WT23     547      MECN     N3       NG1T1   -0.460000       14.0070           0
     67437 WT23     548      MECN     C1       CG331   -0.170000       12.0110           0
     67438 WT23     548      MECN     H11      HGA3     0.090000        1.0080           0
     67439 WT23     548      MECN     H12      HGA3     0.090000        1.0080           0
     67440 WT23     548      MECN     H13      HGA3     0.090000        1.0080           0
     67441 WT23     548      MECN     C2       CG1N1    0.360000       12.0110           0
     67442 WT23     548      MECN     N3       NG1T1   -0.460000       14.0070           0
     67443 WT23     549      MECN     C1       CG331   -0.170000       12.0110           0
     67444 WT23     549      MECN     H11      HGA3     0.090000        1.0080           0
     67445 WT23     549      MECN     H12      HGA3     0.090000        1.0080           0
     67446 WT23     549      MECN     H13      HGA3     0.090000        1.0080           0
     67447 WT23     549      MECN     C2       CG1N1    0.360000       12.0110           0
     67448 WT23     549      MECN     N3       NG1T1   -0.460000       14.0070           0
     67449 WT23     550      MECN     C1       CG331   -0.170000       12.0110           0
     67450 WT23     550      MECN     H11      HGA3     0.090000        1.0080           0
     67451 WT23     550      MECN     H12      HGA3     0.090000        1.0080           0
     67452 WT23     550      MECN     H13      HGA3     0.090000        1.0080           0
     67453 WT23     550      MECN     C2       CG1N1    0.360000       12.0110           0
     67454 WT23     550      MECN     N3       NG1T1   -0.460000       14.0070           0
     67455 WT23     551      MECN     C1       CG331   -0.170000       12.0110           0
     67456 WT23     551      MECN     H11      HGA3     0.090000        1.0080           0
     67457 WT23     551      MECN     H12      HGA3     0.090000        1.0080           0
     67458 WT23     551      MECN     H13      HGA3     0.090000        1.0080           0
     67459 WT23     551      MECN     C2       CG1N1    0.360000       12.0110           0
     67460 WT23     551      MECN     N3       NG1T1   -0.460000       14.0070           0
     67461 WT23     552      MECN     C1       CG331   -0.170000       12.0110           0
     67462 WT23     552      MECN     H11      HGA3     0.090000        1.0080           0
     67463 WT23     552      MECN     H12      HGA3     0.090000        1.0080           0
     67464 WT23     552      MECN     H13      HGA3     0.090000        1.0080           0
     67465 WT23     552      MECN     C2       CG1N1    0.360000       12.0110           0
     67466 WT23     552      MECN     N3       NG1T1   -0.460000       14.0070           0
     67467 WT23     553      MECN     C1       CG331   -0.170000       12.0110           0
     67468 WT23     553      MECN     H11      HGA3     0.090000        1.0080           0
     67469 WT23     553      MECN     H12      HGA3     0.090000        1.0080           0
     67470 WT23     553      MECN     H13      HGA3     0.090000        1.0080           0
     67471 WT23     553      MECN     C2       CG1N1    0.360000       12.0110           0
     67472 WT23     553      MECN     N3       NG1T1   -0.460000       14.0070           0
     67473 WT23     554      MECN     C1       CG331   -0.170000       12.0110           0
     67474 WT23     554      MECN     H11      HGA3     0.090000        1.0080           0
     67475 WT23     554      MECN     H12      HGA3     0.090000        1.0080           0
     67476 WT23     554      MECN     H13      HGA3     0.090000        1.0080           0
     67477 WT23     554      MECN     C2       CG1N1    0.360000       12.0110           0
     67478 WT23     554      MECN     N3       NG1T1   -0.460000       14.0070           0
     67479 WT23     556      MECN     C1       CG331   -0.170000       12.0110           0
     67480 WT23     556      MECN     H11      HGA3     0.090000        1.0080           0
     67481 WT23     556      MECN     H12      HGA3     0.090000        1.0080           0
     67482 WT23     556      MECN     H13      HGA3     0.090000        1.0080           0
     67483 WT23     556      MECN     C2       CG1N1    0.360000       12.0110           0
     67484 WT23     556      MECN     N3       NG1T1   -0.460000       14.0070           0
     67485 WT23     559      MECN     C1       CG331   -0.170000       12.0110           0
     67486 WT23     559      MECN     H11      HGA3     0.090000        1.0080           0
     67487 WT23     559      MECN     H12      HGA3     0.090000        1.0080           0
     67488 WT23     559      MECN     H13      HGA3     0.090000        1.0080           0
     67489 WT23     559      MECN     C2       CG1N1    0.360000       12.0110           0
     67490 WT23     559      MECN     N3       NG1T1   -0.460000       14.0070           0
     67491 WT23     561      MECN     C1       CG331   -0.170000       12.0110           0
     67492 WT23     561      MECN     H11      HGA3     0.090000        1.0080           0
     67493 WT23     561      MECN     H12      HGA3     0.090000        1.0080           0
     67494 WT23     561      MECN     H13      HGA3     0.090000        1.0080           0
     67495 WT23     561      MECN     C2       CG1N1    0.360000       12.0110           0
     67496 WT23     561      MECN     N3       NG1T1   -0.460000       14.0070           0
     67497 WT23     565      MECN     C1       CG331   -0.170000       12.0110           0
     67498 WT23     565      MECN     H11      HGA3     0.090000        1.0080           0
     67499 WT23     565      MECN     H12      HGA3     0.090000        1.0080           0
     67500 WT23     565      MECN     H13      HGA3     0.090000        1.0080           0
     67501 WT23     565      MECN     C2       CG1N1    0.360000       12.0110           0
     67502 WT23     565      MECN     N3       NG1T1   -0.460000       14.0070           0
     67503 WT23     571      MECN     C1       CG331   -0.170000       12.0110           0
     67504 WT23     571      MECN     H11      HGA3     0.090000        1.0080           0
     67505 WT23     571      MECN     H12      HGA3     0.090000        1.0080           0
     67506 WT23     571      MECN     H13      HGA3     0.090000        1.0080           0
     67507 WT23     571      MECN     C2       CG1N1    0.360000       12.0110           0
     67508 WT23     571      MECN     N3       NG1T1   -0.460000       14.0070           0
     67509 WT23     572      MECN     C1       CG331   -0.170000       12.0110           0
     67510 WT23     572      MECN     H11      HGA3     0.090000        1.0080           0
     67511 WT23     572      MECN     H12      HGA3     0.090000        1.0080           0
     67512 WT23     572      MECN     H13      HGA3     0.090000        1.0080           0
     67513 WT23     572      MECN     C2       CG1N1    0.360000       12.0110           0
     67514 WT23     572      MECN     N3       NG1T1   -0.460000       14.0070           0
     67515 WT23     573      MECN     C1       CG331   -0.170000       12.0110           0
     67516 WT23     573      MECN     H11      HGA3     0.090000        1.0080           0
     67517 WT23     573      MECN     H12      HGA3     0.090000        1.0080           0
     67518 WT23     573      MECN     H13      HGA3     0.090000        1.0080           0
     67519 WT23     573      MECN     C2       CG1N1    0.360000       12.0110           0
     67520 WT23     573      MECN     N3       NG1T1   -0.460000       14.0070           0
     67521 WT23     576      MECN     C1       CG331   -0.170000       12.0110           0
     67522 WT23     576      MECN     H11      HGA3     0.090000        1.0080           0
     67523 WT23     576      MECN     H12      HGA3     0.090000        1.0080           0
     67524 WT23     576      MECN     H13      HGA3     0.090000        1.0080           0
     67525 WT23     576      MECN     C2       CG1N1    0.360000       12.0110           0
     67526 WT23     576      MECN     N3       NG1T1   -0.460000       14.0070           0
     67527 WT23     577      MECN     C1       CG331   -0.170000       12.0110           0
     67528 WT23     577      MECN     H11      HGA3     0.090000        1.0080           0
     67529 WT23     577      MECN     H12      HGA3     0.090000        1.0080           0
     67530 WT23     577      MECN     H13      HGA3     0.090000        1.0080           0
     67531 WT23     577      MECN     C2       CG1N1    0.360000       12.0110           0
     67532 WT23     577      MECN     N3       NG1T1   -0.460000       14.0070           0
     67533 WT23     582      MECN     C1       CG331   -0.170000       12.0110           0
     67534 WT23     582      MECN     H11      HGA3     0.090000        1.0080           0
     67535 WT23     582      MECN     H12      HGA3     0.090000        1.0080           0
     67536 WT23     582      MECN     H13      HGA3     0.090000        1.0080           0
     67537 WT23     582      MECN     C2       CG1N1    0.360000       12.0110           0
     67538 WT23     582      MECN     N3       NG1T1   -0.460000       14.0070           0
     67539 WT23     583      MECN     C1       CG331   -0.170000       12.0110           0
     67540 WT23     583      MECN     H11      HGA3     0.090000        1.0080           0
     67541 WT23     583      MECN     H12      HGA3     0.090000        1.0080           0
     67542 WT23     583      MECN     H13      HGA3     0.090000        1.0080           0
     67543 WT23     583      MECN     C2       CG1N1    0.360000       12.0110           0
     67544 WT23     583      MECN     N3       NG1T1   -0.460000       14.0070           0
     67545 WT23     584      MECN     C1       CG331   -0.170000       12.0110           0
     67546 WT23     584      MECN     H11      HGA3     0.090000        1.0080           0
     67547 WT23     584      MECN     H12      HGA3     0.090000        1.0080           0
     67548 WT23     584      MECN     H13      HGA3     0.090000        1.0080           0
     67549 WT23     584      MECN     C2       CG1N1    0.360000       12.0110           0
     67550 WT23     584      MECN     N3       NG1T1   -0.460000       14.0070           0
     67551 WT23     588      MECN     C1       CG331   -0.170000       12.0110           0
     67552 WT23     588      MECN     H11      HGA3     0.090000        1.0080           0
     67553 WT23     588      MECN     H12      HGA3     0.090000        1.0080           0
     67554 WT23     588      MECN     H13      HGA3     0.090000        1.0080           0
     67555 WT23     588      MECN     C2       CG1N1    0.360000       12.0110           0
     67556 WT23     588      MECN     N3       NG1T1   -0.460000       14.0070           0
     67557 WT23     589      MECN     C1       CG331   -0.170000       12.0110           0
     67558 WT23     589      MECN     H11      HGA3     0.090000        1.0080           0
     67559 WT23     589      MECN     H12      HGA3     0.090000        1.0080           0
     67560 WT23     589      MECN     H13      HGA3     0.090000        1.0080           0
     67561 WT23     589      MECN     C2       CG1N1    0.360000       12.0110           0
     67562 WT23     589      MECN     N3       NG1T1   -0.460000       14.0070           0
     67563 WT23     591      MECN     C1       CG331   -0.170000       12.0110           0
     67564 WT23     591      MECN     H11      HGA3     0.090000        1.0080           0
     67565 WT23     591      MECN     H12      HGA3     0.090000        1.0080           0
     67566 WT23     591      MECN     H13      HGA3     0.090000        1.0080           0
     67567 WT23     591      MECN     C2       CG1N1    0.360000       12.0110           0
     67568 WT23     591      MECN     N3       NG1T1   -0.460000       14.0070           0
     67569 WT23     592      MECN     C1       CG331   -0.170000       12.0110           0
     67570 WT23     592      MECN     H11      HGA3     0.090000        1.0080           0
     67571 WT23     592      MECN     H12      HGA3     0.090000        1.0080           0
     67572 WT23     592      MECN     H13      HGA3     0.090000        1.0080           0
     67573 WT23     592      MECN     C2       CG1N1    0.360000       12.0110           0
     67574 WT23     592      MECN     N3       NG1T1   -0.460000       14.0070           0
     67575 WT23     593      MECN     C1       CG331   -0.170000       12.0110           0
     67576 WT23     593      MECN     H11      HGA3     0.090000        1.0080           0
     67577 WT23     593      MECN     H12      HGA3     0.090000        1.0080           0
     67578 WT23     593      MECN     H13      HGA3     0.090000        1.0080           0
     67579 WT23     593      MECN     C2       CG1N1    0.360000       12.0110           0
     67580 WT23     593      MECN     N3       NG1T1   -0.460000       14.0070           0
     67581 WT23     596      MECN     C1       CG331   -0.170000       12.0110           0
     67582 WT23     596      MECN     H11      HGA3     0.090000        1.0080           0
     67583 WT23     596      MECN     H12      HGA3     0.090000        1.0080           0
     67584 WT23     596      MECN     H13      HGA3     0.090000        1.0080           0
     67585 WT23     596      MECN     C2       CG1N1    0.360000       12.0110           0
     67586 WT23     596      MECN     N3       NG1T1   -0.460000       14.0070           0
     67587 WT23     597      MECN     C1       CG331   -0.170000       12.0110           0
     67588 WT23     597      MECN     H11      HGA3     0.090000        1.0080           0
     67589 WT23     597      MECN     H12      HGA3     0.090000        1.0080           0
     67590 WT23     597      MECN     H13      HGA3     0.090000        1.0080           0
     67591 WT23     597      MECN     C2       CG1N1    0.360000       12.0110           0
     67592 WT23     597      MECN     N3       NG1T1   -0.460000       14.0070           0
     67593 WT23     598      MECN     C1       CG331   -0.170000       12.0110           0
     67594 WT23     598      MECN     H11      HGA3     0.090000        1.0080           0
     67595 WT23     598      MECN     H12      HGA3     0.090000        1.0080           0
     67596 WT23     598      MECN     H13      HGA3     0.090000        1.0080           0
     67597 WT23     598      MECN     C2       CG1N1    0.360000       12.0110           0
     67598 WT23     598      MECN     N3       NG1T1   -0.460000       14.0070           0
     67599 WT23     599      MECN     C1       CG331   -0.170000       12.0110           0
     67600 WT23     599      MECN     H11      HGA3     0.090000        1.0080           0
     67601 WT23     599      MECN     H12      HGA3     0.090000        1.0080           0
     67602 WT23     599      MECN     H13      HGA3     0.090000        1.0080           0
     67603 WT23     599      MECN     C2       CG1N1    0.360000       12.0110           0
     67604 WT23     599      MECN     N3       NG1T1   -0.460000       14.0070           0
     67605 WT23     600      MECN     C1       CG331   -0.170000       12.0110           0
     67606 WT23     600      MECN     H11      HGA3     0.090000        1.0080           0
     67607 WT23     600      MECN     H12      HGA3     0.090000        1.0080           0
     67608 WT23     600      MECN     H13      HGA3     0.090000        1.0080           0
     67609 WT23     600      MECN     C2       CG1N1    0.360000       12.0110           0
     67610 WT23     600      MECN     N3       NG1T1   -0.460000       14.0070           0
     67611 WT23     601      MECN     C1       CG331   -0.170000       12.0110           0
     67612 WT23     601      MECN     H11      HGA3     0.090000        1.0080           0
     67613 WT23     601      MECN     H12      HGA3     0.090000        1.0080           0
     67614 WT23     601      MECN     H13      HGA3     0.090000        1.0080           0
     67615 WT23     601      MECN     C2       CG1N1    0.360000       12.0110           0
     67616 WT23     601      MECN     N3       NG1T1   -0.460000       14.0070           0
     67617 WT23     603      MECN     C1       CG331   -0.170000       12.0110           0
     67618 WT23     603      MECN     H11      HGA3     0.090000        1.0080           0
     67619 WT23     603      MECN     H12      HGA3     0.090000        1.0080           0
     67620 WT23     603      MECN     H13      HGA3     0.090000        1.0080           0
     67621 WT23     603      MECN     C2       CG1N1    0.360000       12.0110           0
     67622 WT23     603      MECN     N3       NG1T1   -0.460000       14.0070           0
     67623 WT23     604      MECN     C1       CG331   -0.170000       12.0110           0
     67624 WT23     604      MECN     H11      HGA3     0.090000        1.0080           0
     67625 WT23     604      MECN     H12      HGA3     0.090000        1.0080           0
     67626 WT23     604      MECN     H13      HGA3     0.090000        1.0080           0
     67627 WT23     604      MECN     C2       CG1N1    0.360000       12.0110           0
     67628 WT23     604      MECN     N3       NG1T1   -0.460000       14.0070           0
     67629 WT23     607      MECN     C1       CG331   -0.170000       12.0110           0
     67630 WT23     607      MECN     H11      HGA3     0.090000        1.0080           0
     67631 WT23     607      MECN     H12      HGA3     0.090000        1.0080           0
     67632 WT23     607      MECN     H13      HGA3     0.090000        1.0080           0
     67633 WT23     607      MECN     C2       CG1N1    0.360000       12.0110           0
     67634 WT23     607      MECN     N3       NG1T1   -0.460000       14.0070           0
     67635 WT23     608      MECN     C1       CG331   -0.170000       12.0110           0
     67636 WT23     608      MECN     H11      HGA3     0.090000        1.0080           0
     67637 WT23     608      MECN     H12      HGA3     0.090000        1.0080           0
     67638 WT23     608      MECN     H13      HGA3     0.090000        1.0080           0
     67639 WT23     608      MECN     C2       CG1N1    0.360000       12.0110           0
     67640 WT23     608      MECN     N3       NG1T1   -0.460000       14.0070           0
     67641 WT23     609      MECN     C1       CG331   -0.170000       12.0110           0
     67642 WT23     609      MECN     H11      HGA3     0.090000        1.0080           0
     67643 WT23     609      MECN     H12      HGA3     0.090000        1.0080           0
     67644 WT23     609      MECN     H13      HGA3     0.090000        1.0080           0
     67645 WT23     609      MECN     C2       CG1N1    0.360000       12.0110           0
     67646 WT23     609      MECN     N3       NG1T1   -0.460000       14.0070           0
     67647 WT23     612      MECN     C1       CG331   -0.170000       12.0110           0
     67648 WT23     612      MECN     H11      HGA3     0.090000        1.0080           0
     67649 WT23     612      MECN     H12      HGA3     0.090000        1.0080           0
     67650 WT23     612      MECN     H13      HGA3     0.090000        1.0080           0
     67651 WT23     612      MECN     C2       CG1N1    0.360000       12.0110           0
     67652 WT23     612      MECN     N3       NG1T1   -0.460000       14.0070           0
     67653 WT23     615      MECN     C1       CG331   -0.170000       12.0110           0
     67654 WT23     615      MECN     H11      HGA3     0.090000        1.0080           0
     67655 WT23     615      MECN     H12      HGA3     0.090000        1.0080           0
     67656 WT23     615      MECN     H13      HGA3     0.090000        1.0080           0
     67657 WT23     615      MECN     C2       CG1N1    0.360000       12.0110           0
     67658 WT23     615      MECN     N3       NG1T1   -0.460000       14.0070           0
     67659 WT23     616      MECN     C1       CG331   -0.170000       12.0110           0
     67660 WT23     616      MECN     H11      HGA3     0.090000        1.0080           0
     67661 WT23     616      MECN     H12      HGA3     0.090000        1.0080           0
     67662 WT23     616      MECN     H13      HGA3     0.090000        1.0080           0
     67663 WT23     616      MECN     C2       CG1N1    0.360000       12.0110           0
     67664 WT23     616      MECN     N3       NG1T1   -0.460000       14.0070           0
     67665 WT23     617      MECN     C1       CG331   -0.170000       12.0110           0
     67666 WT23     617      MECN     H11      HGA3     0.090000        1.0080           0
     67667 WT23     617      MECN     H12      HGA3     0.090000        1.0080           0
     67668 WT23     617      MECN     H13      HGA3     0.090000        1.0080           0
     67669 WT23     617      MECN     C2       CG1N1    0.360000       12.0110           0
     67670 WT23     617      MECN     N3       NG1T1   -0.460000       14.0070           0
     67671 WT23     618      MECN     C1       CG331   -0.170000       12.0110           0
     67672 WT23     618      MECN     H11      HGA3     0.090000        1.0080           0
     67673 WT23     618      MECN     H12      HGA3     0.090000        1.0080           0
     67674 WT23     618      MECN     H13      HGA3     0.090000        1.0080           0
     67675 WT23     618      MECN     C2       CG1N1    0.360000       12.0110           0
     67676 WT23     618      MECN     N3       NG1T1   -0.460000       14.0070           0
     67677 WT23     619      MECN     C1       CG331   -0.170000       12.0110           0
     67678 WT23     619      MECN     H11      HGA3     0.090000        1.0080           0
     67679 WT23     619      MECN     H12      HGA3     0.090000        1.0080           0
     67680 WT23     619      MECN     H13      HGA3     0.090000        1.0080           0
     67681 WT23     619      MECN     C2       CG1N1    0.360000       12.0110           0
     67682 WT23     619      MECN     N3       NG1T1   -0.460000       14.0070           0
     67683 WT23     620      MECN     C1       CG331   -0.170000       12.0110           0
     67684 WT23     620      MECN     H11      HGA3     0.090000        1.0080           0
     67685 WT23     620      MECN     H12      HGA3     0.090000        1.0080           0
     67686 WT23     620      MECN     H13      HGA3     0.090000        1.0080           0
     67687 WT23     620      MECN     C2       CG1N1    0.360000       12.0110           0
     67688 WT23     620      MECN     N3       NG1T1   -0.460000       14.0070           0
     67689 WT23     621      MECN     C1       CG331   -0.170000       12.0110           0
     67690 WT23     621      MECN     H11      HGA3     0.090000        1.0080           0
     67691 WT23     621      MECN     H12      HGA3     0.090000        1.0080           0
     67692 WT23     621      MECN     H13      HGA3     0.090000        1.0080           0
     67693 WT23     621      MECN     C2       CG1N1    0.360000       12.0110           0
     67694 WT23     621      MECN     N3       NG1T1   -0.460000       14.0070           0
     67695 WT23     622      MECN     C1       CG331   -0.170000       12.0110           0
     67696 WT23     622      MECN     H11      HGA3     0.090000        1.0080           0
     67697 WT23     622      MECN     H12      HGA3     0.090000        1.0080           0
     67698 WT23     622      MECN     H13      HGA3     0.090000        1.0080           0
     67699 WT23     622      MECN     C2       CG1N1    0.360000       12.0110           0
     67700 WT23     622      MECN     N3       NG1T1   -0.460000       14.0070           0
     67701 WT23     624      MECN     C1       CG331   -0.170000       12.0110           0
     67702 WT23     624      MECN     H11      HGA3     0.090000        1.0080           0
     67703 WT23     624      MECN     H12      HGA3     0.090000        1.0080           0
     67704 WT23     624      MECN     H13      HGA3     0.090000        1.0080           0
     67705 WT23     624      MECN     C2       CG1N1    0.360000       12.0110           0
     67706 WT23     624      MECN     N3       NG1T1   -0.460000       14.0070           0
     67707 WT23     626      MECN     C1       CG331   -0.170000       12.0110           0
     67708 WT23     626      MECN     H11      HGA3     0.090000        1.0080           0
     67709 WT23     626      MECN     H12      HGA3     0.090000        1.0080           0
     67710 WT23     626      MECN     H13      HGA3     0.090000        1.0080           0
     67711 WT23     626      MECN     C2       CG1N1    0.360000       12.0110           0
     67712 WT23     626      MECN     N3       NG1T1   -0.460000       14.0070           0
     67713 WT23     627      MECN     C1       CG331   -0.170000       12.0110           0
     67714 WT23     627      MECN     H11      HGA3     0.090000        1.0080           0
     67715 WT23     627      MECN     H12      HGA3     0.090000        1.0080           0
     67716 WT23     627      MECN     H13      HGA3     0.090000        1.0080           0
     67717 WT23     627      MECN     C2       CG1N1    0.360000       12.0110           0
     67718 WT23     627      MECN     N3       NG1T1   -0.460000       14.0070           0
     67719 WT23     628      MECN     C1       CG331   -0.170000       12.0110           0
     67720 WT23     628      MECN     H11      HGA3     0.090000        1.0080           0
     67721 WT23     628      MECN     H12      HGA3     0.090000        1.0080           0
     67722 WT23     628      MECN     H13      HGA3     0.090000        1.0080           0
     67723 WT23     628      MECN     C2       CG1N1    0.360000       12.0110           0
     67724 WT23     628      MECN     N3       NG1T1   -0.460000       14.0070           0
     67725 WT23     629      MECN     C1       CG331   -0.170000       12.0110           0
     67726 WT23     629      MECN     H11      HGA3     0.090000        1.0080           0
     67727 WT23     629      MECN     H12      HGA3     0.090000        1.0080           0
     67728 WT23     629      MECN     H13      HGA3     0.090000        1.0080           0
     67729 WT23     629      MECN     C2       CG1N1    0.360000       12.0110           0
     67730 WT23     629      MECN     N3       NG1T1   -0.460000       14.0070           0
     67731 WT23     631      MECN     C1       CG331   -0.170000       12.0110           0
     67732 WT23     631      MECN     H11      HGA3     0.090000        1.0080           0
     67733 WT23     631      MECN     H12      HGA3     0.090000        1.0080           0
     67734 WT23     631      MECN     H13      HGA3     0.090000        1.0080           0
     67735 WT23     631      MECN     C2       CG1N1    0.360000       12.0110           0
     67736 WT23     631      MECN     N3       NG1T1   -0.460000       14.0070           0
     67737 WT23     632      MECN     C1       CG331   -0.170000       12.0110           0
     67738 WT23     632      MECN     H11      HGA3     0.090000        1.0080           0
     67739 WT23     632      MECN     H12      HGA3     0.090000        1.0080           0
     67740 WT23     632      MECN     H13      HGA3     0.090000        1.0080           0
     67741 WT23     632      MECN     C2       CG1N1    0.360000       12.0110           0
     67742 WT23     632      MECN     N3       NG1T1   -0.460000       14.0070           0
     67743 WT23     633      MECN     C1       CG331   -0.170000       12.0110           0
     67744 WT23     633      MECN     H11      HGA3     0.090000        1.0080           0
     67745 WT23     633      MECN     H12      HGA3     0.090000        1.0080           0
     67746 WT23     633      MECN     H13      HGA3     0.090000        1.0080           0
     67747 WT23     633      MECN     C2       CG1N1    0.360000       12.0110           0
     67748 WT23     633      MECN     N3       NG1T1   -0.460000       14.0070           0
     67749 WT23     635      MECN     C1       CG331   -0.170000       12.0110           0
     67750 WT23     635      MECN     H11      HGA3     0.090000        1.0080           0
     67751 WT23     635      MECN     H12      HGA3     0.090000        1.0080           0
     67752 WT23     635      MECN     H13      HGA3     0.090000        1.0080           0
     67753 WT23     635      MECN     C2       CG1N1    0.360000       12.0110           0
     67754 WT23     635      MECN     N3       NG1T1   -0.460000       14.0070           0
     67755 WT23     636      MECN     C1       CG331   -0.170000       12.0110           0
     67756 WT23     636      MECN     H11      HGA3     0.090000        1.0080           0
     67757 WT23     636      MECN     H12      HGA3     0.090000        1.0080           0
     67758 WT23     636      MECN     H13      HGA3     0.090000        1.0080           0
     67759 WT23     636      MECN     C2       CG1N1    0.360000       12.0110           0
     67760 WT23     636      MECN     N3       NG1T1   -0.460000       14.0070           0
     67761 WT23     637      MECN     C1       CG331   -0.170000       12.0110           0
     67762 WT23     637      MECN     H11      HGA3     0.090000        1.0080           0
     67763 WT23     637      MECN     H12      HGA3     0.090000        1.0080           0
     67764 WT23     637      MECN     H13      HGA3     0.090000        1.0080           0
     67765 WT23     637      MECN     C2       CG1N1    0.360000       12.0110           0
     67766 WT23     637      MECN     N3       NG1T1   -0.460000       14.0070           0
     67767 WT23     639      MECN     C1       CG331   -0.170000       12.0110           0
     67768 WT23     639      MECN     H11      HGA3     0.090000        1.0080           0
     67769 WT23     639      MECN     H12      HGA3     0.090000        1.0080           0
     67770 WT23     639      MECN     H13      HGA3     0.090000        1.0080           0
     67771 WT23     639      MECN     C2       CG1N1    0.360000       12.0110           0
     67772 WT23     639      MECN     N3       NG1T1   -0.460000       14.0070           0
     67773 WT23     640      MECN     C1       CG331   -0.170000       12.0110           0
     67774 WT23     640      MECN     H11      HGA3     0.090000        1.0080           0
     67775 WT23     640      MECN     H12      HGA3     0.090000        1.0080           0
     67776 WT23     640      MECN     H13      HGA3     0.090000        1.0080           0
     67777 WT23     640      MECN     C2       CG1N1    0.360000       12.0110           0
     67778 WT23     640      MECN     N3       NG1T1   -0.460000       14.0070           0
     67779 WT23     643      MECN     C1       CG331   -0.170000       12.0110           0
     67780 WT23     643      MECN     H11      HGA3     0.090000        1.0080           0
     67781 WT23     643      MECN     H12      HGA3     0.090000        1.0080           0
     67782 WT23     643      MECN     H13      HGA3     0.090000        1.0080           0
     67783 WT23     643      MECN     C2       CG1N1    0.360000       12.0110           0
     67784 WT23     643      MECN     N3       NG1T1   -0.460000       14.0070           0
     67785 WT23     645      MECN     C1       CG331   -0.170000       12.0110           0
     67786 WT23     645      MECN     H11      HGA3     0.090000        1.0080           0
     67787 WT23     645      MECN     H12      HGA3     0.090000        1.0080           0
     67788 WT23     645      MECN     H13      HGA3     0.090000        1.0080           0
     67789 WT23     645      MECN     C2       CG1N1    0.360000       12.0110           0
     67790 WT23     645      MECN     N3       NG1T1   -0.460000       14.0070           0
     67791 WT23     646      MECN     C1       CG331   -0.170000       12.0110           0
     67792 WT23     646      MECN     H11      HGA3     0.090000        1.0080           0
     67793 WT23     646      MECN     H12      HGA3     0.090000        1.0080           0
     67794 WT23     646      MECN     H13      HGA3     0.090000        1.0080           0
     67795 WT23     646      MECN     C2       CG1N1    0.360000       12.0110           0
     67796 WT23     646      MECN     N3       NG1T1   -0.460000       14.0070           0
     67797 WT23     647      MECN     C1       CG331   -0.170000       12.0110           0
     67798 WT23     647      MECN     H11      HGA3     0.090000        1.0080           0
     67799 WT23     647      MECN     H12      HGA3     0.090000        1.0080           0
     67800 WT23     647      MECN     H13      HGA3     0.090000        1.0080           0
     67801 WT23     647      MECN     C2       CG1N1    0.360000       12.0110           0
     67802 WT23     647      MECN     N3       NG1T1   -0.460000       14.0070           0
     67803 WT23     648      MECN     C1       CG331   -0.170000       12.0110           0
     67804 WT23     648      MECN     H11      HGA3     0.090000        1.0080           0
     67805 WT23     648      MECN     H12      HGA3     0.090000        1.0080           0
     67806 WT23     648      MECN     H13      HGA3     0.090000        1.0080           0
     67807 WT23     648      MECN     C2       CG1N1    0.360000       12.0110           0
     67808 WT23     648      MECN     N3       NG1T1   -0.460000       14.0070           0
     67809 WT23     649      MECN     C1       CG331   -0.170000       12.0110           0
     67810 WT23     649      MECN     H11      HGA3     0.090000        1.0080           0
     67811 WT23     649      MECN     H12      HGA3     0.090000        1.0080           0
     67812 WT23     649      MECN     H13      HGA3     0.090000        1.0080           0
     67813 WT23     649      MECN     C2       CG1N1    0.360000       12.0110           0
     67814 WT23     649      MECN     N3       NG1T1   -0.460000       14.0070           0
     67815 WT23     650      MECN     C1       CG331   -0.170000       12.0110           0
     67816 WT23     650      MECN     H11      HGA3     0.090000        1.0080           0
     67817 WT23     650      MECN     H12      HGA3     0.090000        1.0080           0
     67818 WT23     650      MECN     H13      HGA3     0.090000        1.0080           0
     67819 WT23     650      MECN     C2       CG1N1    0.360000       12.0110           0
     67820 WT23     650      MECN     N3       NG1T1   -0.460000       14.0070           0
     67821 WT23     652      MECN     C1       CG331   -0.170000       12.0110           0
     67822 WT23     652      MECN     H11      HGA3     0.090000        1.0080           0
     67823 WT23     652      MECN     H12      HGA3     0.090000        1.0080           0
     67824 WT23     652      MECN     H13      HGA3     0.090000        1.0080           0
     67825 WT23     652      MECN     C2       CG1N1    0.360000       12.0110           0
     67826 WT23     652      MECN     N3       NG1T1   -0.460000       14.0070           0
     67827 WT23     653      MECN     C1       CG331   -0.170000       12.0110           0
     67828 WT23     653      MECN     H11      HGA3     0.090000        1.0080           0
     67829 WT23     653      MECN     H12      HGA3     0.090000        1.0080           0
     67830 WT23     653      MECN     H13      HGA3     0.090000        1.0080           0
     67831 WT23     653      MECN     C2       CG1N1    0.360000       12.0110           0
     67832 WT23     653      MECN     N3       NG1T1   -0.460000       14.0070           0
     67833 WT23     654      MECN     C1       CG331   -0.170000       12.0110           0
     67834 WT23     654      MECN     H11      HGA3     0.090000        1.0080           0
     67835 WT23     654      MECN     H12      HGA3     0.090000        1.0080           0
     67836 WT23     654      MECN     H13      HGA3     0.090000        1.0080           0
     67837 WT23     654      MECN     C2       CG1N1    0.360000       12.0110           0
     67838 WT23     654      MECN     N3       NG1T1   -0.460000       14.0070           0
     67839 WT23     657      MECN     C1       CG331   -0.170000       12.0110           0
     67840 WT23     657      MECN     H11      HGA3     0.090000        1.0080           0
     67841 WT23     657      MECN     H12      HGA3     0.090000        1.0080           0
     67842 WT23     657      MECN     H13      HGA3     0.090000        1.0080           0
     67843 WT23     657      MECN     C2       CG1N1    0.360000       12.0110           0
     67844 WT23     657      MECN     N3       NG1T1   -0.460000       14.0070           0
     67845 WT23     660      MECN     C1       CG331   -0.170000       12.0110           0
     67846 WT23     660      MECN     H11      HGA3     0.090000        1.0080           0
     67847 WT23     660      MECN     H12      HGA3     0.090000        1.0080           0
     67848 WT23     660      MECN     H13      HGA3     0.090000        1.0080           0
     67849 WT23     660      MECN     C2       CG1N1    0.360000       12.0110           0
     67850 WT23     660      MECN     N3       NG1T1   -0.460000       14.0070           0
     67851 WT23     662      MECN     C1       CG331   -0.170000       12.0110           0
     67852 WT23     662      MECN     H11      HGA3     0.090000        1.0080           0
     67853 WT23     662      MECN     H12      HGA3     0.090000        1.0080           0
     67854 WT23     662      MECN     H13      HGA3     0.090000        1.0080           0
     67855 WT23     662      MECN     C2       CG1N1    0.360000       12.0110           0
     67856 WT23     662      MECN     N3       NG1T1   -0.460000       14.0070           0
     67857 WT23     665      MECN     C1       CG331   -0.170000       12.0110           0
     67858 WT23     665      MECN     H11      HGA3     0.090000        1.0080           0
     67859 WT23     665      MECN     H12      HGA3     0.090000        1.0080           0
     67860 WT23     665      MECN     H13      HGA3     0.090000        1.0080           0
     67861 WT23     665      MECN     C2       CG1N1    0.360000       12.0110           0
     67862 WT23     665      MECN     N3       NG1T1   -0.460000       14.0070           0
     67863 WT23     666      MECN     C1       CG331   -0.170000       12.0110           0
     67864 WT23     666      MECN     H11      HGA3     0.090000        1.0080           0
     67865 WT23     666      MECN     H12      HGA3     0.090000        1.0080           0
     67866 WT23     666      MECN     H13      HGA3     0.090000        1.0080           0
     67867 WT23     666      MECN     C2       CG1N1    0.360000       12.0110           0
     67868 WT23     666      MECN     N3       NG1T1   -0.460000       14.0070           0
     67869 WT23     667      MECN     C1       CG331   -0.170000       12.0110           0
     67870 WT23     667      MECN     H11      HGA3     0.090000        1.0080           0
     67871 WT23     667      MECN     H12      HGA3     0.090000        1.0080           0
     67872 WT23     667      MECN     H13      HGA3     0.090000        1.0080           0
     67873 WT23     667      MECN     C2       CG1N1    0.360000       12.0110           0
     67874 WT23     667      MECN     N3       NG1T1   -0.460000       14.0070           0
     67875 WT23     668      MECN     C1       CG331   -0.170000       12.0110           0
     67876 WT23     668      MECN     H11      HGA3     0.090000        1.0080           0
     67877 WT23     668      MECN     H12      HGA3     0.090000        1.0080           0
     67878 WT23     668      MECN     H13      HGA3     0.090000        1.0080           0
     67879 WT23     668      MECN     C2       CG1N1    0.360000       12.0110           0
     67880 WT23     668      MECN     N3       NG1T1   -0.460000       14.0070           0
     67881 WT23     669      MECN     C1       CG331   -0.170000       12.0110           0
     67882 WT23     669      MECN     H11      HGA3     0.090000        1.0080           0
     67883 WT23     669      MECN     H12      HGA3     0.090000        1.0080           0
     67884 WT23     669      MECN     H13      HGA3     0.090000        1.0080           0
     67885 WT23     669      MECN     C2       CG1N1    0.360000       12.0110           0
     67886 WT23     669      MECN     N3       NG1T1   -0.460000       14.0070           0
     67887 WT23     671      MECN     C1       CG331   -0.170000       12.0110           0
     67888 WT23     671      MECN     H11      HGA3     0.090000        1.0080           0
     67889 WT23     671      MECN     H12      HGA3     0.090000        1.0080           0
     67890 WT23     671      MECN     H13      HGA3     0.090000        1.0080           0
     67891 WT23     671      MECN     C2       CG1N1    0.360000       12.0110           0
     67892 WT23     671      MECN     N3       NG1T1   -0.460000       14.0070           0
     67893 WT23     673      MECN     C1       CG331   -0.170000       12.0110           0
     67894 WT23     673      MECN     H11      HGA3     0.090000        1.0080           0
     67895 WT23     673      MECN     H12      HGA3     0.090000        1.0080           0
     67896 WT23     673      MECN     H13      HGA3     0.090000        1.0080           0
     67897 WT23     673      MECN     C2       CG1N1    0.360000       12.0110           0
     67898 WT23     673      MECN     N3       NG1T1   -0.460000       14.0070           0
     67899 WT23     675      MECN     C1       CG331   -0.170000       12.0110           0
     67900 WT23     675      MECN     H11      HGA3     0.090000        1.0080           0
     67901 WT23     675      MECN     H12      HGA3     0.090000        1.0080           0
     67902 WT23     675      MECN     H13      HGA3     0.090000        1.0080           0
     67903 WT23     675      MECN     C2       CG1N1    0.360000       12.0110           0
     67904 WT23     675      MECN     N3       NG1T1   -0.460000       14.0070           0
     67905 WT23     676      MECN     C1       CG331   -0.170000       12.0110           0
     67906 WT23     676      MECN     H11      HGA3     0.090000        1.0080           0
     67907 WT23     676      MECN     H12      HGA3     0.090000        1.0080           0
     67908 WT23     676      MECN     H13      HGA3     0.090000        1.0080           0
     67909 WT23     676      MECN     C2       CG1N1    0.360000       12.0110           0
     67910 WT23     676      MECN     N3       NG1T1   -0.460000       14.0070           0
     67911 WT23     677      MECN     C1       CG331   -0.170000       12.0110           0
     67912 WT23     677      MECN     H11      HGA3     0.090000        1.0080           0
     67913 WT23     677      MECN     H12      HGA3     0.090000        1.0080           0
     67914 WT23     677      MECN     H13      HGA3     0.090000        1.0080           0
     67915 WT23     677      MECN     C2       CG1N1    0.360000       12.0110           0
     67916 WT23     677      MECN     N3       NG1T1   -0.460000       14.0070           0
     67917 WT23     678      MECN     C1       CG331   -0.170000       12.0110           0
     67918 WT23     678      MECN     H11      HGA3     0.090000        1.0080           0
     67919 WT23     678      MECN     H12      HGA3     0.090000        1.0080           0
     67920 WT23     678      MECN     H13      HGA3     0.090000        1.0080           0
     67921 WT23     678      MECN     C2       CG1N1    0.360000       12.0110           0
     67922 WT23     678      MECN     N3       NG1T1   -0.460000       14.0070           0
     67923 WT23     679      MECN     C1       CG331   -0.170000       12.0110           0
     67924 WT23     679      MECN     H11      HGA3     0.090000        1.0080           0
     67925 WT23     679      MECN     H12      HGA3     0.090000        1.0080           0
     67926 WT23     679      MECN     H13      HGA3     0.090000        1.0080           0
     67927 WT23     679      MECN     C2       CG1N1    0.360000       12.0110           0
     67928 WT23     679      MECN     N3       NG1T1   -0.460000       14.0070           0
     67929 WT23     683      MECN     C1       CG331   -0.170000       12.0110           0
     67930 WT23     683      MECN     H11      HGA3     0.090000        1.0080           0
     67931 WT23     683      MECN     H12      HGA3     0.090000        1.0080           0
     67932 WT23     683      MECN     H13      HGA3     0.090000        1.0080           0
     67933 WT23     683      MECN     C2       CG1N1    0.360000       12.0110           0
     67934 WT23     683      MECN     N3       NG1T1   -0.460000       14.0070           0
     67935 WT23     684      MECN     C1       CG331   -0.170000       12.0110           0
     67936 WT23     684      MECN     H11      HGA3     0.090000        1.0080           0
     67937 WT23     684      MECN     H12      HGA3     0.090000        1.0080           0
     67938 WT23     684      MECN     H13      HGA3     0.090000        1.0080           0
     67939 WT23     684      MECN     C2       CG1N1    0.360000       12.0110           0
     67940 WT23     684      MECN     N3       NG1T1   -0.460000       14.0070           0
     67941 WT23     685      MECN     C1       CG331   -0.170000       12.0110           0
     67942 WT23     685      MECN     H11      HGA3     0.090000        1.0080           0
     67943 WT23     685      MECN     H12      HGA3     0.090000        1.0080           0
     67944 WT23     685      MECN     H13      HGA3     0.090000        1.0080           0
     67945 WT23     685      MECN     C2       CG1N1    0.360000       12.0110           0
     67946 WT23     685      MECN     N3       NG1T1   -0.460000       14.0070           0
     67947 WT23     686      MECN     C1       CG331   -0.170000       12.0110           0
     67948 WT23     686      MECN     H11      HGA3     0.090000        1.0080           0
     67949 WT23     686      MECN     H12      HGA3     0.090000        1.0080           0
     67950 WT23     686      MECN     H13      HGA3     0.090000        1.0080           0
     67951 WT23     686      MECN     C2       CG1N1    0.360000       12.0110           0
     67952 WT23     686      MECN     N3       NG1T1   -0.460000       14.0070           0
     67953 WT23     690      MECN     C1       CG331   -0.170000       12.0110           0
     67954 WT23     690      MECN     H11      HGA3     0.090000        1.0080           0
     67955 WT23     690      MECN     H12      HGA3     0.090000        1.0080           0
     67956 WT23     690      MECN     H13      HGA3     0.090000        1.0080           0
     67957 WT23     690      MECN     C2       CG1N1    0.360000       12.0110           0
     67958 WT23     690      MECN     N3       NG1T1   -0.460000       14.0070           0
     67959 WT23     691      MECN     C1       CG331   -0.170000       12.0110           0
     67960 WT23     691      MECN     H11      HGA3     0.090000        1.0080           0
     67961 WT23     691      MECN     H12      HGA3     0.090000        1.0080           0
     67962 WT23     691      MECN     H13      HGA3     0.090000        1.0080           0
     67963 WT23     691      MECN     C2       CG1N1    0.360000       12.0110           0
     67964 WT23     691      MECN     N3       NG1T1   -0.460000       14.0070           0
     67965 WT23     693      MECN     C1       CG331   -0.170000       12.0110           0
     67966 WT23     693      MECN     H11      HGA3     0.090000        1.0080           0
     67967 WT23     693      MECN     H12      HGA3     0.090000        1.0080           0
     67968 WT23     693      MECN     H13      HGA3     0.090000        1.0080           0
     67969 WT23     693      MECN     C2       CG1N1    0.360000       12.0110           0
     67970 WT23     693      MECN     N3       NG1T1   -0.460000       14.0070           0
     67971 WT23     694      MECN     C1       CG331   -0.170000       12.0110           0
     67972 WT23     694      MECN     H11      HGA3     0.090000        1.0080           0
     67973 WT23     694      MECN     H12      HGA3     0.090000        1.0080           0
     67974 WT23     694      MECN     H13      HGA3     0.090000        1.0080           0
     67975 WT23     694      MECN     C2       CG1N1    0.360000       12.0110           0
     67976 WT23     694      MECN     N3       NG1T1   -0.460000       14.0070           0
     67977 WT23     695      MECN     C1       CG331   -0.170000       12.0110           0
     67978 WT23     695      MECN     H11      HGA3     0.090000        1.0080           0
     67979 WT23     695      MECN     H12      HGA3     0.090000        1.0080           0
     67980 WT23     695      MECN     H13      HGA3     0.090000        1.0080           0
     67981 WT23     695      MECN     C2       CG1N1    0.360000       12.0110           0
     67982 WT23     695      MECN     N3       NG1T1   -0.460000       14.0070           0
     67983 WT23     696      MECN     C1       CG331   -0.170000       12.0110           0
     67984 WT23     696      MECN     H11      HGA3     0.090000        1.0080           0
     67985 WT23     696      MECN     H12      HGA3     0.090000        1.0080           0
     67986 WT23     696      MECN     H13      HGA3     0.090000        1.0080           0
     67987 WT23     696      MECN     C2       CG1N1    0.360000       12.0110           0
     67988 WT23     696      MECN     N3       NG1T1   -0.460000       14.0070           0
     67989 WT23     697      MECN     C1       CG331   -0.170000       12.0110           0
     67990 WT23     697      MECN     H11      HGA3     0.090000        1.0080           0
     67991 WT23     697      MECN     H12      HGA3     0.090000        1.0080           0
     67992 WT23     697      MECN     H13      HGA3     0.090000        1.0080           0
     67993 WT23     697      MECN     C2       CG1N1    0.360000       12.0110           0
     67994 WT23     697      MECN     N3       NG1T1   -0.460000       14.0070           0
     67995 WT23     698      MECN     C1       CG331   -0.170000       12.0110           0
     67996 WT23     698      MECN     H11      HGA3     0.090000        1.0080           0
     67997 WT23     698      MECN     H12      HGA3     0.090000        1.0080           0
     67998 WT23     698      MECN     H13      HGA3     0.090000        1.0080           0
     67999 WT23     698      MECN     C2       CG1N1    0.360000       12.0110           0
     68000 WT23     698      MECN     N3       NG1T1   -0.460000       14.0070           0
     68001 WT23     699      MECN     C1       CG331   -0.170000       12.0110           0
     68002 WT23     699      MECN     H11      HGA3     0.090000        1.0080           0
     68003 WT23     699      MECN     H12      HGA3     0.090000        1.0080           0
     68004 WT23     699      MECN     H13      HGA3     0.090000        1.0080           0
     68005 WT23     699      MECN     C2       CG1N1    0.360000       12.0110           0
     68006 WT23     699      MECN     N3       NG1T1   -0.460000       14.0070           0
     68007 WT23     701      MECN     C1       CG331   -0.170000       12.0110           0
     68008 WT23     701      MECN     H11      HGA3     0.090000        1.0080           0
     68009 WT23     701      MECN     H12      HGA3     0.090000        1.0080           0
     68010 WT23     701      MECN     H13      HGA3     0.090000        1.0080           0
     68011 WT23     701      MECN     C2       CG1N1    0.360000       12.0110           0
     68012 WT23     701      MECN     N3       NG1T1   -0.460000       14.0070           0
     68013 WT23     702      MECN     C1       CG331   -0.170000       12.0110           0
     68014 WT23     702      MECN     H11      HGA3     0.090000        1.0080           0
     68015 WT23     702      MECN     H12      HGA3     0.090000        1.0080           0
     68016 WT23     702      MECN     H13      HGA3     0.090000        1.0080           0
     68017 WT23     702      MECN     C2       CG1N1    0.360000       12.0110           0
     68018 WT23     702      MECN     N3       NG1T1   -0.460000       14.0070           0
     68019 WT23     704      MECN     C1       CG331   -0.170000       12.0110           0
     68020 WT23     704      MECN     H11      HGA3     0.090000        1.0080           0
     68021 WT23     704      MECN     H12      HGA3     0.090000        1.0080           0
     68022 WT23     704      MECN     H13      HGA3     0.090000        1.0080           0
     68023 WT23     704      MECN     C2       CG1N1    0.360000       12.0110           0
     68024 WT23     704      MECN     N3       NG1T1   -0.460000       14.0070           0
     68025 WT23     707      MECN     C1       CG331   -0.170000       12.0110           0
     68026 WT23     707      MECN     H11      HGA3     0.090000        1.0080           0
     68027 WT23     707      MECN     H12      HGA3     0.090000        1.0080           0
     68028 WT23     707      MECN     H13      HGA3     0.090000        1.0080           0
     68029 WT23     707      MECN     C2       CG1N1    0.360000       12.0110           0
     68030 WT23     707      MECN     N3       NG1T1   -0.460000       14.0070           0
     68031 WT23     708      MECN     C1       CG331   -0.170000       12.0110           0
     68032 WT23     708      MECN     H11      HGA3     0.090000        1.0080           0
     68033 WT23     708      MECN     H12      HGA3     0.090000        1.0080           0
     68034 WT23     708      MECN     H13      HGA3     0.090000        1.0080           0
     68035 WT23     708      MECN     C2       CG1N1    0.360000       12.0110           0
     68036 WT23     708      MECN     N3       NG1T1   -0.460000       14.0070           0
     68037 WT23     711      MECN     C1       CG331   -0.170000       12.0110           0
     68038 WT23     711      MECN     H11      HGA3     0.090000        1.0080           0
     68039 WT23     711      MECN     H12      HGA3     0.090000        1.0080           0
     68040 WT23     711      MECN     H13      HGA3     0.090000        1.0080           0
     68041 WT23     711      MECN     C2       CG1N1    0.360000       12.0110           0
     68042 WT23     711      MECN     N3       NG1T1   -0.460000       14.0070           0
     68043 WT23     712      MECN     C1       CG331   -0.170000       12.0110           0
     68044 WT23     712      MECN     H11      HGA3     0.090000        1.0080           0
     68045 WT23     712      MECN     H12      HGA3     0.090000        1.0080           0
     68046 WT23     712      MECN     H13      HGA3     0.090000        1.0080           0
     68047 WT23     712      MECN     C2       CG1N1    0.360000       12.0110           0
     68048 WT23     712      MECN     N3       NG1T1   -0.460000       14.0070           0
     68049 WT23     713      MECN     C1       CG331   -0.170000       12.0110           0
     68050 WT23     713      MECN     H11      HGA3     0.090000        1.0080           0
     68051 WT23     713      MECN     H12      HGA3     0.090000        1.0080           0
     68052 WT23     713      MECN     H13      HGA3     0.090000        1.0080           0
     68053 WT23     713      MECN     C2       CG1N1    0.360000       12.0110           0
     68054 WT23     713      MECN     N3       NG1T1   -0.460000       14.0070           0
     68055 WT23     716      MECN     C1       CG331   -0.170000       12.0110           0
     68056 WT23     716      MECN     H11      HGA3     0.090000        1.0080           0
     68057 WT23     716      MECN     H12      HGA3     0.090000        1.0080           0
     68058 WT23     716      MECN     H13      HGA3     0.090000        1.0080           0
     68059 WT23     716      MECN     C2       CG1N1    0.360000       12.0110           0
     68060 WT23     716      MECN     N3       NG1T1   -0.460000       14.0070           0
     68061 WT23     720      MECN     C1       CG331   -0.170000       12.0110           0
     68062 WT23     720      MECN     H11      HGA3     0.090000        1.0080           0
     68063 WT23     720      MECN     H12      HGA3     0.090000        1.0080           0
     68064 WT23     720      MECN     H13      HGA3     0.090000        1.0080           0
     68065 WT23     720      MECN     C2       CG1N1    0.360000       12.0110           0
     68066 WT23     720      MECN     N3       NG1T1   -0.460000       14.0070           0
     68067 WT23     721      MECN     C1       CG331   -0.170000       12.0110           0
     68068 WT23     721      MECN     H11      HGA3     0.090000        1.0080           0
     68069 WT23     721      MECN     H12      HGA3     0.090000        1.0080           0
     68070 WT23     721      MECN     H13      HGA3     0.090000        1.0080           0
     68071 WT23     721      MECN     C2       CG1N1    0.360000       12.0110           0
     68072 WT23     721      MECN     N3       NG1T1   -0.460000       14.0070           0
     68073 WT23     723      MECN     C1       CG331   -0.170000       12.0110           0
     68074 WT23     723      MECN     H11      HGA3     0.090000        1.0080           0
     68075 WT23     723      MECN     H12      HGA3     0.090000        1.0080           0
     68076 WT23     723      MECN     H13      HGA3     0.090000        1.0080           0
     68077 WT23     723      MECN     C2       CG1N1    0.360000       12.0110           0
     68078 WT23     723      MECN     N3       NG1T1   -0.460000       14.0070           0
     68079 WT23     729      MECN     C1       CG331   -0.170000       12.0110           0
     68080 WT23     729      MECN     H11      HGA3     0.090000        1.0080           0
     68081 WT23     729      MECN     H12      HGA3     0.090000        1.0080           0
     68082 WT23     729      MECN     H13      HGA3     0.090000        1.0080           0
     68083 WT23     729      MECN     C2       CG1N1    0.360000       12.0110           0
     68084 WT23     729      MECN     N3       NG1T1   -0.460000       14.0070           0
     68085 WT23     730      MECN     C1       CG331   -0.170000       12.0110           0
     68086 WT23     730      MECN     H11      HGA3     0.090000        1.0080           0
     68087 WT23     730      MECN     H12      HGA3     0.090000        1.0080           0
     68088 WT23     730      MECN     H13      HGA3     0.090000        1.0080           0
     68089 WT23     730      MECN     C2       CG1N1    0.360000       12.0110           0
     68090 WT23     730      MECN     N3       NG1T1   -0.460000       14.0070           0
     68091 WT23     732      MECN     C1       CG331   -0.170000       12.0110           0
     68092 WT23     732      MECN     H11      HGA3     0.090000        1.0080           0
     68093 WT23     732      MECN     H12      HGA3     0.090000        1.0080           0
     68094 WT23     732      MECN     H13      HGA3     0.090000        1.0080           0
     68095 WT23     732      MECN     C2       CG1N1    0.360000       12.0110           0
     68096 WT23     732      MECN     N3       NG1T1   -0.460000       14.0070           0
     68097 WT23     733      MECN     C1       CG331   -0.170000       12.0110           0
     68098 WT23     733      MECN     H11      HGA3     0.090000        1.0080           0
     68099 WT23     733      MECN     H12      HGA3     0.090000        1.0080           0
     68100 WT23     733      MECN     H13      HGA3     0.090000        1.0080           0
     68101 WT23     733      MECN     C2       CG1N1    0.360000       12.0110           0
     68102 WT23     733      MECN     N3       NG1T1   -0.460000       14.0070           0
     68103 WT23     734      MECN     C1       CG331   -0.170000       12.0110           0
     68104 WT23     734      MECN     H11      HGA3     0.090000        1.0080           0
     68105 WT23     734      MECN     H12      HGA3     0.090000        1.0080           0
     68106 WT23     734      MECN     H13      HGA3     0.090000        1.0080           0
     68107 WT23     734      MECN     C2       CG1N1    0.360000       12.0110           0
     68108 WT23     734      MECN     N3       NG1T1   -0.460000       14.0070           0
     68109 WT23     735      MECN     C1       CG331   -0.170000       12.0110           0
     68110 WT23     735      MECN     H11      HGA3     0.090000        1.0080           0
     68111 WT23     735      MECN     H12      HGA3     0.090000        1.0080           0
     68112 WT23     735      MECN     H13      HGA3     0.090000        1.0080           0
     68113 WT23     735      MECN     C2       CG1N1    0.360000       12.0110           0
     68114 WT23     735      MECN     N3       NG1T1   -0.460000       14.0070           0
     68115 WT23     736      MECN     C1       CG331   -0.170000       12.0110           0
     68116 WT23     736      MECN     H11      HGA3     0.090000        1.0080           0
     68117 WT23     736      MECN     H12      HGA3     0.090000        1.0080           0
     68118 WT23     736      MECN     H13      HGA3     0.090000        1.0080           0
     68119 WT23     736      MECN     C2       CG1N1    0.360000       12.0110           0
     68120 WT23     736      MECN     N3       NG1T1   -0.460000       14.0070           0
     68121 WT23     737      MECN     C1       CG331   -0.170000       12.0110           0
     68122 WT23     737      MECN     H11      HGA3     0.090000        1.0080           0
     68123 WT23     737      MECN     H12      HGA3     0.090000        1.0080           0
     68124 WT23     737      MECN     H13      HGA3     0.090000        1.0080           0
     68125 WT23     737      MECN     C2       CG1N1    0.360000       12.0110           0
     68126 WT23     737      MECN     N3       NG1T1   -0.460000       14.0070           0
     68127 WT23     738      MECN     C1       CG331   -0.170000       12.0110           0
     68128 WT23     738      MECN     H11      HGA3     0.090000        1.0080           0
     68129 WT23     738      MECN     H12      HGA3     0.090000        1.0080           0
     68130 WT23     738      MECN     H13      HGA3     0.090000        1.0080           0
     68131 WT23     738      MECN     C2       CG1N1    0.360000       12.0110           0
     68132 WT23     738      MECN     N3       NG1T1   -0.460000       14.0070           0
     68133 WT23     739      MECN     C1       CG331   -0.170000       12.0110           0
     68134 WT23     739      MECN     H11      HGA3     0.090000        1.0080           0
     68135 WT23     739      MECN     H12      HGA3     0.090000        1.0080           0
     68136 WT23     739      MECN     H13      HGA3     0.090000        1.0080           0
     68137 WT23     739      MECN     C2       CG1N1    0.360000       12.0110           0
     68138 WT23     739      MECN     N3       NG1T1   -0.460000       14.0070           0
     68139 WT23     740      MECN     C1       CG331   -0.170000       12.0110           0
     68140 WT23     740      MECN     H11      HGA3     0.090000        1.0080           0
     68141 WT23     740      MECN     H12      HGA3     0.090000        1.0080           0
     68142 WT23     740      MECN     H13      HGA3     0.090000        1.0080           0
     68143 WT23     740      MECN     C2       CG1N1    0.360000       12.0110           0
     68144 WT23     740      MECN     N3       NG1T1   -0.460000       14.0070           0
     68145 WT23     741      MECN     C1       CG331   -0.170000       12.0110           0
     68146 WT23     741      MECN     H11      HGA3     0.090000        1.0080           0
     68147 WT23     741      MECN     H12      HGA3     0.090000        1.0080           0
     68148 WT23     741      MECN     H13      HGA3     0.090000        1.0080           0
     68149 WT23     741      MECN     C2       CG1N1    0.360000       12.0110           0
     68150 WT23     741      MECN     N3       NG1T1   -0.460000       14.0070           0
     68151 WT23     744      MECN     C1       CG331   -0.170000       12.0110           0
     68152 WT23     744      MECN     H11      HGA3     0.090000        1.0080           0
     68153 WT23     744      MECN     H12      HGA3     0.090000        1.0080           0
     68154 WT23     744      MECN     H13      HGA3     0.090000        1.0080           0
     68155 WT23     744      MECN     C2       CG1N1    0.360000       12.0110           0
     68156 WT23     744      MECN     N3       NG1T1   -0.460000       14.0070           0
     68157 WT23     745      MECN     C1       CG331   -0.170000       12.0110           0
     68158 WT23     745      MECN     H11      HGA3     0.090000        1.0080           0
     68159 WT23     745      MECN     H12      HGA3     0.090000        1.0080           0
     68160 WT23     745      MECN     H13      HGA3     0.090000        1.0080           0
     68161 WT23     745      MECN     C2       CG1N1    0.360000       12.0110           0
     68162 WT23     745      MECN     N3       NG1T1   -0.460000       14.0070           0
     68163 WT23     746      MECN     C1       CG331   -0.170000       12.0110           0
     68164 WT23     746      MECN     H11      HGA3     0.090000        1.0080           0
     68165 WT23     746      MECN     H12      HGA3     0.090000        1.0080           0
     68166 WT23     746      MECN     H13      HGA3     0.090000        1.0080           0
     68167 WT23     746      MECN     C2       CG1N1    0.360000       12.0110           0
     68168 WT23     746      MECN     N3       NG1T1   -0.460000       14.0070           0
     68169 WT23     747      MECN     C1       CG331   -0.170000       12.0110           0
     68170 WT23     747      MECN     H11      HGA3     0.090000        1.0080           0
     68171 WT23     747      MECN     H12      HGA3     0.090000        1.0080           0
     68172 WT23     747      MECN     H13      HGA3     0.090000        1.0080           0
     68173 WT23     747      MECN     C2       CG1N1    0.360000       12.0110           0
     68174 WT23     747      MECN     N3       NG1T1   -0.460000       14.0070           0
     68175 WT23     748      MECN     C1       CG331   -0.170000       12.0110           0
     68176 WT23     748      MECN     H11      HGA3     0.090000        1.0080           0
     68177 WT23     748      MECN     H12      HGA3     0.090000        1.0080           0
     68178 WT23     748      MECN     H13      HGA3     0.090000        1.0080           0
     68179 WT23     748      MECN     C2       CG1N1    0.360000       12.0110           0
     68180 WT23     748      MECN     N3       NG1T1   -0.460000       14.0070           0
     68181 WT23     750      MECN     C1       CG331   -0.170000       12.0110           0
     68182 WT23     750      MECN     H11      HGA3     0.090000        1.0080           0
     68183 WT23     750      MECN     H12      HGA3     0.090000        1.0080           0
     68184 WT23     750      MECN     H13      HGA3     0.090000        1.0080           0
     68185 WT23     750      MECN     C2       CG1N1    0.360000       12.0110           0
     68186 WT23     750      MECN     N3       NG1T1   -0.460000       14.0070           0
     68187 WT23     751      MECN     C1       CG331   -0.170000       12.0110           0
     68188 WT23     751      MECN     H11      HGA3     0.090000        1.0080           0
     68189 WT23     751      MECN     H12      HGA3     0.090000        1.0080           0
     68190 WT23     751      MECN     H13      HGA3     0.090000        1.0080           0
     68191 WT23     751      MECN     C2       CG1N1    0.360000       12.0110           0
     68192 WT23     751      MECN     N3       NG1T1   -0.460000       14.0070           0
     68193 WT23     752      MECN     C1       CG331   -0.170000       12.0110           0
     68194 WT23     752      MECN     H11      HGA3     0.090000        1.0080           0
     68195 WT23     752      MECN     H12      HGA3     0.090000        1.0080           0
     68196 WT23     752      MECN     H13      HGA3     0.090000        1.0080           0
     68197 WT23     752      MECN     C2       CG1N1    0.360000       12.0110           0
     68198 WT23     752      MECN     N3       NG1T1   -0.460000       14.0070           0
     68199 WT23     753      MECN     C1       CG331   -0.170000       12.0110           0
     68200 WT23     753      MECN     H11      HGA3     0.090000        1.0080           0
     68201 WT23     753      MECN     H12      HGA3     0.090000        1.0080           0
     68202 WT23     753      MECN     H13      HGA3     0.090000        1.0080           0
     68203 WT23     753      MECN     C2       CG1N1    0.360000       12.0110           0
     68204 WT23     753      MECN     N3       NG1T1   -0.460000       14.0070           0
     68205 WT23     754      MECN     C1       CG331   -0.170000       12.0110           0
     68206 WT23     754      MECN     H11      HGA3     0.090000        1.0080           0
     68207 WT23     754      MECN     H12      HGA3     0.090000        1.0080           0
     68208 WT23     754      MECN     H13      HGA3     0.090000        1.0080           0
     68209 WT23     754      MECN     C2       CG1N1    0.360000       12.0110           0
     68210 WT23     754      MECN     N3       NG1T1   -0.460000       14.0070           0
     68211 WT23     755      MECN     C1       CG331   -0.170000       12.0110           0
     68212 WT23     755      MECN     H11      HGA3     0.090000        1.0080           0
     68213 WT23     755      MECN     H12      HGA3     0.090000        1.0080           0
     68214 WT23     755      MECN     H13      HGA3     0.090000        1.0080           0
     68215 WT23     755      MECN     C2       CG1N1    0.360000       12.0110           0
     68216 WT23     755      MECN     N3       NG1T1   -0.460000       14.0070           0
     68217 WT23     756      MECN     C1       CG331   -0.170000       12.0110           0
     68218 WT23     756      MECN     H11      HGA3     0.090000        1.0080           0
     68219 WT23     756      MECN     H12      HGA3     0.090000        1.0080           0
     68220 WT23     756      MECN     H13      HGA3     0.090000        1.0080           0
     68221 WT23     756      MECN     C2       CG1N1    0.360000       12.0110           0
     68222 WT23     756      MECN     N3       NG1T1   -0.460000       14.0070           0
     68223 WT23     757      MECN     C1       CG331   -0.170000       12.0110           0
     68224 WT23     757      MECN     H11      HGA3     0.090000        1.0080           0
     68225 WT23     757      MECN     H12      HGA3     0.090000        1.0080           0
     68226 WT23     757      MECN     H13      HGA3     0.090000        1.0080           0
     68227 WT23     757      MECN     C2       CG1N1    0.360000       12.0110           0
     68228 WT23     757      MECN     N3       NG1T1   -0.460000       14.0070           0
     68229 WT23     759      MECN     C1       CG331   -0.170000       12.0110           0
     68230 WT23     759      MECN     H11      HGA3     0.090000        1.0080           0
     68231 WT23     759      MECN     H12      HGA3     0.090000        1.0080           0
     68232 WT23     759      MECN     H13      HGA3     0.090000        1.0080           0
     68233 WT23     759      MECN     C2       CG1N1    0.360000       12.0110           0
     68234 WT23     759      MECN     N3       NG1T1   -0.460000       14.0070           0
     68235 WT23     761      MECN     C1       CG331   -0.170000       12.0110           0
     68236 WT23     761      MECN     H11      HGA3     0.090000        1.0080           0
     68237 WT23     761      MECN     H12      HGA3     0.090000        1.0080           0
     68238 WT23     761      MECN     H13      HGA3     0.090000        1.0080           0
     68239 WT23     761      MECN     C2       CG1N1    0.360000       12.0110           0
     68240 WT23     761      MECN     N3       NG1T1   -0.460000       14.0070           0
     68241 WT23     764      MECN     C1       CG331   -0.170000       12.0110           0
     68242 WT23     764      MECN     H11      HGA3     0.090000        1.0080           0
     68243 WT23     764      MECN     H12      HGA3     0.090000        1.0080           0
     68244 WT23     764      MECN     H13      HGA3     0.090000        1.0080           0
     68245 WT23     764      MECN     C2       CG1N1    0.360000       12.0110           0
     68246 WT23     764      MECN     N3       NG1T1   -0.460000       14.0070           0
     68247 WT23     765      MECN     C1       CG331   -0.170000       12.0110           0
     68248 WT23     765      MECN     H11      HGA3     0.090000        1.0080           0
     68249 WT23     765      MECN     H12      HGA3     0.090000        1.0080           0
     68250 WT23     765      MECN     H13      HGA3     0.090000        1.0080           0
     68251 WT23     765      MECN     C2       CG1N1    0.360000       12.0110           0
     68252 WT23     765      MECN     N3       NG1T1   -0.460000       14.0070           0
     68253 WT23     768      MECN     C1       CG331   -0.170000       12.0110           0
     68254 WT23     768      MECN     H11      HGA3     0.090000        1.0080           0
     68255 WT23     768      MECN     H12      HGA3     0.090000        1.0080           0
     68256 WT23     768      MECN     H13      HGA3     0.090000        1.0080           0
     68257 WT23     768      MECN     C2       CG1N1    0.360000       12.0110           0
     68258 WT23     768      MECN     N3       NG1T1   -0.460000       14.0070           0
     68259 WT23     769      MECN     C1       CG331   -0.170000       12.0110           0
     68260 WT23     769      MECN     H11      HGA3     0.090000        1.0080           0
     68261 WT23     769      MECN     H12      HGA3     0.090000        1.0080           0
     68262 WT23     769      MECN     H13      HGA3     0.090000        1.0080           0
     68263 WT23     769      MECN     C2       CG1N1    0.360000       12.0110           0
     68264 WT23     769      MECN     N3       NG1T1   -0.460000       14.0070           0
     68265 WT23     772      MECN     C1       CG331   -0.170000       12.0110           0
     68266 WT23     772      MECN     H11      HGA3     0.090000        1.0080           0
     68267 WT23     772      MECN     H12      HGA3     0.090000        1.0080           0
     68268 WT23     772      MECN     H13      HGA3     0.090000        1.0080           0
     68269 WT23     772      MECN     C2       CG1N1    0.360000       12.0110           0
     68270 WT23     772      MECN     N3       NG1T1   -0.460000       14.0070           0
     68271 WT23     774      MECN     C1       CG331   -0.170000       12.0110           0
     68272 WT23     774      MECN     H11      HGA3     0.090000        1.0080           0
     68273 WT23     774      MECN     H12      HGA3     0.090000        1.0080           0
     68274 WT23     774      MECN     H13      HGA3     0.090000        1.0080           0
     68275 WT23     774      MECN     C2       CG1N1    0.360000       12.0110           0
     68276 WT23     774      MECN     N3       NG1T1   -0.460000       14.0070           0
     68277 WT23     776      MECN     C1       CG331   -0.170000       12.0110           0
     68278 WT23     776      MECN     H11      HGA3     0.090000        1.0080           0
     68279 WT23     776      MECN     H12      HGA3     0.090000        1.0080           0
     68280 WT23     776      MECN     H13      HGA3     0.090000        1.0080           0
     68281 WT23     776      MECN     C2       CG1N1    0.360000       12.0110           0
     68282 WT23     776      MECN     N3       NG1T1   -0.460000       14.0070           0
     68283 WT23     777      MECN     C1       CG331   -0.170000       12.0110           0
     68284 WT23     777      MECN     H11      HGA3     0.090000        1.0080           0
     68285 WT23     777      MECN     H12      HGA3     0.090000        1.0080           0
     68286 WT23     777      MECN     H13      HGA3     0.090000        1.0080           0
     68287 WT23     777      MECN     C2       CG1N1    0.360000       12.0110           0
     68288 WT23     777      MECN     N3       NG1T1   -0.460000       14.0070           0
     68289 WT23     778      MECN     C1       CG331   -0.170000       12.0110           0
     68290 WT23     778      MECN     H11      HGA3     0.090000        1.0080           0
     68291 WT23     778      MECN     H12      HGA3     0.090000        1.0080           0
     68292 WT23     778      MECN     H13      HGA3     0.090000        1.0080           0
     68293 WT23     778      MECN     C2       CG1N1    0.360000       12.0110           0
     68294 WT23     778      MECN     N3       NG1T1   -0.460000       14.0070           0
     68295 WT23     779      MECN     C1       CG331   -0.170000       12.0110           0
     68296 WT23     779      MECN     H11      HGA3     0.090000        1.0080           0
     68297 WT23     779      MECN     H12      HGA3     0.090000        1.0080           0
     68298 WT23     779      MECN     H13      HGA3     0.090000        1.0080           0
     68299 WT23     779      MECN     C2       CG1N1    0.360000       12.0110           0
     68300 WT23     779      MECN     N3       NG1T1   -0.460000       14.0070           0
     68301 WT23     783      MECN     C1       CG331   -0.170000       12.0110           0
     68302 WT23     783      MECN     H11      HGA3     0.090000        1.0080           0
     68303 WT23     783      MECN     H12      HGA3     0.090000        1.0080           0
     68304 WT23     783      MECN     H13      HGA3     0.090000        1.0080           0
     68305 WT23     783      MECN     C2       CG1N1    0.360000       12.0110           0
     68306 WT23     783      MECN     N3       NG1T1   -0.460000       14.0070           0
     68307 WT23     784      MECN     C1       CG331   -0.170000       12.0110           0
     68308 WT23     784      MECN     H11      HGA3     0.090000        1.0080           0
     68309 WT23     784      MECN     H12      HGA3     0.090000        1.0080           0
     68310 WT23     784      MECN     H13      HGA3     0.090000        1.0080           0
     68311 WT23     784      MECN     C2       CG1N1    0.360000       12.0110           0
     68312 WT23     784      MECN     N3       NG1T1   -0.460000       14.0070           0
     68313 WT23     789      MECN     C1       CG331   -0.170000       12.0110           0
     68314 WT23     789      MECN     H11      HGA3     0.090000        1.0080           0
     68315 WT23     789      MECN     H12      HGA3     0.090000        1.0080           0
     68316 WT23     789      MECN     H13      HGA3     0.090000        1.0080           0
     68317 WT23     789      MECN     C2       CG1N1    0.360000       12.0110           0
     68318 WT23     789      MECN     N3       NG1T1   -0.460000       14.0070           0
     68319 WT23     795      MECN     C1       CG331   -0.170000       12.0110           0
     68320 WT23     795      MECN     H11      HGA3     0.090000        1.0080           0
     68321 WT23     795      MECN     H12      HGA3     0.090000        1.0080           0
     68322 WT23     795      MECN     H13      HGA3     0.090000        1.0080           0
     68323 WT23     795      MECN     C2       CG1N1    0.360000       12.0110           0
     68324 WT23     795      MECN     N3       NG1T1   -0.460000       14.0070           0
     68325 WT23     796      MECN     C1       CG331   -0.170000       12.0110           0
     68326 WT23     796      MECN     H11      HGA3     0.090000        1.0080           0
     68327 WT23     796      MECN     H12      HGA3     0.090000        1.0080           0
     68328 WT23     796      MECN     H13      HGA3     0.090000        1.0080           0
     68329 WT23     796      MECN     C2       CG1N1    0.360000       12.0110           0
     68330 WT23     796      MECN     N3       NG1T1   -0.460000       14.0070           0
     68331 WT23     797      MECN     C1       CG331   -0.170000       12.0110           0
     68332 WT23     797      MECN     H11      HGA3     0.090000        1.0080           0
     68333 WT23     797      MECN     H12      HGA3     0.090000        1.0080           0
     68334 WT23     797      MECN     H13      HGA3     0.090000        1.0080           0
     68335 WT23     797      MECN     C2       CG1N1    0.360000       12.0110           0
     68336 WT23     797      MECN     N3       NG1T1   -0.460000       14.0070           0
     68337 WT23     798      MECN     C1       CG331   -0.170000       12.0110           0
     68338 WT23     798      MECN     H11      HGA3     0.090000        1.0080           0
     68339 WT23     798      MECN     H12      HGA3     0.090000        1.0080           0
     68340 WT23     798      MECN     H13      HGA3     0.090000        1.0080           0
     68341 WT23     798      MECN     C2       CG1N1    0.360000       12.0110           0
     68342 WT23     798      MECN     N3       NG1T1   -0.460000       14.0070           0
     68343 WT23     799      MECN     C1       CG331   -0.170000       12.0110           0
     68344 WT23     799      MECN     H11      HGA3     0.090000        1.0080           0
     68345 WT23     799      MECN     H12      HGA3     0.090000        1.0080           0
     68346 WT23     799      MECN     H13      HGA3     0.090000        1.0080           0
     68347 WT23     799      MECN     C2       CG1N1    0.360000       12.0110           0
     68348 WT23     799      MECN     N3       NG1T1   -0.460000       14.0070           0
     68349 WT23     800      MECN     C1       CG331   -0.170000       12.0110           0
     68350 WT23     800      MECN     H11      HGA3     0.090000        1.0080           0
     68351 WT23     800      MECN     H12      HGA3     0.090000        1.0080           0
     68352 WT23     800      MECN     H13      HGA3     0.090000        1.0080           0
     68353 WT23     800      MECN     C2       CG1N1    0.360000       12.0110           0
     68354 WT23     800      MECN     N3       NG1T1   -0.460000       14.0070           0
     68355 WT23     801      MECN     C1       CG331   -0.170000       12.0110           0
     68356 WT23     801      MECN     H11      HGA3     0.090000        1.0080           0
     68357 WT23     801      MECN     H12      HGA3     0.090000        1.0080           0
     68358 WT23     801      MECN     H13      HGA3     0.090000        1.0080           0
     68359 WT23     801      MECN     C2       CG1N1    0.360000       12.0110           0
     68360 WT23     801      MECN     N3       NG1T1   -0.460000       14.0070           0
     68361 WT23     802      MECN     C1       CG331   -0.170000       12.0110           0
     68362 WT23     802      MECN     H11      HGA3     0.090000        1.0080           0
     68363 WT23     802      MECN     H12      HGA3     0.090000        1.0080           0
     68364 WT23     802      MECN     H13      HGA3     0.090000        1.0080           0
     68365 WT23     802      MECN     C2       CG1N1    0.360000       12.0110           0
     68366 WT23     802      MECN     N3       NG1T1   -0.460000       14.0070           0
     68367 WT23     803      MECN     C1       CG331   -0.170000       12.0110           0
     68368 WT23     803      MECN     H11      HGA3     0.090000        1.0080           0
     68369 WT23     803      MECN     H12      HGA3     0.090000        1.0080           0
     68370 WT23     803      MECN     H13      HGA3     0.090000        1.0080           0
     68371 WT23     803      MECN     C2       CG1N1    0.360000       12.0110           0
     68372 WT23     803      MECN     N3       NG1T1   -0.460000       14.0070           0
     68373 WT23     806      MECN     C1       CG331   -0.170000       12.0110           0
     68374 WT23     806      MECN     H11      HGA3     0.090000        1.0080           0
     68375 WT23     806      MECN     H12      HGA3     0.090000        1.0080           0
     68376 WT23     806      MECN     H13      HGA3     0.090000        1.0080           0
     68377 WT23     806      MECN     C2       CG1N1    0.360000       12.0110           0
     68378 WT23     806      MECN     N3       NG1T1   -0.460000       14.0070           0
     68379 WT23     810      MECN     C1       CG331   -0.170000       12.0110           0
     68380 WT23     810      MECN     H11      HGA3     0.090000        1.0080           0
     68381 WT23     810      MECN     H12      HGA3     0.090000        1.0080           0
     68382 WT23     810      MECN     H13      HGA3     0.090000        1.0080           0
     68383 WT23     810      MECN     C2       CG1N1    0.360000       12.0110           0
     68384 WT23     810      MECN     N3       NG1T1   -0.460000       14.0070           0
     68385 WT23     812      MECN     C1       CG331   -0.170000       12.0110           0
     68386 WT23     812      MECN     H11      HGA3     0.090000        1.0080           0
     68387 WT23     812      MECN     H12      HGA3     0.090000        1.0080           0
     68388 WT23     812      MECN     H13      HGA3     0.090000        1.0080           0
     68389 WT23     812      MECN     C2       CG1N1    0.360000       12.0110           0
     68390 WT23     812      MECN     N3       NG1T1   -0.460000       14.0070           0
     68391 WT23     813      MECN     C1       CG331   -0.170000       12.0110           0
     68392 WT23     813      MECN     H11      HGA3     0.090000        1.0080           0
     68393 WT23     813      MECN     H12      HGA3     0.090000        1.0080           0
     68394 WT23     813      MECN     H13      HGA3     0.090000        1.0080           0
     68395 WT23     813      MECN     C2       CG1N1    0.360000       12.0110           0
     68396 WT23     813      MECN     N3       NG1T1   -0.460000       14.0070           0
     68397 WT23     814      MECN     C1       CG331   -0.170000       12.0110           0
     68398 WT23     814      MECN     H11      HGA3     0.090000        1.0080           0
     68399 WT23     814      MECN     H12      HGA3     0.090000        1.0080           0
     68400 WT23     814      MECN     H13      HGA3     0.090000        1.0080           0
     68401 WT23     814      MECN     C2       CG1N1    0.360000       12.0110           0
     68402 WT23     814      MECN     N3       NG1T1   -0.460000       14.0070           0
     68403 WT23     816      MECN     C1       CG331   -0.170000       12.0110           0
     68404 WT23     816      MECN     H11      HGA3     0.090000        1.0080           0
     68405 WT23     816      MECN     H12      HGA3     0.090000        1.0080           0
     68406 WT23     816      MECN     H13      HGA3     0.090000        1.0080           0
     68407 WT23     816      MECN     C2       CG1N1    0.360000       12.0110           0
     68408 WT23     816      MECN     N3       NG1T1   -0.460000       14.0070           0
     68409 WT23     817      MECN     C1       CG331   -0.170000       12.0110           0
     68410 WT23     817      MECN     H11      HGA3     0.090000        1.0080           0
     68411 WT23     817      MECN     H12      HGA3     0.090000        1.0080           0
     68412 WT23     817      MECN     H13      HGA3     0.090000        1.0080           0
     68413 WT23     817      MECN     C2       CG1N1    0.360000       12.0110           0
     68414 WT23     817      MECN     N3       NG1T1   -0.460000       14.0070           0
     68415 WT23     819      MECN     C1       CG331   -0.170000       12.0110           0
     68416 WT23     819      MECN     H11      HGA3     0.090000        1.0080           0
     68417 WT23     819      MECN     H12      HGA3     0.090000        1.0080           0
     68418 WT23     819      MECN     H13      HGA3     0.090000        1.0080           0
     68419 WT23     819      MECN     C2       CG1N1    0.360000       12.0110           0
     68420 WT23     819      MECN     N3       NG1T1   -0.460000       14.0070           0
     68421 WT23     820      MECN     C1       CG331   -0.170000       12.0110           0
     68422 WT23     820      MECN     H11      HGA3     0.090000        1.0080           0
     68423 WT23     820      MECN     H12      HGA3     0.090000        1.0080           0
     68424 WT23     820      MECN     H13      HGA3     0.090000        1.0080           0
     68425 WT23     820      MECN     C2       CG1N1    0.360000       12.0110           0
     68426 WT23     820      MECN     N3       NG1T1   -0.460000       14.0070           0
     68427 WT23     821      MECN     C1       CG331   -0.170000       12.0110           0
     68428 WT23     821      MECN     H11      HGA3     0.090000        1.0080           0
     68429 WT23     821      MECN     H12      HGA3     0.090000        1.0080           0
     68430 WT23     821      MECN     H13      HGA3     0.090000        1.0080           0
     68431 WT23     821      MECN     C2       CG1N1    0.360000       12.0110           0
     68432 WT23     821      MECN     N3       NG1T1   -0.460000       14.0070           0
     68433 WT23     823      MECN     C1       CG331   -0.170000       12.0110           0
     68434 WT23     823      MECN     H11      HGA3     0.090000        1.0080           0
     68435 WT23     823      MECN     H12      HGA3     0.090000        1.0080           0
     68436 WT23     823      MECN     H13      HGA3     0.090000        1.0080           0
     68437 WT23     823      MECN     C2       CG1N1    0.360000       12.0110           0
     68438 WT23     823      MECN     N3       NG1T1   -0.460000       14.0070           0
     68439 WT23     824      MECN     C1       CG331   -0.170000       12.0110           0
     68440 WT23     824      MECN     H11      HGA3     0.090000        1.0080           0
     68441 WT23     824      MECN     H12      HGA3     0.090000        1.0080           0
     68442 WT23     824      MECN     H13      HGA3     0.090000        1.0080           0
     68443 WT23     824      MECN     C2       CG1N1    0.360000       12.0110           0
     68444 WT23     824      MECN     N3       NG1T1   -0.460000       14.0070           0
     68445 WT23     826      MECN     C1       CG331   -0.170000       12.0110           0
     68446 WT23     826      MECN     H11      HGA3     0.090000        1.0080           0
     68447 WT23     826      MECN     H12      HGA3     0.090000        1.0080           0
     68448 WT23     826      MECN     H13      HGA3     0.090000        1.0080           0
     68449 WT23     826      MECN     C2       CG1N1    0.360000       12.0110           0
     68450 WT23     826      MECN     N3       NG1T1   -0.460000       14.0070           0
     68451 WT23     827      MECN     C1       CG331   -0.170000       12.0110           0
     68452 WT23     827      MECN     H11      HGA3     0.090000        1.0080           0
     68453 WT23     827      MECN     H12      HGA3     0.090000        1.0080           0
     68454 WT23     827      MECN     H13      HGA3     0.090000        1.0080           0
     68455 WT23     827      MECN     C2       CG1N1    0.360000       12.0110           0
     68456 WT23     827      MECN     N3       NG1T1   -0.460000       14.0070           0
     68457 WT23     828      MECN     C1       CG331   -0.170000       12.0110           0
     68458 WT23     828      MECN     H11      HGA3     0.090000        1.0080           0
     68459 WT23     828      MECN     H12      HGA3     0.090000        1.0080           0
     68460 WT23     828      MECN     H13      HGA3     0.090000        1.0080           0
     68461 WT23     828      MECN     C2       CG1N1    0.360000       12.0110           0
     68462 WT23     828      MECN     N3       NG1T1   -0.460000       14.0070           0
     68463 WT23     829      MECN     C1       CG331   -0.170000       12.0110           0
     68464 WT23     829      MECN     H11      HGA3     0.090000        1.0080           0
     68465 WT23     829      MECN     H12      HGA3     0.090000        1.0080           0
     68466 WT23     829      MECN     H13      HGA3     0.090000        1.0080           0
     68467 WT23     829      MECN     C2       CG1N1    0.360000       12.0110           0
     68468 WT23     829      MECN     N3       NG1T1   -0.460000       14.0070           0
     68469 WT23     830      MECN     C1       CG331   -0.170000       12.0110           0
     68470 WT23     830      MECN     H11      HGA3     0.090000        1.0080           0
     68471 WT23     830      MECN     H12      HGA3     0.090000        1.0080           0
     68472 WT23     830      MECN     H13      HGA3     0.090000        1.0080           0
     68473 WT23     830      MECN     C2       CG1N1    0.360000       12.0110           0
     68474 WT23     830      MECN     N3       NG1T1   -0.460000       14.0070           0
     68475 WT23     831      MECN     C1       CG331   -0.170000       12.0110           0
     68476 WT23     831      MECN     H11      HGA3     0.090000        1.0080           0
     68477 WT23     831      MECN     H12      HGA3     0.090000        1.0080           0
     68478 WT23     831      MECN     H13      HGA3     0.090000        1.0080           0
     68479 WT23     831      MECN     C2       CG1N1    0.360000       12.0110           0
     68480 WT23     831      MECN     N3       NG1T1   -0.460000       14.0070           0
     68481 WT23     832      MECN     C1       CG331   -0.170000       12.0110           0
     68482 WT23     832      MECN     H11      HGA3     0.090000        1.0080           0
     68483 WT23     832      MECN     H12      HGA3     0.090000        1.0080           0
     68484 WT23     832      MECN     H13      HGA3     0.090000        1.0080           0
     68485 WT23     832      MECN     C2       CG1N1    0.360000       12.0110           0
     68486 WT23     832      MECN     N3       NG1T1   -0.460000       14.0070           0
     68487 WT23     833      MECN     C1       CG331   -0.170000       12.0110           0
     68488 WT23     833      MECN     H11      HGA3     0.090000        1.0080           0
     68489 WT23     833      MECN     H12      HGA3     0.090000        1.0080           0
     68490 WT23     833      MECN     H13      HGA3     0.090000        1.0080           0
     68491 WT23     833      MECN     C2       CG1N1    0.360000       12.0110           0
     68492 WT23     833      MECN     N3       NG1T1   -0.460000       14.0070           0
     68493 WT23     834      MECN     C1       CG331   -0.170000       12.0110           0
     68494 WT23     834      MECN     H11      HGA3     0.090000        1.0080           0
     68495 WT23     834      MECN     H12      HGA3     0.090000        1.0080           0
     68496 WT23     834      MECN     H13      HGA3     0.090000        1.0080           0
     68497 WT23     834      MECN     C2       CG1N1    0.360000       12.0110           0
     68498 WT23     834      MECN     N3       NG1T1   -0.460000       14.0070           0
     68499 WT23     838      MECN     C1       CG331   -0.170000       12.0110           0
     68500 WT23     838      MECN     H11      HGA3     0.090000        1.0080           0
     68501 WT23     838      MECN     H12      HGA3     0.090000        1.0080           0
     68502 WT23     838      MECN     H13      HGA3     0.090000        1.0080           0
     68503 WT23     838      MECN     C2       CG1N1    0.360000       12.0110           0
     68504 WT23     838      MECN     N3       NG1T1   -0.460000       14.0070           0
     68505 WT23     840      MECN     C1       CG331   -0.170000       12.0110           0
     68506 WT23     840      MECN     H11      HGA3     0.090000        1.0080           0
     68507 WT23     840      MECN     H12      HGA3     0.090000        1.0080           0
     68508 WT23     840      MECN     H13      HGA3     0.090000        1.0080           0
     68509 WT23     840      MECN     C2       CG1N1    0.360000       12.0110           0
     68510 WT23     840      MECN     N3       NG1T1   -0.460000       14.0070           0
     68511 WT23     842      MECN     C1       CG331   -0.170000       12.0110           0
     68512 WT23     842      MECN     H11      HGA3     0.090000        1.0080           0
     68513 WT23     842      MECN     H12      HGA3     0.090000        1.0080           0
     68514 WT23     842      MECN     H13      HGA3     0.090000        1.0080           0
     68515 WT23     842      MECN     C2       CG1N1    0.360000       12.0110           0
     68516 WT23     842      MECN     N3       NG1T1   -0.460000       14.0070           0
     68517 WT23     843      MECN     C1       CG331   -0.170000       12.0110           0
     68518 WT23     843      MECN     H11      HGA3     0.090000        1.0080           0
     68519 WT23     843      MECN     H12      HGA3     0.090000        1.0080           0
     68520 WT23     843      MECN     H13      HGA3     0.090000        1.0080           0
     68521 WT23     843      MECN     C2       CG1N1    0.360000       12.0110           0
     68522 WT23     843      MECN     N3       NG1T1   -0.460000       14.0070           0
     68523 WT23     844      MECN     C1       CG331   -0.170000       12.0110           0
     68524 WT23     844      MECN     H11      HGA3     0.090000        1.0080           0
     68525 WT23     844      MECN     H12      HGA3     0.090000        1.0080           0
     68526 WT23     844      MECN     H13      HGA3     0.090000        1.0080           0
     68527 WT23     844      MECN     C2       CG1N1    0.360000       12.0110           0
     68528 WT23     844      MECN     N3       NG1T1   -0.460000       14.0070           0
     68529 WT23     847      MECN     C1       CG331   -0.170000       12.0110           0
     68530 WT23     847      MECN     H11      HGA3     0.090000        1.0080           0
     68531 WT23     847      MECN     H12      HGA3     0.090000        1.0080           0
     68532 WT23     847      MECN     H13      HGA3     0.090000        1.0080           0
     68533 WT23     847      MECN     C2       CG1N1    0.360000       12.0110           0
     68534 WT23     847      MECN     N3       NG1T1   -0.460000       14.0070           0
     68535 WT23     849      MECN     C1       CG331   -0.170000       12.0110           0
     68536 WT23     849      MECN     H11      HGA3     0.090000        1.0080           0
     68537 WT23     849      MECN     H12      HGA3     0.090000        1.0080           0
     68538 WT23     849      MECN     H13      HGA3     0.090000        1.0080           0
     68539 WT23     849      MECN     C2       CG1N1    0.360000       12.0110           0
     68540 WT23     849      MECN     N3       NG1T1   -0.460000       14.0070           0
     68541 WT23     850      MECN     C1       CG331   -0.170000       12.0110           0
     68542 WT23     850      MECN     H11      HGA3     0.090000        1.0080           0
     68543 WT23     850      MECN     H12      HGA3     0.090000        1.0080           0
     68544 WT23     850      MECN     H13      HGA3     0.090000        1.0080           0
     68545 WT23     850      MECN     C2       CG1N1    0.360000       12.0110           0
     68546 WT23     850      MECN     N3       NG1T1   -0.460000       14.0070           0
     68547 WT23     851      MECN     C1       CG331   -0.170000       12.0110           0
     68548 WT23     851      MECN     H11      HGA3     0.090000        1.0080           0
     68549 WT23     851      MECN     H12      HGA3     0.090000        1.0080           0
     68550 WT23     851      MECN     H13      HGA3     0.090000        1.0080           0
     68551 WT23     851      MECN     C2       CG1N1    0.360000       12.0110           0
     68552 WT23     851      MECN     N3       NG1T1   -0.460000       14.0070           0
     68553 WT23     852      MECN     C1       CG331   -0.170000       12.0110           0
     68554 WT23     852      MECN     H11      HGA3     0.090000        1.0080           0
     68555 WT23     852      MECN     H12      HGA3     0.090000        1.0080           0
     68556 WT23     852      MECN     H13      HGA3     0.090000        1.0080           0
     68557 WT23     852      MECN     C2       CG1N1    0.360000       12.0110           0
     68558 WT23     852      MECN     N3       NG1T1   -0.460000       14.0070           0
     68559 WT23     857      MECN     C1       CG331   -0.170000       12.0110           0
     68560 WT23     857      MECN     H11      HGA3     0.090000        1.0080           0
     68561 WT23     857      MECN     H12      HGA3     0.090000        1.0080           0
     68562 WT23     857      MECN     H13      HGA3     0.090000        1.0080           0
     68563 WT23     857      MECN     C2       CG1N1    0.360000       12.0110           0
     68564 WT23     857      MECN     N3       NG1T1   -0.460000       14.0070           0
     68565 WT23     858      MECN     C1       CG331   -0.170000       12.0110           0
     68566 WT23     858      MECN     H11      HGA3     0.090000        1.0080           0
     68567 WT23     858      MECN     H12      HGA3     0.090000        1.0080           0
     68568 WT23     858      MECN     H13      HGA3     0.090000        1.0080           0
     68569 WT23     858      MECN     C2       CG1N1    0.360000       12.0110           0
     68570 WT23     858      MECN     N3       NG1T1   -0.460000       14.0070           0
     68571 WT23     859      MECN     C1       CG331   -0.170000       12.0110           0
     68572 WT23     859      MECN     H11      HGA3     0.090000        1.0080           0
     68573 WT23     859      MECN     H12      HGA3     0.090000        1.0080           0
     68574 WT23     859      MECN     H13      HGA3     0.090000        1.0080           0
     68575 WT23     859      MECN     C2       CG1N1    0.360000       12.0110           0
     68576 WT23     859      MECN     N3       NG1T1   -0.460000       14.0070           0
     68577 WT23     860      MECN     C1       CG331   -0.170000       12.0110           0
     68578 WT23     860      MECN     H11      HGA3     0.090000        1.0080           0
     68579 WT23     860      MECN     H12      HGA3     0.090000        1.0080           0
     68580 WT23     860      MECN     H13      HGA3     0.090000        1.0080           0
     68581 WT23     860      MECN     C2       CG1N1    0.360000       12.0110           0
     68582 WT23     860      MECN     N3       NG1T1   -0.460000       14.0070           0
     68583 WT23     861      MECN     C1       CG331   -0.170000       12.0110           0
     68584 WT23     861      MECN     H11      HGA3     0.090000        1.0080           0
     68585 WT23     861      MECN     H12      HGA3     0.090000        1.0080           0
     68586 WT23     861      MECN     H13      HGA3     0.090000        1.0080           0
     68587 WT23     861      MECN     C2       CG1N1    0.360000       12.0110           0
     68588 WT23     861      MECN     N3       NG1T1   -0.460000       14.0070           0
     68589 WT23     863      MECN     C1       CG331   -0.170000       12.0110           0
     68590 WT23     863      MECN     H11      HGA3     0.090000        1.0080           0
     68591 WT23     863      MECN     H12      HGA3     0.090000        1.0080           0
     68592 WT23     863      MECN     H13      HGA3     0.090000        1.0080           0
     68593 WT23     863      MECN     C2       CG1N1    0.360000       12.0110           0
     68594 WT23     863      MECN     N3       NG1T1   -0.460000       14.0070           0
     68595 WT23     864      MECN     C1       CG331   -0.170000       12.0110           0
     68596 WT23     864      MECN     H11      HGA3     0.090000        1.0080           0
     68597 WT23     864      MECN     H12      HGA3     0.090000        1.0080           0
     68598 WT23     864      MECN     H13      HGA3     0.090000        1.0080           0
     68599 WT23     864      MECN     C2       CG1N1    0.360000       12.0110           0
     68600 WT23     864      MECN     N3       NG1T1   -0.460000       14.0070           0
     68601 WT23     865      MECN     C1       CG331   -0.170000       12.0110           0
     68602 WT23     865      MECN     H11      HGA3     0.090000        1.0080           0
     68603 WT23     865      MECN     H12      HGA3     0.090000        1.0080           0
     68604 WT23     865      MECN     H13      HGA3     0.090000        1.0080           0
     68605 WT23     865      MECN     C2       CG1N1    0.360000       12.0110           0
     68606 WT23     865      MECN     N3       NG1T1   -0.460000       14.0070           0
     68607 WT23     868      MECN     C1       CG331   -0.170000       12.0110           0
     68608 WT23     868      MECN     H11      HGA3     0.090000        1.0080           0
     68609 WT23     868      MECN     H12      HGA3     0.090000        1.0080           0
     68610 WT23     868      MECN     H13      HGA3     0.090000        1.0080           0
     68611 WT23     868      MECN     C2       CG1N1    0.360000       12.0110           0
     68612 WT23     868      MECN     N3       NG1T1   -0.460000       14.0070           0
     68613 WT23     869      MECN     C1       CG331   -0.170000       12.0110           0
     68614 WT23     869      MECN     H11      HGA3     0.090000        1.0080           0
     68615 WT23     869      MECN     H12      HGA3     0.090000        1.0080           0
     68616 WT23     869      MECN     H13      HGA3     0.090000        1.0080           0
     68617 WT23     869      MECN     C2       CG1N1    0.360000       12.0110           0
     68618 WT23     869      MECN     N3       NG1T1   -0.460000       14.0070           0
     68619 WT23     871      MECN     C1       CG331   -0.170000       12.0110           0
     68620 WT23     871      MECN     H11      HGA3     0.090000        1.0080           0
     68621 WT23     871      MECN     H12      HGA3     0.090000        1.0080           0
     68622 WT23     871      MECN     H13      HGA3     0.090000        1.0080           0
     68623 WT23     871      MECN     C2       CG1N1    0.360000       12.0110           0
     68624 WT23     871      MECN     N3       NG1T1   -0.460000       14.0070           0
     68625 WT23     872      MECN     C1       CG331   -0.170000       12.0110           0
     68626 WT23     872      MECN     H11      HGA3     0.090000        1.0080           0
     68627 WT23     872      MECN     H12      HGA3     0.090000        1.0080           0
     68628 WT23     872      MECN     H13      HGA3     0.090000        1.0080           0
     68629 WT23     872      MECN     C2       CG1N1    0.360000       12.0110           0
     68630 WT23     872      MECN     N3       NG1T1   -0.460000       14.0070           0
     68631 WT23     874      MECN     C1       CG331   -0.170000       12.0110           0
     68632 WT23     874      MECN     H11      HGA3     0.090000        1.0080           0
     68633 WT23     874      MECN     H12      HGA3     0.090000        1.0080           0
     68634 WT23     874      MECN     H13      HGA3     0.090000        1.0080           0
     68635 WT23     874      MECN     C2       CG1N1    0.360000       12.0110           0
     68636 WT23     874      MECN     N3       NG1T1   -0.460000       14.0070           0
     68637 WT23     875      MECN     C1       CG331   -0.170000       12.0110           0
     68638 WT23     875      MECN     H11      HGA3     0.090000        1.0080           0
     68639 WT23     875      MECN     H12      HGA3     0.090000        1.0080           0
     68640 WT23     875      MECN     H13      HGA3     0.090000        1.0080           0
     68641 WT23     875      MECN     C2       CG1N1    0.360000       12.0110           0
     68642 WT23     875      MECN     N3       NG1T1   -0.460000       14.0070           0
     68643 WT23     877      MECN     C1       CG331   -0.170000       12.0110           0
     68644 WT23     877      MECN     H11      HGA3     0.090000        1.0080           0
     68645 WT23     877      MECN     H12      HGA3     0.090000        1.0080           0
     68646 WT23     877      MECN     H13      HGA3     0.090000        1.0080           0
     68647 WT23     877      MECN     C2       CG1N1    0.360000       12.0110           0
     68648 WT23     877      MECN     N3       NG1T1   -0.460000       14.0070           0
     68649 WT23     879      MECN     C1       CG331   -0.170000       12.0110           0
     68650 WT23     879      MECN     H11      HGA3     0.090000        1.0080           0
     68651 WT23     879      MECN     H12      HGA3     0.090000        1.0080           0
     68652 WT23     879      MECN     H13      HGA3     0.090000        1.0080           0
     68653 WT23     879      MECN     C2       CG1N1    0.360000       12.0110           0
     68654 WT23     879      MECN     N3       NG1T1   -0.460000       14.0070           0
     68655 WT23     880      MECN     C1       CG331   -0.170000       12.0110           0
     68656 WT23     880      MECN     H11      HGA3     0.090000        1.0080           0
     68657 WT23     880      MECN     H12      HGA3     0.090000        1.0080           0
     68658 WT23     880      MECN     H13      HGA3     0.090000        1.0080           0
     68659 WT23     880      MECN     C2       CG1N1    0.360000       12.0110           0
     68660 WT23     880      MECN     N3       NG1T1   -0.460000       14.0070           0
     68661 WT23     881      MECN     C1       CG331   -0.170000       12.0110           0
     68662 WT23     881      MECN     H11      HGA3     0.090000        1.0080           0
     68663 WT23     881      MECN     H12      HGA3     0.090000        1.0080           0
     68664 WT23     881      MECN     H13      HGA3     0.090000        1.0080           0
     68665 WT23     881      MECN     C2       CG1N1    0.360000       12.0110           0
     68666 WT23     881      MECN     N3       NG1T1   -0.460000       14.0070           0
     68667 WT23     883      MECN     C1       CG331   -0.170000       12.0110           0
     68668 WT23     883      MECN     H11      HGA3     0.090000        1.0080           0
     68669 WT23     883      MECN     H12      HGA3     0.090000        1.0080           0
     68670 WT23     883      MECN     H13      HGA3     0.090000        1.0080           0
     68671 WT23     883      MECN     C2       CG1N1    0.360000       12.0110           0
     68672 WT23     883      MECN     N3       NG1T1   -0.460000       14.0070           0
     68673 WT23     885      MECN     C1       CG331   -0.170000       12.0110           0
     68674 WT23     885      MECN     H11      HGA3     0.090000        1.0080           0
     68675 WT23     885      MECN     H12      HGA3     0.090000        1.0080           0
     68676 WT23     885      MECN     H13      HGA3     0.090000        1.0080           0
     68677 WT23     885      MECN     C2       CG1N1    0.360000       12.0110           0
     68678 WT23     885      MECN     N3       NG1T1   -0.460000       14.0070           0
     68679 WT23     886      MECN     C1       CG331   -0.170000       12.0110           0
     68680 WT23     886      MECN     H11      HGA3     0.090000        1.0080           0
     68681 WT23     886      MECN     H12      HGA3     0.090000        1.0080           0
     68682 WT23     886      MECN     H13      HGA3     0.090000        1.0080           0
     68683 WT23     886      MECN     C2       CG1N1    0.360000       12.0110           0
     68684 WT23     886      MECN     N3       NG1T1   -0.460000       14.0070           0
     68685 WT23     887      MECN     C1       CG331   -0.170000       12.0110           0
     68686 WT23     887      MECN     H11      HGA3     0.090000        1.0080           0
     68687 WT23     887      MECN     H12      HGA3     0.090000        1.0080           0
     68688 WT23     887      MECN     H13      HGA3     0.090000        1.0080           0
     68689 WT23     887      MECN     C2       CG1N1    0.360000       12.0110           0
     68690 WT23     887      MECN     N3       NG1T1   -0.460000       14.0070           0
     68691 WT23     888      MECN     C1       CG331   -0.170000       12.0110           0
     68692 WT23     888      MECN     H11      HGA3     0.090000        1.0080           0
     68693 WT23     888      MECN     H12      HGA3     0.090000        1.0080           0
     68694 WT23     888      MECN     H13      HGA3     0.090000        1.0080           0
     68695 WT23     888      MECN     C2       CG1N1    0.360000       12.0110           0
     68696 WT23     888      MECN     N3       NG1T1   -0.460000       14.0070           0
     68697 WT23     889      MECN     C1       CG331   -0.170000       12.0110           0
     68698 WT23     889      MECN     H11      HGA3     0.090000        1.0080           0
     68699 WT23     889      MECN     H12      HGA3     0.090000        1.0080           0
     68700 WT23     889      MECN     H13      HGA3     0.090000        1.0080           0
     68701 WT23     889      MECN     C2       CG1N1    0.360000       12.0110           0
     68702 WT23     889      MECN     N3       NG1T1   -0.460000       14.0070           0
     68703 WT23     891      MECN     C1       CG331   -0.170000       12.0110           0
     68704 WT23     891      MECN     H11      HGA3     0.090000        1.0080           0
     68705 WT23     891      MECN     H12      HGA3     0.090000        1.0080           0
     68706 WT23     891      MECN     H13      HGA3     0.090000        1.0080           0
     68707 WT23     891      MECN     C2       CG1N1    0.360000       12.0110           0
     68708 WT23     891      MECN     N3       NG1T1   -0.460000       14.0070           0
     68709 WT23     892      MECN     C1       CG331   -0.170000       12.0110           0
     68710 WT23     892      MECN     H11      HGA3     0.090000        1.0080           0
     68711 WT23     892      MECN     H12      HGA3     0.090000        1.0080           0
     68712 WT23     892      MECN     H13      HGA3     0.090000        1.0080           0
     68713 WT23     892      MECN     C2       CG1N1    0.360000       12.0110           0
     68714 WT23     892      MECN     N3       NG1T1   -0.460000       14.0070           0
     68715 WT23     893      MECN     C1       CG331   -0.170000       12.0110           0
     68716 WT23     893      MECN     H11      HGA3     0.090000        1.0080           0
     68717 WT23     893      MECN     H12      HGA3     0.090000        1.0080           0
     68718 WT23     893      MECN     H13      HGA3     0.090000        1.0080           0
     68719 WT23     893      MECN     C2       CG1N1    0.360000       12.0110           0
     68720 WT23     893      MECN     N3       NG1T1   -0.460000       14.0070           0
     68721 WT23     894      MECN     C1       CG331   -0.170000       12.0110           0
     68722 WT23     894      MECN     H11      HGA3     0.090000        1.0080           0
     68723 WT23     894      MECN     H12      HGA3     0.090000        1.0080           0
     68724 WT23     894      MECN     H13      HGA3     0.090000        1.0080           0
     68725 WT23     894      MECN     C2       CG1N1    0.360000       12.0110           0
     68726 WT23     894      MECN     N3       NG1T1   -0.460000       14.0070           0
     68727 WT23     896      MECN     C1       CG331   -0.170000       12.0110           0
     68728 WT23     896      MECN     H11      HGA3     0.090000        1.0080           0
     68729 WT23     896      MECN     H12      HGA3     0.090000        1.0080           0
     68730 WT23     896      MECN     H13      HGA3     0.090000        1.0080           0
     68731 WT23     896      MECN     C2       CG1N1    0.360000       12.0110           0
     68732 WT23     896      MECN     N3       NG1T1   -0.460000       14.0070           0
     68733 WT23     900      MECN     C1       CG331   -0.170000       12.0110           0
     68734 WT23     900      MECN     H11      HGA3     0.090000        1.0080           0
     68735 WT23     900      MECN     H12      HGA3     0.090000        1.0080           0
     68736 WT23     900      MECN     H13      HGA3     0.090000        1.0080           0
     68737 WT23     900      MECN     C2       CG1N1    0.360000       12.0110           0
     68738 WT23     900      MECN     N3       NG1T1   -0.460000       14.0070           0
     68739 WT23     901      MECN     C1       CG331   -0.170000       12.0110           0
     68740 WT23     901      MECN     H11      HGA3     0.090000        1.0080           0
     68741 WT23     901      MECN     H12      HGA3     0.090000        1.0080           0
     68742 WT23     901      MECN     H13      HGA3     0.090000        1.0080           0
     68743 WT23     901      MECN     C2       CG1N1    0.360000       12.0110           0
     68744 WT23     901      MECN     N3       NG1T1   -0.460000       14.0070           0
     68745 WT23     903      MECN     C1       CG331   -0.170000       12.0110           0
     68746 WT23     903      MECN     H11      HGA3     0.090000        1.0080           0
     68747 WT23     903      MECN     H12      HGA3     0.090000        1.0080           0
     68748 WT23     903      MECN     H13      HGA3     0.090000        1.0080           0
     68749 WT23     903      MECN     C2       CG1N1    0.360000       12.0110           0
     68750 WT23     903      MECN     N3       NG1T1   -0.460000       14.0070           0
     68751 WT23     904      MECN     C1       CG331   -0.170000       12.0110           0
     68752 WT23     904      MECN     H11      HGA3     0.090000        1.0080           0
     68753 WT23     904      MECN     H12      HGA3     0.090000        1.0080           0
     68754 WT23     904      MECN     H13      HGA3     0.090000        1.0080           0
     68755 WT23     904      MECN     C2       CG1N1    0.360000       12.0110           0
     68756 WT23     904      MECN     N3       NG1T1   -0.460000       14.0070           0
     68757 WT23     905      MECN     C1       CG331   -0.170000       12.0110           0
     68758 WT23     905      MECN     H11      HGA3     0.090000        1.0080           0
     68759 WT23     905      MECN     H12      HGA3     0.090000        1.0080           0
     68760 WT23     905      MECN     H13      HGA3     0.090000        1.0080           0
     68761 WT23     905      MECN     C2       CG1N1    0.360000       12.0110           0
     68762 WT23     905      MECN     N3       NG1T1   -0.460000       14.0070           0
     68763 WT23     906      MECN     C1       CG331   -0.170000       12.0110           0
     68764 WT23     906      MECN     H11      HGA3     0.090000        1.0080           0
     68765 WT23     906      MECN     H12      HGA3     0.090000        1.0080           0
     68766 WT23     906      MECN     H13      HGA3     0.090000        1.0080           0
     68767 WT23     906      MECN     C2       CG1N1    0.360000       12.0110           0
     68768 WT23     906      MECN     N3       NG1T1   -0.460000       14.0070           0
     68769 WT23     907      MECN     C1       CG331   -0.170000       12.0110           0
     68770 WT23     907      MECN     H11      HGA3     0.090000        1.0080           0
     68771 WT23     907      MECN     H12      HGA3     0.090000        1.0080           0
     68772 WT23     907      MECN     H13      HGA3     0.090000        1.0080           0
     68773 WT23     907      MECN     C2       CG1N1    0.360000       12.0110           0
     68774 WT23     907      MECN     N3       NG1T1   -0.460000       14.0070           0
     68775 WT23     910      MECN     C1       CG331   -0.170000       12.0110           0
     68776 WT23     910      MECN     H11      HGA3     0.090000        1.0080           0
     68777 WT23     910      MECN     H12      HGA3     0.090000        1.0080           0
     68778 WT23     910      MECN     H13      HGA3     0.090000        1.0080           0
     68779 WT23     910      MECN     C2       CG1N1    0.360000       12.0110           0
     68780 WT23     910      MECN     N3       NG1T1   -0.460000       14.0070           0
     68781 WT23     912      MECN     C1       CG331   -0.170000       12.0110           0
     68782 WT23     912      MECN     H11      HGA3     0.090000        1.0080           0
     68783 WT23     912      MECN     H12      HGA3     0.090000        1.0080           0
     68784 WT23     912      MECN     H13      HGA3     0.090000        1.0080           0
     68785 WT23     912      MECN     C2       CG1N1    0.360000       12.0110           0
     68786 WT23     912      MECN     N3       NG1T1   -0.460000       14.0070           0
     68787 WT23     914      MECN     C1       CG331   -0.170000       12.0110           0
     68788 WT23     914      MECN     H11      HGA3     0.090000        1.0080           0
     68789 WT23     914      MECN     H12      HGA3     0.090000        1.0080           0
     68790 WT23     914      MECN     H13      HGA3     0.090000        1.0080           0
     68791 WT23     914      MECN     C2       CG1N1    0.360000       12.0110           0
     68792 WT23     914      MECN     N3       NG1T1   -0.460000       14.0070           0
     68793 WT23     915      MECN     C1       CG331   -0.170000       12.0110           0
     68794 WT23     915      MECN     H11      HGA3     0.090000        1.0080           0
     68795 WT23     915      MECN     H12      HGA3     0.090000        1.0080           0
     68796 WT23     915      MECN     H13      HGA3     0.090000        1.0080           0
     68797 WT23     915      MECN     C2       CG1N1    0.360000       12.0110           0
     68798 WT23     915      MECN     N3       NG1T1   -0.460000       14.0070           0
     68799 WT23     918      MECN     C1       CG331   -0.170000       12.0110           0
     68800 WT23     918      MECN     H11      HGA3     0.090000        1.0080           0
     68801 WT23     918      MECN     H12      HGA3     0.090000        1.0080           0
     68802 WT23     918      MECN     H13      HGA3     0.090000        1.0080           0
     68803 WT23     918      MECN     C2       CG1N1    0.360000       12.0110           0
     68804 WT23     918      MECN     N3       NG1T1   -0.460000       14.0070           0
     68805 WT23     920      MECN     C1       CG331   -0.170000       12.0110           0
     68806 WT23     920      MECN     H11      HGA3     0.090000        1.0080           0
     68807 WT23     920      MECN     H12      HGA3     0.090000        1.0080           0
     68808 WT23     920      MECN     H13      HGA3     0.090000        1.0080           0
     68809 WT23     920      MECN     C2       CG1N1    0.360000       12.0110           0
     68810 WT23     920      MECN     N3       NG1T1   -0.460000       14.0070           0
     68811 WT23     921      MECN     C1       CG331   -0.170000       12.0110           0
     68812 WT23     921      MECN     H11      HGA3     0.090000        1.0080           0
     68813 WT23     921      MECN     H12      HGA3     0.090000        1.0080           0
     68814 WT23     921      MECN     H13      HGA3     0.090000        1.0080           0
     68815 WT23     921      MECN     C2       CG1N1    0.360000       12.0110           0
     68816 WT23     921      MECN     N3       NG1T1   -0.460000       14.0070           0
     68817 WT23     924      MECN     C1       CG331   -0.170000       12.0110           0
     68818 WT23     924      MECN     H11      HGA3     0.090000        1.0080           0
     68819 WT23     924      MECN     H12      HGA3     0.090000        1.0080           0
     68820 WT23     924      MECN     H13      HGA3     0.090000        1.0080           0
     68821 WT23     924      MECN     C2       CG1N1    0.360000       12.0110           0
     68822 WT23     924      MECN     N3       NG1T1   -0.460000       14.0070           0
     68823 WT23     925      MECN     C1       CG331   -0.170000       12.0110           0
     68824 WT23     925      MECN     H11      HGA3     0.090000        1.0080           0
     68825 WT23     925      MECN     H12      HGA3     0.090000        1.0080           0
     68826 WT23     925      MECN     H13      HGA3     0.090000        1.0080           0
     68827 WT23     925      MECN     C2       CG1N1    0.360000       12.0110           0
     68828 WT23     925      MECN     N3       NG1T1   -0.460000       14.0070           0
     68829 WT23     926      MECN     C1       CG331   -0.170000       12.0110           0
     68830 WT23     926      MECN     H11      HGA3     0.090000        1.0080           0
     68831 WT23     926      MECN     H12      HGA3     0.090000        1.0080           0
     68832 WT23     926      MECN     H13      HGA3     0.090000        1.0080           0
     68833 WT23     926      MECN     C2       CG1N1    0.360000       12.0110           0
     68834 WT23     926      MECN     N3       NG1T1   -0.460000       14.0070           0
     68835 WT23     927      MECN     C1       CG331   -0.170000       12.0110           0
     68836 WT23     927      MECN     H11      HGA3     0.090000        1.0080           0
     68837 WT23     927      MECN     H12      HGA3     0.090000        1.0080           0
     68838 WT23     927      MECN     H13      HGA3     0.090000        1.0080           0
     68839 WT23     927      MECN     C2       CG1N1    0.360000       12.0110           0
     68840 WT23     927      MECN     N3       NG1T1   -0.460000       14.0070           0
     68841 WT23     928      MECN     C1       CG331   -0.170000       12.0110           0
     68842 WT23     928      MECN     H11      HGA3     0.090000        1.0080           0
     68843 WT23     928      MECN     H12      HGA3     0.090000        1.0080           0
     68844 WT23     928      MECN     H13      HGA3     0.090000        1.0080           0
     68845 WT23     928      MECN     C2       CG1N1    0.360000       12.0110           0
     68846 WT23     928      MECN     N3       NG1T1   -0.460000       14.0070           0
     68847 WT23     931      MECN     C1       CG331   -0.170000       12.0110           0
     68848 WT23     931      MECN     H11      HGA3     0.090000        1.0080           0
     68849 WT23     931      MECN     H12      HGA3     0.090000        1.0080           0
     68850 WT23     931      MECN     H13      HGA3     0.090000        1.0080           0
     68851 WT23     931      MECN     C2       CG1N1    0.360000       12.0110           0
     68852 WT23     931      MECN     N3       NG1T1   -0.460000       14.0070           0
     68853 WT23     932      MECN     C1       CG331   -0.170000       12.0110           0
     68854 WT23     932      MECN     H11      HGA3     0.090000        1.0080           0
     68855 WT23     932      MECN     H12      HGA3     0.090000        1.0080           0
     68856 WT23     932      MECN     H13      HGA3     0.090000        1.0080           0
     68857 WT23     932      MECN     C2       CG1N1    0.360000       12.0110           0
     68858 WT23     932      MECN     N3       NG1T1   -0.460000       14.0070           0
     68859 WT23     933      MECN     C1       CG331   -0.170000       12.0110           0
     68860 WT23     933      MECN     H11      HGA3     0.090000        1.0080           0
     68861 WT23     933      MECN     H12      HGA3     0.090000        1.0080           0
     68862 WT23     933      MECN     H13      HGA3     0.090000        1.0080           0
     68863 WT23     933      MECN     C2       CG1N1    0.360000       12.0110           0
     68864 WT23     933      MECN     N3       NG1T1   -0.460000       14.0070           0
     68865 WT23     934      MECN     C1       CG331   -0.170000       12.0110           0
     68866 WT23     934      MECN     H11      HGA3     0.090000        1.0080           0
     68867 WT23     934      MECN     H12      HGA3     0.090000        1.0080           0
     68868 WT23     934      MECN     H13      HGA3     0.090000        1.0080           0
     68869 WT23     934      MECN     C2       CG1N1    0.360000       12.0110           0
     68870 WT23     934      MECN     N3       NG1T1   -0.460000       14.0070           0
     68871 WT23     936      MECN     C1       CG331   -0.170000       12.0110           0
     68872 WT23     936      MECN     H11      HGA3     0.090000        1.0080           0
     68873 WT23     936      MECN     H12      HGA3     0.090000        1.0080           0
     68874 WT23     936      MECN     H13      HGA3     0.090000        1.0080           0
     68875 WT23     936      MECN     C2       CG1N1    0.360000       12.0110           0
     68876 WT23     936      MECN     N3       NG1T1   -0.460000       14.0070           0
     68877 WT23     937      MECN     C1       CG331   -0.170000       12.0110           0
     68878 WT23     937      MECN     H11      HGA3     0.090000        1.0080           0
     68879 WT23     937      MECN     H12      HGA3     0.090000        1.0080           0
     68880 WT23     937      MECN     H13      HGA3     0.090000        1.0080           0
     68881 WT23     937      MECN     C2       CG1N1    0.360000       12.0110           0
     68882 WT23     937      MECN     N3       NG1T1   -0.460000       14.0070           0
     68883 WT23     939      MECN     C1       CG331   -0.170000       12.0110           0
     68884 WT23     939      MECN     H11      HGA3     0.090000        1.0080           0
     68885 WT23     939      MECN     H12      HGA3     0.090000        1.0080           0
     68886 WT23     939      MECN     H13      HGA3     0.090000        1.0080           0
     68887 WT23     939      MECN     C2       CG1N1    0.360000       12.0110           0
     68888 WT23     939      MECN     N3       NG1T1   -0.460000       14.0070           0
     68889 WT23     940      MECN     C1       CG331   -0.170000       12.0110           0
     68890 WT23     940      MECN     H11      HGA3     0.090000        1.0080           0
     68891 WT23     940      MECN     H12      HGA3     0.090000        1.0080           0
     68892 WT23     940      MECN     H13      HGA3     0.090000        1.0080           0
     68893 WT23     940      MECN     C2       CG1N1    0.360000       12.0110           0
     68894 WT23     940      MECN     N3       NG1T1   -0.460000       14.0070           0
     68895 WT23     942      MECN     C1       CG331   -0.170000       12.0110           0
     68896 WT23     942      MECN     H11      HGA3     0.090000        1.0080           0
     68897 WT23     942      MECN     H12      HGA3     0.090000        1.0080           0
     68898 WT23     942      MECN     H13      HGA3     0.090000        1.0080           0
     68899 WT23     942      MECN     C2       CG1N1    0.360000       12.0110           0
     68900 WT23     942      MECN     N3       NG1T1   -0.460000       14.0070           0
     68901 WT23     944      MECN     C1       CG331   -0.170000       12.0110           0
     68902 WT23     944      MECN     H11      HGA3     0.090000        1.0080           0
     68903 WT23     944      MECN     H12      HGA3     0.090000        1.0080           0
     68904 WT23     944      MECN     H13      HGA3     0.090000        1.0080           0
     68905 WT23     944      MECN     C2       CG1N1    0.360000       12.0110           0
     68906 WT23     944      MECN     N3       NG1T1   -0.460000       14.0070           0
     68907 WT23     946      MECN     C1       CG331   -0.170000       12.0110           0
     68908 WT23     946      MECN     H11      HGA3     0.090000        1.0080           0
     68909 WT23     946      MECN     H12      HGA3     0.090000        1.0080           0
     68910 WT23     946      MECN     H13      HGA3     0.090000        1.0080           0
     68911 WT23     946      MECN     C2       CG1N1    0.360000       12.0110           0
     68912 WT23     946      MECN     N3       NG1T1   -0.460000       14.0070           0
     68913 WT23     949      MECN     C1       CG331   -0.170000       12.0110           0
     68914 WT23     949      MECN     H11      HGA3     0.090000        1.0080           0
     68915 WT23     949      MECN     H12      HGA3     0.090000        1.0080           0
     68916 WT23     949      MECN     H13      HGA3     0.090000        1.0080           0
     68917 WT23     949      MECN     C2       CG1N1    0.360000       12.0110           0
     68918 WT23     949      MECN     N3       NG1T1   -0.460000       14.0070           0
     68919 WT23     951      MECN     C1       CG331   -0.170000       12.0110           0
     68920 WT23     951      MECN     H11      HGA3     0.090000        1.0080           0
     68921 WT23     951      MECN     H12      HGA3     0.090000        1.0080           0
     68922 WT23     951      MECN     H13      HGA3     0.090000        1.0080           0
     68923 WT23     951      MECN     C2       CG1N1    0.360000       12.0110           0
     68924 WT23     951      MECN     N3       NG1T1   -0.460000       14.0070           0
     68925 WT23     952      MECN     C1       CG331   -0.170000       12.0110           0
     68926 WT23     952      MECN     H11      HGA3     0.090000        1.0080           0
     68927 WT23     952      MECN     H12      HGA3     0.090000        1.0080           0
     68928 WT23     952      MECN     H13      HGA3     0.090000        1.0080           0
     68929 WT23     952      MECN     C2       CG1N1    0.360000       12.0110           0
     68930 WT23     952      MECN     N3       NG1T1   -0.460000       14.0070           0
     68931 WT23     954      MECN     C1       CG331   -0.170000       12.0110           0
     68932 WT23     954      MECN     H11      HGA3     0.090000        1.0080           0
     68933 WT23     954      MECN     H12      HGA3     0.090000        1.0080           0
     68934 WT23     954      MECN     H13      HGA3     0.090000        1.0080           0
     68935 WT23     954      MECN     C2       CG1N1    0.360000       12.0110           0
     68936 WT23     954      MECN     N3       NG1T1   -0.460000       14.0070           0
     68937 WT23     956      MECN     C1       CG331   -0.170000       12.0110           0
     68938 WT23     956      MECN     H11      HGA3     0.090000        1.0080           0
     68939 WT23     956      MECN     H12      HGA3     0.090000        1.0080           0
     68940 WT23     956      MECN     H13      HGA3     0.090000        1.0080           0
     68941 WT23     956      MECN     C2       CG1N1    0.360000       12.0110           0
     68942 WT23     956      MECN     N3       NG1T1   -0.460000       14.0070           0
     68943 WT23     959      MECN     C1       CG331   -0.170000       12.0110           0
     68944 WT23     959      MECN     H11      HGA3     0.090000        1.0080           0
     68945 WT23     959      MECN     H12      HGA3     0.090000        1.0080           0
     68946 WT23     959      MECN     H13      HGA3     0.090000        1.0080           0
     68947 WT23     959      MECN     C2       CG1N1    0.360000       12.0110           0
     68948 WT23     959      MECN     N3       NG1T1   -0.460000       14.0070           0
     68949 WT23     961      MECN     C1       CG331   -0.170000       12.0110           0
     68950 WT23     961      MECN     H11      HGA3     0.090000        1.0080           0
     68951 WT23     961      MECN     H12      HGA3     0.090000        1.0080           0
     68952 WT23     961      MECN     H13      HGA3     0.090000        1.0080           0
     68953 WT23     961      MECN     C2       CG1N1    0.360000       12.0110           0
     68954 WT23     961      MECN     N3       NG1T1   -0.460000       14.0070           0
     68955 WT23     962      MECN     C1       CG331   -0.170000       12.0110           0
     68956 WT23     962      MECN     H11      HGA3     0.090000        1.0080           0
     68957 WT23     962      MECN     H12      HGA3     0.090000        1.0080           0
     68958 WT23     962      MECN     H13      HGA3     0.090000        1.0080           0
     68959 WT23     962      MECN     C2       CG1N1    0.360000       12.0110           0
     68960 WT23     962      MECN     N3       NG1T1   -0.460000       14.0070           0
     68961 WT23     966      MECN     C1       CG331   -0.170000       12.0110           0
     68962 WT23     966      MECN     H11      HGA3     0.090000        1.0080           0
     68963 WT23     966      MECN     H12      HGA3     0.090000        1.0080           0
     68964 WT23     966      MECN     H13      HGA3     0.090000        1.0080           0
     68965 WT23     966      MECN     C2       CG1N1    0.360000       12.0110           0
     68966 WT23     966      MECN     N3       NG1T1   -0.460000       14.0070           0
     68967 WT23     968      MECN     C1       CG331   -0.170000       12.0110           0
     68968 WT23     968      MECN     H11      HGA3     0.090000        1.0080           0
     68969 WT23     968      MECN     H12      HGA3     0.090000        1.0080           0
     68970 WT23     968      MECN     H13      HGA3     0.090000        1.0080           0
     68971 WT23     968      MECN     C2       CG1N1    0.360000       12.0110           0
     68972 WT23     968      MECN     N3       NG1T1   -0.460000       14.0070           0
     68973 WT23     969      MECN     C1       CG331   -0.170000       12.0110           0
     68974 WT23     969      MECN     H11      HGA3     0.090000        1.0080           0
     68975 WT23     969      MECN     H12      HGA3     0.090000        1.0080           0
     68976 WT23     969      MECN     H13      HGA3     0.090000        1.0080           0
     68977 WT23     969      MECN     C2       CG1N1    0.360000       12.0110           0
     68978 WT23     969      MECN     N3       NG1T1   -0.460000       14.0070           0
     68979 WT23     970      MECN     C1       CG331   -0.170000       12.0110           0
     68980 WT23     970      MECN     H11      HGA3     0.090000        1.0080           0
     68981 WT23     970      MECN     H12      HGA3     0.090000        1.0080           0
     68982 WT23     970      MECN     H13      HGA3     0.090000        1.0080           0
     68983 WT23     970      MECN     C2       CG1N1    0.360000       12.0110           0
     68984 WT23     970      MECN     N3       NG1T1   -0.460000       14.0070           0
     68985 WT23     971      MECN     C1       CG331   -0.170000       12.0110           0
     68986 WT23     971      MECN     H11      HGA3     0.090000        1.0080           0
     68987 WT23     971      MECN     H12      HGA3     0.090000        1.0080           0
     68988 WT23     971      MECN     H13      HGA3     0.090000        1.0080           0
     68989 WT23     971      MECN     C2       CG1N1    0.360000       12.0110           0
     68990 WT23     971      MECN     N3       NG1T1   -0.460000       14.0070           0
     68991 WT23     973      MECN     C1       CG331   -0.170000       12.0110           0
     68992 WT23     973      MECN     H11      HGA3     0.090000        1.0080           0
     68993 WT23     973      MECN     H12      HGA3     0.090000        1.0080           0
     68994 WT23     973      MECN     H13      HGA3     0.090000        1.0080           0
     68995 WT23     973      MECN     C2       CG1N1    0.360000       12.0110           0
     68996 WT23     973      MECN     N3       NG1T1   -0.460000       14.0070           0
     68997 WT23     976      MECN     C1       CG331   -0.170000       12.0110           0
     68998 WT23     976      MECN     H11      HGA3     0.090000        1.0080           0
     68999 WT23     976      MECN     H12      HGA3     0.090000        1.0080           0
     69000 WT23     976      MECN     H13      HGA3     0.090000        1.0080           0
     69001 WT23     976      MECN     C2       CG1N1    0.360000       12.0110           0
     69002 WT23     976      MECN     N3       NG1T1   -0.460000       14.0070           0
     69003 WT23     977      MECN     C1       CG331   -0.170000       12.0110           0
     69004 WT23     977      MECN     H11      HGA3     0.090000        1.0080           0
     69005 WT23     977      MECN     H12      HGA3     0.090000        1.0080           0
     69006 WT23     977      MECN     H13      HGA3     0.090000        1.0080           0
     69007 WT23     977      MECN     C2       CG1N1    0.360000       12.0110           0
     69008 WT23     977      MECN     N3       NG1T1   -0.460000       14.0070           0
     69009 WT23     978      MECN     C1       CG331   -0.170000       12.0110           0
     69010 WT23     978      MECN     H11      HGA3     0.090000        1.0080           0
     69011 WT23     978      MECN     H12      HGA3     0.090000        1.0080           0
     69012 WT23     978      MECN     H13      HGA3     0.090000        1.0080           0
     69013 WT23     978      MECN     C2       CG1N1    0.360000       12.0110           0
     69014 WT23     978      MECN     N3       NG1T1   -0.460000       14.0070           0
     69015 WT23     979      MECN     C1       CG331   -0.170000       12.0110           0
     69016 WT23     979      MECN     H11      HGA3     0.090000        1.0080           0
     69017 WT23     979      MECN     H12      HGA3     0.090000        1.0080           0
     69018 WT23     979      MECN     H13      HGA3     0.090000        1.0080           0
     69019 WT23     979      MECN     C2       CG1N1    0.360000       12.0110           0
     69020 WT23     979      MECN     N3       NG1T1   -0.460000       14.0070           0
     69021 WT23     980      MECN     C1       CG331   -0.170000       12.0110           0
     69022 WT23     980      MECN     H11      HGA3     0.090000        1.0080           0
     69023 WT23     980      MECN     H12      HGA3     0.090000        1.0080           0
     69024 WT23     980      MECN     H13      HGA3     0.090000        1.0080           0
     69025 WT23     980      MECN     C2       CG1N1    0.360000       12.0110           0
     69026 WT23     980      MECN     N3       NG1T1   -0.460000       14.0070           0
     69027 WT23     981      MECN     C1       CG331   -0.170000       12.0110           0
     69028 WT23     981      MECN     H11      HGA3     0.090000        1.0080           0
     69029 WT23     981      MECN     H12      HGA3     0.090000        1.0080           0
     69030 WT23     981      MECN     H13      HGA3     0.090000        1.0080           0
     69031 WT23     981      MECN     C2       CG1N1    0.360000       12.0110           0
     69032 WT23     981      MECN     N3       NG1T1   -0.460000       14.0070           0
     69033 WT23     983      MECN     C1       CG331   -0.170000       12.0110           0
     69034 WT23     983      MECN     H11      HGA3     0.090000        1.0080           0
     69035 WT23     983      MECN     H12      HGA3     0.090000        1.0080           0
     69036 WT23     983      MECN     H13      HGA3     0.090000        1.0080           0
     69037 WT23     983      MECN     C2       CG1N1    0.360000       12.0110           0
     69038 WT23     983      MECN     N3       NG1T1   -0.460000       14.0070           0
     69039 WT23     985      MECN     C1       CG331   -0.170000       12.0110           0
     69040 WT23     985      MECN     H11      HGA3     0.090000        1.0080           0
     69041 WT23     985      MECN     H12      HGA3     0.090000        1.0080           0
     69042 WT23     985      MECN     H13      HGA3     0.090000        1.0080           0
     69043 WT23     985      MECN     C2       CG1N1    0.360000       12.0110           0
     69044 WT23     985      MECN     N3       NG1T1   -0.460000       14.0070           0
     69045 WT23     986      MECN     C1       CG331   -0.170000       12.0110           0
     69046 WT23     986      MECN     H11      HGA3     0.090000        1.0080           0
     69047 WT23     986      MECN     H12      HGA3     0.090000        1.0080           0
     69048 WT23     986      MECN     H13      HGA3     0.090000        1.0080           0
     69049 WT23     986      MECN     C2       CG1N1    0.360000       12.0110           0
     69050 WT23     986      MECN     N3       NG1T1   -0.460000       14.0070           0
     69051 WT23     989      MECN     C1       CG331   -0.170000       12.0110           0
     69052 WT23     989      MECN     H11      HGA3     0.090000        1.0080           0
     69053 WT23     989      MECN     H12      HGA3     0.090000        1.0080           0
     69054 WT23     989      MECN     H13      HGA3     0.090000        1.0080           0
     69055 WT23     989      MECN     C2       CG1N1    0.360000       12.0110           0
     69056 WT23     989      MECN     N3       NG1T1   -0.460000       14.0070           0
     69057 WT23     990      MECN     C1       CG331   -0.170000       12.0110           0
     69058 WT23     990      MECN     H11      HGA3     0.090000        1.0080           0
     69059 WT23     990      MECN     H12      HGA3     0.090000        1.0080           0
     69060 WT23     990      MECN     H13      HGA3     0.090000        1.0080           0
     69061 WT23     990      MECN     C2       CG1N1    0.360000       12.0110           0
     69062 WT23     990      MECN     N3       NG1T1   -0.460000       14.0070           0
     69063 WT23     991      MECN     C1       CG331   -0.170000       12.0110           0
     69064 WT23     991      MECN     H11      HGA3     0.090000        1.0080           0
     69065 WT23     991      MECN     H12      HGA3     0.090000        1.0080           0
     69066 WT23     991      MECN     H13      HGA3     0.090000        1.0080           0
     69067 WT23     991      MECN     C2       CG1N1    0.360000       12.0110           0
     69068 WT23     991      MECN     N3       NG1T1   -0.460000       14.0070           0
     69069 WT23     992      MECN     C1       CG331   -0.170000       12.0110           0
     69070 WT23     992      MECN     H11      HGA3     0.090000        1.0080           0
     69071 WT23     992      MECN     H12      HGA3     0.090000        1.0080           0
     69072 WT23     992      MECN     H13      HGA3     0.090000        1.0080           0
     69073 WT23     992      MECN     C2       CG1N1    0.360000       12.0110           0
     69074 WT23     992      MECN     N3       NG1T1   -0.460000       14.0070           0
     69075 WT23     993      MECN     C1       CG331   -0.170000       12.0110           0
     69076 WT23     993      MECN     H11      HGA3     0.090000        1.0080           0
     69077 WT23     993      MECN     H12      HGA3     0.090000        1.0080           0
     69078 WT23     993      MECN     H13      HGA3     0.090000        1.0080           0
     69079 WT23     993      MECN     C2       CG1N1    0.360000       12.0110           0
     69080 WT23     993      MECN     N3       NG1T1   -0.460000       14.0070           0
     69081 WT23     994      MECN     C1       CG331   -0.170000       12.0110           0
     69082 WT23     994      MECN     H11      HGA3     0.090000        1.0080           0
     69083 WT23     994      MECN     H12      HGA3     0.090000        1.0080           0
     69084 WT23     994      MECN     H13      HGA3     0.090000        1.0080           0
     69085 WT23     994      MECN     C2       CG1N1    0.360000       12.0110           0
     69086 WT23     994      MECN     N3       NG1T1   -0.460000       14.0070           0
     69087 WT23     996      MECN     C1       CG331   -0.170000       12.0110           0
     69088 WT23     996      MECN     H11      HGA3     0.090000        1.0080           0
     69089 WT23     996      MECN     H12      HGA3     0.090000        1.0080           0
     69090 WT23     996      MECN     H13      HGA3     0.090000        1.0080           0
     69091 WT23     996      MECN     C2       CG1N1    0.360000       12.0110           0
     69092 WT23     996      MECN     N3       NG1T1   -0.460000       14.0070           0
     69093 WT23     998      MECN     C1       CG331   -0.170000       12.0110           0
     69094 WT23     998      MECN     H11      HGA3     0.090000        1.0080           0
     69095 WT23     998      MECN     H12      HGA3     0.090000        1.0080           0
     69096 WT23     998      MECN     H13      HGA3     0.090000        1.0080           0
     69097 WT23     998      MECN     C2       CG1N1    0.360000       12.0110           0
     69098 WT23     998      MECN     N3       NG1T1   -0.460000       14.0070           0
     69099 WT23     1000     MECN     C1       CG331   -0.170000       12.0110           0
     69100 WT23     1000     MECN     H11      HGA3     0.090000        1.0080           0
     69101 WT23     1000     MECN     H12      HGA3     0.090000        1.0080           0
     69102 WT23     1000     MECN     H13      HGA3     0.090000        1.0080           0
     69103 WT23     1000     MECN     C2       CG1N1    0.360000       12.0110           0
     69104 WT23     1000     MECN     N3       NG1T1   -0.460000       14.0070           0
     69105 WT23     1002     MECN     C1       CG331   -0.170000       12.0110           0
     69106 WT23     1002     MECN     H11      HGA3     0.090000        1.0080           0
     69107 WT23     1002     MECN     H12      HGA3     0.090000        1.0080           0
     69108 WT23     1002     MECN     H13      HGA3     0.090000        1.0080           0
     69109 WT23     1002     MECN     C2       CG1N1    0.360000       12.0110           0
     69110 WT23     1002     MECN     N3       NG1T1   -0.460000       14.0070           0
     69111 WT23     1003     MECN     C1       CG331   -0.170000       12.0110           0
     69112 WT23     1003     MECN     H11      HGA3     0.090000        1.0080           0
     69113 WT23     1003     MECN     H12      HGA3     0.090000        1.0080           0
     69114 WT23     1003     MECN     H13      HGA3     0.090000        1.0080           0
     69115 WT23     1003     MECN     C2       CG1N1    0.360000       12.0110           0
     69116 WT23     1003     MECN     N3       NG1T1   -0.460000       14.0070           0
     69117 WT23     1004     MECN     C1       CG331   -0.170000       12.0110           0
     69118 WT23     1004     MECN     H11      HGA3     0.090000        1.0080           0
     69119 WT23     1004     MECN     H12      HGA3     0.090000        1.0080           0
     69120 WT23     1004     MECN     H13      HGA3     0.090000        1.0080           0
     69121 WT23     1004     MECN     C2       CG1N1    0.360000       12.0110           0
     69122 WT23     1004     MECN     N3       NG1T1   -0.460000       14.0070           0
     69123 WT23     1005     MECN     C1       CG331   -0.170000       12.0110           0
     69124 WT23     1005     MECN     H11      HGA3     0.090000        1.0080           0
     69125 WT23     1005     MECN     H12      HGA3     0.090000        1.0080           0
     69126 WT23     1005     MECN     H13      HGA3     0.090000        1.0080           0
     69127 WT23     1005     MECN     C2       CG1N1    0.360000       12.0110           0
     69128 WT23     1005     MECN     N3       NG1T1   -0.460000       14.0070           0
     69129 WT23     1007     MECN     C1       CG331   -0.170000       12.0110           0
     69130 WT23     1007     MECN     H11      HGA3     0.090000        1.0080           0
     69131 WT23     1007     MECN     H12      HGA3     0.090000        1.0080           0
     69132 WT23     1007     MECN     H13      HGA3     0.090000        1.0080           0
     69133 WT23     1007     MECN     C2       CG1N1    0.360000       12.0110           0
     69134 WT23     1007     MECN     N3       NG1T1   -0.460000       14.0070           0
     69135 WT23     1008     MECN     C1       CG331   -0.170000       12.0110           0
     69136 WT23     1008     MECN     H11      HGA3     0.090000        1.0080           0
     69137 WT23     1008     MECN     H12      HGA3     0.090000        1.0080           0
     69138 WT23     1008     MECN     H13      HGA3     0.090000        1.0080           0
     69139 WT23     1008     MECN     C2       CG1N1    0.360000       12.0110           0
     69140 WT23     1008     MECN     N3       NG1T1   -0.460000       14.0070           0
     69141 WT23     1010     MECN     C1       CG331   -0.170000       12.0110           0
     69142 WT23     1010     MECN     H11      HGA3     0.090000        1.0080           0
     69143 WT23     1010     MECN     H12      HGA3     0.090000        1.0080           0
     69144 WT23     1010     MECN     H13      HGA3     0.090000        1.0080           0
     69145 WT23     1010     MECN     C2       CG1N1    0.360000       12.0110           0
     69146 WT23     1010     MECN     N3       NG1T1   -0.460000       14.0070           0
     69147 WT23     1012     MECN     C1       CG331   -0.170000       12.0110           0
     69148 WT23     1012     MECN     H11      HGA3     0.090000        1.0080           0
     69149 WT23     1012     MECN     H12      HGA3     0.090000        1.0080           0
     69150 WT23     1012     MECN     H13      HGA3     0.090000        1.0080           0
     69151 WT23     1012     MECN     C2       CG1N1    0.360000       12.0110           0
     69152 WT23     1012     MECN     N3       NG1T1   -0.460000       14.0070           0
     69153 WT23     1013     MECN     C1       CG331   -0.170000       12.0110           0
     69154 WT23     1013     MECN     H11      HGA3     0.090000        1.0080           0
     69155 WT23     1013     MECN     H12      HGA3     0.090000        1.0080           0
     69156 WT23     1013     MECN     H13      HGA3     0.090000        1.0080           0
     69157 WT23     1013     MECN     C2       CG1N1    0.360000       12.0110           0
     69158 WT23     1013     MECN     N3       NG1T1   -0.460000       14.0070           0
     69159 WT23     1017     MECN     C1       CG331   -0.170000       12.0110           0
     69160 WT23     1017     MECN     H11      HGA3     0.090000        1.0080           0
     69161 WT23     1017     MECN     H12      HGA3     0.090000        1.0080           0
     69162 WT23     1017     MECN     H13      HGA3     0.090000        1.0080           0
     69163 WT23     1017     MECN     C2       CG1N1    0.360000       12.0110           0
     69164 WT23     1017     MECN     N3       NG1T1   -0.460000       14.0070           0
     69165 WT23     1018     MECN     C1       CG331   -0.170000       12.0110           0
     69166 WT23     1018     MECN     H11      HGA3     0.090000        1.0080           0
     69167 WT23     1018     MECN     H12      HGA3     0.090000        1.0080           0
     69168 WT23     1018     MECN     H13      HGA3     0.090000        1.0080           0
     69169 WT23     1018     MECN     C2       CG1N1    0.360000       12.0110           0
     69170 WT23     1018     MECN     N3       NG1T1   -0.460000       14.0070           0
     69171 WT23     1019     MECN     C1       CG331   -0.170000       12.0110           0
     69172 WT23     1019     MECN     H11      HGA3     0.090000        1.0080           0
     69173 WT23     1019     MECN     H12      HGA3     0.090000        1.0080           0
     69174 WT23     1019     MECN     H13      HGA3     0.090000        1.0080           0
     69175 WT23     1019     MECN     C2       CG1N1    0.360000       12.0110           0
     69176 WT23     1019     MECN     N3       NG1T1   -0.460000       14.0070           0
     69177 WT23     1021     MECN     C1       CG331   -0.170000       12.0110           0
     69178 WT23     1021     MECN     H11      HGA3     0.090000        1.0080           0
     69179 WT23     1021     MECN     H12      HGA3     0.090000        1.0080           0
     69180 WT23     1021     MECN     H13      HGA3     0.090000        1.0080           0
     69181 WT23     1021     MECN     C2       CG1N1    0.360000       12.0110           0
     69182 WT23     1021     MECN     N3       NG1T1   -0.460000       14.0070           0
     69183 WT23     1028     MECN     C1       CG331   -0.170000       12.0110           0
     69184 WT23     1028     MECN     H11      HGA3     0.090000        1.0080           0
     69185 WT23     1028     MECN     H12      HGA3     0.090000        1.0080           0
     69186 WT23     1028     MECN     H13      HGA3     0.090000        1.0080           0
     69187 WT23     1028     MECN     C2       CG1N1    0.360000       12.0110           0
     69188 WT23     1028     MECN     N3       NG1T1   -0.460000       14.0070           0
     69189 WT23     1029     MECN     C1       CG331   -0.170000       12.0110           0
     69190 WT23     1029     MECN     H11      HGA3     0.090000        1.0080           0
     69191 WT23     1029     MECN     H12      HGA3     0.090000        1.0080           0
     69192 WT23     1029     MECN     H13      HGA3     0.090000        1.0080           0
     69193 WT23     1029     MECN     C2       CG1N1    0.360000       12.0110           0
     69194 WT23     1029     MECN     N3       NG1T1   -0.460000       14.0070           0
     69195 WT23     1030     MECN     C1       CG331   -0.170000       12.0110           0
     69196 WT23     1030     MECN     H11      HGA3     0.090000        1.0080           0
     69197 WT23     1030     MECN     H12      HGA3     0.090000        1.0080           0
     69198 WT23     1030     MECN     H13      HGA3     0.090000        1.0080           0
     69199 WT23     1030     MECN     C2       CG1N1    0.360000       12.0110           0
     69200 WT23     1030     MECN     N3       NG1T1   -0.460000       14.0070           0
     69201 WT23     1031     MECN     C1       CG331   -0.170000       12.0110           0
     69202 WT23     1031     MECN     H11      HGA3     0.090000        1.0080           0
     69203 WT23     1031     MECN     H12      HGA3     0.090000        1.0080           0
     69204 WT23     1031     MECN     H13      HGA3     0.090000        1.0080           0
     69205 WT23     1031     MECN     C2       CG1N1    0.360000       12.0110           0
     69206 WT23     1031     MECN     N3       NG1T1   -0.460000       14.0070           0
     69207 WT23     1032     MECN     C1       CG331   -0.170000       12.0110           0
     69208 WT23     1032     MECN     H11      HGA3     0.090000        1.0080           0
     69209 WT23     1032     MECN     H12      HGA3     0.090000        1.0080           0
     69210 WT23     1032     MECN     H13      HGA3     0.090000        1.0080           0
     69211 WT23     1032     MECN     C2       CG1N1    0.360000       12.0110           0
     69212 WT23     1032     MECN     N3       NG1T1   -0.460000       14.0070           0
     69213 WT23     1033     MECN     C1       CG331   -0.170000       12.0110           0
     69214 WT23     1033     MECN     H11      HGA3     0.090000        1.0080           0
     69215 WT23     1033     MECN     H12      HGA3     0.090000        1.0080           0
     69216 WT23     1033     MECN     H13      HGA3     0.090000        1.0080           0
     69217 WT23     1033     MECN     C2       CG1N1    0.360000       12.0110           0
     69218 WT23     1033     MECN     N3       NG1T1   -0.460000       14.0070           0
     69219 WT23     1034     MECN     C1       CG331   -0.170000       12.0110           0
     69220 WT23     1034     MECN     H11      HGA3     0.090000        1.0080           0
     69221 WT23     1034     MECN     H12      HGA3     0.090000        1.0080           0
     69222 WT23     1034     MECN     H13      HGA3     0.090000        1.0080           0
     69223 WT23     1034     MECN     C2       CG1N1    0.360000       12.0110           0
     69224 WT23     1034     MECN     N3       NG1T1   -0.460000       14.0070           0
     69225 WT23     1036     MECN     C1       CG331   -0.170000       12.0110           0
     69226 WT23     1036     MECN     H11      HGA3     0.090000        1.0080           0
     69227 WT23     1036     MECN     H12      HGA3     0.090000        1.0080           0
     69228 WT23     1036     MECN     H13      HGA3     0.090000        1.0080           0
     69229 WT23     1036     MECN     C2       CG1N1    0.360000       12.0110           0
     69230 WT23     1036     MECN     N3       NG1T1   -0.460000       14.0070           0
     69231 WT23     1039     MECN     C1       CG331   -0.170000       12.0110           0
     69232 WT23     1039     MECN     H11      HGA3     0.090000        1.0080           0
     69233 WT23     1039     MECN     H12      HGA3     0.090000        1.0080           0
     69234 WT23     1039     MECN     H13      HGA3     0.090000        1.0080           0
     69235 WT23     1039     MECN     C2       CG1N1    0.360000       12.0110           0
     69236 WT23     1039     MECN     N3       NG1T1   -0.460000       14.0070           0
     69237 WT23     1040     MECN     C1       CG331   -0.170000       12.0110           0
     69238 WT23     1040     MECN     H11      HGA3     0.090000        1.0080           0
     69239 WT23     1040     MECN     H12      HGA3     0.090000        1.0080           0
     69240 WT23     1040     MECN     H13      HGA3     0.090000        1.0080           0
     69241 WT23     1040     MECN     C2       CG1N1    0.360000       12.0110           0
     69242 WT23     1040     MECN     N3       NG1T1   -0.460000       14.0070           0
     69243 WT23     1041     MECN     C1       CG331   -0.170000       12.0110           0
     69244 WT23     1041     MECN     H11      HGA3     0.090000        1.0080           0
     69245 WT23     1041     MECN     H12      HGA3     0.090000        1.0080           0
     69246 WT23     1041     MECN     H13      HGA3     0.090000        1.0080           0
     69247 WT23     1041     MECN     C2       CG1N1    0.360000       12.0110           0
     69248 WT23     1041     MECN     N3       NG1T1   -0.460000       14.0070           0
     69249 WT23     1042     MECN     C1       CG331   -0.170000       12.0110           0
     69250 WT23     1042     MECN     H11      HGA3     0.090000        1.0080           0
     69251 WT23     1042     MECN     H12      HGA3     0.090000        1.0080           0
     69252 WT23     1042     MECN     H13      HGA3     0.090000        1.0080           0
     69253 WT23     1042     MECN     C2       CG1N1    0.360000       12.0110           0
     69254 WT23     1042     MECN     N3       NG1T1   -0.460000       14.0070           0
     69255 WT23     1043     MECN     C1       CG331   -0.170000       12.0110           0
     69256 WT23     1043     MECN     H11      HGA3     0.090000        1.0080           0
     69257 WT23     1043     MECN     H12      HGA3     0.090000        1.0080           0
     69258 WT23     1043     MECN     H13      HGA3     0.090000        1.0080           0
     69259 WT23     1043     MECN     C2       CG1N1    0.360000       12.0110           0
     69260 WT23     1043     MECN     N3       NG1T1   -0.460000       14.0070           0
     69261 WT23     1044     MECN     C1       CG331   -0.170000       12.0110           0
     69262 WT23     1044     MECN     H11      HGA3     0.090000        1.0080           0
     69263 WT23     1044     MECN     H12      HGA3     0.090000        1.0080           0
     69264 WT23     1044     MECN     H13      HGA3     0.090000        1.0080           0
     69265 WT23     1044     MECN     C2       CG1N1    0.360000       12.0110           0
     69266 WT23     1044     MECN     N3       NG1T1   -0.460000       14.0070           0
     69267 WT23     1048     MECN     C1       CG331   -0.170000       12.0110           0
     69268 WT23     1048     MECN     H11      HGA3     0.090000        1.0080           0
     69269 WT23     1048     MECN     H12      HGA3     0.090000        1.0080           0
     69270 WT23     1048     MECN     H13      HGA3     0.090000        1.0080           0
     69271 WT23     1048     MECN     C2       CG1N1    0.360000       12.0110           0
     69272 WT23     1048     MECN     N3       NG1T1   -0.460000       14.0070           0
     69273 WT23     1049     MECN     C1       CG331   -0.170000       12.0110           0
     69274 WT23     1049     MECN     H11      HGA3     0.090000        1.0080           0
     69275 WT23     1049     MECN     H12      HGA3     0.090000        1.0080           0
     69276 WT23     1049     MECN     H13      HGA3     0.090000        1.0080           0
     69277 WT23     1049     MECN     C2       CG1N1    0.360000       12.0110           0
     69278 WT23     1049     MECN     N3       NG1T1   -0.460000       14.0070           0
     69279 WT23     1051     MECN     C1       CG331   -0.170000       12.0110           0
     69280 WT23     1051     MECN     H11      HGA3     0.090000        1.0080           0
     69281 WT23     1051     MECN     H12      HGA3     0.090000        1.0080           0
     69282 WT23     1051     MECN     H13      HGA3     0.090000        1.0080           0
     69283 WT23     1051     MECN     C2       CG1N1    0.360000       12.0110           0
     69284 WT23     1051     MECN     N3       NG1T1   -0.460000       14.0070           0
     69285 WT23     1052     MECN     C1       CG331   -0.170000       12.0110           0
     69286 WT23     1052     MECN     H11      HGA3     0.090000        1.0080           0
     69287 WT23     1052     MECN     H12      HGA3     0.090000        1.0080           0
     69288 WT23     1052     MECN     H13      HGA3     0.090000        1.0080           0
     69289 WT23     1052     MECN     C2       CG1N1    0.360000       12.0110           0
     69290 WT23     1052     MECN     N3       NG1T1   -0.460000       14.0070           0
     69291 WT23     1055     MECN     C1       CG331   -0.170000       12.0110           0
     69292 WT23     1055     MECN     H11      HGA3     0.090000        1.0080           0
     69293 WT23     1055     MECN     H12      HGA3     0.090000        1.0080           0
     69294 WT23     1055     MECN     H13      HGA3     0.090000        1.0080           0
     69295 WT23     1055     MECN     C2       CG1N1    0.360000       12.0110           0
     69296 WT23     1055     MECN     N3       NG1T1   -0.460000       14.0070           0
     69297 WT23     1056     MECN     C1       CG331   -0.170000       12.0110           0
     69298 WT23     1056     MECN     H11      HGA3     0.090000        1.0080           0
     69299 WT23     1056     MECN     H12      HGA3     0.090000        1.0080           0
     69300 WT23     1056     MECN     H13      HGA3     0.090000        1.0080           0
     69301 WT23     1056     MECN     C2       CG1N1    0.360000       12.0110           0
     69302 WT23     1056     MECN     N3       NG1T1   -0.460000       14.0070           0
     69303 WT23     1057     MECN     C1       CG331   -0.170000       12.0110           0
     69304 WT23     1057     MECN     H11      HGA3     0.090000        1.0080           0
     69305 WT23     1057     MECN     H12      HGA3     0.090000        1.0080           0
     69306 WT23     1057     MECN     H13      HGA3     0.090000        1.0080           0
     69307 WT23     1057     MECN     C2       CG1N1    0.360000       12.0110           0
     69308 WT23     1057     MECN     N3       NG1T1   -0.460000       14.0070           0
     69309 WT23     1058     MECN     C1       CG331   -0.170000       12.0110           0
     69310 WT23     1058     MECN     H11      HGA3     0.090000        1.0080           0
     69311 WT23     1058     MECN     H12      HGA3     0.090000        1.0080           0
     69312 WT23     1058     MECN     H13      HGA3     0.090000        1.0080           0
     69313 WT23     1058     MECN     C2       CG1N1    0.360000       12.0110           0
     69314 WT23     1058     MECN     N3       NG1T1   -0.460000       14.0070           0
     69315 WT23     1062     MECN     C1       CG331   -0.170000       12.0110           0
     69316 WT23     1062     MECN     H11      HGA3     0.090000        1.0080           0
     69317 WT23     1062     MECN     H12      HGA3     0.090000        1.0080           0
     69318 WT23     1062     MECN     H13      HGA3     0.090000        1.0080           0
     69319 WT23     1062     MECN     C2       CG1N1    0.360000       12.0110           0
     69320 WT23     1062     MECN     N3       NG1T1   -0.460000       14.0070           0
     69321 WT23     1063     MECN     C1       CG331   -0.170000       12.0110           0
     69322 WT23     1063     MECN     H11      HGA3     0.090000        1.0080           0
     69323 WT23     1063     MECN     H12      HGA3     0.090000        1.0080           0
     69324 WT23     1063     MECN     H13      HGA3     0.090000        1.0080           0
     69325 WT23     1063     MECN     C2       CG1N1    0.360000       12.0110           0
     69326 WT23     1063     MECN     N3       NG1T1   -0.460000       14.0070           0
     69327 WT23     1064     MECN     C1       CG331   -0.170000       12.0110           0
     69328 WT23     1064     MECN     H11      HGA3     0.090000        1.0080           0
     69329 WT23     1064     MECN     H12      HGA3     0.090000        1.0080           0
     69330 WT23     1064     MECN     H13      HGA3     0.090000        1.0080           0
     69331 WT23     1064     MECN     C2       CG1N1    0.360000       12.0110           0
     69332 WT23     1064     MECN     N3       NG1T1   -0.460000       14.0070           0
     69333 WT23     1066     MECN     C1       CG331   -0.170000       12.0110           0
     69334 WT23     1066     MECN     H11      HGA3     0.090000        1.0080           0
     69335 WT23     1066     MECN     H12      HGA3     0.090000        1.0080           0
     69336 WT23     1066     MECN     H13      HGA3     0.090000        1.0080           0
     69337 WT23     1066     MECN     C2       CG1N1    0.360000       12.0110           0
     69338 WT23     1066     MECN     N3       NG1T1   -0.460000       14.0070           0
     69339 WT23     1067     MECN     C1       CG331   -0.170000       12.0110           0
     69340 WT23     1067     MECN     H11      HGA3     0.090000        1.0080           0
     69341 WT23     1067     MECN     H12      HGA3     0.090000        1.0080           0
     69342 WT23     1067     MECN     H13      HGA3     0.090000        1.0080           0
     69343 WT23     1067     MECN     C2       CG1N1    0.360000       12.0110           0
     69344 WT23     1067     MECN     N3       NG1T1   -0.460000       14.0070           0
     69345 WT23     1070     MECN     C1       CG331   -0.170000       12.0110           0
     69346 WT23     1070     MECN     H11      HGA3     0.090000        1.0080           0
     69347 WT23     1070     MECN     H12      HGA3     0.090000        1.0080           0
     69348 WT23     1070     MECN     H13      HGA3     0.090000        1.0080           0
     69349 WT23     1070     MECN     C2       CG1N1    0.360000       12.0110           0
     69350 WT23     1070     MECN     N3       NG1T1   -0.460000       14.0070           0
     69351 WT23     1071     MECN     C1       CG331   -0.170000       12.0110           0
     69352 WT23     1071     MECN     H11      HGA3     0.090000        1.0080           0
     69353 WT23     1071     MECN     H12      HGA3     0.090000        1.0080           0
     69354 WT23     1071     MECN     H13      HGA3     0.090000        1.0080           0
     69355 WT23     1071     MECN     C2       CG1N1    0.360000       12.0110           0
     69356 WT23     1071     MECN     N3       NG1T1   -0.460000       14.0070           0
     69357 WT23     1072     MECN     C1       CG331   -0.170000       12.0110           0
     69358 WT23     1072     MECN     H11      HGA3     0.090000        1.0080           0
     69359 WT23     1072     MECN     H12      HGA3     0.090000        1.0080           0
     69360 WT23     1072     MECN     H13      HGA3     0.090000        1.0080           0
     69361 WT23     1072     MECN     C2       CG1N1    0.360000       12.0110           0
     69362 WT23     1072     MECN     N3       NG1T1   -0.460000       14.0070           0
     69363 WT23     1074     MECN     C1       CG331   -0.170000       12.0110           0
     69364 WT23     1074     MECN     H11      HGA3     0.090000        1.0080           0
     69365 WT23     1074     MECN     H12      HGA3     0.090000        1.0080           0
     69366 WT23     1074     MECN     H13      HGA3     0.090000        1.0080           0
     69367 WT23     1074     MECN     C2       CG1N1    0.360000       12.0110           0
     69368 WT23     1074     MECN     N3       NG1T1   -0.460000       14.0070           0
     69369 WT23     1075     MECN     C1       CG331   -0.170000       12.0110           0
     69370 WT23     1075     MECN     H11      HGA3     0.090000        1.0080           0
     69371 WT23     1075     MECN     H12      HGA3     0.090000        1.0080           0
     69372 WT23     1075     MECN     H13      HGA3     0.090000        1.0080           0
     69373 WT23     1075     MECN     C2       CG1N1    0.360000       12.0110           0
     69374 WT23     1075     MECN     N3       NG1T1   -0.460000       14.0070           0
     69375 WT23     1076     MECN     C1       CG331   -0.170000       12.0110           0
     69376 WT23     1076     MECN     H11      HGA3     0.090000        1.0080           0
     69377 WT23     1076     MECN     H12      HGA3     0.090000        1.0080           0
     69378 WT23     1076     MECN     H13      HGA3     0.090000        1.0080           0
     69379 WT23     1076     MECN     C2       CG1N1    0.360000       12.0110           0
     69380 WT23     1076     MECN     N3       NG1T1   -0.460000       14.0070           0
     69381 WT23     1079     MECN     C1       CG331   -0.170000       12.0110           0
     69382 WT23     1079     MECN     H11      HGA3     0.090000        1.0080           0
     69383 WT23     1079     MECN     H12      HGA3     0.090000        1.0080           0
     69384 WT23     1079     MECN     H13      HGA3     0.090000        1.0080           0
     69385 WT23     1079     MECN     C2       CG1N1    0.360000       12.0110           0
     69386 WT23     1079     MECN     N3       NG1T1   -0.460000       14.0070           0
     69387 WT23     1082     MECN     C1       CG331   -0.170000       12.0110           0
     69388 WT23     1082     MECN     H11      HGA3     0.090000        1.0080           0
     69389 WT23     1082     MECN     H12      HGA3     0.090000        1.0080           0
     69390 WT23     1082     MECN     H13      HGA3     0.090000        1.0080           0
     69391 WT23     1082     MECN     C2       CG1N1    0.360000       12.0110           0
     69392 WT23     1082     MECN     N3       NG1T1   -0.460000       14.0070           0
     69393 WT23     1083     MECN     C1       CG331   -0.170000       12.0110           0
     69394 WT23     1083     MECN     H11      HGA3     0.090000        1.0080           0
     69395 WT23     1083     MECN     H12      HGA3     0.090000        1.0080           0
     69396 WT23     1083     MECN     H13      HGA3     0.090000        1.0080           0
     69397 WT23     1083     MECN     C2       CG1N1    0.360000       12.0110           0
     69398 WT23     1083     MECN     N3       NG1T1   -0.460000       14.0070           0
     69399 WT23     1086     MECN     C1       CG331   -0.170000       12.0110           0
     69400 WT23     1086     MECN     H11      HGA3     0.090000        1.0080           0
     69401 WT23     1086     MECN     H12      HGA3     0.090000        1.0080           0
     69402 WT23     1086     MECN     H13      HGA3     0.090000        1.0080           0
     69403 WT23     1086     MECN     C2       CG1N1    0.360000       12.0110           0
     69404 WT23     1086     MECN     N3       NG1T1   -0.460000       14.0070           0
     69405 WT23     1087     MECN     C1       CG331   -0.170000       12.0110           0
     69406 WT23     1087     MECN     H11      HGA3     0.090000        1.0080           0
     69407 WT23     1087     MECN     H12      HGA3     0.090000        1.0080           0
     69408 WT23     1087     MECN     H13      HGA3     0.090000        1.0080           0
     69409 WT23     1087     MECN     C2       CG1N1    0.360000       12.0110           0
     69410 WT23     1087     MECN     N3       NG1T1   -0.460000       14.0070           0
     69411 WT23     1089     MECN     C1       CG331   -0.170000       12.0110           0
     69412 WT23     1089     MECN     H11      HGA3     0.090000        1.0080           0
     69413 WT23     1089     MECN     H12      HGA3     0.090000        1.0080           0
     69414 WT23     1089     MECN     H13      HGA3     0.090000        1.0080           0
     69415 WT23     1089     MECN     C2       CG1N1    0.360000       12.0110           0
     69416 WT23     1089     MECN     N3       NG1T1   -0.460000       14.0070           0
     69417 WT23     1090     MECN     C1       CG331   -0.170000       12.0110           0
     69418 WT23     1090     MECN     H11      HGA3     0.090000        1.0080           0
     69419 WT23     1090     MECN     H12      HGA3     0.090000        1.0080           0
     69420 WT23     1090     MECN     H13      HGA3     0.090000        1.0080           0
     69421 WT23     1090     MECN     C2       CG1N1    0.360000       12.0110           0
     69422 WT23     1090     MECN     N3       NG1T1   -0.460000       14.0070           0
     69423 WT23     1091     MECN     C1       CG331   -0.170000       12.0110           0
     69424 WT23     1091     MECN     H11      HGA3     0.090000        1.0080           0
     69425 WT23     1091     MECN     H12      HGA3     0.090000        1.0080           0
     69426 WT23     1091     MECN     H13      HGA3     0.090000        1.0080           0
     69427 WT23     1091     MECN     C2       CG1N1    0.360000       12.0110           0
     69428 WT23     1091     MECN     N3       NG1T1   -0.460000       14.0070           0
     69429 WT23     1093     MECN     C1       CG331   -0.170000       12.0110           0
     69430 WT23     1093     MECN     H11      HGA3     0.090000        1.0080           0
     69431 WT23     1093     MECN     H12      HGA3     0.090000        1.0080           0
     69432 WT23     1093     MECN     H13      HGA3     0.090000        1.0080           0
     69433 WT23     1093     MECN     C2       CG1N1    0.360000       12.0110           0
     69434 WT23     1093     MECN     N3       NG1T1   -0.460000       14.0070           0
     69435 WT23     1096     MECN     C1       CG331   -0.170000       12.0110           0
     69436 WT23     1096     MECN     H11      HGA3     0.090000        1.0080           0
     69437 WT23     1096     MECN     H12      HGA3     0.090000        1.0080           0
     69438 WT23     1096     MECN     H13      HGA3     0.090000        1.0080           0
     69439 WT23     1096     MECN     C2       CG1N1    0.360000       12.0110           0
     69440 WT23     1096     MECN     N3       NG1T1   -0.460000       14.0070           0
     69441 WT23     1097     MECN     C1       CG331   -0.170000       12.0110           0
     69442 WT23     1097     MECN     H11      HGA3     0.090000        1.0080           0
     69443 WT23     1097     MECN     H12      HGA3     0.090000        1.0080           0
     69444 WT23     1097     MECN     H13      HGA3     0.090000        1.0080           0
     69445 WT23     1097     MECN     C2       CG1N1    0.360000       12.0110           0
     69446 WT23     1097     MECN     N3       NG1T1   -0.460000       14.0070           0
     69447 WT23     1099     MECN     C1       CG331   -0.170000       12.0110           0
     69448 WT23     1099     MECN     H11      HGA3     0.090000        1.0080           0
     69449 WT23     1099     MECN     H12      HGA3     0.090000        1.0080           0
     69450 WT23     1099     MECN     H13      HGA3     0.090000        1.0080           0
     69451 WT23     1099     MECN     C2       CG1N1    0.360000       12.0110           0
     69452 WT23     1099     MECN     N3       NG1T1   -0.460000       14.0070           0
     69453 WT23     1100     MECN     C1       CG331   -0.170000       12.0110           0
     69454 WT23     1100     MECN     H11      HGA3     0.090000        1.0080           0
     69455 WT23     1100     MECN     H12      HGA3     0.090000        1.0080           0
     69456 WT23     1100     MECN     H13      HGA3     0.090000        1.0080           0
     69457 WT23     1100     MECN     C2       CG1N1    0.360000       12.0110           0
     69458 WT23     1100     MECN     N3       NG1T1   -0.460000       14.0070           0
     69459 WT23     1101     MECN     C1       CG331   -0.170000       12.0110           0
     69460 WT23     1101     MECN     H11      HGA3     0.090000        1.0080           0
     69461 WT23     1101     MECN     H12      HGA3     0.090000        1.0080           0
     69462 WT23     1101     MECN     H13      HGA3     0.090000        1.0080           0
     69463 WT23     1101     MECN     C2       CG1N1    0.360000       12.0110           0
     69464 WT23     1101     MECN     N3       NG1T1   -0.460000       14.0070           0
     69465 WT23     1102     MECN     C1       CG331   -0.170000       12.0110           0
     69466 WT23     1102     MECN     H11      HGA3     0.090000        1.0080           0
     69467 WT23     1102     MECN     H12      HGA3     0.090000        1.0080           0
     69468 WT23     1102     MECN     H13      HGA3     0.090000        1.0080           0
     69469 WT23     1102     MECN     C2       CG1N1    0.360000       12.0110           0
     69470 WT23     1102     MECN     N3       NG1T1   -0.460000       14.0070           0
     69471 WT23     1104     MECN     C1       CG331   -0.170000       12.0110           0
     69472 WT23     1104     MECN     H11      HGA3     0.090000        1.0080           0
     69473 WT23     1104     MECN     H12      HGA3     0.090000        1.0080           0
     69474 WT23     1104     MECN     H13      HGA3     0.090000        1.0080           0
     69475 WT23     1104     MECN     C2       CG1N1    0.360000       12.0110           0
     69476 WT23     1104     MECN     N3       NG1T1   -0.460000       14.0070           0
     69477 WT23     1105     MECN     C1       CG331   -0.170000       12.0110           0
     69478 WT23     1105     MECN     H11      HGA3     0.090000        1.0080           0
     69479 WT23     1105     MECN     H12      HGA3     0.090000        1.0080           0
     69480 WT23     1105     MECN     H13      HGA3     0.090000        1.0080           0
     69481 WT23     1105     MECN     C2       CG1N1    0.360000       12.0110           0
     69482 WT23     1105     MECN     N3       NG1T1   -0.460000       14.0070           0
     69483 WT23     1106     MECN     C1       CG331   -0.170000       12.0110           0
     69484 WT23     1106     MECN     H11      HGA3     0.090000        1.0080           0
     69485 WT23     1106     MECN     H12      HGA3     0.090000        1.0080           0
     69486 WT23     1106     MECN     H13      HGA3     0.090000        1.0080           0
     69487 WT23     1106     MECN     C2       CG1N1    0.360000       12.0110           0
     69488 WT23     1106     MECN     N3       NG1T1   -0.460000       14.0070           0
     69489 WT23     1108     MECN     C1       CG331   -0.170000       12.0110           0
     69490 WT23     1108     MECN     H11      HGA3     0.090000        1.0080           0
     69491 WT23     1108     MECN     H12      HGA3     0.090000        1.0080           0
     69492 WT23     1108     MECN     H13      HGA3     0.090000        1.0080           0
     69493 WT23     1108     MECN     C2       CG1N1    0.360000       12.0110           0
     69494 WT23     1108     MECN     N3       NG1T1   -0.460000       14.0070           0
     69495 WT23     1109     MECN     C1       CG331   -0.170000       12.0110           0
     69496 WT23     1109     MECN     H11      HGA3     0.090000        1.0080           0
     69497 WT23     1109     MECN     H12      HGA3     0.090000        1.0080           0
     69498 WT23     1109     MECN     H13      HGA3     0.090000        1.0080           0
     69499 WT23     1109     MECN     C2       CG1N1    0.360000       12.0110           0
     69500 WT23     1109     MECN     N3       NG1T1   -0.460000       14.0070           0
     69501 WT23     1110     MECN     C1       CG331   -0.170000       12.0110           0
     69502 WT23     1110     MECN     H11      HGA3     0.090000        1.0080           0
     69503 WT23     1110     MECN     H12      HGA3     0.090000        1.0080           0
     69504 WT23     1110     MECN     H13      HGA3     0.090000        1.0080           0
     69505 WT23     1110     MECN     C2       CG1N1    0.360000       12.0110           0
     69506 WT23     1110     MECN     N3       NG1T1   -0.460000       14.0070           0
     69507 WT23     1111     MECN     C1       CG331   -0.170000       12.0110           0
     69508 WT23     1111     MECN     H11      HGA3     0.090000        1.0080           0
     69509 WT23     1111     MECN     H12      HGA3     0.090000        1.0080           0
     69510 WT23     1111     MECN     H13      HGA3     0.090000        1.0080           0
     69511 WT23     1111     MECN     C2       CG1N1    0.360000       12.0110           0
     69512 WT23     1111     MECN     N3       NG1T1   -0.460000       14.0070           0
     69513 WT23     1112     MECN     C1       CG331   -0.170000       12.0110           0
     69514 WT23     1112     MECN     H11      HGA3     0.090000        1.0080           0
     69515 WT23     1112     MECN     H12      HGA3     0.090000        1.0080           0
     69516 WT23     1112     MECN     H13      HGA3     0.090000        1.0080           0
     69517 WT23     1112     MECN     C2       CG1N1    0.360000       12.0110           0
     69518 WT23     1112     MECN     N3       NG1T1   -0.460000       14.0070           0
     69519 WT23     1118     MECN     C1       CG331   -0.170000       12.0110           0
     69520 WT23     1118     MECN     H11      HGA3     0.090000        1.0080           0
     69521 WT23     1118     MECN     H12      HGA3     0.090000        1.0080           0
     69522 WT23     1118     MECN     H13      HGA3     0.090000        1.0080           0
     69523 WT23     1118     MECN     C2       CG1N1    0.360000       12.0110           0
     69524 WT23     1118     MECN     N3       NG1T1   -0.460000       14.0070           0
     69525 WT23     1120     MECN     C1       CG331   -0.170000       12.0110           0
     69526 WT23     1120     MECN     H11      HGA3     0.090000        1.0080           0
     69527 WT23     1120     MECN     H12      HGA3     0.090000        1.0080           0
     69528 WT23     1120     MECN     H13      HGA3     0.090000        1.0080           0
     69529 WT23     1120     MECN     C2       CG1N1    0.360000       12.0110           0
     69530 WT23     1120     MECN     N3       NG1T1   -0.460000       14.0070           0
     69531 WT23     1127     MECN     C1       CG331   -0.170000       12.0110           0
     69532 WT23     1127     MECN     H11      HGA3     0.090000        1.0080           0
     69533 WT23     1127     MECN     H12      HGA3     0.090000        1.0080           0
     69534 WT23     1127     MECN     H13      HGA3     0.090000        1.0080           0
     69535 WT23     1127     MECN     C2       CG1N1    0.360000       12.0110           0
     69536 WT23     1127     MECN     N3       NG1T1   -0.460000       14.0070           0
     69537 WT23     1128     MECN     C1       CG331   -0.170000       12.0110           0
     69538 WT23     1128     MECN     H11      HGA3     0.090000        1.0080           0
     69539 WT23     1128     MECN     H12      HGA3     0.090000        1.0080           0
     69540 WT23     1128     MECN     H13      HGA3     0.090000        1.0080           0
     69541 WT23     1128     MECN     C2       CG1N1    0.360000       12.0110           0
     69542 WT23     1128     MECN     N3       NG1T1   -0.460000       14.0070           0
     69543 WT23     1129     MECN     C1       CG331   -0.170000       12.0110           0
     69544 WT23     1129     MECN     H11      HGA3     0.090000        1.0080           0
     69545 WT23     1129     MECN     H12      HGA3     0.090000        1.0080           0
     69546 WT23     1129     MECN     H13      HGA3     0.090000        1.0080           0
     69547 WT23     1129     MECN     C2       CG1N1    0.360000       12.0110           0
     69548 WT23     1129     MECN     N3       NG1T1   -0.460000       14.0070           0
     69549 WT23     1130     MECN     C1       CG331   -0.170000       12.0110           0
     69550 WT23     1130     MECN     H11      HGA3     0.090000        1.0080           0
     69551 WT23     1130     MECN     H12      HGA3     0.090000        1.0080           0
     69552 WT23     1130     MECN     H13      HGA3     0.090000        1.0080           0
     69553 WT23     1130     MECN     C2       CG1N1    0.360000       12.0110           0
     69554 WT23     1130     MECN     N3       NG1T1   -0.460000       14.0070           0
     69555 WT23     1132     MECN     C1       CG331   -0.170000       12.0110           0
     69556 WT23     1132     MECN     H11      HGA3     0.090000        1.0080           0
     69557 WT23     1132     MECN     H12      HGA3     0.090000        1.0080           0
     69558 WT23     1132     MECN     H13      HGA3     0.090000        1.0080           0
     69559 WT23     1132     MECN     C2       CG1N1    0.360000       12.0110           0
     69560 WT23     1132     MECN     N3       NG1T1   -0.460000       14.0070           0
     69561 WT23     1133     MECN     C1       CG331   -0.170000       12.0110           0
     69562 WT23     1133     MECN     H11      HGA3     0.090000        1.0080           0
     69563 WT23     1133     MECN     H12      HGA3     0.090000        1.0080           0
     69564 WT23     1133     MECN     H13      HGA3     0.090000        1.0080           0
     69565 WT23     1133     MECN     C2       CG1N1    0.360000       12.0110           0
     69566 WT23     1133     MECN     N3       NG1T1   -0.460000       14.0070           0
     69567 WT23     1134     MECN     C1       CG331   -0.170000       12.0110           0
     69568 WT23     1134     MECN     H11      HGA3     0.090000        1.0080           0
     69569 WT23     1134     MECN     H12      HGA3     0.090000        1.0080           0
     69570 WT23     1134     MECN     H13      HGA3     0.090000        1.0080           0
     69571 WT23     1134     MECN     C2       CG1N1    0.360000       12.0110           0
     69572 WT23     1134     MECN     N3       NG1T1   -0.460000       14.0070           0
     69573 WT23     1135     MECN     C1       CG331   -0.170000       12.0110           0
     69574 WT23     1135     MECN     H11      HGA3     0.090000        1.0080           0
     69575 WT23     1135     MECN     H12      HGA3     0.090000        1.0080           0
     69576 WT23     1135     MECN     H13      HGA3     0.090000        1.0080           0
     69577 WT23     1135     MECN     C2       CG1N1    0.360000       12.0110           0
     69578 WT23     1135     MECN     N3       NG1T1   -0.460000       14.0070           0
     69579 WT23     1137     MECN     C1       CG331   -0.170000       12.0110           0
     69580 WT23     1137     MECN     H11      HGA3     0.090000        1.0080           0
     69581 WT23     1137     MECN     H12      HGA3     0.090000        1.0080           0
     69582 WT23     1137     MECN     H13      HGA3     0.090000        1.0080           0
     69583 WT23     1137     MECN     C2       CG1N1    0.360000       12.0110           0
     69584 WT23     1137     MECN     N3       NG1T1   -0.460000       14.0070           0
     69585 WT23     1138     MECN     C1       CG331   -0.170000       12.0110           0
     69586 WT23     1138     MECN     H11      HGA3     0.090000        1.0080           0
     69587 WT23     1138     MECN     H12      HGA3     0.090000        1.0080           0
     69588 WT23     1138     MECN     H13      HGA3     0.090000        1.0080           0
     69589 WT23     1138     MECN     C2       CG1N1    0.360000       12.0110           0
     69590 WT23     1138     MECN     N3       NG1T1   -0.460000       14.0070           0
     69591 WT23     1139     MECN     C1       CG331   -0.170000       12.0110           0
     69592 WT23     1139     MECN     H11      HGA3     0.090000        1.0080           0
     69593 WT23     1139     MECN     H12      HGA3     0.090000        1.0080           0
     69594 WT23     1139     MECN     H13      HGA3     0.090000        1.0080           0
     69595 WT23     1139     MECN     C2       CG1N1    0.360000       12.0110           0
     69596 WT23     1139     MECN     N3       NG1T1   -0.460000       14.0070           0
     69597 WT23     1140     MECN     C1       CG331   -0.170000       12.0110           0
     69598 WT23     1140     MECN     H11      HGA3     0.090000        1.0080           0
     69599 WT23     1140     MECN     H12      HGA3     0.090000        1.0080           0
     69600 WT23     1140     MECN     H13      HGA3     0.090000        1.0080           0
     69601 WT23     1140     MECN     C2       CG1N1    0.360000       12.0110           0
     69602 WT23     1140     MECN     N3       NG1T1   -0.460000       14.0070           0
     69603 WT23     1142     MECN     C1       CG331   -0.170000       12.0110           0
     69604 WT23     1142     MECN     H11      HGA3     0.090000        1.0080           0
     69605 WT23     1142     MECN     H12      HGA3     0.090000        1.0080           0
     69606 WT23     1142     MECN     H13      HGA3     0.090000        1.0080           0
     69607 WT23     1142     MECN     C2       CG1N1    0.360000       12.0110           0
     69608 WT23     1142     MECN     N3       NG1T1   -0.460000       14.0070           0
     69609 WT23     1143     MECN     C1       CG331   -0.170000       12.0110           0
     69610 WT23     1143     MECN     H11      HGA3     0.090000        1.0080           0
     69611 WT23     1143     MECN     H12      HGA3     0.090000        1.0080           0
     69612 WT23     1143     MECN     H13      HGA3     0.090000        1.0080           0
     69613 WT23     1143     MECN     C2       CG1N1    0.360000       12.0110           0
     69614 WT23     1143     MECN     N3       NG1T1   -0.460000       14.0070           0
     69615 WT23     1146     MECN     C1       CG331   -0.170000       12.0110           0
     69616 WT23     1146     MECN     H11      HGA3     0.090000        1.0080           0
     69617 WT23     1146     MECN     H12      HGA3     0.090000        1.0080           0
     69618 WT23     1146     MECN     H13      HGA3     0.090000        1.0080           0
     69619 WT23     1146     MECN     C2       CG1N1    0.360000       12.0110           0
     69620 WT23     1146     MECN     N3       NG1T1   -0.460000       14.0070           0
     69621 WT23     1148     MECN     C1       CG331   -0.170000       12.0110           0
     69622 WT23     1148     MECN     H11      HGA3     0.090000        1.0080           0
     69623 WT23     1148     MECN     H12      HGA3     0.090000        1.0080           0
     69624 WT23     1148     MECN     H13      HGA3     0.090000        1.0080           0
     69625 WT23     1148     MECN     C2       CG1N1    0.360000       12.0110           0
     69626 WT23     1148     MECN     N3       NG1T1   -0.460000       14.0070           0
     69627 WT23     1149     MECN     C1       CG331   -0.170000       12.0110           0
     69628 WT23     1149     MECN     H11      HGA3     0.090000        1.0080           0
     69629 WT23     1149     MECN     H12      HGA3     0.090000        1.0080           0
     69630 WT23     1149     MECN     H13      HGA3     0.090000        1.0080           0
     69631 WT23     1149     MECN     C2       CG1N1    0.360000       12.0110           0
     69632 WT23     1149     MECN     N3       NG1T1   -0.460000       14.0070           0
     69633 WT23     1150     MECN     C1       CG331   -0.170000       12.0110           0
     69634 WT23     1150     MECN     H11      HGA3     0.090000        1.0080           0
     69635 WT23     1150     MECN     H12      HGA3     0.090000        1.0080           0
     69636 WT23     1150     MECN     H13      HGA3     0.090000        1.0080           0
     69637 WT23     1150     MECN     C2       CG1N1    0.360000       12.0110           0
     69638 WT23     1150     MECN     N3       NG1T1   -0.460000       14.0070           0
     69639 WT23     1151     MECN     C1       CG331   -0.170000       12.0110           0
     69640 WT23     1151     MECN     H11      HGA3     0.090000        1.0080           0
     69641 WT23     1151     MECN     H12      HGA3     0.090000        1.0080           0
     69642 WT23     1151     MECN     H13      HGA3     0.090000        1.0080           0
     69643 WT23     1151     MECN     C2       CG1N1    0.360000       12.0110           0
     69644 WT23     1151     MECN     N3       NG1T1   -0.460000       14.0070           0
     69645 WT23     1152     MECN     C1       CG331   -0.170000       12.0110           0
     69646 WT23     1152     MECN     H11      HGA3     0.090000        1.0080           0
     69647 WT23     1152     MECN     H12      HGA3     0.090000        1.0080           0
     69648 WT23     1152     MECN     H13      HGA3     0.090000        1.0080           0
     69649 WT23     1152     MECN     C2       CG1N1    0.360000       12.0110           0
     69650 WT23     1152     MECN     N3       NG1T1   -0.460000       14.0070           0
     69651 WT23     1157     MECN     C1       CG331   -0.170000       12.0110           0
     69652 WT23     1157     MECN     H11      HGA3     0.090000        1.0080           0
     69653 WT23     1157     MECN     H12      HGA3     0.090000        1.0080           0
     69654 WT23     1157     MECN     H13      HGA3     0.090000        1.0080           0
     69655 WT23     1157     MECN     C2       CG1N1    0.360000       12.0110           0
     69656 WT23     1157     MECN     N3       NG1T1   -0.460000       14.0070           0
     69657 WT23     1159     MECN     C1       CG331   -0.170000       12.0110           0
     69658 WT23     1159     MECN     H11      HGA3     0.090000        1.0080           0
     69659 WT23     1159     MECN     H12      HGA3     0.090000        1.0080           0
     69660 WT23     1159     MECN     H13      HGA3     0.090000        1.0080           0
     69661 WT23     1159     MECN     C2       CG1N1    0.360000       12.0110           0
     69662 WT23     1159     MECN     N3       NG1T1   -0.460000       14.0070           0
     69663 WT23     1161     MECN     C1       CG331   -0.170000       12.0110           0
     69664 WT23     1161     MECN     H11      HGA3     0.090000        1.0080           0
     69665 WT23     1161     MECN     H12      HGA3     0.090000        1.0080           0
     69666 WT23     1161     MECN     H13      HGA3     0.090000        1.0080           0
     69667 WT23     1161     MECN     C2       CG1N1    0.360000       12.0110           0
     69668 WT23     1161     MECN     N3       NG1T1   -0.460000       14.0070           0
     69669 WT23     1162     MECN     C1       CG331   -0.170000       12.0110           0
     69670 WT23     1162     MECN     H11      HGA3     0.090000        1.0080           0
     69671 WT23     1162     MECN     H12      HGA3     0.090000        1.0080           0
     69672 WT23     1162     MECN     H13      HGA3     0.090000        1.0080           0
     69673 WT23     1162     MECN     C2       CG1N1    0.360000       12.0110           0
     69674 WT23     1162     MECN     N3       NG1T1   -0.460000       14.0070           0
     69675 WT23     1164     MECN     C1       CG331   -0.170000       12.0110           0
     69676 WT23     1164     MECN     H11      HGA3     0.090000        1.0080           0
     69677 WT23     1164     MECN     H12      HGA3     0.090000        1.0080           0
     69678 WT23     1164     MECN     H13      HGA3     0.090000        1.0080           0
     69679 WT23     1164     MECN     C2       CG1N1    0.360000       12.0110           0
     69680 WT23     1164     MECN     N3       NG1T1   -0.460000       14.0070           0
     69681 WT23     1165     MECN     C1       CG331   -0.170000       12.0110           0
     69682 WT23     1165     MECN     H11      HGA3     0.090000        1.0080           0
     69683 WT23     1165     MECN     H12      HGA3     0.090000        1.0080           0
     69684 WT23     1165     MECN     H13      HGA3     0.090000        1.0080           0
     69685 WT23     1165     MECN     C2       CG1N1    0.360000       12.0110           0
     69686 WT23     1165     MECN     N3       NG1T1   -0.460000       14.0070           0
     69687 WT23     1166     MECN     C1       CG331   -0.170000       12.0110           0
     69688 WT23     1166     MECN     H11      HGA3     0.090000        1.0080           0
     69689 WT23     1166     MECN     H12      HGA3     0.090000        1.0080           0
     69690 WT23     1166     MECN     H13      HGA3     0.090000        1.0080           0
     69691 WT23     1166     MECN     C2       CG1N1    0.360000       12.0110           0
     69692 WT23     1166     MECN     N3       NG1T1   -0.460000       14.0070           0
     69693 WT23     1167     MECN     C1       CG331   -0.170000       12.0110           0
     69694 WT23     1167     MECN     H11      HGA3     0.090000        1.0080           0
     69695 WT23     1167     MECN     H12      HGA3     0.090000        1.0080           0
     69696 WT23     1167     MECN     H13      HGA3     0.090000        1.0080           0
     69697 WT23     1167     MECN     C2       CG1N1    0.360000       12.0110           0
     69698 WT23     1167     MECN     N3       NG1T1   -0.460000       14.0070           0
     69699 WT23     1168     MECN     C1       CG331   -0.170000       12.0110           0
     69700 WT23     1168     MECN     H11      HGA3     0.090000        1.0080           0
     69701 WT23     1168     MECN     H12      HGA3     0.090000        1.0080           0
     69702 WT23     1168     MECN     H13      HGA3     0.090000        1.0080           0
     69703 WT23     1168     MECN     C2       CG1N1    0.360000       12.0110           0
     69704 WT23     1168     MECN     N3       NG1T1   -0.460000       14.0070           0
     69705 WT23     1170     MECN     C1       CG331   -0.170000       12.0110           0
     69706 WT23     1170     MECN     H11      HGA3     0.090000        1.0080           0
     69707 WT23     1170     MECN     H12      HGA3     0.090000        1.0080           0
     69708 WT23     1170     MECN     H13      HGA3     0.090000        1.0080           0
     69709 WT23     1170     MECN     C2       CG1N1    0.360000       12.0110           0
     69710 WT23     1170     MECN     N3       NG1T1   -0.460000       14.0070           0
     69711 WT23     1171     MECN     C1       CG331   -0.170000       12.0110           0
     69712 WT23     1171     MECN     H11      HGA3     0.090000        1.0080           0
     69713 WT23     1171     MECN     H12      HGA3     0.090000        1.0080           0
     69714 WT23     1171     MECN     H13      HGA3     0.090000        1.0080           0
     69715 WT23     1171     MECN     C2       CG1N1    0.360000       12.0110           0
     69716 WT23     1171     MECN     N3       NG1T1   -0.460000       14.0070           0
     69717 WT23     1172     MECN     C1       CG331   -0.170000       12.0110           0
     69718 WT23     1172     MECN     H11      HGA3     0.090000        1.0080           0
     69719 WT23     1172     MECN     H12      HGA3     0.090000        1.0080           0
     69720 WT23     1172     MECN     H13      HGA3     0.090000        1.0080           0
     69721 WT23     1172     MECN     C2       CG1N1    0.360000       12.0110           0
     69722 WT23     1172     MECN     N3       NG1T1   -0.460000       14.0070           0
     69723 WT23     1173     MECN     C1       CG331   -0.170000       12.0110           0
     69724 WT23     1173     MECN     H11      HGA3     0.090000        1.0080           0
     69725 WT23     1173     MECN     H12      HGA3     0.090000        1.0080           0
     69726 WT23     1173     MECN     H13      HGA3     0.090000        1.0080           0
     69727 WT23     1173     MECN     C2       CG1N1    0.360000       12.0110           0
     69728 WT23     1173     MECN     N3       NG1T1   -0.460000       14.0070           0
     69729 WT23     1174     MECN     C1       CG331   -0.170000       12.0110           0
     69730 WT23     1174     MECN     H11      HGA3     0.090000        1.0080           0
     69731 WT23     1174     MECN     H12      HGA3     0.090000        1.0080           0
     69732 WT23     1174     MECN     H13      HGA3     0.090000        1.0080           0
     69733 WT23     1174     MECN     C2       CG1N1    0.360000       12.0110           0
     69734 WT23     1174     MECN     N3       NG1T1   -0.460000       14.0070           0
     69735 WT23     1175     MECN     C1       CG331   -0.170000       12.0110           0
     69736 WT23     1175     MECN     H11      HGA3     0.090000        1.0080           0
     69737 WT23     1175     MECN     H12      HGA3     0.090000        1.0080           0
     69738 WT23     1175     MECN     H13      HGA3     0.090000        1.0080           0
     69739 WT23     1175     MECN     C2       CG1N1    0.360000       12.0110           0
     69740 WT23     1175     MECN     N3       NG1T1   -0.460000       14.0070           0
     69741 WT23     1176     MECN     C1       CG331   -0.170000       12.0110           0
     69742 WT23     1176     MECN     H11      HGA3     0.090000        1.0080           0
     69743 WT23     1176     MECN     H12      HGA3     0.090000        1.0080           0
     69744 WT23     1176     MECN     H13      HGA3     0.090000        1.0080           0
     69745 WT23     1176     MECN     C2       CG1N1    0.360000       12.0110           0
     69746 WT23     1176     MECN     N3       NG1T1   -0.460000       14.0070           0
     69747 WT23     1177     MECN     C1       CG331   -0.170000       12.0110           0
     69748 WT23     1177     MECN     H11      HGA3     0.090000        1.0080           0
     69749 WT23     1177     MECN     H12      HGA3     0.090000        1.0080           0
     69750 WT23     1177     MECN     H13      HGA3     0.090000        1.0080           0
     69751 WT23     1177     MECN     C2       CG1N1    0.360000       12.0110           0
     69752 WT23     1177     MECN     N3       NG1T1   -0.460000       14.0070           0
     69753 WT23     1179     MECN     C1       CG331   -0.170000       12.0110           0
     69754 WT23     1179     MECN     H11      HGA3     0.090000        1.0080           0
     69755 WT23     1179     MECN     H12      HGA3     0.090000        1.0080           0
     69756 WT23     1179     MECN     H13      HGA3     0.090000        1.0080           0
     69757 WT23     1179     MECN     C2       CG1N1    0.360000       12.0110           0
     69758 WT23     1179     MECN     N3       NG1T1   -0.460000       14.0070           0
     69759 WT23     1180     MECN     C1       CG331   -0.170000       12.0110           0
     69760 WT23     1180     MECN     H11      HGA3     0.090000        1.0080           0
     69761 WT23     1180     MECN     H12      HGA3     0.090000        1.0080           0
     69762 WT23     1180     MECN     H13      HGA3     0.090000        1.0080           0
     69763 WT23     1180     MECN     C2       CG1N1    0.360000       12.0110           0
     69764 WT23     1180     MECN     N3       NG1T1   -0.460000       14.0070           0
     69765 WT23     1181     MECN     C1       CG331   -0.170000       12.0110           0
     69766 WT23     1181     MECN     H11      HGA3     0.090000        1.0080           0
     69767 WT23     1181     MECN     H12      HGA3     0.090000        1.0080           0
     69768 WT23     1181     MECN     H13      HGA3     0.090000        1.0080           0
     69769 WT23     1181     MECN     C2       CG1N1    0.360000       12.0110           0
     69770 WT23     1181     MECN     N3       NG1T1   -0.460000       14.0070           0
     69771 WT23     1184     MECN     C1       CG331   -0.170000       12.0110           0
     69772 WT23     1184     MECN     H11      HGA3     0.090000        1.0080           0
     69773 WT23     1184     MECN     H12      HGA3     0.090000        1.0080           0
     69774 WT23     1184     MECN     H13      HGA3     0.090000        1.0080           0
     69775 WT23     1184     MECN     C2       CG1N1    0.360000       12.0110           0
     69776 WT23     1184     MECN     N3       NG1T1   -0.460000       14.0070           0
     69777 WT23     1185     MECN     C1       CG331   -0.170000       12.0110           0
     69778 WT23     1185     MECN     H11      HGA3     0.090000        1.0080           0
     69779 WT23     1185     MECN     H12      HGA3     0.090000        1.0080           0
     69780 WT23     1185     MECN     H13      HGA3     0.090000        1.0080           0
     69781 WT23     1185     MECN     C2       CG1N1    0.360000       12.0110           0
     69782 WT23     1185     MECN     N3       NG1T1   -0.460000       14.0070           0
     69783 WT23     1188     MECN     C1       CG331   -0.170000       12.0110           0
     69784 WT23     1188     MECN     H11      HGA3     0.090000        1.0080           0
     69785 WT23     1188     MECN     H12      HGA3     0.090000        1.0080           0
     69786 WT23     1188     MECN     H13      HGA3     0.090000        1.0080           0
     69787 WT23     1188     MECN     C2       CG1N1    0.360000       12.0110           0
     69788 WT23     1188     MECN     N3       NG1T1   -0.460000       14.0070           0
     69789 WT23     1190     MECN     C1       CG331   -0.170000       12.0110           0
     69790 WT23     1190     MECN     H11      HGA3     0.090000        1.0080           0
     69791 WT23     1190     MECN     H12      HGA3     0.090000        1.0080           0
     69792 WT23     1190     MECN     H13      HGA3     0.090000        1.0080           0
     69793 WT23     1190     MECN     C2       CG1N1    0.360000       12.0110           0
     69794 WT23     1190     MECN     N3       NG1T1   -0.460000       14.0070           0
     69795 WT23     1191     MECN     C1       CG331   -0.170000       12.0110           0
     69796 WT23     1191     MECN     H11      HGA3     0.090000        1.0080           0
     69797 WT23     1191     MECN     H12      HGA3     0.090000        1.0080           0
     69798 WT23     1191     MECN     H13      HGA3     0.090000        1.0080           0
     69799 WT23     1191     MECN     C2       CG1N1    0.360000       12.0110           0
     69800 WT23     1191     MECN     N3       NG1T1   -0.460000       14.0070           0
     69801 WT23     1199     MECN     C1       CG331   -0.170000       12.0110           0
     69802 WT23     1199     MECN     H11      HGA3     0.090000        1.0080           0
     69803 WT23     1199     MECN     H12      HGA3     0.090000        1.0080           0
     69804 WT23     1199     MECN     H13      HGA3     0.090000        1.0080           0
     69805 WT23     1199     MECN     C2       CG1N1    0.360000       12.0110           0
     69806 WT23     1199     MECN     N3       NG1T1   -0.460000       14.0070           0
     69807 WT23     1200     MECN     C1       CG331   -0.170000       12.0110           0
     69808 WT23     1200     MECN     H11      HGA3     0.090000        1.0080           0
     69809 WT23     1200     MECN     H12      HGA3     0.090000        1.0080           0
     69810 WT23     1200     MECN     H13      HGA3     0.090000        1.0080           0
     69811 WT23     1200     MECN     C2       CG1N1    0.360000       12.0110           0
     69812 WT23     1200     MECN     N3       NG1T1   -0.460000       14.0070           0
     69813 WT23     1202     MECN     C1       CG331   -0.170000       12.0110           0
     69814 WT23     1202     MECN     H11      HGA3     0.090000        1.0080           0
     69815 WT23     1202     MECN     H12      HGA3     0.090000        1.0080           0
     69816 WT23     1202     MECN     H13      HGA3     0.090000        1.0080           0
     69817 WT23     1202     MECN     C2       CG1N1    0.360000       12.0110           0
     69818 WT23     1202     MECN     N3       NG1T1   -0.460000       14.0070           0
     69819 WT23     1203     MECN     C1       CG331   -0.170000       12.0110           0
     69820 WT23     1203     MECN     H11      HGA3     0.090000        1.0080           0
     69821 WT23     1203     MECN     H12      HGA3     0.090000        1.0080           0
     69822 WT23     1203     MECN     H13      HGA3     0.090000        1.0080           0
     69823 WT23     1203     MECN     C2       CG1N1    0.360000       12.0110           0
     69824 WT23     1203     MECN     N3       NG1T1   -0.460000       14.0070           0
     69825 WT23     1204     MECN     C1       CG331   -0.170000       12.0110           0
     69826 WT23     1204     MECN     H11      HGA3     0.090000        1.0080           0
     69827 WT23     1204     MECN     H12      HGA3     0.090000        1.0080           0
     69828 WT23     1204     MECN     H13      HGA3     0.090000        1.0080           0
     69829 WT23     1204     MECN     C2       CG1N1    0.360000       12.0110           0
     69830 WT23     1204     MECN     N3       NG1T1   -0.460000       14.0070           0
     69831 WT23     1206     MECN     C1       CG331   -0.170000       12.0110           0
     69832 WT23     1206     MECN     H11      HGA3     0.090000        1.0080           0
     69833 WT23     1206     MECN     H12      HGA3     0.090000        1.0080           0
     69834 WT23     1206     MECN     H13      HGA3     0.090000        1.0080           0
     69835 WT23     1206     MECN     C2       CG1N1    0.360000       12.0110           0
     69836 WT23     1206     MECN     N3       NG1T1   -0.460000       14.0070           0
     69837 WT23     1207     MECN     C1       CG331   -0.170000       12.0110           0
     69838 WT23     1207     MECN     H11      HGA3     0.090000        1.0080           0
     69839 WT23     1207     MECN     H12      HGA3     0.090000        1.0080           0
     69840 WT23     1207     MECN     H13      HGA3     0.090000        1.0080           0
     69841 WT23     1207     MECN     C2       CG1N1    0.360000       12.0110           0
     69842 WT23     1207     MECN     N3       NG1T1   -0.460000       14.0070           0
     69843 WT23     1209     MECN     C1       CG331   -0.170000       12.0110           0
     69844 WT23     1209     MECN     H11      HGA3     0.090000        1.0080           0
     69845 WT23     1209     MECN     H12      HGA3     0.090000        1.0080           0
     69846 WT23     1209     MECN     H13      HGA3     0.090000        1.0080           0
     69847 WT23     1209     MECN     C2       CG1N1    0.360000       12.0110           0
     69848 WT23     1209     MECN     N3       NG1T1   -0.460000       14.0070           0
     69849 WT23     1210     MECN     C1       CG331   -0.170000       12.0110           0
     69850 WT23     1210     MECN     H11      HGA3     0.090000        1.0080           0
     69851 WT23     1210     MECN     H12      HGA3     0.090000        1.0080           0
     69852 WT23     1210     MECN     H13      HGA3     0.090000        1.0080           0
     69853 WT23     1210     MECN     C2       CG1N1    0.360000       12.0110           0
     69854 WT23     1210     MECN     N3       NG1T1   -0.460000       14.0070           0
     69855 WT23     1212     MECN     C1       CG331   -0.170000       12.0110           0
     69856 WT23     1212     MECN     H11      HGA3     0.090000        1.0080           0
     69857 WT23     1212     MECN     H12      HGA3     0.090000        1.0080           0
     69858 WT23     1212     MECN     H13      HGA3     0.090000        1.0080           0
     69859 WT23     1212     MECN     C2       CG1N1    0.360000       12.0110           0
     69860 WT23     1212     MECN     N3       NG1T1   -0.460000       14.0070           0
     69861 WT23     1213     MECN     C1       CG331   -0.170000       12.0110           0
     69862 WT23     1213     MECN     H11      HGA3     0.090000        1.0080           0
     69863 WT23     1213     MECN     H12      HGA3     0.090000        1.0080           0
     69864 WT23     1213     MECN     H13      HGA3     0.090000        1.0080           0
     69865 WT23     1213     MECN     C2       CG1N1    0.360000       12.0110           0
     69866 WT23     1213     MECN     N3       NG1T1   -0.460000       14.0070           0
     69867 WT23     1217     MECN     C1       CG331   -0.170000       12.0110           0
     69868 WT23     1217     MECN     H11      HGA3     0.090000        1.0080           0
     69869 WT23     1217     MECN     H12      HGA3     0.090000        1.0080           0
     69870 WT23     1217     MECN     H13      HGA3     0.090000        1.0080           0
     69871 WT23     1217     MECN     C2       CG1N1    0.360000       12.0110           0
     69872 WT23     1217     MECN     N3       NG1T1   -0.460000       14.0070           0
     69873 WT23     1219     MECN     C1       CG331   -0.170000       12.0110           0
     69874 WT23     1219     MECN     H11      HGA3     0.090000        1.0080           0
     69875 WT23     1219     MECN     H12      HGA3     0.090000        1.0080           0
     69876 WT23     1219     MECN     H13      HGA3     0.090000        1.0080           0
     69877 WT23     1219     MECN     C2       CG1N1    0.360000       12.0110           0
     69878 WT23     1219     MECN     N3       NG1T1   -0.460000       14.0070           0
     69879 WT23     1220     MECN     C1       CG331   -0.170000       12.0110           0
     69880 WT23     1220     MECN     H11      HGA3     0.090000        1.0080           0
     69881 WT23     1220     MECN     H12      HGA3     0.090000        1.0080           0
     69882 WT23     1220     MECN     H13      HGA3     0.090000        1.0080           0
     69883 WT23     1220     MECN     C2       CG1N1    0.360000       12.0110           0
     69884 WT23     1220     MECN     N3       NG1T1   -0.460000       14.0070           0
     69885 WT23     1222     MECN     C1       CG331   -0.170000       12.0110           0
     69886 WT23     1222     MECN     H11      HGA3     0.090000        1.0080           0
     69887 WT23     1222     MECN     H12      HGA3     0.090000        1.0080           0
     69888 WT23     1222     MECN     H13      HGA3     0.090000        1.0080           0
     69889 WT23     1222     MECN     C2       CG1N1    0.360000       12.0110           0
     69890 WT23     1222     MECN     N3       NG1T1   -0.460000       14.0070           0
     69891 WT23     1223     MECN     C1       CG331   -0.170000       12.0110           0
     69892 WT23     1223     MECN     H11      HGA3     0.090000        1.0080           0
     69893 WT23     1223     MECN     H12      HGA3     0.090000        1.0080           0
     69894 WT23     1223     MECN     H13      HGA3     0.090000        1.0080           0
     69895 WT23     1223     MECN     C2       CG1N1    0.360000       12.0110           0
     69896 WT23     1223     MECN     N3       NG1T1   -0.460000       14.0070           0
     69897 WT23     1224     MECN     C1       CG331   -0.170000       12.0110           0
     69898 WT23     1224     MECN     H11      HGA3     0.090000        1.0080           0
     69899 WT23     1224     MECN     H12      HGA3     0.090000        1.0080           0
     69900 WT23     1224     MECN     H13      HGA3     0.090000        1.0080           0
     69901 WT23     1224     MECN     C2       CG1N1    0.360000       12.0110           0
     69902 WT23     1224     MECN     N3       NG1T1   -0.460000       14.0070           0
     69903 WT23     1226     MECN     C1       CG331   -0.170000       12.0110           0
     69904 WT23     1226     MECN     H11      HGA3     0.090000        1.0080           0
     69905 WT23     1226     MECN     H12      HGA3     0.090000        1.0080           0
     69906 WT23     1226     MECN     H13      HGA3     0.090000        1.0080           0
     69907 WT23     1226     MECN     C2       CG1N1    0.360000       12.0110           0
     69908 WT23     1226     MECN     N3       NG1T1   -0.460000       14.0070           0
     69909 WT23     1227     MECN     C1       CG331   -0.170000       12.0110           0
     69910 WT23     1227     MECN     H11      HGA3     0.090000        1.0080           0
     69911 WT23     1227     MECN     H12      HGA3     0.090000        1.0080           0
     69912 WT23     1227     MECN     H13      HGA3     0.090000        1.0080           0
     69913 WT23     1227     MECN     C2       CG1N1    0.360000       12.0110           0
     69914 WT23     1227     MECN     N3       NG1T1   -0.460000       14.0070           0
     69915 WT23     1229     MECN     C1       CG331   -0.170000       12.0110           0
     69916 WT23     1229     MECN     H11      HGA3     0.090000        1.0080           0
     69917 WT23     1229     MECN     H12      HGA3     0.090000        1.0080           0
     69918 WT23     1229     MECN     H13      HGA3     0.090000        1.0080           0
     69919 WT23     1229     MECN     C2       CG1N1    0.360000       12.0110           0
     69920 WT23     1229     MECN     N3       NG1T1   -0.460000       14.0070           0
     69921 WT23     1230     MECN     C1       CG331   -0.170000       12.0110           0
     69922 WT23     1230     MECN     H11      HGA3     0.090000        1.0080           0
     69923 WT23     1230     MECN     H12      HGA3     0.090000        1.0080           0
     69924 WT23     1230     MECN     H13      HGA3     0.090000        1.0080           0
     69925 WT23     1230     MECN     C2       CG1N1    0.360000       12.0110           0
     69926 WT23     1230     MECN     N3       NG1T1   -0.460000       14.0070           0
     69927 WT23     1231     MECN     C1       CG331   -0.170000       12.0110           0
     69928 WT23     1231     MECN     H11      HGA3     0.090000        1.0080           0
     69929 WT23     1231     MECN     H12      HGA3     0.090000        1.0080           0
     69930 WT23     1231     MECN     H13      HGA3     0.090000        1.0080           0
     69931 WT23     1231     MECN     C2       CG1N1    0.360000       12.0110           0
     69932 WT23     1231     MECN     N3       NG1T1   -0.460000       14.0070           0
     69933 WT23     1232     MECN     C1       CG331   -0.170000       12.0110           0
     69934 WT23     1232     MECN     H11      HGA3     0.090000        1.0080           0
     69935 WT23     1232     MECN     H12      HGA3     0.090000        1.0080           0
     69936 WT23     1232     MECN     H13      HGA3     0.090000        1.0080           0
     69937 WT23     1232     MECN     C2       CG1N1    0.360000       12.0110           0
     69938 WT23     1232     MECN     N3       NG1T1   -0.460000       14.0070           0
     69939 WT23     1233     MECN     C1       CG331   -0.170000       12.0110           0
     69940 WT23     1233     MECN     H11      HGA3     0.090000        1.0080           0
     69941 WT23     1233     MECN     H12      HGA3     0.090000        1.0080           0
     69942 WT23     1233     MECN     H13      HGA3     0.090000        1.0080           0
     69943 WT23     1233     MECN     C2       CG1N1    0.360000       12.0110           0
     69944 WT23     1233     MECN     N3       NG1T1   -0.460000       14.0070           0
     69945 WT23     1235     MECN     C1       CG331   -0.170000       12.0110           0
     69946 WT23     1235     MECN     H11      HGA3     0.090000        1.0080           0
     69947 WT23     1235     MECN     H12      HGA3     0.090000        1.0080           0
     69948 WT23     1235     MECN     H13      HGA3     0.090000        1.0080           0
     69949 WT23     1235     MECN     C2       CG1N1    0.360000       12.0110           0
     69950 WT23     1235     MECN     N3       NG1T1   -0.460000       14.0070           0
     69951 WT23     1236     MECN     C1       CG331   -0.170000       12.0110           0
     69952 WT23     1236     MECN     H11      HGA3     0.090000        1.0080           0
     69953 WT23     1236     MECN     H12      HGA3     0.090000        1.0080           0
     69954 WT23     1236     MECN     H13      HGA3     0.090000        1.0080           0
     69955 WT23     1236     MECN     C2       CG1N1    0.360000       12.0110           0
     69956 WT23     1236     MECN     N3       NG1T1   -0.460000       14.0070           0
     69957 WT23     1237     MECN     C1       CG331   -0.170000       12.0110           0
     69958 WT23     1237     MECN     H11      HGA3     0.090000        1.0080           0
     69959 WT23     1237     MECN     H12      HGA3     0.090000        1.0080           0
     69960 WT23     1237     MECN     H13      HGA3     0.090000        1.0080           0
     69961 WT23     1237     MECN     C2       CG1N1    0.360000       12.0110           0
     69962 WT23     1237     MECN     N3       NG1T1   -0.460000       14.0070           0
     69963 WT23     1238     MECN     C1       CG331   -0.170000       12.0110           0
     69964 WT23     1238     MECN     H11      HGA3     0.090000        1.0080           0
     69965 WT23     1238     MECN     H12      HGA3     0.090000        1.0080           0
     69966 WT23     1238     MECN     H13      HGA3     0.090000        1.0080           0
     69967 WT23     1238     MECN     C2       CG1N1    0.360000       12.0110           0
     69968 WT23     1238     MECN     N3       NG1T1   -0.460000       14.0070           0
     69969 WT23     1239     MECN     C1       CG331   -0.170000       12.0110           0
     69970 WT23     1239     MECN     H11      HGA3     0.090000        1.0080           0
     69971 WT23     1239     MECN     H12      HGA3     0.090000        1.0080           0
     69972 WT23     1239     MECN     H13      HGA3     0.090000        1.0080           0
     69973 WT23     1239     MECN     C2       CG1N1    0.360000       12.0110           0
     69974 WT23     1239     MECN     N3       NG1T1   -0.460000       14.0070           0
     69975 WT23     1240     MECN     C1       CG331   -0.170000       12.0110           0
     69976 WT23     1240     MECN     H11      HGA3     0.090000        1.0080           0
     69977 WT23     1240     MECN     H12      HGA3     0.090000        1.0080           0
     69978 WT23     1240     MECN     H13      HGA3     0.090000        1.0080           0
     69979 WT23     1240     MECN     C2       CG1N1    0.360000       12.0110           0
     69980 WT23     1240     MECN     N3       NG1T1   -0.460000       14.0070           0
     69981 WT23     1241     MECN     C1       CG331   -0.170000       12.0110           0
     69982 WT23     1241     MECN     H11      HGA3     0.090000        1.0080           0
     69983 WT23     1241     MECN     H12      HGA3     0.090000        1.0080           0
     69984 WT23     1241     MECN     H13      HGA3     0.090000        1.0080           0
     69985 WT23     1241     MECN     C2       CG1N1    0.360000       12.0110           0
     69986 WT23     1241     MECN     N3       NG1T1   -0.460000       14.0070           0
     69987 WT23     1244     MECN     C1       CG331   -0.170000       12.0110           0
     69988 WT23     1244     MECN     H11      HGA3     0.090000        1.0080           0
     69989 WT23     1244     MECN     H12      HGA3     0.090000        1.0080           0
     69990 WT23     1244     MECN     H13      HGA3     0.090000        1.0080           0
     69991 WT23     1244     MECN     C2       CG1N1    0.360000       12.0110           0
     69992 WT23     1244     MECN     N3       NG1T1   -0.460000       14.0070           0
     69993 WT23     1247     MECN     C1       CG331   -0.170000       12.0110           0
     69994 WT23     1247     MECN     H11      HGA3     0.090000        1.0080           0
     69995 WT23     1247     MECN     H12      HGA3     0.090000        1.0080           0
     69996 WT23     1247     MECN     H13      HGA3     0.090000        1.0080           0
     69997 WT23     1247     MECN     C2       CG1N1    0.360000       12.0110           0
     69998 WT23     1247     MECN     N3       NG1T1   -0.460000       14.0070           0
     69999 WT23     1249     MECN     C1       CG331   -0.170000       12.0110           0
     70000 WT23     1249     MECN     H11      HGA3     0.090000        1.0080           0
     70001 WT23     1249     MECN     H12      HGA3     0.090000        1.0080           0
     70002 WT23     1249     MECN     H13      HGA3     0.090000        1.0080           0
     70003 WT23     1249     MECN     C2       CG1N1    0.360000       12.0110           0
     70004 WT23     1249     MECN     N3       NG1T1   -0.460000       14.0070           0
     70005 WT23     1250     MECN     C1       CG331   -0.170000       12.0110           0
     70006 WT23     1250     MECN     H11      HGA3     0.090000        1.0080           0
     70007 WT23     1250     MECN     H12      HGA3     0.090000        1.0080           0
     70008 WT23     1250     MECN     H13      HGA3     0.090000        1.0080           0
     70009 WT23     1250     MECN     C2       CG1N1    0.360000       12.0110           0
     70010 WT23     1250     MECN     N3       NG1T1   -0.460000       14.0070           0
     70011 WT23     1252     MECN     C1       CG331   -0.170000       12.0110           0
     70012 WT23     1252     MECN     H11      HGA3     0.090000        1.0080           0
     70013 WT23     1252     MECN     H12      HGA3     0.090000        1.0080           0
     70014 WT23     1252     MECN     H13      HGA3     0.090000        1.0080           0
     70015 WT23     1252     MECN     C2       CG1N1    0.360000       12.0110           0
     70016 WT23     1252     MECN     N3       NG1T1   -0.460000       14.0070           0
     70017 WT23     1253     MECN     C1       CG331   -0.170000       12.0110           0
     70018 WT23     1253     MECN     H11      HGA3     0.090000        1.0080           0
     70019 WT23     1253     MECN     H12      HGA3     0.090000        1.0080           0
     70020 WT23     1253     MECN     H13      HGA3     0.090000        1.0080           0
     70021 WT23     1253     MECN     C2       CG1N1    0.360000       12.0110           0
     70022 WT23     1253     MECN     N3       NG1T1   -0.460000       14.0070           0
     70023 WT23     1254     MECN     C1       CG331   -0.170000       12.0110           0
     70024 WT23     1254     MECN     H11      HGA3     0.090000        1.0080           0
     70025 WT23     1254     MECN     H12      HGA3     0.090000        1.0080           0
     70026 WT23     1254     MECN     H13      HGA3     0.090000        1.0080           0
     70027 WT23     1254     MECN     C2       CG1N1    0.360000       12.0110           0
     70028 WT23     1254     MECN     N3       NG1T1   -0.460000       14.0070           0
     70029 WT23     1255     MECN     C1       CG331   -0.170000       12.0110           0
     70030 WT23     1255     MECN     H11      HGA3     0.090000        1.0080           0
     70031 WT23     1255     MECN     H12      HGA3     0.090000        1.0080           0
     70032 WT23     1255     MECN     H13      HGA3     0.090000        1.0080           0
     70033 WT23     1255     MECN     C2       CG1N1    0.360000       12.0110           0
     70034 WT23     1255     MECN     N3       NG1T1   -0.460000       14.0070           0
     70035 WT23     1256     MECN     C1       CG331   -0.170000       12.0110           0
     70036 WT23     1256     MECN     H11      HGA3     0.090000        1.0080           0
     70037 WT23     1256     MECN     H12      HGA3     0.090000        1.0080           0
     70038 WT23     1256     MECN     H13      HGA3     0.090000        1.0080           0
     70039 WT23     1256     MECN     C2       CG1N1    0.360000       12.0110           0
     70040 WT23     1256     MECN     N3       NG1T1   -0.460000       14.0070           0
     70041 WT23     1257     MECN     C1       CG331   -0.170000       12.0110           0
     70042 WT23     1257     MECN     H11      HGA3     0.090000        1.0080           0
     70043 WT23     1257     MECN     H12      HGA3     0.090000        1.0080           0
     70044 WT23     1257     MECN     H13      HGA3     0.090000        1.0080           0
     70045 WT23     1257     MECN     C2       CG1N1    0.360000       12.0110           0
     70046 WT23     1257     MECN     N3       NG1T1   -0.460000       14.0070           0
     70047 WT23     1258     MECN     C1       CG331   -0.170000       12.0110           0
     70048 WT23     1258     MECN     H11      HGA3     0.090000        1.0080           0
     70049 WT23     1258     MECN     H12      HGA3     0.090000        1.0080           0
     70050 WT23     1258     MECN     H13      HGA3     0.090000        1.0080           0
     70051 WT23     1258     MECN     C2       CG1N1    0.360000       12.0110           0
     70052 WT23     1258     MECN     N3       NG1T1   -0.460000       14.0070           0
     70053 WT23     1259     MECN     C1       CG331   -0.170000       12.0110           0
     70054 WT23     1259     MECN     H11      HGA3     0.090000        1.0080           0
     70055 WT23     1259     MECN     H12      HGA3     0.090000        1.0080           0
     70056 WT23     1259     MECN     H13      HGA3     0.090000        1.0080           0
     70057 WT23     1259     MECN     C2       CG1N1    0.360000       12.0110           0
     70058 WT23     1259     MECN     N3       NG1T1   -0.460000       14.0070           0
     70059 WT23     1260     MECN     C1       CG331   -0.170000       12.0110           0
     70060 WT23     1260     MECN     H11      HGA3     0.090000        1.0080           0
     70061 WT23     1260     MECN     H12      HGA3     0.090000        1.0080           0
     70062 WT23     1260     MECN     H13      HGA3     0.090000        1.0080           0
     70063 WT23     1260     MECN     C2       CG1N1    0.360000       12.0110           0
     70064 WT23     1260     MECN     N3       NG1T1   -0.460000       14.0070           0
     70065 WT23     1261     MECN     C1       CG331   -0.170000       12.0110           0
     70066 WT23     1261     MECN     H11      HGA3     0.090000        1.0080           0
     70067 WT23     1261     MECN     H12      HGA3     0.090000        1.0080           0
     70068 WT23     1261     MECN     H13      HGA3     0.090000        1.0080           0
     70069 WT23     1261     MECN     C2       CG1N1    0.360000       12.0110           0
     70070 WT23     1261     MECN     N3       NG1T1   -0.460000       14.0070           0
     70071 WT23     1262     MECN     C1       CG331   -0.170000       12.0110           0
     70072 WT23     1262     MECN     H11      HGA3     0.090000        1.0080           0
     70073 WT23     1262     MECN     H12      HGA3     0.090000        1.0080           0
     70074 WT23     1262     MECN     H13      HGA3     0.090000        1.0080           0
     70075 WT23     1262     MECN     C2       CG1N1    0.360000       12.0110           0
     70076 WT23     1262     MECN     N3       NG1T1   -0.460000       14.0070           0
     70077 WT23     1263     MECN     C1       CG331   -0.170000       12.0110           0
     70078 WT23     1263     MECN     H11      HGA3     0.090000        1.0080           0
     70079 WT23     1263     MECN     H12      HGA3     0.090000        1.0080           0
     70080 WT23     1263     MECN     H13      HGA3     0.090000        1.0080           0
     70081 WT23     1263     MECN     C2       CG1N1    0.360000       12.0110           0
     70082 WT23     1263     MECN     N3       NG1T1   -0.460000       14.0070           0
     70083 WT23     1266     MECN     C1       CG331   -0.170000       12.0110           0
     70084 WT23     1266     MECN     H11      HGA3     0.090000        1.0080           0
     70085 WT23     1266     MECN     H12      HGA3     0.090000        1.0080           0
     70086 WT23     1266     MECN     H13      HGA3     0.090000        1.0080           0
     70087 WT23     1266     MECN     C2       CG1N1    0.360000       12.0110           0
     70088 WT23     1266     MECN     N3       NG1T1   -0.460000       14.0070           0
     70089 WT23     1268     MECN     C1       CG331   -0.170000       12.0110           0
     70090 WT23     1268     MECN     H11      HGA3     0.090000        1.0080           0
     70091 WT23     1268     MECN     H12      HGA3     0.090000        1.0080           0
     70092 WT23     1268     MECN     H13      HGA3     0.090000        1.0080           0
     70093 WT23     1268     MECN     C2       CG1N1    0.360000       12.0110           0
     70094 WT23     1268     MECN     N3       NG1T1   -0.460000       14.0070           0
     70095 WT23     1270     MECN     C1       CG331   -0.170000       12.0110           0
     70096 WT23     1270     MECN     H11      HGA3     0.090000        1.0080           0
     70097 WT23     1270     MECN     H12      HGA3     0.090000        1.0080           0
     70098 WT23     1270     MECN     H13      HGA3     0.090000        1.0080           0
     70099 WT23     1270     MECN     C2       CG1N1    0.360000       12.0110           0
     70100 WT23     1270     MECN     N3       NG1T1   -0.460000       14.0070           0
     70101 WT23     1271     MECN     C1       CG331   -0.170000       12.0110           0
     70102 WT23     1271     MECN     H11      HGA3     0.090000        1.0080           0
     70103 WT23     1271     MECN     H12      HGA3     0.090000        1.0080           0
     70104 WT23     1271     MECN     H13      HGA3     0.090000        1.0080           0
     70105 WT23     1271     MECN     C2       CG1N1    0.360000       12.0110           0
     70106 WT23     1271     MECN     N3       NG1T1   -0.460000       14.0070           0
     70107 WT23     1272     MECN     C1       CG331   -0.170000       12.0110           0
     70108 WT23     1272     MECN     H11      HGA3     0.090000        1.0080           0
     70109 WT23     1272     MECN     H12      HGA3     0.090000        1.0080           0
     70110 WT23     1272     MECN     H13      HGA3     0.090000        1.0080           0
     70111 WT23     1272     MECN     C2       CG1N1    0.360000       12.0110           0
     70112 WT23     1272     MECN     N3       NG1T1   -0.460000       14.0070           0
     70113 WT23     1273     MECN     C1       CG331   -0.170000       12.0110           0
     70114 WT23     1273     MECN     H11      HGA3     0.090000        1.0080           0
     70115 WT23     1273     MECN     H12      HGA3     0.090000        1.0080           0
     70116 WT23     1273     MECN     H13      HGA3     0.090000        1.0080           0
     70117 WT23     1273     MECN     C2       CG1N1    0.360000       12.0110           0
     70118 WT23     1273     MECN     N3       NG1T1   -0.460000       14.0070           0
     70119 WT23     1274     MECN     C1       CG331   -0.170000       12.0110           0
     70120 WT23     1274     MECN     H11      HGA3     0.090000        1.0080           0
     70121 WT23     1274     MECN     H12      HGA3     0.090000        1.0080           0
     70122 WT23     1274     MECN     H13      HGA3     0.090000        1.0080           0
     70123 WT23     1274     MECN     C2       CG1N1    0.360000       12.0110           0
     70124 WT23     1274     MECN     N3       NG1T1   -0.460000       14.0070           0
     70125 WT23     1276     MECN     C1       CG331   -0.170000       12.0110           0
     70126 WT23     1276     MECN     H11      HGA3     0.090000        1.0080           0
     70127 WT23     1276     MECN     H12      HGA3     0.090000        1.0080           0
     70128 WT23     1276     MECN     H13      HGA3     0.090000        1.0080           0
     70129 WT23     1276     MECN     C2       CG1N1    0.360000       12.0110           0
     70130 WT23     1276     MECN     N3       NG1T1   -0.460000       14.0070           0
     70131 WT23     1277     MECN     C1       CG331   -0.170000       12.0110           0
     70132 WT23     1277     MECN     H11      HGA3     0.090000        1.0080           0
     70133 WT23     1277     MECN     H12      HGA3     0.090000        1.0080           0
     70134 WT23     1277     MECN     H13      HGA3     0.090000        1.0080           0
     70135 WT23     1277     MECN     C2       CG1N1    0.360000       12.0110           0
     70136 WT23     1277     MECN     N3       NG1T1   -0.460000       14.0070           0
     70137 WT23     1278     MECN     C1       CG331   -0.170000       12.0110           0
     70138 WT23     1278     MECN     H11      HGA3     0.090000        1.0080           0
     70139 WT23     1278     MECN     H12      HGA3     0.090000        1.0080           0
     70140 WT23     1278     MECN     H13      HGA3     0.090000        1.0080           0
     70141 WT23     1278     MECN     C2       CG1N1    0.360000       12.0110           0
     70142 WT23     1278     MECN     N3       NG1T1   -0.460000       14.0070           0
     70143 WT23     1280     MECN     C1       CG331   -0.170000       12.0110           0
     70144 WT23     1280     MECN     H11      HGA3     0.090000        1.0080           0
     70145 WT23     1280     MECN     H12      HGA3     0.090000        1.0080           0
     70146 WT23     1280     MECN     H13      HGA3     0.090000        1.0080           0
     70147 WT23     1280     MECN     C2       CG1N1    0.360000       12.0110           0
     70148 WT23     1280     MECN     N3       NG1T1   -0.460000       14.0070           0
     70149 WT23     1283     MECN     C1       CG331   -0.170000       12.0110           0
     70150 WT23     1283     MECN     H11      HGA3     0.090000        1.0080           0
     70151 WT23     1283     MECN     H12      HGA3     0.090000        1.0080           0
     70152 WT23     1283     MECN     H13      HGA3     0.090000        1.0080           0
     70153 WT23     1283     MECN     C2       CG1N1    0.360000       12.0110           0
     70154 WT23     1283     MECN     N3       NG1T1   -0.460000       14.0070           0
     70155 WT23     1285     MECN     C1       CG331   -0.170000       12.0110           0
     70156 WT23     1285     MECN     H11      HGA3     0.090000        1.0080           0
     70157 WT23     1285     MECN     H12      HGA3     0.090000        1.0080           0
     70158 WT23     1285     MECN     H13      HGA3     0.090000        1.0080           0
     70159 WT23     1285     MECN     C2       CG1N1    0.360000       12.0110           0
     70160 WT23     1285     MECN     N3       NG1T1   -0.460000       14.0070           0
     70161 WT23     1286     MECN     C1       CG331   -0.170000       12.0110           0
     70162 WT23     1286     MECN     H11      HGA3     0.090000        1.0080           0
     70163 WT23     1286     MECN     H12      HGA3     0.090000        1.0080           0
     70164 WT23     1286     MECN     H13      HGA3     0.090000        1.0080           0
     70165 WT23     1286     MECN     C2       CG1N1    0.360000       12.0110           0
     70166 WT23     1286     MECN     N3       NG1T1   -0.460000       14.0070           0
     70167 WT23     1287     MECN     C1       CG331   -0.170000       12.0110           0
     70168 WT23     1287     MECN     H11      HGA3     0.090000        1.0080           0
     70169 WT23     1287     MECN     H12      HGA3     0.090000        1.0080           0
     70170 WT23     1287     MECN     H13      HGA3     0.090000        1.0080           0
     70171 WT23     1287     MECN     C2       CG1N1    0.360000       12.0110           0
     70172 WT23     1287     MECN     N3       NG1T1   -0.460000       14.0070           0
     70173 WT23     1289     MECN     C1       CG331   -0.170000       12.0110           0
     70174 WT23     1289     MECN     H11      HGA3     0.090000        1.0080           0
     70175 WT23     1289     MECN     H12      HGA3     0.090000        1.0080           0
     70176 WT23     1289     MECN     H13      HGA3     0.090000        1.0080           0
     70177 WT23     1289     MECN     C2       CG1N1    0.360000       12.0110           0
     70178 WT23     1289     MECN     N3       NG1T1   -0.460000       14.0070           0
     70179 WT23     1290     MECN     C1       CG331   -0.170000       12.0110           0
     70180 WT23     1290     MECN     H11      HGA3     0.090000        1.0080           0
     70181 WT23     1290     MECN     H12      HGA3     0.090000        1.0080           0
     70182 WT23     1290     MECN     H13      HGA3     0.090000        1.0080           0
     70183 WT23     1290     MECN     C2       CG1N1    0.360000       12.0110           0
     70184 WT23     1290     MECN     N3       NG1T1   -0.460000       14.0070           0
     70185 WT23     1292     MECN     C1       CG331   -0.170000       12.0110           0
     70186 WT23     1292     MECN     H11      HGA3     0.090000        1.0080           0
     70187 WT23     1292     MECN     H12      HGA3     0.090000        1.0080           0
     70188 WT23     1292     MECN     H13      HGA3     0.090000        1.0080           0
     70189 WT23     1292     MECN     C2       CG1N1    0.360000       12.0110           0
     70190 WT23     1292     MECN     N3       NG1T1   -0.460000       14.0070           0
     70191 WT23     1293     MECN     C1       CG331   -0.170000       12.0110           0
     70192 WT23     1293     MECN     H11      HGA3     0.090000        1.0080           0
     70193 WT23     1293     MECN     H12      HGA3     0.090000        1.0080           0
     70194 WT23     1293     MECN     H13      HGA3     0.090000        1.0080           0
     70195 WT23     1293     MECN     C2       CG1N1    0.360000       12.0110           0
     70196 WT23     1293     MECN     N3       NG1T1   -0.460000       14.0070           0
     70197 WT23     1295     MECN     C1       CG331   -0.170000       12.0110           0
     70198 WT23     1295     MECN     H11      HGA3     0.090000        1.0080           0
     70199 WT23     1295     MECN     H12      HGA3     0.090000        1.0080           0
     70200 WT23     1295     MECN     H13      HGA3     0.090000        1.0080           0
     70201 WT23     1295     MECN     C2       CG1N1    0.360000       12.0110           0
     70202 WT23     1295     MECN     N3       NG1T1   -0.460000       14.0070           0
     70203 WT23     1297     MECN     C1       CG331   -0.170000       12.0110           0
     70204 WT23     1297     MECN     H11      HGA3     0.090000        1.0080           0
     70205 WT23     1297     MECN     H12      HGA3     0.090000        1.0080           0
     70206 WT23     1297     MECN     H13      HGA3     0.090000        1.0080           0
     70207 WT23     1297     MECN     C2       CG1N1    0.360000       12.0110           0
     70208 WT23     1297     MECN     N3       NG1T1   -0.460000       14.0070           0
     70209 WT23     1298     MECN     C1       CG331   -0.170000       12.0110           0
     70210 WT23     1298     MECN     H11      HGA3     0.090000        1.0080           0
     70211 WT23     1298     MECN     H12      HGA3     0.090000        1.0080           0
     70212 WT23     1298     MECN     H13      HGA3     0.090000        1.0080           0
     70213 WT23     1298     MECN     C2       CG1N1    0.360000       12.0110           0
     70214 WT23     1298     MECN     N3       NG1T1   -0.460000       14.0070           0
     70215 WT23     1299     MECN     C1       CG331   -0.170000       12.0110           0
     70216 WT23     1299     MECN     H11      HGA3     0.090000        1.0080           0
     70217 WT23     1299     MECN     H12      HGA3     0.090000        1.0080           0
     70218 WT23     1299     MECN     H13      HGA3     0.090000        1.0080           0
     70219 WT23     1299     MECN     C2       CG1N1    0.360000       12.0110           0
     70220 WT23     1299     MECN     N3       NG1T1   -0.460000       14.0070           0
     70221 WT23     1300     MECN     C1       CG331   -0.170000       12.0110           0
     70222 WT23     1300     MECN     H11      HGA3     0.090000        1.0080           0
     70223 WT23     1300     MECN     H12      HGA3     0.090000        1.0080           0
     70224 WT23     1300     MECN     H13      HGA3     0.090000        1.0080           0
     70225 WT23     1300     MECN     C2       CG1N1    0.360000       12.0110           0
     70226 WT23     1300     MECN     N3       NG1T1   -0.460000       14.0070           0
     70227 WT23     1301     MECN     C1       CG331   -0.170000       12.0110           0
     70228 WT23     1301     MECN     H11      HGA3     0.090000        1.0080           0
     70229 WT23     1301     MECN     H12      HGA3     0.090000        1.0080           0
     70230 WT23     1301     MECN     H13      HGA3     0.090000        1.0080           0
     70231 WT23     1301     MECN     C2       CG1N1    0.360000       12.0110           0
     70232 WT23     1301     MECN     N3       NG1T1   -0.460000       14.0070           0
     70233 WT23     1302     MECN     C1       CG331   -0.170000       12.0110           0
     70234 WT23     1302     MECN     H11      HGA3     0.090000        1.0080           0
     70235 WT23     1302     MECN     H12      HGA3     0.090000        1.0080           0
     70236 WT23     1302     MECN     H13      HGA3     0.090000        1.0080           0
     70237 WT23     1302     MECN     C2       CG1N1    0.360000       12.0110           0
     70238 WT23     1302     MECN     N3       NG1T1   -0.460000       14.0070           0
     70239 WT23     1305     MECN     C1       CG331   -0.170000       12.0110           0
     70240 WT23     1305     MECN     H11      HGA3     0.090000        1.0080           0
     70241 WT23     1305     MECN     H12      HGA3     0.090000        1.0080           0
     70242 WT23     1305     MECN     H13      HGA3     0.090000        1.0080           0
     70243 WT23     1305     MECN     C2       CG1N1    0.360000       12.0110           0
     70244 WT23     1305     MECN     N3       NG1T1   -0.460000       14.0070           0
     70245 WT23     1308     MECN     C1       CG331   -0.170000       12.0110           0
     70246 WT23     1308     MECN     H11      HGA3     0.090000        1.0080           0
     70247 WT23     1308     MECN     H12      HGA3     0.090000        1.0080           0
     70248 WT23     1308     MECN     H13      HGA3     0.090000        1.0080           0
     70249 WT23     1308     MECN     C2       CG1N1    0.360000       12.0110           0
     70250 WT23     1308     MECN     N3       NG1T1   -0.460000       14.0070           0
     70251 WT23     1309     MECN     C1       CG331   -0.170000       12.0110           0
     70252 WT23     1309     MECN     H11      HGA3     0.090000        1.0080           0
     70253 WT23     1309     MECN     H12      HGA3     0.090000        1.0080           0
     70254 WT23     1309     MECN     H13      HGA3     0.090000        1.0080           0
     70255 WT23     1309     MECN     C2       CG1N1    0.360000       12.0110           0
     70256 WT23     1309     MECN     N3       NG1T1   -0.460000       14.0070           0
     70257 WT23     1310     MECN     C1       CG331   -0.170000       12.0110           0
     70258 WT23     1310     MECN     H11      HGA3     0.090000        1.0080           0
     70259 WT23     1310     MECN     H12      HGA3     0.090000        1.0080           0
     70260 WT23     1310     MECN     H13      HGA3     0.090000        1.0080           0
     70261 WT23     1310     MECN     C2       CG1N1    0.360000       12.0110           0
     70262 WT23     1310     MECN     N3       NG1T1   -0.460000       14.0070           0
     70263 WT23     1311     MECN     C1       CG331   -0.170000       12.0110           0
     70264 WT23     1311     MECN     H11      HGA3     0.090000        1.0080           0
     70265 WT23     1311     MECN     H12      HGA3     0.090000        1.0080           0
     70266 WT23     1311     MECN     H13      HGA3     0.090000        1.0080           0
     70267 WT23     1311     MECN     C2       CG1N1    0.360000       12.0110           0
     70268 WT23     1311     MECN     N3       NG1T1   -0.460000       14.0070           0
     70269 WT23     1312     MECN     C1       CG331   -0.170000       12.0110           0
     70270 WT23     1312     MECN     H11      HGA3     0.090000        1.0080           0
     70271 WT23     1312     MECN     H12      HGA3     0.090000        1.0080           0
     70272 WT23     1312     MECN     H13      HGA3     0.090000        1.0080           0
     70273 WT23     1312     MECN     C2       CG1N1    0.360000       12.0110           0
     70274 WT23     1312     MECN     N3       NG1T1   -0.460000       14.0070           0
     70275 WT23     1313     MECN     C1       CG331   -0.170000       12.0110           0
     70276 WT23     1313     MECN     H11      HGA3     0.090000        1.0080           0
     70277 WT23     1313     MECN     H12      HGA3     0.090000        1.0080           0
     70278 WT23     1313     MECN     H13      HGA3     0.090000        1.0080           0
     70279 WT23     1313     MECN     C2       CG1N1    0.360000       12.0110           0
     70280 WT23     1313     MECN     N3       NG1T1   -0.460000       14.0070           0
     70281 WT23     1314     MECN     C1       CG331   -0.170000       12.0110           0
     70282 WT23     1314     MECN     H11      HGA3     0.090000        1.0080           0
     70283 WT23     1314     MECN     H12      HGA3     0.090000        1.0080           0
     70284 WT23     1314     MECN     H13      HGA3     0.090000        1.0080           0
     70285 WT23     1314     MECN     C2       CG1N1    0.360000       12.0110           0
     70286 WT23     1314     MECN     N3       NG1T1   -0.460000       14.0070           0
     70287 WT23     1315     MECN     C1       CG331   -0.170000       12.0110           0
     70288 WT23     1315     MECN     H11      HGA3     0.090000        1.0080           0
     70289 WT23     1315     MECN     H12      HGA3     0.090000        1.0080           0
     70290 WT23     1315     MECN     H13      HGA3     0.090000        1.0080           0
     70291 WT23     1315     MECN     C2       CG1N1    0.360000       12.0110           0
     70292 WT23     1315     MECN     N3       NG1T1   -0.460000       14.0070           0
     70293 WT23     1316     MECN     C1       CG331   -0.170000       12.0110           0
     70294 WT23     1316     MECN     H11      HGA3     0.090000        1.0080           0
     70295 WT23     1316     MECN     H12      HGA3     0.090000        1.0080           0
     70296 WT23     1316     MECN     H13      HGA3     0.090000        1.0080           0
     70297 WT23     1316     MECN     C2       CG1N1    0.360000       12.0110           0
     70298 WT23     1316     MECN     N3       NG1T1   -0.460000       14.0070           0
     70299 WT23     1318     MECN     C1       CG331   -0.170000       12.0110           0
     70300 WT23     1318     MECN     H11      HGA3     0.090000        1.0080           0
     70301 WT23     1318     MECN     H12      HGA3     0.090000        1.0080           0
     70302 WT23     1318     MECN     H13      HGA3     0.090000        1.0080           0
     70303 WT23     1318     MECN     C2       CG1N1    0.360000       12.0110           0
     70304 WT23     1318     MECN     N3       NG1T1   -0.460000       14.0070           0
     70305 WT23     1319     MECN     C1       CG331   -0.170000       12.0110           0
     70306 WT23     1319     MECN     H11      HGA3     0.090000        1.0080           0
     70307 WT23     1319     MECN     H12      HGA3     0.090000        1.0080           0
     70308 WT23     1319     MECN     H13      HGA3     0.090000        1.0080           0
     70309 WT23     1319     MECN     C2       CG1N1    0.360000       12.0110           0
     70310 WT23     1319     MECN     N3       NG1T1   -0.460000       14.0070           0
     70311 WT23     1320     MECN     C1       CG331   -0.170000       12.0110           0
     70312 WT23     1320     MECN     H11      HGA3     0.090000        1.0080           0
     70313 WT23     1320     MECN     H12      HGA3     0.090000        1.0080           0
     70314 WT23     1320     MECN     H13      HGA3     0.090000        1.0080           0
     70315 WT23     1320     MECN     C2       CG1N1    0.360000       12.0110           0
     70316 WT23     1320     MECN     N3       NG1T1   -0.460000       14.0070           0
     70317 WT23     1324     MECN     C1       CG331   -0.170000       12.0110           0
     70318 WT23     1324     MECN     H11      HGA3     0.090000        1.0080           0
     70319 WT23     1324     MECN     H12      HGA3     0.090000        1.0080           0
     70320 WT23     1324     MECN     H13      HGA3     0.090000        1.0080           0
     70321 WT23     1324     MECN     C2       CG1N1    0.360000       12.0110           0
     70322 WT23     1324     MECN     N3       NG1T1   -0.460000       14.0070           0
     70323 WT23     1325     MECN     C1       CG331   -0.170000       12.0110           0
     70324 WT23     1325     MECN     H11      HGA3     0.090000        1.0080           0
     70325 WT23     1325     MECN     H12      HGA3     0.090000        1.0080           0
     70326 WT23     1325     MECN     H13      HGA3     0.090000        1.0080           0
     70327 WT23     1325     MECN     C2       CG1N1    0.360000       12.0110           0
     70328 WT23     1325     MECN     N3       NG1T1   -0.460000       14.0070           0
     70329 WT23     1327     MECN     C1       CG331   -0.170000       12.0110           0
     70330 WT23     1327     MECN     H11      HGA3     0.090000        1.0080           0
     70331 WT23     1327     MECN     H12      HGA3     0.090000        1.0080           0
     70332 WT23     1327     MECN     H13      HGA3     0.090000        1.0080           0
     70333 WT23     1327     MECN     C2       CG1N1    0.360000       12.0110           0
     70334 WT23     1327     MECN     N3       NG1T1   -0.460000       14.0070           0
     70335 WT23     1330     MECN     C1       CG331   -0.170000       12.0110           0
     70336 WT23     1330     MECN     H11      HGA3     0.090000        1.0080           0
     70337 WT23     1330     MECN     H12      HGA3     0.090000        1.0080           0
     70338 WT23     1330     MECN     H13      HGA3     0.090000        1.0080           0
     70339 WT23     1330     MECN     C2       CG1N1    0.360000       12.0110           0
     70340 WT23     1330     MECN     N3       NG1T1   -0.460000       14.0070           0
     70341 WT23     1331     MECN     C1       CG331   -0.170000       12.0110           0
     70342 WT23     1331     MECN     H11      HGA3     0.090000        1.0080           0
     70343 WT23     1331     MECN     H12      HGA3     0.090000        1.0080           0
     70344 WT23     1331     MECN     H13      HGA3     0.090000        1.0080           0
     70345 WT23     1331     MECN     C2       CG1N1    0.360000       12.0110           0
     70346 WT23     1331     MECN     N3       NG1T1   -0.460000       14.0070           0
     70347 WT24     2        MECN     C1       CG331   -0.170000       12.0110           0
     70348 WT24     2        MECN     H11      HGA3     0.090000        1.0080           0
     70349 WT24     2        MECN     H12      HGA3     0.090000        1.0080           0
     70350 WT24     2        MECN     H13      HGA3     0.090000        1.0080           0
     70351 WT24     2        MECN     C2       CG1N1    0.360000       12.0110           0
     70352 WT24     2        MECN     N3       NG1T1   -0.460000       14.0070           0
     70353 WT24     5        MECN     C1       CG331   -0.170000       12.0110           0
     70354 WT24     5        MECN     H11      HGA3     0.090000        1.0080           0
     70355 WT24     5        MECN     H12      HGA3     0.090000        1.0080           0
     70356 WT24     5        MECN     H13      HGA3     0.090000        1.0080           0
     70357 WT24     5        MECN     C2       CG1N1    0.360000       12.0110           0
     70358 WT24     5        MECN     N3       NG1T1   -0.460000       14.0070           0
     70359 WT24     6        MECN     C1       CG331   -0.170000       12.0110           0
     70360 WT24     6        MECN     H11      HGA3     0.090000        1.0080           0
     70361 WT24     6        MECN     H12      HGA3     0.090000        1.0080           0
     70362 WT24     6        MECN     H13      HGA3     0.090000        1.0080           0
     70363 WT24     6        MECN     C2       CG1N1    0.360000       12.0110           0
     70364 WT24     6        MECN     N3       NG1T1   -0.460000       14.0070           0
     70365 WT24     8        MECN     C1       CG331   -0.170000       12.0110           0
     70366 WT24     8        MECN     H11      HGA3     0.090000        1.0080           0
     70367 WT24     8        MECN     H12      HGA3     0.090000        1.0080           0
     70368 WT24     8        MECN     H13      HGA3     0.090000        1.0080           0
     70369 WT24     8        MECN     C2       CG1N1    0.360000       12.0110           0
     70370 WT24     8        MECN     N3       NG1T1   -0.460000       14.0070           0
     70371 WT24     10       MECN     C1       CG331   -0.170000       12.0110           0
     70372 WT24     10       MECN     H11      HGA3     0.090000        1.0080           0
     70373 WT24     10       MECN     H12      HGA3     0.090000        1.0080           0
     70374 WT24     10       MECN     H13      HGA3     0.090000        1.0080           0
     70375 WT24     10       MECN     C2       CG1N1    0.360000       12.0110           0
     70376 WT24     10       MECN     N3       NG1T1   -0.460000       14.0070           0
     70377 WT24     11       MECN     C1       CG331   -0.170000       12.0110           0
     70378 WT24     11       MECN     H11      HGA3     0.090000        1.0080           0
     70379 WT24     11       MECN     H12      HGA3     0.090000        1.0080           0
     70380 WT24     11       MECN     H13      HGA3     0.090000        1.0080           0
     70381 WT24     11       MECN     C2       CG1N1    0.360000       12.0110           0
     70382 WT24     11       MECN     N3       NG1T1   -0.460000       14.0070           0
     70383 WT24     13       MECN     C1       CG331   -0.170000       12.0110           0
     70384 WT24     13       MECN     H11      HGA3     0.090000        1.0080           0
     70385 WT24     13       MECN     H12      HGA3     0.090000        1.0080           0
     70386 WT24     13       MECN     H13      HGA3     0.090000        1.0080           0
     70387 WT24     13       MECN     C2       CG1N1    0.360000       12.0110           0
     70388 WT24     13       MECN     N3       NG1T1   -0.460000       14.0070           0
     70389 WT24     15       MECN     C1       CG331   -0.170000       12.0110           0
     70390 WT24     15       MECN     H11      HGA3     0.090000        1.0080           0
     70391 WT24     15       MECN     H12      HGA3     0.090000        1.0080           0
     70392 WT24     15       MECN     H13      HGA3     0.090000        1.0080           0
     70393 WT24     15       MECN     C2       CG1N1    0.360000       12.0110           0
     70394 WT24     15       MECN     N3       NG1T1   -0.460000       14.0070           0
     70395 WT24     17       MECN     C1       CG331   -0.170000       12.0110           0
     70396 WT24     17       MECN     H11      HGA3     0.090000        1.0080           0
     70397 WT24     17       MECN     H12      HGA3     0.090000        1.0080           0
     70398 WT24     17       MECN     H13      HGA3     0.090000        1.0080           0
     70399 WT24     17       MECN     C2       CG1N1    0.360000       12.0110           0
     70400 WT24     17       MECN     N3       NG1T1   -0.460000       14.0070           0
     70401 WT24     18       MECN     C1       CG331   -0.170000       12.0110           0
     70402 WT24     18       MECN     H11      HGA3     0.090000        1.0080           0
     70403 WT24     18       MECN     H12      HGA3     0.090000        1.0080           0
     70404 WT24     18       MECN     H13      HGA3     0.090000        1.0080           0
     70405 WT24     18       MECN     C2       CG1N1    0.360000       12.0110           0
     70406 WT24     18       MECN     N3       NG1T1   -0.460000       14.0070           0
     70407 WT24     19       MECN     C1       CG331   -0.170000       12.0110           0
     70408 WT24     19       MECN     H11      HGA3     0.090000        1.0080           0
     70409 WT24     19       MECN     H12      HGA3     0.090000        1.0080           0
     70410 WT24     19       MECN     H13      HGA3     0.090000        1.0080           0
     70411 WT24     19       MECN     C2       CG1N1    0.360000       12.0110           0
     70412 WT24     19       MECN     N3       NG1T1   -0.460000       14.0070           0
     70413 WT24     20       MECN     C1       CG331   -0.170000       12.0110           0
     70414 WT24     20       MECN     H11      HGA3     0.090000        1.0080           0
     70415 WT24     20       MECN     H12      HGA3     0.090000        1.0080           0
     70416 WT24     20       MECN     H13      HGA3     0.090000        1.0080           0
     70417 WT24     20       MECN     C2       CG1N1    0.360000       12.0110           0
     70418 WT24     20       MECN     N3       NG1T1   -0.460000       14.0070           0
     70419 WT24     21       MECN     C1       CG331   -0.170000       12.0110           0
     70420 WT24     21       MECN     H11      HGA3     0.090000        1.0080           0
     70421 WT24     21       MECN     H12      HGA3     0.090000        1.0080           0
     70422 WT24     21       MECN     H13      HGA3     0.090000        1.0080           0
     70423 WT24     21       MECN     C2       CG1N1    0.360000       12.0110           0
     70424 WT24     21       MECN     N3       NG1T1   -0.460000       14.0070           0
     70425 WT24     24       MECN     C1       CG331   -0.170000       12.0110           0
     70426 WT24     24       MECN     H11      HGA3     0.090000        1.0080           0
     70427 WT24     24       MECN     H12      HGA3     0.090000        1.0080           0
     70428 WT24     24       MECN     H13      HGA3     0.090000        1.0080           0
     70429 WT24     24       MECN     C2       CG1N1    0.360000       12.0110           0
     70430 WT24     24       MECN     N3       NG1T1   -0.460000       14.0070           0
     70431 WT24     25       MECN     C1       CG331   -0.170000       12.0110           0
     70432 WT24     25       MECN     H11      HGA3     0.090000        1.0080           0
     70433 WT24     25       MECN     H12      HGA3     0.090000        1.0080           0
     70434 WT24     25       MECN     H13      HGA3     0.090000        1.0080           0
     70435 WT24     25       MECN     C2       CG1N1    0.360000       12.0110           0
     70436 WT24     25       MECN     N3       NG1T1   -0.460000       14.0070           0
     70437 WT24     27       MECN     C1       CG331   -0.170000       12.0110           0
     70438 WT24     27       MECN     H11      HGA3     0.090000        1.0080           0
     70439 WT24     27       MECN     H12      HGA3     0.090000        1.0080           0
     70440 WT24     27       MECN     H13      HGA3     0.090000        1.0080           0
     70441 WT24     27       MECN     C2       CG1N1    0.360000       12.0110           0
     70442 WT24     27       MECN     N3       NG1T1   -0.460000       14.0070           0
     70443 WT24     28       MECN     C1       CG331   -0.170000       12.0110           0
     70444 WT24     28       MECN     H11      HGA3     0.090000        1.0080           0
     70445 WT24     28       MECN     H12      HGA3     0.090000        1.0080           0
     70446 WT24     28       MECN     H13      HGA3     0.090000        1.0080           0
     70447 WT24     28       MECN     C2       CG1N1    0.360000       12.0110           0
     70448 WT24     28       MECN     N3       NG1T1   -0.460000       14.0070           0
     70449 WT24     29       MECN     C1       CG331   -0.170000       12.0110           0
     70450 WT24     29       MECN     H11      HGA3     0.090000        1.0080           0
     70451 WT24     29       MECN     H12      HGA3     0.090000        1.0080           0
     70452 WT24     29       MECN     H13      HGA3     0.090000        1.0080           0
     70453 WT24     29       MECN     C2       CG1N1    0.360000       12.0110           0
     70454 WT24     29       MECN     N3       NG1T1   -0.460000       14.0070           0
     70455 WT24     30       MECN     C1       CG331   -0.170000       12.0110           0
     70456 WT24     30       MECN     H11      HGA3     0.090000        1.0080           0
     70457 WT24     30       MECN     H12      HGA3     0.090000        1.0080           0
     70458 WT24     30       MECN     H13      HGA3     0.090000        1.0080           0
     70459 WT24     30       MECN     C2       CG1N1    0.360000       12.0110           0
     70460 WT24     30       MECN     N3       NG1T1   -0.460000       14.0070           0
     70461 WT24     32       MECN     C1       CG331   -0.170000       12.0110           0
     70462 WT24     32       MECN     H11      HGA3     0.090000        1.0080           0
     70463 WT24     32       MECN     H12      HGA3     0.090000        1.0080           0
     70464 WT24     32       MECN     H13      HGA3     0.090000        1.0080           0
     70465 WT24     32       MECN     C2       CG1N1    0.360000       12.0110           0
     70466 WT24     32       MECN     N3       NG1T1   -0.460000       14.0070           0
     70467 WT24     35       MECN     C1       CG331   -0.170000       12.0110           0
     70468 WT24     35       MECN     H11      HGA3     0.090000        1.0080           0
     70469 WT24     35       MECN     H12      HGA3     0.090000        1.0080           0
     70470 WT24     35       MECN     H13      HGA3     0.090000        1.0080           0
     70471 WT24     35       MECN     C2       CG1N1    0.360000       12.0110           0
     70472 WT24     35       MECN     N3       NG1T1   -0.460000       14.0070           0
     70473 WT24     38       MECN     C1       CG331   -0.170000       12.0110           0
     70474 WT24     38       MECN     H11      HGA3     0.090000        1.0080           0
     70475 WT24     38       MECN     H12      HGA3     0.090000        1.0080           0
     70476 WT24     38       MECN     H13      HGA3     0.090000        1.0080           0
     70477 WT24     38       MECN     C2       CG1N1    0.360000       12.0110           0
     70478 WT24     38       MECN     N3       NG1T1   -0.460000       14.0070           0
     70479 WT24     39       MECN     C1       CG331   -0.170000       12.0110           0
     70480 WT24     39       MECN     H11      HGA3     0.090000        1.0080           0
     70481 WT24     39       MECN     H12      HGA3     0.090000        1.0080           0
     70482 WT24     39       MECN     H13      HGA3     0.090000        1.0080           0
     70483 WT24     39       MECN     C2       CG1N1    0.360000       12.0110           0
     70484 WT24     39       MECN     N3       NG1T1   -0.460000       14.0070           0
     70485 WT24     40       MECN     C1       CG331   -0.170000       12.0110           0
     70486 WT24     40       MECN     H11      HGA3     0.090000        1.0080           0
     70487 WT24     40       MECN     H12      HGA3     0.090000        1.0080           0
     70488 WT24     40       MECN     H13      HGA3     0.090000        1.0080           0
     70489 WT24     40       MECN     C2       CG1N1    0.360000       12.0110           0
     70490 WT24     40       MECN     N3       NG1T1   -0.460000       14.0070           0
     70491 WT24     41       MECN     C1       CG331   -0.170000       12.0110           0
     70492 WT24     41       MECN     H11      HGA3     0.090000        1.0080           0
     70493 WT24     41       MECN     H12      HGA3     0.090000        1.0080           0
     70494 WT24     41       MECN     H13      HGA3     0.090000        1.0080           0
     70495 WT24     41       MECN     C2       CG1N1    0.360000       12.0110           0
     70496 WT24     41       MECN     N3       NG1T1   -0.460000       14.0070           0
     70497 WT24     44       MECN     C1       CG331   -0.170000       12.0110           0
     70498 WT24     44       MECN     H11      HGA3     0.090000        1.0080           0
     70499 WT24     44       MECN     H12      HGA3     0.090000        1.0080           0
     70500 WT24     44       MECN     H13      HGA3     0.090000        1.0080           0
     70501 WT24     44       MECN     C2       CG1N1    0.360000       12.0110           0
     70502 WT24     44       MECN     N3       NG1T1   -0.460000       14.0070           0
     70503 WT24     45       MECN     C1       CG331   -0.170000       12.0110           0
     70504 WT24     45       MECN     H11      HGA3     0.090000        1.0080           0
     70505 WT24     45       MECN     H12      HGA3     0.090000        1.0080           0
     70506 WT24     45       MECN     H13      HGA3     0.090000        1.0080           0
     70507 WT24     45       MECN     C2       CG1N1    0.360000       12.0110           0
     70508 WT24     45       MECN     N3       NG1T1   -0.460000       14.0070           0
     70509 WT24     47       MECN     C1       CG331   -0.170000       12.0110           0
     70510 WT24     47       MECN     H11      HGA3     0.090000        1.0080           0
     70511 WT24     47       MECN     H12      HGA3     0.090000        1.0080           0
     70512 WT24     47       MECN     H13      HGA3     0.090000        1.0080           0
     70513 WT24     47       MECN     C2       CG1N1    0.360000       12.0110           0
     70514 WT24     47       MECN     N3       NG1T1   -0.460000       14.0070           0
     70515 WT24     48       MECN     C1       CG331   -0.170000       12.0110           0
     70516 WT24     48       MECN     H11      HGA3     0.090000        1.0080           0
     70517 WT24     48       MECN     H12      HGA3     0.090000        1.0080           0
     70518 WT24     48       MECN     H13      HGA3     0.090000        1.0080           0
     70519 WT24     48       MECN     C2       CG1N1    0.360000       12.0110           0
     70520 WT24     48       MECN     N3       NG1T1   -0.460000       14.0070           0
     70521 WT24     49       MECN     C1       CG331   -0.170000       12.0110           0
     70522 WT24     49       MECN     H11      HGA3     0.090000        1.0080           0
     70523 WT24     49       MECN     H12      HGA3     0.090000        1.0080           0
     70524 WT24     49       MECN     H13      HGA3     0.090000        1.0080           0
     70525 WT24     49       MECN     C2       CG1N1    0.360000       12.0110           0
     70526 WT24     49       MECN     N3       NG1T1   -0.460000       14.0070           0
     70527 WT24     55       MECN     C1       CG331   -0.170000       12.0110           0
     70528 WT24     55       MECN     H11      HGA3     0.090000        1.0080           0
     70529 WT24     55       MECN     H12      HGA3     0.090000        1.0080           0
     70530 WT24     55       MECN     H13      HGA3     0.090000        1.0080           0
     70531 WT24     55       MECN     C2       CG1N1    0.360000       12.0110           0
     70532 WT24     55       MECN     N3       NG1T1   -0.460000       14.0070           0
     70533 WT24     61       MECN     C1       CG331   -0.170000       12.0110           0
     70534 WT24     61       MECN     H11      HGA3     0.090000        1.0080           0
     70535 WT24     61       MECN     H12      HGA3     0.090000        1.0080           0
     70536 WT24     61       MECN     H13      HGA3     0.090000        1.0080           0
     70537 WT24     61       MECN     C2       CG1N1    0.360000       12.0110           0
     70538 WT24     61       MECN     N3       NG1T1   -0.460000       14.0070           0
     70539 WT24     62       MECN     C1       CG331   -0.170000       12.0110           0
     70540 WT24     62       MECN     H11      HGA3     0.090000        1.0080           0
     70541 WT24     62       MECN     H12      HGA3     0.090000        1.0080           0
     70542 WT24     62       MECN     H13      HGA3     0.090000        1.0080           0
     70543 WT24     62       MECN     C2       CG1N1    0.360000       12.0110           0
     70544 WT24     62       MECN     N3       NG1T1   -0.460000       14.0070           0
     70545 WT24     64       MECN     C1       CG331   -0.170000       12.0110           0
     70546 WT24     64       MECN     H11      HGA3     0.090000        1.0080           0
     70547 WT24     64       MECN     H12      HGA3     0.090000        1.0080           0
     70548 WT24     64       MECN     H13      HGA3     0.090000        1.0080           0
     70549 WT24     64       MECN     C2       CG1N1    0.360000       12.0110           0
     70550 WT24     64       MECN     N3       NG1T1   -0.460000       14.0070           0
     70551 WT24     65       MECN     C1       CG331   -0.170000       12.0110           0
     70552 WT24     65       MECN     H11      HGA3     0.090000        1.0080           0
     70553 WT24     65       MECN     H12      HGA3     0.090000        1.0080           0
     70554 WT24     65       MECN     H13      HGA3     0.090000        1.0080           0
     70555 WT24     65       MECN     C2       CG1N1    0.360000       12.0110           0
     70556 WT24     65       MECN     N3       NG1T1   -0.460000       14.0070           0
     70557 WT24     66       MECN     C1       CG331   -0.170000       12.0110           0
     70558 WT24     66       MECN     H11      HGA3     0.090000        1.0080           0
     70559 WT24     66       MECN     H12      HGA3     0.090000        1.0080           0
     70560 WT24     66       MECN     H13      HGA3     0.090000        1.0080           0
     70561 WT24     66       MECN     C2       CG1N1    0.360000       12.0110           0
     70562 WT24     66       MECN     N3       NG1T1   -0.460000       14.0070           0
     70563 WT24     67       MECN     C1       CG331   -0.170000       12.0110           0
     70564 WT24     67       MECN     H11      HGA3     0.090000        1.0080           0
     70565 WT24     67       MECN     H12      HGA3     0.090000        1.0080           0
     70566 WT24     67       MECN     H13      HGA3     0.090000        1.0080           0
     70567 WT24     67       MECN     C2       CG1N1    0.360000       12.0110           0
     70568 WT24     67       MECN     N3       NG1T1   -0.460000       14.0070           0
     70569 WT24     68       MECN     C1       CG331   -0.170000       12.0110           0
     70570 WT24     68       MECN     H11      HGA3     0.090000        1.0080           0
     70571 WT24     68       MECN     H12      HGA3     0.090000        1.0080           0
     70572 WT24     68       MECN     H13      HGA3     0.090000        1.0080           0
     70573 WT24     68       MECN     C2       CG1N1    0.360000       12.0110           0
     70574 WT24     68       MECN     N3       NG1T1   -0.460000       14.0070           0
     70575 WT24     70       MECN     C1       CG331   -0.170000       12.0110           0
     70576 WT24     70       MECN     H11      HGA3     0.090000        1.0080           0
     70577 WT24     70       MECN     H12      HGA3     0.090000        1.0080           0
     70578 WT24     70       MECN     H13      HGA3     0.090000        1.0080           0
     70579 WT24     70       MECN     C2       CG1N1    0.360000       12.0110           0
     70580 WT24     70       MECN     N3       NG1T1   -0.460000       14.0070           0
     70581 WT24     80       MECN     C1       CG331   -0.170000       12.0110           0
     70582 WT24     80       MECN     H11      HGA3     0.090000        1.0080           0
     70583 WT24     80       MECN     H12      HGA3     0.090000        1.0080           0
     70584 WT24     80       MECN     H13      HGA3     0.090000        1.0080           0
     70585 WT24     80       MECN     C2       CG1N1    0.360000       12.0110           0
     70586 WT24     80       MECN     N3       NG1T1   -0.460000       14.0070           0
     70587 WT24     82       MECN     C1       CG331   -0.170000       12.0110           0
     70588 WT24     82       MECN     H11      HGA3     0.090000        1.0080           0
     70589 WT24     82       MECN     H12      HGA3     0.090000        1.0080           0
     70590 WT24     82       MECN     H13      HGA3     0.090000        1.0080           0
     70591 WT24     82       MECN     C2       CG1N1    0.360000       12.0110           0
     70592 WT24     82       MECN     N3       NG1T1   -0.460000       14.0070           0
     70593 WT24     83       MECN     C1       CG331   -0.170000       12.0110           0
     70594 WT24     83       MECN     H11      HGA3     0.090000        1.0080           0
     70595 WT24     83       MECN     H12      HGA3     0.090000        1.0080           0
     70596 WT24     83       MECN     H13      HGA3     0.090000        1.0080           0
     70597 WT24     83       MECN     C2       CG1N1    0.360000       12.0110           0
     70598 WT24     83       MECN     N3       NG1T1   -0.460000       14.0070           0
     70599 WT24     88       MECN     C1       CG331   -0.170000       12.0110           0
     70600 WT24     88       MECN     H11      HGA3     0.090000        1.0080           0
     70601 WT24     88       MECN     H12      HGA3     0.090000        1.0080           0
     70602 WT24     88       MECN     H13      HGA3     0.090000        1.0080           0
     70603 WT24     88       MECN     C2       CG1N1    0.360000       12.0110           0
     70604 WT24     88       MECN     N3       NG1T1   -0.460000       14.0070           0
     70605 WT24     89       MECN     C1       CG331   -0.170000       12.0110           0
     70606 WT24     89       MECN     H11      HGA3     0.090000        1.0080           0
     70607 WT24     89       MECN     H12      HGA3     0.090000        1.0080           0
     70608 WT24     89       MECN     H13      HGA3     0.090000        1.0080           0
     70609 WT24     89       MECN     C2       CG1N1    0.360000       12.0110           0
     70610 WT24     89       MECN     N3       NG1T1   -0.460000       14.0070           0
     70611 WT24     93       MECN     C1       CG331   -0.170000       12.0110           0
     70612 WT24     93       MECN     H11      HGA3     0.090000        1.0080           0
     70613 WT24     93       MECN     H12      HGA3     0.090000        1.0080           0
     70614 WT24     93       MECN     H13      HGA3     0.090000        1.0080           0
     70615 WT24     93       MECN     C2       CG1N1    0.360000       12.0110           0
     70616 WT24     93       MECN     N3       NG1T1   -0.460000       14.0070           0
     70617 WT24     96       MECN     C1       CG331   -0.170000       12.0110           0
     70618 WT24     96       MECN     H11      HGA3     0.090000        1.0080           0
     70619 WT24     96       MECN     H12      HGA3     0.090000        1.0080           0
     70620 WT24     96       MECN     H13      HGA3     0.090000        1.0080           0
     70621 WT24     96       MECN     C2       CG1N1    0.360000       12.0110           0
     70622 WT24     96       MECN     N3       NG1T1   -0.460000       14.0070           0
     70623 WT24     97       MECN     C1       CG331   -0.170000       12.0110           0
     70624 WT24     97       MECN     H11      HGA3     0.090000        1.0080           0
     70625 WT24     97       MECN     H12      HGA3     0.090000        1.0080           0
     70626 WT24     97       MECN     H13      HGA3     0.090000        1.0080           0
     70627 WT24     97       MECN     C2       CG1N1    0.360000       12.0110           0
     70628 WT24     97       MECN     N3       NG1T1   -0.460000       14.0070           0
     70629 WT24     99       MECN     C1       CG331   -0.170000       12.0110           0
     70630 WT24     99       MECN     H11      HGA3     0.090000        1.0080           0
     70631 WT24     99       MECN     H12      HGA3     0.090000        1.0080           0
     70632 WT24     99       MECN     H13      HGA3     0.090000        1.0080           0
     70633 WT24     99       MECN     C2       CG1N1    0.360000       12.0110           0
     70634 WT24     99       MECN     N3       NG1T1   -0.460000       14.0070           0
     70635 WT24     100      MECN     C1       CG331   -0.170000       12.0110           0
     70636 WT24     100      MECN     H11      HGA3     0.090000        1.0080           0
     70637 WT24     100      MECN     H12      HGA3     0.090000        1.0080           0
     70638 WT24     100      MECN     H13      HGA3     0.090000        1.0080           0
     70639 WT24     100      MECN     C2       CG1N1    0.360000       12.0110           0
     70640 WT24     100      MECN     N3       NG1T1   -0.460000       14.0070           0
     70641 WT24     102      MECN     C1       CG331   -0.170000       12.0110           0
     70642 WT24     102      MECN     H11      HGA3     0.090000        1.0080           0
     70643 WT24     102      MECN     H12      HGA3     0.090000        1.0080           0
     70644 WT24     102      MECN     H13      HGA3     0.090000        1.0080           0
     70645 WT24     102      MECN     C2       CG1N1    0.360000       12.0110           0
     70646 WT24     102      MECN     N3       NG1T1   -0.460000       14.0070           0
     70647 WT24     104      MECN     C1       CG331   -0.170000       12.0110           0
     70648 WT24     104      MECN     H11      HGA3     0.090000        1.0080           0
     70649 WT24     104      MECN     H12      HGA3     0.090000        1.0080           0
     70650 WT24     104      MECN     H13      HGA3     0.090000        1.0080           0
     70651 WT24     104      MECN     C2       CG1N1    0.360000       12.0110           0
     70652 WT24     104      MECN     N3       NG1T1   -0.460000       14.0070           0
     70653 WT24     106      MECN     C1       CG331   -0.170000       12.0110           0
     70654 WT24     106      MECN     H11      HGA3     0.090000        1.0080           0
     70655 WT24     106      MECN     H12      HGA3     0.090000        1.0080           0
     70656 WT24     106      MECN     H13      HGA3     0.090000        1.0080           0
     70657 WT24     106      MECN     C2       CG1N1    0.360000       12.0110           0
     70658 WT24     106      MECN     N3       NG1T1   -0.460000       14.0070           0
     70659 WT24     107      MECN     C1       CG331   -0.170000       12.0110           0
     70660 WT24     107      MECN     H11      HGA3     0.090000        1.0080           0
     70661 WT24     107      MECN     H12      HGA3     0.090000        1.0080           0
     70662 WT24     107      MECN     H13      HGA3     0.090000        1.0080           0
     70663 WT24     107      MECN     C2       CG1N1    0.360000       12.0110           0
     70664 WT24     107      MECN     N3       NG1T1   -0.460000       14.0070           0
     70665 WT24     108      MECN     C1       CG331   -0.170000       12.0110           0
     70666 WT24     108      MECN     H11      HGA3     0.090000        1.0080           0
     70667 WT24     108      MECN     H12      HGA3     0.090000        1.0080           0
     70668 WT24     108      MECN     H13      HGA3     0.090000        1.0080           0
     70669 WT24     108      MECN     C2       CG1N1    0.360000       12.0110           0
     70670 WT24     108      MECN     N3       NG1T1   -0.460000       14.0070           0
     70671 WT24     112      MECN     C1       CG331   -0.170000       12.0110           0
     70672 WT24     112      MECN     H11      HGA3     0.090000        1.0080           0
     70673 WT24     112      MECN     H12      HGA3     0.090000        1.0080           0
     70674 WT24     112      MECN     H13      HGA3     0.090000        1.0080           0
     70675 WT24     112      MECN     C2       CG1N1    0.360000       12.0110           0
     70676 WT24     112      MECN     N3       NG1T1   -0.460000       14.0070           0
     70677 WT24     113      MECN     C1       CG331   -0.170000       12.0110           0
     70678 WT24     113      MECN     H11      HGA3     0.090000        1.0080           0
     70679 WT24     113      MECN     H12      HGA3     0.090000        1.0080           0
     70680 WT24     113      MECN     H13      HGA3     0.090000        1.0080           0
     70681 WT24     113      MECN     C2       CG1N1    0.360000       12.0110           0
     70682 WT24     113      MECN     N3       NG1T1   -0.460000       14.0070           0
     70683 WT24     114      MECN     C1       CG331   -0.170000       12.0110           0
     70684 WT24     114      MECN     H11      HGA3     0.090000        1.0080           0
     70685 WT24     114      MECN     H12      HGA3     0.090000        1.0080           0
     70686 WT24     114      MECN     H13      HGA3     0.090000        1.0080           0
     70687 WT24     114      MECN     C2       CG1N1    0.360000       12.0110           0
     70688 WT24     114      MECN     N3       NG1T1   -0.460000       14.0070           0
     70689 WT24     118      MECN     C1       CG331   -0.170000       12.0110           0
     70690 WT24     118      MECN     H11      HGA3     0.090000        1.0080           0
     70691 WT24     118      MECN     H12      HGA3     0.090000        1.0080           0
     70692 WT24     118      MECN     H13      HGA3     0.090000        1.0080           0
     70693 WT24     118      MECN     C2       CG1N1    0.360000       12.0110           0
     70694 WT24     118      MECN     N3       NG1T1   -0.460000       14.0070           0
     70695 WT24     119      MECN     C1       CG331   -0.170000       12.0110           0
     70696 WT24     119      MECN     H11      HGA3     0.090000        1.0080           0
     70697 WT24     119      MECN     H12      HGA3     0.090000        1.0080           0
     70698 WT24     119      MECN     H13      HGA3     0.090000        1.0080           0
     70699 WT24     119      MECN     C2       CG1N1    0.360000       12.0110           0
     70700 WT24     119      MECN     N3       NG1T1   -0.460000       14.0070           0
     70701 WT24     123      MECN     C1       CG331   -0.170000       12.0110           0
     70702 WT24     123      MECN     H11      HGA3     0.090000        1.0080           0
     70703 WT24     123      MECN     H12      HGA3     0.090000        1.0080           0
     70704 WT24     123      MECN     H13      HGA3     0.090000        1.0080           0
     70705 WT24     123      MECN     C2       CG1N1    0.360000       12.0110           0
     70706 WT24     123      MECN     N3       NG1T1   -0.460000       14.0070           0
     70707 WT24     124      MECN     C1       CG331   -0.170000       12.0110           0
     70708 WT24     124      MECN     H11      HGA3     0.090000        1.0080           0
     70709 WT24     124      MECN     H12      HGA3     0.090000        1.0080           0
     70710 WT24     124      MECN     H13      HGA3     0.090000        1.0080           0
     70711 WT24     124      MECN     C2       CG1N1    0.360000       12.0110           0
     70712 WT24     124      MECN     N3       NG1T1   -0.460000       14.0070           0
     70713 WT24     126      MECN     C1       CG331   -0.170000       12.0110           0
     70714 WT24     126      MECN     H11      HGA3     0.090000        1.0080           0
     70715 WT24     126      MECN     H12      HGA3     0.090000        1.0080           0
     70716 WT24     126      MECN     H13      HGA3     0.090000        1.0080           0
     70717 WT24     126      MECN     C2       CG1N1    0.360000       12.0110           0
     70718 WT24     126      MECN     N3       NG1T1   -0.460000       14.0070           0
     70719 WT24     127      MECN     C1       CG331   -0.170000       12.0110           0
     70720 WT24     127      MECN     H11      HGA3     0.090000        1.0080           0
     70721 WT24     127      MECN     H12      HGA3     0.090000        1.0080           0
     70722 WT24     127      MECN     H13      HGA3     0.090000        1.0080           0
     70723 WT24     127      MECN     C2       CG1N1    0.360000       12.0110           0
     70724 WT24     127      MECN     N3       NG1T1   -0.460000       14.0070           0
     70725 WT24     128      MECN     C1       CG331   -0.170000       12.0110           0
     70726 WT24     128      MECN     H11      HGA3     0.090000        1.0080           0
     70727 WT24     128      MECN     H12      HGA3     0.090000        1.0080           0
     70728 WT24     128      MECN     H13      HGA3     0.090000        1.0080           0
     70729 WT24     128      MECN     C2       CG1N1    0.360000       12.0110           0
     70730 WT24     128      MECN     N3       NG1T1   -0.460000       14.0070           0
     70731 WT24     130      MECN     C1       CG331   -0.170000       12.0110           0
     70732 WT24     130      MECN     H11      HGA3     0.090000        1.0080           0
     70733 WT24     130      MECN     H12      HGA3     0.090000        1.0080           0
     70734 WT24     130      MECN     H13      HGA3     0.090000        1.0080           0
     70735 WT24     130      MECN     C2       CG1N1    0.360000       12.0110           0
     70736 WT24     130      MECN     N3       NG1T1   -0.460000       14.0070           0
     70737 WT24     131      MECN     C1       CG331   -0.170000       12.0110           0
     70738 WT24     131      MECN     H11      HGA3     0.090000        1.0080           0
     70739 WT24     131      MECN     H12      HGA3     0.090000        1.0080           0
     70740 WT24     131      MECN     H13      HGA3     0.090000        1.0080           0
     70741 WT24     131      MECN     C2       CG1N1    0.360000       12.0110           0
     70742 WT24     131      MECN     N3       NG1T1   -0.460000       14.0070           0
     70743 WT24     135      MECN     C1       CG331   -0.170000       12.0110           0
     70744 WT24     135      MECN     H11      HGA3     0.090000        1.0080           0
     70745 WT24     135      MECN     H12      HGA3     0.090000        1.0080           0
     70746 WT24     135      MECN     H13      HGA3     0.090000        1.0080           0
     70747 WT24     135      MECN     C2       CG1N1    0.360000       12.0110           0
     70748 WT24     135      MECN     N3       NG1T1   -0.460000       14.0070           0
     70749 WT24     136      MECN     C1       CG331   -0.170000       12.0110           0
     70750 WT24     136      MECN     H11      HGA3     0.090000        1.0080           0
     70751 WT24     136      MECN     H12      HGA3     0.090000        1.0080           0
     70752 WT24     136      MECN     H13      HGA3     0.090000        1.0080           0
     70753 WT24     136      MECN     C2       CG1N1    0.360000       12.0110           0
     70754 WT24     136      MECN     N3       NG1T1   -0.460000       14.0070           0
     70755 WT24     137      MECN     C1       CG331   -0.170000       12.0110           0
     70756 WT24     137      MECN     H11      HGA3     0.090000        1.0080           0
     70757 WT24     137      MECN     H12      HGA3     0.090000        1.0080           0
     70758 WT24     137      MECN     H13      HGA3     0.090000        1.0080           0
     70759 WT24     137      MECN     C2       CG1N1    0.360000       12.0110           0
     70760 WT24     137      MECN     N3       NG1T1   -0.460000       14.0070           0
     70761 WT24     141      MECN     C1       CG331   -0.170000       12.0110           0
     70762 WT24     141      MECN     H11      HGA3     0.090000        1.0080           0
     70763 WT24     141      MECN     H12      HGA3     0.090000        1.0080           0
     70764 WT24     141      MECN     H13      HGA3     0.090000        1.0080           0
     70765 WT24     141      MECN     C2       CG1N1    0.360000       12.0110           0
     70766 WT24     141      MECN     N3       NG1T1   -0.460000       14.0070           0
     70767 WT24     142      MECN     C1       CG331   -0.170000       12.0110           0
     70768 WT24     142      MECN     H11      HGA3     0.090000        1.0080           0
     70769 WT24     142      MECN     H12      HGA3     0.090000        1.0080           0
     70770 WT24     142      MECN     H13      HGA3     0.090000        1.0080           0
     70771 WT24     142      MECN     C2       CG1N1    0.360000       12.0110           0
     70772 WT24     142      MECN     N3       NG1T1   -0.460000       14.0070           0
     70773 WT24     143      MECN     C1       CG331   -0.170000       12.0110           0
     70774 WT24     143      MECN     H11      HGA3     0.090000        1.0080           0
     70775 WT24     143      MECN     H12      HGA3     0.090000        1.0080           0
     70776 WT24     143      MECN     H13      HGA3     0.090000        1.0080           0
     70777 WT24     143      MECN     C2       CG1N1    0.360000       12.0110           0
     70778 WT24     143      MECN     N3       NG1T1   -0.460000       14.0070           0
     70779 WT24     145      MECN     C1       CG331   -0.170000       12.0110           0
     70780 WT24     145      MECN     H11      HGA3     0.090000        1.0080           0
     70781 WT24     145      MECN     H12      HGA3     0.090000        1.0080           0
     70782 WT24     145      MECN     H13      HGA3     0.090000        1.0080           0
     70783 WT24     145      MECN     C2       CG1N1    0.360000       12.0110           0
     70784 WT24     145      MECN     N3       NG1T1   -0.460000       14.0070           0
     70785 WT24     150      MECN     C1       CG331   -0.170000       12.0110           0
     70786 WT24     150      MECN     H11      HGA3     0.090000        1.0080           0
     70787 WT24     150      MECN     H12      HGA3     0.090000        1.0080           0
     70788 WT24     150      MECN     H13      HGA3     0.090000        1.0080           0
     70789 WT24     150      MECN     C2       CG1N1    0.360000       12.0110           0
     70790 WT24     150      MECN     N3       NG1T1   -0.460000       14.0070           0
     70791 WT24     151      MECN     C1       CG331   -0.170000       12.0110           0
     70792 WT24     151      MECN     H11      HGA3     0.090000        1.0080           0
     70793 WT24     151      MECN     H12      HGA3     0.090000        1.0080           0
     70794 WT24     151      MECN     H13      HGA3     0.090000        1.0080           0
     70795 WT24     151      MECN     C2       CG1N1    0.360000       12.0110           0
     70796 WT24     151      MECN     N3       NG1T1   -0.460000       14.0070           0
     70797 WT24     152      MECN     C1       CG331   -0.170000       12.0110           0
     70798 WT24     152      MECN     H11      HGA3     0.090000        1.0080           0
     70799 WT24     152      MECN     H12      HGA3     0.090000        1.0080           0
     70800 WT24     152      MECN     H13      HGA3     0.090000        1.0080           0
     70801 WT24     152      MECN     C2       CG1N1    0.360000       12.0110           0
     70802 WT24     152      MECN     N3       NG1T1   -0.460000       14.0070           0
     70803 WT24     153      MECN     C1       CG331   -0.170000       12.0110           0
     70804 WT24     153      MECN     H11      HGA3     0.090000        1.0080           0
     70805 WT24     153      MECN     H12      HGA3     0.090000        1.0080           0
     70806 WT24     153      MECN     H13      HGA3     0.090000        1.0080           0
     70807 WT24     153      MECN     C2       CG1N1    0.360000       12.0110           0
     70808 WT24     153      MECN     N3       NG1T1   -0.460000       14.0070           0
     70809 WT24     154      MECN     C1       CG331   -0.170000       12.0110           0
     70810 WT24     154      MECN     H11      HGA3     0.090000        1.0080           0
     70811 WT24     154      MECN     H12      HGA3     0.090000        1.0080           0
     70812 WT24     154      MECN     H13      HGA3     0.090000        1.0080           0
     70813 WT24     154      MECN     C2       CG1N1    0.360000       12.0110           0
     70814 WT24     154      MECN     N3       NG1T1   -0.460000       14.0070           0
     70815 WT24     155      MECN     C1       CG331   -0.170000       12.0110           0
     70816 WT24     155      MECN     H11      HGA3     0.090000        1.0080           0
     70817 WT24     155      MECN     H12      HGA3     0.090000        1.0080           0
     70818 WT24     155      MECN     H13      HGA3     0.090000        1.0080           0
     70819 WT24     155      MECN     C2       CG1N1    0.360000       12.0110           0
     70820 WT24     155      MECN     N3       NG1T1   -0.460000       14.0070           0
     70821 WT24     157      MECN     C1       CG331   -0.170000       12.0110           0
     70822 WT24     157      MECN     H11      HGA3     0.090000        1.0080           0
     70823 WT24     157      MECN     H12      HGA3     0.090000        1.0080           0
     70824 WT24     157      MECN     H13      HGA3     0.090000        1.0080           0
     70825 WT24     157      MECN     C2       CG1N1    0.360000       12.0110           0
     70826 WT24     157      MECN     N3       NG1T1   -0.460000       14.0070           0
     70827 WT24     158      MECN     C1       CG331   -0.170000       12.0110           0
     70828 WT24     158      MECN     H11      HGA3     0.090000        1.0080           0
     70829 WT24     158      MECN     H12      HGA3     0.090000        1.0080           0
     70830 WT24     158      MECN     H13      HGA3     0.090000        1.0080           0
     70831 WT24     158      MECN     C2       CG1N1    0.360000       12.0110           0
     70832 WT24     158      MECN     N3       NG1T1   -0.460000       14.0070           0
     70833 WT24     161      MECN     C1       CG331   -0.170000       12.0110           0
     70834 WT24     161      MECN     H11      HGA3     0.090000        1.0080           0
     70835 WT24     161      MECN     H12      HGA3     0.090000        1.0080           0
     70836 WT24     161      MECN     H13      HGA3     0.090000        1.0080           0
     70837 WT24     161      MECN     C2       CG1N1    0.360000       12.0110           0
     70838 WT24     161      MECN     N3       NG1T1   -0.460000       14.0070           0
     70839 WT24     163      MECN     C1       CG331   -0.170000       12.0110           0
     70840 WT24     163      MECN     H11      HGA3     0.090000        1.0080           0
     70841 WT24     163      MECN     H12      HGA3     0.090000        1.0080           0
     70842 WT24     163      MECN     H13      HGA3     0.090000        1.0080           0
     70843 WT24     163      MECN     C2       CG1N1    0.360000       12.0110           0
     70844 WT24     163      MECN     N3       NG1T1   -0.460000       14.0070           0
     70845 WT24     164      MECN     C1       CG331   -0.170000       12.0110           0
     70846 WT24     164      MECN     H11      HGA3     0.090000        1.0080           0
     70847 WT24     164      MECN     H12      HGA3     0.090000        1.0080           0
     70848 WT24     164      MECN     H13      HGA3     0.090000        1.0080           0
     70849 WT24     164      MECN     C2       CG1N1    0.360000       12.0110           0
     70850 WT24     164      MECN     N3       NG1T1   -0.460000       14.0070           0
     70851 WT24     165      MECN     C1       CG331   -0.170000       12.0110           0
     70852 WT24     165      MECN     H11      HGA3     0.090000        1.0080           0
     70853 WT24     165      MECN     H12      HGA3     0.090000        1.0080           0
     70854 WT24     165      MECN     H13      HGA3     0.090000        1.0080           0
     70855 WT24     165      MECN     C2       CG1N1    0.360000       12.0110           0
     70856 WT24     165      MECN     N3       NG1T1   -0.460000       14.0070           0
     70857 WT24     166      MECN     C1       CG331   -0.170000       12.0110           0
     70858 WT24     166      MECN     H11      HGA3     0.090000        1.0080           0
     70859 WT24     166      MECN     H12      HGA3     0.090000        1.0080           0
     70860 WT24     166      MECN     H13      HGA3     0.090000        1.0080           0
     70861 WT24     166      MECN     C2       CG1N1    0.360000       12.0110           0
     70862 WT24     166      MECN     N3       NG1T1   -0.460000       14.0070           0
     70863 WT24     167      MECN     C1       CG331   -0.170000       12.0110           0
     70864 WT24     167      MECN     H11      HGA3     0.090000        1.0080           0
     70865 WT24     167      MECN     H12      HGA3     0.090000        1.0080           0
     70866 WT24     167      MECN     H13      HGA3     0.090000        1.0080           0
     70867 WT24     167      MECN     C2       CG1N1    0.360000       12.0110           0
     70868 WT24     167      MECN     N3       NG1T1   -0.460000       14.0070           0
     70869 WT24     168      MECN     C1       CG331   -0.170000       12.0110           0
     70870 WT24     168      MECN     H11      HGA3     0.090000        1.0080           0
     70871 WT24     168      MECN     H12      HGA3     0.090000        1.0080           0
     70872 WT24     168      MECN     H13      HGA3     0.090000        1.0080           0
     70873 WT24     168      MECN     C2       CG1N1    0.360000       12.0110           0
     70874 WT24     168      MECN     N3       NG1T1   -0.460000       14.0070           0
     70875 WT24     175      MECN     C1       CG331   -0.170000       12.0110           0
     70876 WT24     175      MECN     H11      HGA3     0.090000        1.0080           0
     70877 WT24     175      MECN     H12      HGA3     0.090000        1.0080           0
     70878 WT24     175      MECN     H13      HGA3     0.090000        1.0080           0
     70879 WT24     175      MECN     C2       CG1N1    0.360000       12.0110           0
     70880 WT24     175      MECN     N3       NG1T1   -0.460000       14.0070           0
     70881 WT24     178      MECN     C1       CG331   -0.170000       12.0110           0
     70882 WT24     178      MECN     H11      HGA3     0.090000        1.0080           0
     70883 WT24     178      MECN     H12      HGA3     0.090000        1.0080           0
     70884 WT24     178      MECN     H13      HGA3     0.090000        1.0080           0
     70885 WT24     178      MECN     C2       CG1N1    0.360000       12.0110           0
     70886 WT24     178      MECN     N3       NG1T1   -0.460000       14.0070           0
     70887 WT24     181      MECN     C1       CG331   -0.170000       12.0110           0
     70888 WT24     181      MECN     H11      HGA3     0.090000        1.0080           0
     70889 WT24     181      MECN     H12      HGA3     0.090000        1.0080           0
     70890 WT24     181      MECN     H13      HGA3     0.090000        1.0080           0
     70891 WT24     181      MECN     C2       CG1N1    0.360000       12.0110           0
     70892 WT24     181      MECN     N3       NG1T1   -0.460000       14.0070           0
     70893 WT24     182      MECN     C1       CG331   -0.170000       12.0110           0
     70894 WT24     182      MECN     H11      HGA3     0.090000        1.0080           0
     70895 WT24     182      MECN     H12      HGA3     0.090000        1.0080           0
     70896 WT24     182      MECN     H13      HGA3     0.090000        1.0080           0
     70897 WT24     182      MECN     C2       CG1N1    0.360000       12.0110           0
     70898 WT24     182      MECN     N3       NG1T1   -0.460000       14.0070           0
     70899 WT24     184      MECN     C1       CG331   -0.170000       12.0110           0
     70900 WT24     184      MECN     H11      HGA3     0.090000        1.0080           0
     70901 WT24     184      MECN     H12      HGA3     0.090000        1.0080           0
     70902 WT24     184      MECN     H13      HGA3     0.090000        1.0080           0
     70903 WT24     184      MECN     C2       CG1N1    0.360000       12.0110           0
     70904 WT24     184      MECN     N3       NG1T1   -0.460000       14.0070           0
     70905 WT24     186      MECN     C1       CG331   -0.170000       12.0110           0
     70906 WT24     186      MECN     H11      HGA3     0.090000        1.0080           0
     70907 WT24     186      MECN     H12      HGA3     0.090000        1.0080           0
     70908 WT24     186      MECN     H13      HGA3     0.090000        1.0080           0
     70909 WT24     186      MECN     C2       CG1N1    0.360000       12.0110           0
     70910 WT24     186      MECN     N3       NG1T1   -0.460000       14.0070           0
     70911 WT24     190      MECN     C1       CG331   -0.170000       12.0110           0
     70912 WT24     190      MECN     H11      HGA3     0.090000        1.0080           0
     70913 WT24     190      MECN     H12      HGA3     0.090000        1.0080           0
     70914 WT24     190      MECN     H13      HGA3     0.090000        1.0080           0
     70915 WT24     190      MECN     C2       CG1N1    0.360000       12.0110           0
     70916 WT24     190      MECN     N3       NG1T1   -0.460000       14.0070           0
     70917 WT24     192      MECN     C1       CG331   -0.170000       12.0110           0
     70918 WT24     192      MECN     H11      HGA3     0.090000        1.0080           0
     70919 WT24     192      MECN     H12      HGA3     0.090000        1.0080           0
     70920 WT24     192      MECN     H13      HGA3     0.090000        1.0080           0
     70921 WT24     192      MECN     C2       CG1N1    0.360000       12.0110           0
     70922 WT24     192      MECN     N3       NG1T1   -0.460000       14.0070           0
     70923 WT24     193      MECN     C1       CG331   -0.170000       12.0110           0
     70924 WT24     193      MECN     H11      HGA3     0.090000        1.0080           0
     70925 WT24     193      MECN     H12      HGA3     0.090000        1.0080           0
     70926 WT24     193      MECN     H13      HGA3     0.090000        1.0080           0
     70927 WT24     193      MECN     C2       CG1N1    0.360000       12.0110           0
     70928 WT24     193      MECN     N3       NG1T1   -0.460000       14.0070           0
     70929 WT24     195      MECN     C1       CG331   -0.170000       12.0110           0
     70930 WT24     195      MECN     H11      HGA3     0.090000        1.0080           0
     70931 WT24     195      MECN     H12      HGA3     0.090000        1.0080           0
     70932 WT24     195      MECN     H13      HGA3     0.090000        1.0080           0
     70933 WT24     195      MECN     C2       CG1N1    0.360000       12.0110           0
     70934 WT24     195      MECN     N3       NG1T1   -0.460000       14.0070           0
     70935 WT24     196      MECN     C1       CG331   -0.170000       12.0110           0
     70936 WT24     196      MECN     H11      HGA3     0.090000        1.0080           0
     70937 WT24     196      MECN     H12      HGA3     0.090000        1.0080           0
     70938 WT24     196      MECN     H13      HGA3     0.090000        1.0080           0
     70939 WT24     196      MECN     C2       CG1N1    0.360000       12.0110           0
     70940 WT24     196      MECN     N3       NG1T1   -0.460000       14.0070           0
     70941 WT24     198      MECN     C1       CG331   -0.170000       12.0110           0
     70942 WT24     198      MECN     H11      HGA3     0.090000        1.0080           0
     70943 WT24     198      MECN     H12      HGA3     0.090000        1.0080           0
     70944 WT24     198      MECN     H13      HGA3     0.090000        1.0080           0
     70945 WT24     198      MECN     C2       CG1N1    0.360000       12.0110           0
     70946 WT24     198      MECN     N3       NG1T1   -0.460000       14.0070           0
     70947 WT24     199      MECN     C1       CG331   -0.170000       12.0110           0
     70948 WT24     199      MECN     H11      HGA3     0.090000        1.0080           0
     70949 WT24     199      MECN     H12      HGA3     0.090000        1.0080           0
     70950 WT24     199      MECN     H13      HGA3     0.090000        1.0080           0
     70951 WT24     199      MECN     C2       CG1N1    0.360000       12.0110           0
     70952 WT24     199      MECN     N3       NG1T1   -0.460000       14.0070           0
     70953 WT24     201      MECN     C1       CG331   -0.170000       12.0110           0
     70954 WT24     201      MECN     H11      HGA3     0.090000        1.0080           0
     70955 WT24     201      MECN     H12      HGA3     0.090000        1.0080           0
     70956 WT24     201      MECN     H13      HGA3     0.090000        1.0080           0
     70957 WT24     201      MECN     C2       CG1N1    0.360000       12.0110           0
     70958 WT24     201      MECN     N3       NG1T1   -0.460000       14.0070           0
     70959 WT24     203      MECN     C1       CG331   -0.170000       12.0110           0
     70960 WT24     203      MECN     H11      HGA3     0.090000        1.0080           0
     70961 WT24     203      MECN     H12      HGA3     0.090000        1.0080           0
     70962 WT24     203      MECN     H13      HGA3     0.090000        1.0080           0
     70963 WT24     203      MECN     C2       CG1N1    0.360000       12.0110           0
     70964 WT24     203      MECN     N3       NG1T1   -0.460000       14.0070           0
     70965 WT24     205      MECN     C1       CG331   -0.170000       12.0110           0
     70966 WT24     205      MECN     H11      HGA3     0.090000        1.0080           0
     70967 WT24     205      MECN     H12      HGA3     0.090000        1.0080           0
     70968 WT24     205      MECN     H13      HGA3     0.090000        1.0080           0
     70969 WT24     205      MECN     C2       CG1N1    0.360000       12.0110           0
     70970 WT24     205      MECN     N3       NG1T1   -0.460000       14.0070           0
     70971 WT24     210      MECN     C1       CG331   -0.170000       12.0110           0
     70972 WT24     210      MECN     H11      HGA3     0.090000        1.0080           0
     70973 WT24     210      MECN     H12      HGA3     0.090000        1.0080           0
     70974 WT24     210      MECN     H13      HGA3     0.090000        1.0080           0
     70975 WT24     210      MECN     C2       CG1N1    0.360000       12.0110           0
     70976 WT24     210      MECN     N3       NG1T1   -0.460000       14.0070           0
     70977 WT24     212      MECN     C1       CG331   -0.170000       12.0110           0
     70978 WT24     212      MECN     H11      HGA3     0.090000        1.0080           0
     70979 WT24     212      MECN     H12      HGA3     0.090000        1.0080           0
     70980 WT24     212      MECN     H13      HGA3     0.090000        1.0080           0
     70981 WT24     212      MECN     C2       CG1N1    0.360000       12.0110           0
     70982 WT24     212      MECN     N3       NG1T1   -0.460000       14.0070           0
     70983 WT24     217      MECN     C1       CG331   -0.170000       12.0110           0
     70984 WT24     217      MECN     H11      HGA3     0.090000        1.0080           0
     70985 WT24     217      MECN     H12      HGA3     0.090000        1.0080           0
     70986 WT24     217      MECN     H13      HGA3     0.090000        1.0080           0
     70987 WT24     217      MECN     C2       CG1N1    0.360000       12.0110           0
     70988 WT24     217      MECN     N3       NG1T1   -0.460000       14.0070           0
     70989 WT24     218      MECN     C1       CG331   -0.170000       12.0110           0
     70990 WT24     218      MECN     H11      HGA3     0.090000        1.0080           0
     70991 WT24     218      MECN     H12      HGA3     0.090000        1.0080           0
     70992 WT24     218      MECN     H13      HGA3     0.090000        1.0080           0
     70993 WT24     218      MECN     C2       CG1N1    0.360000       12.0110           0
     70994 WT24     218      MECN     N3       NG1T1   -0.460000       14.0070           0
     70995 WT24     223      MECN     C1       CG331   -0.170000       12.0110           0
     70996 WT24     223      MECN     H11      HGA3     0.090000        1.0080           0
     70997 WT24     223      MECN     H12      HGA3     0.090000        1.0080           0
     70998 WT24     223      MECN     H13      HGA3     0.090000        1.0080           0
     70999 WT24     223      MECN     C2       CG1N1    0.360000       12.0110           0
     71000 WT24     223      MECN     N3       NG1T1   -0.460000       14.0070           0
     71001 WT24     225      MECN     C1       CG331   -0.170000       12.0110           0
     71002 WT24     225      MECN     H11      HGA3     0.090000        1.0080           0
     71003 WT24     225      MECN     H12      HGA3     0.090000        1.0080           0
     71004 WT24     225      MECN     H13      HGA3     0.090000        1.0080           0
     71005 WT24     225      MECN     C2       CG1N1    0.360000       12.0110           0
     71006 WT24     225      MECN     N3       NG1T1   -0.460000       14.0070           0
     71007 WT24     229      MECN     C1       CG331   -0.170000       12.0110           0
     71008 WT24     229      MECN     H11      HGA3     0.090000        1.0080           0
     71009 WT24     229      MECN     H12      HGA3     0.090000        1.0080           0
     71010 WT24     229      MECN     H13      HGA3     0.090000        1.0080           0
     71011 WT24     229      MECN     C2       CG1N1    0.360000       12.0110           0
     71012 WT24     229      MECN     N3       NG1T1   -0.460000       14.0070           0
     71013 WT24     231      MECN     C1       CG331   -0.170000       12.0110           0
     71014 WT24     231      MECN     H11      HGA3     0.090000        1.0080           0
     71015 WT24     231      MECN     H12      HGA3     0.090000        1.0080           0
     71016 WT24     231      MECN     H13      HGA3     0.090000        1.0080           0
     71017 WT24     231      MECN     C2       CG1N1    0.360000       12.0110           0
     71018 WT24     231      MECN     N3       NG1T1   -0.460000       14.0070           0
     71019 WT24     232      MECN     C1       CG331   -0.170000       12.0110           0
     71020 WT24     232      MECN     H11      HGA3     0.090000        1.0080           0
     71021 WT24     232      MECN     H12      HGA3     0.090000        1.0080           0
     71022 WT24     232      MECN     H13      HGA3     0.090000        1.0080           0
     71023 WT24     232      MECN     C2       CG1N1    0.360000       12.0110           0
     71024 WT24     232      MECN     N3       NG1T1   -0.460000       14.0070           0
     71025 WT24     233      MECN     C1       CG331   -0.170000       12.0110           0
     71026 WT24     233      MECN     H11      HGA3     0.090000        1.0080           0
     71027 WT24     233      MECN     H12      HGA3     0.090000        1.0080           0
     71028 WT24     233      MECN     H13      HGA3     0.090000        1.0080           0
     71029 WT24     233      MECN     C2       CG1N1    0.360000       12.0110           0
     71030 WT24     233      MECN     N3       NG1T1   -0.460000       14.0070           0
     71031 WT24     235      MECN     C1       CG331   -0.170000       12.0110           0
     71032 WT24     235      MECN     H11      HGA3     0.090000        1.0080           0
     71033 WT24     235      MECN     H12      HGA3     0.090000        1.0080           0
     71034 WT24     235      MECN     H13      HGA3     0.090000        1.0080           0
     71035 WT24     235      MECN     C2       CG1N1    0.360000       12.0110           0
     71036 WT24     235      MECN     N3       NG1T1   -0.460000       14.0070           0
     71037 WT24     239      MECN     C1       CG331   -0.170000       12.0110           0
     71038 WT24     239      MECN     H11      HGA3     0.090000        1.0080           0
     71039 WT24     239      MECN     H12      HGA3     0.090000        1.0080           0
     71040 WT24     239      MECN     H13      HGA3     0.090000        1.0080           0
     71041 WT24     239      MECN     C2       CG1N1    0.360000       12.0110           0
     71042 WT24     239      MECN     N3       NG1T1   -0.460000       14.0070           0
     71043 WT24     243      MECN     C1       CG331   -0.170000       12.0110           0
     71044 WT24     243      MECN     H11      HGA3     0.090000        1.0080           0
     71045 WT24     243      MECN     H12      HGA3     0.090000        1.0080           0
     71046 WT24     243      MECN     H13      HGA3     0.090000        1.0080           0
     71047 WT24     243      MECN     C2       CG1N1    0.360000       12.0110           0
     71048 WT24     243      MECN     N3       NG1T1   -0.460000       14.0070           0
     71049 WT24     244      MECN     C1       CG331   -0.170000       12.0110           0
     71050 WT24     244      MECN     H11      HGA3     0.090000        1.0080           0
     71051 WT24     244      MECN     H12      HGA3     0.090000        1.0080           0
     71052 WT24     244      MECN     H13      HGA3     0.090000        1.0080           0
     71053 WT24     244      MECN     C2       CG1N1    0.360000       12.0110           0
     71054 WT24     244      MECN     N3       NG1T1   -0.460000       14.0070           0
     71055 WT24     246      MECN     C1       CG331   -0.170000       12.0110           0
     71056 WT24     246      MECN     H11      HGA3     0.090000        1.0080           0
     71057 WT24     246      MECN     H12      HGA3     0.090000        1.0080           0
     71058 WT24     246      MECN     H13      HGA3     0.090000        1.0080           0
     71059 WT24     246      MECN     C2       CG1N1    0.360000       12.0110           0
     71060 WT24     246      MECN     N3       NG1T1   -0.460000       14.0070           0
     71061 WT24     249      MECN     C1       CG331   -0.170000       12.0110           0
     71062 WT24     249      MECN     H11      HGA3     0.090000        1.0080           0
     71063 WT24     249      MECN     H12      HGA3     0.090000        1.0080           0
     71064 WT24     249      MECN     H13      HGA3     0.090000        1.0080           0
     71065 WT24     249      MECN     C2       CG1N1    0.360000       12.0110           0
     71066 WT24     249      MECN     N3       NG1T1   -0.460000       14.0070           0
     71067 WT24     250      MECN     C1       CG331   -0.170000       12.0110           0
     71068 WT24     250      MECN     H11      HGA3     0.090000        1.0080           0
     71069 WT24     250      MECN     H12      HGA3     0.090000        1.0080           0
     71070 WT24     250      MECN     H13      HGA3     0.090000        1.0080           0
     71071 WT24     250      MECN     C2       CG1N1    0.360000       12.0110           0
     71072 WT24     250      MECN     N3       NG1T1   -0.460000       14.0070           0
     71073 WT24     251      MECN     C1       CG331   -0.170000       12.0110           0
     71074 WT24     251      MECN     H11      HGA3     0.090000        1.0080           0
     71075 WT24     251      MECN     H12      HGA3     0.090000        1.0080           0
     71076 WT24     251      MECN     H13      HGA3     0.090000        1.0080           0
     71077 WT24     251      MECN     C2       CG1N1    0.360000       12.0110           0
     71078 WT24     251      MECN     N3       NG1T1   -0.460000       14.0070           0
     71079 WT24     252      MECN     C1       CG331   -0.170000       12.0110           0
     71080 WT24     252      MECN     H11      HGA3     0.090000        1.0080           0
     71081 WT24     252      MECN     H12      HGA3     0.090000        1.0080           0
     71082 WT24     252      MECN     H13      HGA3     0.090000        1.0080           0
     71083 WT24     252      MECN     C2       CG1N1    0.360000       12.0110           0
     71084 WT24     252      MECN     N3       NG1T1   -0.460000       14.0070           0
     71085 WT24     254      MECN     C1       CG331   -0.170000       12.0110           0
     71086 WT24     254      MECN     H11      HGA3     0.090000        1.0080           0
     71087 WT24     254      MECN     H12      HGA3     0.090000        1.0080           0
     71088 WT24     254      MECN     H13      HGA3     0.090000        1.0080           0
     71089 WT24     254      MECN     C2       CG1N1    0.360000       12.0110           0
     71090 WT24     254      MECN     N3       NG1T1   -0.460000       14.0070           0
     71091 WT24     255      MECN     C1       CG331   -0.170000       12.0110           0
     71092 WT24     255      MECN     H11      HGA3     0.090000        1.0080           0
     71093 WT24     255      MECN     H12      HGA3     0.090000        1.0080           0
     71094 WT24     255      MECN     H13      HGA3     0.090000        1.0080           0
     71095 WT24     255      MECN     C2       CG1N1    0.360000       12.0110           0
     71096 WT24     255      MECN     N3       NG1T1   -0.460000       14.0070           0
     71097 WT24     258      MECN     C1       CG331   -0.170000       12.0110           0
     71098 WT24     258      MECN     H11      HGA3     0.090000        1.0080           0
     71099 WT24     258      MECN     H12      HGA3     0.090000        1.0080           0
     71100 WT24     258      MECN     H13      HGA3     0.090000        1.0080           0
     71101 WT24     258      MECN     C2       CG1N1    0.360000       12.0110           0
     71102 WT24     258      MECN     N3       NG1T1   -0.460000       14.0070           0
     71103 WT24     262      MECN     C1       CG331   -0.170000       12.0110           0
     71104 WT24     262      MECN     H11      HGA3     0.090000        1.0080           0
     71105 WT24     262      MECN     H12      HGA3     0.090000        1.0080           0
     71106 WT24     262      MECN     H13      HGA3     0.090000        1.0080           0
     71107 WT24     262      MECN     C2       CG1N1    0.360000       12.0110           0
     71108 WT24     262      MECN     N3       NG1T1   -0.460000       14.0070           0
     71109 WT24     263      MECN     C1       CG331   -0.170000       12.0110           0
     71110 WT24     263      MECN     H11      HGA3     0.090000        1.0080           0
     71111 WT24     263      MECN     H12      HGA3     0.090000        1.0080           0
     71112 WT24     263      MECN     H13      HGA3     0.090000        1.0080           0
     71113 WT24     263      MECN     C2       CG1N1    0.360000       12.0110           0
     71114 WT24     263      MECN     N3       NG1T1   -0.460000       14.0070           0
     71115 WT24     264      MECN     C1       CG331   -0.170000       12.0110           0
     71116 WT24     264      MECN     H11      HGA3     0.090000        1.0080           0
     71117 WT24     264      MECN     H12      HGA3     0.090000        1.0080           0
     71118 WT24     264      MECN     H13      HGA3     0.090000        1.0080           0
     71119 WT24     264      MECN     C2       CG1N1    0.360000       12.0110           0
     71120 WT24     264      MECN     N3       NG1T1   -0.460000       14.0070           0
     71121 WT24     265      MECN     C1       CG331   -0.170000       12.0110           0
     71122 WT24     265      MECN     H11      HGA3     0.090000        1.0080           0
     71123 WT24     265      MECN     H12      HGA3     0.090000        1.0080           0
     71124 WT24     265      MECN     H13      HGA3     0.090000        1.0080           0
     71125 WT24     265      MECN     C2       CG1N1    0.360000       12.0110           0
     71126 WT24     265      MECN     N3       NG1T1   -0.460000       14.0070           0
     71127 WT24     269      MECN     C1       CG331   -0.170000       12.0110           0
     71128 WT24     269      MECN     H11      HGA3     0.090000        1.0080           0
     71129 WT24     269      MECN     H12      HGA3     0.090000        1.0080           0
     71130 WT24     269      MECN     H13      HGA3     0.090000        1.0080           0
     71131 WT24     269      MECN     C2       CG1N1    0.360000       12.0110           0
     71132 WT24     269      MECN     N3       NG1T1   -0.460000       14.0070           0
     71133 WT24     275      MECN     C1       CG331   -0.170000       12.0110           0
     71134 WT24     275      MECN     H11      HGA3     0.090000        1.0080           0
     71135 WT24     275      MECN     H12      HGA3     0.090000        1.0080           0
     71136 WT24     275      MECN     H13      HGA3     0.090000        1.0080           0
     71137 WT24     275      MECN     C2       CG1N1    0.360000       12.0110           0
     71138 WT24     275      MECN     N3       NG1T1   -0.460000       14.0070           0
     71139 WT24     276      MECN     C1       CG331   -0.170000       12.0110           0
     71140 WT24     276      MECN     H11      HGA3     0.090000        1.0080           0
     71141 WT24     276      MECN     H12      HGA3     0.090000        1.0080           0
     71142 WT24     276      MECN     H13      HGA3     0.090000        1.0080           0
     71143 WT24     276      MECN     C2       CG1N1    0.360000       12.0110           0
     71144 WT24     276      MECN     N3       NG1T1   -0.460000       14.0070           0
     71145 WT24     278      MECN     C1       CG331   -0.170000       12.0110           0
     71146 WT24     278      MECN     H11      HGA3     0.090000        1.0080           0
     71147 WT24     278      MECN     H12      HGA3     0.090000        1.0080           0
     71148 WT24     278      MECN     H13      HGA3     0.090000        1.0080           0
     71149 WT24     278      MECN     C2       CG1N1    0.360000       12.0110           0
     71150 WT24     278      MECN     N3       NG1T1   -0.460000       14.0070           0
     71151 WT24     279      MECN     C1       CG331   -0.170000       12.0110           0
     71152 WT24     279      MECN     H11      HGA3     0.090000        1.0080           0
     71153 WT24     279      MECN     H12      HGA3     0.090000        1.0080           0
     71154 WT24     279      MECN     H13      HGA3     0.090000        1.0080           0
     71155 WT24     279      MECN     C2       CG1N1    0.360000       12.0110           0
     71156 WT24     279      MECN     N3       NG1T1   -0.460000       14.0070           0
     71157 WT24     280      MECN     C1       CG331   -0.170000       12.0110           0
     71158 WT24     280      MECN     H11      HGA3     0.090000        1.0080           0
     71159 WT24     280      MECN     H12      HGA3     0.090000        1.0080           0
     71160 WT24     280      MECN     H13      HGA3     0.090000        1.0080           0
     71161 WT24     280      MECN     C2       CG1N1    0.360000       12.0110           0
     71162 WT24     280      MECN     N3       NG1T1   -0.460000       14.0070           0
     71163 WT24     281      MECN     C1       CG331   -0.170000       12.0110           0
     71164 WT24     281      MECN     H11      HGA3     0.090000        1.0080           0
     71165 WT24     281      MECN     H12      HGA3     0.090000        1.0080           0
     71166 WT24     281      MECN     H13      HGA3     0.090000        1.0080           0
     71167 WT24     281      MECN     C2       CG1N1    0.360000       12.0110           0
     71168 WT24     281      MECN     N3       NG1T1   -0.460000       14.0070           0
     71169 WT24     282      MECN     C1       CG331   -0.170000       12.0110           0
     71170 WT24     282      MECN     H11      HGA3     0.090000        1.0080           0
     71171 WT24     282      MECN     H12      HGA3     0.090000        1.0080           0
     71172 WT24     282      MECN     H13      HGA3     0.090000        1.0080           0
     71173 WT24     282      MECN     C2       CG1N1    0.360000       12.0110           0
     71174 WT24     282      MECN     N3       NG1T1   -0.460000       14.0070           0
     71175 WT24     283      MECN     C1       CG331   -0.170000       12.0110           0
     71176 WT24     283      MECN     H11      HGA3     0.090000        1.0080           0
     71177 WT24     283      MECN     H12      HGA3     0.090000        1.0080           0
     71178 WT24     283      MECN     H13      HGA3     0.090000        1.0080           0
     71179 WT24     283      MECN     C2       CG1N1    0.360000       12.0110           0
     71180 WT24     283      MECN     N3       NG1T1   -0.460000       14.0070           0
     71181 WT24     285      MECN     C1       CG331   -0.170000       12.0110           0
     71182 WT24     285      MECN     H11      HGA3     0.090000        1.0080           0
     71183 WT24     285      MECN     H12      HGA3     0.090000        1.0080           0
     71184 WT24     285      MECN     H13      HGA3     0.090000        1.0080           0
     71185 WT24     285      MECN     C2       CG1N1    0.360000       12.0110           0
     71186 WT24     285      MECN     N3       NG1T1   -0.460000       14.0070           0
     71187 WT24     286      MECN     C1       CG331   -0.170000       12.0110           0
     71188 WT24     286      MECN     H11      HGA3     0.090000        1.0080           0
     71189 WT24     286      MECN     H12      HGA3     0.090000        1.0080           0
     71190 WT24     286      MECN     H13      HGA3     0.090000        1.0080           0
     71191 WT24     286      MECN     C2       CG1N1    0.360000       12.0110           0
     71192 WT24     286      MECN     N3       NG1T1   -0.460000       14.0070           0
     71193 WT24     288      MECN     C1       CG331   -0.170000       12.0110           0
     71194 WT24     288      MECN     H11      HGA3     0.090000        1.0080           0
     71195 WT24     288      MECN     H12      HGA3     0.090000        1.0080           0
     71196 WT24     288      MECN     H13      HGA3     0.090000        1.0080           0
     71197 WT24     288      MECN     C2       CG1N1    0.360000       12.0110           0
     71198 WT24     288      MECN     N3       NG1T1   -0.460000       14.0070           0
     71199 WT24     290      MECN     C1       CG331   -0.170000       12.0110           0
     71200 WT24     290      MECN     H11      HGA3     0.090000        1.0080           0
     71201 WT24     290      MECN     H12      HGA3     0.090000        1.0080           0
     71202 WT24     290      MECN     H13      HGA3     0.090000        1.0080           0
     71203 WT24     290      MECN     C2       CG1N1    0.360000       12.0110           0
     71204 WT24     290      MECN     N3       NG1T1   -0.460000       14.0070           0
     71205 WT24     294      MECN     C1       CG331   -0.170000       12.0110           0
     71206 WT24     294      MECN     H11      HGA3     0.090000        1.0080           0
     71207 WT24     294      MECN     H12      HGA3     0.090000        1.0080           0
     71208 WT24     294      MECN     H13      HGA3     0.090000        1.0080           0
     71209 WT24     294      MECN     C2       CG1N1    0.360000       12.0110           0
     71210 WT24     294      MECN     N3       NG1T1   -0.460000       14.0070           0
     71211 WT24     295      MECN     C1       CG331   -0.170000       12.0110           0
     71212 WT24     295      MECN     H11      HGA3     0.090000        1.0080           0
     71213 WT24     295      MECN     H12      HGA3     0.090000        1.0080           0
     71214 WT24     295      MECN     H13      HGA3     0.090000        1.0080           0
     71215 WT24     295      MECN     C2       CG1N1    0.360000       12.0110           0
     71216 WT24     295      MECN     N3       NG1T1   -0.460000       14.0070           0
     71217 WT24     301      MECN     C1       CG331   -0.170000       12.0110           0
     71218 WT24     301      MECN     H11      HGA3     0.090000        1.0080           0
     71219 WT24     301      MECN     H12      HGA3     0.090000        1.0080           0
     71220 WT24     301      MECN     H13      HGA3     0.090000        1.0080           0
     71221 WT24     301      MECN     C2       CG1N1    0.360000       12.0110           0
     71222 WT24     301      MECN     N3       NG1T1   -0.460000       14.0070           0
     71223 WT24     302      MECN     C1       CG331   -0.170000       12.0110           0
     71224 WT24     302      MECN     H11      HGA3     0.090000        1.0080           0
     71225 WT24     302      MECN     H12      HGA3     0.090000        1.0080           0
     71226 WT24     302      MECN     H13      HGA3     0.090000        1.0080           0
     71227 WT24     302      MECN     C2       CG1N1    0.360000       12.0110           0
     71228 WT24     302      MECN     N3       NG1T1   -0.460000       14.0070           0
     71229 WT24     303      MECN     C1       CG331   -0.170000       12.0110           0
     71230 WT24     303      MECN     H11      HGA3     0.090000        1.0080           0
     71231 WT24     303      MECN     H12      HGA3     0.090000        1.0080           0
     71232 WT24     303      MECN     H13      HGA3     0.090000        1.0080           0
     71233 WT24     303      MECN     C2       CG1N1    0.360000       12.0110           0
     71234 WT24     303      MECN     N3       NG1T1   -0.460000       14.0070           0
     71235 WT24     304      MECN     C1       CG331   -0.170000       12.0110           0
     71236 WT24     304      MECN     H11      HGA3     0.090000        1.0080           0
     71237 WT24     304      MECN     H12      HGA3     0.090000        1.0080           0
     71238 WT24     304      MECN     H13      HGA3     0.090000        1.0080           0
     71239 WT24     304      MECN     C2       CG1N1    0.360000       12.0110           0
     71240 WT24     304      MECN     N3       NG1T1   -0.460000       14.0070           0
     71241 WT24     305      MECN     C1       CG331   -0.170000       12.0110           0
     71242 WT24     305      MECN     H11      HGA3     0.090000        1.0080           0
     71243 WT24     305      MECN     H12      HGA3     0.090000        1.0080           0
     71244 WT24     305      MECN     H13      HGA3     0.090000        1.0080           0
     71245 WT24     305      MECN     C2       CG1N1    0.360000       12.0110           0
     71246 WT24     305      MECN     N3       NG1T1   -0.460000       14.0070           0
     71247 WT24     307      MECN     C1       CG331   -0.170000       12.0110           0
     71248 WT24     307      MECN     H11      HGA3     0.090000        1.0080           0
     71249 WT24     307      MECN     H12      HGA3     0.090000        1.0080           0
     71250 WT24     307      MECN     H13      HGA3     0.090000        1.0080           0
     71251 WT24     307      MECN     C2       CG1N1    0.360000       12.0110           0
     71252 WT24     307      MECN     N3       NG1T1   -0.460000       14.0070           0
     71253 WT24     308      MECN     C1       CG331   -0.170000       12.0110           0
     71254 WT24     308      MECN     H11      HGA3     0.090000        1.0080           0
     71255 WT24     308      MECN     H12      HGA3     0.090000        1.0080           0
     71256 WT24     308      MECN     H13      HGA3     0.090000        1.0080           0
     71257 WT24     308      MECN     C2       CG1N1    0.360000       12.0110           0
     71258 WT24     308      MECN     N3       NG1T1   -0.460000       14.0070           0
     71259 WT24     309      MECN     C1       CG331   -0.170000       12.0110           0
     71260 WT24     309      MECN     H11      HGA3     0.090000        1.0080           0
     71261 WT24     309      MECN     H12      HGA3     0.090000        1.0080           0
     71262 WT24     309      MECN     H13      HGA3     0.090000        1.0080           0
     71263 WT24     309      MECN     C2       CG1N1    0.360000       12.0110           0
     71264 WT24     309      MECN     N3       NG1T1   -0.460000       14.0070           0
     71265 WT24     311      MECN     C1       CG331   -0.170000       12.0110           0
     71266 WT24     311      MECN     H11      HGA3     0.090000        1.0080           0
     71267 WT24     311      MECN     H12      HGA3     0.090000        1.0080           0
     71268 WT24     311      MECN     H13      HGA3     0.090000        1.0080           0
     71269 WT24     311      MECN     C2       CG1N1    0.360000       12.0110           0
     71270 WT24     311      MECN     N3       NG1T1   -0.460000       14.0070           0
     71271 WT24     314      MECN     C1       CG331   -0.170000       12.0110           0
     71272 WT24     314      MECN     H11      HGA3     0.090000        1.0080           0
     71273 WT24     314      MECN     H12      HGA3     0.090000        1.0080           0
     71274 WT24     314      MECN     H13      HGA3     0.090000        1.0080           0
     71275 WT24     314      MECN     C2       CG1N1    0.360000       12.0110           0
     71276 WT24     314      MECN     N3       NG1T1   -0.460000       14.0070           0
     71277 WT24     316      MECN     C1       CG331   -0.170000       12.0110           0
     71278 WT24     316      MECN     H11      HGA3     0.090000        1.0080           0
     71279 WT24     316      MECN     H12      HGA3     0.090000        1.0080           0
     71280 WT24     316      MECN     H13      HGA3     0.090000        1.0080           0
     71281 WT24     316      MECN     C2       CG1N1    0.360000       12.0110           0
     71282 WT24     316      MECN     N3       NG1T1   -0.460000       14.0070           0
     71283 WT24     318      MECN     C1       CG331   -0.170000       12.0110           0
     71284 WT24     318      MECN     H11      HGA3     0.090000        1.0080           0
     71285 WT24     318      MECN     H12      HGA3     0.090000        1.0080           0
     71286 WT24     318      MECN     H13      HGA3     0.090000        1.0080           0
     71287 WT24     318      MECN     C2       CG1N1    0.360000       12.0110           0
     71288 WT24     318      MECN     N3       NG1T1   -0.460000       14.0070           0
     71289 WT24     319      MECN     C1       CG331   -0.170000       12.0110           0
     71290 WT24     319      MECN     H11      HGA3     0.090000        1.0080           0
     71291 WT24     319      MECN     H12      HGA3     0.090000        1.0080           0
     71292 WT24     319      MECN     H13      HGA3     0.090000        1.0080           0
     71293 WT24     319      MECN     C2       CG1N1    0.360000       12.0110           0
     71294 WT24     319      MECN     N3       NG1T1   -0.460000       14.0070           0
     71295 WT24     320      MECN     C1       CG331   -0.170000       12.0110           0
     71296 WT24     320      MECN     H11      HGA3     0.090000        1.0080           0
     71297 WT24     320      MECN     H12      HGA3     0.090000        1.0080           0
     71298 WT24     320      MECN     H13      HGA3     0.090000        1.0080           0
     71299 WT24     320      MECN     C2       CG1N1    0.360000       12.0110           0
     71300 WT24     320      MECN     N3       NG1T1   -0.460000       14.0070           0
     71301 WT24     329      MECN     C1       CG331   -0.170000       12.0110           0
     71302 WT24     329      MECN     H11      HGA3     0.090000        1.0080           0
     71303 WT24     329      MECN     H12      HGA3     0.090000        1.0080           0
     71304 WT24     329      MECN     H13      HGA3     0.090000        1.0080           0
     71305 WT24     329      MECN     C2       CG1N1    0.360000       12.0110           0
     71306 WT24     329      MECN     N3       NG1T1   -0.460000       14.0070           0
     71307 WT24     330      MECN     C1       CG331   -0.170000       12.0110           0
     71308 WT24     330      MECN     H11      HGA3     0.090000        1.0080           0
     71309 WT24     330      MECN     H12      HGA3     0.090000        1.0080           0
     71310 WT24     330      MECN     H13      HGA3     0.090000        1.0080           0
     71311 WT24     330      MECN     C2       CG1N1    0.360000       12.0110           0
     71312 WT24     330      MECN     N3       NG1T1   -0.460000       14.0070           0
     71313 WT24     331      MECN     C1       CG331   -0.170000       12.0110           0
     71314 WT24     331      MECN     H11      HGA3     0.090000        1.0080           0
     71315 WT24     331      MECN     H12      HGA3     0.090000        1.0080           0
     71316 WT24     331      MECN     H13      HGA3     0.090000        1.0080           0
     71317 WT24     331      MECN     C2       CG1N1    0.360000       12.0110           0
     71318 WT24     331      MECN     N3       NG1T1   -0.460000       14.0070           0
     71319 WT24     334      MECN     C1       CG331   -0.170000       12.0110           0
     71320 WT24     334      MECN     H11      HGA3     0.090000        1.0080           0
     71321 WT24     334      MECN     H12      HGA3     0.090000        1.0080           0
     71322 WT24     334      MECN     H13      HGA3     0.090000        1.0080           0
     71323 WT24     334      MECN     C2       CG1N1    0.360000       12.0110           0
     71324 WT24     334      MECN     N3       NG1T1   -0.460000       14.0070           0
     71325 WT24     341      MECN     C1       CG331   -0.170000       12.0110           0
     71326 WT24     341      MECN     H11      HGA3     0.090000        1.0080           0
     71327 WT24     341      MECN     H12      HGA3     0.090000        1.0080           0
     71328 WT24     341      MECN     H13      HGA3     0.090000        1.0080           0
     71329 WT24     341      MECN     C2       CG1N1    0.360000       12.0110           0
     71330 WT24     341      MECN     N3       NG1T1   -0.460000       14.0070           0
     71331 WT24     343      MECN     C1       CG331   -0.170000       12.0110           0
     71332 WT24     343      MECN     H11      HGA3     0.090000        1.0080           0
     71333 WT24     343      MECN     H12      HGA3     0.090000        1.0080           0
     71334 WT24     343      MECN     H13      HGA3     0.090000        1.0080           0
     71335 WT24     343      MECN     C2       CG1N1    0.360000       12.0110           0
     71336 WT24     343      MECN     N3       NG1T1   -0.460000       14.0070           0
     71337 WT24     345      MECN     C1       CG331   -0.170000       12.0110           0
     71338 WT24     345      MECN     H11      HGA3     0.090000        1.0080           0
     71339 WT24     345      MECN     H12      HGA3     0.090000        1.0080           0
     71340 WT24     345      MECN     H13      HGA3     0.090000        1.0080           0
     71341 WT24     345      MECN     C2       CG1N1    0.360000       12.0110           0
     71342 WT24     345      MECN     N3       NG1T1   -0.460000       14.0070           0
     71343 WT24     346      MECN     C1       CG331   -0.170000       12.0110           0
     71344 WT24     346      MECN     H11      HGA3     0.090000        1.0080           0
     71345 WT24     346      MECN     H12      HGA3     0.090000        1.0080           0
     71346 WT24     346      MECN     H13      HGA3     0.090000        1.0080           0
     71347 WT24     346      MECN     C2       CG1N1    0.360000       12.0110           0
     71348 WT24     346      MECN     N3       NG1T1   -0.460000       14.0070           0
     71349 WT24     347      MECN     C1       CG331   -0.170000       12.0110           0
     71350 WT24     347      MECN     H11      HGA3     0.090000        1.0080           0
     71351 WT24     347      MECN     H12      HGA3     0.090000        1.0080           0
     71352 WT24     347      MECN     H13      HGA3     0.090000        1.0080           0
     71353 WT24     347      MECN     C2       CG1N1    0.360000       12.0110           0
     71354 WT24     347      MECN     N3       NG1T1   -0.460000       14.0070           0
     71355 WT24     350      MECN     C1       CG331   -0.170000       12.0110           0
     71356 WT24     350      MECN     H11      HGA3     0.090000        1.0080           0
     71357 WT24     350      MECN     H12      HGA3     0.090000        1.0080           0
     71358 WT24     350      MECN     H13      HGA3     0.090000        1.0080           0
     71359 WT24     350      MECN     C2       CG1N1    0.360000       12.0110           0
     71360 WT24     350      MECN     N3       NG1T1   -0.460000       14.0070           0
     71361 WT24     351      MECN     C1       CG331   -0.170000       12.0110           0
     71362 WT24     351      MECN     H11      HGA3     0.090000        1.0080           0
     71363 WT24     351      MECN     H12      HGA3     0.090000        1.0080           0
     71364 WT24     351      MECN     H13      HGA3     0.090000        1.0080           0
     71365 WT24     351      MECN     C2       CG1N1    0.360000       12.0110           0
     71366 WT24     351      MECN     N3       NG1T1   -0.460000       14.0070           0
     71367 WT24     353      MECN     C1       CG331   -0.170000       12.0110           0
     71368 WT24     353      MECN     H11      HGA3     0.090000        1.0080           0
     71369 WT24     353      MECN     H12      HGA3     0.090000        1.0080           0
     71370 WT24     353      MECN     H13      HGA3     0.090000        1.0080           0
     71371 WT24     353      MECN     C2       CG1N1    0.360000       12.0110           0
     71372 WT24     353      MECN     N3       NG1T1   -0.460000       14.0070           0
     71373 WT24     355      MECN     C1       CG331   -0.170000       12.0110           0
     71374 WT24     355      MECN     H11      HGA3     0.090000        1.0080           0
     71375 WT24     355      MECN     H12      HGA3     0.090000        1.0080           0
     71376 WT24     355      MECN     H13      HGA3     0.090000        1.0080           0
     71377 WT24     355      MECN     C2       CG1N1    0.360000       12.0110           0
     71378 WT24     355      MECN     N3       NG1T1   -0.460000       14.0070           0
     71379 WT24     358      MECN     C1       CG331   -0.170000       12.0110           0
     71380 WT24     358      MECN     H11      HGA3     0.090000        1.0080           0
     71381 WT24     358      MECN     H12      HGA3     0.090000        1.0080           0
     71382 WT24     358      MECN     H13      HGA3     0.090000        1.0080           0
     71383 WT24     358      MECN     C2       CG1N1    0.360000       12.0110           0
     71384 WT24     358      MECN     N3       NG1T1   -0.460000       14.0070           0
     71385 WT24     359      MECN     C1       CG331   -0.170000       12.0110           0
     71386 WT24     359      MECN     H11      HGA3     0.090000        1.0080           0
     71387 WT24     359      MECN     H12      HGA3     0.090000        1.0080           0
     71388 WT24     359      MECN     H13      HGA3     0.090000        1.0080           0
     71389 WT24     359      MECN     C2       CG1N1    0.360000       12.0110           0
     71390 WT24     359      MECN     N3       NG1T1   -0.460000       14.0070           0
     71391 WT24     362      MECN     C1       CG331   -0.170000       12.0110           0
     71392 WT24     362      MECN     H11      HGA3     0.090000        1.0080           0
     71393 WT24     362      MECN     H12      HGA3     0.090000        1.0080           0
     71394 WT24     362      MECN     H13      HGA3     0.090000        1.0080           0
     71395 WT24     362      MECN     C2       CG1N1    0.360000       12.0110           0
     71396 WT24     362      MECN     N3       NG1T1   -0.460000       14.0070           0
     71397 WT24     363      MECN     C1       CG331   -0.170000       12.0110           0
     71398 WT24     363      MECN     H11      HGA3     0.090000        1.0080           0
     71399 WT24     363      MECN     H12      HGA3     0.090000        1.0080           0
     71400 WT24     363      MECN     H13      HGA3     0.090000        1.0080           0
     71401 WT24     363      MECN     C2       CG1N1    0.360000       12.0110           0
     71402 WT24     363      MECN     N3       NG1T1   -0.460000       14.0070           0
     71403 WT24     364      MECN     C1       CG331   -0.170000       12.0110           0
     71404 WT24     364      MECN     H11      HGA3     0.090000        1.0080           0
     71405 WT24     364      MECN     H12      HGA3     0.090000        1.0080           0
     71406 WT24     364      MECN     H13      HGA3     0.090000        1.0080           0
     71407 WT24     364      MECN     C2       CG1N1    0.360000       12.0110           0
     71408 WT24     364      MECN     N3       NG1T1   -0.460000       14.0070           0
     71409 WT24     365      MECN     C1       CG331   -0.170000       12.0110           0
     71410 WT24     365      MECN     H11      HGA3     0.090000        1.0080           0
     71411 WT24     365      MECN     H12      HGA3     0.090000        1.0080           0
     71412 WT24     365      MECN     H13      HGA3     0.090000        1.0080           0
     71413 WT24     365      MECN     C2       CG1N1    0.360000       12.0110           0
     71414 WT24     365      MECN     N3       NG1T1   -0.460000       14.0070           0
     71415 WT24     369      MECN     C1       CG331   -0.170000       12.0110           0
     71416 WT24     369      MECN     H11      HGA3     0.090000        1.0080           0
     71417 WT24     369      MECN     H12      HGA3     0.090000        1.0080           0
     71418 WT24     369      MECN     H13      HGA3     0.090000        1.0080           0
     71419 WT24     369      MECN     C2       CG1N1    0.360000       12.0110           0
     71420 WT24     369      MECN     N3       NG1T1   -0.460000       14.0070           0
     71421 WT24     373      MECN     C1       CG331   -0.170000       12.0110           0
     71422 WT24     373      MECN     H11      HGA3     0.090000        1.0080           0
     71423 WT24     373      MECN     H12      HGA3     0.090000        1.0080           0
     71424 WT24     373      MECN     H13      HGA3     0.090000        1.0080           0
     71425 WT24     373      MECN     C2       CG1N1    0.360000       12.0110           0
     71426 WT24     373      MECN     N3       NG1T1   -0.460000       14.0070           0
     71427 WT24     375      MECN     C1       CG331   -0.170000       12.0110           0
     71428 WT24     375      MECN     H11      HGA3     0.090000        1.0080           0
     71429 WT24     375      MECN     H12      HGA3     0.090000        1.0080           0
     71430 WT24     375      MECN     H13      HGA3     0.090000        1.0080           0
     71431 WT24     375      MECN     C2       CG1N1    0.360000       12.0110           0
     71432 WT24     375      MECN     N3       NG1T1   -0.460000       14.0070           0
     71433 WT24     376      MECN     C1       CG331   -0.170000       12.0110           0
     71434 WT24     376      MECN     H11      HGA3     0.090000        1.0080           0
     71435 WT24     376      MECN     H12      HGA3     0.090000        1.0080           0
     71436 WT24     376      MECN     H13      HGA3     0.090000        1.0080           0
     71437 WT24     376      MECN     C2       CG1N1    0.360000       12.0110           0
     71438 WT24     376      MECN     N3       NG1T1   -0.460000       14.0070           0
     71439 WT24     377      MECN     C1       CG331   -0.170000       12.0110           0
     71440 WT24     377      MECN     H11      HGA3     0.090000        1.0080           0
     71441 WT24     377      MECN     H12      HGA3     0.090000        1.0080           0
     71442 WT24     377      MECN     H13      HGA3     0.090000        1.0080           0
     71443 WT24     377      MECN     C2       CG1N1    0.360000       12.0110           0
     71444 WT24     377      MECN     N3       NG1T1   -0.460000       14.0070           0
     71445 WT24     380      MECN     C1       CG331   -0.170000       12.0110           0
     71446 WT24     380      MECN     H11      HGA3     0.090000        1.0080           0
     71447 WT24     380      MECN     H12      HGA3     0.090000        1.0080           0
     71448 WT24     380      MECN     H13      HGA3     0.090000        1.0080           0
     71449 WT24     380      MECN     C2       CG1N1    0.360000       12.0110           0
     71450 WT24     380      MECN     N3       NG1T1   -0.460000       14.0070           0
     71451 WT24     385      MECN     C1       CG331   -0.170000       12.0110           0
     71452 WT24     385      MECN     H11      HGA3     0.090000        1.0080           0
     71453 WT24     385      MECN     H12      HGA3     0.090000        1.0080           0
     71454 WT24     385      MECN     H13      HGA3     0.090000        1.0080           0
     71455 WT24     385      MECN     C2       CG1N1    0.360000       12.0110           0
     71456 WT24     385      MECN     N3       NG1T1   -0.460000       14.0070           0
     71457 WT24     389      MECN     C1       CG331   -0.170000       12.0110           0
     71458 WT24     389      MECN     H11      HGA3     0.090000        1.0080           0
     71459 WT24     389      MECN     H12      HGA3     0.090000        1.0080           0
     71460 WT24     389      MECN     H13      HGA3     0.090000        1.0080           0
     71461 WT24     389      MECN     C2       CG1N1    0.360000       12.0110           0
     71462 WT24     389      MECN     N3       NG1T1   -0.460000       14.0070           0
     71463 WT24     391      MECN     C1       CG331   -0.170000       12.0110           0
     71464 WT24     391      MECN     H11      HGA3     0.090000        1.0080           0
     71465 WT24     391      MECN     H12      HGA3     0.090000        1.0080           0
     71466 WT24     391      MECN     H13      HGA3     0.090000        1.0080           0
     71467 WT24     391      MECN     C2       CG1N1    0.360000       12.0110           0
     71468 WT24     391      MECN     N3       NG1T1   -0.460000       14.0070           0
     71469 WT24     393      MECN     C1       CG331   -0.170000       12.0110           0
     71470 WT24     393      MECN     H11      HGA3     0.090000        1.0080           0
     71471 WT24     393      MECN     H12      HGA3     0.090000        1.0080           0
     71472 WT24     393      MECN     H13      HGA3     0.090000        1.0080           0
     71473 WT24     393      MECN     C2       CG1N1    0.360000       12.0110           0
     71474 WT24     393      MECN     N3       NG1T1   -0.460000       14.0070           0
     71475 WT24     394      MECN     C1       CG331   -0.170000       12.0110           0
     71476 WT24     394      MECN     H11      HGA3     0.090000        1.0080           0
     71477 WT24     394      MECN     H12      HGA3     0.090000        1.0080           0
     71478 WT24     394      MECN     H13      HGA3     0.090000        1.0080           0
     71479 WT24     394      MECN     C2       CG1N1    0.360000       12.0110           0
     71480 WT24     394      MECN     N3       NG1T1   -0.460000       14.0070           0
     71481 WT24     395      MECN     C1       CG331   -0.170000       12.0110           0
     71482 WT24     395      MECN     H11      HGA3     0.090000        1.0080           0
     71483 WT24     395      MECN     H12      HGA3     0.090000        1.0080           0
     71484 WT24     395      MECN     H13      HGA3     0.090000        1.0080           0
     71485 WT24     395      MECN     C2       CG1N1    0.360000       12.0110           0
     71486 WT24     395      MECN     N3       NG1T1   -0.460000       14.0070           0
     71487 WT24     399      MECN     C1       CG331   -0.170000       12.0110           0
     71488 WT24     399      MECN     H11      HGA3     0.090000        1.0080           0
     71489 WT24     399      MECN     H12      HGA3     0.090000        1.0080           0
     71490 WT24     399      MECN     H13      HGA3     0.090000        1.0080           0
     71491 WT24     399      MECN     C2       CG1N1    0.360000       12.0110           0
     71492 WT24     399      MECN     N3       NG1T1   -0.460000       14.0070           0
     71493 WT24     401      MECN     C1       CG331   -0.170000       12.0110           0
     71494 WT24     401      MECN     H11      HGA3     0.090000        1.0080           0
     71495 WT24     401      MECN     H12      HGA3     0.090000        1.0080           0
     71496 WT24     401      MECN     H13      HGA3     0.090000        1.0080           0
     71497 WT24     401      MECN     C2       CG1N1    0.360000       12.0110           0
     71498 WT24     401      MECN     N3       NG1T1   -0.460000       14.0070           0
     71499 WT24     405      MECN     C1       CG331   -0.170000       12.0110           0
     71500 WT24     405      MECN     H11      HGA3     0.090000        1.0080           0
     71501 WT24     405      MECN     H12      HGA3     0.090000        1.0080           0
     71502 WT24     405      MECN     H13      HGA3     0.090000        1.0080           0
     71503 WT24     405      MECN     C2       CG1N1    0.360000       12.0110           0
     71504 WT24     405      MECN     N3       NG1T1   -0.460000       14.0070           0
     71505 WT24     406      MECN     C1       CG331   -0.170000       12.0110           0
     71506 WT24     406      MECN     H11      HGA3     0.090000        1.0080           0
     71507 WT24     406      MECN     H12      HGA3     0.090000        1.0080           0
     71508 WT24     406      MECN     H13      HGA3     0.090000        1.0080           0
     71509 WT24     406      MECN     C2       CG1N1    0.360000       12.0110           0
     71510 WT24     406      MECN     N3       NG1T1   -0.460000       14.0070           0
     71511 WT24     407      MECN     C1       CG331   -0.170000       12.0110           0
     71512 WT24     407      MECN     H11      HGA3     0.090000        1.0080           0
     71513 WT24     407      MECN     H12      HGA3     0.090000        1.0080           0
     71514 WT24     407      MECN     H13      HGA3     0.090000        1.0080           0
     71515 WT24     407      MECN     C2       CG1N1    0.360000       12.0110           0
     71516 WT24     407      MECN     N3       NG1T1   -0.460000       14.0070           0
     71517 WT24     409      MECN     C1       CG331   -0.170000       12.0110           0
     71518 WT24     409      MECN     H11      HGA3     0.090000        1.0080           0
     71519 WT24     409      MECN     H12      HGA3     0.090000        1.0080           0
     71520 WT24     409      MECN     H13      HGA3     0.090000        1.0080           0
     71521 WT24     409      MECN     C2       CG1N1    0.360000       12.0110           0
     71522 WT24     409      MECN     N3       NG1T1   -0.460000       14.0070           0
     71523 WT24     410      MECN     C1       CG331   -0.170000       12.0110           0
     71524 WT24     410      MECN     H11      HGA3     0.090000        1.0080           0
     71525 WT24     410      MECN     H12      HGA3     0.090000        1.0080           0
     71526 WT24     410      MECN     H13      HGA3     0.090000        1.0080           0
     71527 WT24     410      MECN     C2       CG1N1    0.360000       12.0110           0
     71528 WT24     410      MECN     N3       NG1T1   -0.460000       14.0070           0
     71529 WT24     411      MECN     C1       CG331   -0.170000       12.0110           0
     71530 WT24     411      MECN     H11      HGA3     0.090000        1.0080           0
     71531 WT24     411      MECN     H12      HGA3     0.090000        1.0080           0
     71532 WT24     411      MECN     H13      HGA3     0.090000        1.0080           0
     71533 WT24     411      MECN     C2       CG1N1    0.360000       12.0110           0
     71534 WT24     411      MECN     N3       NG1T1   -0.460000       14.0070           0
     71535 WT24     413      MECN     C1       CG331   -0.170000       12.0110           0
     71536 WT24     413      MECN     H11      HGA3     0.090000        1.0080           0
     71537 WT24     413      MECN     H12      HGA3     0.090000        1.0080           0
     71538 WT24     413      MECN     H13      HGA3     0.090000        1.0080           0
     71539 WT24     413      MECN     C2       CG1N1    0.360000       12.0110           0
     71540 WT24     413      MECN     N3       NG1T1   -0.460000       14.0070           0
     71541 WT24     414      MECN     C1       CG331   -0.170000       12.0110           0
     71542 WT24     414      MECN     H11      HGA3     0.090000        1.0080           0
     71543 WT24     414      MECN     H12      HGA3     0.090000        1.0080           0
     71544 WT24     414      MECN     H13      HGA3     0.090000        1.0080           0
     71545 WT24     414      MECN     C2       CG1N1    0.360000       12.0110           0
     71546 WT24     414      MECN     N3       NG1T1   -0.460000       14.0070           0
     71547 WT24     417      MECN     C1       CG331   -0.170000       12.0110           0
     71548 WT24     417      MECN     H11      HGA3     0.090000        1.0080           0
     71549 WT24     417      MECN     H12      HGA3     0.090000        1.0080           0
     71550 WT24     417      MECN     H13      HGA3     0.090000        1.0080           0
     71551 WT24     417      MECN     C2       CG1N1    0.360000       12.0110           0
     71552 WT24     417      MECN     N3       NG1T1   -0.460000       14.0070           0
     71553 WT24     418      MECN     C1       CG331   -0.170000       12.0110           0
     71554 WT24     418      MECN     H11      HGA3     0.090000        1.0080           0
     71555 WT24     418      MECN     H12      HGA3     0.090000        1.0080           0
     71556 WT24     418      MECN     H13      HGA3     0.090000        1.0080           0
     71557 WT24     418      MECN     C2       CG1N1    0.360000       12.0110           0
     71558 WT24     418      MECN     N3       NG1T1   -0.460000       14.0070           0
     71559 WT24     419      MECN     C1       CG331   -0.170000       12.0110           0
     71560 WT24     419      MECN     H11      HGA3     0.090000        1.0080           0
     71561 WT24     419      MECN     H12      HGA3     0.090000        1.0080           0
     71562 WT24     419      MECN     H13      HGA3     0.090000        1.0080           0
     71563 WT24     419      MECN     C2       CG1N1    0.360000       12.0110           0
     71564 WT24     419      MECN     N3       NG1T1   -0.460000       14.0070           0
     71565 WT24     420      MECN     C1       CG331   -0.170000       12.0110           0
     71566 WT24     420      MECN     H11      HGA3     0.090000        1.0080           0
     71567 WT24     420      MECN     H12      HGA3     0.090000        1.0080           0
     71568 WT24     420      MECN     H13      HGA3     0.090000        1.0080           0
     71569 WT24     420      MECN     C2       CG1N1    0.360000       12.0110           0
     71570 WT24     420      MECN     N3       NG1T1   -0.460000       14.0070           0
     71571 WT24     422      MECN     C1       CG331   -0.170000       12.0110           0
     71572 WT24     422      MECN     H11      HGA3     0.090000        1.0080           0
     71573 WT24     422      MECN     H12      HGA3     0.090000        1.0080           0
     71574 WT24     422      MECN     H13      HGA3     0.090000        1.0080           0
     71575 WT24     422      MECN     C2       CG1N1    0.360000       12.0110           0
     71576 WT24     422      MECN     N3       NG1T1   -0.460000       14.0070           0
     71577 WT24     427      MECN     C1       CG331   -0.170000       12.0110           0
     71578 WT24     427      MECN     H11      HGA3     0.090000        1.0080           0
     71579 WT24     427      MECN     H12      HGA3     0.090000        1.0080           0
     71580 WT24     427      MECN     H13      HGA3     0.090000        1.0080           0
     71581 WT24     427      MECN     C2       CG1N1    0.360000       12.0110           0
     71582 WT24     427      MECN     N3       NG1T1   -0.460000       14.0070           0
     71583 WT24     429      MECN     C1       CG331   -0.170000       12.0110           0
     71584 WT24     429      MECN     H11      HGA3     0.090000        1.0080           0
     71585 WT24     429      MECN     H12      HGA3     0.090000        1.0080           0
     71586 WT24     429      MECN     H13      HGA3     0.090000        1.0080           0
     71587 WT24     429      MECN     C2       CG1N1    0.360000       12.0110           0
     71588 WT24     429      MECN     N3       NG1T1   -0.460000       14.0070           0
     71589 WT24     431      MECN     C1       CG331   -0.170000       12.0110           0
     71590 WT24     431      MECN     H11      HGA3     0.090000        1.0080           0
     71591 WT24     431      MECN     H12      HGA3     0.090000        1.0080           0
     71592 WT24     431      MECN     H13      HGA3     0.090000        1.0080           0
     71593 WT24     431      MECN     C2       CG1N1    0.360000       12.0110           0
     71594 WT24     431      MECN     N3       NG1T1   -0.460000       14.0070           0
     71595 WT24     433      MECN     C1       CG331   -0.170000       12.0110           0
     71596 WT24     433      MECN     H11      HGA3     0.090000        1.0080           0
     71597 WT24     433      MECN     H12      HGA3     0.090000        1.0080           0
     71598 WT24     433      MECN     H13      HGA3     0.090000        1.0080           0
     71599 WT24     433      MECN     C2       CG1N1    0.360000       12.0110           0
     71600 WT24     433      MECN     N3       NG1T1   -0.460000       14.0070           0
     71601 WT24     434      MECN     C1       CG331   -0.170000       12.0110           0
     71602 WT24     434      MECN     H11      HGA3     0.090000        1.0080           0
     71603 WT24     434      MECN     H12      HGA3     0.090000        1.0080           0
     71604 WT24     434      MECN     H13      HGA3     0.090000        1.0080           0
     71605 WT24     434      MECN     C2       CG1N1    0.360000       12.0110           0
     71606 WT24     434      MECN     N3       NG1T1   -0.460000       14.0070           0
     71607 WT24     435      MECN     C1       CG331   -0.170000       12.0110           0
     71608 WT24     435      MECN     H11      HGA3     0.090000        1.0080           0
     71609 WT24     435      MECN     H12      HGA3     0.090000        1.0080           0
     71610 WT24     435      MECN     H13      HGA3     0.090000        1.0080           0
     71611 WT24     435      MECN     C2       CG1N1    0.360000       12.0110           0
     71612 WT24     435      MECN     N3       NG1T1   -0.460000       14.0070           0
     71613 WT24     439      MECN     C1       CG331   -0.170000       12.0110           0
     71614 WT24     439      MECN     H11      HGA3     0.090000        1.0080           0
     71615 WT24     439      MECN     H12      HGA3     0.090000        1.0080           0
     71616 WT24     439      MECN     H13      HGA3     0.090000        1.0080           0
     71617 WT24     439      MECN     C2       CG1N1    0.360000       12.0110           0
     71618 WT24     439      MECN     N3       NG1T1   -0.460000       14.0070           0
     71619 WT24     441      MECN     C1       CG331   -0.170000       12.0110           0
     71620 WT24     441      MECN     H11      HGA3     0.090000        1.0080           0
     71621 WT24     441      MECN     H12      HGA3     0.090000        1.0080           0
     71622 WT24     441      MECN     H13      HGA3     0.090000        1.0080           0
     71623 WT24     441      MECN     C2       CG1N1    0.360000       12.0110           0
     71624 WT24     441      MECN     N3       NG1T1   -0.460000       14.0070           0
     71625 WT24     443      MECN     C1       CG331   -0.170000       12.0110           0
     71626 WT24     443      MECN     H11      HGA3     0.090000        1.0080           0
     71627 WT24     443      MECN     H12      HGA3     0.090000        1.0080           0
     71628 WT24     443      MECN     H13      HGA3     0.090000        1.0080           0
     71629 WT24     443      MECN     C2       CG1N1    0.360000       12.0110           0
     71630 WT24     443      MECN     N3       NG1T1   -0.460000       14.0070           0
     71631 WT24     445      MECN     C1       CG331   -0.170000       12.0110           0
     71632 WT24     445      MECN     H11      HGA3     0.090000        1.0080           0
     71633 WT24     445      MECN     H12      HGA3     0.090000        1.0080           0
     71634 WT24     445      MECN     H13      HGA3     0.090000        1.0080           0
     71635 WT24     445      MECN     C2       CG1N1    0.360000       12.0110           0
     71636 WT24     445      MECN     N3       NG1T1   -0.460000       14.0070           0
     71637 WT24     448      MECN     C1       CG331   -0.170000       12.0110           0
     71638 WT24     448      MECN     H11      HGA3     0.090000        1.0080           0
     71639 WT24     448      MECN     H12      HGA3     0.090000        1.0080           0
     71640 WT24     448      MECN     H13      HGA3     0.090000        1.0080           0
     71641 WT24     448      MECN     C2       CG1N1    0.360000       12.0110           0
     71642 WT24     448      MECN     N3       NG1T1   -0.460000       14.0070           0
     71643 WT24     449      MECN     C1       CG331   -0.170000       12.0110           0
     71644 WT24     449      MECN     H11      HGA3     0.090000        1.0080           0
     71645 WT24     449      MECN     H12      HGA3     0.090000        1.0080           0
     71646 WT24     449      MECN     H13      HGA3     0.090000        1.0080           0
     71647 WT24     449      MECN     C2       CG1N1    0.360000       12.0110           0
     71648 WT24     449      MECN     N3       NG1T1   -0.460000       14.0070           0
     71649 WT24     450      MECN     C1       CG331   -0.170000       12.0110           0
     71650 WT24     450      MECN     H11      HGA3     0.090000        1.0080           0
     71651 WT24     450      MECN     H12      HGA3     0.090000        1.0080           0
     71652 WT24     450      MECN     H13      HGA3     0.090000        1.0080           0
     71653 WT24     450      MECN     C2       CG1N1    0.360000       12.0110           0
     71654 WT24     450      MECN     N3       NG1T1   -0.460000       14.0070           0
     71655 WT24     452      MECN     C1       CG331   -0.170000       12.0110           0
     71656 WT24     452      MECN     H11      HGA3     0.090000        1.0080           0
     71657 WT24     452      MECN     H12      HGA3     0.090000        1.0080           0
     71658 WT24     452      MECN     H13      HGA3     0.090000        1.0080           0
     71659 WT24     452      MECN     C2       CG1N1    0.360000       12.0110           0
     71660 WT24     452      MECN     N3       NG1T1   -0.460000       14.0070           0
     71661 WT24     454      MECN     C1       CG331   -0.170000       12.0110           0
     71662 WT24     454      MECN     H11      HGA3     0.090000        1.0080           0
     71663 WT24     454      MECN     H12      HGA3     0.090000        1.0080           0
     71664 WT24     454      MECN     H13      HGA3     0.090000        1.0080           0
     71665 WT24     454      MECN     C2       CG1N1    0.360000       12.0110           0
     71666 WT24     454      MECN     N3       NG1T1   -0.460000       14.0070           0
     71667 WT24     455      MECN     C1       CG331   -0.170000       12.0110           0
     71668 WT24     455      MECN     H11      HGA3     0.090000        1.0080           0
     71669 WT24     455      MECN     H12      HGA3     0.090000        1.0080           0
     71670 WT24     455      MECN     H13      HGA3     0.090000        1.0080           0
     71671 WT24     455      MECN     C2       CG1N1    0.360000       12.0110           0
     71672 WT24     455      MECN     N3       NG1T1   -0.460000       14.0070           0
     71673 WT24     456      MECN     C1       CG331   -0.170000       12.0110           0
     71674 WT24     456      MECN     H11      HGA3     0.090000        1.0080           0
     71675 WT24     456      MECN     H12      HGA3     0.090000        1.0080           0
     71676 WT24     456      MECN     H13      HGA3     0.090000        1.0080           0
     71677 WT24     456      MECN     C2       CG1N1    0.360000       12.0110           0
     71678 WT24     456      MECN     N3       NG1T1   -0.460000       14.0070           0
     71679 WT24     459      MECN     C1       CG331   -0.170000       12.0110           0
     71680 WT24     459      MECN     H11      HGA3     0.090000        1.0080           0
     71681 WT24     459      MECN     H12      HGA3     0.090000        1.0080           0
     71682 WT24     459      MECN     H13      HGA3     0.090000        1.0080           0
     71683 WT24     459      MECN     C2       CG1N1    0.360000       12.0110           0
     71684 WT24     459      MECN     N3       NG1T1   -0.460000       14.0070           0
     71685 WT24     460      MECN     C1       CG331   -0.170000       12.0110           0
     71686 WT24     460      MECN     H11      HGA3     0.090000        1.0080           0
     71687 WT24     460      MECN     H12      HGA3     0.090000        1.0080           0
     71688 WT24     460      MECN     H13      HGA3     0.090000        1.0080           0
     71689 WT24     460      MECN     C2       CG1N1    0.360000       12.0110           0
     71690 WT24     460      MECN     N3       NG1T1   -0.460000       14.0070           0
     71691 WT24     461      MECN     C1       CG331   -0.170000       12.0110           0
     71692 WT24     461      MECN     H11      HGA3     0.090000        1.0080           0
     71693 WT24     461      MECN     H12      HGA3     0.090000        1.0080           0
     71694 WT24     461      MECN     H13      HGA3     0.090000        1.0080           0
     71695 WT24     461      MECN     C2       CG1N1    0.360000       12.0110           0
     71696 WT24     461      MECN     N3       NG1T1   -0.460000       14.0070           0
     71697 WT24     462      MECN     C1       CG331   -0.170000       12.0110           0
     71698 WT24     462      MECN     H11      HGA3     0.090000        1.0080           0
     71699 WT24     462      MECN     H12      HGA3     0.090000        1.0080           0
     71700 WT24     462      MECN     H13      HGA3     0.090000        1.0080           0
     71701 WT24     462      MECN     C2       CG1N1    0.360000       12.0110           0
     71702 WT24     462      MECN     N3       NG1T1   -0.460000       14.0070           0
     71703 WT24     463      MECN     C1       CG331   -0.170000       12.0110           0
     71704 WT24     463      MECN     H11      HGA3     0.090000        1.0080           0
     71705 WT24     463      MECN     H12      HGA3     0.090000        1.0080           0
     71706 WT24     463      MECN     H13      HGA3     0.090000        1.0080           0
     71707 WT24     463      MECN     C2       CG1N1    0.360000       12.0110           0
     71708 WT24     463      MECN     N3       NG1T1   -0.460000       14.0070           0
     71709 WT24     464      MECN     C1       CG331   -0.170000       12.0110           0
     71710 WT24     464      MECN     H11      HGA3     0.090000        1.0080           0
     71711 WT24     464      MECN     H12      HGA3     0.090000        1.0080           0
     71712 WT24     464      MECN     H13      HGA3     0.090000        1.0080           0
     71713 WT24     464      MECN     C2       CG1N1    0.360000       12.0110           0
     71714 WT24     464      MECN     N3       NG1T1   -0.460000       14.0070           0
     71715 WT24     466      MECN     C1       CG331   -0.170000       12.0110           0
     71716 WT24     466      MECN     H11      HGA3     0.090000        1.0080           0
     71717 WT24     466      MECN     H12      HGA3     0.090000        1.0080           0
     71718 WT24     466      MECN     H13      HGA3     0.090000        1.0080           0
     71719 WT24     466      MECN     C2       CG1N1    0.360000       12.0110           0
     71720 WT24     466      MECN     N3       NG1T1   -0.460000       14.0070           0
     71721 WT24     468      MECN     C1       CG331   -0.170000       12.0110           0
     71722 WT24     468      MECN     H11      HGA3     0.090000        1.0080           0
     71723 WT24     468      MECN     H12      HGA3     0.090000        1.0080           0
     71724 WT24     468      MECN     H13      HGA3     0.090000        1.0080           0
     71725 WT24     468      MECN     C2       CG1N1    0.360000       12.0110           0
     71726 WT24     468      MECN     N3       NG1T1   -0.460000       14.0070           0
     71727 WT24     470      MECN     C1       CG331   -0.170000       12.0110           0
     71728 WT24     470      MECN     H11      HGA3     0.090000        1.0080           0
     71729 WT24     470      MECN     H12      HGA3     0.090000        1.0080           0
     71730 WT24     470      MECN     H13      HGA3     0.090000        1.0080           0
     71731 WT24     470      MECN     C2       CG1N1    0.360000       12.0110           0
     71732 WT24     470      MECN     N3       NG1T1   -0.460000       14.0070           0
     71733 WT24     477      MECN     C1       CG331   -0.170000       12.0110           0
     71734 WT24     477      MECN     H11      HGA3     0.090000        1.0080           0
     71735 WT24     477      MECN     H12      HGA3     0.090000        1.0080           0
     71736 WT24     477      MECN     H13      HGA3     0.090000        1.0080           0
     71737 WT24     477      MECN     C2       CG1N1    0.360000       12.0110           0
     71738 WT24     477      MECN     N3       NG1T1   -0.460000       14.0070           0
     71739 WT24     479      MECN     C1       CG331   -0.170000       12.0110           0
     71740 WT24     479      MECN     H11      HGA3     0.090000        1.0080           0
     71741 WT24     479      MECN     H12      HGA3     0.090000        1.0080           0
     71742 WT24     479      MECN     H13      HGA3     0.090000        1.0080           0
     71743 WT24     479      MECN     C2       CG1N1    0.360000       12.0110           0
     71744 WT24     479      MECN     N3       NG1T1   -0.460000       14.0070           0
     71745 WT24     480      MECN     C1       CG331   -0.170000       12.0110           0
     71746 WT24     480      MECN     H11      HGA3     0.090000        1.0080           0
     71747 WT24     480      MECN     H12      HGA3     0.090000        1.0080           0
     71748 WT24     480      MECN     H13      HGA3     0.090000        1.0080           0
     71749 WT24     480      MECN     C2       CG1N1    0.360000       12.0110           0
     71750 WT24     480      MECN     N3       NG1T1   -0.460000       14.0070           0
     71751 WT24     482      MECN     C1       CG331   -0.170000       12.0110           0
     71752 WT24     482      MECN     H11      HGA3     0.090000        1.0080           0
     71753 WT24     482      MECN     H12      HGA3     0.090000        1.0080           0
     71754 WT24     482      MECN     H13      HGA3     0.090000        1.0080           0
     71755 WT24     482      MECN     C2       CG1N1    0.360000       12.0110           0
     71756 WT24     482      MECN     N3       NG1T1   -0.460000       14.0070           0
     71757 WT24     483      MECN     C1       CG331   -0.170000       12.0110           0
     71758 WT24     483      MECN     H11      HGA3     0.090000        1.0080           0
     71759 WT24     483      MECN     H12      HGA3     0.090000        1.0080           0
     71760 WT24     483      MECN     H13      HGA3     0.090000        1.0080           0
     71761 WT24     483      MECN     C2       CG1N1    0.360000       12.0110           0
     71762 WT24     483      MECN     N3       NG1T1   -0.460000       14.0070           0
     71763 WT24     485      MECN     C1       CG331   -0.170000       12.0110           0
     71764 WT24     485      MECN     H11      HGA3     0.090000        1.0080           0
     71765 WT24     485      MECN     H12      HGA3     0.090000        1.0080           0
     71766 WT24     485      MECN     H13      HGA3     0.090000        1.0080           0
     71767 WT24     485      MECN     C2       CG1N1    0.360000       12.0110           0
     71768 WT24     485      MECN     N3       NG1T1   -0.460000       14.0070           0
     71769 WT24     487      MECN     C1       CG331   -0.170000       12.0110           0
     71770 WT24     487      MECN     H11      HGA3     0.090000        1.0080           0
     71771 WT24     487      MECN     H12      HGA3     0.090000        1.0080           0
     71772 WT24     487      MECN     H13      HGA3     0.090000        1.0080           0
     71773 WT24     487      MECN     C2       CG1N1    0.360000       12.0110           0
     71774 WT24     487      MECN     N3       NG1T1   -0.460000       14.0070           0
     71775 WT24     489      MECN     C1       CG331   -0.170000       12.0110           0
     71776 WT24     489      MECN     H11      HGA3     0.090000        1.0080           0
     71777 WT24     489      MECN     H12      HGA3     0.090000        1.0080           0
     71778 WT24     489      MECN     H13      HGA3     0.090000        1.0080           0
     71779 WT24     489      MECN     C2       CG1N1    0.360000       12.0110           0
     71780 WT24     489      MECN     N3       NG1T1   -0.460000       14.0070           0
     71781 WT24     490      MECN     C1       CG331   -0.170000       12.0110           0
     71782 WT24     490      MECN     H11      HGA3     0.090000        1.0080           0
     71783 WT24     490      MECN     H12      HGA3     0.090000        1.0080           0
     71784 WT24     490      MECN     H13      HGA3     0.090000        1.0080           0
     71785 WT24     490      MECN     C2       CG1N1    0.360000       12.0110           0
     71786 WT24     490      MECN     N3       NG1T1   -0.460000       14.0070           0
     71787 WT24     491      MECN     C1       CG331   -0.170000       12.0110           0
     71788 WT24     491      MECN     H11      HGA3     0.090000        1.0080           0
     71789 WT24     491      MECN     H12      HGA3     0.090000        1.0080           0
     71790 WT24     491      MECN     H13      HGA3     0.090000        1.0080           0
     71791 WT24     491      MECN     C2       CG1N1    0.360000       12.0110           0
     71792 WT24     491      MECN     N3       NG1T1   -0.460000       14.0070           0
     71793 WT24     493      MECN     C1       CG331   -0.170000       12.0110           0
     71794 WT24     493      MECN     H11      HGA3     0.090000        1.0080           0
     71795 WT24     493      MECN     H12      HGA3     0.090000        1.0080           0
     71796 WT24     493      MECN     H13      HGA3     0.090000        1.0080           0
     71797 WT24     493      MECN     C2       CG1N1    0.360000       12.0110           0
     71798 WT24     493      MECN     N3       NG1T1   -0.460000       14.0070           0
     71799 WT24     494      MECN     C1       CG331   -0.170000       12.0110           0
     71800 WT24     494      MECN     H11      HGA3     0.090000        1.0080           0
     71801 WT24     494      MECN     H12      HGA3     0.090000        1.0080           0
     71802 WT24     494      MECN     H13      HGA3     0.090000        1.0080           0
     71803 WT24     494      MECN     C2       CG1N1    0.360000       12.0110           0
     71804 WT24     494      MECN     N3       NG1T1   -0.460000       14.0070           0
     71805 WT24     496      MECN     C1       CG331   -0.170000       12.0110           0
     71806 WT24     496      MECN     H11      HGA3     0.090000        1.0080           0
     71807 WT24     496      MECN     H12      HGA3     0.090000        1.0080           0
     71808 WT24     496      MECN     H13      HGA3     0.090000        1.0080           0
     71809 WT24     496      MECN     C2       CG1N1    0.360000       12.0110           0
     71810 WT24     496      MECN     N3       NG1T1   -0.460000       14.0070           0
     71811 WT24     497      MECN     C1       CG331   -0.170000       12.0110           0
     71812 WT24     497      MECN     H11      HGA3     0.090000        1.0080           0
     71813 WT24     497      MECN     H12      HGA3     0.090000        1.0080           0
     71814 WT24     497      MECN     H13      HGA3     0.090000        1.0080           0
     71815 WT24     497      MECN     C2       CG1N1    0.360000       12.0110           0
     71816 WT24     497      MECN     N3       NG1T1   -0.460000       14.0070           0
     71817 WT24     498      MECN     C1       CG331   -0.170000       12.0110           0
     71818 WT24     498      MECN     H11      HGA3     0.090000        1.0080           0
     71819 WT24     498      MECN     H12      HGA3     0.090000        1.0080           0
     71820 WT24     498      MECN     H13      HGA3     0.090000        1.0080           0
     71821 WT24     498      MECN     C2       CG1N1    0.360000       12.0110           0
     71822 WT24     498      MECN     N3       NG1T1   -0.460000       14.0070           0
     71823 WT24     499      MECN     C1       CG331   -0.170000       12.0110           0
     71824 WT24     499      MECN     H11      HGA3     0.090000        1.0080           0
     71825 WT24     499      MECN     H12      HGA3     0.090000        1.0080           0
     71826 WT24     499      MECN     H13      HGA3     0.090000        1.0080           0
     71827 WT24     499      MECN     C2       CG1N1    0.360000       12.0110           0
     71828 WT24     499      MECN     N3       NG1T1   -0.460000       14.0070           0
     71829 WT24     501      MECN     C1       CG331   -0.170000       12.0110           0
     71830 WT24     501      MECN     H11      HGA3     0.090000        1.0080           0
     71831 WT24     501      MECN     H12      HGA3     0.090000        1.0080           0
     71832 WT24     501      MECN     H13      HGA3     0.090000        1.0080           0
     71833 WT24     501      MECN     C2       CG1N1    0.360000       12.0110           0
     71834 WT24     501      MECN     N3       NG1T1   -0.460000       14.0070           0
     71835 WT24     502      MECN     C1       CG331   -0.170000       12.0110           0
     71836 WT24     502      MECN     H11      HGA3     0.090000        1.0080           0
     71837 WT24     502      MECN     H12      HGA3     0.090000        1.0080           0
     71838 WT24     502      MECN     H13      HGA3     0.090000        1.0080           0
     71839 WT24     502      MECN     C2       CG1N1    0.360000       12.0110           0
     71840 WT24     502      MECN     N3       NG1T1   -0.460000       14.0070           0
     71841 WT24     503      MECN     C1       CG331   -0.170000       12.0110           0
     71842 WT24     503      MECN     H11      HGA3     0.090000        1.0080           0
     71843 WT24     503      MECN     H12      HGA3     0.090000        1.0080           0
     71844 WT24     503      MECN     H13      HGA3     0.090000        1.0080           0
     71845 WT24     503      MECN     C2       CG1N1    0.360000       12.0110           0
     71846 WT24     503      MECN     N3       NG1T1   -0.460000       14.0070           0
     71847 WT24     504      MECN     C1       CG331   -0.170000       12.0110           0
     71848 WT24     504      MECN     H11      HGA3     0.090000        1.0080           0
     71849 WT24     504      MECN     H12      HGA3     0.090000        1.0080           0
     71850 WT24     504      MECN     H13      HGA3     0.090000        1.0080           0
     71851 WT24     504      MECN     C2       CG1N1    0.360000       12.0110           0
     71852 WT24     504      MECN     N3       NG1T1   -0.460000       14.0070           0
     71853 WT24     506      MECN     C1       CG331   -0.170000       12.0110           0
     71854 WT24     506      MECN     H11      HGA3     0.090000        1.0080           0
     71855 WT24     506      MECN     H12      HGA3     0.090000        1.0080           0
     71856 WT24     506      MECN     H13      HGA3     0.090000        1.0080           0
     71857 WT24     506      MECN     C2       CG1N1    0.360000       12.0110           0
     71858 WT24     506      MECN     N3       NG1T1   -0.460000       14.0070           0
     71859 WT24     507      MECN     C1       CG331   -0.170000       12.0110           0
     71860 WT24     507      MECN     H11      HGA3     0.090000        1.0080           0
     71861 WT24     507      MECN     H12      HGA3     0.090000        1.0080           0
     71862 WT24     507      MECN     H13      HGA3     0.090000        1.0080           0
     71863 WT24     507      MECN     C2       CG1N1    0.360000       12.0110           0
     71864 WT24     507      MECN     N3       NG1T1   -0.460000       14.0070           0
     71865 WT24     508      MECN     C1       CG331   -0.170000       12.0110           0
     71866 WT24     508      MECN     H11      HGA3     0.090000        1.0080           0
     71867 WT24     508      MECN     H12      HGA3     0.090000        1.0080           0
     71868 WT24     508      MECN     H13      HGA3     0.090000        1.0080           0
     71869 WT24     508      MECN     C2       CG1N1    0.360000       12.0110           0
     71870 WT24     508      MECN     N3       NG1T1   -0.460000       14.0070           0
     71871 WT24     509      MECN     C1       CG331   -0.170000       12.0110           0
     71872 WT24     509      MECN     H11      HGA3     0.090000        1.0080           0
     71873 WT24     509      MECN     H12      HGA3     0.090000        1.0080           0
     71874 WT24     509      MECN     H13      HGA3     0.090000        1.0080           0
     71875 WT24     509      MECN     C2       CG1N1    0.360000       12.0110           0
     71876 WT24     509      MECN     N3       NG1T1   -0.460000       14.0070           0
     71877 WT24     511      MECN     C1       CG331   -0.170000       12.0110           0
     71878 WT24     511      MECN     H11      HGA3     0.090000        1.0080           0
     71879 WT24     511      MECN     H12      HGA3     0.090000        1.0080           0
     71880 WT24     511      MECN     H13      HGA3     0.090000        1.0080           0
     71881 WT24     511      MECN     C2       CG1N1    0.360000       12.0110           0
     71882 WT24     511      MECN     N3       NG1T1   -0.460000       14.0070           0
     71883 WT24     512      MECN     C1       CG331   -0.170000       12.0110           0
     71884 WT24     512      MECN     H11      HGA3     0.090000        1.0080           0
     71885 WT24     512      MECN     H12      HGA3     0.090000        1.0080           0
     71886 WT24     512      MECN     H13      HGA3     0.090000        1.0080           0
     71887 WT24     512      MECN     C2       CG1N1    0.360000       12.0110           0
     71888 WT24     512      MECN     N3       NG1T1   -0.460000       14.0070           0
     71889 WT24     515      MECN     C1       CG331   -0.170000       12.0110           0
     71890 WT24     515      MECN     H11      HGA3     0.090000        1.0080           0
     71891 WT24     515      MECN     H12      HGA3     0.090000        1.0080           0
     71892 WT24     515      MECN     H13      HGA3     0.090000        1.0080           0
     71893 WT24     515      MECN     C2       CG1N1    0.360000       12.0110           0
     71894 WT24     515      MECN     N3       NG1T1   -0.460000       14.0070           0
     71895 WT24     516      MECN     C1       CG331   -0.170000       12.0110           0
     71896 WT24     516      MECN     H11      HGA3     0.090000        1.0080           0
     71897 WT24     516      MECN     H12      HGA3     0.090000        1.0080           0
     71898 WT24     516      MECN     H13      HGA3     0.090000        1.0080           0
     71899 WT24     516      MECN     C2       CG1N1    0.360000       12.0110           0
     71900 WT24     516      MECN     N3       NG1T1   -0.460000       14.0070           0
     71901 WT24     518      MECN     C1       CG331   -0.170000       12.0110           0
     71902 WT24     518      MECN     H11      HGA3     0.090000        1.0080           0
     71903 WT24     518      MECN     H12      HGA3     0.090000        1.0080           0
     71904 WT24     518      MECN     H13      HGA3     0.090000        1.0080           0
     71905 WT24     518      MECN     C2       CG1N1    0.360000       12.0110           0
     71906 WT24     518      MECN     N3       NG1T1   -0.460000       14.0070           0
     71907 WT24     519      MECN     C1       CG331   -0.170000       12.0110           0
     71908 WT24     519      MECN     H11      HGA3     0.090000        1.0080           0
     71909 WT24     519      MECN     H12      HGA3     0.090000        1.0080           0
     71910 WT24     519      MECN     H13      HGA3     0.090000        1.0080           0
     71911 WT24     519      MECN     C2       CG1N1    0.360000       12.0110           0
     71912 WT24     519      MECN     N3       NG1T1   -0.460000       14.0070           0
     71913 WT24     521      MECN     C1       CG331   -0.170000       12.0110           0
     71914 WT24     521      MECN     H11      HGA3     0.090000        1.0080           0
     71915 WT24     521      MECN     H12      HGA3     0.090000        1.0080           0
     71916 WT24     521      MECN     H13      HGA3     0.090000        1.0080           0
     71917 WT24     521      MECN     C2       CG1N1    0.360000       12.0110           0
     71918 WT24     521      MECN     N3       NG1T1   -0.460000       14.0070           0
     71919 WT24     522      MECN     C1       CG331   -0.170000       12.0110           0
     71920 WT24     522      MECN     H11      HGA3     0.090000        1.0080           0
     71921 WT24     522      MECN     H12      HGA3     0.090000        1.0080           0
     71922 WT24     522      MECN     H13      HGA3     0.090000        1.0080           0
     71923 WT24     522      MECN     C2       CG1N1    0.360000       12.0110           0
     71924 WT24     522      MECN     N3       NG1T1   -0.460000       14.0070           0
     71925 WT24     523      MECN     C1       CG331   -0.170000       12.0110           0
     71926 WT24     523      MECN     H11      HGA3     0.090000        1.0080           0
     71927 WT24     523      MECN     H12      HGA3     0.090000        1.0080           0
     71928 WT24     523      MECN     H13      HGA3     0.090000        1.0080           0
     71929 WT24     523      MECN     C2       CG1N1    0.360000       12.0110           0
     71930 WT24     523      MECN     N3       NG1T1   -0.460000       14.0070           0
     71931 WT24     526      MECN     C1       CG331   -0.170000       12.0110           0
     71932 WT24     526      MECN     H11      HGA3     0.090000        1.0080           0
     71933 WT24     526      MECN     H12      HGA3     0.090000        1.0080           0
     71934 WT24     526      MECN     H13      HGA3     0.090000        1.0080           0
     71935 WT24     526      MECN     C2       CG1N1    0.360000       12.0110           0
     71936 WT24     526      MECN     N3       NG1T1   -0.460000       14.0070           0
     71937 WT24     529      MECN     C1       CG331   -0.170000       12.0110           0
     71938 WT24     529      MECN     H11      HGA3     0.090000        1.0080           0
     71939 WT24     529      MECN     H12      HGA3     0.090000        1.0080           0
     71940 WT24     529      MECN     H13      HGA3     0.090000        1.0080           0
     71941 WT24     529      MECN     C2       CG1N1    0.360000       12.0110           0
     71942 WT24     529      MECN     N3       NG1T1   -0.460000       14.0070           0
     71943 WT24     530      MECN     C1       CG331   -0.170000       12.0110           0
     71944 WT24     530      MECN     H11      HGA3     0.090000        1.0080           0
     71945 WT24     530      MECN     H12      HGA3     0.090000        1.0080           0
     71946 WT24     530      MECN     H13      HGA3     0.090000        1.0080           0
     71947 WT24     530      MECN     C2       CG1N1    0.360000       12.0110           0
     71948 WT24     530      MECN     N3       NG1T1   -0.460000       14.0070           0
     71949 WT24     533      MECN     C1       CG331   -0.170000       12.0110           0
     71950 WT24     533      MECN     H11      HGA3     0.090000        1.0080           0
     71951 WT24     533      MECN     H12      HGA3     0.090000        1.0080           0
     71952 WT24     533      MECN     H13      HGA3     0.090000        1.0080           0
     71953 WT24     533      MECN     C2       CG1N1    0.360000       12.0110           0
     71954 WT24     533      MECN     N3       NG1T1   -0.460000       14.0070           0
     71955 WT24     534      MECN     C1       CG331   -0.170000       12.0110           0
     71956 WT24     534      MECN     H11      HGA3     0.090000        1.0080           0
     71957 WT24     534      MECN     H12      HGA3     0.090000        1.0080           0
     71958 WT24     534      MECN     H13      HGA3     0.090000        1.0080           0
     71959 WT24     534      MECN     C2       CG1N1    0.360000       12.0110           0
     71960 WT24     534      MECN     N3       NG1T1   -0.460000       14.0070           0
     71961 WT24     536      MECN     C1       CG331   -0.170000       12.0110           0
     71962 WT24     536      MECN     H11      HGA3     0.090000        1.0080           0
     71963 WT24     536      MECN     H12      HGA3     0.090000        1.0080           0
     71964 WT24     536      MECN     H13      HGA3     0.090000        1.0080           0
     71965 WT24     536      MECN     C2       CG1N1    0.360000       12.0110           0
     71966 WT24     536      MECN     N3       NG1T1   -0.460000       14.0070           0
     71967 WT24     537      MECN     C1       CG331   -0.170000       12.0110           0
     71968 WT24     537      MECN     H11      HGA3     0.090000        1.0080           0
     71969 WT24     537      MECN     H12      HGA3     0.090000        1.0080           0
     71970 WT24     537      MECN     H13      HGA3     0.090000        1.0080           0
     71971 WT24     537      MECN     C2       CG1N1    0.360000       12.0110           0
     71972 WT24     537      MECN     N3       NG1T1   -0.460000       14.0070           0
     71973 WT24     538      MECN     C1       CG331   -0.170000       12.0110           0
     71974 WT24     538      MECN     H11      HGA3     0.090000        1.0080           0
     71975 WT24     538      MECN     H12      HGA3     0.090000        1.0080           0
     71976 WT24     538      MECN     H13      HGA3     0.090000        1.0080           0
     71977 WT24     538      MECN     C2       CG1N1    0.360000       12.0110           0
     71978 WT24     538      MECN     N3       NG1T1   -0.460000       14.0070           0
     71979 WT24     540      MECN     C1       CG331   -0.170000       12.0110           0
     71980 WT24     540      MECN     H11      HGA3     0.090000        1.0080           0
     71981 WT24     540      MECN     H12      HGA3     0.090000        1.0080           0
     71982 WT24     540      MECN     H13      HGA3     0.090000        1.0080           0
     71983 WT24     540      MECN     C2       CG1N1    0.360000       12.0110           0
     71984 WT24     540      MECN     N3       NG1T1   -0.460000       14.0070           0
     71985 WT24     545      MECN     C1       CG331   -0.170000       12.0110           0
     71986 WT24     545      MECN     H11      HGA3     0.090000        1.0080           0
     71987 WT24     545      MECN     H12      HGA3     0.090000        1.0080           0
     71988 WT24     545      MECN     H13      HGA3     0.090000        1.0080           0
     71989 WT24     545      MECN     C2       CG1N1    0.360000       12.0110           0
     71990 WT24     545      MECN     N3       NG1T1   -0.460000       14.0070           0
     71991 WT24     547      MECN     C1       CG331   -0.170000       12.0110           0
     71992 WT24     547      MECN     H11      HGA3     0.090000        1.0080           0
     71993 WT24     547      MECN     H12      HGA3     0.090000        1.0080           0
     71994 WT24     547      MECN     H13      HGA3     0.090000        1.0080           0
     71995 WT24     547      MECN     C2       CG1N1    0.360000       12.0110           0
     71996 WT24     547      MECN     N3       NG1T1   -0.460000       14.0070           0
     71997 WT24     548      MECN     C1       CG331   -0.170000       12.0110           0
     71998 WT24     548      MECN     H11      HGA3     0.090000        1.0080           0
     71999 WT24     548      MECN     H12      HGA3     0.090000        1.0080           0
     72000 WT24     548      MECN     H13      HGA3     0.090000        1.0080           0
     72001 WT24     548      MECN     C2       CG1N1    0.360000       12.0110           0
     72002 WT24     548      MECN     N3       NG1T1   -0.460000       14.0070           0
     72003 WT24     549      MECN     C1       CG331   -0.170000       12.0110           0
     72004 WT24     549      MECN     H11      HGA3     0.090000        1.0080           0
     72005 WT24     549      MECN     H12      HGA3     0.090000        1.0080           0
     72006 WT24     549      MECN     H13      HGA3     0.090000        1.0080           0
     72007 WT24     549      MECN     C2       CG1N1    0.360000       12.0110           0
     72008 WT24     549      MECN     N3       NG1T1   -0.460000       14.0070           0
     72009 WT24     550      MECN     C1       CG331   -0.170000       12.0110           0
     72010 WT24     550      MECN     H11      HGA3     0.090000        1.0080           0
     72011 WT24     550      MECN     H12      HGA3     0.090000        1.0080           0
     72012 WT24     550      MECN     H13      HGA3     0.090000        1.0080           0
     72013 WT24     550      MECN     C2       CG1N1    0.360000       12.0110           0
     72014 WT24     550      MECN     N3       NG1T1   -0.460000       14.0070           0
     72015 WT24     551      MECN     C1       CG331   -0.170000       12.0110           0
     72016 WT24     551      MECN     H11      HGA3     0.090000        1.0080           0
     72017 WT24     551      MECN     H12      HGA3     0.090000        1.0080           0
     72018 WT24     551      MECN     H13      HGA3     0.090000        1.0080           0
     72019 WT24     551      MECN     C2       CG1N1    0.360000       12.0110           0
     72020 WT24     551      MECN     N3       NG1T1   -0.460000       14.0070           0
     72021 WT24     552      MECN     C1       CG331   -0.170000       12.0110           0
     72022 WT24     552      MECN     H11      HGA3     0.090000        1.0080           0
     72023 WT24     552      MECN     H12      HGA3     0.090000        1.0080           0
     72024 WT24     552      MECN     H13      HGA3     0.090000        1.0080           0
     72025 WT24     552      MECN     C2       CG1N1    0.360000       12.0110           0
     72026 WT24     552      MECN     N3       NG1T1   -0.460000       14.0070           0
     72027 WT24     555      MECN     C1       CG331   -0.170000       12.0110           0
     72028 WT24     555      MECN     H11      HGA3     0.090000        1.0080           0
     72029 WT24     555      MECN     H12      HGA3     0.090000        1.0080           0
     72030 WT24     555      MECN     H13      HGA3     0.090000        1.0080           0
     72031 WT24     555      MECN     C2       CG1N1    0.360000       12.0110           0
     72032 WT24     555      MECN     N3       NG1T1   -0.460000       14.0070           0
     72033 WT24     559      MECN     C1       CG331   -0.170000       12.0110           0
     72034 WT24     559      MECN     H11      HGA3     0.090000        1.0080           0
     72035 WT24     559      MECN     H12      HGA3     0.090000        1.0080           0
     72036 WT24     559      MECN     H13      HGA3     0.090000        1.0080           0
     72037 WT24     559      MECN     C2       CG1N1    0.360000       12.0110           0
     72038 WT24     559      MECN     N3       NG1T1   -0.460000       14.0070           0
     72039 WT24     561      MECN     C1       CG331   -0.170000       12.0110           0
     72040 WT24     561      MECN     H11      HGA3     0.090000        1.0080           0
     72041 WT24     561      MECN     H12      HGA3     0.090000        1.0080           0
     72042 WT24     561      MECN     H13      HGA3     0.090000        1.0080           0
     72043 WT24     561      MECN     C2       CG1N1    0.360000       12.0110           0
     72044 WT24     561      MECN     N3       NG1T1   -0.460000       14.0070           0
     72045 WT24     562      MECN     C1       CG331   -0.170000       12.0110           0
     72046 WT24     562      MECN     H11      HGA3     0.090000        1.0080           0
     72047 WT24     562      MECN     H12      HGA3     0.090000        1.0080           0
     72048 WT24     562      MECN     H13      HGA3     0.090000        1.0080           0
     72049 WT24     562      MECN     C2       CG1N1    0.360000       12.0110           0
     72050 WT24     562      MECN     N3       NG1T1   -0.460000       14.0070           0
     72051 WT24     565      MECN     C1       CG331   -0.170000       12.0110           0
     72052 WT24     565      MECN     H11      HGA3     0.090000        1.0080           0
     72053 WT24     565      MECN     H12      HGA3     0.090000        1.0080           0
     72054 WT24     565      MECN     H13      HGA3     0.090000        1.0080           0
     72055 WT24     565      MECN     C2       CG1N1    0.360000       12.0110           0
     72056 WT24     565      MECN     N3       NG1T1   -0.460000       14.0070           0
     72057 WT24     571      MECN     C1       CG331   -0.170000       12.0110           0
     72058 WT24     571      MECN     H11      HGA3     0.090000        1.0080           0
     72059 WT24     571      MECN     H12      HGA3     0.090000        1.0080           0
     72060 WT24     571      MECN     H13      HGA3     0.090000        1.0080           0
     72061 WT24     571      MECN     C2       CG1N1    0.360000       12.0110           0
     72062 WT24     571      MECN     N3       NG1T1   -0.460000       14.0070           0
     72063 WT24     572      MECN     C1       CG331   -0.170000       12.0110           0
     72064 WT24     572      MECN     H11      HGA3     0.090000        1.0080           0
     72065 WT24     572      MECN     H12      HGA3     0.090000        1.0080           0
     72066 WT24     572      MECN     H13      HGA3     0.090000        1.0080           0
     72067 WT24     572      MECN     C2       CG1N1    0.360000       12.0110           0
     72068 WT24     572      MECN     N3       NG1T1   -0.460000       14.0070           0
     72069 WT24     573      MECN     C1       CG331   -0.170000       12.0110           0
     72070 WT24     573      MECN     H11      HGA3     0.090000        1.0080           0
     72071 WT24     573      MECN     H12      HGA3     0.090000        1.0080           0
     72072 WT24     573      MECN     H13      HGA3     0.090000        1.0080           0
     72073 WT24     573      MECN     C2       CG1N1    0.360000       12.0110           0
     72074 WT24     573      MECN     N3       NG1T1   -0.460000       14.0070           0
     72075 WT24     575      MECN     C1       CG331   -0.170000       12.0110           0
     72076 WT24     575      MECN     H11      HGA3     0.090000        1.0080           0
     72077 WT24     575      MECN     H12      HGA3     0.090000        1.0080           0
     72078 WT24     575      MECN     H13      HGA3     0.090000        1.0080           0
     72079 WT24     575      MECN     C2       CG1N1    0.360000       12.0110           0
     72080 WT24     575      MECN     N3       NG1T1   -0.460000       14.0070           0
     72081 WT24     576      MECN     C1       CG331   -0.170000       12.0110           0
     72082 WT24     576      MECN     H11      HGA3     0.090000        1.0080           0
     72083 WT24     576      MECN     H12      HGA3     0.090000        1.0080           0
     72084 WT24     576      MECN     H13      HGA3     0.090000        1.0080           0
     72085 WT24     576      MECN     C2       CG1N1    0.360000       12.0110           0
     72086 WT24     576      MECN     N3       NG1T1   -0.460000       14.0070           0
     72087 WT24     577      MECN     C1       CG331   -0.170000       12.0110           0
     72088 WT24     577      MECN     H11      HGA3     0.090000        1.0080           0
     72089 WT24     577      MECN     H12      HGA3     0.090000        1.0080           0
     72090 WT24     577      MECN     H13      HGA3     0.090000        1.0080           0
     72091 WT24     577      MECN     C2       CG1N1    0.360000       12.0110           0
     72092 WT24     577      MECN     N3       NG1T1   -0.460000       14.0070           0
     72093 WT24     578      MECN     C1       CG331   -0.170000       12.0110           0
     72094 WT24     578      MECN     H11      HGA3     0.090000        1.0080           0
     72095 WT24     578      MECN     H12      HGA3     0.090000        1.0080           0
     72096 WT24     578      MECN     H13      HGA3     0.090000        1.0080           0
     72097 WT24     578      MECN     C2       CG1N1    0.360000       12.0110           0
     72098 WT24     578      MECN     N3       NG1T1   -0.460000       14.0070           0
     72099 WT24     580      MECN     C1       CG331   -0.170000       12.0110           0
     72100 WT24     580      MECN     H11      HGA3     0.090000        1.0080           0
     72101 WT24     580      MECN     H12      HGA3     0.090000        1.0080           0
     72102 WT24     580      MECN     H13      HGA3     0.090000        1.0080           0
     72103 WT24     580      MECN     C2       CG1N1    0.360000       12.0110           0
     72104 WT24     580      MECN     N3       NG1T1   -0.460000       14.0070           0
     72105 WT24     582      MECN     C1       CG331   -0.170000       12.0110           0
     72106 WT24     582      MECN     H11      HGA3     0.090000        1.0080           0
     72107 WT24     582      MECN     H12      HGA3     0.090000        1.0080           0
     72108 WT24     582      MECN     H13      HGA3     0.090000        1.0080           0
     72109 WT24     582      MECN     C2       CG1N1    0.360000       12.0110           0
     72110 WT24     582      MECN     N3       NG1T1   -0.460000       14.0070           0
     72111 WT24     583      MECN     C1       CG331   -0.170000       12.0110           0
     72112 WT24     583      MECN     H11      HGA3     0.090000        1.0080           0
     72113 WT24     583      MECN     H12      HGA3     0.090000        1.0080           0
     72114 WT24     583      MECN     H13      HGA3     0.090000        1.0080           0
     72115 WT24     583      MECN     C2       CG1N1    0.360000       12.0110           0
     72116 WT24     583      MECN     N3       NG1T1   -0.460000       14.0070           0
     72117 WT24     584      MECN     C1       CG331   -0.170000       12.0110           0
     72118 WT24     584      MECN     H11      HGA3     0.090000        1.0080           0
     72119 WT24     584      MECN     H12      HGA3     0.090000        1.0080           0
     72120 WT24     584      MECN     H13      HGA3     0.090000        1.0080           0
     72121 WT24     584      MECN     C2       CG1N1    0.360000       12.0110           0
     72122 WT24     584      MECN     N3       NG1T1   -0.460000       14.0070           0
     72123 WT24     585      MECN     C1       CG331   -0.170000       12.0110           0
     72124 WT24     585      MECN     H11      HGA3     0.090000        1.0080           0
     72125 WT24     585      MECN     H12      HGA3     0.090000        1.0080           0
     72126 WT24     585      MECN     H13      HGA3     0.090000        1.0080           0
     72127 WT24     585      MECN     C2       CG1N1    0.360000       12.0110           0
     72128 WT24     585      MECN     N3       NG1T1   -0.460000       14.0070           0
     72129 WT24     587      MECN     C1       CG331   -0.170000       12.0110           0
     72130 WT24     587      MECN     H11      HGA3     0.090000        1.0080           0
     72131 WT24     587      MECN     H12      HGA3     0.090000        1.0080           0
     72132 WT24     587      MECN     H13      HGA3     0.090000        1.0080           0
     72133 WT24     587      MECN     C2       CG1N1    0.360000       12.0110           0
     72134 WT24     587      MECN     N3       NG1T1   -0.460000       14.0070           0
     72135 WT24     590      MECN     C1       CG331   -0.170000       12.0110           0
     72136 WT24     590      MECN     H11      HGA3     0.090000        1.0080           0
     72137 WT24     590      MECN     H12      HGA3     0.090000        1.0080           0
     72138 WT24     590      MECN     H13      HGA3     0.090000        1.0080           0
     72139 WT24     590      MECN     C2       CG1N1    0.360000       12.0110           0
     72140 WT24     590      MECN     N3       NG1T1   -0.460000       14.0070           0
     72141 WT24     591      MECN     C1       CG331   -0.170000       12.0110           0
     72142 WT24     591      MECN     H11      HGA3     0.090000        1.0080           0
     72143 WT24     591      MECN     H12      HGA3     0.090000        1.0080           0
     72144 WT24     591      MECN     H13      HGA3     0.090000        1.0080           0
     72145 WT24     591      MECN     C2       CG1N1    0.360000       12.0110           0
     72146 WT24     591      MECN     N3       NG1T1   -0.460000       14.0070           0
     72147 WT24     592      MECN     C1       CG331   -0.170000       12.0110           0
     72148 WT24     592      MECN     H11      HGA3     0.090000        1.0080           0
     72149 WT24     592      MECN     H12      HGA3     0.090000        1.0080           0
     72150 WT24     592      MECN     H13      HGA3     0.090000        1.0080           0
     72151 WT24     592      MECN     C2       CG1N1    0.360000       12.0110           0
     72152 WT24     592      MECN     N3       NG1T1   -0.460000       14.0070           0
     72153 WT24     593      MECN     C1       CG331   -0.170000       12.0110           0
     72154 WT24     593      MECN     H11      HGA3     0.090000        1.0080           0
     72155 WT24     593      MECN     H12      HGA3     0.090000        1.0080           0
     72156 WT24     593      MECN     H13      HGA3     0.090000        1.0080           0
     72157 WT24     593      MECN     C2       CG1N1    0.360000       12.0110           0
     72158 WT24     593      MECN     N3       NG1T1   -0.460000       14.0070           0
     72159 WT24     595      MECN     C1       CG331   -0.170000       12.0110           0
     72160 WT24     595      MECN     H11      HGA3     0.090000        1.0080           0
     72161 WT24     595      MECN     H12      HGA3     0.090000        1.0080           0
     72162 WT24     595      MECN     H13      HGA3     0.090000        1.0080           0
     72163 WT24     595      MECN     C2       CG1N1    0.360000       12.0110           0
     72164 WT24     595      MECN     N3       NG1T1   -0.460000       14.0070           0
     72165 WT24     596      MECN     C1       CG331   -0.170000       12.0110           0
     72166 WT24     596      MECN     H11      HGA3     0.090000        1.0080           0
     72167 WT24     596      MECN     H12      HGA3     0.090000        1.0080           0
     72168 WT24     596      MECN     H13      HGA3     0.090000        1.0080           0
     72169 WT24     596      MECN     C2       CG1N1    0.360000       12.0110           0
     72170 WT24     596      MECN     N3       NG1T1   -0.460000       14.0070           0
     72171 WT24     597      MECN     C1       CG331   -0.170000       12.0110           0
     72172 WT24     597      MECN     H11      HGA3     0.090000        1.0080           0
     72173 WT24     597      MECN     H12      HGA3     0.090000        1.0080           0
     72174 WT24     597      MECN     H13      HGA3     0.090000        1.0080           0
     72175 WT24     597      MECN     C2       CG1N1    0.360000       12.0110           0
     72176 WT24     597      MECN     N3       NG1T1   -0.460000       14.0070           0
     72177 WT24     598      MECN     C1       CG331   -0.170000       12.0110           0
     72178 WT24     598      MECN     H11      HGA3     0.090000        1.0080           0
     72179 WT24     598      MECN     H12      HGA3     0.090000        1.0080           0
     72180 WT24     598      MECN     H13      HGA3     0.090000        1.0080           0
     72181 WT24     598      MECN     C2       CG1N1    0.360000       12.0110           0
     72182 WT24     598      MECN     N3       NG1T1   -0.460000       14.0070           0
     72183 WT24     600      MECN     C1       CG331   -0.170000       12.0110           0
     72184 WT24     600      MECN     H11      HGA3     0.090000        1.0080           0
     72185 WT24     600      MECN     H12      HGA3     0.090000        1.0080           0
     72186 WT24     600      MECN     H13      HGA3     0.090000        1.0080           0
     72187 WT24     600      MECN     C2       CG1N1    0.360000       12.0110           0
     72188 WT24     600      MECN     N3       NG1T1   -0.460000       14.0070           0
     72189 WT24     602      MECN     C1       CG331   -0.170000       12.0110           0
     72190 WT24     602      MECN     H11      HGA3     0.090000        1.0080           0
     72191 WT24     602      MECN     H12      HGA3     0.090000        1.0080           0
     72192 WT24     602      MECN     H13      HGA3     0.090000        1.0080           0
     72193 WT24     602      MECN     C2       CG1N1    0.360000       12.0110           0
     72194 WT24     602      MECN     N3       NG1T1   -0.460000       14.0070           0
     72195 WT24     603      MECN     C1       CG331   -0.170000       12.0110           0
     72196 WT24     603      MECN     H11      HGA3     0.090000        1.0080           0
     72197 WT24     603      MECN     H12      HGA3     0.090000        1.0080           0
     72198 WT24     603      MECN     H13      HGA3     0.090000        1.0080           0
     72199 WT24     603      MECN     C2       CG1N1    0.360000       12.0110           0
     72200 WT24     603      MECN     N3       NG1T1   -0.460000       14.0070           0
     72201 WT24     604      MECN     C1       CG331   -0.170000       12.0110           0
     72202 WT24     604      MECN     H11      HGA3     0.090000        1.0080           0
     72203 WT24     604      MECN     H12      HGA3     0.090000        1.0080           0
     72204 WT24     604      MECN     H13      HGA3     0.090000        1.0080           0
     72205 WT24     604      MECN     C2       CG1N1    0.360000       12.0110           0
     72206 WT24     604      MECN     N3       NG1T1   -0.460000       14.0070           0
     72207 WT24     607      MECN     C1       CG331   -0.170000       12.0110           0
     72208 WT24     607      MECN     H11      HGA3     0.090000        1.0080           0
     72209 WT24     607      MECN     H12      HGA3     0.090000        1.0080           0
     72210 WT24     607      MECN     H13      HGA3     0.090000        1.0080           0
     72211 WT24     607      MECN     C2       CG1N1    0.360000       12.0110           0
     72212 WT24     607      MECN     N3       NG1T1   -0.460000       14.0070           0
     72213 WT24     609      MECN     C1       CG331   -0.170000       12.0110           0
     72214 WT24     609      MECN     H11      HGA3     0.090000        1.0080           0
     72215 WT24     609      MECN     H12      HGA3     0.090000        1.0080           0
     72216 WT24     609      MECN     H13      HGA3     0.090000        1.0080           0
     72217 WT24     609      MECN     C2       CG1N1    0.360000       12.0110           0
     72218 WT24     609      MECN     N3       NG1T1   -0.460000       14.0070           0
     72219 WT24     612      MECN     C1       CG331   -0.170000       12.0110           0
     72220 WT24     612      MECN     H11      HGA3     0.090000        1.0080           0
     72221 WT24     612      MECN     H12      HGA3     0.090000        1.0080           0
     72222 WT24     612      MECN     H13      HGA3     0.090000        1.0080           0
     72223 WT24     612      MECN     C2       CG1N1    0.360000       12.0110           0
     72224 WT24     612      MECN     N3       NG1T1   -0.460000       14.0070           0
     72225 WT24     613      MECN     C1       CG331   -0.170000       12.0110           0
     72226 WT24     613      MECN     H11      HGA3     0.090000        1.0080           0
     72227 WT24     613      MECN     H12      HGA3     0.090000        1.0080           0
     72228 WT24     613      MECN     H13      HGA3     0.090000        1.0080           0
     72229 WT24     613      MECN     C2       CG1N1    0.360000       12.0110           0
     72230 WT24     613      MECN     N3       NG1T1   -0.460000       14.0070           0
     72231 WT24     616      MECN     C1       CG331   -0.170000       12.0110           0
     72232 WT24     616      MECN     H11      HGA3     0.090000        1.0080           0
     72233 WT24     616      MECN     H12      HGA3     0.090000        1.0080           0
     72234 WT24     616      MECN     H13      HGA3     0.090000        1.0080           0
     72235 WT24     616      MECN     C2       CG1N1    0.360000       12.0110           0
     72236 WT24     616      MECN     N3       NG1T1   -0.460000       14.0070           0
     72237 WT24     619      MECN     C1       CG331   -0.170000       12.0110           0
     72238 WT24     619      MECN     H11      HGA3     0.090000        1.0080           0
     72239 WT24     619      MECN     H12      HGA3     0.090000        1.0080           0
     72240 WT24     619      MECN     H13      HGA3     0.090000        1.0080           0
     72241 WT24     619      MECN     C2       CG1N1    0.360000       12.0110           0
     72242 WT24     619      MECN     N3       NG1T1   -0.460000       14.0070           0
     72243 WT24     621      MECN     C1       CG331   -0.170000       12.0110           0
     72244 WT24     621      MECN     H11      HGA3     0.090000        1.0080           0
     72245 WT24     621      MECN     H12      HGA3     0.090000        1.0080           0
     72246 WT24     621      MECN     H13      HGA3     0.090000        1.0080           0
     72247 WT24     621      MECN     C2       CG1N1    0.360000       12.0110           0
     72248 WT24     621      MECN     N3       NG1T1   -0.460000       14.0070           0
     72249 WT24     623      MECN     C1       CG331   -0.170000       12.0110           0
     72250 WT24     623      MECN     H11      HGA3     0.090000        1.0080           0
     72251 WT24     623      MECN     H12      HGA3     0.090000        1.0080           0
     72252 WT24     623      MECN     H13      HGA3     0.090000        1.0080           0
     72253 WT24     623      MECN     C2       CG1N1    0.360000       12.0110           0
     72254 WT24     623      MECN     N3       NG1T1   -0.460000       14.0070           0
     72255 WT24     624      MECN     C1       CG331   -0.170000       12.0110           0
     72256 WT24     624      MECN     H11      HGA3     0.090000        1.0080           0
     72257 WT24     624      MECN     H12      HGA3     0.090000        1.0080           0
     72258 WT24     624      MECN     H13      HGA3     0.090000        1.0080           0
     72259 WT24     624      MECN     C2       CG1N1    0.360000       12.0110           0
     72260 WT24     624      MECN     N3       NG1T1   -0.460000       14.0070           0
     72261 WT24     626      MECN     C1       CG331   -0.170000       12.0110           0
     72262 WT24     626      MECN     H11      HGA3     0.090000        1.0080           0
     72263 WT24     626      MECN     H12      HGA3     0.090000        1.0080           0
     72264 WT24     626      MECN     H13      HGA3     0.090000        1.0080           0
     72265 WT24     626      MECN     C2       CG1N1    0.360000       12.0110           0
     72266 WT24     626      MECN     N3       NG1T1   -0.460000       14.0070           0
     72267 WT24     628      MECN     C1       CG331   -0.170000       12.0110           0
     72268 WT24     628      MECN     H11      HGA3     0.090000        1.0080           0
     72269 WT24     628      MECN     H12      HGA3     0.090000        1.0080           0
     72270 WT24     628      MECN     H13      HGA3     0.090000        1.0080           0
     72271 WT24     628      MECN     C2       CG1N1    0.360000       12.0110           0
     72272 WT24     628      MECN     N3       NG1T1   -0.460000       14.0070           0
     72273 WT24     629      MECN     C1       CG331   -0.170000       12.0110           0
     72274 WT24     629      MECN     H11      HGA3     0.090000        1.0080           0
     72275 WT24     629      MECN     H12      HGA3     0.090000        1.0080           0
     72276 WT24     629      MECN     H13      HGA3     0.090000        1.0080           0
     72277 WT24     629      MECN     C2       CG1N1    0.360000       12.0110           0
     72278 WT24     629      MECN     N3       NG1T1   -0.460000       14.0070           0
     72279 WT24     631      MECN     C1       CG331   -0.170000       12.0110           0
     72280 WT24     631      MECN     H11      HGA3     0.090000        1.0080           0
     72281 WT24     631      MECN     H12      HGA3     0.090000        1.0080           0
     72282 WT24     631      MECN     H13      HGA3     0.090000        1.0080           0
     72283 WT24     631      MECN     C2       CG1N1    0.360000       12.0110           0
     72284 WT24     631      MECN     N3       NG1T1   -0.460000       14.0070           0
     72285 WT24     632      MECN     C1       CG331   -0.170000       12.0110           0
     72286 WT24     632      MECN     H11      HGA3     0.090000        1.0080           0
     72287 WT24     632      MECN     H12      HGA3     0.090000        1.0080           0
     72288 WT24     632      MECN     H13      HGA3     0.090000        1.0080           0
     72289 WT24     632      MECN     C2       CG1N1    0.360000       12.0110           0
     72290 WT24     632      MECN     N3       NG1T1   -0.460000       14.0070           0
     72291 WT24     634      MECN     C1       CG331   -0.170000       12.0110           0
     72292 WT24     634      MECN     H11      HGA3     0.090000        1.0080           0
     72293 WT24     634      MECN     H12      HGA3     0.090000        1.0080           0
     72294 WT24     634      MECN     H13      HGA3     0.090000        1.0080           0
     72295 WT24     634      MECN     C2       CG1N1    0.360000       12.0110           0
     72296 WT24     634      MECN     N3       NG1T1   -0.460000       14.0070           0
     72297 WT24     635      MECN     C1       CG331   -0.170000       12.0110           0
     72298 WT24     635      MECN     H11      HGA3     0.090000        1.0080           0
     72299 WT24     635      MECN     H12      HGA3     0.090000        1.0080           0
     72300 WT24     635      MECN     H13      HGA3     0.090000        1.0080           0
     72301 WT24     635      MECN     C2       CG1N1    0.360000       12.0110           0
     72302 WT24     635      MECN     N3       NG1T1   -0.460000       14.0070           0
     72303 WT24     637      MECN     C1       CG331   -0.170000       12.0110           0
     72304 WT24     637      MECN     H11      HGA3     0.090000        1.0080           0
     72305 WT24     637      MECN     H12      HGA3     0.090000        1.0080           0
     72306 WT24     637      MECN     H13      HGA3     0.090000        1.0080           0
     72307 WT24     637      MECN     C2       CG1N1    0.360000       12.0110           0
     72308 WT24     637      MECN     N3       NG1T1   -0.460000       14.0070           0
     72309 WT24     643      MECN     C1       CG331   -0.170000       12.0110           0
     72310 WT24     643      MECN     H11      HGA3     0.090000        1.0080           0
     72311 WT24     643      MECN     H12      HGA3     0.090000        1.0080           0
     72312 WT24     643      MECN     H13      HGA3     0.090000        1.0080           0
     72313 WT24     643      MECN     C2       CG1N1    0.360000       12.0110           0
     72314 WT24     643      MECN     N3       NG1T1   -0.460000       14.0070           0
     72315 WT24     647      MECN     C1       CG331   -0.170000       12.0110           0
     72316 WT24     647      MECN     H11      HGA3     0.090000        1.0080           0
     72317 WT24     647      MECN     H12      HGA3     0.090000        1.0080           0
     72318 WT24     647      MECN     H13      HGA3     0.090000        1.0080           0
     72319 WT24     647      MECN     C2       CG1N1    0.360000       12.0110           0
     72320 WT24     647      MECN     N3       NG1T1   -0.460000       14.0070           0
     72321 WT24     650      MECN     C1       CG331   -0.170000       12.0110           0
     72322 WT24     650      MECN     H11      HGA3     0.090000        1.0080           0
     72323 WT24     650      MECN     H12      HGA3     0.090000        1.0080           0
     72324 WT24     650      MECN     H13      HGA3     0.090000        1.0080           0
     72325 WT24     650      MECN     C2       CG1N1    0.360000       12.0110           0
     72326 WT24     650      MECN     N3       NG1T1   -0.460000       14.0070           0
     72327 WT24     652      MECN     C1       CG331   -0.170000       12.0110           0
     72328 WT24     652      MECN     H11      HGA3     0.090000        1.0080           0
     72329 WT24     652      MECN     H12      HGA3     0.090000        1.0080           0
     72330 WT24     652      MECN     H13      HGA3     0.090000        1.0080           0
     72331 WT24     652      MECN     C2       CG1N1    0.360000       12.0110           0
     72332 WT24     652      MECN     N3       NG1T1   -0.460000       14.0070           0
     72333 WT24     653      MECN     C1       CG331   -0.170000       12.0110           0
     72334 WT24     653      MECN     H11      HGA3     0.090000        1.0080           0
     72335 WT24     653      MECN     H12      HGA3     0.090000        1.0080           0
     72336 WT24     653      MECN     H13      HGA3     0.090000        1.0080           0
     72337 WT24     653      MECN     C2       CG1N1    0.360000       12.0110           0
     72338 WT24     653      MECN     N3       NG1T1   -0.460000       14.0070           0
     72339 WT24     654      MECN     C1       CG331   -0.170000       12.0110           0
     72340 WT24     654      MECN     H11      HGA3     0.090000        1.0080           0
     72341 WT24     654      MECN     H12      HGA3     0.090000        1.0080           0
     72342 WT24     654      MECN     H13      HGA3     0.090000        1.0080           0
     72343 WT24     654      MECN     C2       CG1N1    0.360000       12.0110           0
     72344 WT24     654      MECN     N3       NG1T1   -0.460000       14.0070           0
     72345 WT24     660      MECN     C1       CG331   -0.170000       12.0110           0
     72346 WT24     660      MECN     H11      HGA3     0.090000        1.0080           0
     72347 WT24     660      MECN     H12      HGA3     0.090000        1.0080           0
     72348 WT24     660      MECN     H13      HGA3     0.090000        1.0080           0
     72349 WT24     660      MECN     C2       CG1N1    0.360000       12.0110           0
     72350 WT24     660      MECN     N3       NG1T1   -0.460000       14.0070           0
     72351 WT24     662      MECN     C1       CG331   -0.170000       12.0110           0
     72352 WT24     662      MECN     H11      HGA3     0.090000        1.0080           0
     72353 WT24     662      MECN     H12      HGA3     0.090000        1.0080           0
     72354 WT24     662      MECN     H13      HGA3     0.090000        1.0080           0
     72355 WT24     662      MECN     C2       CG1N1    0.360000       12.0110           0
     72356 WT24     662      MECN     N3       NG1T1   -0.460000       14.0070           0
     72357 WT24     668      MECN     C1       CG331   -0.170000       12.0110           0
     72358 WT24     668      MECN     H11      HGA3     0.090000        1.0080           0
     72359 WT24     668      MECN     H12      HGA3     0.090000        1.0080           0
     72360 WT24     668      MECN     H13      HGA3     0.090000        1.0080           0
     72361 WT24     668      MECN     C2       CG1N1    0.360000       12.0110           0
     72362 WT24     668      MECN     N3       NG1T1   -0.460000       14.0070           0
     72363 WT24     669      MECN     C1       CG331   -0.170000       12.0110           0
     72364 WT24     669      MECN     H11      HGA3     0.090000        1.0080           0
     72365 WT24     669      MECN     H12      HGA3     0.090000        1.0080           0
     72366 WT24     669      MECN     H13      HGA3     0.090000        1.0080           0
     72367 WT24     669      MECN     C2       CG1N1    0.360000       12.0110           0
     72368 WT24     669      MECN     N3       NG1T1   -0.460000       14.0070           0
     72369 WT24     671      MECN     C1       CG331   -0.170000       12.0110           0
     72370 WT24     671      MECN     H11      HGA3     0.090000        1.0080           0
     72371 WT24     671      MECN     H12      HGA3     0.090000        1.0080           0
     72372 WT24     671      MECN     H13      HGA3     0.090000        1.0080           0
     72373 WT24     671      MECN     C2       CG1N1    0.360000       12.0110           0
     72374 WT24     671      MECN     N3       NG1T1   -0.460000       14.0070           0
     72375 WT24     675      MECN     C1       CG331   -0.170000       12.0110           0
     72376 WT24     675      MECN     H11      HGA3     0.090000        1.0080           0
     72377 WT24     675      MECN     H12      HGA3     0.090000        1.0080           0
     72378 WT24     675      MECN     H13      HGA3     0.090000        1.0080           0
     72379 WT24     675      MECN     C2       CG1N1    0.360000       12.0110           0
     72380 WT24     675      MECN     N3       NG1T1   -0.460000       14.0070           0
     72381 WT24     676      MECN     C1       CG331   -0.170000       12.0110           0
     72382 WT24     676      MECN     H11      HGA3     0.090000        1.0080           0
     72383 WT24     676      MECN     H12      HGA3     0.090000        1.0080           0
     72384 WT24     676      MECN     H13      HGA3     0.090000        1.0080           0
     72385 WT24     676      MECN     C2       CG1N1    0.360000       12.0110           0
     72386 WT24     676      MECN     N3       NG1T1   -0.460000       14.0070           0
     72387 WT24     677      MECN     C1       CG331   -0.170000       12.0110           0
     72388 WT24     677      MECN     H11      HGA3     0.090000        1.0080           0
     72389 WT24     677      MECN     H12      HGA3     0.090000        1.0080           0
     72390 WT24     677      MECN     H13      HGA3     0.090000        1.0080           0
     72391 WT24     677      MECN     C2       CG1N1    0.360000       12.0110           0
     72392 WT24     677      MECN     N3       NG1T1   -0.460000       14.0070           0
     72393 WT24     679      MECN     C1       CG331   -0.170000       12.0110           0
     72394 WT24     679      MECN     H11      HGA3     0.090000        1.0080           0
     72395 WT24     679      MECN     H12      HGA3     0.090000        1.0080           0
     72396 WT24     679      MECN     H13      HGA3     0.090000        1.0080           0
     72397 WT24     679      MECN     C2       CG1N1    0.360000       12.0110           0
     72398 WT24     679      MECN     N3       NG1T1   -0.460000       14.0070           0
     72399 WT24     682      MECN     C1       CG331   -0.170000       12.0110           0
     72400 WT24     682      MECN     H11      HGA3     0.090000        1.0080           0
     72401 WT24     682      MECN     H12      HGA3     0.090000        1.0080           0
     72402 WT24     682      MECN     H13      HGA3     0.090000        1.0080           0
     72403 WT24     682      MECN     C2       CG1N1    0.360000       12.0110           0
     72404 WT24     682      MECN     N3       NG1T1   -0.460000       14.0070           0
     72405 WT24     683      MECN     C1       CG331   -0.170000       12.0110           0
     72406 WT24     683      MECN     H11      HGA3     0.090000        1.0080           0
     72407 WT24     683      MECN     H12      HGA3     0.090000        1.0080           0
     72408 WT24     683      MECN     H13      HGA3     0.090000        1.0080           0
     72409 WT24     683      MECN     C2       CG1N1    0.360000       12.0110           0
     72410 WT24     683      MECN     N3       NG1T1   -0.460000       14.0070           0
     72411 WT24     684      MECN     C1       CG331   -0.170000       12.0110           0
     72412 WT24     684      MECN     H11      HGA3     0.090000        1.0080           0
     72413 WT24     684      MECN     H12      HGA3     0.090000        1.0080           0
     72414 WT24     684      MECN     H13      HGA3     0.090000        1.0080           0
     72415 WT24     684      MECN     C2       CG1N1    0.360000       12.0110           0
     72416 WT24     684      MECN     N3       NG1T1   -0.460000       14.0070           0
     72417 WT24     685      MECN     C1       CG331   -0.170000       12.0110           0
     72418 WT24     685      MECN     H11      HGA3     0.090000        1.0080           0
     72419 WT24     685      MECN     H12      HGA3     0.090000        1.0080           0
     72420 WT24     685      MECN     H13      HGA3     0.090000        1.0080           0
     72421 WT24     685      MECN     C2       CG1N1    0.360000       12.0110           0
     72422 WT24     685      MECN     N3       NG1T1   -0.460000       14.0070           0
     72423 WT24     686      MECN     C1       CG331   -0.170000       12.0110           0
     72424 WT24     686      MECN     H11      HGA3     0.090000        1.0080           0
     72425 WT24     686      MECN     H12      HGA3     0.090000        1.0080           0
     72426 WT24     686      MECN     H13      HGA3     0.090000        1.0080           0
     72427 WT24     686      MECN     C2       CG1N1    0.360000       12.0110           0
     72428 WT24     686      MECN     N3       NG1T1   -0.460000       14.0070           0
     72429 WT24     692      MECN     C1       CG331   -0.170000       12.0110           0
     72430 WT24     692      MECN     H11      HGA3     0.090000        1.0080           0
     72431 WT24     692      MECN     H12      HGA3     0.090000        1.0080           0
     72432 WT24     692      MECN     H13      HGA3     0.090000        1.0080           0
     72433 WT24     692      MECN     C2       CG1N1    0.360000       12.0110           0
     72434 WT24     692      MECN     N3       NG1T1   -0.460000       14.0070           0
     72435 WT24     693      MECN     C1       CG331   -0.170000       12.0110           0
     72436 WT24     693      MECN     H11      HGA3     0.090000        1.0080           0
     72437 WT24     693      MECN     H12      HGA3     0.090000        1.0080           0
     72438 WT24     693      MECN     H13      HGA3     0.090000        1.0080           0
     72439 WT24     693      MECN     C2       CG1N1    0.360000       12.0110           0
     72440 WT24     693      MECN     N3       NG1T1   -0.460000       14.0070           0
     72441 WT24     695      MECN     C1       CG331   -0.170000       12.0110           0
     72442 WT24     695      MECN     H11      HGA3     0.090000        1.0080           0
     72443 WT24     695      MECN     H12      HGA3     0.090000        1.0080           0
     72444 WT24     695      MECN     H13      HGA3     0.090000        1.0080           0
     72445 WT24     695      MECN     C2       CG1N1    0.360000       12.0110           0
     72446 WT24     695      MECN     N3       NG1T1   -0.460000       14.0070           0
     72447 WT24     696      MECN     C1       CG331   -0.170000       12.0110           0
     72448 WT24     696      MECN     H11      HGA3     0.090000        1.0080           0
     72449 WT24     696      MECN     H12      HGA3     0.090000        1.0080           0
     72450 WT24     696      MECN     H13      HGA3     0.090000        1.0080           0
     72451 WT24     696      MECN     C2       CG1N1    0.360000       12.0110           0
     72452 WT24     696      MECN     N3       NG1T1   -0.460000       14.0070           0
     72453 WT24     697      MECN     C1       CG331   -0.170000       12.0110           0
     72454 WT24     697      MECN     H11      HGA3     0.090000        1.0080           0
     72455 WT24     697      MECN     H12      HGA3     0.090000        1.0080           0
     72456 WT24     697      MECN     H13      HGA3     0.090000        1.0080           0
     72457 WT24     697      MECN     C2       CG1N1    0.360000       12.0110           0
     72458 WT24     697      MECN     N3       NG1T1   -0.460000       14.0070           0
     72459 WT24     701      MECN     C1       CG331   -0.170000       12.0110           0
     72460 WT24     701      MECN     H11      HGA3     0.090000        1.0080           0
     72461 WT24     701      MECN     H12      HGA3     0.090000        1.0080           0
     72462 WT24     701      MECN     H13      HGA3     0.090000        1.0080           0
     72463 WT24     701      MECN     C2       CG1N1    0.360000       12.0110           0
     72464 WT24     701      MECN     N3       NG1T1   -0.460000       14.0070           0
     72465 WT24     702      MECN     C1       CG331   -0.170000       12.0110           0
     72466 WT24     702      MECN     H11      HGA3     0.090000        1.0080           0
     72467 WT24     702      MECN     H12      HGA3     0.090000        1.0080           0
     72468 WT24     702      MECN     H13      HGA3     0.090000        1.0080           0
     72469 WT24     702      MECN     C2       CG1N1    0.360000       12.0110           0
     72470 WT24     702      MECN     N3       NG1T1   -0.460000       14.0070           0
     72471 WT24     707      MECN     C1       CG331   -0.170000       12.0110           0
     72472 WT24     707      MECN     H11      HGA3     0.090000        1.0080           0
     72473 WT24     707      MECN     H12      HGA3     0.090000        1.0080           0
     72474 WT24     707      MECN     H13      HGA3     0.090000        1.0080           0
     72475 WT24     707      MECN     C2       CG1N1    0.360000       12.0110           0
     72476 WT24     707      MECN     N3       NG1T1   -0.460000       14.0070           0
     72477 WT24     708      MECN     C1       CG331   -0.170000       12.0110           0
     72478 WT24     708      MECN     H11      HGA3     0.090000        1.0080           0
     72479 WT24     708      MECN     H12      HGA3     0.090000        1.0080           0
     72480 WT24     708      MECN     H13      HGA3     0.090000        1.0080           0
     72481 WT24     708      MECN     C2       CG1N1    0.360000       12.0110           0
     72482 WT24     708      MECN     N3       NG1T1   -0.460000       14.0070           0
     72483 WT24     709      MECN     C1       CG331   -0.170000       12.0110           0
     72484 WT24     709      MECN     H11      HGA3     0.090000        1.0080           0
     72485 WT24     709      MECN     H12      HGA3     0.090000        1.0080           0
     72486 WT24     709      MECN     H13      HGA3     0.090000        1.0080           0
     72487 WT24     709      MECN     C2       CG1N1    0.360000       12.0110           0
     72488 WT24     709      MECN     N3       NG1T1   -0.460000       14.0070           0
     72489 WT24     711      MECN     C1       CG331   -0.170000       12.0110           0
     72490 WT24     711      MECN     H11      HGA3     0.090000        1.0080           0
     72491 WT24     711      MECN     H12      HGA3     0.090000        1.0080           0
     72492 WT24     711      MECN     H13      HGA3     0.090000        1.0080           0
     72493 WT24     711      MECN     C2       CG1N1    0.360000       12.0110           0
     72494 WT24     711      MECN     N3       NG1T1   -0.460000       14.0070           0
     72495 WT24     712      MECN     C1       CG331   -0.170000       12.0110           0
     72496 WT24     712      MECN     H11      HGA3     0.090000        1.0080           0
     72497 WT24     712      MECN     H12      HGA3     0.090000        1.0080           0
     72498 WT24     712      MECN     H13      HGA3     0.090000        1.0080           0
     72499 WT24     712      MECN     C2       CG1N1    0.360000       12.0110           0
     72500 WT24     712      MECN     N3       NG1T1   -0.460000       14.0070           0
     72501 WT24     713      MECN     C1       CG331   -0.170000       12.0110           0
     72502 WT24     713      MECN     H11      HGA3     0.090000        1.0080           0
     72503 WT24     713      MECN     H12      HGA3     0.090000        1.0080           0
     72504 WT24     713      MECN     H13      HGA3     0.090000        1.0080           0
     72505 WT24     713      MECN     C2       CG1N1    0.360000       12.0110           0
     72506 WT24     713      MECN     N3       NG1T1   -0.460000       14.0070           0
     72507 WT24     714      MECN     C1       CG331   -0.170000       12.0110           0
     72508 WT24     714      MECN     H11      HGA3     0.090000        1.0080           0
     72509 WT24     714      MECN     H12      HGA3     0.090000        1.0080           0
     72510 WT24     714      MECN     H13      HGA3     0.090000        1.0080           0
     72511 WT24     714      MECN     C2       CG1N1    0.360000       12.0110           0
     72512 WT24     714      MECN     N3       NG1T1   -0.460000       14.0070           0
     72513 WT24     716      MECN     C1       CG331   -0.170000       12.0110           0
     72514 WT24     716      MECN     H11      HGA3     0.090000        1.0080           0
     72515 WT24     716      MECN     H12      HGA3     0.090000        1.0080           0
     72516 WT24     716      MECN     H13      HGA3     0.090000        1.0080           0
     72517 WT24     716      MECN     C2       CG1N1    0.360000       12.0110           0
     72518 WT24     716      MECN     N3       NG1T1   -0.460000       14.0070           0
     72519 WT24     717      MECN     C1       CG331   -0.170000       12.0110           0
     72520 WT24     717      MECN     H11      HGA3     0.090000        1.0080           0
     72521 WT24     717      MECN     H12      HGA3     0.090000        1.0080           0
     72522 WT24     717      MECN     H13      HGA3     0.090000        1.0080           0
     72523 WT24     717      MECN     C2       CG1N1    0.360000       12.0110           0
     72524 WT24     717      MECN     N3       NG1T1   -0.460000       14.0070           0
     72525 WT24     720      MECN     C1       CG331   -0.170000       12.0110           0
     72526 WT24     720      MECN     H11      HGA3     0.090000        1.0080           0
     72527 WT24     720      MECN     H12      HGA3     0.090000        1.0080           0
     72528 WT24     720      MECN     H13      HGA3     0.090000        1.0080           0
     72529 WT24     720      MECN     C2       CG1N1    0.360000       12.0110           0
     72530 WT24     720      MECN     N3       NG1T1   -0.460000       14.0070           0
     72531 WT24     730      MECN     C1       CG331   -0.170000       12.0110           0
     72532 WT24     730      MECN     H11      HGA3     0.090000        1.0080           0
     72533 WT24     730      MECN     H12      HGA3     0.090000        1.0080           0
     72534 WT24     730      MECN     H13      HGA3     0.090000        1.0080           0
     72535 WT24     730      MECN     C2       CG1N1    0.360000       12.0110           0
     72536 WT24     730      MECN     N3       NG1T1   -0.460000       14.0070           0
     72537 WT24     731      MECN     C1       CG331   -0.170000       12.0110           0
     72538 WT24     731      MECN     H11      HGA3     0.090000        1.0080           0
     72539 WT24     731      MECN     H12      HGA3     0.090000        1.0080           0
     72540 WT24     731      MECN     H13      HGA3     0.090000        1.0080           0
     72541 WT24     731      MECN     C2       CG1N1    0.360000       12.0110           0
     72542 WT24     731      MECN     N3       NG1T1   -0.460000       14.0070           0
     72543 WT24     732      MECN     C1       CG331   -0.170000       12.0110           0
     72544 WT24     732      MECN     H11      HGA3     0.090000        1.0080           0
     72545 WT24     732      MECN     H12      HGA3     0.090000        1.0080           0
     72546 WT24     732      MECN     H13      HGA3     0.090000        1.0080           0
     72547 WT24     732      MECN     C2       CG1N1    0.360000       12.0110           0
     72548 WT24     732      MECN     N3       NG1T1   -0.460000       14.0070           0
     72549 WT24     733      MECN     C1       CG331   -0.170000       12.0110           0
     72550 WT24     733      MECN     H11      HGA3     0.090000        1.0080           0
     72551 WT24     733      MECN     H12      HGA3     0.090000        1.0080           0
     72552 WT24     733      MECN     H13      HGA3     0.090000        1.0080           0
     72553 WT24     733      MECN     C2       CG1N1    0.360000       12.0110           0
     72554 WT24     733      MECN     N3       NG1T1   -0.460000       14.0070           0
     72555 WT24     734      MECN     C1       CG331   -0.170000       12.0110           0
     72556 WT24     734      MECN     H11      HGA3     0.090000        1.0080           0
     72557 WT24     734      MECN     H12      HGA3     0.090000        1.0080           0
     72558 WT24     734      MECN     H13      HGA3     0.090000        1.0080           0
     72559 WT24     734      MECN     C2       CG1N1    0.360000       12.0110           0
     72560 WT24     734      MECN     N3       NG1T1   -0.460000       14.0070           0
     72561 WT24     735      MECN     C1       CG331   -0.170000       12.0110           0
     72562 WT24     735      MECN     H11      HGA3     0.090000        1.0080           0
     72563 WT24     735      MECN     H12      HGA3     0.090000        1.0080           0
     72564 WT24     735      MECN     H13      HGA3     0.090000        1.0080           0
     72565 WT24     735      MECN     C2       CG1N1    0.360000       12.0110           0
     72566 WT24     735      MECN     N3       NG1T1   -0.460000       14.0070           0
     72567 WT24     736      MECN     C1       CG331   -0.170000       12.0110           0
     72568 WT24     736      MECN     H11      HGA3     0.090000        1.0080           0
     72569 WT24     736      MECN     H12      HGA3     0.090000        1.0080           0
     72570 WT24     736      MECN     H13      HGA3     0.090000        1.0080           0
     72571 WT24     736      MECN     C2       CG1N1    0.360000       12.0110           0
     72572 WT24     736      MECN     N3       NG1T1   -0.460000       14.0070           0
     72573 WT24     737      MECN     C1       CG331   -0.170000       12.0110           0
     72574 WT24     737      MECN     H11      HGA3     0.090000        1.0080           0
     72575 WT24     737      MECN     H12      HGA3     0.090000        1.0080           0
     72576 WT24     737      MECN     H13      HGA3     0.090000        1.0080           0
     72577 WT24     737      MECN     C2       CG1N1    0.360000       12.0110           0
     72578 WT24     737      MECN     N3       NG1T1   -0.460000       14.0070           0
     72579 WT24     739      MECN     C1       CG331   -0.170000       12.0110           0
     72580 WT24     739      MECN     H11      HGA3     0.090000        1.0080           0
     72581 WT24     739      MECN     H12      HGA3     0.090000        1.0080           0
     72582 WT24     739      MECN     H13      HGA3     0.090000        1.0080           0
     72583 WT24     739      MECN     C2       CG1N1    0.360000       12.0110           0
     72584 WT24     739      MECN     N3       NG1T1   -0.460000       14.0070           0
     72585 WT24     740      MECN     C1       CG331   -0.170000       12.0110           0
     72586 WT24     740      MECN     H11      HGA3     0.090000        1.0080           0
     72587 WT24     740      MECN     H12      HGA3     0.090000        1.0080           0
     72588 WT24     740      MECN     H13      HGA3     0.090000        1.0080           0
     72589 WT24     740      MECN     C2       CG1N1    0.360000       12.0110           0
     72590 WT24     740      MECN     N3       NG1T1   -0.460000       14.0070           0
     72591 WT24     741      MECN     C1       CG331   -0.170000       12.0110           0
     72592 WT24     741      MECN     H11      HGA3     0.090000        1.0080           0
     72593 WT24     741      MECN     H12      HGA3     0.090000        1.0080           0
     72594 WT24     741      MECN     H13      HGA3     0.090000        1.0080           0
     72595 WT24     741      MECN     C2       CG1N1    0.360000       12.0110           0
     72596 WT24     741      MECN     N3       NG1T1   -0.460000       14.0070           0
     72597 WT24     743      MECN     C1       CG331   -0.170000       12.0110           0
     72598 WT24     743      MECN     H11      HGA3     0.090000        1.0080           0
     72599 WT24     743      MECN     H12      HGA3     0.090000        1.0080           0
     72600 WT24     743      MECN     H13      HGA3     0.090000        1.0080           0
     72601 WT24     743      MECN     C2       CG1N1    0.360000       12.0110           0
     72602 WT24     743      MECN     N3       NG1T1   -0.460000       14.0070           0
     72603 WT24     744      MECN     C1       CG331   -0.170000       12.0110           0
     72604 WT24     744      MECN     H11      HGA3     0.090000        1.0080           0
     72605 WT24     744      MECN     H12      HGA3     0.090000        1.0080           0
     72606 WT24     744      MECN     H13      HGA3     0.090000        1.0080           0
     72607 WT24     744      MECN     C2       CG1N1    0.360000       12.0110           0
     72608 WT24     744      MECN     N3       NG1T1   -0.460000       14.0070           0
     72609 WT24     745      MECN     C1       CG331   -0.170000       12.0110           0
     72610 WT24     745      MECN     H11      HGA3     0.090000        1.0080           0
     72611 WT24     745      MECN     H12      HGA3     0.090000        1.0080           0
     72612 WT24     745      MECN     H13      HGA3     0.090000        1.0080           0
     72613 WT24     745      MECN     C2       CG1N1    0.360000       12.0110           0
     72614 WT24     745      MECN     N3       NG1T1   -0.460000       14.0070           0
     72615 WT24     746      MECN     C1       CG331   -0.170000       12.0110           0
     72616 WT24     746      MECN     H11      HGA3     0.090000        1.0080           0
     72617 WT24     746      MECN     H12      HGA3     0.090000        1.0080           0
     72618 WT24     746      MECN     H13      HGA3     0.090000        1.0080           0
     72619 WT24     746      MECN     C2       CG1N1    0.360000       12.0110           0
     72620 WT24     746      MECN     N3       NG1T1   -0.460000       14.0070           0
     72621 WT24     747      MECN     C1       CG331   -0.170000       12.0110           0
     72622 WT24     747      MECN     H11      HGA3     0.090000        1.0080           0
     72623 WT24     747      MECN     H12      HGA3     0.090000        1.0080           0
     72624 WT24     747      MECN     H13      HGA3     0.090000        1.0080           0
     72625 WT24     747      MECN     C2       CG1N1    0.360000       12.0110           0
     72626 WT24     747      MECN     N3       NG1T1   -0.460000       14.0070           0
     72627 WT24     751      MECN     C1       CG331   -0.170000       12.0110           0
     72628 WT24     751      MECN     H11      HGA3     0.090000        1.0080           0
     72629 WT24     751      MECN     H12      HGA3     0.090000        1.0080           0
     72630 WT24     751      MECN     H13      HGA3     0.090000        1.0080           0
     72631 WT24     751      MECN     C2       CG1N1    0.360000       12.0110           0
     72632 WT24     751      MECN     N3       NG1T1   -0.460000       14.0070           0
     72633 WT24     752      MECN     C1       CG331   -0.170000       12.0110           0
     72634 WT24     752      MECN     H11      HGA3     0.090000        1.0080           0
     72635 WT24     752      MECN     H12      HGA3     0.090000        1.0080           0
     72636 WT24     752      MECN     H13      HGA3     0.090000        1.0080           0
     72637 WT24     752      MECN     C2       CG1N1    0.360000       12.0110           0
     72638 WT24     752      MECN     N3       NG1T1   -0.460000       14.0070           0
     72639 WT24     753      MECN     C1       CG331   -0.170000       12.0110           0
     72640 WT24     753      MECN     H11      HGA3     0.090000        1.0080           0
     72641 WT24     753      MECN     H12      HGA3     0.090000        1.0080           0
     72642 WT24     753      MECN     H13      HGA3     0.090000        1.0080           0
     72643 WT24     753      MECN     C2       CG1N1    0.360000       12.0110           0
     72644 WT24     753      MECN     N3       NG1T1   -0.460000       14.0070           0
     72645 WT24     754      MECN     C1       CG331   -0.170000       12.0110           0
     72646 WT24     754      MECN     H11      HGA3     0.090000        1.0080           0
     72647 WT24     754      MECN     H12      HGA3     0.090000        1.0080           0
     72648 WT24     754      MECN     H13      HGA3     0.090000        1.0080           0
     72649 WT24     754      MECN     C2       CG1N1    0.360000       12.0110           0
     72650 WT24     754      MECN     N3       NG1T1   -0.460000       14.0070           0
     72651 WT24     755      MECN     C1       CG331   -0.170000       12.0110           0
     72652 WT24     755      MECN     H11      HGA3     0.090000        1.0080           0
     72653 WT24     755      MECN     H12      HGA3     0.090000        1.0080           0
     72654 WT24     755      MECN     H13      HGA3     0.090000        1.0080           0
     72655 WT24     755      MECN     C2       CG1N1    0.360000       12.0110           0
     72656 WT24     755      MECN     N3       NG1T1   -0.460000       14.0070           0
     72657 WT24     756      MECN     C1       CG331   -0.170000       12.0110           0
     72658 WT24     756      MECN     H11      HGA3     0.090000        1.0080           0
     72659 WT24     756      MECN     H12      HGA3     0.090000        1.0080           0
     72660 WT24     756      MECN     H13      HGA3     0.090000        1.0080           0
     72661 WT24     756      MECN     C2       CG1N1    0.360000       12.0110           0
     72662 WT24     756      MECN     N3       NG1T1   -0.460000       14.0070           0
     72663 WT24     757      MECN     C1       CG331   -0.170000       12.0110           0
     72664 WT24     757      MECN     H11      HGA3     0.090000        1.0080           0
     72665 WT24     757      MECN     H12      HGA3     0.090000        1.0080           0
     72666 WT24     757      MECN     H13      HGA3     0.090000        1.0080           0
     72667 WT24     757      MECN     C2       CG1N1    0.360000       12.0110           0
     72668 WT24     757      MECN     N3       NG1T1   -0.460000       14.0070           0
     72669 WT24     759      MECN     C1       CG331   -0.170000       12.0110           0
     72670 WT24     759      MECN     H11      HGA3     0.090000        1.0080           0
     72671 WT24     759      MECN     H12      HGA3     0.090000        1.0080           0
     72672 WT24     759      MECN     H13      HGA3     0.090000        1.0080           0
     72673 WT24     759      MECN     C2       CG1N1    0.360000       12.0110           0
     72674 WT24     759      MECN     N3       NG1T1   -0.460000       14.0070           0
     72675 WT24     760      MECN     C1       CG331   -0.170000       12.0110           0
     72676 WT24     760      MECN     H11      HGA3     0.090000        1.0080           0
     72677 WT24     760      MECN     H12      HGA3     0.090000        1.0080           0
     72678 WT24     760      MECN     H13      HGA3     0.090000        1.0080           0
     72679 WT24     760      MECN     C2       CG1N1    0.360000       12.0110           0
     72680 WT24     760      MECN     N3       NG1T1   -0.460000       14.0070           0
     72681 WT24     761      MECN     C1       CG331   -0.170000       12.0110           0
     72682 WT24     761      MECN     H11      HGA3     0.090000        1.0080           0
     72683 WT24     761      MECN     H12      HGA3     0.090000        1.0080           0
     72684 WT24     761      MECN     H13      HGA3     0.090000        1.0080           0
     72685 WT24     761      MECN     C2       CG1N1    0.360000       12.0110           0
     72686 WT24     761      MECN     N3       NG1T1   -0.460000       14.0070           0
     72687 WT24     763      MECN     C1       CG331   -0.170000       12.0110           0
     72688 WT24     763      MECN     H11      HGA3     0.090000        1.0080           0
     72689 WT24     763      MECN     H12      HGA3     0.090000        1.0080           0
     72690 WT24     763      MECN     H13      HGA3     0.090000        1.0080           0
     72691 WT24     763      MECN     C2       CG1N1    0.360000       12.0110           0
     72692 WT24     763      MECN     N3       NG1T1   -0.460000       14.0070           0
     72693 WT24     764      MECN     C1       CG331   -0.170000       12.0110           0
     72694 WT24     764      MECN     H11      HGA3     0.090000        1.0080           0
     72695 WT24     764      MECN     H12      HGA3     0.090000        1.0080           0
     72696 WT24     764      MECN     H13      HGA3     0.090000        1.0080           0
     72697 WT24     764      MECN     C2       CG1N1    0.360000       12.0110           0
     72698 WT24     764      MECN     N3       NG1T1   -0.460000       14.0070           0
     72699 WT24     766      MECN     C1       CG331   -0.170000       12.0110           0
     72700 WT24     766      MECN     H11      HGA3     0.090000        1.0080           0
     72701 WT24     766      MECN     H12      HGA3     0.090000        1.0080           0
     72702 WT24     766      MECN     H13      HGA3     0.090000        1.0080           0
     72703 WT24     766      MECN     C2       CG1N1    0.360000       12.0110           0
     72704 WT24     766      MECN     N3       NG1T1   -0.460000       14.0070           0
     72705 WT24     769      MECN     C1       CG331   -0.170000       12.0110           0
     72706 WT24     769      MECN     H11      HGA3     0.090000        1.0080           0
     72707 WT24     769      MECN     H12      HGA3     0.090000        1.0080           0
     72708 WT24     769      MECN     H13      HGA3     0.090000        1.0080           0
     72709 WT24     769      MECN     C2       CG1N1    0.360000       12.0110           0
     72710 WT24     769      MECN     N3       NG1T1   -0.460000       14.0070           0
     72711 WT24     773      MECN     C1       CG331   -0.170000       12.0110           0
     72712 WT24     773      MECN     H11      HGA3     0.090000        1.0080           0
     72713 WT24     773      MECN     H12      HGA3     0.090000        1.0080           0
     72714 WT24     773      MECN     H13      HGA3     0.090000        1.0080           0
     72715 WT24     773      MECN     C2       CG1N1    0.360000       12.0110           0
     72716 WT24     773      MECN     N3       NG1T1   -0.460000       14.0070           0
     72717 WT24     775      MECN     C1       CG331   -0.170000       12.0110           0
     72718 WT24     775      MECN     H11      HGA3     0.090000        1.0080           0
     72719 WT24     775      MECN     H12      HGA3     0.090000        1.0080           0
     72720 WT24     775      MECN     H13      HGA3     0.090000        1.0080           0
     72721 WT24     775      MECN     C2       CG1N1    0.360000       12.0110           0
     72722 WT24     775      MECN     N3       NG1T1   -0.460000       14.0070           0
     72723 WT24     779      MECN     C1       CG331   -0.170000       12.0110           0
     72724 WT24     779      MECN     H11      HGA3     0.090000        1.0080           0
     72725 WT24     779      MECN     H12      HGA3     0.090000        1.0080           0
     72726 WT24     779      MECN     H13      HGA3     0.090000        1.0080           0
     72727 WT24     779      MECN     C2       CG1N1    0.360000       12.0110           0
     72728 WT24     779      MECN     N3       NG1T1   -0.460000       14.0070           0
     72729 WT24     782      MECN     C1       CG331   -0.170000       12.0110           0
     72730 WT24     782      MECN     H11      HGA3     0.090000        1.0080           0
     72731 WT24     782      MECN     H12      HGA3     0.090000        1.0080           0
     72732 WT24     782      MECN     H13      HGA3     0.090000        1.0080           0
     72733 WT24     782      MECN     C2       CG1N1    0.360000       12.0110           0
     72734 WT24     782      MECN     N3       NG1T1   -0.460000       14.0070           0
     72735 WT24     784      MECN     C1       CG331   -0.170000       12.0110           0
     72736 WT24     784      MECN     H11      HGA3     0.090000        1.0080           0
     72737 WT24     784      MECN     H12      HGA3     0.090000        1.0080           0
     72738 WT24     784      MECN     H13      HGA3     0.090000        1.0080           0
     72739 WT24     784      MECN     C2       CG1N1    0.360000       12.0110           0
     72740 WT24     784      MECN     N3       NG1T1   -0.460000       14.0070           0
     72741 WT24     786      MECN     C1       CG331   -0.170000       12.0110           0
     72742 WT24     786      MECN     H11      HGA3     0.090000        1.0080           0
     72743 WT24     786      MECN     H12      HGA3     0.090000        1.0080           0
     72744 WT24     786      MECN     H13      HGA3     0.090000        1.0080           0
     72745 WT24     786      MECN     C2       CG1N1    0.360000       12.0110           0
     72746 WT24     786      MECN     N3       NG1T1   -0.460000       14.0070           0
     72747 WT24     788      MECN     C1       CG331   -0.170000       12.0110           0
     72748 WT24     788      MECN     H11      HGA3     0.090000        1.0080           0
     72749 WT24     788      MECN     H12      HGA3     0.090000        1.0080           0
     72750 WT24     788      MECN     H13      HGA3     0.090000        1.0080           0
     72751 WT24     788      MECN     C2       CG1N1    0.360000       12.0110           0
     72752 WT24     788      MECN     N3       NG1T1   -0.460000       14.0070           0
     72753 WT24     789      MECN     C1       CG331   -0.170000       12.0110           0
     72754 WT24     789      MECN     H11      HGA3     0.090000        1.0080           0
     72755 WT24     789      MECN     H12      HGA3     0.090000        1.0080           0
     72756 WT24     789      MECN     H13      HGA3     0.090000        1.0080           0
     72757 WT24     789      MECN     C2       CG1N1    0.360000       12.0110           0
     72758 WT24     789      MECN     N3       NG1T1   -0.460000       14.0070           0
     72759 WT24     792      MECN     C1       CG331   -0.170000       12.0110           0
     72760 WT24     792      MECN     H11      HGA3     0.090000        1.0080           0
     72761 WT24     792      MECN     H12      HGA3     0.090000        1.0080           0
     72762 WT24     792      MECN     H13      HGA3     0.090000        1.0080           0
     72763 WT24     792      MECN     C2       CG1N1    0.360000       12.0110           0
     72764 WT24     792      MECN     N3       NG1T1   -0.460000       14.0070           0
     72765 WT24     795      MECN     C1       CG331   -0.170000       12.0110           0
     72766 WT24     795      MECN     H11      HGA3     0.090000        1.0080           0
     72767 WT24     795      MECN     H12      HGA3     0.090000        1.0080           0
     72768 WT24     795      MECN     H13      HGA3     0.090000        1.0080           0
     72769 WT24     795      MECN     C2       CG1N1    0.360000       12.0110           0
     72770 WT24     795      MECN     N3       NG1T1   -0.460000       14.0070           0
     72771 WT24     796      MECN     C1       CG331   -0.170000       12.0110           0
     72772 WT24     796      MECN     H11      HGA3     0.090000        1.0080           0
     72773 WT24     796      MECN     H12      HGA3     0.090000        1.0080           0
     72774 WT24     796      MECN     H13      HGA3     0.090000        1.0080           0
     72775 WT24     796      MECN     C2       CG1N1    0.360000       12.0110           0
     72776 WT24     796      MECN     N3       NG1T1   -0.460000       14.0070           0
     72777 WT24     798      MECN     C1       CG331   -0.170000       12.0110           0
     72778 WT24     798      MECN     H11      HGA3     0.090000        1.0080           0
     72779 WT24     798      MECN     H12      HGA3     0.090000        1.0080           0
     72780 WT24     798      MECN     H13      HGA3     0.090000        1.0080           0
     72781 WT24     798      MECN     C2       CG1N1    0.360000       12.0110           0
     72782 WT24     798      MECN     N3       NG1T1   -0.460000       14.0070           0
     72783 WT24     800      MECN     C1       CG331   -0.170000       12.0110           0
     72784 WT24     800      MECN     H11      HGA3     0.090000        1.0080           0
     72785 WT24     800      MECN     H12      HGA3     0.090000        1.0080           0
     72786 WT24     800      MECN     H13      HGA3     0.090000        1.0080           0
     72787 WT24     800      MECN     C2       CG1N1    0.360000       12.0110           0
     72788 WT24     800      MECN     N3       NG1T1   -0.460000       14.0070           0
     72789 WT24     801      MECN     C1       CG331   -0.170000       12.0110           0
     72790 WT24     801      MECN     H11      HGA3     0.090000        1.0080           0
     72791 WT24     801      MECN     H12      HGA3     0.090000        1.0080           0
     72792 WT24     801      MECN     H13      HGA3     0.090000        1.0080           0
     72793 WT24     801      MECN     C2       CG1N1    0.360000       12.0110           0
     72794 WT24     801      MECN     N3       NG1T1   -0.460000       14.0070           0
     72795 WT24     802      MECN     C1       CG331   -0.170000       12.0110           0
     72796 WT24     802      MECN     H11      HGA3     0.090000        1.0080           0
     72797 WT24     802      MECN     H12      HGA3     0.090000        1.0080           0
     72798 WT24     802      MECN     H13      HGA3     0.090000        1.0080           0
     72799 WT24     802      MECN     C2       CG1N1    0.360000       12.0110           0
     72800 WT24     802      MECN     N3       NG1T1   -0.460000       14.0070           0
     72801 WT24     803      MECN     C1       CG331   -0.170000       12.0110           0
     72802 WT24     803      MECN     H11      HGA3     0.090000        1.0080           0
     72803 WT24     803      MECN     H12      HGA3     0.090000        1.0080           0
     72804 WT24     803      MECN     H13      HGA3     0.090000        1.0080           0
     72805 WT24     803      MECN     C2       CG1N1    0.360000       12.0110           0
     72806 WT24     803      MECN     N3       NG1T1   -0.460000       14.0070           0
     72807 WT24     809      MECN     C1       CG331   -0.170000       12.0110           0
     72808 WT24     809      MECN     H11      HGA3     0.090000        1.0080           0
     72809 WT24     809      MECN     H12      HGA3     0.090000        1.0080           0
     72810 WT24     809      MECN     H13      HGA3     0.090000        1.0080           0
     72811 WT24     809      MECN     C2       CG1N1    0.360000       12.0110           0
     72812 WT24     809      MECN     N3       NG1T1   -0.460000       14.0070           0
     72813 WT24     810      MECN     C1       CG331   -0.170000       12.0110           0
     72814 WT24     810      MECN     H11      HGA3     0.090000        1.0080           0
     72815 WT24     810      MECN     H12      HGA3     0.090000        1.0080           0
     72816 WT24     810      MECN     H13      HGA3     0.090000        1.0080           0
     72817 WT24     810      MECN     C2       CG1N1    0.360000       12.0110           0
     72818 WT24     810      MECN     N3       NG1T1   -0.460000       14.0070           0
     72819 WT24     812      MECN     C1       CG331   -0.170000       12.0110           0
     72820 WT24     812      MECN     H11      HGA3     0.090000        1.0080           0
     72821 WT24     812      MECN     H12      HGA3     0.090000        1.0080           0
     72822 WT24     812      MECN     H13      HGA3     0.090000        1.0080           0
     72823 WT24     812      MECN     C2       CG1N1    0.360000       12.0110           0
     72824 WT24     812      MECN     N3       NG1T1   -0.460000       14.0070           0
     72825 WT24     813      MECN     C1       CG331   -0.170000       12.0110           0
     72826 WT24     813      MECN     H11      HGA3     0.090000        1.0080           0
     72827 WT24     813      MECN     H12      HGA3     0.090000        1.0080           0
     72828 WT24     813      MECN     H13      HGA3     0.090000        1.0080           0
     72829 WT24     813      MECN     C2       CG1N1    0.360000       12.0110           0
     72830 WT24     813      MECN     N3       NG1T1   -0.460000       14.0070           0
     72831 WT24     814      MECN     C1       CG331   -0.170000       12.0110           0
     72832 WT24     814      MECN     H11      HGA3     0.090000        1.0080           0
     72833 WT24     814      MECN     H12      HGA3     0.090000        1.0080           0
     72834 WT24     814      MECN     H13      HGA3     0.090000        1.0080           0
     72835 WT24     814      MECN     C2       CG1N1    0.360000       12.0110           0
     72836 WT24     814      MECN     N3       NG1T1   -0.460000       14.0070           0
     72837 WT24     815      MECN     C1       CG331   -0.170000       12.0110           0
     72838 WT24     815      MECN     H11      HGA3     0.090000        1.0080           0
     72839 WT24     815      MECN     H12      HGA3     0.090000        1.0080           0
     72840 WT24     815      MECN     H13      HGA3     0.090000        1.0080           0
     72841 WT24     815      MECN     C2       CG1N1    0.360000       12.0110           0
     72842 WT24     815      MECN     N3       NG1T1   -0.460000       14.0070           0
     72843 WT24     816      MECN     C1       CG331   -0.170000       12.0110           0
     72844 WT24     816      MECN     H11      HGA3     0.090000        1.0080           0
     72845 WT24     816      MECN     H12      HGA3     0.090000        1.0080           0
     72846 WT24     816      MECN     H13      HGA3     0.090000        1.0080           0
     72847 WT24     816      MECN     C2       CG1N1    0.360000       12.0110           0
     72848 WT24     816      MECN     N3       NG1T1   -0.460000       14.0070           0
     72849 WT24     819      MECN     C1       CG331   -0.170000       12.0110           0
     72850 WT24     819      MECN     H11      HGA3     0.090000        1.0080           0
     72851 WT24     819      MECN     H12      HGA3     0.090000        1.0080           0
     72852 WT24     819      MECN     H13      HGA3     0.090000        1.0080           0
     72853 WT24     819      MECN     C2       CG1N1    0.360000       12.0110           0
     72854 WT24     819      MECN     N3       NG1T1   -0.460000       14.0070           0
     72855 WT24     820      MECN     C1       CG331   -0.170000       12.0110           0
     72856 WT24     820      MECN     H11      HGA3     0.090000        1.0080           0
     72857 WT24     820      MECN     H12      HGA3     0.090000        1.0080           0
     72858 WT24     820      MECN     H13      HGA3     0.090000        1.0080           0
     72859 WT24     820      MECN     C2       CG1N1    0.360000       12.0110           0
     72860 WT24     820      MECN     N3       NG1T1   -0.460000       14.0070           0
     72861 WT24     822      MECN     C1       CG331   -0.170000       12.0110           0
     72862 WT24     822      MECN     H11      HGA3     0.090000        1.0080           0
     72863 WT24     822      MECN     H12      HGA3     0.090000        1.0080           0
     72864 WT24     822      MECN     H13      HGA3     0.090000        1.0080           0
     72865 WT24     822      MECN     C2       CG1N1    0.360000       12.0110           0
     72866 WT24     822      MECN     N3       NG1T1   -0.460000       14.0070           0
     72867 WT24     824      MECN     C1       CG331   -0.170000       12.0110           0
     72868 WT24     824      MECN     H11      HGA3     0.090000        1.0080           0
     72869 WT24     824      MECN     H12      HGA3     0.090000        1.0080           0
     72870 WT24     824      MECN     H13      HGA3     0.090000        1.0080           0
     72871 WT24     824      MECN     C2       CG1N1    0.360000       12.0110           0
     72872 WT24     824      MECN     N3       NG1T1   -0.460000       14.0070           0
     72873 WT24     826      MECN     C1       CG331   -0.170000       12.0110           0
     72874 WT24     826      MECN     H11      HGA3     0.090000        1.0080           0
     72875 WT24     826      MECN     H12      HGA3     0.090000        1.0080           0
     72876 WT24     826      MECN     H13      HGA3     0.090000        1.0080           0
     72877 WT24     826      MECN     C2       CG1N1    0.360000       12.0110           0
     72878 WT24     826      MECN     N3       NG1T1   -0.460000       14.0070           0
     72879 WT24     829      MECN     C1       CG331   -0.170000       12.0110           0
     72880 WT24     829      MECN     H11      HGA3     0.090000        1.0080           0
     72881 WT24     829      MECN     H12      HGA3     0.090000        1.0080           0
     72882 WT24     829      MECN     H13      HGA3     0.090000        1.0080           0
     72883 WT24     829      MECN     C2       CG1N1    0.360000       12.0110           0
     72884 WT24     829      MECN     N3       NG1T1   -0.460000       14.0070           0
     72885 WT24     830      MECN     C1       CG331   -0.170000       12.0110           0
     72886 WT24     830      MECN     H11      HGA3     0.090000        1.0080           0
     72887 WT24     830      MECN     H12      HGA3     0.090000        1.0080           0
     72888 WT24     830      MECN     H13      HGA3     0.090000        1.0080           0
     72889 WT24     830      MECN     C2       CG1N1    0.360000       12.0110           0
     72890 WT24     830      MECN     N3       NG1T1   -0.460000       14.0070           0
     72891 WT24     831      MECN     C1       CG331   -0.170000       12.0110           0
     72892 WT24     831      MECN     H11      HGA3     0.090000        1.0080           0
     72893 WT24     831      MECN     H12      HGA3     0.090000        1.0080           0
     72894 WT24     831      MECN     H13      HGA3     0.090000        1.0080           0
     72895 WT24     831      MECN     C2       CG1N1    0.360000       12.0110           0
     72896 WT24     831      MECN     N3       NG1T1   -0.460000       14.0070           0
     72897 WT24     832      MECN     C1       CG331   -0.170000       12.0110           0
     72898 WT24     832      MECN     H11      HGA3     0.090000        1.0080           0
     72899 WT24     832      MECN     H12      HGA3     0.090000        1.0080           0
     72900 WT24     832      MECN     H13      HGA3     0.090000        1.0080           0
     72901 WT24     832      MECN     C2       CG1N1    0.360000       12.0110           0
     72902 WT24     832      MECN     N3       NG1T1   -0.460000       14.0070           0
     72903 WT24     835      MECN     C1       CG331   -0.170000       12.0110           0
     72904 WT24     835      MECN     H11      HGA3     0.090000        1.0080           0
     72905 WT24     835      MECN     H12      HGA3     0.090000        1.0080           0
     72906 WT24     835      MECN     H13      HGA3     0.090000        1.0080           0
     72907 WT24     835      MECN     C2       CG1N1    0.360000       12.0110           0
     72908 WT24     835      MECN     N3       NG1T1   -0.460000       14.0070           0
     72909 WT24     838      MECN     C1       CG331   -0.170000       12.0110           0
     72910 WT24     838      MECN     H11      HGA3     0.090000        1.0080           0
     72911 WT24     838      MECN     H12      HGA3     0.090000        1.0080           0
     72912 WT24     838      MECN     H13      HGA3     0.090000        1.0080           0
     72913 WT24     838      MECN     C2       CG1N1    0.360000       12.0110           0
     72914 WT24     838      MECN     N3       NG1T1   -0.460000       14.0070           0
     72915 WT24     842      MECN     C1       CG331   -0.170000       12.0110           0
     72916 WT24     842      MECN     H11      HGA3     0.090000        1.0080           0
     72917 WT24     842      MECN     H12      HGA3     0.090000        1.0080           0
     72918 WT24     842      MECN     H13      HGA3     0.090000        1.0080           0
     72919 WT24     842      MECN     C2       CG1N1    0.360000       12.0110           0
     72920 WT24     842      MECN     N3       NG1T1   -0.460000       14.0070           0
     72921 WT24     843      MECN     C1       CG331   -0.170000       12.0110           0
     72922 WT24     843      MECN     H11      HGA3     0.090000        1.0080           0
     72923 WT24     843      MECN     H12      HGA3     0.090000        1.0080           0
     72924 WT24     843      MECN     H13      HGA3     0.090000        1.0080           0
     72925 WT24     843      MECN     C2       CG1N1    0.360000       12.0110           0
     72926 WT24     843      MECN     N3       NG1T1   -0.460000       14.0070           0
     72927 WT24     844      MECN     C1       CG331   -0.170000       12.0110           0
     72928 WT24     844      MECN     H11      HGA3     0.090000        1.0080           0
     72929 WT24     844      MECN     H12      HGA3     0.090000        1.0080           0
     72930 WT24     844      MECN     H13      HGA3     0.090000        1.0080           0
     72931 WT24     844      MECN     C2       CG1N1    0.360000       12.0110           0
     72932 WT24     844      MECN     N3       NG1T1   -0.460000       14.0070           0
     72933 WT24     847      MECN     C1       CG331   -0.170000       12.0110           0
     72934 WT24     847      MECN     H11      HGA3     0.090000        1.0080           0
     72935 WT24     847      MECN     H12      HGA3     0.090000        1.0080           0
     72936 WT24     847      MECN     H13      HGA3     0.090000        1.0080           0
     72937 WT24     847      MECN     C2       CG1N1    0.360000       12.0110           0
     72938 WT24     847      MECN     N3       NG1T1   -0.460000       14.0070           0
     72939 WT24     848      MECN     C1       CG331   -0.170000       12.0110           0
     72940 WT24     848      MECN     H11      HGA3     0.090000        1.0080           0
     72941 WT24     848      MECN     H12      HGA3     0.090000        1.0080           0
     72942 WT24     848      MECN     H13      HGA3     0.090000        1.0080           0
     72943 WT24     848      MECN     C2       CG1N1    0.360000       12.0110           0
     72944 WT24     848      MECN     N3       NG1T1   -0.460000       14.0070           0
     72945 WT24     850      MECN     C1       CG331   -0.170000       12.0110           0
     72946 WT24     850      MECN     H11      HGA3     0.090000        1.0080           0
     72947 WT24     850      MECN     H12      HGA3     0.090000        1.0080           0
     72948 WT24     850      MECN     H13      HGA3     0.090000        1.0080           0
     72949 WT24     850      MECN     C2       CG1N1    0.360000       12.0110           0
     72950 WT24     850      MECN     N3       NG1T1   -0.460000       14.0070           0
     72951 WT24     851      MECN     C1       CG331   -0.170000       12.0110           0
     72952 WT24     851      MECN     H11      HGA3     0.090000        1.0080           0
     72953 WT24     851      MECN     H12      HGA3     0.090000        1.0080           0
     72954 WT24     851      MECN     H13      HGA3     0.090000        1.0080           0
     72955 WT24     851      MECN     C2       CG1N1    0.360000       12.0110           0
     72956 WT24     851      MECN     N3       NG1T1   -0.460000       14.0070           0
     72957 WT24     852      MECN     C1       CG331   -0.170000       12.0110           0
     72958 WT24     852      MECN     H11      HGA3     0.090000        1.0080           0
     72959 WT24     852      MECN     H12      HGA3     0.090000        1.0080           0
     72960 WT24     852      MECN     H13      HGA3     0.090000        1.0080           0
     72961 WT24     852      MECN     C2       CG1N1    0.360000       12.0110           0
     72962 WT24     852      MECN     N3       NG1T1   -0.460000       14.0070           0
     72963 WT24     857      MECN     C1       CG331   -0.170000       12.0110           0
     72964 WT24     857      MECN     H11      HGA3     0.090000        1.0080           0
     72965 WT24     857      MECN     H12      HGA3     0.090000        1.0080           0
     72966 WT24     857      MECN     H13      HGA3     0.090000        1.0080           0
     72967 WT24     857      MECN     C2       CG1N1    0.360000       12.0110           0
     72968 WT24     857      MECN     N3       NG1T1   -0.460000       14.0070           0
     72969 WT24     858      MECN     C1       CG331   -0.170000       12.0110           0
     72970 WT24     858      MECN     H11      HGA3     0.090000        1.0080           0
     72971 WT24     858      MECN     H12      HGA3     0.090000        1.0080           0
     72972 WT24     858      MECN     H13      HGA3     0.090000        1.0080           0
     72973 WT24     858      MECN     C2       CG1N1    0.360000       12.0110           0
     72974 WT24     858      MECN     N3       NG1T1   -0.460000       14.0070           0
     72975 WT24     859      MECN     C1       CG331   -0.170000       12.0110           0
     72976 WT24     859      MECN     H11      HGA3     0.090000        1.0080           0
     72977 WT24     859      MECN     H12      HGA3     0.090000        1.0080           0
     72978 WT24     859      MECN     H13      HGA3     0.090000        1.0080           0
     72979 WT24     859      MECN     C2       CG1N1    0.360000       12.0110           0
     72980 WT24     859      MECN     N3       NG1T1   -0.460000       14.0070           0
     72981 WT24     861      MECN     C1       CG331   -0.170000       12.0110           0
     72982 WT24     861      MECN     H11      HGA3     0.090000        1.0080           0
     72983 WT24     861      MECN     H12      HGA3     0.090000        1.0080           0
     72984 WT24     861      MECN     H13      HGA3     0.090000        1.0080           0
     72985 WT24     861      MECN     C2       CG1N1    0.360000       12.0110           0
     72986 WT24     861      MECN     N3       NG1T1   -0.460000       14.0070           0
     72987 WT24     865      MECN     C1       CG331   -0.170000       12.0110           0
     72988 WT24     865      MECN     H11      HGA3     0.090000        1.0080           0
     72989 WT24     865      MECN     H12      HGA3     0.090000        1.0080           0
     72990 WT24     865      MECN     H13      HGA3     0.090000        1.0080           0
     72991 WT24     865      MECN     C2       CG1N1    0.360000       12.0110           0
     72992 WT24     865      MECN     N3       NG1T1   -0.460000       14.0070           0
     72993 WT24     868      MECN     C1       CG331   -0.170000       12.0110           0
     72994 WT24     868      MECN     H11      HGA3     0.090000        1.0080           0
     72995 WT24     868      MECN     H12      HGA3     0.090000        1.0080           0
     72996 WT24     868      MECN     H13      HGA3     0.090000        1.0080           0
     72997 WT24     868      MECN     C2       CG1N1    0.360000       12.0110           0
     72998 WT24     868      MECN     N3       NG1T1   -0.460000       14.0070           0
     72999 WT24     869      MECN     C1       CG331   -0.170000       12.0110           0
     73000 WT24     869      MECN     H11      HGA3     0.090000        1.0080           0
     73001 WT24     869      MECN     H12      HGA3     0.090000        1.0080           0
     73002 WT24     869      MECN     H13      HGA3     0.090000        1.0080           0
     73003 WT24     869      MECN     C2       CG1N1    0.360000       12.0110           0
     73004 WT24     869      MECN     N3       NG1T1   -0.460000       14.0070           0
     73005 WT24     871      MECN     C1       CG331   -0.170000       12.0110           0
     73006 WT24     871      MECN     H11      HGA3     0.090000        1.0080           0
     73007 WT24     871      MECN     H12      HGA3     0.090000        1.0080           0
     73008 WT24     871      MECN     H13      HGA3     0.090000        1.0080           0
     73009 WT24     871      MECN     C2       CG1N1    0.360000       12.0110           0
     73010 WT24     871      MECN     N3       NG1T1   -0.460000       14.0070           0
     73011 WT24     872      MECN     C1       CG331   -0.170000       12.0110           0
     73012 WT24     872      MECN     H11      HGA3     0.090000        1.0080           0
     73013 WT24     872      MECN     H12      HGA3     0.090000        1.0080           0
     73014 WT24     872      MECN     H13      HGA3     0.090000        1.0080           0
     73015 WT24     872      MECN     C2       CG1N1    0.360000       12.0110           0
     73016 WT24     872      MECN     N3       NG1T1   -0.460000       14.0070           0
     73017 WT24     873      MECN     C1       CG331   -0.170000       12.0110           0
     73018 WT24     873      MECN     H11      HGA3     0.090000        1.0080           0
     73019 WT24     873      MECN     H12      HGA3     0.090000        1.0080           0
     73020 WT24     873      MECN     H13      HGA3     0.090000        1.0080           0
     73021 WT24     873      MECN     C2       CG1N1    0.360000       12.0110           0
     73022 WT24     873      MECN     N3       NG1T1   -0.460000       14.0070           0
     73023 WT24     876      MECN     C1       CG331   -0.170000       12.0110           0
     73024 WT24     876      MECN     H11      HGA3     0.090000        1.0080           0
     73025 WT24     876      MECN     H12      HGA3     0.090000        1.0080           0
     73026 WT24     876      MECN     H13      HGA3     0.090000        1.0080           0
     73027 WT24     876      MECN     C2       CG1N1    0.360000       12.0110           0
     73028 WT24     876      MECN     N3       NG1T1   -0.460000       14.0070           0
     73029 WT24     877      MECN     C1       CG331   -0.170000       12.0110           0
     73030 WT24     877      MECN     H11      HGA3     0.090000        1.0080           0
     73031 WT24     877      MECN     H12      HGA3     0.090000        1.0080           0
     73032 WT24     877      MECN     H13      HGA3     0.090000        1.0080           0
     73033 WT24     877      MECN     C2       CG1N1    0.360000       12.0110           0
     73034 WT24     877      MECN     N3       NG1T1   -0.460000       14.0070           0
     73035 WT24     878      MECN     C1       CG331   -0.170000       12.0110           0
     73036 WT24     878      MECN     H11      HGA3     0.090000        1.0080           0
     73037 WT24     878      MECN     H12      HGA3     0.090000        1.0080           0
     73038 WT24     878      MECN     H13      HGA3     0.090000        1.0080           0
     73039 WT24     878      MECN     C2       CG1N1    0.360000       12.0110           0
     73040 WT24     878      MECN     N3       NG1T1   -0.460000       14.0070           0
     73041 WT24     879      MECN     C1       CG331   -0.170000       12.0110           0
     73042 WT24     879      MECN     H11      HGA3     0.090000        1.0080           0
     73043 WT24     879      MECN     H12      HGA3     0.090000        1.0080           0
     73044 WT24     879      MECN     H13      HGA3     0.090000        1.0080           0
     73045 WT24     879      MECN     C2       CG1N1    0.360000       12.0110           0
     73046 WT24     879      MECN     N3       NG1T1   -0.460000       14.0070           0
     73047 WT24     880      MECN     C1       CG331   -0.170000       12.0110           0
     73048 WT24     880      MECN     H11      HGA3     0.090000        1.0080           0
     73049 WT24     880      MECN     H12      HGA3     0.090000        1.0080           0
     73050 WT24     880      MECN     H13      HGA3     0.090000        1.0080           0
     73051 WT24     880      MECN     C2       CG1N1    0.360000       12.0110           0
     73052 WT24     880      MECN     N3       NG1T1   -0.460000       14.0070           0
     73053 WT24     881      MECN     C1       CG331   -0.170000       12.0110           0
     73054 WT24     881      MECN     H11      HGA3     0.090000        1.0080           0
     73055 WT24     881      MECN     H12      HGA3     0.090000        1.0080           0
     73056 WT24     881      MECN     H13      HGA3     0.090000        1.0080           0
     73057 WT24     881      MECN     C2       CG1N1    0.360000       12.0110           0
     73058 WT24     881      MECN     N3       NG1T1   -0.460000       14.0070           0
     73059 WT24     883      MECN     C1       CG331   -0.170000       12.0110           0
     73060 WT24     883      MECN     H11      HGA3     0.090000        1.0080           0
     73061 WT24     883      MECN     H12      HGA3     0.090000        1.0080           0
     73062 WT24     883      MECN     H13      HGA3     0.090000        1.0080           0
     73063 WT24     883      MECN     C2       CG1N1    0.360000       12.0110           0
     73064 WT24     883      MECN     N3       NG1T1   -0.460000       14.0070           0
     73065 WT24     885      MECN     C1       CG331   -0.170000       12.0110           0
     73066 WT24     885      MECN     H11      HGA3     0.090000        1.0080           0
     73067 WT24     885      MECN     H12      HGA3     0.090000        1.0080           0
     73068 WT24     885      MECN     H13      HGA3     0.090000        1.0080           0
     73069 WT24     885      MECN     C2       CG1N1    0.360000       12.0110           0
     73070 WT24     885      MECN     N3       NG1T1   -0.460000       14.0070           0
     73071 WT24     886      MECN     C1       CG331   -0.170000       12.0110           0
     73072 WT24     886      MECN     H11      HGA3     0.090000        1.0080           0
     73073 WT24     886      MECN     H12      HGA3     0.090000        1.0080           0
     73074 WT24     886      MECN     H13      HGA3     0.090000        1.0080           0
     73075 WT24     886      MECN     C2       CG1N1    0.360000       12.0110           0
     73076 WT24     886      MECN     N3       NG1T1   -0.460000       14.0070           0
     73077 WT24     887      MECN     C1       CG331   -0.170000       12.0110           0
     73078 WT24     887      MECN     H11      HGA3     0.090000        1.0080           0
     73079 WT24     887      MECN     H12      HGA3     0.090000        1.0080           0
     73080 WT24     887      MECN     H13      HGA3     0.090000        1.0080           0
     73081 WT24     887      MECN     C2       CG1N1    0.360000       12.0110           0
     73082 WT24     887      MECN     N3       NG1T1   -0.460000       14.0070           0
     73083 WT24     889      MECN     C1       CG331   -0.170000       12.0110           0
     73084 WT24     889      MECN     H11      HGA3     0.090000        1.0080           0
     73085 WT24     889      MECN     H12      HGA3     0.090000        1.0080           0
     73086 WT24     889      MECN     H13      HGA3     0.090000        1.0080           0
     73087 WT24     889      MECN     C2       CG1N1    0.360000       12.0110           0
     73088 WT24     889      MECN     N3       NG1T1   -0.460000       14.0070           0
     73089 WT24     890      MECN     C1       CG331   -0.170000       12.0110           0
     73090 WT24     890      MECN     H11      HGA3     0.090000        1.0080           0
     73091 WT24     890      MECN     H12      HGA3     0.090000        1.0080           0
     73092 WT24     890      MECN     H13      HGA3     0.090000        1.0080           0
     73093 WT24     890      MECN     C2       CG1N1    0.360000       12.0110           0
     73094 WT24     890      MECN     N3       NG1T1   -0.460000       14.0070           0
     73095 WT24     893      MECN     C1       CG331   -0.170000       12.0110           0
     73096 WT24     893      MECN     H11      HGA3     0.090000        1.0080           0
     73097 WT24     893      MECN     H12      HGA3     0.090000        1.0080           0
     73098 WT24     893      MECN     H13      HGA3     0.090000        1.0080           0
     73099 WT24     893      MECN     C2       CG1N1    0.360000       12.0110           0
     73100 WT24     893      MECN     N3       NG1T1   -0.460000       14.0070           0
     73101 WT24     894      MECN     C1       CG331   -0.170000       12.0110           0
     73102 WT24     894      MECN     H11      HGA3     0.090000        1.0080           0
     73103 WT24     894      MECN     H12      HGA3     0.090000        1.0080           0
     73104 WT24     894      MECN     H13      HGA3     0.090000        1.0080           0
     73105 WT24     894      MECN     C2       CG1N1    0.360000       12.0110           0
     73106 WT24     894      MECN     N3       NG1T1   -0.460000       14.0070           0
     73107 WT24     896      MECN     C1       CG331   -0.170000       12.0110           0
     73108 WT24     896      MECN     H11      HGA3     0.090000        1.0080           0
     73109 WT24     896      MECN     H12      HGA3     0.090000        1.0080           0
     73110 WT24     896      MECN     H13      HGA3     0.090000        1.0080           0
     73111 WT24     896      MECN     C2       CG1N1    0.360000       12.0110           0
     73112 WT24     896      MECN     N3       NG1T1   -0.460000       14.0070           0
     73113 WT24     900      MECN     C1       CG331   -0.170000       12.0110           0
     73114 WT24     900      MECN     H11      HGA3     0.090000        1.0080           0
     73115 WT24     900      MECN     H12      HGA3     0.090000        1.0080           0
     73116 WT24     900      MECN     H13      HGA3     0.090000        1.0080           0
     73117 WT24     900      MECN     C2       CG1N1    0.360000       12.0110           0
     73118 WT24     900      MECN     N3       NG1T1   -0.460000       14.0070           0
     73119 WT24     901      MECN     C1       CG331   -0.170000       12.0110           0
     73120 WT24     901      MECN     H11      HGA3     0.090000        1.0080           0
     73121 WT24     901      MECN     H12      HGA3     0.090000        1.0080           0
     73122 WT24     901      MECN     H13      HGA3     0.090000        1.0080           0
     73123 WT24     901      MECN     C2       CG1N1    0.360000       12.0110           0
     73124 WT24     901      MECN     N3       NG1T1   -0.460000       14.0070           0
     73125 WT24     902      MECN     C1       CG331   -0.170000       12.0110           0
     73126 WT24     902      MECN     H11      HGA3     0.090000        1.0080           0
     73127 WT24     902      MECN     H12      HGA3     0.090000        1.0080           0
     73128 WT24     902      MECN     H13      HGA3     0.090000        1.0080           0
     73129 WT24     902      MECN     C2       CG1N1    0.360000       12.0110           0
     73130 WT24     902      MECN     N3       NG1T1   -0.460000       14.0070           0
     73131 WT24     903      MECN     C1       CG331   -0.170000       12.0110           0
     73132 WT24     903      MECN     H11      HGA3     0.090000        1.0080           0
     73133 WT24     903      MECN     H12      HGA3     0.090000        1.0080           0
     73134 WT24     903      MECN     H13      HGA3     0.090000        1.0080           0
     73135 WT24     903      MECN     C2       CG1N1    0.360000       12.0110           0
     73136 WT24     903      MECN     N3       NG1T1   -0.460000       14.0070           0
     73137 WT24     904      MECN     C1       CG331   -0.170000       12.0110           0
     73138 WT24     904      MECN     H11      HGA3     0.090000        1.0080           0
     73139 WT24     904      MECN     H12      HGA3     0.090000        1.0080           0
     73140 WT24     904      MECN     H13      HGA3     0.090000        1.0080           0
     73141 WT24     904      MECN     C2       CG1N1    0.360000       12.0110           0
     73142 WT24     904      MECN     N3       NG1T1   -0.460000       14.0070           0
     73143 WT24     906      MECN     C1       CG331   -0.170000       12.0110           0
     73144 WT24     906      MECN     H11      HGA3     0.090000        1.0080           0
     73145 WT24     906      MECN     H12      HGA3     0.090000        1.0080           0
     73146 WT24     906      MECN     H13      HGA3     0.090000        1.0080           0
     73147 WT24     906      MECN     C2       CG1N1    0.360000       12.0110           0
     73148 WT24     906      MECN     N3       NG1T1   -0.460000       14.0070           0
     73149 WT24     907      MECN     C1       CG331   -0.170000       12.0110           0
     73150 WT24     907      MECN     H11      HGA3     0.090000        1.0080           0
     73151 WT24     907      MECN     H12      HGA3     0.090000        1.0080           0
     73152 WT24     907      MECN     H13      HGA3     0.090000        1.0080           0
     73153 WT24     907      MECN     C2       CG1N1    0.360000       12.0110           0
     73154 WT24     907      MECN     N3       NG1T1   -0.460000       14.0070           0
     73155 WT24     909      MECN     C1       CG331   -0.170000       12.0110           0
     73156 WT24     909      MECN     H11      HGA3     0.090000        1.0080           0
     73157 WT24     909      MECN     H12      HGA3     0.090000        1.0080           0
     73158 WT24     909      MECN     H13      HGA3     0.090000        1.0080           0
     73159 WT24     909      MECN     C2       CG1N1    0.360000       12.0110           0
     73160 WT24     909      MECN     N3       NG1T1   -0.460000       14.0070           0
     73161 WT24     911      MECN     C1       CG331   -0.170000       12.0110           0
     73162 WT24     911      MECN     H11      HGA3     0.090000        1.0080           0
     73163 WT24     911      MECN     H12      HGA3     0.090000        1.0080           0
     73164 WT24     911      MECN     H13      HGA3     0.090000        1.0080           0
     73165 WT24     911      MECN     C2       CG1N1    0.360000       12.0110           0
     73166 WT24     911      MECN     N3       NG1T1   -0.460000       14.0070           0
     73167 WT24     912      MECN     C1       CG331   -0.170000       12.0110           0
     73168 WT24     912      MECN     H11      HGA3     0.090000        1.0080           0
     73169 WT24     912      MECN     H12      HGA3     0.090000        1.0080           0
     73170 WT24     912      MECN     H13      HGA3     0.090000        1.0080           0
     73171 WT24     912      MECN     C2       CG1N1    0.360000       12.0110           0
     73172 WT24     912      MECN     N3       NG1T1   -0.460000       14.0070           0
     73173 WT24     913      MECN     C1       CG331   -0.170000       12.0110           0
     73174 WT24     913      MECN     H11      HGA3     0.090000        1.0080           0
     73175 WT24     913      MECN     H12      HGA3     0.090000        1.0080           0
     73176 WT24     913      MECN     H13      HGA3     0.090000        1.0080           0
     73177 WT24     913      MECN     C2       CG1N1    0.360000       12.0110           0
     73178 WT24     913      MECN     N3       NG1T1   -0.460000       14.0070           0
     73179 WT24     917      MECN     C1       CG331   -0.170000       12.0110           0
     73180 WT24     917      MECN     H11      HGA3     0.090000        1.0080           0
     73181 WT24     917      MECN     H12      HGA3     0.090000        1.0080           0
     73182 WT24     917      MECN     H13      HGA3     0.090000        1.0080           0
     73183 WT24     917      MECN     C2       CG1N1    0.360000       12.0110           0
     73184 WT24     917      MECN     N3       NG1T1   -0.460000       14.0070           0
     73185 WT24     921      MECN     C1       CG331   -0.170000       12.0110           0
     73186 WT24     921      MECN     H11      HGA3     0.090000        1.0080           0
     73187 WT24     921      MECN     H12      HGA3     0.090000        1.0080           0
     73188 WT24     921      MECN     H13      HGA3     0.090000        1.0080           0
     73189 WT24     921      MECN     C2       CG1N1    0.360000       12.0110           0
     73190 WT24     921      MECN     N3       NG1T1   -0.460000       14.0070           0
     73191 WT24     923      MECN     C1       CG331   -0.170000       12.0110           0
     73192 WT24     923      MECN     H11      HGA3     0.090000        1.0080           0
     73193 WT24     923      MECN     H12      HGA3     0.090000        1.0080           0
     73194 WT24     923      MECN     H13      HGA3     0.090000        1.0080           0
     73195 WT24     923      MECN     C2       CG1N1    0.360000       12.0110           0
     73196 WT24     923      MECN     N3       NG1T1   -0.460000       14.0070           0
     73197 WT24     925      MECN     C1       CG331   -0.170000       12.0110           0
     73198 WT24     925      MECN     H11      HGA3     0.090000        1.0080           0
     73199 WT24     925      MECN     H12      HGA3     0.090000        1.0080           0
     73200 WT24     925      MECN     H13      HGA3     0.090000        1.0080           0
     73201 WT24     925      MECN     C2       CG1N1    0.360000       12.0110           0
     73202 WT24     925      MECN     N3       NG1T1   -0.460000       14.0070           0
     73203 WT24     927      MECN     C1       CG331   -0.170000       12.0110           0
     73204 WT24     927      MECN     H11      HGA3     0.090000        1.0080           0
     73205 WT24     927      MECN     H12      HGA3     0.090000        1.0080           0
     73206 WT24     927      MECN     H13      HGA3     0.090000        1.0080           0
     73207 WT24     927      MECN     C2       CG1N1    0.360000       12.0110           0
     73208 WT24     927      MECN     N3       NG1T1   -0.460000       14.0070           0
     73209 WT24     928      MECN     C1       CG331   -0.170000       12.0110           0
     73210 WT24     928      MECN     H11      HGA3     0.090000        1.0080           0
     73211 WT24     928      MECN     H12      HGA3     0.090000        1.0080           0
     73212 WT24     928      MECN     H13      HGA3     0.090000        1.0080           0
     73213 WT24     928      MECN     C2       CG1N1    0.360000       12.0110           0
     73214 WT24     928      MECN     N3       NG1T1   -0.460000       14.0070           0
     73215 WT24     931      MECN     C1       CG331   -0.170000       12.0110           0
     73216 WT24     931      MECN     H11      HGA3     0.090000        1.0080           0
     73217 WT24     931      MECN     H12      HGA3     0.090000        1.0080           0
     73218 WT24     931      MECN     H13      HGA3     0.090000        1.0080           0
     73219 WT24     931      MECN     C2       CG1N1    0.360000       12.0110           0
     73220 WT24     931      MECN     N3       NG1T1   -0.460000       14.0070           0
     73221 WT24     932      MECN     C1       CG331   -0.170000       12.0110           0
     73222 WT24     932      MECN     H11      HGA3     0.090000        1.0080           0
     73223 WT24     932      MECN     H12      HGA3     0.090000        1.0080           0
     73224 WT24     932      MECN     H13      HGA3     0.090000        1.0080           0
     73225 WT24     932      MECN     C2       CG1N1    0.360000       12.0110           0
     73226 WT24     932      MECN     N3       NG1T1   -0.460000       14.0070           0
     73227 WT24     934      MECN     C1       CG331   -0.170000       12.0110           0
     73228 WT24     934      MECN     H11      HGA3     0.090000        1.0080           0
     73229 WT24     934      MECN     H12      HGA3     0.090000        1.0080           0
     73230 WT24     934      MECN     H13      HGA3     0.090000        1.0080           0
     73231 WT24     934      MECN     C2       CG1N1    0.360000       12.0110           0
     73232 WT24     934      MECN     N3       NG1T1   -0.460000       14.0070           0
     73233 WT24     936      MECN     C1       CG331   -0.170000       12.0110           0
     73234 WT24     936      MECN     H11      HGA3     0.090000        1.0080           0
     73235 WT24     936      MECN     H12      HGA3     0.090000        1.0080           0
     73236 WT24     936      MECN     H13      HGA3     0.090000        1.0080           0
     73237 WT24     936      MECN     C2       CG1N1    0.360000       12.0110           0
     73238 WT24     936      MECN     N3       NG1T1   -0.460000       14.0070           0
     73239 WT24     937      MECN     C1       CG331   -0.170000       12.0110           0
     73240 WT24     937      MECN     H11      HGA3     0.090000        1.0080           0
     73241 WT24     937      MECN     H12      HGA3     0.090000        1.0080           0
     73242 WT24     937      MECN     H13      HGA3     0.090000        1.0080           0
     73243 WT24     937      MECN     C2       CG1N1    0.360000       12.0110           0
     73244 WT24     937      MECN     N3       NG1T1   -0.460000       14.0070           0
     73245 WT24     940      MECN     C1       CG331   -0.170000       12.0110           0
     73246 WT24     940      MECN     H11      HGA3     0.090000        1.0080           0
     73247 WT24     940      MECN     H12      HGA3     0.090000        1.0080           0
     73248 WT24     940      MECN     H13      HGA3     0.090000        1.0080           0
     73249 WT24     940      MECN     C2       CG1N1    0.360000       12.0110           0
     73250 WT24     940      MECN     N3       NG1T1   -0.460000       14.0070           0
     73251 WT24     942      MECN     C1       CG331   -0.170000       12.0110           0
     73252 WT24     942      MECN     H11      HGA3     0.090000        1.0080           0
     73253 WT24     942      MECN     H12      HGA3     0.090000        1.0080           0
     73254 WT24     942      MECN     H13      HGA3     0.090000        1.0080           0
     73255 WT24     942      MECN     C2       CG1N1    0.360000       12.0110           0
     73256 WT24     942      MECN     N3       NG1T1   -0.460000       14.0070           0
     73257 WT24     943      MECN     C1       CG331   -0.170000       12.0110           0
     73258 WT24     943      MECN     H11      HGA3     0.090000        1.0080           0
     73259 WT24     943      MECN     H12      HGA3     0.090000        1.0080           0
     73260 WT24     943      MECN     H13      HGA3     0.090000        1.0080           0
     73261 WT24     943      MECN     C2       CG1N1    0.360000       12.0110           0
     73262 WT24     943      MECN     N3       NG1T1   -0.460000       14.0070           0
     73263 WT24     944      MECN     C1       CG331   -0.170000       12.0110           0
     73264 WT24     944      MECN     H11      HGA3     0.090000        1.0080           0
     73265 WT24     944      MECN     H12      HGA3     0.090000        1.0080           0
     73266 WT24     944      MECN     H13      HGA3     0.090000        1.0080           0
     73267 WT24     944      MECN     C2       CG1N1    0.360000       12.0110           0
     73268 WT24     944      MECN     N3       NG1T1   -0.460000       14.0070           0
     73269 WT24     946      MECN     C1       CG331   -0.170000       12.0110           0
     73270 WT24     946      MECN     H11      HGA3     0.090000        1.0080           0
     73271 WT24     946      MECN     H12      HGA3     0.090000        1.0080           0
     73272 WT24     946      MECN     H13      HGA3     0.090000        1.0080           0
     73273 WT24     946      MECN     C2       CG1N1    0.360000       12.0110           0
     73274 WT24     946      MECN     N3       NG1T1   -0.460000       14.0070           0
     73275 WT24     949      MECN     C1       CG331   -0.170000       12.0110           0
     73276 WT24     949      MECN     H11      HGA3     0.090000        1.0080           0
     73277 WT24     949      MECN     H12      HGA3     0.090000        1.0080           0
     73278 WT24     949      MECN     H13      HGA3     0.090000        1.0080           0
     73279 WT24     949      MECN     C2       CG1N1    0.360000       12.0110           0
     73280 WT24     949      MECN     N3       NG1T1   -0.460000       14.0070           0
     73281 WT24     952      MECN     C1       CG331   -0.170000       12.0110           0
     73282 WT24     952      MECN     H11      HGA3     0.090000        1.0080           0
     73283 WT24     952      MECN     H12      HGA3     0.090000        1.0080           0
     73284 WT24     952      MECN     H13      HGA3     0.090000        1.0080           0
     73285 WT24     952      MECN     C2       CG1N1    0.360000       12.0110           0
     73286 WT24     952      MECN     N3       NG1T1   -0.460000       14.0070           0
     73287 WT24     954      MECN     C1       CG331   -0.170000       12.0110           0
     73288 WT24     954      MECN     H11      HGA3     0.090000        1.0080           0
     73289 WT24     954      MECN     H12      HGA3     0.090000        1.0080           0
     73290 WT24     954      MECN     H13      HGA3     0.090000        1.0080           0
     73291 WT24     954      MECN     C2       CG1N1    0.360000       12.0110           0
     73292 WT24     954      MECN     N3       NG1T1   -0.460000       14.0070           0
     73293 WT24     955      MECN     C1       CG331   -0.170000       12.0110           0
     73294 WT24     955      MECN     H11      HGA3     0.090000        1.0080           0
     73295 WT24     955      MECN     H12      HGA3     0.090000        1.0080           0
     73296 WT24     955      MECN     H13      HGA3     0.090000        1.0080           0
     73297 WT24     955      MECN     C2       CG1N1    0.360000       12.0110           0
     73298 WT24     955      MECN     N3       NG1T1   -0.460000       14.0070           0
     73299 WT24     959      MECN     C1       CG331   -0.170000       12.0110           0
     73300 WT24     959      MECN     H11      HGA3     0.090000        1.0080           0
     73301 WT24     959      MECN     H12      HGA3     0.090000        1.0080           0
     73302 WT24     959      MECN     H13      HGA3     0.090000        1.0080           0
     73303 WT24     959      MECN     C2       CG1N1    0.360000       12.0110           0
     73304 WT24     959      MECN     N3       NG1T1   -0.460000       14.0070           0
     73305 WT24     962      MECN     C1       CG331   -0.170000       12.0110           0
     73306 WT24     962      MECN     H11      HGA3     0.090000        1.0080           0
     73307 WT24     962      MECN     H12      HGA3     0.090000        1.0080           0
     73308 WT24     962      MECN     H13      HGA3     0.090000        1.0080           0
     73309 WT24     962      MECN     C2       CG1N1    0.360000       12.0110           0
     73310 WT24     962      MECN     N3       NG1T1   -0.460000       14.0070           0
     73311 WT24     965      MECN     C1       CG331   -0.170000       12.0110           0
     73312 WT24     965      MECN     H11      HGA3     0.090000        1.0080           0
     73313 WT24     965      MECN     H12      HGA3     0.090000        1.0080           0
     73314 WT24     965      MECN     H13      HGA3     0.090000        1.0080           0
     73315 WT24     965      MECN     C2       CG1N1    0.360000       12.0110           0
     73316 WT24     965      MECN     N3       NG1T1   -0.460000       14.0070           0
     73317 WT24     966      MECN     C1       CG331   -0.170000       12.0110           0
     73318 WT24     966      MECN     H11      HGA3     0.090000        1.0080           0
     73319 WT24     966      MECN     H12      HGA3     0.090000        1.0080           0
     73320 WT24     966      MECN     H13      HGA3     0.090000        1.0080           0
     73321 WT24     966      MECN     C2       CG1N1    0.360000       12.0110           0
     73322 WT24     966      MECN     N3       NG1T1   -0.460000       14.0070           0
     73323 WT24     969      MECN     C1       CG331   -0.170000       12.0110           0
     73324 WT24     969      MECN     H11      HGA3     0.090000        1.0080           0
     73325 WT24     969      MECN     H12      HGA3     0.090000        1.0080           0
     73326 WT24     969      MECN     H13      HGA3     0.090000        1.0080           0
     73327 WT24     969      MECN     C2       CG1N1    0.360000       12.0110           0
     73328 WT24     969      MECN     N3       NG1T1   -0.460000       14.0070           0
     73329 WT24     970      MECN     C1       CG331   -0.170000       12.0110           0
     73330 WT24     970      MECN     H11      HGA3     0.090000        1.0080           0
     73331 WT24     970      MECN     H12      HGA3     0.090000        1.0080           0
     73332 WT24     970      MECN     H13      HGA3     0.090000        1.0080           0
     73333 WT24     970      MECN     C2       CG1N1    0.360000       12.0110           0
     73334 WT24     970      MECN     N3       NG1T1   -0.460000       14.0070           0
     73335 WT24     971      MECN     C1       CG331   -0.170000       12.0110           0
     73336 WT24     971      MECN     H11      HGA3     0.090000        1.0080           0
     73337 WT24     971      MECN     H12      HGA3     0.090000        1.0080           0
     73338 WT24     971      MECN     H13      HGA3     0.090000        1.0080           0
     73339 WT24     971      MECN     C2       CG1N1    0.360000       12.0110           0
     73340 WT24     971      MECN     N3       NG1T1   -0.460000       14.0070           0
     73341 WT24     972      MECN     C1       CG331   -0.170000       12.0110           0
     73342 WT24     972      MECN     H11      HGA3     0.090000        1.0080           0
     73343 WT24     972      MECN     H12      HGA3     0.090000        1.0080           0
     73344 WT24     972      MECN     H13      HGA3     0.090000        1.0080           0
     73345 WT24     972      MECN     C2       CG1N1    0.360000       12.0110           0
     73346 WT24     972      MECN     N3       NG1T1   -0.460000       14.0070           0
     73347 WT24     973      MECN     C1       CG331   -0.170000       12.0110           0
     73348 WT24     973      MECN     H11      HGA3     0.090000        1.0080           0
     73349 WT24     973      MECN     H12      HGA3     0.090000        1.0080           0
     73350 WT24     973      MECN     H13      HGA3     0.090000        1.0080           0
     73351 WT24     973      MECN     C2       CG1N1    0.360000       12.0110           0
     73352 WT24     973      MECN     N3       NG1T1   -0.460000       14.0070           0
     73353 WT24     976      MECN     C1       CG331   -0.170000       12.0110           0
     73354 WT24     976      MECN     H11      HGA3     0.090000        1.0080           0
     73355 WT24     976      MECN     H12      HGA3     0.090000        1.0080           0
     73356 WT24     976      MECN     H13      HGA3     0.090000        1.0080           0
     73357 WT24     976      MECN     C2       CG1N1    0.360000       12.0110           0
     73358 WT24     976      MECN     N3       NG1T1   -0.460000       14.0070           0
     73359 WT24     979      MECN     C1       CG331   -0.170000       12.0110           0
     73360 WT24     979      MECN     H11      HGA3     0.090000        1.0080           0
     73361 WT24     979      MECN     H12      HGA3     0.090000        1.0080           0
     73362 WT24     979      MECN     H13      HGA3     0.090000        1.0080           0
     73363 WT24     979      MECN     C2       CG1N1    0.360000       12.0110           0
     73364 WT24     979      MECN     N3       NG1T1   -0.460000       14.0070           0
     73365 WT24     980      MECN     C1       CG331   -0.170000       12.0110           0
     73366 WT24     980      MECN     H11      HGA3     0.090000        1.0080           0
     73367 WT24     980      MECN     H12      HGA3     0.090000        1.0080           0
     73368 WT24     980      MECN     H13      HGA3     0.090000        1.0080           0
     73369 WT24     980      MECN     C2       CG1N1    0.360000       12.0110           0
     73370 WT24     980      MECN     N3       NG1T1   -0.460000       14.0070           0
     73371 WT24     981      MECN     C1       CG331   -0.170000       12.0110           0
     73372 WT24     981      MECN     H11      HGA3     0.090000        1.0080           0
     73373 WT24     981      MECN     H12      HGA3     0.090000        1.0080           0
     73374 WT24     981      MECN     H13      HGA3     0.090000        1.0080           0
     73375 WT24     981      MECN     C2       CG1N1    0.360000       12.0110           0
     73376 WT24     981      MECN     N3       NG1T1   -0.460000       14.0070           0
     73377 WT24     984      MECN     C1       CG331   -0.170000       12.0110           0
     73378 WT24     984      MECN     H11      HGA3     0.090000        1.0080           0
     73379 WT24     984      MECN     H12      HGA3     0.090000        1.0080           0
     73380 WT24     984      MECN     H13      HGA3     0.090000        1.0080           0
     73381 WT24     984      MECN     C2       CG1N1    0.360000       12.0110           0
     73382 WT24     984      MECN     N3       NG1T1   -0.460000       14.0070           0
     73383 WT24     993      MECN     C1       CG331   -0.170000       12.0110           0
     73384 WT24     993      MECN     H11      HGA3     0.090000        1.0080           0
     73385 WT24     993      MECN     H12      HGA3     0.090000        1.0080           0
     73386 WT24     993      MECN     H13      HGA3     0.090000        1.0080           0
     73387 WT24     993      MECN     C2       CG1N1    0.360000       12.0110           0
     73388 WT24     993      MECN     N3       NG1T1   -0.460000       14.0070           0
     73389 WT24     996      MECN     C1       CG331   -0.170000       12.0110           0
     73390 WT24     996      MECN     H11      HGA3     0.090000        1.0080           0
     73391 WT24     996      MECN     H12      HGA3     0.090000        1.0080           0
     73392 WT24     996      MECN     H13      HGA3     0.090000        1.0080           0
     73393 WT24     996      MECN     C2       CG1N1    0.360000       12.0110           0
     73394 WT24     996      MECN     N3       NG1T1   -0.460000       14.0070           0
     73395 WT24     998      MECN     C1       CG331   -0.170000       12.0110           0
     73396 WT24     998      MECN     H11      HGA3     0.090000        1.0080           0
     73397 WT24     998      MECN     H12      HGA3     0.090000        1.0080           0
     73398 WT24     998      MECN     H13      HGA3     0.090000        1.0080           0
     73399 WT24     998      MECN     C2       CG1N1    0.360000       12.0110           0
     73400 WT24     998      MECN     N3       NG1T1   -0.460000       14.0070           0
     73401 WT24     1000     MECN     C1       CG331   -0.170000       12.0110           0
     73402 WT24     1000     MECN     H11      HGA3     0.090000        1.0080           0
     73403 WT24     1000     MECN     H12      HGA3     0.090000        1.0080           0
     73404 WT24     1000     MECN     H13      HGA3     0.090000        1.0080           0
     73405 WT24     1000     MECN     C2       CG1N1    0.360000       12.0110           0
     73406 WT24     1000     MECN     N3       NG1T1   -0.460000       14.0070           0
     73407 WT24     1002     MECN     C1       CG331   -0.170000       12.0110           0
     73408 WT24     1002     MECN     H11      HGA3     0.090000        1.0080           0
     73409 WT24     1002     MECN     H12      HGA3     0.090000        1.0080           0
     73410 WT24     1002     MECN     H13      HGA3     0.090000        1.0080           0
     73411 WT24     1002     MECN     C2       CG1N1    0.360000       12.0110           0
     73412 WT24     1002     MECN     N3       NG1T1   -0.460000       14.0070           0
     73413 WT24     1003     MECN     C1       CG331   -0.170000       12.0110           0
     73414 WT24     1003     MECN     H11      HGA3     0.090000        1.0080           0
     73415 WT24     1003     MECN     H12      HGA3     0.090000        1.0080           0
     73416 WT24     1003     MECN     H13      HGA3     0.090000        1.0080           0
     73417 WT24     1003     MECN     C2       CG1N1    0.360000       12.0110           0
     73418 WT24     1003     MECN     N3       NG1T1   -0.460000       14.0070           0
     73419 WT24     1004     MECN     C1       CG331   -0.170000       12.0110           0
     73420 WT24     1004     MECN     H11      HGA3     0.090000        1.0080           0
     73421 WT24     1004     MECN     H12      HGA3     0.090000        1.0080           0
     73422 WT24     1004     MECN     H13      HGA3     0.090000        1.0080           0
     73423 WT24     1004     MECN     C2       CG1N1    0.360000       12.0110           0
     73424 WT24     1004     MECN     N3       NG1T1   -0.460000       14.0070           0
     73425 WT24     1005     MECN     C1       CG331   -0.170000       12.0110           0
     73426 WT24     1005     MECN     H11      HGA3     0.090000        1.0080           0
     73427 WT24     1005     MECN     H12      HGA3     0.090000        1.0080           0
     73428 WT24     1005     MECN     H13      HGA3     0.090000        1.0080           0
     73429 WT24     1005     MECN     C2       CG1N1    0.360000       12.0110           0
     73430 WT24     1005     MECN     N3       NG1T1   -0.460000       14.0070           0
     73431 WT24     1006     MECN     C1       CG331   -0.170000       12.0110           0
     73432 WT24     1006     MECN     H11      HGA3     0.090000        1.0080           0
     73433 WT24     1006     MECN     H12      HGA3     0.090000        1.0080           0
     73434 WT24     1006     MECN     H13      HGA3     0.090000        1.0080           0
     73435 WT24     1006     MECN     C2       CG1N1    0.360000       12.0110           0
     73436 WT24     1006     MECN     N3       NG1T1   -0.460000       14.0070           0
     73437 WT24     1007     MECN     C1       CG331   -0.170000       12.0110           0
     73438 WT24     1007     MECN     H11      HGA3     0.090000        1.0080           0
     73439 WT24     1007     MECN     H12      HGA3     0.090000        1.0080           0
     73440 WT24     1007     MECN     H13      HGA3     0.090000        1.0080           0
     73441 WT24     1007     MECN     C2       CG1N1    0.360000       12.0110           0
     73442 WT24     1007     MECN     N3       NG1T1   -0.460000       14.0070           0
     73443 WT24     1011     MECN     C1       CG331   -0.170000       12.0110           0
     73444 WT24     1011     MECN     H11      HGA3     0.090000        1.0080           0
     73445 WT24     1011     MECN     H12      HGA3     0.090000        1.0080           0
     73446 WT24     1011     MECN     H13      HGA3     0.090000        1.0080           0
     73447 WT24     1011     MECN     C2       CG1N1    0.360000       12.0110           0
     73448 WT24     1011     MECN     N3       NG1T1   -0.460000       14.0070           0
     73449 WT24     1013     MECN     C1       CG331   -0.170000       12.0110           0
     73450 WT24     1013     MECN     H11      HGA3     0.090000        1.0080           0
     73451 WT24     1013     MECN     H12      HGA3     0.090000        1.0080           0
     73452 WT24     1013     MECN     H13      HGA3     0.090000        1.0080           0
     73453 WT24     1013     MECN     C2       CG1N1    0.360000       12.0110           0
     73454 WT24     1013     MECN     N3       NG1T1   -0.460000       14.0070           0
     73455 WT24     1014     MECN     C1       CG331   -0.170000       12.0110           0
     73456 WT24     1014     MECN     H11      HGA3     0.090000        1.0080           0
     73457 WT24     1014     MECN     H12      HGA3     0.090000        1.0080           0
     73458 WT24     1014     MECN     H13      HGA3     0.090000        1.0080           0
     73459 WT24     1014     MECN     C2       CG1N1    0.360000       12.0110           0
     73460 WT24     1014     MECN     N3       NG1T1   -0.460000       14.0070           0
     73461 WT24     1017     MECN     C1       CG331   -0.170000       12.0110           0
     73462 WT24     1017     MECN     H11      HGA3     0.090000        1.0080           0
     73463 WT24     1017     MECN     H12      HGA3     0.090000        1.0080           0
     73464 WT24     1017     MECN     H13      HGA3     0.090000        1.0080           0
     73465 WT24     1017     MECN     C2       CG1N1    0.360000       12.0110           0
     73466 WT24     1017     MECN     N3       NG1T1   -0.460000       14.0070           0
     73467 WT24     1018     MECN     C1       CG331   -0.170000       12.0110           0
     73468 WT24     1018     MECN     H11      HGA3     0.090000        1.0080           0
     73469 WT24     1018     MECN     H12      HGA3     0.090000        1.0080           0
     73470 WT24     1018     MECN     H13      HGA3     0.090000        1.0080           0
     73471 WT24     1018     MECN     C2       CG1N1    0.360000       12.0110           0
     73472 WT24     1018     MECN     N3       NG1T1   -0.460000       14.0070           0
     73473 WT24     1028     MECN     C1       CG331   -0.170000       12.0110           0
     73474 WT24     1028     MECN     H11      HGA3     0.090000        1.0080           0
     73475 WT24     1028     MECN     H12      HGA3     0.090000        1.0080           0
     73476 WT24     1028     MECN     H13      HGA3     0.090000        1.0080           0
     73477 WT24     1028     MECN     C2       CG1N1    0.360000       12.0110           0
     73478 WT24     1028     MECN     N3       NG1T1   -0.460000       14.0070           0
     73479 WT24     1031     MECN     C1       CG331   -0.170000       12.0110           0
     73480 WT24     1031     MECN     H11      HGA3     0.090000        1.0080           0
     73481 WT24     1031     MECN     H12      HGA3     0.090000        1.0080           0
     73482 WT24     1031     MECN     H13      HGA3     0.090000        1.0080           0
     73483 WT24     1031     MECN     C2       CG1N1    0.360000       12.0110           0
     73484 WT24     1031     MECN     N3       NG1T1   -0.460000       14.0070           0
     73485 WT24     1032     MECN     C1       CG331   -0.170000       12.0110           0
     73486 WT24     1032     MECN     H11      HGA3     0.090000        1.0080           0
     73487 WT24     1032     MECN     H12      HGA3     0.090000        1.0080           0
     73488 WT24     1032     MECN     H13      HGA3     0.090000        1.0080           0
     73489 WT24     1032     MECN     C2       CG1N1    0.360000       12.0110           0
     73490 WT24     1032     MECN     N3       NG1T1   -0.460000       14.0070           0
     73491 WT24     1035     MECN     C1       CG331   -0.170000       12.0110           0
     73492 WT24     1035     MECN     H11      HGA3     0.090000        1.0080           0
     73493 WT24     1035     MECN     H12      HGA3     0.090000        1.0080           0
     73494 WT24     1035     MECN     H13      HGA3     0.090000        1.0080           0
     73495 WT24     1035     MECN     C2       CG1N1    0.360000       12.0110           0
     73496 WT24     1035     MECN     N3       NG1T1   -0.460000       14.0070           0
     73497 WT24     1036     MECN     C1       CG331   -0.170000       12.0110           0
     73498 WT24     1036     MECN     H11      HGA3     0.090000        1.0080           0
     73499 WT24     1036     MECN     H12      HGA3     0.090000        1.0080           0
     73500 WT24     1036     MECN     H13      HGA3     0.090000        1.0080           0
     73501 WT24     1036     MECN     C2       CG1N1    0.360000       12.0110           0
     73502 WT24     1036     MECN     N3       NG1T1   -0.460000       14.0070           0
     73503 WT24     1041     MECN     C1       CG331   -0.170000       12.0110           0
     73504 WT24     1041     MECN     H11      HGA3     0.090000        1.0080           0
     73505 WT24     1041     MECN     H12      HGA3     0.090000        1.0080           0
     73506 WT24     1041     MECN     H13      HGA3     0.090000        1.0080           0
     73507 WT24     1041     MECN     C2       CG1N1    0.360000       12.0110           0
     73508 WT24     1041     MECN     N3       NG1T1   -0.460000       14.0070           0
     73509 WT24     1042     MECN     C1       CG331   -0.170000       12.0110           0
     73510 WT24     1042     MECN     H11      HGA3     0.090000        1.0080           0
     73511 WT24     1042     MECN     H12      HGA3     0.090000        1.0080           0
     73512 WT24     1042     MECN     H13      HGA3     0.090000        1.0080           0
     73513 WT24     1042     MECN     C2       CG1N1    0.360000       12.0110           0
     73514 WT24     1042     MECN     N3       NG1T1   -0.460000       14.0070           0
     73515 WT24     1044     MECN     C1       CG331   -0.170000       12.0110           0
     73516 WT24     1044     MECN     H11      HGA3     0.090000        1.0080           0
     73517 WT24     1044     MECN     H12      HGA3     0.090000        1.0080           0
     73518 WT24     1044     MECN     H13      HGA3     0.090000        1.0080           0
     73519 WT24     1044     MECN     C2       CG1N1    0.360000       12.0110           0
     73520 WT24     1044     MECN     N3       NG1T1   -0.460000       14.0070           0
     73521 WT24     1049     MECN     C1       CG331   -0.170000       12.0110           0
     73522 WT24     1049     MECN     H11      HGA3     0.090000        1.0080           0
     73523 WT24     1049     MECN     H12      HGA3     0.090000        1.0080           0
     73524 WT24     1049     MECN     H13      HGA3     0.090000        1.0080           0
     73525 WT24     1049     MECN     C2       CG1N1    0.360000       12.0110           0
     73526 WT24     1049     MECN     N3       NG1T1   -0.460000       14.0070           0
     73527 WT24     1054     MECN     C1       CG331   -0.170000       12.0110           0
     73528 WT24     1054     MECN     H11      HGA3     0.090000        1.0080           0
     73529 WT24     1054     MECN     H12      HGA3     0.090000        1.0080           0
     73530 WT24     1054     MECN     H13      HGA3     0.090000        1.0080           0
     73531 WT24     1054     MECN     C2       CG1N1    0.360000       12.0110           0
     73532 WT24     1054     MECN     N3       NG1T1   -0.460000       14.0070           0
     73533 WT24     1059     MECN     C1       CG331   -0.170000       12.0110           0
     73534 WT24     1059     MECN     H11      HGA3     0.090000        1.0080           0
     73535 WT24     1059     MECN     H12      HGA3     0.090000        1.0080           0
     73536 WT24     1059     MECN     H13      HGA3     0.090000        1.0080           0
     73537 WT24     1059     MECN     C2       CG1N1    0.360000       12.0110           0
     73538 WT24     1059     MECN     N3       NG1T1   -0.460000       14.0070           0
     73539 WT24     1064     MECN     C1       CG331   -0.170000       12.0110           0
     73540 WT24     1064     MECN     H11      HGA3     0.090000        1.0080           0
     73541 WT24     1064     MECN     H12      HGA3     0.090000        1.0080           0
     73542 WT24     1064     MECN     H13      HGA3     0.090000        1.0080           0
     73543 WT24     1064     MECN     C2       CG1N1    0.360000       12.0110           0
     73544 WT24     1064     MECN     N3       NG1T1   -0.460000       14.0070           0
     73545 WT24     1066     MECN     C1       CG331   -0.170000       12.0110           0
     73546 WT24     1066     MECN     H11      HGA3     0.090000        1.0080           0
     73547 WT24     1066     MECN     H12      HGA3     0.090000        1.0080           0
     73548 WT24     1066     MECN     H13      HGA3     0.090000        1.0080           0
     73549 WT24     1066     MECN     C2       CG1N1    0.360000       12.0110           0
     73550 WT24     1066     MECN     N3       NG1T1   -0.460000       14.0070           0
     73551 WT24     1067     MECN     C1       CG331   -0.170000       12.0110           0
     73552 WT24     1067     MECN     H11      HGA3     0.090000        1.0080           0
     73553 WT24     1067     MECN     H12      HGA3     0.090000        1.0080           0
     73554 WT24     1067     MECN     H13      HGA3     0.090000        1.0080           0
     73555 WT24     1067     MECN     C2       CG1N1    0.360000       12.0110           0
     73556 WT24     1067     MECN     N3       NG1T1   -0.460000       14.0070           0
     73557 WT24     1070     MECN     C1       CG331   -0.170000       12.0110           0
     73558 WT24     1070     MECN     H11      HGA3     0.090000        1.0080           0
     73559 WT24     1070     MECN     H12      HGA3     0.090000        1.0080           0
     73560 WT24     1070     MECN     H13      HGA3     0.090000        1.0080           0
     73561 WT24     1070     MECN     C2       CG1N1    0.360000       12.0110           0
     73562 WT24     1070     MECN     N3       NG1T1   -0.460000       14.0070           0
     73563 WT24     1074     MECN     C1       CG331   -0.170000       12.0110           0
     73564 WT24     1074     MECN     H11      HGA3     0.090000        1.0080           0
     73565 WT24     1074     MECN     H12      HGA3     0.090000        1.0080           0
     73566 WT24     1074     MECN     H13      HGA3     0.090000        1.0080           0
     73567 WT24     1074     MECN     C2       CG1N1    0.360000       12.0110           0
     73568 WT24     1074     MECN     N3       NG1T1   -0.460000       14.0070           0
     73569 WT24     1076     MECN     C1       CG331   -0.170000       12.0110           0
     73570 WT24     1076     MECN     H11      HGA3     0.090000        1.0080           0
     73571 WT24     1076     MECN     H12      HGA3     0.090000        1.0080           0
     73572 WT24     1076     MECN     H13      HGA3     0.090000        1.0080           0
     73573 WT24     1076     MECN     C2       CG1N1    0.360000       12.0110           0
     73574 WT24     1076     MECN     N3       NG1T1   -0.460000       14.0070           0
     73575 WT24     1079     MECN     C1       CG331   -0.170000       12.0110           0
     73576 WT24     1079     MECN     H11      HGA3     0.090000        1.0080           0
     73577 WT24     1079     MECN     H12      HGA3     0.090000        1.0080           0
     73578 WT24     1079     MECN     H13      HGA3     0.090000        1.0080           0
     73579 WT24     1079     MECN     C2       CG1N1    0.360000       12.0110           0
     73580 WT24     1079     MECN     N3       NG1T1   -0.460000       14.0070           0
     73581 WT24     1082     MECN     C1       CG331   -0.170000       12.0110           0
     73582 WT24     1082     MECN     H11      HGA3     0.090000        1.0080           0
     73583 WT24     1082     MECN     H12      HGA3     0.090000        1.0080           0
     73584 WT24     1082     MECN     H13      HGA3     0.090000        1.0080           0
     73585 WT24     1082     MECN     C2       CG1N1    0.360000       12.0110           0
     73586 WT24     1082     MECN     N3       NG1T1   -0.460000       14.0070           0
     73587 WT24     1083     MECN     C1       CG331   -0.170000       12.0110           0
     73588 WT24     1083     MECN     H11      HGA3     0.090000        1.0080           0
     73589 WT24     1083     MECN     H12      HGA3     0.090000        1.0080           0
     73590 WT24     1083     MECN     H13      HGA3     0.090000        1.0080           0
     73591 WT24     1083     MECN     C2       CG1N1    0.360000       12.0110           0
     73592 WT24     1083     MECN     N3       NG1T1   -0.460000       14.0070           0
     73593 WT24     1086     MECN     C1       CG331   -0.170000       12.0110           0
     73594 WT24     1086     MECN     H11      HGA3     0.090000        1.0080           0
     73595 WT24     1086     MECN     H12      HGA3     0.090000        1.0080           0
     73596 WT24     1086     MECN     H13      HGA3     0.090000        1.0080           0
     73597 WT24     1086     MECN     C2       CG1N1    0.360000       12.0110           0
     73598 WT24     1086     MECN     N3       NG1T1   -0.460000       14.0070           0
     73599 WT24     1089     MECN     C1       CG331   -0.170000       12.0110           0
     73600 WT24     1089     MECN     H11      HGA3     0.090000        1.0080           0
     73601 WT24     1089     MECN     H12      HGA3     0.090000        1.0080           0
     73602 WT24     1089     MECN     H13      HGA3     0.090000        1.0080           0
     73603 WT24     1089     MECN     C2       CG1N1    0.360000       12.0110           0
     73604 WT24     1089     MECN     N3       NG1T1   -0.460000       14.0070           0
     73605 WT24     1090     MECN     C1       CG331   -0.170000       12.0110           0
     73606 WT24     1090     MECN     H11      HGA3     0.090000        1.0080           0
     73607 WT24     1090     MECN     H12      HGA3     0.090000        1.0080           0
     73608 WT24     1090     MECN     H13      HGA3     0.090000        1.0080           0
     73609 WT24     1090     MECN     C2       CG1N1    0.360000       12.0110           0
     73610 WT24     1090     MECN     N3       NG1T1   -0.460000       14.0070           0
     73611 WT24     1096     MECN     C1       CG331   -0.170000       12.0110           0
     73612 WT24     1096     MECN     H11      HGA3     0.090000        1.0080           0
     73613 WT24     1096     MECN     H12      HGA3     0.090000        1.0080           0
     73614 WT24     1096     MECN     H13      HGA3     0.090000        1.0080           0
     73615 WT24     1096     MECN     C2       CG1N1    0.360000       12.0110           0
     73616 WT24     1096     MECN     N3       NG1T1   -0.460000       14.0070           0
     73617 WT24     1097     MECN     C1       CG331   -0.170000       12.0110           0
     73618 WT24     1097     MECN     H11      HGA3     0.090000        1.0080           0
     73619 WT24     1097     MECN     H12      HGA3     0.090000        1.0080           0
     73620 WT24     1097     MECN     H13      HGA3     0.090000        1.0080           0
     73621 WT24     1097     MECN     C2       CG1N1    0.360000       12.0110           0
     73622 WT24     1097     MECN     N3       NG1T1   -0.460000       14.0070           0
     73623 WT24     1099     MECN     C1       CG331   -0.170000       12.0110           0
     73624 WT24     1099     MECN     H11      HGA3     0.090000        1.0080           0
     73625 WT24     1099     MECN     H12      HGA3     0.090000        1.0080           0
     73626 WT24     1099     MECN     H13      HGA3     0.090000        1.0080           0
     73627 WT24     1099     MECN     C2       CG1N1    0.360000       12.0110           0
     73628 WT24     1099     MECN     N3       NG1T1   -0.460000       14.0070           0
     73629 WT24     1100     MECN     C1       CG331   -0.170000       12.0110           0
     73630 WT24     1100     MECN     H11      HGA3     0.090000        1.0080           0
     73631 WT24     1100     MECN     H12      HGA3     0.090000        1.0080           0
     73632 WT24     1100     MECN     H13      HGA3     0.090000        1.0080           0
     73633 WT24     1100     MECN     C2       CG1N1    0.360000       12.0110           0
     73634 WT24     1100     MECN     N3       NG1T1   -0.460000       14.0070           0
     73635 WT24     1101     MECN     C1       CG331   -0.170000       12.0110           0
     73636 WT24     1101     MECN     H11      HGA3     0.090000        1.0080           0
     73637 WT24     1101     MECN     H12      HGA3     0.090000        1.0080           0
     73638 WT24     1101     MECN     H13      HGA3     0.090000        1.0080           0
     73639 WT24     1101     MECN     C2       CG1N1    0.360000       12.0110           0
     73640 WT24     1101     MECN     N3       NG1T1   -0.460000       14.0070           0
     73641 WT24     1102     MECN     C1       CG331   -0.170000       12.0110           0
     73642 WT24     1102     MECN     H11      HGA3     0.090000        1.0080           0
     73643 WT24     1102     MECN     H12      HGA3     0.090000        1.0080           0
     73644 WT24     1102     MECN     H13      HGA3     0.090000        1.0080           0
     73645 WT24     1102     MECN     C2       CG1N1    0.360000       12.0110           0
     73646 WT24     1102     MECN     N3       NG1T1   -0.460000       14.0070           0
     73647 WT24     1104     MECN     C1       CG331   -0.170000       12.0110           0
     73648 WT24     1104     MECN     H11      HGA3     0.090000        1.0080           0
     73649 WT24     1104     MECN     H12      HGA3     0.090000        1.0080           0
     73650 WT24     1104     MECN     H13      HGA3     0.090000        1.0080           0
     73651 WT24     1104     MECN     C2       CG1N1    0.360000       12.0110           0
     73652 WT24     1104     MECN     N3       NG1T1   -0.460000       14.0070           0
     73653 WT24     1105     MECN     C1       CG331   -0.170000       12.0110           0
     73654 WT24     1105     MECN     H11      HGA3     0.090000        1.0080           0
     73655 WT24     1105     MECN     H12      HGA3     0.090000        1.0080           0
     73656 WT24     1105     MECN     H13      HGA3     0.090000        1.0080           0
     73657 WT24     1105     MECN     C2       CG1N1    0.360000       12.0110           0
     73658 WT24     1105     MECN     N3       NG1T1   -0.460000       14.0070           0
     73659 WT24     1108     MECN     C1       CG331   -0.170000       12.0110           0
     73660 WT24     1108     MECN     H11      HGA3     0.090000        1.0080           0
     73661 WT24     1108     MECN     H12      HGA3     0.090000        1.0080           0
     73662 WT24     1108     MECN     H13      HGA3     0.090000        1.0080           0
     73663 WT24     1108     MECN     C2       CG1N1    0.360000       12.0110           0
     73664 WT24     1108     MECN     N3       NG1T1   -0.460000       14.0070           0
     73665 WT24     1110     MECN     C1       CG331   -0.170000       12.0110           0
     73666 WT24     1110     MECN     H11      HGA3     0.090000        1.0080           0
     73667 WT24     1110     MECN     H12      HGA3     0.090000        1.0080           0
     73668 WT24     1110     MECN     H13      HGA3     0.090000        1.0080           0
     73669 WT24     1110     MECN     C2       CG1N1    0.360000       12.0110           0
     73670 WT24     1110     MECN     N3       NG1T1   -0.460000       14.0070           0
     73671 WT24     1111     MECN     C1       CG331   -0.170000       12.0110           0
     73672 WT24     1111     MECN     H11      HGA3     0.090000        1.0080           0
     73673 WT24     1111     MECN     H12      HGA3     0.090000        1.0080           0
     73674 WT24     1111     MECN     H13      HGA3     0.090000        1.0080           0
     73675 WT24     1111     MECN     C2       CG1N1    0.360000       12.0110           0
     73676 WT24     1111     MECN     N3       NG1T1   -0.460000       14.0070           0
     73677 WT24     1112     MECN     C1       CG331   -0.170000       12.0110           0
     73678 WT24     1112     MECN     H11      HGA3     0.090000        1.0080           0
     73679 WT24     1112     MECN     H12      HGA3     0.090000        1.0080           0
     73680 WT24     1112     MECN     H13      HGA3     0.090000        1.0080           0
     73681 WT24     1112     MECN     C2       CG1N1    0.360000       12.0110           0
     73682 WT24     1112     MECN     N3       NG1T1   -0.460000       14.0070           0
     73683 WT24     1113     MECN     C1       CG331   -0.170000       12.0110           0
     73684 WT24     1113     MECN     H11      HGA3     0.090000        1.0080           0
     73685 WT24     1113     MECN     H12      HGA3     0.090000        1.0080           0
     73686 WT24     1113     MECN     H13      HGA3     0.090000        1.0080           0
     73687 WT24     1113     MECN     C2       CG1N1    0.360000       12.0110           0
     73688 WT24     1113     MECN     N3       NG1T1   -0.460000       14.0070           0
     73689 WT24     1118     MECN     C1       CG331   -0.170000       12.0110           0
     73690 WT24     1118     MECN     H11      HGA3     0.090000        1.0080           0
     73691 WT24     1118     MECN     H12      HGA3     0.090000        1.0080           0
     73692 WT24     1118     MECN     H13      HGA3     0.090000        1.0080           0
     73693 WT24     1118     MECN     C2       CG1N1    0.360000       12.0110           0
     73694 WT24     1118     MECN     N3       NG1T1   -0.460000       14.0070           0
     73695 WT24     1119     MECN     C1       CG331   -0.170000       12.0110           0
     73696 WT24     1119     MECN     H11      HGA3     0.090000        1.0080           0
     73697 WT24     1119     MECN     H12      HGA3     0.090000        1.0080           0
     73698 WT24     1119     MECN     H13      HGA3     0.090000        1.0080           0
     73699 WT24     1119     MECN     C2       CG1N1    0.360000       12.0110           0
     73700 WT24     1119     MECN     N3       NG1T1   -0.460000       14.0070           0
     73701 WT24     1121     MECN     C1       CG331   -0.170000       12.0110           0
     73702 WT24     1121     MECN     H11      HGA3     0.090000        1.0080           0
     73703 WT24     1121     MECN     H12      HGA3     0.090000        1.0080           0
     73704 WT24     1121     MECN     H13      HGA3     0.090000        1.0080           0
     73705 WT24     1121     MECN     C2       CG1N1    0.360000       12.0110           0
     73706 WT24     1121     MECN     N3       NG1T1   -0.460000       14.0070           0
     73707 WT24     1122     MECN     C1       CG331   -0.170000       12.0110           0
     73708 WT24     1122     MECN     H11      HGA3     0.090000        1.0080           0
     73709 WT24     1122     MECN     H12      HGA3     0.090000        1.0080           0
     73710 WT24     1122     MECN     H13      HGA3     0.090000        1.0080           0
     73711 WT24     1122     MECN     C2       CG1N1    0.360000       12.0110           0
     73712 WT24     1122     MECN     N3       NG1T1   -0.460000       14.0070           0
     73713 WT24     1124     MECN     C1       CG331   -0.170000       12.0110           0
     73714 WT24     1124     MECN     H11      HGA3     0.090000        1.0080           0
     73715 WT24     1124     MECN     H12      HGA3     0.090000        1.0080           0
     73716 WT24     1124     MECN     H13      HGA3     0.090000        1.0080           0
     73717 WT24     1124     MECN     C2       CG1N1    0.360000       12.0110           0
     73718 WT24     1124     MECN     N3       NG1T1   -0.460000       14.0070           0
     73719 WT24     1126     MECN     C1       CG331   -0.170000       12.0110           0
     73720 WT24     1126     MECN     H11      HGA3     0.090000        1.0080           0
     73721 WT24     1126     MECN     H12      HGA3     0.090000        1.0080           0
     73722 WT24     1126     MECN     H13      HGA3     0.090000        1.0080           0
     73723 WT24     1126     MECN     C2       CG1N1    0.360000       12.0110           0
     73724 WT24     1126     MECN     N3       NG1T1   -0.460000       14.0070           0
     73725 WT24     1127     MECN     C1       CG331   -0.170000       12.0110           0
     73726 WT24     1127     MECN     H11      HGA3     0.090000        1.0080           0
     73727 WT24     1127     MECN     H12      HGA3     0.090000        1.0080           0
     73728 WT24     1127     MECN     H13      HGA3     0.090000        1.0080           0
     73729 WT24     1127     MECN     C2       CG1N1    0.360000       12.0110           0
     73730 WT24     1127     MECN     N3       NG1T1   -0.460000       14.0070           0
     73731 WT24     1128     MECN     C1       CG331   -0.170000       12.0110           0
     73732 WT24     1128     MECN     H11      HGA3     0.090000        1.0080           0
     73733 WT24     1128     MECN     H12      HGA3     0.090000        1.0080           0
     73734 WT24     1128     MECN     H13      HGA3     0.090000        1.0080           0
     73735 WT24     1128     MECN     C2       CG1N1    0.360000       12.0110           0
     73736 WT24     1128     MECN     N3       NG1T1   -0.460000       14.0070           0
     73737 WT24     1129     MECN     C1       CG331   -0.170000       12.0110           0
     73738 WT24     1129     MECN     H11      HGA3     0.090000        1.0080           0
     73739 WT24     1129     MECN     H12      HGA3     0.090000        1.0080           0
     73740 WT24     1129     MECN     H13      HGA3     0.090000        1.0080           0
     73741 WT24     1129     MECN     C2       CG1N1    0.360000       12.0110           0
     73742 WT24     1129     MECN     N3       NG1T1   -0.460000       14.0070           0
     73743 WT24     1131     MECN     C1       CG331   -0.170000       12.0110           0
     73744 WT24     1131     MECN     H11      HGA3     0.090000        1.0080           0
     73745 WT24     1131     MECN     H12      HGA3     0.090000        1.0080           0
     73746 WT24     1131     MECN     H13      HGA3     0.090000        1.0080           0
     73747 WT24     1131     MECN     C2       CG1N1    0.360000       12.0110           0
     73748 WT24     1131     MECN     N3       NG1T1   -0.460000       14.0070           0
     73749 WT24     1132     MECN     C1       CG331   -0.170000       12.0110           0
     73750 WT24     1132     MECN     H11      HGA3     0.090000        1.0080           0
     73751 WT24     1132     MECN     H12      HGA3     0.090000        1.0080           0
     73752 WT24     1132     MECN     H13      HGA3     0.090000        1.0080           0
     73753 WT24     1132     MECN     C2       CG1N1    0.360000       12.0110           0
     73754 WT24     1132     MECN     N3       NG1T1   -0.460000       14.0070           0
     73755 WT24     1133     MECN     C1       CG331   -0.170000       12.0110           0
     73756 WT24     1133     MECN     H11      HGA3     0.090000        1.0080           0
     73757 WT24     1133     MECN     H12      HGA3     0.090000        1.0080           0
     73758 WT24     1133     MECN     H13      HGA3     0.090000        1.0080           0
     73759 WT24     1133     MECN     C2       CG1N1    0.360000       12.0110           0
     73760 WT24     1133     MECN     N3       NG1T1   -0.460000       14.0070           0
     73761 WT24     1134     MECN     C1       CG331   -0.170000       12.0110           0
     73762 WT24     1134     MECN     H11      HGA3     0.090000        1.0080           0
     73763 WT24     1134     MECN     H12      HGA3     0.090000        1.0080           0
     73764 WT24     1134     MECN     H13      HGA3     0.090000        1.0080           0
     73765 WT24     1134     MECN     C2       CG1N1    0.360000       12.0110           0
     73766 WT24     1134     MECN     N3       NG1T1   -0.460000       14.0070           0
     73767 WT24     1135     MECN     C1       CG331   -0.170000       12.0110           0
     73768 WT24     1135     MECN     H11      HGA3     0.090000        1.0080           0
     73769 WT24     1135     MECN     H12      HGA3     0.090000        1.0080           0
     73770 WT24     1135     MECN     H13      HGA3     0.090000        1.0080           0
     73771 WT24     1135     MECN     C2       CG1N1    0.360000       12.0110           0
     73772 WT24     1135     MECN     N3       NG1T1   -0.460000       14.0070           0
     73773 WT24     1138     MECN     C1       CG331   -0.170000       12.0110           0
     73774 WT24     1138     MECN     H11      HGA3     0.090000        1.0080           0
     73775 WT24     1138     MECN     H12      HGA3     0.090000        1.0080           0
     73776 WT24     1138     MECN     H13      HGA3     0.090000        1.0080           0
     73777 WT24     1138     MECN     C2       CG1N1    0.360000       12.0110           0
     73778 WT24     1138     MECN     N3       NG1T1   -0.460000       14.0070           0
     73779 WT24     1139     MECN     C1       CG331   -0.170000       12.0110           0
     73780 WT24     1139     MECN     H11      HGA3     0.090000        1.0080           0
     73781 WT24     1139     MECN     H12      HGA3     0.090000        1.0080           0
     73782 WT24     1139     MECN     H13      HGA3     0.090000        1.0080           0
     73783 WT24     1139     MECN     C2       CG1N1    0.360000       12.0110           0
     73784 WT24     1139     MECN     N3       NG1T1   -0.460000       14.0070           0
     73785 WT24     1140     MECN     C1       CG331   -0.170000       12.0110           0
     73786 WT24     1140     MECN     H11      HGA3     0.090000        1.0080           0
     73787 WT24     1140     MECN     H12      HGA3     0.090000        1.0080           0
     73788 WT24     1140     MECN     H13      HGA3     0.090000        1.0080           0
     73789 WT24     1140     MECN     C2       CG1N1    0.360000       12.0110           0
     73790 WT24     1140     MECN     N3       NG1T1   -0.460000       14.0070           0
     73791 WT24     1142     MECN     C1       CG331   -0.170000       12.0110           0
     73792 WT24     1142     MECN     H11      HGA3     0.090000        1.0080           0
     73793 WT24     1142     MECN     H12      HGA3     0.090000        1.0080           0
     73794 WT24     1142     MECN     H13      HGA3     0.090000        1.0080           0
     73795 WT24     1142     MECN     C2       CG1N1    0.360000       12.0110           0
     73796 WT24     1142     MECN     N3       NG1T1   -0.460000       14.0070           0
     73797 WT24     1149     MECN     C1       CG331   -0.170000       12.0110           0
     73798 WT24     1149     MECN     H11      HGA3     0.090000        1.0080           0
     73799 WT24     1149     MECN     H12      HGA3     0.090000        1.0080           0
     73800 WT24     1149     MECN     H13      HGA3     0.090000        1.0080           0
     73801 WT24     1149     MECN     C2       CG1N1    0.360000       12.0110           0
     73802 WT24     1149     MECN     N3       NG1T1   -0.460000       14.0070           0
     73803 WT24     1150     MECN     C1       CG331   -0.170000       12.0110           0
     73804 WT24     1150     MECN     H11      HGA3     0.090000        1.0080           0
     73805 WT24     1150     MECN     H12      HGA3     0.090000        1.0080           0
     73806 WT24     1150     MECN     H13      HGA3     0.090000        1.0080           0
     73807 WT24     1150     MECN     C2       CG1N1    0.360000       12.0110           0
     73808 WT24     1150     MECN     N3       NG1T1   -0.460000       14.0070           0
     73809 WT24     1151     MECN     C1       CG331   -0.170000       12.0110           0
     73810 WT24     1151     MECN     H11      HGA3     0.090000        1.0080           0
     73811 WT24     1151     MECN     H12      HGA3     0.090000        1.0080           0
     73812 WT24     1151     MECN     H13      HGA3     0.090000        1.0080           0
     73813 WT24     1151     MECN     C2       CG1N1    0.360000       12.0110           0
     73814 WT24     1151     MECN     N3       NG1T1   -0.460000       14.0070           0
     73815 WT24     1155     MECN     C1       CG331   -0.170000       12.0110           0
     73816 WT24     1155     MECN     H11      HGA3     0.090000        1.0080           0
     73817 WT24     1155     MECN     H12      HGA3     0.090000        1.0080           0
     73818 WT24     1155     MECN     H13      HGA3     0.090000        1.0080           0
     73819 WT24     1155     MECN     C2       CG1N1    0.360000       12.0110           0
     73820 WT24     1155     MECN     N3       NG1T1   -0.460000       14.0070           0
     73821 WT24     1157     MECN     C1       CG331   -0.170000       12.0110           0
     73822 WT24     1157     MECN     H11      HGA3     0.090000        1.0080           0
     73823 WT24     1157     MECN     H12      HGA3     0.090000        1.0080           0
     73824 WT24     1157     MECN     H13      HGA3     0.090000        1.0080           0
     73825 WT24     1157     MECN     C2       CG1N1    0.360000       12.0110           0
     73826 WT24     1157     MECN     N3       NG1T1   -0.460000       14.0070           0
     73827 WT24     1158     MECN     C1       CG331   -0.170000       12.0110           0
     73828 WT24     1158     MECN     H11      HGA3     0.090000        1.0080           0
     73829 WT24     1158     MECN     H12      HGA3     0.090000        1.0080           0
     73830 WT24     1158     MECN     H13      HGA3     0.090000        1.0080           0
     73831 WT24     1158     MECN     C2       CG1N1    0.360000       12.0110           0
     73832 WT24     1158     MECN     N3       NG1T1   -0.460000       14.0070           0
     73833 WT24     1159     MECN     C1       CG331   -0.170000       12.0110           0
     73834 WT24     1159     MECN     H11      HGA3     0.090000        1.0080           0
     73835 WT24     1159     MECN     H12      HGA3     0.090000        1.0080           0
     73836 WT24     1159     MECN     H13      HGA3     0.090000        1.0080           0
     73837 WT24     1159     MECN     C2       CG1N1    0.360000       12.0110           0
     73838 WT24     1159     MECN     N3       NG1T1   -0.460000       14.0070           0
     73839 WT24     1162     MECN     C1       CG331   -0.170000       12.0110           0
     73840 WT24     1162     MECN     H11      HGA3     0.090000        1.0080           0
     73841 WT24     1162     MECN     H12      HGA3     0.090000        1.0080           0
     73842 WT24     1162     MECN     H13      HGA3     0.090000        1.0080           0
     73843 WT24     1162     MECN     C2       CG1N1    0.360000       12.0110           0
     73844 WT24     1162     MECN     N3       NG1T1   -0.460000       14.0070           0
     73845 WT24     1163     MECN     C1       CG331   -0.170000       12.0110           0
     73846 WT24     1163     MECN     H11      HGA3     0.090000        1.0080           0
     73847 WT24     1163     MECN     H12      HGA3     0.090000        1.0080           0
     73848 WT24     1163     MECN     H13      HGA3     0.090000        1.0080           0
     73849 WT24     1163     MECN     C2       CG1N1    0.360000       12.0110           0
     73850 WT24     1163     MECN     N3       NG1T1   -0.460000       14.0070           0
     73851 WT24     1164     MECN     C1       CG331   -0.170000       12.0110           0
     73852 WT24     1164     MECN     H11      HGA3     0.090000        1.0080           0
     73853 WT24     1164     MECN     H12      HGA3     0.090000        1.0080           0
     73854 WT24     1164     MECN     H13      HGA3     0.090000        1.0080           0
     73855 WT24     1164     MECN     C2       CG1N1    0.360000       12.0110           0
     73856 WT24     1164     MECN     N3       NG1T1   -0.460000       14.0070           0
     73857 WT24     1165     MECN     C1       CG331   -0.170000       12.0110           0
     73858 WT24     1165     MECN     H11      HGA3     0.090000        1.0080           0
     73859 WT24     1165     MECN     H12      HGA3     0.090000        1.0080           0
     73860 WT24     1165     MECN     H13      HGA3     0.090000        1.0080           0
     73861 WT24     1165     MECN     C2       CG1N1    0.360000       12.0110           0
     73862 WT24     1165     MECN     N3       NG1T1   -0.460000       14.0070           0
     73863 WT24     1166     MECN     C1       CG331   -0.170000       12.0110           0
     73864 WT24     1166     MECN     H11      HGA3     0.090000        1.0080           0
     73865 WT24     1166     MECN     H12      HGA3     0.090000        1.0080           0
     73866 WT24     1166     MECN     H13      HGA3     0.090000        1.0080           0
     73867 WT24     1166     MECN     C2       CG1N1    0.360000       12.0110           0
     73868 WT24     1166     MECN     N3       NG1T1   -0.460000       14.0070           0
     73869 WT24     1168     MECN     C1       CG331   -0.170000       12.0110           0
     73870 WT24     1168     MECN     H11      HGA3     0.090000        1.0080           0
     73871 WT24     1168     MECN     H12      HGA3     0.090000        1.0080           0
     73872 WT24     1168     MECN     H13      HGA3     0.090000        1.0080           0
     73873 WT24     1168     MECN     C2       CG1N1    0.360000       12.0110           0
     73874 WT24     1168     MECN     N3       NG1T1   -0.460000       14.0070           0
     73875 WT24     1170     MECN     C1       CG331   -0.170000       12.0110           0
     73876 WT24     1170     MECN     H11      HGA3     0.090000        1.0080           0
     73877 WT24     1170     MECN     H12      HGA3     0.090000        1.0080           0
     73878 WT24     1170     MECN     H13      HGA3     0.090000        1.0080           0
     73879 WT24     1170     MECN     C2       CG1N1    0.360000       12.0110           0
     73880 WT24     1170     MECN     N3       NG1T1   -0.460000       14.0070           0
     73881 WT24     1171     MECN     C1       CG331   -0.170000       12.0110           0
     73882 WT24     1171     MECN     H11      HGA3     0.090000        1.0080           0
     73883 WT24     1171     MECN     H12      HGA3     0.090000        1.0080           0
     73884 WT24     1171     MECN     H13      HGA3     0.090000        1.0080           0
     73885 WT24     1171     MECN     C2       CG1N1    0.360000       12.0110           0
     73886 WT24     1171     MECN     N3       NG1T1   -0.460000       14.0070           0
     73887 WT24     1172     MECN     C1       CG331   -0.170000       12.0110           0
     73888 WT24     1172     MECN     H11      HGA3     0.090000        1.0080           0
     73889 WT24     1172     MECN     H12      HGA3     0.090000        1.0080           0
     73890 WT24     1172     MECN     H13      HGA3     0.090000        1.0080           0
     73891 WT24     1172     MECN     C2       CG1N1    0.360000       12.0110           0
     73892 WT24     1172     MECN     N3       NG1T1   -0.460000       14.0070           0
     73893 WT24     1173     MECN     C1       CG331   -0.170000       12.0110           0
     73894 WT24     1173     MECN     H11      HGA3     0.090000        1.0080           0
     73895 WT24     1173     MECN     H12      HGA3     0.090000        1.0080           0
     73896 WT24     1173     MECN     H13      HGA3     0.090000        1.0080           0
     73897 WT24     1173     MECN     C2       CG1N1    0.360000       12.0110           0
     73898 WT24     1173     MECN     N3       NG1T1   -0.460000       14.0070           0
     73899 WT24     1175     MECN     C1       CG331   -0.170000       12.0110           0
     73900 WT24     1175     MECN     H11      HGA3     0.090000        1.0080           0
     73901 WT24     1175     MECN     H12      HGA3     0.090000        1.0080           0
     73902 WT24     1175     MECN     H13      HGA3     0.090000        1.0080           0
     73903 WT24     1175     MECN     C2       CG1N1    0.360000       12.0110           0
     73904 WT24     1175     MECN     N3       NG1T1   -0.460000       14.0070           0
     73905 WT24     1176     MECN     C1       CG331   -0.170000       12.0110           0
     73906 WT24     1176     MECN     H11      HGA3     0.090000        1.0080           0
     73907 WT24     1176     MECN     H12      HGA3     0.090000        1.0080           0
     73908 WT24     1176     MECN     H13      HGA3     0.090000        1.0080           0
     73909 WT24     1176     MECN     C2       CG1N1    0.360000       12.0110           0
     73910 WT24     1176     MECN     N3       NG1T1   -0.460000       14.0070           0
     73911 WT24     1177     MECN     C1       CG331   -0.170000       12.0110           0
     73912 WT24     1177     MECN     H11      HGA3     0.090000        1.0080           0
     73913 WT24     1177     MECN     H12      HGA3     0.090000        1.0080           0
     73914 WT24     1177     MECN     H13      HGA3     0.090000        1.0080           0
     73915 WT24     1177     MECN     C2       CG1N1    0.360000       12.0110           0
     73916 WT24     1177     MECN     N3       NG1T1   -0.460000       14.0070           0
     73917 WT24     1179     MECN     C1       CG331   -0.170000       12.0110           0
     73918 WT24     1179     MECN     H11      HGA3     0.090000        1.0080           0
     73919 WT24     1179     MECN     H12      HGA3     0.090000        1.0080           0
     73920 WT24     1179     MECN     H13      HGA3     0.090000        1.0080           0
     73921 WT24     1179     MECN     C2       CG1N1    0.360000       12.0110           0
     73922 WT24     1179     MECN     N3       NG1T1   -0.460000       14.0070           0
     73923 WT24     1180     MECN     C1       CG331   -0.170000       12.0110           0
     73924 WT24     1180     MECN     H11      HGA3     0.090000        1.0080           0
     73925 WT24     1180     MECN     H12      HGA3     0.090000        1.0080           0
     73926 WT24     1180     MECN     H13      HGA3     0.090000        1.0080           0
     73927 WT24     1180     MECN     C2       CG1N1    0.360000       12.0110           0
     73928 WT24     1180     MECN     N3       NG1T1   -0.460000       14.0070           0
     73929 WT24     1185     MECN     C1       CG331   -0.170000       12.0110           0
     73930 WT24     1185     MECN     H11      HGA3     0.090000        1.0080           0
     73931 WT24     1185     MECN     H12      HGA3     0.090000        1.0080           0
     73932 WT24     1185     MECN     H13      HGA3     0.090000        1.0080           0
     73933 WT24     1185     MECN     C2       CG1N1    0.360000       12.0110           0
     73934 WT24     1185     MECN     N3       NG1T1   -0.460000       14.0070           0
     73935 WT24     1190     MECN     C1       CG331   -0.170000       12.0110           0
     73936 WT24     1190     MECN     H11      HGA3     0.090000        1.0080           0
     73937 WT24     1190     MECN     H12      HGA3     0.090000        1.0080           0
     73938 WT24     1190     MECN     H13      HGA3     0.090000        1.0080           0
     73939 WT24     1190     MECN     C2       CG1N1    0.360000       12.0110           0
     73940 WT24     1190     MECN     N3       NG1T1   -0.460000       14.0070           0
     73941 WT24     1193     MECN     C1       CG331   -0.170000       12.0110           0
     73942 WT24     1193     MECN     H11      HGA3     0.090000        1.0080           0
     73943 WT24     1193     MECN     H12      HGA3     0.090000        1.0080           0
     73944 WT24     1193     MECN     H13      HGA3     0.090000        1.0080           0
     73945 WT24     1193     MECN     C2       CG1N1    0.360000       12.0110           0
     73946 WT24     1193     MECN     N3       NG1T1   -0.460000       14.0070           0
     73947 WT24     1197     MECN     C1       CG331   -0.170000       12.0110           0
     73948 WT24     1197     MECN     H11      HGA3     0.090000        1.0080           0
     73949 WT24     1197     MECN     H12      HGA3     0.090000        1.0080           0
     73950 WT24     1197     MECN     H13      HGA3     0.090000        1.0080           0
     73951 WT24     1197     MECN     C2       CG1N1    0.360000       12.0110           0
     73952 WT24     1197     MECN     N3       NG1T1   -0.460000       14.0070           0
     73953 WT24     1202     MECN     C1       CG331   -0.170000       12.0110           0
     73954 WT24     1202     MECN     H11      HGA3     0.090000        1.0080           0
     73955 WT24     1202     MECN     H12      HGA3     0.090000        1.0080           0
     73956 WT24     1202     MECN     H13      HGA3     0.090000        1.0080           0
     73957 WT24     1202     MECN     C2       CG1N1    0.360000       12.0110           0
     73958 WT24     1202     MECN     N3       NG1T1   -0.460000       14.0070           0
     73959 WT24     1203     MECN     C1       CG331   -0.170000       12.0110           0
     73960 WT24     1203     MECN     H11      HGA3     0.090000        1.0080           0
     73961 WT24     1203     MECN     H12      HGA3     0.090000        1.0080           0
     73962 WT24     1203     MECN     H13      HGA3     0.090000        1.0080           0
     73963 WT24     1203     MECN     C2       CG1N1    0.360000       12.0110           0
     73964 WT24     1203     MECN     N3       NG1T1   -0.460000       14.0070           0
     73965 WT24     1204     MECN     C1       CG331   -0.170000       12.0110           0
     73966 WT24     1204     MECN     H11      HGA3     0.090000        1.0080           0
     73967 WT24     1204     MECN     H12      HGA3     0.090000        1.0080           0
     73968 WT24     1204     MECN     H13      HGA3     0.090000        1.0080           0
     73969 WT24     1204     MECN     C2       CG1N1    0.360000       12.0110           0
     73970 WT24     1204     MECN     N3       NG1T1   -0.460000       14.0070           0
     73971 WT24     1205     MECN     C1       CG331   -0.170000       12.0110           0
     73972 WT24     1205     MECN     H11      HGA3     0.090000        1.0080           0
     73973 WT24     1205     MECN     H12      HGA3     0.090000        1.0080           0
     73974 WT24     1205     MECN     H13      HGA3     0.090000        1.0080           0
     73975 WT24     1205     MECN     C2       CG1N1    0.360000       12.0110           0
     73976 WT24     1205     MECN     N3       NG1T1   -0.460000       14.0070           0
     73977 WT24     1206     MECN     C1       CG331   -0.170000       12.0110           0
     73978 WT24     1206     MECN     H11      HGA3     0.090000        1.0080           0
     73979 WT24     1206     MECN     H12      HGA3     0.090000        1.0080           0
     73980 WT24     1206     MECN     H13      HGA3     0.090000        1.0080           0
     73981 WT24     1206     MECN     C2       CG1N1    0.360000       12.0110           0
     73982 WT24     1206     MECN     N3       NG1T1   -0.460000       14.0070           0
     73983 WT24     1207     MECN     C1       CG331   -0.170000       12.0110           0
     73984 WT24     1207     MECN     H11      HGA3     0.090000        1.0080           0
     73985 WT24     1207     MECN     H12      HGA3     0.090000        1.0080           0
     73986 WT24     1207     MECN     H13      HGA3     0.090000        1.0080           0
     73987 WT24     1207     MECN     C2       CG1N1    0.360000       12.0110           0
     73988 WT24     1207     MECN     N3       NG1T1   -0.460000       14.0070           0
     73989 WT24     1209     MECN     C1       CG331   -0.170000       12.0110           0
     73990 WT24     1209     MECN     H11      HGA3     0.090000        1.0080           0
     73991 WT24     1209     MECN     H12      HGA3     0.090000        1.0080           0
     73992 WT24     1209     MECN     H13      HGA3     0.090000        1.0080           0
     73993 WT24     1209     MECN     C2       CG1N1    0.360000       12.0110           0
     73994 WT24     1209     MECN     N3       NG1T1   -0.460000       14.0070           0
     73995 WT24     1210     MECN     C1       CG331   -0.170000       12.0110           0
     73996 WT24     1210     MECN     H11      HGA3     0.090000        1.0080           0
     73997 WT24     1210     MECN     H12      HGA3     0.090000        1.0080           0
     73998 WT24     1210     MECN     H13      HGA3     0.090000        1.0080           0
     73999 WT24     1210     MECN     C2       CG1N1    0.360000       12.0110           0
     74000 WT24     1210     MECN     N3       NG1T1   -0.460000       14.0070           0
     74001 WT24     1211     MECN     C1       CG331   -0.170000       12.0110           0
     74002 WT24     1211     MECN     H11      HGA3     0.090000        1.0080           0
     74003 WT24     1211     MECN     H12      HGA3     0.090000        1.0080           0
     74004 WT24     1211     MECN     H13      HGA3     0.090000        1.0080           0
     74005 WT24     1211     MECN     C2       CG1N1    0.360000       12.0110           0
     74006 WT24     1211     MECN     N3       NG1T1   -0.460000       14.0070           0
     74007 WT24     1212     MECN     C1       CG331   -0.170000       12.0110           0
     74008 WT24     1212     MECN     H11      HGA3     0.090000        1.0080           0
     74009 WT24     1212     MECN     H12      HGA3     0.090000        1.0080           0
     74010 WT24     1212     MECN     H13      HGA3     0.090000        1.0080           0
     74011 WT24     1212     MECN     C2       CG1N1    0.360000       12.0110           0
     74012 WT24     1212     MECN     N3       NG1T1   -0.460000       14.0070           0
     74013 WT24     1213     MECN     C1       CG331   -0.170000       12.0110           0
     74014 WT24     1213     MECN     H11      HGA3     0.090000        1.0080           0
     74015 WT24     1213     MECN     H12      HGA3     0.090000        1.0080           0
     74016 WT24     1213     MECN     H13      HGA3     0.090000        1.0080           0
     74017 WT24     1213     MECN     C2       CG1N1    0.360000       12.0110           0
     74018 WT24     1213     MECN     N3       NG1T1   -0.460000       14.0070           0
     74019 WT24     1217     MECN     C1       CG331   -0.170000       12.0110           0
     74020 WT24     1217     MECN     H11      HGA3     0.090000        1.0080           0
     74021 WT24     1217     MECN     H12      HGA3     0.090000        1.0080           0
     74022 WT24     1217     MECN     H13      HGA3     0.090000        1.0080           0
     74023 WT24     1217     MECN     C2       CG1N1    0.360000       12.0110           0
     74024 WT24     1217     MECN     N3       NG1T1   -0.460000       14.0070           0
     74025 WT24     1219     MECN     C1       CG331   -0.170000       12.0110           0
     74026 WT24     1219     MECN     H11      HGA3     0.090000        1.0080           0
     74027 WT24     1219     MECN     H12      HGA3     0.090000        1.0080           0
     74028 WT24     1219     MECN     H13      HGA3     0.090000        1.0080           0
     74029 WT24     1219     MECN     C2       CG1N1    0.360000       12.0110           0
     74030 WT24     1219     MECN     N3       NG1T1   -0.460000       14.0070           0
     74031 WT24     1222     MECN     C1       CG331   -0.170000       12.0110           0
     74032 WT24     1222     MECN     H11      HGA3     0.090000        1.0080           0
     74033 WT24     1222     MECN     H12      HGA3     0.090000        1.0080           0
     74034 WT24     1222     MECN     H13      HGA3     0.090000        1.0080           0
     74035 WT24     1222     MECN     C2       CG1N1    0.360000       12.0110           0
     74036 WT24     1222     MECN     N3       NG1T1   -0.460000       14.0070           0
     74037 WT24     1224     MECN     C1       CG331   -0.170000       12.0110           0
     74038 WT24     1224     MECN     H11      HGA3     0.090000        1.0080           0
     74039 WT24     1224     MECN     H12      HGA3     0.090000        1.0080           0
     74040 WT24     1224     MECN     H13      HGA3     0.090000        1.0080           0
     74041 WT24     1224     MECN     C2       CG1N1    0.360000       12.0110           0
     74042 WT24     1224     MECN     N3       NG1T1   -0.460000       14.0070           0
     74043 WT24     1225     MECN     C1       CG331   -0.170000       12.0110           0
     74044 WT24     1225     MECN     H11      HGA3     0.090000        1.0080           0
     74045 WT24     1225     MECN     H12      HGA3     0.090000        1.0080           0
     74046 WT24     1225     MECN     H13      HGA3     0.090000        1.0080           0
     74047 WT24     1225     MECN     C2       CG1N1    0.360000       12.0110           0
     74048 WT24     1225     MECN     N3       NG1T1   -0.460000       14.0070           0
     74049 WT24     1226     MECN     C1       CG331   -0.170000       12.0110           0
     74050 WT24     1226     MECN     H11      HGA3     0.090000        1.0080           0
     74051 WT24     1226     MECN     H12      HGA3     0.090000        1.0080           0
     74052 WT24     1226     MECN     H13      HGA3     0.090000        1.0080           0
     74053 WT24     1226     MECN     C2       CG1N1    0.360000       12.0110           0
     74054 WT24     1226     MECN     N3       NG1T1   -0.460000       14.0070           0
     74055 WT24     1227     MECN     C1       CG331   -0.170000       12.0110           0
     74056 WT24     1227     MECN     H11      HGA3     0.090000        1.0080           0
     74057 WT24     1227     MECN     H12      HGA3     0.090000        1.0080           0
     74058 WT24     1227     MECN     H13      HGA3     0.090000        1.0080           0
     74059 WT24     1227     MECN     C2       CG1N1    0.360000       12.0110           0
     74060 WT24     1227     MECN     N3       NG1T1   -0.460000       14.0070           0
     74061 WT24     1231     MECN     C1       CG331   -0.170000       12.0110           0
     74062 WT24     1231     MECN     H11      HGA3     0.090000        1.0080           0
     74063 WT24     1231     MECN     H12      HGA3     0.090000        1.0080           0
     74064 WT24     1231     MECN     H13      HGA3     0.090000        1.0080           0
     74065 WT24     1231     MECN     C2       CG1N1    0.360000       12.0110           0
     74066 WT24     1231     MECN     N3       NG1T1   -0.460000       14.0070           0
     74067 WT24     1232     MECN     C1       CG331   -0.170000       12.0110           0
     74068 WT24     1232     MECN     H11      HGA3     0.090000        1.0080           0
     74069 WT24     1232     MECN     H12      HGA3     0.090000        1.0080           0
     74070 WT24     1232     MECN     H13      HGA3     0.090000        1.0080           0
     74071 WT24     1232     MECN     C2       CG1N1    0.360000       12.0110           0
     74072 WT24     1232     MECN     N3       NG1T1   -0.460000       14.0070           0
     74073 WT24     1233     MECN     C1       CG331   -0.170000       12.0110           0
     74074 WT24     1233     MECN     H11      HGA3     0.090000        1.0080           0
     74075 WT24     1233     MECN     H12      HGA3     0.090000        1.0080           0
     74076 WT24     1233     MECN     H13      HGA3     0.090000        1.0080           0
     74077 WT24     1233     MECN     C2       CG1N1    0.360000       12.0110           0
     74078 WT24     1233     MECN     N3       NG1T1   -0.460000       14.0070           0
     74079 WT24     1235     MECN     C1       CG331   -0.170000       12.0110           0
     74080 WT24     1235     MECN     H11      HGA3     0.090000        1.0080           0
     74081 WT24     1235     MECN     H12      HGA3     0.090000        1.0080           0
     74082 WT24     1235     MECN     H13      HGA3     0.090000        1.0080           0
     74083 WT24     1235     MECN     C2       CG1N1    0.360000       12.0110           0
     74084 WT24     1235     MECN     N3       NG1T1   -0.460000       14.0070           0
     74085 WT24     1236     MECN     C1       CG331   -0.170000       12.0110           0
     74086 WT24     1236     MECN     H11      HGA3     0.090000        1.0080           0
     74087 WT24     1236     MECN     H12      HGA3     0.090000        1.0080           0
     74088 WT24     1236     MECN     H13      HGA3     0.090000        1.0080           0
     74089 WT24     1236     MECN     C2       CG1N1    0.360000       12.0110           0
     74090 WT24     1236     MECN     N3       NG1T1   -0.460000       14.0070           0
     74091 WT24     1237     MECN     C1       CG331   -0.170000       12.0110           0
     74092 WT24     1237     MECN     H11      HGA3     0.090000        1.0080           0
     74093 WT24     1237     MECN     H12      HGA3     0.090000        1.0080           0
     74094 WT24     1237     MECN     H13      HGA3     0.090000        1.0080           0
     74095 WT24     1237     MECN     C2       CG1N1    0.360000       12.0110           0
     74096 WT24     1237     MECN     N3       NG1T1   -0.460000       14.0070           0
     74097 WT24     1238     MECN     C1       CG331   -0.170000       12.0110           0
     74098 WT24     1238     MECN     H11      HGA3     0.090000        1.0080           0
     74099 WT24     1238     MECN     H12      HGA3     0.090000        1.0080           0
     74100 WT24     1238     MECN     H13      HGA3     0.090000        1.0080           0
     74101 WT24     1238     MECN     C2       CG1N1    0.360000       12.0110           0
     74102 WT24     1238     MECN     N3       NG1T1   -0.460000       14.0070           0
     74103 WT24     1240     MECN     C1       CG331   -0.170000       12.0110           0
     74104 WT24     1240     MECN     H11      HGA3     0.090000        1.0080           0
     74105 WT24     1240     MECN     H12      HGA3     0.090000        1.0080           0
     74106 WT24     1240     MECN     H13      HGA3     0.090000        1.0080           0
     74107 WT24     1240     MECN     C2       CG1N1    0.360000       12.0110           0
     74108 WT24     1240     MECN     N3       NG1T1   -0.460000       14.0070           0
     74109 WT24     1241     MECN     C1       CG331   -0.170000       12.0110           0
     74110 WT24     1241     MECN     H11      HGA3     0.090000        1.0080           0
     74111 WT24     1241     MECN     H12      HGA3     0.090000        1.0080           0
     74112 WT24     1241     MECN     H13      HGA3     0.090000        1.0080           0
     74113 WT24     1241     MECN     C2       CG1N1    0.360000       12.0110           0
     74114 WT24     1241     MECN     N3       NG1T1   -0.460000       14.0070           0
     74115 WT24     1244     MECN     C1       CG331   -0.170000       12.0110           0
     74116 WT24     1244     MECN     H11      HGA3     0.090000        1.0080           0
     74117 WT24     1244     MECN     H12      HGA3     0.090000        1.0080           0
     74118 WT24     1244     MECN     H13      HGA3     0.090000        1.0080           0
     74119 WT24     1244     MECN     C2       CG1N1    0.360000       12.0110           0
     74120 WT24     1244     MECN     N3       NG1T1   -0.460000       14.0070           0
     74121 WT24     1247     MECN     C1       CG331   -0.170000       12.0110           0
     74122 WT24     1247     MECN     H11      HGA3     0.090000        1.0080           0
     74123 WT24     1247     MECN     H12      HGA3     0.090000        1.0080           0
     74124 WT24     1247     MECN     H13      HGA3     0.090000        1.0080           0
     74125 WT24     1247     MECN     C2       CG1N1    0.360000       12.0110           0
     74126 WT24     1247     MECN     N3       NG1T1   -0.460000       14.0070           0
     74127 WT24     1250     MECN     C1       CG331   -0.170000       12.0110           0
     74128 WT24     1250     MECN     H11      HGA3     0.090000        1.0080           0
     74129 WT24     1250     MECN     H12      HGA3     0.090000        1.0080           0
     74130 WT24     1250     MECN     H13      HGA3     0.090000        1.0080           0
     74131 WT24     1250     MECN     C2       CG1N1    0.360000       12.0110           0
     74132 WT24     1250     MECN     N3       NG1T1   -0.460000       14.0070           0
     74133 WT24     1252     MECN     C1       CG331   -0.170000       12.0110           0
     74134 WT24     1252     MECN     H11      HGA3     0.090000        1.0080           0
     74135 WT24     1252     MECN     H12      HGA3     0.090000        1.0080           0
     74136 WT24     1252     MECN     H13      HGA3     0.090000        1.0080           0
     74137 WT24     1252     MECN     C2       CG1N1    0.360000       12.0110           0
     74138 WT24     1252     MECN     N3       NG1T1   -0.460000       14.0070           0
     74139 WT24     1254     MECN     C1       CG331   -0.170000       12.0110           0
     74140 WT24     1254     MECN     H11      HGA3     0.090000        1.0080           0
     74141 WT24     1254     MECN     H12      HGA3     0.090000        1.0080           0
     74142 WT24     1254     MECN     H13      HGA3     0.090000        1.0080           0
     74143 WT24     1254     MECN     C2       CG1N1    0.360000       12.0110           0
     74144 WT24     1254     MECN     N3       NG1T1   -0.460000       14.0070           0
     74145 WT24     1255     MECN     C1       CG331   -0.170000       12.0110           0
     74146 WT24     1255     MECN     H11      HGA3     0.090000        1.0080           0
     74147 WT24     1255     MECN     H12      HGA3     0.090000        1.0080           0
     74148 WT24     1255     MECN     H13      HGA3     0.090000        1.0080           0
     74149 WT24     1255     MECN     C2       CG1N1    0.360000       12.0110           0
     74150 WT24     1255     MECN     N3       NG1T1   -0.460000       14.0070           0
     74151 WT24     1256     MECN     C1       CG331   -0.170000       12.0110           0
     74152 WT24     1256     MECN     H11      HGA3     0.090000        1.0080           0
     74153 WT24     1256     MECN     H12      HGA3     0.090000        1.0080           0
     74154 WT24     1256     MECN     H13      HGA3     0.090000        1.0080           0
     74155 WT24     1256     MECN     C2       CG1N1    0.360000       12.0110           0
     74156 WT24     1256     MECN     N3       NG1T1   -0.460000       14.0070           0
     74157 WT24     1258     MECN     C1       CG331   -0.170000       12.0110           0
     74158 WT24     1258     MECN     H11      HGA3     0.090000        1.0080           0
     74159 WT24     1258     MECN     H12      HGA3     0.090000        1.0080           0
     74160 WT24     1258     MECN     H13      HGA3     0.090000        1.0080           0
     74161 WT24     1258     MECN     C2       CG1N1    0.360000       12.0110           0
     74162 WT24     1258     MECN     N3       NG1T1   -0.460000       14.0070           0
     74163 WT24     1259     MECN     C1       CG331   -0.170000       12.0110           0
     74164 WT24     1259     MECN     H11      HGA3     0.090000        1.0080           0
     74165 WT24     1259     MECN     H12      HGA3     0.090000        1.0080           0
     74166 WT24     1259     MECN     H13      HGA3     0.090000        1.0080           0
     74167 WT24     1259     MECN     C2       CG1N1    0.360000       12.0110           0
     74168 WT24     1259     MECN     N3       NG1T1   -0.460000       14.0070           0
     74169 WT24     1260     MECN     C1       CG331   -0.170000       12.0110           0
     74170 WT24     1260     MECN     H11      HGA3     0.090000        1.0080           0
     74171 WT24     1260     MECN     H12      HGA3     0.090000        1.0080           0
     74172 WT24     1260     MECN     H13      HGA3     0.090000        1.0080           0
     74173 WT24     1260     MECN     C2       CG1N1    0.360000       12.0110           0
     74174 WT24     1260     MECN     N3       NG1T1   -0.460000       14.0070           0
     74175 WT24     1262     MECN     C1       CG331   -0.170000       12.0110           0
     74176 WT24     1262     MECN     H11      HGA3     0.090000        1.0080           0
     74177 WT24     1262     MECN     H12      HGA3     0.090000        1.0080           0
     74178 WT24     1262     MECN     H13      HGA3     0.090000        1.0080           0
     74179 WT24     1262     MECN     C2       CG1N1    0.360000       12.0110           0
     74180 WT24     1262     MECN     N3       NG1T1   -0.460000       14.0070           0
     74181 WT24     1263     MECN     C1       CG331   -0.170000       12.0110           0
     74182 WT24     1263     MECN     H11      HGA3     0.090000        1.0080           0
     74183 WT24     1263     MECN     H12      HGA3     0.090000        1.0080           0
     74184 WT24     1263     MECN     H13      HGA3     0.090000        1.0080           0
     74185 WT24     1263     MECN     C2       CG1N1    0.360000       12.0110           0
     74186 WT24     1263     MECN     N3       NG1T1   -0.460000       14.0070           0
     74187 WT24     1264     MECN     C1       CG331   -0.170000       12.0110           0
     74188 WT24     1264     MECN     H11      HGA3     0.090000        1.0080           0
     74189 WT24     1264     MECN     H12      HGA3     0.090000        1.0080           0
     74190 WT24     1264     MECN     H13      HGA3     0.090000        1.0080           0
     74191 WT24     1264     MECN     C2       CG1N1    0.360000       12.0110           0
     74192 WT24     1264     MECN     N3       NG1T1   -0.460000       14.0070           0
     74193 WT24     1265     MECN     C1       CG331   -0.170000       12.0110           0
     74194 WT24     1265     MECN     H11      HGA3     0.090000        1.0080           0
     74195 WT24     1265     MECN     H12      HGA3     0.090000        1.0080           0
     74196 WT24     1265     MECN     H13      HGA3     0.090000        1.0080           0
     74197 WT24     1265     MECN     C2       CG1N1    0.360000       12.0110           0
     74198 WT24     1265     MECN     N3       NG1T1   -0.460000       14.0070           0
     74199 WT24     1266     MECN     C1       CG331   -0.170000       12.0110           0
     74200 WT24     1266     MECN     H11      HGA3     0.090000        1.0080           0
     74201 WT24     1266     MECN     H12      HGA3     0.090000        1.0080           0
     74202 WT24     1266     MECN     H13      HGA3     0.090000        1.0080           0
     74203 WT24     1266     MECN     C2       CG1N1    0.360000       12.0110           0
     74204 WT24     1266     MECN     N3       NG1T1   -0.460000       14.0070           0
     74205 WT24     1268     MECN     C1       CG331   -0.170000       12.0110           0
     74206 WT24     1268     MECN     H11      HGA3     0.090000        1.0080           0
     74207 WT24     1268     MECN     H12      HGA3     0.090000        1.0080           0
     74208 WT24     1268     MECN     H13      HGA3     0.090000        1.0080           0
     74209 WT24     1268     MECN     C2       CG1N1    0.360000       12.0110           0
     74210 WT24     1268     MECN     N3       NG1T1   -0.460000       14.0070           0
     74211 WT24     1269     MECN     C1       CG331   -0.170000       12.0110           0
     74212 WT24     1269     MECN     H11      HGA3     0.090000        1.0080           0
     74213 WT24     1269     MECN     H12      HGA3     0.090000        1.0080           0
     74214 WT24     1269     MECN     H13      HGA3     0.090000        1.0080           0
     74215 WT24     1269     MECN     C2       CG1N1    0.360000       12.0110           0
     74216 WT24     1269     MECN     N3       NG1T1   -0.460000       14.0070           0
     74217 WT24     1272     MECN     C1       CG331   -0.170000       12.0110           0
     74218 WT24     1272     MECN     H11      HGA3     0.090000        1.0080           0
     74219 WT24     1272     MECN     H12      HGA3     0.090000        1.0080           0
     74220 WT24     1272     MECN     H13      HGA3     0.090000        1.0080           0
     74221 WT24     1272     MECN     C2       CG1N1    0.360000       12.0110           0
     74222 WT24     1272     MECN     N3       NG1T1   -0.460000       14.0070           0
     74223 WT24     1277     MECN     C1       CG331   -0.170000       12.0110           0
     74224 WT24     1277     MECN     H11      HGA3     0.090000        1.0080           0
     74225 WT24     1277     MECN     H12      HGA3     0.090000        1.0080           0
     74226 WT24     1277     MECN     H13      HGA3     0.090000        1.0080           0
     74227 WT24     1277     MECN     C2       CG1N1    0.360000       12.0110           0
     74228 WT24     1277     MECN     N3       NG1T1   -0.460000       14.0070           0
     74229 WT24     1278     MECN     C1       CG331   -0.170000       12.0110           0
     74230 WT24     1278     MECN     H11      HGA3     0.090000        1.0080           0
     74231 WT24     1278     MECN     H12      HGA3     0.090000        1.0080           0
     74232 WT24     1278     MECN     H13      HGA3     0.090000        1.0080           0
     74233 WT24     1278     MECN     C2       CG1N1    0.360000       12.0110           0
     74234 WT24     1278     MECN     N3       NG1T1   -0.460000       14.0070           0
     74235 WT24     1280     MECN     C1       CG331   -0.170000       12.0110           0
     74236 WT24     1280     MECN     H11      HGA3     0.090000        1.0080           0
     74237 WT24     1280     MECN     H12      HGA3     0.090000        1.0080           0
     74238 WT24     1280     MECN     H13      HGA3     0.090000        1.0080           0
     74239 WT24     1280     MECN     C2       CG1N1    0.360000       12.0110           0
     74240 WT24     1280     MECN     N3       NG1T1   -0.460000       14.0070           0
     74241 WT24     1283     MECN     C1       CG331   -0.170000       12.0110           0
     74242 WT24     1283     MECN     H11      HGA3     0.090000        1.0080           0
     74243 WT24     1283     MECN     H12      HGA3     0.090000        1.0080           0
     74244 WT24     1283     MECN     H13      HGA3     0.090000        1.0080           0
     74245 WT24     1283     MECN     C2       CG1N1    0.360000       12.0110           0
     74246 WT24     1283     MECN     N3       NG1T1   -0.460000       14.0070           0
     74247 WT24     1285     MECN     C1       CG331   -0.170000       12.0110           0
     74248 WT24     1285     MECN     H11      HGA3     0.090000        1.0080           0
     74249 WT24     1285     MECN     H12      HGA3     0.090000        1.0080           0
     74250 WT24     1285     MECN     H13      HGA3     0.090000        1.0080           0
     74251 WT24     1285     MECN     C2       CG1N1    0.360000       12.0110           0
     74252 WT24     1285     MECN     N3       NG1T1   -0.460000       14.0070           0
     74253 WT24     1286     MECN     C1       CG331   -0.170000       12.0110           0
     74254 WT24     1286     MECN     H11      HGA3     0.090000        1.0080           0
     74255 WT24     1286     MECN     H12      HGA3     0.090000        1.0080           0
     74256 WT24     1286     MECN     H13      HGA3     0.090000        1.0080           0
     74257 WT24     1286     MECN     C2       CG1N1    0.360000       12.0110           0
     74258 WT24     1286     MECN     N3       NG1T1   -0.460000       14.0070           0
     74259 WT24     1288     MECN     C1       CG331   -0.170000       12.0110           0
     74260 WT24     1288     MECN     H11      HGA3     0.090000        1.0080           0
     74261 WT24     1288     MECN     H12      HGA3     0.090000        1.0080           0
     74262 WT24     1288     MECN     H13      HGA3     0.090000        1.0080           0
     74263 WT24     1288     MECN     C2       CG1N1    0.360000       12.0110           0
     74264 WT24     1288     MECN     N3       NG1T1   -0.460000       14.0070           0
     74265 WT24     1290     MECN     C1       CG331   -0.170000       12.0110           0
     74266 WT24     1290     MECN     H11      HGA3     0.090000        1.0080           0
     74267 WT24     1290     MECN     H12      HGA3     0.090000        1.0080           0
     74268 WT24     1290     MECN     H13      HGA3     0.090000        1.0080           0
     74269 WT24     1290     MECN     C2       CG1N1    0.360000       12.0110           0
     74270 WT24     1290     MECN     N3       NG1T1   -0.460000       14.0070           0
     74271 WT24     1291     MECN     C1       CG331   -0.170000       12.0110           0
     74272 WT24     1291     MECN     H11      HGA3     0.090000        1.0080           0
     74273 WT24     1291     MECN     H12      HGA3     0.090000        1.0080           0
     74274 WT24     1291     MECN     H13      HGA3     0.090000        1.0080           0
     74275 WT24     1291     MECN     C2       CG1N1    0.360000       12.0110           0
     74276 WT24     1291     MECN     N3       NG1T1   -0.460000       14.0070           0
     74277 WT24     1296     MECN     C1       CG331   -0.170000       12.0110           0
     74278 WT24     1296     MECN     H11      HGA3     0.090000        1.0080           0
     74279 WT24     1296     MECN     H12      HGA3     0.090000        1.0080           0
     74280 WT24     1296     MECN     H13      HGA3     0.090000        1.0080           0
     74281 WT24     1296     MECN     C2       CG1N1    0.360000       12.0110           0
     74282 WT24     1296     MECN     N3       NG1T1   -0.460000       14.0070           0
     74283 WT24     1297     MECN     C1       CG331   -0.170000       12.0110           0
     74284 WT24     1297     MECN     H11      HGA3     0.090000        1.0080           0
     74285 WT24     1297     MECN     H12      HGA3     0.090000        1.0080           0
     74286 WT24     1297     MECN     H13      HGA3     0.090000        1.0080           0
     74287 WT24     1297     MECN     C2       CG1N1    0.360000       12.0110           0
     74288 WT24     1297     MECN     N3       NG1T1   -0.460000       14.0070           0
     74289 WT24     1299     MECN     C1       CG331   -0.170000       12.0110           0
     74290 WT24     1299     MECN     H11      HGA3     0.090000        1.0080           0
     74291 WT24     1299     MECN     H12      HGA3     0.090000        1.0080           0
     74292 WT24     1299     MECN     H13      HGA3     0.090000        1.0080           0
     74293 WT24     1299     MECN     C2       CG1N1    0.360000       12.0110           0
     74294 WT24     1299     MECN     N3       NG1T1   -0.460000       14.0070           0
     74295 WT24     1301     MECN     C1       CG331   -0.170000       12.0110           0
     74296 WT24     1301     MECN     H11      HGA3     0.090000        1.0080           0
     74297 WT24     1301     MECN     H12      HGA3     0.090000        1.0080           0
     74298 WT24     1301     MECN     H13      HGA3     0.090000        1.0080           0
     74299 WT24     1301     MECN     C2       CG1N1    0.360000       12.0110           0
     74300 WT24     1301     MECN     N3       NG1T1   -0.460000       14.0070           0
     74301 WT24     1302     MECN     C1       CG331   -0.170000       12.0110           0
     74302 WT24     1302     MECN     H11      HGA3     0.090000        1.0080           0
     74303 WT24     1302     MECN     H12      HGA3     0.090000        1.0080           0
     74304 WT24     1302     MECN     H13      HGA3     0.090000        1.0080           0
     74305 WT24     1302     MECN     C2       CG1N1    0.360000       12.0110           0
     74306 WT24     1302     MECN     N3       NG1T1   -0.460000       14.0070           0
     74307 WT24     1305     MECN     C1       CG331   -0.170000       12.0110           0
     74308 WT24     1305     MECN     H11      HGA3     0.090000        1.0080           0
     74309 WT24     1305     MECN     H12      HGA3     0.090000        1.0080           0
     74310 WT24     1305     MECN     H13      HGA3     0.090000        1.0080           0
     74311 WT24     1305     MECN     C2       CG1N1    0.360000       12.0110           0
     74312 WT24     1305     MECN     N3       NG1T1   -0.460000       14.0070           0
     74313 WT24     1308     MECN     C1       CG331   -0.170000       12.0110           0
     74314 WT24     1308     MECN     H11      HGA3     0.090000        1.0080           0
     74315 WT24     1308     MECN     H12      HGA3     0.090000        1.0080           0
     74316 WT24     1308     MECN     H13      HGA3     0.090000        1.0080           0
     74317 WT24     1308     MECN     C2       CG1N1    0.360000       12.0110           0
     74318 WT24     1308     MECN     N3       NG1T1   -0.460000       14.0070           0
     74319 WT24     1309     MECN     C1       CG331   -0.170000       12.0110           0
     74320 WT24     1309     MECN     H11      HGA3     0.090000        1.0080           0
     74321 WT24     1309     MECN     H12      HGA3     0.090000        1.0080           0
     74322 WT24     1309     MECN     H13      HGA3     0.090000        1.0080           0
     74323 WT24     1309     MECN     C2       CG1N1    0.360000       12.0110           0
     74324 WT24     1309     MECN     N3       NG1T1   -0.460000       14.0070           0
     74325 WT24     1311     MECN     C1       CG331   -0.170000       12.0110           0
     74326 WT24     1311     MECN     H11      HGA3     0.090000        1.0080           0
     74327 WT24     1311     MECN     H12      HGA3     0.090000        1.0080           0
     74328 WT24     1311     MECN     H13      HGA3     0.090000        1.0080           0
     74329 WT24     1311     MECN     C2       CG1N1    0.360000       12.0110           0
     74330 WT24     1311     MECN     N3       NG1T1   -0.460000       14.0070           0
     74331 WT24     1312     MECN     C1       CG331   -0.170000       12.0110           0
     74332 WT24     1312     MECN     H11      HGA3     0.090000        1.0080           0
     74333 WT24     1312     MECN     H12      HGA3     0.090000        1.0080           0
     74334 WT24     1312     MECN     H13      HGA3     0.090000        1.0080           0
     74335 WT24     1312     MECN     C2       CG1N1    0.360000       12.0110           0
     74336 WT24     1312     MECN     N3       NG1T1   -0.460000       14.0070           0
     74337 WT24     1313     MECN     C1       CG331   -0.170000       12.0110           0
     74338 WT24     1313     MECN     H11      HGA3     0.090000        1.0080           0
     74339 WT24     1313     MECN     H12      HGA3     0.090000        1.0080           0
     74340 WT24     1313     MECN     H13      HGA3     0.090000        1.0080           0
     74341 WT24     1313     MECN     C2       CG1N1    0.360000       12.0110           0
     74342 WT24     1313     MECN     N3       NG1T1   -0.460000       14.0070           0
     74343 WT24     1316     MECN     C1       CG331   -0.170000       12.0110           0
     74344 WT24     1316     MECN     H11      HGA3     0.090000        1.0080           0
     74345 WT24     1316     MECN     H12      HGA3     0.090000        1.0080           0
     74346 WT24     1316     MECN     H13      HGA3     0.090000        1.0080           0
     74347 WT24     1316     MECN     C2       CG1N1    0.360000       12.0110           0
     74348 WT24     1316     MECN     N3       NG1T1   -0.460000       14.0070           0
     74349 WT24     1318     MECN     C1       CG331   -0.170000       12.0110           0
     74350 WT24     1318     MECN     H11      HGA3     0.090000        1.0080           0
     74351 WT24     1318     MECN     H12      HGA3     0.090000        1.0080           0
     74352 WT24     1318     MECN     H13      HGA3     0.090000        1.0080           0
     74353 WT24     1318     MECN     C2       CG1N1    0.360000       12.0110           0
     74354 WT24     1318     MECN     N3       NG1T1   -0.460000       14.0070           0
     74355 WT24     1319     MECN     C1       CG331   -0.170000       12.0110           0
     74356 WT24     1319     MECN     H11      HGA3     0.090000        1.0080           0
     74357 WT24     1319     MECN     H12      HGA3     0.090000        1.0080           0
     74358 WT24     1319     MECN     H13      HGA3     0.090000        1.0080           0
     74359 WT24     1319     MECN     C2       CG1N1    0.360000       12.0110           0
     74360 WT24     1319     MECN     N3       NG1T1   -0.460000       14.0070           0
     74361 WT24     1320     MECN     C1       CG331   -0.170000       12.0110           0
     74362 WT24     1320     MECN     H11      HGA3     0.090000        1.0080           0
     74363 WT24     1320     MECN     H12      HGA3     0.090000        1.0080           0
     74364 WT24     1320     MECN     H13      HGA3     0.090000        1.0080           0
     74365 WT24     1320     MECN     C2       CG1N1    0.360000       12.0110           0
     74366 WT24     1320     MECN     N3       NG1T1   -0.460000       14.0070           0
     74367 WT24     1322     MECN     C1       CG331   -0.170000       12.0110           0
     74368 WT24     1322     MECN     H11      HGA3     0.090000        1.0080           0
     74369 WT24     1322     MECN     H12      HGA3     0.090000        1.0080           0
     74370 WT24     1322     MECN     H13      HGA3     0.090000        1.0080           0
     74371 WT24     1322     MECN     C2       CG1N1    0.360000       12.0110           0
     74372 WT24     1322     MECN     N3       NG1T1   -0.460000       14.0070           0
     74373 WT24     1324     MECN     C1       CG331   -0.170000       12.0110           0
     74374 WT24     1324     MECN     H11      HGA3     0.090000        1.0080           0
     74375 WT24     1324     MECN     H12      HGA3     0.090000        1.0080           0
     74376 WT24     1324     MECN     H13      HGA3     0.090000        1.0080           0
     74377 WT24     1324     MECN     C2       CG1N1    0.360000       12.0110           0
     74378 WT24     1324     MECN     N3       NG1T1   -0.460000       14.0070           0
     74379 WT24     1327     MECN     C1       CG331   -0.170000       12.0110           0
     74380 WT24     1327     MECN     H11      HGA3     0.090000        1.0080           0
     74381 WT24     1327     MECN     H12      HGA3     0.090000        1.0080           0
     74382 WT24     1327     MECN     H13      HGA3     0.090000        1.0080           0
     74383 WT24     1327     MECN     C2       CG1N1    0.360000       12.0110           0
     74384 WT24     1327     MECN     N3       NG1T1   -0.460000       14.0070           0
     74385 WT24     1328     MECN     C1       CG331   -0.170000       12.0110           0
     74386 WT24     1328     MECN     H11      HGA3     0.090000        1.0080           0
     74387 WT24     1328     MECN     H12      HGA3     0.090000        1.0080           0
     74388 WT24     1328     MECN     H13      HGA3     0.090000        1.0080           0
     74389 WT24     1328     MECN     C2       CG1N1    0.360000       12.0110           0
     74390 WT24     1328     MECN     N3       NG1T1   -0.460000       14.0070           0
     74391 WT24     1330     MECN     C1       CG331   -0.170000       12.0110           0
     74392 WT24     1330     MECN     H11      HGA3     0.090000        1.0080           0
     74393 WT24     1330     MECN     H12      HGA3     0.090000        1.0080           0
     74394 WT24     1330     MECN     H13      HGA3     0.090000        1.0080           0
     74395 WT24     1330     MECN     C2       CG1N1    0.360000       12.0110           0
     74396 WT24     1330     MECN     N3       NG1T1   -0.460000       14.0070           0
     74397 WT24     1331     MECN     C1       CG331   -0.170000       12.0110           0
     74398 WT24     1331     MECN     H11      HGA3     0.090000        1.0080           0
     74399 WT24     1331     MECN     H12      HGA3     0.090000        1.0080           0
     74400 WT24     1331     MECN     H13      HGA3     0.090000        1.0080           0
     74401 WT24     1331     MECN     C2       CG1N1    0.360000       12.0110           0
     74402 WT24     1331     MECN     N3       NG1T1   -0.460000       14.0070           0
     74403 WT25     8        MECN     C1       CG331   -0.170000       12.0110           0
     74404 WT25     8        MECN     H11      HGA3     0.090000        1.0080           0
     74405 WT25     8        MECN     H12      HGA3     0.090000        1.0080           0
     74406 WT25     8        MECN     H13      HGA3     0.090000        1.0080           0
     74407 WT25     8        MECN     C2       CG1N1    0.360000       12.0110           0
     74408 WT25     8        MECN     N3       NG1T1   -0.460000       14.0070           0
     74409 WT25     9        MECN     C1       CG331   -0.170000       12.0110           0
     74410 WT25     9        MECN     H11      HGA3     0.090000        1.0080           0
     74411 WT25     9        MECN     H12      HGA3     0.090000        1.0080           0
     74412 WT25     9        MECN     H13      HGA3     0.090000        1.0080           0
     74413 WT25     9        MECN     C2       CG1N1    0.360000       12.0110           0
     74414 WT25     9        MECN     N3       NG1T1   -0.460000       14.0070           0
     74415 WT25     17       MECN     C1       CG331   -0.170000       12.0110           0
     74416 WT25     17       MECN     H11      HGA3     0.090000        1.0080           0
     74417 WT25     17       MECN     H12      HGA3     0.090000        1.0080           0
     74418 WT25     17       MECN     H13      HGA3     0.090000        1.0080           0
     74419 WT25     17       MECN     C2       CG1N1    0.360000       12.0110           0
     74420 WT25     17       MECN     N3       NG1T1   -0.460000       14.0070           0
     74421 WT25     36       MECN     C1       CG331   -0.170000       12.0110           0
     74422 WT25     36       MECN     H11      HGA3     0.090000        1.0080           0
     74423 WT25     36       MECN     H12      HGA3     0.090000        1.0080           0
     74424 WT25     36       MECN     H13      HGA3     0.090000        1.0080           0
     74425 WT25     36       MECN     C2       CG1N1    0.360000       12.0110           0
     74426 WT25     36       MECN     N3       NG1T1   -0.460000       14.0070           0
     74427 WT25     37       MECN     C1       CG331   -0.170000       12.0110           0
     74428 WT25     37       MECN     H11      HGA3     0.090000        1.0080           0
     74429 WT25     37       MECN     H12      HGA3     0.090000        1.0080           0
     74430 WT25     37       MECN     H13      HGA3     0.090000        1.0080           0
     74431 WT25     37       MECN     C2       CG1N1    0.360000       12.0110           0
     74432 WT25     37       MECN     N3       NG1T1   -0.460000       14.0070           0
     74433 WT25     38       MECN     C1       CG331   -0.170000       12.0110           0
     74434 WT25     38       MECN     H11      HGA3     0.090000        1.0080           0
     74435 WT25     38       MECN     H12      HGA3     0.090000        1.0080           0
     74436 WT25     38       MECN     H13      HGA3     0.090000        1.0080           0
     74437 WT25     38       MECN     C2       CG1N1    0.360000       12.0110           0
     74438 WT25     38       MECN     N3       NG1T1   -0.460000       14.0070           0
     74439 WT25     39       MECN     C1       CG331   -0.170000       12.0110           0
     74440 WT25     39       MECN     H11      HGA3     0.090000        1.0080           0
     74441 WT25     39       MECN     H12      HGA3     0.090000        1.0080           0
     74442 WT25     39       MECN     H13      HGA3     0.090000        1.0080           0
     74443 WT25     39       MECN     C2       CG1N1    0.360000       12.0110           0
     74444 WT25     39       MECN     N3       NG1T1   -0.460000       14.0070           0
     74445 WT25     43       MECN     C1       CG331   -0.170000       12.0110           0
     74446 WT25     43       MECN     H11      HGA3     0.090000        1.0080           0
     74447 WT25     43       MECN     H12      HGA3     0.090000        1.0080           0
     74448 WT25     43       MECN     H13      HGA3     0.090000        1.0080           0
     74449 WT25     43       MECN     C2       CG1N1    0.360000       12.0110           0
     74450 WT25     43       MECN     N3       NG1T1   -0.460000       14.0070           0
     74451 WT25     45       MECN     C1       CG331   -0.170000       12.0110           0
     74452 WT25     45       MECN     H11      HGA3     0.090000        1.0080           0
     74453 WT25     45       MECN     H12      HGA3     0.090000        1.0080           0
     74454 WT25     45       MECN     H13      HGA3     0.090000        1.0080           0
     74455 WT25     45       MECN     C2       CG1N1    0.360000       12.0110           0
     74456 WT25     45       MECN     N3       NG1T1   -0.460000       14.0070           0
     74457 WT25     46       MECN     C1       CG331   -0.170000       12.0110           0
     74458 WT25     46       MECN     H11      HGA3     0.090000        1.0080           0
     74459 WT25     46       MECN     H12      HGA3     0.090000        1.0080           0
     74460 WT25     46       MECN     H13      HGA3     0.090000        1.0080           0
     74461 WT25     46       MECN     C2       CG1N1    0.360000       12.0110           0
     74462 WT25     46       MECN     N3       NG1T1   -0.460000       14.0070           0
     74463 WT25     57       MECN     C1       CG331   -0.170000       12.0110           0
     74464 WT25     57       MECN     H11      HGA3     0.090000        1.0080           0
     74465 WT25     57       MECN     H12      HGA3     0.090000        1.0080           0
     74466 WT25     57       MECN     H13      HGA3     0.090000        1.0080           0
     74467 WT25     57       MECN     C2       CG1N1    0.360000       12.0110           0
     74468 WT25     57       MECN     N3       NG1T1   -0.460000       14.0070           0
     74469 WT25     59       MECN     C1       CG331   -0.170000       12.0110           0
     74470 WT25     59       MECN     H11      HGA3     0.090000        1.0080           0
     74471 WT25     59       MECN     H12      HGA3     0.090000        1.0080           0
     74472 WT25     59       MECN     H13      HGA3     0.090000        1.0080           0
     74473 WT25     59       MECN     C2       CG1N1    0.360000       12.0110           0
     74474 WT25     59       MECN     N3       NG1T1   -0.460000       14.0070           0
     74475 WT25     60       MECN     C1       CG331   -0.170000       12.0110           0
     74476 WT25     60       MECN     H11      HGA3     0.090000        1.0080           0
     74477 WT25     60       MECN     H12      HGA3     0.090000        1.0080           0
     74478 WT25     60       MECN     H13      HGA3     0.090000        1.0080           0
     74479 WT25     60       MECN     C2       CG1N1    0.360000       12.0110           0
     74480 WT25     60       MECN     N3       NG1T1   -0.460000       14.0070           0
     74481 WT25     62       MECN     C1       CG331   -0.170000       12.0110           0
     74482 WT25     62       MECN     H11      HGA3     0.090000        1.0080           0
     74483 WT25     62       MECN     H12      HGA3     0.090000        1.0080           0
     74484 WT25     62       MECN     H13      HGA3     0.090000        1.0080           0
     74485 WT25     62       MECN     C2       CG1N1    0.360000       12.0110           0
     74486 WT25     62       MECN     N3       NG1T1   -0.460000       14.0070           0
     74487 WT25     71       MECN     C1       CG331   -0.170000       12.0110           0
     74488 WT25     71       MECN     H11      HGA3     0.090000        1.0080           0
     74489 WT25     71       MECN     H12      HGA3     0.090000        1.0080           0
     74490 WT25     71       MECN     H13      HGA3     0.090000        1.0080           0
     74491 WT25     71       MECN     C2       CG1N1    0.360000       12.0110           0
     74492 WT25     71       MECN     N3       NG1T1   -0.460000       14.0070           0
     74493 WT25     72       MECN     C1       CG331   -0.170000       12.0110           0
     74494 WT25     72       MECN     H11      HGA3     0.090000        1.0080           0
     74495 WT25     72       MECN     H12      HGA3     0.090000        1.0080           0
     74496 WT25     72       MECN     H13      HGA3     0.090000        1.0080           0
     74497 WT25     72       MECN     C2       CG1N1    0.360000       12.0110           0
     74498 WT25     72       MECN     N3       NG1T1   -0.460000       14.0070           0
     74499 WT25     75       MECN     C1       CG331   -0.170000       12.0110           0
     74500 WT25     75       MECN     H11      HGA3     0.090000        1.0080           0
     74501 WT25     75       MECN     H12      HGA3     0.090000        1.0080           0
     74502 WT25     75       MECN     H13      HGA3     0.090000        1.0080           0
     74503 WT25     75       MECN     C2       CG1N1    0.360000       12.0110           0
     74504 WT25     75       MECN     N3       NG1T1   -0.460000       14.0070           0
     74505 WT25     78       MECN     C1       CG331   -0.170000       12.0110           0
     74506 WT25     78       MECN     H11      HGA3     0.090000        1.0080           0
     74507 WT25     78       MECN     H12      HGA3     0.090000        1.0080           0
     74508 WT25     78       MECN     H13      HGA3     0.090000        1.0080           0
     74509 WT25     78       MECN     C2       CG1N1    0.360000       12.0110           0
     74510 WT25     78       MECN     N3       NG1T1   -0.460000       14.0070           0
     74511 WT25     80       MECN     C1       CG331   -0.170000       12.0110           0
     74512 WT25     80       MECN     H11      HGA3     0.090000        1.0080           0
     74513 WT25     80       MECN     H12      HGA3     0.090000        1.0080           0
     74514 WT25     80       MECN     H13      HGA3     0.090000        1.0080           0
     74515 WT25     80       MECN     C2       CG1N1    0.360000       12.0110           0
     74516 WT25     80       MECN     N3       NG1T1   -0.460000       14.0070           0
     74517 WT25     83       MECN     C1       CG331   -0.170000       12.0110           0
     74518 WT25     83       MECN     H11      HGA3     0.090000        1.0080           0
     74519 WT25     83       MECN     H12      HGA3     0.090000        1.0080           0
     74520 WT25     83       MECN     H13      HGA3     0.090000        1.0080           0
     74521 WT25     83       MECN     C2       CG1N1    0.360000       12.0110           0
     74522 WT25     83       MECN     N3       NG1T1   -0.460000       14.0070           0
     74523 WT25     86       MECN     C1       CG331   -0.170000       12.0110           0
     74524 WT25     86       MECN     H11      HGA3     0.090000        1.0080           0
     74525 WT25     86       MECN     H12      HGA3     0.090000        1.0080           0
     74526 WT25     86       MECN     H13      HGA3     0.090000        1.0080           0
     74527 WT25     86       MECN     C2       CG1N1    0.360000       12.0110           0
     74528 WT25     86       MECN     N3       NG1T1   -0.460000       14.0070           0
     74529 WT25     90       MECN     C1       CG331   -0.170000       12.0110           0
     74530 WT25     90       MECN     H11      HGA3     0.090000        1.0080           0
     74531 WT25     90       MECN     H12      HGA3     0.090000        1.0080           0
     74532 WT25     90       MECN     H13      HGA3     0.090000        1.0080           0
     74533 WT25     90       MECN     C2       CG1N1    0.360000       12.0110           0
     74534 WT25     90       MECN     N3       NG1T1   -0.460000       14.0070           0
     74535 WT25     95       MECN     C1       CG331   -0.170000       12.0110           0
     74536 WT25     95       MECN     H11      HGA3     0.090000        1.0080           0
     74537 WT25     95       MECN     H12      HGA3     0.090000        1.0080           0
     74538 WT25     95       MECN     H13      HGA3     0.090000        1.0080           0
     74539 WT25     95       MECN     C2       CG1N1    0.360000       12.0110           0
     74540 WT25     95       MECN     N3       NG1T1   -0.460000       14.0070           0
     74541 WT25     100      MECN     C1       CG331   -0.170000       12.0110           0
     74542 WT25     100      MECN     H11      HGA3     0.090000        1.0080           0
     74543 WT25     100      MECN     H12      HGA3     0.090000        1.0080           0
     74544 WT25     100      MECN     H13      HGA3     0.090000        1.0080           0
     74545 WT25     100      MECN     C2       CG1N1    0.360000       12.0110           0
     74546 WT25     100      MECN     N3       NG1T1   -0.460000       14.0070           0
     74547 WT25     102      MECN     C1       CG331   -0.170000       12.0110           0
     74548 WT25     102      MECN     H11      HGA3     0.090000        1.0080           0
     74549 WT25     102      MECN     H12      HGA3     0.090000        1.0080           0
     74550 WT25     102      MECN     H13      HGA3     0.090000        1.0080           0
     74551 WT25     102      MECN     C2       CG1N1    0.360000       12.0110           0
     74552 WT25     102      MECN     N3       NG1T1   -0.460000       14.0070           0
     74553 WT25     104      MECN     C1       CG331   -0.170000       12.0110           0
     74554 WT25     104      MECN     H11      HGA3     0.090000        1.0080           0
     74555 WT25     104      MECN     H12      HGA3     0.090000        1.0080           0
     74556 WT25     104      MECN     H13      HGA3     0.090000        1.0080           0
     74557 WT25     104      MECN     C2       CG1N1    0.360000       12.0110           0
     74558 WT25     104      MECN     N3       NG1T1   -0.460000       14.0070           0
     74559 WT25     108      MECN     C1       CG331   -0.170000       12.0110           0
     74560 WT25     108      MECN     H11      HGA3     0.090000        1.0080           0
     74561 WT25     108      MECN     H12      HGA3     0.090000        1.0080           0
     74562 WT25     108      MECN     H13      HGA3     0.090000        1.0080           0
     74563 WT25     108      MECN     C2       CG1N1    0.360000       12.0110           0
     74564 WT25     108      MECN     N3       NG1T1   -0.460000       14.0070           0
     74565 WT25     117      MECN     C1       CG331   -0.170000       12.0110           0
     74566 WT25     117      MECN     H11      HGA3     0.090000        1.0080           0
     74567 WT25     117      MECN     H12      HGA3     0.090000        1.0080           0
     74568 WT25     117      MECN     H13      HGA3     0.090000        1.0080           0
     74569 WT25     117      MECN     C2       CG1N1    0.360000       12.0110           0
     74570 WT25     117      MECN     N3       NG1T1   -0.460000       14.0070           0
     74571 WT25     126      MECN     C1       CG331   -0.170000       12.0110           0
     74572 WT25     126      MECN     H11      HGA3     0.090000        1.0080           0
     74573 WT25     126      MECN     H12      HGA3     0.090000        1.0080           0
     74574 WT25     126      MECN     H13      HGA3     0.090000        1.0080           0
     74575 WT25     126      MECN     C2       CG1N1    0.360000       12.0110           0
     74576 WT25     126      MECN     N3       NG1T1   -0.460000       14.0070           0
     74577 WT25     133      MECN     C1       CG331   -0.170000       12.0110           0
     74578 WT25     133      MECN     H11      HGA3     0.090000        1.0080           0
     74579 WT25     133      MECN     H12      HGA3     0.090000        1.0080           0
     74580 WT25     133      MECN     H13      HGA3     0.090000        1.0080           0
     74581 WT25     133      MECN     C2       CG1N1    0.360000       12.0110           0
     74582 WT25     133      MECN     N3       NG1T1   -0.460000       14.0070           0
     74583 WT25     134      MECN     C1       CG331   -0.170000       12.0110           0
     74584 WT25     134      MECN     H11      HGA3     0.090000        1.0080           0
     74585 WT25     134      MECN     H12      HGA3     0.090000        1.0080           0
     74586 WT25     134      MECN     H13      HGA3     0.090000        1.0080           0
     74587 WT25     134      MECN     C2       CG1N1    0.360000       12.0110           0
     74588 WT25     134      MECN     N3       NG1T1   -0.460000       14.0070           0
     74589 WT25     141      MECN     C1       CG331   -0.170000       12.0110           0
     74590 WT25     141      MECN     H11      HGA3     0.090000        1.0080           0
     74591 WT25     141      MECN     H12      HGA3     0.090000        1.0080           0
     74592 WT25     141      MECN     H13      HGA3     0.090000        1.0080           0
     74593 WT25     141      MECN     C2       CG1N1    0.360000       12.0110           0
     74594 WT25     141      MECN     N3       NG1T1   -0.460000       14.0070           0
     74595 WT25     144      MECN     C1       CG331   -0.170000       12.0110           0
     74596 WT25     144      MECN     H11      HGA3     0.090000        1.0080           0
     74597 WT25     144      MECN     H12      HGA3     0.090000        1.0080           0
     74598 WT25     144      MECN     H13      HGA3     0.090000        1.0080           0
     74599 WT25     144      MECN     C2       CG1N1    0.360000       12.0110           0
     74600 WT25     144      MECN     N3       NG1T1   -0.460000       14.0070           0
     74601 WT25     146      MECN     C1       CG331   -0.170000       12.0110           0
     74602 WT25     146      MECN     H11      HGA3     0.090000        1.0080           0
     74603 WT25     146      MECN     H12      HGA3     0.090000        1.0080           0
     74604 WT25     146      MECN     H13      HGA3     0.090000        1.0080           0
     74605 WT25     146      MECN     C2       CG1N1    0.360000       12.0110           0
     74606 WT25     146      MECN     N3       NG1T1   -0.460000       14.0070           0
     74607 WT25     147      MECN     C1       CG331   -0.170000       12.0110           0
     74608 WT25     147      MECN     H11      HGA3     0.090000        1.0080           0
     74609 WT25     147      MECN     H12      HGA3     0.090000        1.0080           0
     74610 WT25     147      MECN     H13      HGA3     0.090000        1.0080           0
     74611 WT25     147      MECN     C2       CG1N1    0.360000       12.0110           0
     74612 WT25     147      MECN     N3       NG1T1   -0.460000       14.0070           0
     74613 WT25     148      MECN     C1       CG331   -0.170000       12.0110           0
     74614 WT25     148      MECN     H11      HGA3     0.090000        1.0080           0
     74615 WT25     148      MECN     H12      HGA3     0.090000        1.0080           0
     74616 WT25     148      MECN     H13      HGA3     0.090000        1.0080           0
     74617 WT25     148      MECN     C2       CG1N1    0.360000       12.0110           0
     74618 WT25     148      MECN     N3       NG1T1   -0.460000       14.0070           0
     74619 WT25     149      MECN     C1       CG331   -0.170000       12.0110           0
     74620 WT25     149      MECN     H11      HGA3     0.090000        1.0080           0
     74621 WT25     149      MECN     H12      HGA3     0.090000        1.0080           0
     74622 WT25     149      MECN     H13      HGA3     0.090000        1.0080           0
     74623 WT25     149      MECN     C2       CG1N1    0.360000       12.0110           0
     74624 WT25     149      MECN     N3       NG1T1   -0.460000       14.0070           0
     74625 WT25     158      MECN     C1       CG331   -0.170000       12.0110           0
     74626 WT25     158      MECN     H11      HGA3     0.090000        1.0080           0
     74627 WT25     158      MECN     H12      HGA3     0.090000        1.0080           0
     74628 WT25     158      MECN     H13      HGA3     0.090000        1.0080           0
     74629 WT25     158      MECN     C2       CG1N1    0.360000       12.0110           0
     74630 WT25     158      MECN     N3       NG1T1   -0.460000       14.0070           0
     74631 WT25     161      MECN     C1       CG331   -0.170000       12.0110           0
     74632 WT25     161      MECN     H11      HGA3     0.090000        1.0080           0
     74633 WT25     161      MECN     H12      HGA3     0.090000        1.0080           0
     74634 WT25     161      MECN     H13      HGA3     0.090000        1.0080           0
     74635 WT25     161      MECN     C2       CG1N1    0.360000       12.0110           0
     74636 WT25     161      MECN     N3       NG1T1   -0.460000       14.0070           0
     74637 WT25     162      MECN     C1       CG331   -0.170000       12.0110           0
     74638 WT25     162      MECN     H11      HGA3     0.090000        1.0080           0
     74639 WT25     162      MECN     H12      HGA3     0.090000        1.0080           0
     74640 WT25     162      MECN     H13      HGA3     0.090000        1.0080           0
     74641 WT25     162      MECN     C2       CG1N1    0.360000       12.0110           0
     74642 WT25     162      MECN     N3       NG1T1   -0.460000       14.0070           0
     74643 WT25     179      MECN     C1       CG331   -0.170000       12.0110           0
     74644 WT25     179      MECN     H11      HGA3     0.090000        1.0080           0
     74645 WT25     179      MECN     H12      HGA3     0.090000        1.0080           0
     74646 WT25     179      MECN     H13      HGA3     0.090000        1.0080           0
     74647 WT25     179      MECN     C2       CG1N1    0.360000       12.0110           0
     74648 WT25     179      MECN     N3       NG1T1   -0.460000       14.0070           0
     74649 WT25     182      MECN     C1       CG331   -0.170000       12.0110           0
     74650 WT25     182      MECN     H11      HGA3     0.090000        1.0080           0
     74651 WT25     182      MECN     H12      HGA3     0.090000        1.0080           0
     74652 WT25     182      MECN     H13      HGA3     0.090000        1.0080           0
     74653 WT25     182      MECN     C2       CG1N1    0.360000       12.0110           0
     74654 WT25     182      MECN     N3       NG1T1   -0.460000       14.0070           0
     74655 WT25     189      MECN     C1       CG331   -0.170000       12.0110           0
     74656 WT25     189      MECN     H11      HGA3     0.090000        1.0080           0
     74657 WT25     189      MECN     H12      HGA3     0.090000        1.0080           0
     74658 WT25     189      MECN     H13      HGA3     0.090000        1.0080           0
     74659 WT25     189      MECN     C2       CG1N1    0.360000       12.0110           0
     74660 WT25     189      MECN     N3       NG1T1   -0.460000       14.0070           0
     74661 WT25     193      MECN     C1       CG331   -0.170000       12.0110           0
     74662 WT25     193      MECN     H11      HGA3     0.090000        1.0080           0
     74663 WT25     193      MECN     H12      HGA3     0.090000        1.0080           0
     74664 WT25     193      MECN     H13      HGA3     0.090000        1.0080           0
     74665 WT25     193      MECN     C2       CG1N1    0.360000       12.0110           0
     74666 WT25     193      MECN     N3       NG1T1   -0.460000       14.0070           0
     74667 WT25     194      MECN     C1       CG331   -0.170000       12.0110           0
     74668 WT25     194      MECN     H11      HGA3     0.090000        1.0080           0
     74669 WT25     194      MECN     H12      HGA3     0.090000        1.0080           0
     74670 WT25     194      MECN     H13      HGA3     0.090000        1.0080           0
     74671 WT25     194      MECN     C2       CG1N1    0.360000       12.0110           0
     74672 WT25     194      MECN     N3       NG1T1   -0.460000       14.0070           0
     74673 WT25     195      MECN     C1       CG331   -0.170000       12.0110           0
     74674 WT25     195      MECN     H11      HGA3     0.090000        1.0080           0
     74675 WT25     195      MECN     H12      HGA3     0.090000        1.0080           0
     74676 WT25     195      MECN     H13      HGA3     0.090000        1.0080           0
     74677 WT25     195      MECN     C2       CG1N1    0.360000       12.0110           0
     74678 WT25     195      MECN     N3       NG1T1   -0.460000       14.0070           0
     74679 WT25     198      MECN     C1       CG331   -0.170000       12.0110           0
     74680 WT25     198      MECN     H11      HGA3     0.090000        1.0080           0
     74681 WT25     198      MECN     H12      HGA3     0.090000        1.0080           0
     74682 WT25     198      MECN     H13      HGA3     0.090000        1.0080           0
     74683 WT25     198      MECN     C2       CG1N1    0.360000       12.0110           0
     74684 WT25     198      MECN     N3       NG1T1   -0.460000       14.0070           0
     74685 WT25     202      MECN     C1       CG331   -0.170000       12.0110           0
     74686 WT25     202      MECN     H11      HGA3     0.090000        1.0080           0
     74687 WT25     202      MECN     H12      HGA3     0.090000        1.0080           0
     74688 WT25     202      MECN     H13      HGA3     0.090000        1.0080           0
     74689 WT25     202      MECN     C2       CG1N1    0.360000       12.0110           0
     74690 WT25     202      MECN     N3       NG1T1   -0.460000       14.0070           0
     74691 WT25     204      MECN     C1       CG331   -0.170000       12.0110           0
     74692 WT25     204      MECN     H11      HGA3     0.090000        1.0080           0
     74693 WT25     204      MECN     H12      HGA3     0.090000        1.0080           0
     74694 WT25     204      MECN     H13      HGA3     0.090000        1.0080           0
     74695 WT25     204      MECN     C2       CG1N1    0.360000       12.0110           0
     74696 WT25     204      MECN     N3       NG1T1   -0.460000       14.0070           0
     74697 WT25     207      MECN     C1       CG331   -0.170000       12.0110           0
     74698 WT25     207      MECN     H11      HGA3     0.090000        1.0080           0
     74699 WT25     207      MECN     H12      HGA3     0.090000        1.0080           0
     74700 WT25     207      MECN     H13      HGA3     0.090000        1.0080           0
     74701 WT25     207      MECN     C2       CG1N1    0.360000       12.0110           0
     74702 WT25     207      MECN     N3       NG1T1   -0.460000       14.0070           0
     74703 WT25     208      MECN     C1       CG331   -0.170000       12.0110           0
     74704 WT25     208      MECN     H11      HGA3     0.090000        1.0080           0
     74705 WT25     208      MECN     H12      HGA3     0.090000        1.0080           0
     74706 WT25     208      MECN     H13      HGA3     0.090000        1.0080           0
     74707 WT25     208      MECN     C2       CG1N1    0.360000       12.0110           0
     74708 WT25     208      MECN     N3       NG1T1   -0.460000       14.0070           0
     74709 WT25     209      MECN     C1       CG331   -0.170000       12.0110           0
     74710 WT25     209      MECN     H11      HGA3     0.090000        1.0080           0
     74711 WT25     209      MECN     H12      HGA3     0.090000        1.0080           0
     74712 WT25     209      MECN     H13      HGA3     0.090000        1.0080           0
     74713 WT25     209      MECN     C2       CG1N1    0.360000       12.0110           0
     74714 WT25     209      MECN     N3       NG1T1   -0.460000       14.0070           0
     74715 WT25     210      MECN     C1       CG331   -0.170000       12.0110           0
     74716 WT25     210      MECN     H11      HGA3     0.090000        1.0080           0
     74717 WT25     210      MECN     H12      HGA3     0.090000        1.0080           0
     74718 WT25     210      MECN     H13      HGA3     0.090000        1.0080           0
     74719 WT25     210      MECN     C2       CG1N1    0.360000       12.0110           0
     74720 WT25     210      MECN     N3       NG1T1   -0.460000       14.0070           0
     74721 WT25     219      MECN     C1       CG331   -0.170000       12.0110           0
     74722 WT25     219      MECN     H11      HGA3     0.090000        1.0080           0
     74723 WT25     219      MECN     H12      HGA3     0.090000        1.0080           0
     74724 WT25     219      MECN     H13      HGA3     0.090000        1.0080           0
     74725 WT25     219      MECN     C2       CG1N1    0.360000       12.0110           0
     74726 WT25     219      MECN     N3       NG1T1   -0.460000       14.0070           0
     74727 WT25     221      MECN     C1       CG331   -0.170000       12.0110           0
     74728 WT25     221      MECN     H11      HGA3     0.090000        1.0080           0
     74729 WT25     221      MECN     H12      HGA3     0.090000        1.0080           0
     74730 WT25     221      MECN     H13      HGA3     0.090000        1.0080           0
     74731 WT25     221      MECN     C2       CG1N1    0.360000       12.0110           0
     74732 WT25     221      MECN     N3       NG1T1   -0.460000       14.0070           0
     74733 WT25     225      MECN     C1       CG331   -0.170000       12.0110           0
     74734 WT25     225      MECN     H11      HGA3     0.090000        1.0080           0
     74735 WT25     225      MECN     H12      HGA3     0.090000        1.0080           0
     74736 WT25     225      MECN     H13      HGA3     0.090000        1.0080           0
     74737 WT25     225      MECN     C2       CG1N1    0.360000       12.0110           0
     74738 WT25     225      MECN     N3       NG1T1   -0.460000       14.0070           0
     74739 WT25     230      MECN     C1       CG331   -0.170000       12.0110           0
     74740 WT25     230      MECN     H11      HGA3     0.090000        1.0080           0
     74741 WT25     230      MECN     H12      HGA3     0.090000        1.0080           0
     74742 WT25     230      MECN     H13      HGA3     0.090000        1.0080           0
     74743 WT25     230      MECN     C2       CG1N1    0.360000       12.0110           0
     74744 WT25     230      MECN     N3       NG1T1   -0.460000       14.0070           0
     74745 WT25     233      MECN     C1       CG331   -0.170000       12.0110           0
     74746 WT25     233      MECN     H11      HGA3     0.090000        1.0080           0
     74747 WT25     233      MECN     H12      HGA3     0.090000        1.0080           0
     74748 WT25     233      MECN     H13      HGA3     0.090000        1.0080           0
     74749 WT25     233      MECN     C2       CG1N1    0.360000       12.0110           0
     74750 WT25     233      MECN     N3       NG1T1   -0.460000       14.0070           0
     74751 WT25     241      MECN     C1       CG331   -0.170000       12.0110           0
     74752 WT25     241      MECN     H11      HGA3     0.090000        1.0080           0
     74753 WT25     241      MECN     H12      HGA3     0.090000        1.0080           0
     74754 WT25     241      MECN     H13      HGA3     0.090000        1.0080           0
     74755 WT25     241      MECN     C2       CG1N1    0.360000       12.0110           0
     74756 WT25     241      MECN     N3       NG1T1   -0.460000       14.0070           0
     74757 WT25     246      MECN     C1       CG331   -0.170000       12.0110           0
     74758 WT25     246      MECN     H11      HGA3     0.090000        1.0080           0
     74759 WT25     246      MECN     H12      HGA3     0.090000        1.0080           0
     74760 WT25     246      MECN     H13      HGA3     0.090000        1.0080           0
     74761 WT25     246      MECN     C2       CG1N1    0.360000       12.0110           0
     74762 WT25     246      MECN     N3       NG1T1   -0.460000       14.0070           0
     74763 WT25     247      MECN     C1       CG331   -0.170000       12.0110           0
     74764 WT25     247      MECN     H11      HGA3     0.090000        1.0080           0
     74765 WT25     247      MECN     H12      HGA3     0.090000        1.0080           0
     74766 WT25     247      MECN     H13      HGA3     0.090000        1.0080           0
     74767 WT25     247      MECN     C2       CG1N1    0.360000       12.0110           0
     74768 WT25     247      MECN     N3       NG1T1   -0.460000       14.0070           0
     74769 WT25     251      MECN     C1       CG331   -0.170000       12.0110           0
     74770 WT25     251      MECN     H11      HGA3     0.090000        1.0080           0
     74771 WT25     251      MECN     H12      HGA3     0.090000        1.0080           0
     74772 WT25     251      MECN     H13      HGA3     0.090000        1.0080           0
     74773 WT25     251      MECN     C2       CG1N1    0.360000       12.0110           0
     74774 WT25     251      MECN     N3       NG1T1   -0.460000       14.0070           0
     74775 WT25     253      MECN     C1       CG331   -0.170000       12.0110           0
     74776 WT25     253      MECN     H11      HGA3     0.090000        1.0080           0
     74777 WT25     253      MECN     H12      HGA3     0.090000        1.0080           0
     74778 WT25     253      MECN     H13      HGA3     0.090000        1.0080           0
     74779 WT25     253      MECN     C2       CG1N1    0.360000       12.0110           0
     74780 WT25     253      MECN     N3       NG1T1   -0.460000       14.0070           0
     74781 WT25     256      MECN     C1       CG331   -0.170000       12.0110           0
     74782 WT25     256      MECN     H11      HGA3     0.090000        1.0080           0
     74783 WT25     256      MECN     H12      HGA3     0.090000        1.0080           0
     74784 WT25     256      MECN     H13      HGA3     0.090000        1.0080           0
     74785 WT25     256      MECN     C2       CG1N1    0.360000       12.0110           0
     74786 WT25     256      MECN     N3       NG1T1   -0.460000       14.0070           0
     74787 WT25     260      MECN     C1       CG331   -0.170000       12.0110           0
     74788 WT25     260      MECN     H11      HGA3     0.090000        1.0080           0
     74789 WT25     260      MECN     H12      HGA3     0.090000        1.0080           0
     74790 WT25     260      MECN     H13      HGA3     0.090000        1.0080           0
     74791 WT25     260      MECN     C2       CG1N1    0.360000       12.0110           0
     74792 WT25     260      MECN     N3       NG1T1   -0.460000       14.0070           0
     74793 WT25     262      MECN     C1       CG331   -0.170000       12.0110           0
     74794 WT25     262      MECN     H11      HGA3     0.090000        1.0080           0
     74795 WT25     262      MECN     H12      HGA3     0.090000        1.0080           0
     74796 WT25     262      MECN     H13      HGA3     0.090000        1.0080           0
     74797 WT25     262      MECN     C2       CG1N1    0.360000       12.0110           0
     74798 WT25     262      MECN     N3       NG1T1   -0.460000       14.0070           0
     74799 WT25     265      MECN     C1       CG331   -0.170000       12.0110           0
     74800 WT25     265      MECN     H11      HGA3     0.090000        1.0080           0
     74801 WT25     265      MECN     H12      HGA3     0.090000        1.0080           0
     74802 WT25     265      MECN     H13      HGA3     0.090000        1.0080           0
     74803 WT25     265      MECN     C2       CG1N1    0.360000       12.0110           0
     74804 WT25     265      MECN     N3       NG1T1   -0.460000       14.0070           0
     74805 WT25     266      MECN     C1       CG331   -0.170000       12.0110           0
     74806 WT25     266      MECN     H11      HGA3     0.090000        1.0080           0
     74807 WT25     266      MECN     H12      HGA3     0.090000        1.0080           0
     74808 WT25     266      MECN     H13      HGA3     0.090000        1.0080           0
     74809 WT25     266      MECN     C2       CG1N1    0.360000       12.0110           0
     74810 WT25     266      MECN     N3       NG1T1   -0.460000       14.0070           0
     74811 WT25     271      MECN     C1       CG331   -0.170000       12.0110           0
     74812 WT25     271      MECN     H11      HGA3     0.090000        1.0080           0
     74813 WT25     271      MECN     H12      HGA3     0.090000        1.0080           0
     74814 WT25     271      MECN     H13      HGA3     0.090000        1.0080           0
     74815 WT25     271      MECN     C2       CG1N1    0.360000       12.0110           0
     74816 WT25     271      MECN     N3       NG1T1   -0.460000       14.0070           0
     74817 WT25     272      MECN     C1       CG331   -0.170000       12.0110           0
     74818 WT25     272      MECN     H11      HGA3     0.090000        1.0080           0
     74819 WT25     272      MECN     H12      HGA3     0.090000        1.0080           0
     74820 WT25     272      MECN     H13      HGA3     0.090000        1.0080           0
     74821 WT25     272      MECN     C2       CG1N1    0.360000       12.0110           0
     74822 WT25     272      MECN     N3       NG1T1   -0.460000       14.0070           0
     74823 WT25     275      MECN     C1       CG331   -0.170000       12.0110           0
     74824 WT25     275      MECN     H11      HGA3     0.090000        1.0080           0
     74825 WT25     275      MECN     H12      HGA3     0.090000        1.0080           0
     74826 WT25     275      MECN     H13      HGA3     0.090000        1.0080           0
     74827 WT25     275      MECN     C2       CG1N1    0.360000       12.0110           0
     74828 WT25     275      MECN     N3       NG1T1   -0.460000       14.0070           0
     74829 WT25     282      MECN     C1       CG331   -0.170000       12.0110           0
     74830 WT25     282      MECN     H11      HGA3     0.090000        1.0080           0
     74831 WT25     282      MECN     H12      HGA3     0.090000        1.0080           0
     74832 WT25     282      MECN     H13      HGA3     0.090000        1.0080           0
     74833 WT25     282      MECN     C2       CG1N1    0.360000       12.0110           0
     74834 WT25     282      MECN     N3       NG1T1   -0.460000       14.0070           0
     74835 WT25     285      MECN     C1       CG331   -0.170000       12.0110           0
     74836 WT25     285      MECN     H11      HGA3     0.090000        1.0080           0
     74837 WT25     285      MECN     H12      HGA3     0.090000        1.0080           0
     74838 WT25     285      MECN     H13      HGA3     0.090000        1.0080           0
     74839 WT25     285      MECN     C2       CG1N1    0.360000       12.0110           0
     74840 WT25     285      MECN     N3       NG1T1   -0.460000       14.0070           0
     74841 WT25     290      MECN     C1       CG331   -0.170000       12.0110           0
     74842 WT25     290      MECN     H11      HGA3     0.090000        1.0080           0
     74843 WT25     290      MECN     H12      HGA3     0.090000        1.0080           0
     74844 WT25     290      MECN     H13      HGA3     0.090000        1.0080           0
     74845 WT25     290      MECN     C2       CG1N1    0.360000       12.0110           0
     74846 WT25     290      MECN     N3       NG1T1   -0.460000       14.0070           0
     74847 WT25     295      MECN     C1       CG331   -0.170000       12.0110           0
     74848 WT25     295      MECN     H11      HGA3     0.090000        1.0080           0
     74849 WT25     295      MECN     H12      HGA3     0.090000        1.0080           0
     74850 WT25     295      MECN     H13      HGA3     0.090000        1.0080           0
     74851 WT25     295      MECN     C2       CG1N1    0.360000       12.0110           0
     74852 WT25     295      MECN     N3       NG1T1   -0.460000       14.0070           0
     74853 WT25     297      MECN     C1       CG331   -0.170000       12.0110           0
     74854 WT25     297      MECN     H11      HGA3     0.090000        1.0080           0
     74855 WT25     297      MECN     H12      HGA3     0.090000        1.0080           0
     74856 WT25     297      MECN     H13      HGA3     0.090000        1.0080           0
     74857 WT25     297      MECN     C2       CG1N1    0.360000       12.0110           0
     74858 WT25     297      MECN     N3       NG1T1   -0.460000       14.0070           0
     74859 WT25     300      MECN     C1       CG331   -0.170000       12.0110           0
     74860 WT25     300      MECN     H11      HGA3     0.090000        1.0080           0
     74861 WT25     300      MECN     H12      HGA3     0.090000        1.0080           0
     74862 WT25     300      MECN     H13      HGA3     0.090000        1.0080           0
     74863 WT25     300      MECN     C2       CG1N1    0.360000       12.0110           0
     74864 WT25     300      MECN     N3       NG1T1   -0.460000       14.0070           0
     74865 WT25     301      MECN     C1       CG331   -0.170000       12.0110           0
     74866 WT25     301      MECN     H11      HGA3     0.090000        1.0080           0
     74867 WT25     301      MECN     H12      HGA3     0.090000        1.0080           0
     74868 WT25     301      MECN     H13      HGA3     0.090000        1.0080           0
     74869 WT25     301      MECN     C2       CG1N1    0.360000       12.0110           0
     74870 WT25     301      MECN     N3       NG1T1   -0.460000       14.0070           0
     74871 WT25     302      MECN     C1       CG331   -0.170000       12.0110           0
     74872 WT25     302      MECN     H11      HGA3     0.090000        1.0080           0
     74873 WT25     302      MECN     H12      HGA3     0.090000        1.0080           0
     74874 WT25     302      MECN     H13      HGA3     0.090000        1.0080           0
     74875 WT25     302      MECN     C2       CG1N1    0.360000       12.0110           0
     74876 WT25     302      MECN     N3       NG1T1   -0.460000       14.0070           0
     74877 WT25     303      MECN     C1       CG331   -0.170000       12.0110           0
     74878 WT25     303      MECN     H11      HGA3     0.090000        1.0080           0
     74879 WT25     303      MECN     H12      HGA3     0.090000        1.0080           0
     74880 WT25     303      MECN     H13      HGA3     0.090000        1.0080           0
     74881 WT25     303      MECN     C2       CG1N1    0.360000       12.0110           0
     74882 WT25     303      MECN     N3       NG1T1   -0.460000       14.0070           0
     74883 WT25     304      MECN     C1       CG331   -0.170000       12.0110           0
     74884 WT25     304      MECN     H11      HGA3     0.090000        1.0080           0
     74885 WT25     304      MECN     H12      HGA3     0.090000        1.0080           0
     74886 WT25     304      MECN     H13      HGA3     0.090000        1.0080           0
     74887 WT25     304      MECN     C2       CG1N1    0.360000       12.0110           0
     74888 WT25     304      MECN     N3       NG1T1   -0.460000       14.0070           0
     74889 WT25     308      MECN     C1       CG331   -0.170000       12.0110           0
     74890 WT25     308      MECN     H11      HGA3     0.090000        1.0080           0
     74891 WT25     308      MECN     H12      HGA3     0.090000        1.0080           0
     74892 WT25     308      MECN     H13      HGA3     0.090000        1.0080           0
     74893 WT25     308      MECN     C2       CG1N1    0.360000       12.0110           0
     74894 WT25     308      MECN     N3       NG1T1   -0.460000       14.0070           0
     74895 WT25     311      MECN     C1       CG331   -0.170000       12.0110           0
     74896 WT25     311      MECN     H11      HGA3     0.090000        1.0080           0
     74897 WT25     311      MECN     H12      HGA3     0.090000        1.0080           0
     74898 WT25     311      MECN     H13      HGA3     0.090000        1.0080           0
     74899 WT25     311      MECN     C2       CG1N1    0.360000       12.0110           0
     74900 WT25     311      MECN     N3       NG1T1   -0.460000       14.0070           0
     74901 WT25     312      MECN     C1       CG331   -0.170000       12.0110           0
     74902 WT25     312      MECN     H11      HGA3     0.090000        1.0080           0
     74903 WT25     312      MECN     H12      HGA3     0.090000        1.0080           0
     74904 WT25     312      MECN     H13      HGA3     0.090000        1.0080           0
     74905 WT25     312      MECN     C2       CG1N1    0.360000       12.0110           0
     74906 WT25     312      MECN     N3       NG1T1   -0.460000       14.0070           0
     74907 WT25     313      MECN     C1       CG331   -0.170000       12.0110           0
     74908 WT25     313      MECN     H11      HGA3     0.090000        1.0080           0
     74909 WT25     313      MECN     H12      HGA3     0.090000        1.0080           0
     74910 WT25     313      MECN     H13      HGA3     0.090000        1.0080           0
     74911 WT25     313      MECN     C2       CG1N1    0.360000       12.0110           0
     74912 WT25     313      MECN     N3       NG1T1   -0.460000       14.0070           0
     74913 WT25     315      MECN     C1       CG331   -0.170000       12.0110           0
     74914 WT25     315      MECN     H11      HGA3     0.090000        1.0080           0
     74915 WT25     315      MECN     H12      HGA3     0.090000        1.0080           0
     74916 WT25     315      MECN     H13      HGA3     0.090000        1.0080           0
     74917 WT25     315      MECN     C2       CG1N1    0.360000       12.0110           0
     74918 WT25     315      MECN     N3       NG1T1   -0.460000       14.0070           0
     74919 WT25     325      MECN     C1       CG331   -0.170000       12.0110           0
     74920 WT25     325      MECN     H11      HGA3     0.090000        1.0080           0
     74921 WT25     325      MECN     H12      HGA3     0.090000        1.0080           0
     74922 WT25     325      MECN     H13      HGA3     0.090000        1.0080           0
     74923 WT25     325      MECN     C2       CG1N1    0.360000       12.0110           0
     74924 WT25     325      MECN     N3       NG1T1   -0.460000       14.0070           0
     74925 WT25     332      MECN     C1       CG331   -0.170000       12.0110           0
     74926 WT25     332      MECN     H11      HGA3     0.090000        1.0080           0
     74927 WT25     332      MECN     H12      HGA3     0.090000        1.0080           0
     74928 WT25     332      MECN     H13      HGA3     0.090000        1.0080           0
     74929 WT25     332      MECN     C2       CG1N1    0.360000       12.0110           0
     74930 WT25     332      MECN     N3       NG1T1   -0.460000       14.0070           0
     74931 WT25     335      MECN     C1       CG331   -0.170000       12.0110           0
     74932 WT25     335      MECN     H11      HGA3     0.090000        1.0080           0
     74933 WT25     335      MECN     H12      HGA3     0.090000        1.0080           0
     74934 WT25     335      MECN     H13      HGA3     0.090000        1.0080           0
     74935 WT25     335      MECN     C2       CG1N1    0.360000       12.0110           0
     74936 WT25     335      MECN     N3       NG1T1   -0.460000       14.0070           0
     74937 WT25     336      MECN     C1       CG331   -0.170000       12.0110           0
     74938 WT25     336      MECN     H11      HGA3     0.090000        1.0080           0
     74939 WT25     336      MECN     H12      HGA3     0.090000        1.0080           0
     74940 WT25     336      MECN     H13      HGA3     0.090000        1.0080           0
     74941 WT25     336      MECN     C2       CG1N1    0.360000       12.0110           0
     74942 WT25     336      MECN     N3       NG1T1   -0.460000       14.0070           0
     74943 WT25     339      MECN     C1       CG331   -0.170000       12.0110           0
     74944 WT25     339      MECN     H11      HGA3     0.090000        1.0080           0
     74945 WT25     339      MECN     H12      HGA3     0.090000        1.0080           0
     74946 WT25     339      MECN     H13      HGA3     0.090000        1.0080           0
     74947 WT25     339      MECN     C2       CG1N1    0.360000       12.0110           0
     74948 WT25     339      MECN     N3       NG1T1   -0.460000       14.0070           0
     74949 WT25     343      MECN     C1       CG331   -0.170000       12.0110           0
     74950 WT25     343      MECN     H11      HGA3     0.090000        1.0080           0
     74951 WT25     343      MECN     H12      HGA3     0.090000        1.0080           0
     74952 WT25     343      MECN     H13      HGA3     0.090000        1.0080           0
     74953 WT25     343      MECN     C2       CG1N1    0.360000       12.0110           0
     74954 WT25     343      MECN     N3       NG1T1   -0.460000       14.0070           0
     74955 WT25     344      MECN     C1       CG331   -0.170000       12.0110           0
     74956 WT25     344      MECN     H11      HGA3     0.090000        1.0080           0
     74957 WT25     344      MECN     H12      HGA3     0.090000        1.0080           0
     74958 WT25     344      MECN     H13      HGA3     0.090000        1.0080           0
     74959 WT25     344      MECN     C2       CG1N1    0.360000       12.0110           0
     74960 WT25     344      MECN     N3       NG1T1   -0.460000       14.0070           0
     74961 WT25     346      MECN     C1       CG331   -0.170000       12.0110           0
     74962 WT25     346      MECN     H11      HGA3     0.090000        1.0080           0
     74963 WT25     346      MECN     H12      HGA3     0.090000        1.0080           0
     74964 WT25     346      MECN     H13      HGA3     0.090000        1.0080           0
     74965 WT25     346      MECN     C2       CG1N1    0.360000       12.0110           0
     74966 WT25     346      MECN     N3       NG1T1   -0.460000       14.0070           0
     74967 WT25     360      MECN     C1       CG331   -0.170000       12.0110           0
     74968 WT25     360      MECN     H11      HGA3     0.090000        1.0080           0
     74969 WT25     360      MECN     H12      HGA3     0.090000        1.0080           0
     74970 WT25     360      MECN     H13      HGA3     0.090000        1.0080           0
     74971 WT25     360      MECN     C2       CG1N1    0.360000       12.0110           0
     74972 WT25     360      MECN     N3       NG1T1   -0.460000       14.0070           0
     74973 WT25     366      MECN     C1       CG331   -0.170000       12.0110           0
     74974 WT25     366      MECN     H11      HGA3     0.090000        1.0080           0
     74975 WT25     366      MECN     H12      HGA3     0.090000        1.0080           0
     74976 WT25     366      MECN     H13      HGA3     0.090000        1.0080           0
     74977 WT25     366      MECN     C2       CG1N1    0.360000       12.0110           0
     74978 WT25     366      MECN     N3       NG1T1   -0.460000       14.0070           0
     74979 WT25     376      MECN     C1       CG331   -0.170000       12.0110           0
     74980 WT25     376      MECN     H11      HGA3     0.090000        1.0080           0
     74981 WT25     376      MECN     H12      HGA3     0.090000        1.0080           0
     74982 WT25     376      MECN     H13      HGA3     0.090000        1.0080           0
     74983 WT25     376      MECN     C2       CG1N1    0.360000       12.0110           0
     74984 WT25     376      MECN     N3       NG1T1   -0.460000       14.0070           0
     74985 WT25     378      MECN     C1       CG331   -0.170000       12.0110           0
     74986 WT25     378      MECN     H11      HGA3     0.090000        1.0080           0
     74987 WT25     378      MECN     H12      HGA3     0.090000        1.0080           0
     74988 WT25     378      MECN     H13      HGA3     0.090000        1.0080           0
     74989 WT25     378      MECN     C2       CG1N1    0.360000       12.0110           0
     74990 WT25     378      MECN     N3       NG1T1   -0.460000       14.0070           0
     74991 WT25     381      MECN     C1       CG331   -0.170000       12.0110           0
     74992 WT25     381      MECN     H11      HGA3     0.090000        1.0080           0
     74993 WT25     381      MECN     H12      HGA3     0.090000        1.0080           0
     74994 WT25     381      MECN     H13      HGA3     0.090000        1.0080           0
     74995 WT25     381      MECN     C2       CG1N1    0.360000       12.0110           0
     74996 WT25     381      MECN     N3       NG1T1   -0.460000       14.0070           0
     74997 WT25     383      MECN     C1       CG331   -0.170000       12.0110           0
     74998 WT25     383      MECN     H11      HGA3     0.090000        1.0080           0
     74999 WT25     383      MECN     H12      HGA3     0.090000        1.0080           0
     75000 WT25     383      MECN     H13      HGA3     0.090000        1.0080           0
     75001 WT25     383      MECN     C2       CG1N1    0.360000       12.0110           0
     75002 WT25     383      MECN     N3       NG1T1   -0.460000       14.0070           0
     75003 WT25     384      MECN     C1       CG331   -0.170000       12.0110           0
     75004 WT25     384      MECN     H11      HGA3     0.090000        1.0080           0
     75005 WT25     384      MECN     H12      HGA3     0.090000        1.0080           0
     75006 WT25     384      MECN     H13      HGA3     0.090000        1.0080           0
     75007 WT25     384      MECN     C2       CG1N1    0.360000       12.0110           0
     75008 WT25     384      MECN     N3       NG1T1   -0.460000       14.0070           0
     75009 WT25     386      MECN     C1       CG331   -0.170000       12.0110           0
     75010 WT25     386      MECN     H11      HGA3     0.090000        1.0080           0
     75011 WT25     386      MECN     H12      HGA3     0.090000        1.0080           0
     75012 WT25     386      MECN     H13      HGA3     0.090000        1.0080           0
     75013 WT25     386      MECN     C2       CG1N1    0.360000       12.0110           0
     75014 WT25     386      MECN     N3       NG1T1   -0.460000       14.0070           0
     75015 WT25     391      MECN     C1       CG331   -0.170000       12.0110           0
     75016 WT25     391      MECN     H11      HGA3     0.090000        1.0080           0
     75017 WT25     391      MECN     H12      HGA3     0.090000        1.0080           0
     75018 WT25     391      MECN     H13      HGA3     0.090000        1.0080           0
     75019 WT25     391      MECN     C2       CG1N1    0.360000       12.0110           0
     75020 WT25     391      MECN     N3       NG1T1   -0.460000       14.0070           0
     75021 WT25     395      MECN     C1       CG331   -0.170000       12.0110           0
     75022 WT25     395      MECN     H11      HGA3     0.090000        1.0080           0
     75023 WT25     395      MECN     H12      HGA3     0.090000        1.0080           0
     75024 WT25     395      MECN     H13      HGA3     0.090000        1.0080           0
     75025 WT25     395      MECN     C2       CG1N1    0.360000       12.0110           0
     75026 WT25     395      MECN     N3       NG1T1   -0.460000       14.0070           0
     75027 WT25     400      MECN     C1       CG331   -0.170000       12.0110           0
     75028 WT25     400      MECN     H11      HGA3     0.090000        1.0080           0
     75029 WT25     400      MECN     H12      HGA3     0.090000        1.0080           0
     75030 WT25     400      MECN     H13      HGA3     0.090000        1.0080           0
     75031 WT25     400      MECN     C2       CG1N1    0.360000       12.0110           0
     75032 WT25     400      MECN     N3       NG1T1   -0.460000       14.0070           0
     75033 WT25     404      MECN     C1       CG331   -0.170000       12.0110           0
     75034 WT25     404      MECN     H11      HGA3     0.090000        1.0080           0
     75035 WT25     404      MECN     H12      HGA3     0.090000        1.0080           0
     75036 WT25     404      MECN     H13      HGA3     0.090000        1.0080           0
     75037 WT25     404      MECN     C2       CG1N1    0.360000       12.0110           0
     75038 WT25     404      MECN     N3       NG1T1   -0.460000       14.0070           0
     75039 WT25     407      MECN     C1       CG331   -0.170000       12.0110           0
     75040 WT25     407      MECN     H11      HGA3     0.090000        1.0080           0
     75041 WT25     407      MECN     H12      HGA3     0.090000        1.0080           0
     75042 WT25     407      MECN     H13      HGA3     0.090000        1.0080           0
     75043 WT25     407      MECN     C2       CG1N1    0.360000       12.0110           0
     75044 WT25     407      MECN     N3       NG1T1   -0.460000       14.0070           0
     75045 WT25     412      MECN     C1       CG331   -0.170000       12.0110           0
     75046 WT25     412      MECN     H11      HGA3     0.090000        1.0080           0
     75047 WT25     412      MECN     H12      HGA3     0.090000        1.0080           0
     75048 WT25     412      MECN     H13      HGA3     0.090000        1.0080           0
     75049 WT25     412      MECN     C2       CG1N1    0.360000       12.0110           0
     75050 WT25     412      MECN     N3       NG1T1   -0.460000       14.0070           0
     75051 WT25     414      MECN     C1       CG331   -0.170000       12.0110           0
     75052 WT25     414      MECN     H11      HGA3     0.090000        1.0080           0
     75053 WT25     414      MECN     H12      HGA3     0.090000        1.0080           0
     75054 WT25     414      MECN     H13      HGA3     0.090000        1.0080           0
     75055 WT25     414      MECN     C2       CG1N1    0.360000       12.0110           0
     75056 WT25     414      MECN     N3       NG1T1   -0.460000       14.0070           0
     75057 WT25     421      MECN     C1       CG331   -0.170000       12.0110           0
     75058 WT25     421      MECN     H11      HGA3     0.090000        1.0080           0
     75059 WT25     421      MECN     H12      HGA3     0.090000        1.0080           0
     75060 WT25     421      MECN     H13      HGA3     0.090000        1.0080           0
     75061 WT25     421      MECN     C2       CG1N1    0.360000       12.0110           0
     75062 WT25     421      MECN     N3       NG1T1   -0.460000       14.0070           0
     75063 WT25     423      MECN     C1       CG331   -0.170000       12.0110           0
     75064 WT25     423      MECN     H11      HGA3     0.090000        1.0080           0
     75065 WT25     423      MECN     H12      HGA3     0.090000        1.0080           0
     75066 WT25     423      MECN     H13      HGA3     0.090000        1.0080           0
     75067 WT25     423      MECN     C2       CG1N1    0.360000       12.0110           0
     75068 WT25     423      MECN     N3       NG1T1   -0.460000       14.0070           0
     75069 WT25     432      MECN     C1       CG331   -0.170000       12.0110           0
     75070 WT25     432      MECN     H11      HGA3     0.090000        1.0080           0
     75071 WT25     432      MECN     H12      HGA3     0.090000        1.0080           0
     75072 WT25     432      MECN     H13      HGA3     0.090000        1.0080           0
     75073 WT25     432      MECN     C2       CG1N1    0.360000       12.0110           0
     75074 WT25     432      MECN     N3       NG1T1   -0.460000       14.0070           0
     75075 WT25     433      MECN     C1       CG331   -0.170000       12.0110           0
     75076 WT25     433      MECN     H11      HGA3     0.090000        1.0080           0
     75077 WT25     433      MECN     H12      HGA3     0.090000        1.0080           0
     75078 WT25     433      MECN     H13      HGA3     0.090000        1.0080           0
     75079 WT25     433      MECN     C2       CG1N1    0.360000       12.0110           0
     75080 WT25     433      MECN     N3       NG1T1   -0.460000       14.0070           0
     75081 WT25     437      MECN     C1       CG331   -0.170000       12.0110           0
     75082 WT25     437      MECN     H11      HGA3     0.090000        1.0080           0
     75083 WT25     437      MECN     H12      HGA3     0.090000        1.0080           0
     75084 WT25     437      MECN     H13      HGA3     0.090000        1.0080           0
     75085 WT25     437      MECN     C2       CG1N1    0.360000       12.0110           0
     75086 WT25     437      MECN     N3       NG1T1   -0.460000       14.0070           0
     75087 WT25     438      MECN     C1       CG331   -0.170000       12.0110           0
     75088 WT25     438      MECN     H11      HGA3     0.090000        1.0080           0
     75089 WT25     438      MECN     H12      HGA3     0.090000        1.0080           0
     75090 WT25     438      MECN     H13      HGA3     0.090000        1.0080           0
     75091 WT25     438      MECN     C2       CG1N1    0.360000       12.0110           0
     75092 WT25     438      MECN     N3       NG1T1   -0.460000       14.0070           0
     75093 WT25     439      MECN     C1       CG331   -0.170000       12.0110           0
     75094 WT25     439      MECN     H11      HGA3     0.090000        1.0080           0
     75095 WT25     439      MECN     H12      HGA3     0.090000        1.0080           0
     75096 WT25     439      MECN     H13      HGA3     0.090000        1.0080           0
     75097 WT25     439      MECN     C2       CG1N1    0.360000       12.0110           0
     75098 WT25     439      MECN     N3       NG1T1   -0.460000       14.0070           0
     75099 WT25     443      MECN     C1       CG331   -0.170000       12.0110           0
     75100 WT25     443      MECN     H11      HGA3     0.090000        1.0080           0
     75101 WT25     443      MECN     H12      HGA3     0.090000        1.0080           0
     75102 WT25     443      MECN     H13      HGA3     0.090000        1.0080           0
     75103 WT25     443      MECN     C2       CG1N1    0.360000       12.0110           0
     75104 WT25     443      MECN     N3       NG1T1   -0.460000       14.0070           0
     75105 WT25     446      MECN     C1       CG331   -0.170000       12.0110           0
     75106 WT25     446      MECN     H11      HGA3     0.090000        1.0080           0
     75107 WT25     446      MECN     H12      HGA3     0.090000        1.0080           0
     75108 WT25     446      MECN     H13      HGA3     0.090000        1.0080           0
     75109 WT25     446      MECN     C2       CG1N1    0.360000       12.0110           0
     75110 WT25     446      MECN     N3       NG1T1   -0.460000       14.0070           0
     75111 WT25     449      MECN     C1       CG331   -0.170000       12.0110           0
     75112 WT25     449      MECN     H11      HGA3     0.090000        1.0080           0
     75113 WT25     449      MECN     H12      HGA3     0.090000        1.0080           0
     75114 WT25     449      MECN     H13      HGA3     0.090000        1.0080           0
     75115 WT25     449      MECN     C2       CG1N1    0.360000       12.0110           0
     75116 WT25     449      MECN     N3       NG1T1   -0.460000       14.0070           0
     75117 WT25     452      MECN     C1       CG331   -0.170000       12.0110           0
     75118 WT25     452      MECN     H11      HGA3     0.090000        1.0080           0
     75119 WT25     452      MECN     H12      HGA3     0.090000        1.0080           0
     75120 WT25     452      MECN     H13      HGA3     0.090000        1.0080           0
     75121 WT25     452      MECN     C2       CG1N1    0.360000       12.0110           0
     75122 WT25     452      MECN     N3       NG1T1   -0.460000       14.0070           0
     75123 WT25     453      MECN     C1       CG331   -0.170000       12.0110           0
     75124 WT25     453      MECN     H11      HGA3     0.090000        1.0080           0
     75125 WT25     453      MECN     H12      HGA3     0.090000        1.0080           0
     75126 WT25     453      MECN     H13      HGA3     0.090000        1.0080           0
     75127 WT25     453      MECN     C2       CG1N1    0.360000       12.0110           0
     75128 WT25     453      MECN     N3       NG1T1   -0.460000       14.0070           0
     75129 WT25     456      MECN     C1       CG331   -0.170000       12.0110           0
     75130 WT25     456      MECN     H11      HGA3     0.090000        1.0080           0
     75131 WT25     456      MECN     H12      HGA3     0.090000        1.0080           0
     75132 WT25     456      MECN     H13      HGA3     0.090000        1.0080           0
     75133 WT25     456      MECN     C2       CG1N1    0.360000       12.0110           0
     75134 WT25     456      MECN     N3       NG1T1   -0.460000       14.0070           0
     75135 WT25     464      MECN     C1       CG331   -0.170000       12.0110           0
     75136 WT25     464      MECN     H11      HGA3     0.090000        1.0080           0
     75137 WT25     464      MECN     H12      HGA3     0.090000        1.0080           0
     75138 WT25     464      MECN     H13      HGA3     0.090000        1.0080           0
     75139 WT25     464      MECN     C2       CG1N1    0.360000       12.0110           0
     75140 WT25     464      MECN     N3       NG1T1   -0.460000       14.0070           0
     75141 WT25     474      MECN     C1       CG331   -0.170000       12.0110           0
     75142 WT25     474      MECN     H11      HGA3     0.090000        1.0080           0
     75143 WT25     474      MECN     H12      HGA3     0.090000        1.0080           0
     75144 WT25     474      MECN     H13      HGA3     0.090000        1.0080           0
     75145 WT25     474      MECN     C2       CG1N1    0.360000       12.0110           0
     75146 WT25     474      MECN     N3       NG1T1   -0.460000       14.0070           0
     75147 WT25     478      MECN     C1       CG331   -0.170000       12.0110           0
     75148 WT25     478      MECN     H11      HGA3     0.090000        1.0080           0
     75149 WT25     478      MECN     H12      HGA3     0.090000        1.0080           0
     75150 WT25     478      MECN     H13      HGA3     0.090000        1.0080           0
     75151 WT25     478      MECN     C2       CG1N1    0.360000       12.0110           0
     75152 WT25     478      MECN     N3       NG1T1   -0.460000       14.0070           0
     75153 WT25     479      MECN     C1       CG331   -0.170000       12.0110           0
     75154 WT25     479      MECN     H11      HGA3     0.090000        1.0080           0
     75155 WT25     479      MECN     H12      HGA3     0.090000        1.0080           0
     75156 WT25     479      MECN     H13      HGA3     0.090000        1.0080           0
     75157 WT25     479      MECN     C2       CG1N1    0.360000       12.0110           0
     75158 WT25     479      MECN     N3       NG1T1   -0.460000       14.0070           0
     75159 WT25     480      MECN     C1       CG331   -0.170000       12.0110           0
     75160 WT25     480      MECN     H11      HGA3     0.090000        1.0080           0
     75161 WT25     480      MECN     H12      HGA3     0.090000        1.0080           0
     75162 WT25     480      MECN     H13      HGA3     0.090000        1.0080           0
     75163 WT25     480      MECN     C2       CG1N1    0.360000       12.0110           0
     75164 WT25     480      MECN     N3       NG1T1   -0.460000       14.0070           0
     75165 WT25     481      MECN     C1       CG331   -0.170000       12.0110           0
     75166 WT25     481      MECN     H11      HGA3     0.090000        1.0080           0
     75167 WT25     481      MECN     H12      HGA3     0.090000        1.0080           0
     75168 WT25     481      MECN     H13      HGA3     0.090000        1.0080           0
     75169 WT25     481      MECN     C2       CG1N1    0.360000       12.0110           0
     75170 WT25     481      MECN     N3       NG1T1   -0.460000       14.0070           0
     75171 WT25     497      MECN     C1       CG331   -0.170000       12.0110           0
     75172 WT25     497      MECN     H11      HGA3     0.090000        1.0080           0
     75173 WT25     497      MECN     H12      HGA3     0.090000        1.0080           0
     75174 WT25     497      MECN     H13      HGA3     0.090000        1.0080           0
     75175 WT25     497      MECN     C2       CG1N1    0.360000       12.0110           0
     75176 WT25     497      MECN     N3       NG1T1   -0.460000       14.0070           0
     75177 WT25     505      MECN     C1       CG331   -0.170000       12.0110           0
     75178 WT25     505      MECN     H11      HGA3     0.090000        1.0080           0
     75179 WT25     505      MECN     H12      HGA3     0.090000        1.0080           0
     75180 WT25     505      MECN     H13      HGA3     0.090000        1.0080           0
     75181 WT25     505      MECN     C2       CG1N1    0.360000       12.0110           0
     75182 WT25     505      MECN     N3       NG1T1   -0.460000       14.0070           0
     75183 WT25     508      MECN     C1       CG331   -0.170000       12.0110           0
     75184 WT25     508      MECN     H11      HGA3     0.090000        1.0080           0
     75185 WT25     508      MECN     H12      HGA3     0.090000        1.0080           0
     75186 WT25     508      MECN     H13      HGA3     0.090000        1.0080           0
     75187 WT25     508      MECN     C2       CG1N1    0.360000       12.0110           0
     75188 WT25     508      MECN     N3       NG1T1   -0.460000       14.0070           0
     75189 WT25     510      MECN     C1       CG331   -0.170000       12.0110           0
     75190 WT25     510      MECN     H11      HGA3     0.090000        1.0080           0
     75191 WT25     510      MECN     H12      HGA3     0.090000        1.0080           0
     75192 WT25     510      MECN     H13      HGA3     0.090000        1.0080           0
     75193 WT25     510      MECN     C2       CG1N1    0.360000       12.0110           0
     75194 WT25     510      MECN     N3       NG1T1   -0.460000       14.0070           0
     75195 WT25     511      MECN     C1       CG331   -0.170000       12.0110           0
     75196 WT25     511      MECN     H11      HGA3     0.090000        1.0080           0
     75197 WT25     511      MECN     H12      HGA3     0.090000        1.0080           0
     75198 WT25     511      MECN     H13      HGA3     0.090000        1.0080           0
     75199 WT25     511      MECN     C2       CG1N1    0.360000       12.0110           0
     75200 WT25     511      MECN     N3       NG1T1   -0.460000       14.0070           0
     75201 WT25     517      MECN     C1       CG331   -0.170000       12.0110           0
     75202 WT25     517      MECN     H11      HGA3     0.090000        1.0080           0
     75203 WT25     517      MECN     H12      HGA3     0.090000        1.0080           0
     75204 WT25     517      MECN     H13      HGA3     0.090000        1.0080           0
     75205 WT25     517      MECN     C2       CG1N1    0.360000       12.0110           0
     75206 WT25     517      MECN     N3       NG1T1   -0.460000       14.0070           0
     75207 WT25     518      MECN     C1       CG331   -0.170000       12.0110           0
     75208 WT25     518      MECN     H11      HGA3     0.090000        1.0080           0
     75209 WT25     518      MECN     H12      HGA3     0.090000        1.0080           0
     75210 WT25     518      MECN     H13      HGA3     0.090000        1.0080           0
     75211 WT25     518      MECN     C2       CG1N1    0.360000       12.0110           0
     75212 WT25     518      MECN     N3       NG1T1   -0.460000       14.0070           0
     75213 WT25     525      MECN     C1       CG331   -0.170000       12.0110           0
     75214 WT25     525      MECN     H11      HGA3     0.090000        1.0080           0
     75215 WT25     525      MECN     H12      HGA3     0.090000        1.0080           0
     75216 WT25     525      MECN     H13      HGA3     0.090000        1.0080           0
     75217 WT25     525      MECN     C2       CG1N1    0.360000       12.0110           0
     75218 WT25     525      MECN     N3       NG1T1   -0.460000       14.0070           0
     75219 WT25     526      MECN     C1       CG331   -0.170000       12.0110           0
     75220 WT25     526      MECN     H11      HGA3     0.090000        1.0080           0
     75221 WT25     526      MECN     H12      HGA3     0.090000        1.0080           0
     75222 WT25     526      MECN     H13      HGA3     0.090000        1.0080           0
     75223 WT25     526      MECN     C2       CG1N1    0.360000       12.0110           0
     75224 WT25     526      MECN     N3       NG1T1   -0.460000       14.0070           0
     75225 WT25     527      MECN     C1       CG331   -0.170000       12.0110           0
     75226 WT25     527      MECN     H11      HGA3     0.090000        1.0080           0
     75227 WT25     527      MECN     H12      HGA3     0.090000        1.0080           0
     75228 WT25     527      MECN     H13      HGA3     0.090000        1.0080           0
     75229 WT25     527      MECN     C2       CG1N1    0.360000       12.0110           0
     75230 WT25     527      MECN     N3       NG1T1   -0.460000       14.0070           0
     75231 WT25     528      MECN     C1       CG331   -0.170000       12.0110           0
     75232 WT25     528      MECN     H11      HGA3     0.090000        1.0080           0
     75233 WT25     528      MECN     H12      HGA3     0.090000        1.0080           0
     75234 WT25     528      MECN     H13      HGA3     0.090000        1.0080           0
     75235 WT25     528      MECN     C2       CG1N1    0.360000       12.0110           0
     75236 WT25     528      MECN     N3       NG1T1   -0.460000       14.0070           0
     75237 WT25     535      MECN     C1       CG331   -0.170000       12.0110           0
     75238 WT25     535      MECN     H11      HGA3     0.090000        1.0080           0
     75239 WT25     535      MECN     H12      HGA3     0.090000        1.0080           0
     75240 WT25     535      MECN     H13      HGA3     0.090000        1.0080           0
     75241 WT25     535      MECN     C2       CG1N1    0.360000       12.0110           0
     75242 WT25     535      MECN     N3       NG1T1   -0.460000       14.0070           0
     75243 WT25     544      MECN     C1       CG331   -0.170000       12.0110           0
     75244 WT25     544      MECN     H11      HGA3     0.090000        1.0080           0
     75245 WT25     544      MECN     H12      HGA3     0.090000        1.0080           0
     75246 WT25     544      MECN     H13      HGA3     0.090000        1.0080           0
     75247 WT25     544      MECN     C2       CG1N1    0.360000       12.0110           0
     75248 WT25     544      MECN     N3       NG1T1   -0.460000       14.0070           0
     75249 WT25     556      MECN     C1       CG331   -0.170000       12.0110           0
     75250 WT25     556      MECN     H11      HGA3     0.090000        1.0080           0
     75251 WT25     556      MECN     H12      HGA3     0.090000        1.0080           0
     75252 WT25     556      MECN     H13      HGA3     0.090000        1.0080           0
     75253 WT25     556      MECN     C2       CG1N1    0.360000       12.0110           0
     75254 WT25     556      MECN     N3       NG1T1   -0.460000       14.0070           0
     75255 WT25     559      MECN     C1       CG331   -0.170000       12.0110           0
     75256 WT25     559      MECN     H11      HGA3     0.090000        1.0080           0
     75257 WT25     559      MECN     H12      HGA3     0.090000        1.0080           0
     75258 WT25     559      MECN     H13      HGA3     0.090000        1.0080           0
     75259 WT25     559      MECN     C2       CG1N1    0.360000       12.0110           0
     75260 WT25     559      MECN     N3       NG1T1   -0.460000       14.0070           0
     75261 WT25     562      MECN     C1       CG331   -0.170000       12.0110           0
     75262 WT25     562      MECN     H11      HGA3     0.090000        1.0080           0
     75263 WT25     562      MECN     H12      HGA3     0.090000        1.0080           0
     75264 WT25     562      MECN     H13      HGA3     0.090000        1.0080           0
     75265 WT25     562      MECN     C2       CG1N1    0.360000       12.0110           0
     75266 WT25     562      MECN     N3       NG1T1   -0.460000       14.0070           0
     75267 WT25     584      MECN     C1       CG331   -0.170000       12.0110           0
     75268 WT25     584      MECN     H11      HGA3     0.090000        1.0080           0
     75269 WT25     584      MECN     H12      HGA3     0.090000        1.0080           0
     75270 WT25     584      MECN     H13      HGA3     0.090000        1.0080           0
     75271 WT25     584      MECN     C2       CG1N1    0.360000       12.0110           0
     75272 WT25     584      MECN     N3       NG1T1   -0.460000       14.0070           0
     75273 WT25     585      MECN     C1       CG331   -0.170000       12.0110           0
     75274 WT25     585      MECN     H11      HGA3     0.090000        1.0080           0
     75275 WT25     585      MECN     H12      HGA3     0.090000        1.0080           0
     75276 WT25     585      MECN     H13      HGA3     0.090000        1.0080           0
     75277 WT25     585      MECN     C2       CG1N1    0.360000       12.0110           0
     75278 WT25     585      MECN     N3       NG1T1   -0.460000       14.0070           0
     75279 WT25     588      MECN     C1       CG331   -0.170000       12.0110           0
     75280 WT25     588      MECN     H11      HGA3     0.090000        1.0080           0
     75281 WT25     588      MECN     H12      HGA3     0.090000        1.0080           0
     75282 WT25     588      MECN     H13      HGA3     0.090000        1.0080           0
     75283 WT25     588      MECN     C2       CG1N1    0.360000       12.0110           0
     75284 WT25     588      MECN     N3       NG1T1   -0.460000       14.0070           0
     75285 WT25     595      MECN     C1       CG331   -0.170000       12.0110           0
     75286 WT25     595      MECN     H11      HGA3     0.090000        1.0080           0
     75287 WT25     595      MECN     H12      HGA3     0.090000        1.0080           0
     75288 WT25     595      MECN     H13      HGA3     0.090000        1.0080           0
     75289 WT25     595      MECN     C2       CG1N1    0.360000       12.0110           0
     75290 WT25     595      MECN     N3       NG1T1   -0.460000       14.0070           0
     75291 WT25     599      MECN     C1       CG331   -0.170000       12.0110           0
     75292 WT25     599      MECN     H11      HGA3     0.090000        1.0080           0
     75293 WT25     599      MECN     H12      HGA3     0.090000        1.0080           0
     75294 WT25     599      MECN     H13      HGA3     0.090000        1.0080           0
     75295 WT25     599      MECN     C2       CG1N1    0.360000       12.0110           0
     75296 WT25     599      MECN     N3       NG1T1   -0.460000       14.0070           0
     75297 WT25     601      MECN     C1       CG331   -0.170000       12.0110           0
     75298 WT25     601      MECN     H11      HGA3     0.090000        1.0080           0
     75299 WT25     601      MECN     H12      HGA3     0.090000        1.0080           0
     75300 WT25     601      MECN     H13      HGA3     0.090000        1.0080           0
     75301 WT25     601      MECN     C2       CG1N1    0.360000       12.0110           0
     75302 WT25     601      MECN     N3       NG1T1   -0.460000       14.0070           0
     75303 WT25     608      MECN     C1       CG331   -0.170000       12.0110           0
     75304 WT25     608      MECN     H11      HGA3     0.090000        1.0080           0
     75305 WT25     608      MECN     H12      HGA3     0.090000        1.0080           0
     75306 WT25     608      MECN     H13      HGA3     0.090000        1.0080           0
     75307 WT25     608      MECN     C2       CG1N1    0.360000       12.0110           0
     75308 WT25     608      MECN     N3       NG1T1   -0.460000       14.0070           0
     75309 WT25     615      MECN     C1       CG331   -0.170000       12.0110           0
     75310 WT25     615      MECN     H11      HGA3     0.090000        1.0080           0
     75311 WT25     615      MECN     H12      HGA3     0.090000        1.0080           0
     75312 WT25     615      MECN     H13      HGA3     0.090000        1.0080           0
     75313 WT25     615      MECN     C2       CG1N1    0.360000       12.0110           0
     75314 WT25     615      MECN     N3       NG1T1   -0.460000       14.0070           0
     75315 WT25     617      MECN     C1       CG331   -0.170000       12.0110           0
     75316 WT25     617      MECN     H11      HGA3     0.090000        1.0080           0
     75317 WT25     617      MECN     H12      HGA3     0.090000        1.0080           0
     75318 WT25     617      MECN     H13      HGA3     0.090000        1.0080           0
     75319 WT25     617      MECN     C2       CG1N1    0.360000       12.0110           0
     75320 WT25     617      MECN     N3       NG1T1   -0.460000       14.0070           0
     75321 WT25     618      MECN     C1       CG331   -0.170000       12.0110           0
     75322 WT25     618      MECN     H11      HGA3     0.090000        1.0080           0
     75323 WT25     618      MECN     H12      HGA3     0.090000        1.0080           0
     75324 WT25     618      MECN     H13      HGA3     0.090000        1.0080           0
     75325 WT25     618      MECN     C2       CG1N1    0.360000       12.0110           0
     75326 WT25     618      MECN     N3       NG1T1   -0.460000       14.0070           0
     75327 WT25     621      MECN     C1       CG331   -0.170000       12.0110           0
     75328 WT25     621      MECN     H11      HGA3     0.090000        1.0080           0
     75329 WT25     621      MECN     H12      HGA3     0.090000        1.0080           0
     75330 WT25     621      MECN     H13      HGA3     0.090000        1.0080           0
     75331 WT25     621      MECN     C2       CG1N1    0.360000       12.0110           0
     75332 WT25     621      MECN     N3       NG1T1   -0.460000       14.0070           0
     75333 WT25     622      MECN     C1       CG331   -0.170000       12.0110           0
     75334 WT25     622      MECN     H11      HGA3     0.090000        1.0080           0
     75335 WT25     622      MECN     H12      HGA3     0.090000        1.0080           0
     75336 WT25     622      MECN     H13      HGA3     0.090000        1.0080           0
     75337 WT25     622      MECN     C2       CG1N1    0.360000       12.0110           0
     75338 WT25     622      MECN     N3       NG1T1   -0.460000       14.0070           0
     75339 WT25     623      MECN     C1       CG331   -0.170000       12.0110           0
     75340 WT25     623      MECN     H11      HGA3     0.090000        1.0080           0
     75341 WT25     623      MECN     H12      HGA3     0.090000        1.0080           0
     75342 WT25     623      MECN     H13      HGA3     0.090000        1.0080           0
     75343 WT25     623      MECN     C2       CG1N1    0.360000       12.0110           0
     75344 WT25     623      MECN     N3       NG1T1   -0.460000       14.0070           0
     75345 WT25     627      MECN     C1       CG331   -0.170000       12.0110           0
     75346 WT25     627      MECN     H11      HGA3     0.090000        1.0080           0
     75347 WT25     627      MECN     H12      HGA3     0.090000        1.0080           0
     75348 WT25     627      MECN     H13      HGA3     0.090000        1.0080           0
     75349 WT25     627      MECN     C2       CG1N1    0.360000       12.0110           0
     75350 WT25     627      MECN     N3       NG1T1   -0.460000       14.0070           0
     75351 WT25     633      MECN     C1       CG331   -0.170000       12.0110           0
     75352 WT25     633      MECN     H11      HGA3     0.090000        1.0080           0
     75353 WT25     633      MECN     H12      HGA3     0.090000        1.0080           0
     75354 WT25     633      MECN     H13      HGA3     0.090000        1.0080           0
     75355 WT25     633      MECN     C2       CG1N1    0.360000       12.0110           0
     75356 WT25     633      MECN     N3       NG1T1   -0.460000       14.0070           0
     75357 WT25     634      MECN     C1       CG331   -0.170000       12.0110           0
     75358 WT25     634      MECN     H11      HGA3     0.090000        1.0080           0
     75359 WT25     634      MECN     H12      HGA3     0.090000        1.0080           0
     75360 WT25     634      MECN     H13      HGA3     0.090000        1.0080           0
     75361 WT25     634      MECN     C2       CG1N1    0.360000       12.0110           0
     75362 WT25     634      MECN     N3       NG1T1   -0.460000       14.0070           0
     75363 WT25     640      MECN     C1       CG331   -0.170000       12.0110           0
     75364 WT25     640      MECN     H11      HGA3     0.090000        1.0080           0
     75365 WT25     640      MECN     H12      HGA3     0.090000        1.0080           0
     75366 WT25     640      MECN     H13      HGA3     0.090000        1.0080           0
     75367 WT25     640      MECN     C2       CG1N1    0.360000       12.0110           0
     75368 WT25     640      MECN     N3       NG1T1   -0.460000       14.0070           0
     75369 WT25     645      MECN     C1       CG331   -0.170000       12.0110           0
     75370 WT25     645      MECN     H11      HGA3     0.090000        1.0080           0
     75371 WT25     645      MECN     H12      HGA3     0.090000        1.0080           0
     75372 WT25     645      MECN     H13      HGA3     0.090000        1.0080           0
     75373 WT25     645      MECN     C2       CG1N1    0.360000       12.0110           0
     75374 WT25     645      MECN     N3       NG1T1   -0.460000       14.0070           0
     75375 WT25     646      MECN     C1       CG331   -0.170000       12.0110           0
     75376 WT25     646      MECN     H11      HGA3     0.090000        1.0080           0
     75377 WT25     646      MECN     H12      HGA3     0.090000        1.0080           0
     75378 WT25     646      MECN     H13      HGA3     0.090000        1.0080           0
     75379 WT25     646      MECN     C2       CG1N1    0.360000       12.0110           0
     75380 WT25     646      MECN     N3       NG1T1   -0.460000       14.0070           0
     75381 WT25     648      MECN     C1       CG331   -0.170000       12.0110           0
     75382 WT25     648      MECN     H11      HGA3     0.090000        1.0080           0
     75383 WT25     648      MECN     H12      HGA3     0.090000        1.0080           0
     75384 WT25     648      MECN     H13      HGA3     0.090000        1.0080           0
     75385 WT25     648      MECN     C2       CG1N1    0.360000       12.0110           0
     75386 WT25     648      MECN     N3       NG1T1   -0.460000       14.0070           0
     75387 WT25     649      MECN     C1       CG331   -0.170000       12.0110           0
     75388 WT25     649      MECN     H11      HGA3     0.090000        1.0080           0
     75389 WT25     649      MECN     H12      HGA3     0.090000        1.0080           0
     75390 WT25     649      MECN     H13      HGA3     0.090000        1.0080           0
     75391 WT25     649      MECN     C2       CG1N1    0.360000       12.0110           0
     75392 WT25     649      MECN     N3       NG1T1   -0.460000       14.0070           0
     75393 WT25     657      MECN     C1       CG331   -0.170000       12.0110           0
     75394 WT25     657      MECN     H11      HGA3     0.090000        1.0080           0
     75395 WT25     657      MECN     H12      HGA3     0.090000        1.0080           0
     75396 WT25     657      MECN     H13      HGA3     0.090000        1.0080           0
     75397 WT25     657      MECN     C2       CG1N1    0.360000       12.0110           0
     75398 WT25     657      MECN     N3       NG1T1   -0.460000       14.0070           0
     75399 WT25     665      MECN     C1       CG331   -0.170000       12.0110           0
     75400 WT25     665      MECN     H11      HGA3     0.090000        1.0080           0
     75401 WT25     665      MECN     H12      HGA3     0.090000        1.0080           0
     75402 WT25     665      MECN     H13      HGA3     0.090000        1.0080           0
     75403 WT25     665      MECN     C2       CG1N1    0.360000       12.0110           0
     75404 WT25     665      MECN     N3       NG1T1   -0.460000       14.0070           0
     75405 WT25     666      MECN     C1       CG331   -0.170000       12.0110           0
     75406 WT25     666      MECN     H11      HGA3     0.090000        1.0080           0
     75407 WT25     666      MECN     H12      HGA3     0.090000        1.0080           0
     75408 WT25     666      MECN     H13      HGA3     0.090000        1.0080           0
     75409 WT25     666      MECN     C2       CG1N1    0.360000       12.0110           0
     75410 WT25     666      MECN     N3       NG1T1   -0.460000       14.0070           0
     75411 WT25     667      MECN     C1       CG331   -0.170000       12.0110           0
     75412 WT25     667      MECN     H11      HGA3     0.090000        1.0080           0
     75413 WT25     667      MECN     H12      HGA3     0.090000        1.0080           0
     75414 WT25     667      MECN     H13      HGA3     0.090000        1.0080           0
     75415 WT25     667      MECN     C2       CG1N1    0.360000       12.0110           0
     75416 WT25     667      MECN     N3       NG1T1   -0.460000       14.0070           0
     75417 WT25     678      MECN     C1       CG331   -0.170000       12.0110           0
     75418 WT25     678      MECN     H11      HGA3     0.090000        1.0080           0
     75419 WT25     678      MECN     H12      HGA3     0.090000        1.0080           0
     75420 WT25     678      MECN     H13      HGA3     0.090000        1.0080           0
     75421 WT25     678      MECN     C2       CG1N1    0.360000       12.0110           0
     75422 WT25     678      MECN     N3       NG1T1   -0.460000       14.0070           0
     75423 WT25     682      MECN     C1       CG331   -0.170000       12.0110           0
     75424 WT25     682      MECN     H11      HGA3     0.090000        1.0080           0
     75425 WT25     682      MECN     H12      HGA3     0.090000        1.0080           0
     75426 WT25     682      MECN     H13      HGA3     0.090000        1.0080           0
     75427 WT25     682      MECN     C2       CG1N1    0.360000       12.0110           0
     75428 WT25     682      MECN     N3       NG1T1   -0.460000       14.0070           0
     75429 WT25     691      MECN     C1       CG331   -0.170000       12.0110           0
     75430 WT25     691      MECN     H11      HGA3     0.090000        1.0080           0
     75431 WT25     691      MECN     H12      HGA3     0.090000        1.0080           0
     75432 WT25     691      MECN     H13      HGA3     0.090000        1.0080           0
     75433 WT25     691      MECN     C2       CG1N1    0.360000       12.0110           0
     75434 WT25     691      MECN     N3       NG1T1   -0.460000       14.0070           0
     75435 WT25     694      MECN     C1       CG331   -0.170000       12.0110           0
     75436 WT25     694      MECN     H11      HGA3     0.090000        1.0080           0
     75437 WT25     694      MECN     H12      HGA3     0.090000        1.0080           0
     75438 WT25     694      MECN     H13      HGA3     0.090000        1.0080           0
     75439 WT25     694      MECN     C2       CG1N1    0.360000       12.0110           0
     75440 WT25     694      MECN     N3       NG1T1   -0.460000       14.0070           0
     75441 WT25     696      MECN     C1       CG331   -0.170000       12.0110           0
     75442 WT25     696      MECN     H11      HGA3     0.090000        1.0080           0
     75443 WT25     696      MECN     H12      HGA3     0.090000        1.0080           0
     75444 WT25     696      MECN     H13      HGA3     0.090000        1.0080           0
     75445 WT25     696      MECN     C2       CG1N1    0.360000       12.0110           0
     75446 WT25     696      MECN     N3       NG1T1   -0.460000       14.0070           0
     75447 WT25     698      MECN     C1       CG331   -0.170000       12.0110           0
     75448 WT25     698      MECN     H11      HGA3     0.090000        1.0080           0
     75449 WT25     698      MECN     H12      HGA3     0.090000        1.0080           0
     75450 WT25     698      MECN     H13      HGA3     0.090000        1.0080           0
     75451 WT25     698      MECN     C2       CG1N1    0.360000       12.0110           0
     75452 WT25     698      MECN     N3       NG1T1   -0.460000       14.0070           0
     75453 WT25     709      MECN     C1       CG331   -0.170000       12.0110           0
     75454 WT25     709      MECN     H11      HGA3     0.090000        1.0080           0
     75455 WT25     709      MECN     H12      HGA3     0.090000        1.0080           0
     75456 WT25     709      MECN     H13      HGA3     0.090000        1.0080           0
     75457 WT25     709      MECN     C2       CG1N1    0.360000       12.0110           0
     75458 WT25     709      MECN     N3       NG1T1   -0.460000       14.0070           0
     75459 WT25     711      MECN     C1       CG331   -0.170000       12.0110           0
     75460 WT25     711      MECN     H11      HGA3     0.090000        1.0080           0
     75461 WT25     711      MECN     H12      HGA3     0.090000        1.0080           0
     75462 WT25     711      MECN     H13      HGA3     0.090000        1.0080           0
     75463 WT25     711      MECN     C2       CG1N1    0.360000       12.0110           0
     75464 WT25     711      MECN     N3       NG1T1   -0.460000       14.0070           0
     75465 WT25     714      MECN     C1       CG331   -0.170000       12.0110           0
     75466 WT25     714      MECN     H11      HGA3     0.090000        1.0080           0
     75467 WT25     714      MECN     H12      HGA3     0.090000        1.0080           0
     75468 WT25     714      MECN     H13      HGA3     0.090000        1.0080           0
     75469 WT25     714      MECN     C2       CG1N1    0.360000       12.0110           0
     75470 WT25     714      MECN     N3       NG1T1   -0.460000       14.0070           0
     75471 WT25     717      MECN     C1       CG331   -0.170000       12.0110           0
     75472 WT25     717      MECN     H11      HGA3     0.090000        1.0080           0
     75473 WT25     717      MECN     H12      HGA3     0.090000        1.0080           0
     75474 WT25     717      MECN     H13      HGA3     0.090000        1.0080           0
     75475 WT25     717      MECN     C2       CG1N1    0.360000       12.0110           0
     75476 WT25     717      MECN     N3       NG1T1   -0.460000       14.0070           0
     75477 WT25     721      MECN     C1       CG331   -0.170000       12.0110           0
     75478 WT25     721      MECN     H11      HGA3     0.090000        1.0080           0
     75479 WT25     721      MECN     H12      HGA3     0.090000        1.0080           0
     75480 WT25     721      MECN     H13      HGA3     0.090000        1.0080           0
     75481 WT25     721      MECN     C2       CG1N1    0.360000       12.0110           0
     75482 WT25     721      MECN     N3       NG1T1   -0.460000       14.0070           0
     75483 WT25     723      MECN     C1       CG331   -0.170000       12.0110           0
     75484 WT25     723      MECN     H11      HGA3     0.090000        1.0080           0
     75485 WT25     723      MECN     H12      HGA3     0.090000        1.0080           0
     75486 WT25     723      MECN     H13      HGA3     0.090000        1.0080           0
     75487 WT25     723      MECN     C2       CG1N1    0.360000       12.0110           0
     75488 WT25     723      MECN     N3       NG1T1   -0.460000       14.0070           0
     75489 WT25     735      MECN     C1       CG331   -0.170000       12.0110           0
     75490 WT25     735      MECN     H11      HGA3     0.090000        1.0080           0
     75491 WT25     735      MECN     H12      HGA3     0.090000        1.0080           0
     75492 WT25     735      MECN     H13      HGA3     0.090000        1.0080           0
     75493 WT25     735      MECN     C2       CG1N1    0.360000       12.0110           0
     75494 WT25     735      MECN     N3       NG1T1   -0.460000       14.0070           0
     75495 WT25     748      MECN     C1       CG331   -0.170000       12.0110           0
     75496 WT25     748      MECN     H11      HGA3     0.090000        1.0080           0
     75497 WT25     748      MECN     H12      HGA3     0.090000        1.0080           0
     75498 WT25     748      MECN     H13      HGA3     0.090000        1.0080           0
     75499 WT25     748      MECN     C2       CG1N1    0.360000       12.0110           0
     75500 WT25     748      MECN     N3       NG1T1   -0.460000       14.0070           0
     75501 WT25     751      MECN     C1       CG331   -0.170000       12.0110           0
     75502 WT25     751      MECN     H11      HGA3     0.090000        1.0080           0
     75503 WT25     751      MECN     H12      HGA3     0.090000        1.0080           0
     75504 WT25     751      MECN     H13      HGA3     0.090000        1.0080           0
     75505 WT25     751      MECN     C2       CG1N1    0.360000       12.0110           0
     75506 WT25     751      MECN     N3       NG1T1   -0.460000       14.0070           0
     75507 WT25     760      MECN     C1       CG331   -0.170000       12.0110           0
     75508 WT25     760      MECN     H11      HGA3     0.090000        1.0080           0
     75509 WT25     760      MECN     H12      HGA3     0.090000        1.0080           0
     75510 WT25     760      MECN     H13      HGA3     0.090000        1.0080           0
     75511 WT25     760      MECN     C2       CG1N1    0.360000       12.0110           0
     75512 WT25     760      MECN     N3       NG1T1   -0.460000       14.0070           0
     75513 WT25     763      MECN     C1       CG331   -0.170000       12.0110           0
     75514 WT25     763      MECN     H11      HGA3     0.090000        1.0080           0
     75515 WT25     763      MECN     H12      HGA3     0.090000        1.0080           0
     75516 WT25     763      MECN     H13      HGA3     0.090000        1.0080           0
     75517 WT25     763      MECN     C2       CG1N1    0.360000       12.0110           0
     75518 WT25     763      MECN     N3       NG1T1   -0.460000       14.0070           0
     75519 WT25     766      MECN     C1       CG331   -0.170000       12.0110           0
     75520 WT25     766      MECN     H11      HGA3     0.090000        1.0080           0
     75521 WT25     766      MECN     H12      HGA3     0.090000        1.0080           0
     75522 WT25     766      MECN     H13      HGA3     0.090000        1.0080           0
     75523 WT25     766      MECN     C2       CG1N1    0.360000       12.0110           0
     75524 WT25     766      MECN     N3       NG1T1   -0.460000       14.0070           0
     75525 WT25     767      MECN     C1       CG331   -0.170000       12.0110           0
     75526 WT25     767      MECN     H11      HGA3     0.090000        1.0080           0
     75527 WT25     767      MECN     H12      HGA3     0.090000        1.0080           0
     75528 WT25     767      MECN     H13      HGA3     0.090000        1.0080           0
     75529 WT25     767      MECN     C2       CG1N1    0.360000       12.0110           0
     75530 WT25     767      MECN     N3       NG1T1   -0.460000       14.0070           0
     75531 WT25     768      MECN     C1       CG331   -0.170000       12.0110           0
     75532 WT25     768      MECN     H11      HGA3     0.090000        1.0080           0
     75533 WT25     768      MECN     H12      HGA3     0.090000        1.0080           0
     75534 WT25     768      MECN     H13      HGA3     0.090000        1.0080           0
     75535 WT25     768      MECN     C2       CG1N1    0.360000       12.0110           0
     75536 WT25     768      MECN     N3       NG1T1   -0.460000       14.0070           0
     75537 WT25     769      MECN     C1       CG331   -0.170000       12.0110           0
     75538 WT25     769      MECN     H11      HGA3     0.090000        1.0080           0
     75539 WT25     769      MECN     H12      HGA3     0.090000        1.0080           0
     75540 WT25     769      MECN     H13      HGA3     0.090000        1.0080           0
     75541 WT25     769      MECN     C2       CG1N1    0.360000       12.0110           0
     75542 WT25     769      MECN     N3       NG1T1   -0.460000       14.0070           0
     75543 WT25     772      MECN     C1       CG331   -0.170000       12.0110           0
     75544 WT25     772      MECN     H11      HGA3     0.090000        1.0080           0
     75545 WT25     772      MECN     H12      HGA3     0.090000        1.0080           0
     75546 WT25     772      MECN     H13      HGA3     0.090000        1.0080           0
     75547 WT25     772      MECN     C2       CG1N1    0.360000       12.0110           0
     75548 WT25     772      MECN     N3       NG1T1   -0.460000       14.0070           0
     75549 WT25     775      MECN     C1       CG331   -0.170000       12.0110           0
     75550 WT25     775      MECN     H11      HGA3     0.090000        1.0080           0
     75551 WT25     775      MECN     H12      HGA3     0.090000        1.0080           0
     75552 WT25     775      MECN     H13      HGA3     0.090000        1.0080           0
     75553 WT25     775      MECN     C2       CG1N1    0.360000       12.0110           0
     75554 WT25     775      MECN     N3       NG1T1   -0.460000       14.0070           0
     75555 WT25     776      MECN     C1       CG331   -0.170000       12.0110           0
     75556 WT25     776      MECN     H11      HGA3     0.090000        1.0080           0
     75557 WT25     776      MECN     H12      HGA3     0.090000        1.0080           0
     75558 WT25     776      MECN     H13      HGA3     0.090000        1.0080           0
     75559 WT25     776      MECN     C2       CG1N1    0.360000       12.0110           0
     75560 WT25     776      MECN     N3       NG1T1   -0.460000       14.0070           0
     75561 WT25     786      MECN     C1       CG331   -0.170000       12.0110           0
     75562 WT25     786      MECN     H11      HGA3     0.090000        1.0080           0
     75563 WT25     786      MECN     H12      HGA3     0.090000        1.0080           0
     75564 WT25     786      MECN     H13      HGA3     0.090000        1.0080           0
     75565 WT25     786      MECN     C2       CG1N1    0.360000       12.0110           0
     75566 WT25     786      MECN     N3       NG1T1   -0.460000       14.0070           0
     75567 WT25     788      MECN     C1       CG331   -0.170000       12.0110           0
     75568 WT25     788      MECN     H11      HGA3     0.090000        1.0080           0
     75569 WT25     788      MECN     H12      HGA3     0.090000        1.0080           0
     75570 WT25     788      MECN     H13      HGA3     0.090000        1.0080           0
     75571 WT25     788      MECN     C2       CG1N1    0.360000       12.0110           0
     75572 WT25     788      MECN     N3       NG1T1   -0.460000       14.0070           0
     75573 WT25     797      MECN     C1       CG331   -0.170000       12.0110           0
     75574 WT25     797      MECN     H11      HGA3     0.090000        1.0080           0
     75575 WT25     797      MECN     H12      HGA3     0.090000        1.0080           0
     75576 WT25     797      MECN     H13      HGA3     0.090000        1.0080           0
     75577 WT25     797      MECN     C2       CG1N1    0.360000       12.0110           0
     75578 WT25     797      MECN     N3       NG1T1   -0.460000       14.0070           0
     75579 WT25     806      MECN     C1       CG331   -0.170000       12.0110           0
     75580 WT25     806      MECN     H11      HGA3     0.090000        1.0080           0
     75581 WT25     806      MECN     H12      HGA3     0.090000        1.0080           0
     75582 WT25     806      MECN     H13      HGA3     0.090000        1.0080           0
     75583 WT25     806      MECN     C2       CG1N1    0.360000       12.0110           0
     75584 WT25     806      MECN     N3       NG1T1   -0.460000       14.0070           0
     75585 WT25     809      MECN     C1       CG331   -0.170000       12.0110           0
     75586 WT25     809      MECN     H11      HGA3     0.090000        1.0080           0
     75587 WT25     809      MECN     H12      HGA3     0.090000        1.0080           0
     75588 WT25     809      MECN     H13      HGA3     0.090000        1.0080           0
     75589 WT25     809      MECN     C2       CG1N1    0.360000       12.0110           0
     75590 WT25     809      MECN     N3       NG1T1   -0.460000       14.0070           0
     75591 WT25     815      MECN     C1       CG331   -0.170000       12.0110           0
     75592 WT25     815      MECN     H11      HGA3     0.090000        1.0080           0
     75593 WT25     815      MECN     H12      HGA3     0.090000        1.0080           0
     75594 WT25     815      MECN     H13      HGA3     0.090000        1.0080           0
     75595 WT25     815      MECN     C2       CG1N1    0.360000       12.0110           0
     75596 WT25     815      MECN     N3       NG1T1   -0.460000       14.0070           0
     75597 WT25     821      MECN     C1       CG331   -0.170000       12.0110           0
     75598 WT25     821      MECN     H11      HGA3     0.090000        1.0080           0
     75599 WT25     821      MECN     H12      HGA3     0.090000        1.0080           0
     75600 WT25     821      MECN     H13      HGA3     0.090000        1.0080           0
     75601 WT25     821      MECN     C2       CG1N1    0.360000       12.0110           0
     75602 WT25     821      MECN     N3       NG1T1   -0.460000       14.0070           0
     75603 WT25     823      MECN     C1       CG331   -0.170000       12.0110           0
     75604 WT25     823      MECN     H11      HGA3     0.090000        1.0080           0
     75605 WT25     823      MECN     H12      HGA3     0.090000        1.0080           0
     75606 WT25     823      MECN     H13      HGA3     0.090000        1.0080           0
     75607 WT25     823      MECN     C2       CG1N1    0.360000       12.0110           0
     75608 WT25     823      MECN     N3       NG1T1   -0.460000       14.0070           0
     75609 WT25     827      MECN     C1       CG331   -0.170000       12.0110           0
     75610 WT25     827      MECN     H11      HGA3     0.090000        1.0080           0
     75611 WT25     827      MECN     H12      HGA3     0.090000        1.0080           0
     75612 WT25     827      MECN     H13      HGA3     0.090000        1.0080           0
     75613 WT25     827      MECN     C2       CG1N1    0.360000       12.0110           0
     75614 WT25     827      MECN     N3       NG1T1   -0.460000       14.0070           0
     75615 WT25     828      MECN     C1       CG331   -0.170000       12.0110           0
     75616 WT25     828      MECN     H11      HGA3     0.090000        1.0080           0
     75617 WT25     828      MECN     H12      HGA3     0.090000        1.0080           0
     75618 WT25     828      MECN     H13      HGA3     0.090000        1.0080           0
     75619 WT25     828      MECN     C2       CG1N1    0.360000       12.0110           0
     75620 WT25     828      MECN     N3       NG1T1   -0.460000       14.0070           0
     75621 WT25     832      MECN     C1       CG331   -0.170000       12.0110           0
     75622 WT25     832      MECN     H11      HGA3     0.090000        1.0080           0
     75623 WT25     832      MECN     H12      HGA3     0.090000        1.0080           0
     75624 WT25     832      MECN     H13      HGA3     0.090000        1.0080           0
     75625 WT25     832      MECN     C2       CG1N1    0.360000       12.0110           0
     75626 WT25     832      MECN     N3       NG1T1   -0.460000       14.0070           0
     75627 WT25     835      MECN     C1       CG331   -0.170000       12.0110           0
     75628 WT25     835      MECN     H11      HGA3     0.090000        1.0080           0
     75629 WT25     835      MECN     H12      HGA3     0.090000        1.0080           0
     75630 WT25     835      MECN     H13      HGA3     0.090000        1.0080           0
     75631 WT25     835      MECN     C2       CG1N1    0.360000       12.0110           0
     75632 WT25     835      MECN     N3       NG1T1   -0.460000       14.0070           0
     75633 WT25     840      MECN     C1       CG331   -0.170000       12.0110           0
     75634 WT25     840      MECN     H11      HGA3     0.090000        1.0080           0
     75635 WT25     840      MECN     H12      HGA3     0.090000        1.0080           0
     75636 WT25     840      MECN     H13      HGA3     0.090000        1.0080           0
     75637 WT25     840      MECN     C2       CG1N1    0.360000       12.0110           0
     75638 WT25     840      MECN     N3       NG1T1   -0.460000       14.0070           0
     75639 WT25     848      MECN     C1       CG331   -0.170000       12.0110           0
     75640 WT25     848      MECN     H11      HGA3     0.090000        1.0080           0
     75641 WT25     848      MECN     H12      HGA3     0.090000        1.0080           0
     75642 WT25     848      MECN     H13      HGA3     0.090000        1.0080           0
     75643 WT25     848      MECN     C2       CG1N1    0.360000       12.0110           0
     75644 WT25     848      MECN     N3       NG1T1   -0.460000       14.0070           0
     75645 WT25     849      MECN     C1       CG331   -0.170000       12.0110           0
     75646 WT25     849      MECN     H11      HGA3     0.090000        1.0080           0
     75647 WT25     849      MECN     H12      HGA3     0.090000        1.0080           0
     75648 WT25     849      MECN     H13      HGA3     0.090000        1.0080           0
     75649 WT25     849      MECN     C2       CG1N1    0.360000       12.0110           0
     75650 WT25     849      MECN     N3       NG1T1   -0.460000       14.0070           0
     75651 WT25     863      MECN     C1       CG331   -0.170000       12.0110           0
     75652 WT25     863      MECN     H11      HGA3     0.090000        1.0080           0
     75653 WT25     863      MECN     H12      HGA3     0.090000        1.0080           0
     75654 WT25     863      MECN     H13      HGA3     0.090000        1.0080           0
     75655 WT25     863      MECN     C2       CG1N1    0.360000       12.0110           0
     75656 WT25     863      MECN     N3       NG1T1   -0.460000       14.0070           0
     75657 WT25     873      MECN     C1       CG331   -0.170000       12.0110           0
     75658 WT25     873      MECN     H11      HGA3     0.090000        1.0080           0
     75659 WT25     873      MECN     H12      HGA3     0.090000        1.0080           0
     75660 WT25     873      MECN     H13      HGA3     0.090000        1.0080           0
     75661 WT25     873      MECN     C2       CG1N1    0.360000       12.0110           0
     75662 WT25     873      MECN     N3       NG1T1   -0.460000       14.0070           0
     75663 WT25     875      MECN     C1       CG331   -0.170000       12.0110           0
     75664 WT25     875      MECN     H11      HGA3     0.090000        1.0080           0
     75665 WT25     875      MECN     H12      HGA3     0.090000        1.0080           0
     75666 WT25     875      MECN     H13      HGA3     0.090000        1.0080           0
     75667 WT25     875      MECN     C2       CG1N1    0.360000       12.0110           0
     75668 WT25     875      MECN     N3       NG1T1   -0.460000       14.0070           0
     75669 WT25     876      MECN     C1       CG331   -0.170000       12.0110           0
     75670 WT25     876      MECN     H11      HGA3     0.090000        1.0080           0
     75671 WT25     876      MECN     H12      HGA3     0.090000        1.0080           0
     75672 WT25     876      MECN     H13      HGA3     0.090000        1.0080           0
     75673 WT25     876      MECN     C2       CG1N1    0.360000       12.0110           0
     75674 WT25     876      MECN     N3       NG1T1   -0.460000       14.0070           0
     75675 WT25     878      MECN     C1       CG331   -0.170000       12.0110           0
     75676 WT25     878      MECN     H11      HGA3     0.090000        1.0080           0
     75677 WT25     878      MECN     H12      HGA3     0.090000        1.0080           0
     75678 WT25     878      MECN     H13      HGA3     0.090000        1.0080           0
     75679 WT25     878      MECN     C2       CG1N1    0.360000       12.0110           0
     75680 WT25     878      MECN     N3       NG1T1   -0.460000       14.0070           0
     75681 WT25     886      MECN     C1       CG331   -0.170000       12.0110           0
     75682 WT25     886      MECN     H11      HGA3     0.090000        1.0080           0
     75683 WT25     886      MECN     H12      HGA3     0.090000        1.0080           0
     75684 WT25     886      MECN     H13      HGA3     0.090000        1.0080           0
     75685 WT25     886      MECN     C2       CG1N1    0.360000       12.0110           0
     75686 WT25     886      MECN     N3       NG1T1   -0.460000       14.0070           0
     75687 WT25     888      MECN     C1       CG331   -0.170000       12.0110           0
     75688 WT25     888      MECN     H11      HGA3     0.090000        1.0080           0
     75689 WT25     888      MECN     H12      HGA3     0.090000        1.0080           0
     75690 WT25     888      MECN     H13      HGA3     0.090000        1.0080           0
     75691 WT25     888      MECN     C2       CG1N1    0.360000       12.0110           0
     75692 WT25     888      MECN     N3       NG1T1   -0.460000       14.0070           0
     75693 WT25     892      MECN     C1       CG331   -0.170000       12.0110           0
     75694 WT25     892      MECN     H11      HGA3     0.090000        1.0080           0
     75695 WT25     892      MECN     H12      HGA3     0.090000        1.0080           0
     75696 WT25     892      MECN     H13      HGA3     0.090000        1.0080           0
     75697 WT25     892      MECN     C2       CG1N1    0.360000       12.0110           0
     75698 WT25     892      MECN     N3       NG1T1   -0.460000       14.0070           0
     75699 WT25     902      MECN     C1       CG331   -0.170000       12.0110           0
     75700 WT25     902      MECN     H11      HGA3     0.090000        1.0080           0
     75701 WT25     902      MECN     H12      HGA3     0.090000        1.0080           0
     75702 WT25     902      MECN     H13      HGA3     0.090000        1.0080           0
     75703 WT25     902      MECN     C2       CG1N1    0.360000       12.0110           0
     75704 WT25     902      MECN     N3       NG1T1   -0.460000       14.0070           0
     75705 WT25     905      MECN     C1       CG331   -0.170000       12.0110           0
     75706 WT25     905      MECN     H11      HGA3     0.090000        1.0080           0
     75707 WT25     905      MECN     H12      HGA3     0.090000        1.0080           0
     75708 WT25     905      MECN     H13      HGA3     0.090000        1.0080           0
     75709 WT25     905      MECN     C2       CG1N1    0.360000       12.0110           0
     75710 WT25     905      MECN     N3       NG1T1   -0.460000       14.0070           0
     75711 WT25     909      MECN     C1       CG331   -0.170000       12.0110           0
     75712 WT25     909      MECN     H11      HGA3     0.090000        1.0080           0
     75713 WT25     909      MECN     H12      HGA3     0.090000        1.0080           0
     75714 WT25     909      MECN     H13      HGA3     0.090000        1.0080           0
     75715 WT25     909      MECN     C2       CG1N1    0.360000       12.0110           0
     75716 WT25     909      MECN     N3       NG1T1   -0.460000       14.0070           0
     75717 WT25     910      MECN     C1       CG331   -0.170000       12.0110           0
     75718 WT25     910      MECN     H11      HGA3     0.090000        1.0080           0
     75719 WT25     910      MECN     H12      HGA3     0.090000        1.0080           0
     75720 WT25     910      MECN     H13      HGA3     0.090000        1.0080           0
     75721 WT25     910      MECN     C2       CG1N1    0.360000       12.0110           0
     75722 WT25     910      MECN     N3       NG1T1   -0.460000       14.0070           0
     75723 WT25     911      MECN     C1       CG331   -0.170000       12.0110           0
     75724 WT25     911      MECN     H11      HGA3     0.090000        1.0080           0
     75725 WT25     911      MECN     H12      HGA3     0.090000        1.0080           0
     75726 WT25     911      MECN     H13      HGA3     0.090000        1.0080           0
     75727 WT25     911      MECN     C2       CG1N1    0.360000       12.0110           0
     75728 WT25     911      MECN     N3       NG1T1   -0.460000       14.0070           0
     75729 WT25     913      MECN     C1       CG331   -0.170000       12.0110           0
     75730 WT25     913      MECN     H11      HGA3     0.090000        1.0080           0
     75731 WT25     913      MECN     H12      HGA3     0.090000        1.0080           0
     75732 WT25     913      MECN     H13      HGA3     0.090000        1.0080           0
     75733 WT25     913      MECN     C2       CG1N1    0.360000       12.0110           0
     75734 WT25     913      MECN     N3       NG1T1   -0.460000       14.0070           0
     75735 WT25     914      MECN     C1       CG331   -0.170000       12.0110           0
     75736 WT25     914      MECN     H11      HGA3     0.090000        1.0080           0
     75737 WT25     914      MECN     H12      HGA3     0.090000        1.0080           0
     75738 WT25     914      MECN     H13      HGA3     0.090000        1.0080           0
     75739 WT25     914      MECN     C2       CG1N1    0.360000       12.0110           0
     75740 WT25     914      MECN     N3       NG1T1   -0.460000       14.0070           0
     75741 WT25     915      MECN     C1       CG331   -0.170000       12.0110           0
     75742 WT25     915      MECN     H11      HGA3     0.090000        1.0080           0
     75743 WT25     915      MECN     H12      HGA3     0.090000        1.0080           0
     75744 WT25     915      MECN     H13      HGA3     0.090000        1.0080           0
     75745 WT25     915      MECN     C2       CG1N1    0.360000       12.0110           0
     75746 WT25     915      MECN     N3       NG1T1   -0.460000       14.0070           0
     75747 WT25     917      MECN     C1       CG331   -0.170000       12.0110           0
     75748 WT25     917      MECN     H11      HGA3     0.090000        1.0080           0
     75749 WT25     917      MECN     H12      HGA3     0.090000        1.0080           0
     75750 WT25     917      MECN     H13      HGA3     0.090000        1.0080           0
     75751 WT25     917      MECN     C2       CG1N1    0.360000       12.0110           0
     75752 WT25     917      MECN     N3       NG1T1   -0.460000       14.0070           0
     75753 WT25     918      MECN     C1       CG331   -0.170000       12.0110           0
     75754 WT25     918      MECN     H11      HGA3     0.090000        1.0080           0
     75755 WT25     918      MECN     H12      HGA3     0.090000        1.0080           0
     75756 WT25     918      MECN     H13      HGA3     0.090000        1.0080           0
     75757 WT25     918      MECN     C2       CG1N1    0.360000       12.0110           0
     75758 WT25     918      MECN     N3       NG1T1   -0.460000       14.0070           0
     75759 WT25     923      MECN     C1       CG331   -0.170000       12.0110           0
     75760 WT25     923      MECN     H11      HGA3     0.090000        1.0080           0
     75761 WT25     923      MECN     H12      HGA3     0.090000        1.0080           0
     75762 WT25     923      MECN     H13      HGA3     0.090000        1.0080           0
     75763 WT25     923      MECN     C2       CG1N1    0.360000       12.0110           0
     75764 WT25     923      MECN     N3       NG1T1   -0.460000       14.0070           0
     75765 WT25     924      MECN     C1       CG331   -0.170000       12.0110           0
     75766 WT25     924      MECN     H11      HGA3     0.090000        1.0080           0
     75767 WT25     924      MECN     H12      HGA3     0.090000        1.0080           0
     75768 WT25     924      MECN     H13      HGA3     0.090000        1.0080           0
     75769 WT25     924      MECN     C2       CG1N1    0.360000       12.0110           0
     75770 WT25     924      MECN     N3       NG1T1   -0.460000       14.0070           0
     75771 WT25     928      MECN     C1       CG331   -0.170000       12.0110           0
     75772 WT25     928      MECN     H11      HGA3     0.090000        1.0080           0
     75773 WT25     928      MECN     H12      HGA3     0.090000        1.0080           0
     75774 WT25     928      MECN     H13      HGA3     0.090000        1.0080           0
     75775 WT25     928      MECN     C2       CG1N1    0.360000       12.0110           0
     75776 WT25     928      MECN     N3       NG1T1   -0.460000       14.0070           0
     75777 WT25     943      MECN     C1       CG331   -0.170000       12.0110           0
     75778 WT25     943      MECN     H11      HGA3     0.090000        1.0080           0
     75779 WT25     943      MECN     H12      HGA3     0.090000        1.0080           0
     75780 WT25     943      MECN     H13      HGA3     0.090000        1.0080           0
     75781 WT25     943      MECN     C2       CG1N1    0.360000       12.0110           0
     75782 WT25     943      MECN     N3       NG1T1   -0.460000       14.0070           0
     75783 WT25     949      MECN     C1       CG331   -0.170000       12.0110           0
     75784 WT25     949      MECN     H11      HGA3     0.090000        1.0080           0
     75785 WT25     949      MECN     H12      HGA3     0.090000        1.0080           0
     75786 WT25     949      MECN     H13      HGA3     0.090000        1.0080           0
     75787 WT25     949      MECN     C2       CG1N1    0.360000       12.0110           0
     75788 WT25     949      MECN     N3       NG1T1   -0.460000       14.0070           0
     75789 WT25     951      MECN     C1       CG331   -0.170000       12.0110           0
     75790 WT25     951      MECN     H11      HGA3     0.090000        1.0080           0
     75791 WT25     951      MECN     H12      HGA3     0.090000        1.0080           0
     75792 WT25     951      MECN     H13      HGA3     0.090000        1.0080           0
     75793 WT25     951      MECN     C2       CG1N1    0.360000       12.0110           0
     75794 WT25     951      MECN     N3       NG1T1   -0.460000       14.0070           0
     75795 WT25     955      MECN     C1       CG331   -0.170000       12.0110           0
     75796 WT25     955      MECN     H11      HGA3     0.090000        1.0080           0
     75797 WT25     955      MECN     H12      HGA3     0.090000        1.0080           0
     75798 WT25     955      MECN     H13      HGA3     0.090000        1.0080           0
     75799 WT25     955      MECN     C2       CG1N1    0.360000       12.0110           0
     75800 WT25     955      MECN     N3       NG1T1   -0.460000       14.0070           0
     75801 WT25     956      MECN     C1       CG331   -0.170000       12.0110           0
     75802 WT25     956      MECN     H11      HGA3     0.090000        1.0080           0
     75803 WT25     956      MECN     H12      HGA3     0.090000        1.0080           0
     75804 WT25     956      MECN     H13      HGA3     0.090000        1.0080           0
     75805 WT25     956      MECN     C2       CG1N1    0.360000       12.0110           0
     75806 WT25     956      MECN     N3       NG1T1   -0.460000       14.0070           0
     75807 WT25     961      MECN     C1       CG331   -0.170000       12.0110           0
     75808 WT25     961      MECN     H11      HGA3     0.090000        1.0080           0
     75809 WT25     961      MECN     H12      HGA3     0.090000        1.0080           0
     75810 WT25     961      MECN     H13      HGA3     0.090000        1.0080           0
     75811 WT25     961      MECN     C2       CG1N1    0.360000       12.0110           0
     75812 WT25     961      MECN     N3       NG1T1   -0.460000       14.0070           0
     75813 WT25     965      MECN     C1       CG331   -0.170000       12.0110           0
     75814 WT25     965      MECN     H11      HGA3     0.090000        1.0080           0
     75815 WT25     965      MECN     H12      HGA3     0.090000        1.0080           0
     75816 WT25     965      MECN     H13      HGA3     0.090000        1.0080           0
     75817 WT25     965      MECN     C2       CG1N1    0.360000       12.0110           0
     75818 WT25     965      MECN     N3       NG1T1   -0.460000       14.0070           0
     75819 WT25     966      MECN     C1       CG331   -0.170000       12.0110           0
     75820 WT25     966      MECN     H11      HGA3     0.090000        1.0080           0
     75821 WT25     966      MECN     H12      HGA3     0.090000        1.0080           0
     75822 WT25     966      MECN     H13      HGA3     0.090000        1.0080           0
     75823 WT25     966      MECN     C2       CG1N1    0.360000       12.0110           0
     75824 WT25     966      MECN     N3       NG1T1   -0.460000       14.0070           0
     75825 WT25     968      MECN     C1       CG331   -0.170000       12.0110           0
     75826 WT25     968      MECN     H11      HGA3     0.090000        1.0080           0
     75827 WT25     968      MECN     H12      HGA3     0.090000        1.0080           0
     75828 WT25     968      MECN     H13      HGA3     0.090000        1.0080           0
     75829 WT25     968      MECN     C2       CG1N1    0.360000       12.0110           0
     75830 WT25     968      MECN     N3       NG1T1   -0.460000       14.0070           0
     75831 WT25     978      MECN     C1       CG331   -0.170000       12.0110           0
     75832 WT25     978      MECN     H11      HGA3     0.090000        1.0080           0
     75833 WT25     978      MECN     H12      HGA3     0.090000        1.0080           0
     75834 WT25     978      MECN     H13      HGA3     0.090000        1.0080           0
     75835 WT25     978      MECN     C2       CG1N1    0.360000       12.0110           0
     75836 WT25     978      MECN     N3       NG1T1   -0.460000       14.0070           0
     75837 WT25     984      MECN     C1       CG331   -0.170000       12.0110           0
     75838 WT25     984      MECN     H11      HGA3     0.090000        1.0080           0
     75839 WT25     984      MECN     H12      HGA3     0.090000        1.0080           0
     75840 WT25     984      MECN     H13      HGA3     0.090000        1.0080           0
     75841 WT25     984      MECN     C2       CG1N1    0.360000       12.0110           0
     75842 WT25     984      MECN     N3       NG1T1   -0.460000       14.0070           0
     75843 WT25     989      MECN     C1       CG331   -0.170000       12.0110           0
     75844 WT25     989      MECN     H11      HGA3     0.090000        1.0080           0
     75845 WT25     989      MECN     H12      HGA3     0.090000        1.0080           0
     75846 WT25     989      MECN     H13      HGA3     0.090000        1.0080           0
     75847 WT25     989      MECN     C2       CG1N1    0.360000       12.0110           0
     75848 WT25     989      MECN     N3       NG1T1   -0.460000       14.0070           0
     75849 WT25     990      MECN     C1       CG331   -0.170000       12.0110           0
     75850 WT25     990      MECN     H11      HGA3     0.090000        1.0080           0
     75851 WT25     990      MECN     H12      HGA3     0.090000        1.0080           0
     75852 WT25     990      MECN     H13      HGA3     0.090000        1.0080           0
     75853 WT25     990      MECN     C2       CG1N1    0.360000       12.0110           0
     75854 WT25     990      MECN     N3       NG1T1   -0.460000       14.0070           0
     75855 WT25     991      MECN     C1       CG331   -0.170000       12.0110           0
     75856 WT25     991      MECN     H11      HGA3     0.090000        1.0080           0
     75857 WT25     991      MECN     H12      HGA3     0.090000        1.0080           0
     75858 WT25     991      MECN     H13      HGA3     0.090000        1.0080           0
     75859 WT25     991      MECN     C2       CG1N1    0.360000       12.0110           0
     75860 WT25     991      MECN     N3       NG1T1   -0.460000       14.0070           0
     75861 WT25     993      MECN     C1       CG331   -0.170000       12.0110           0
     75862 WT25     993      MECN     H11      HGA3     0.090000        1.0080           0
     75863 WT25     993      MECN     H12      HGA3     0.090000        1.0080           0
     75864 WT25     993      MECN     H13      HGA3     0.090000        1.0080           0
     75865 WT25     993      MECN     C2       CG1N1    0.360000       12.0110           0
     75866 WT25     993      MECN     N3       NG1T1   -0.460000       14.0070           0
     75867 WT25     994      MECN     C1       CG331   -0.170000       12.0110           0
     75868 WT25     994      MECN     H11      HGA3     0.090000        1.0080           0
     75869 WT25     994      MECN     H12      HGA3     0.090000        1.0080           0
     75870 WT25     994      MECN     H13      HGA3     0.090000        1.0080           0
     75871 WT25     994      MECN     C2       CG1N1    0.360000       12.0110           0
     75872 WT25     994      MECN     N3       NG1T1   -0.460000       14.0070           0
     75873 WT25     1004     MECN     C1       CG331   -0.170000       12.0110           0
     75874 WT25     1004     MECN     H11      HGA3     0.090000        1.0080           0
     75875 WT25     1004     MECN     H12      HGA3     0.090000        1.0080           0
     75876 WT25     1004     MECN     H13      HGA3     0.090000        1.0080           0
     75877 WT25     1004     MECN     C2       CG1N1    0.360000       12.0110           0
     75878 WT25     1004     MECN     N3       NG1T1   -0.460000       14.0070           0
     75879 WT25     1008     MECN     C1       CG331   -0.170000       12.0110           0
     75880 WT25     1008     MECN     H11      HGA3     0.090000        1.0080           0
     75881 WT25     1008     MECN     H12      HGA3     0.090000        1.0080           0
     75882 WT25     1008     MECN     H13      HGA3     0.090000        1.0080           0
     75883 WT25     1008     MECN     C2       CG1N1    0.360000       12.0110           0
     75884 WT25     1008     MECN     N3       NG1T1   -0.460000       14.0070           0
     75885 WT25     1009     MECN     C1       CG331   -0.170000       12.0110           0
     75886 WT25     1009     MECN     H11      HGA3     0.090000        1.0080           0
     75887 WT25     1009     MECN     H12      HGA3     0.090000        1.0080           0
     75888 WT25     1009     MECN     H13      HGA3     0.090000        1.0080           0
     75889 WT25     1009     MECN     C2       CG1N1    0.360000       12.0110           0
     75890 WT25     1009     MECN     N3       NG1T1   -0.460000       14.0070           0
     75891 WT25     1010     MECN     C1       CG331   -0.170000       12.0110           0
     75892 WT25     1010     MECN     H11      HGA3     0.090000        1.0080           0
     75893 WT25     1010     MECN     H12      HGA3     0.090000        1.0080           0
     75894 WT25     1010     MECN     H13      HGA3     0.090000        1.0080           0
     75895 WT25     1010     MECN     C2       CG1N1    0.360000       12.0110           0
     75896 WT25     1010     MECN     N3       NG1T1   -0.460000       14.0070           0
     75897 WT25     1011     MECN     C1       CG331   -0.170000       12.0110           0
     75898 WT25     1011     MECN     H11      HGA3     0.090000        1.0080           0
     75899 WT25     1011     MECN     H12      HGA3     0.090000        1.0080           0
     75900 WT25     1011     MECN     H13      HGA3     0.090000        1.0080           0
     75901 WT25     1011     MECN     C2       CG1N1    0.360000       12.0110           0
     75902 WT25     1011     MECN     N3       NG1T1   -0.460000       14.0070           0
     75903 WT25     1012     MECN     C1       CG331   -0.170000       12.0110           0
     75904 WT25     1012     MECN     H11      HGA3     0.090000        1.0080           0
     75905 WT25     1012     MECN     H12      HGA3     0.090000        1.0080           0
     75906 WT25     1012     MECN     H13      HGA3     0.090000        1.0080           0
     75907 WT25     1012     MECN     C2       CG1N1    0.360000       12.0110           0
     75908 WT25     1012     MECN     N3       NG1T1   -0.460000       14.0070           0
     75909 WT25     1014     MECN     C1       CG331   -0.170000       12.0110           0
     75910 WT25     1014     MECN     H11      HGA3     0.090000        1.0080           0
     75911 WT25     1014     MECN     H12      HGA3     0.090000        1.0080           0
     75912 WT25     1014     MECN     H13      HGA3     0.090000        1.0080           0
     75913 WT25     1014     MECN     C2       CG1N1    0.360000       12.0110           0
     75914 WT25     1014     MECN     N3       NG1T1   -0.460000       14.0070           0
     75915 WT25     1030     MECN     C1       CG331   -0.170000       12.0110           0
     75916 WT25     1030     MECN     H11      HGA3     0.090000        1.0080           0
     75917 WT25     1030     MECN     H12      HGA3     0.090000        1.0080           0
     75918 WT25     1030     MECN     H13      HGA3     0.090000        1.0080           0
     75919 WT25     1030     MECN     C2       CG1N1    0.360000       12.0110           0
     75920 WT25     1030     MECN     N3       NG1T1   -0.460000       14.0070           0
     75921 WT25     1033     MECN     C1       CG331   -0.170000       12.0110           0
     75922 WT25     1033     MECN     H11      HGA3     0.090000        1.0080           0
     75923 WT25     1033     MECN     H12      HGA3     0.090000        1.0080           0
     75924 WT25     1033     MECN     H13      HGA3     0.090000        1.0080           0
     75925 WT25     1033     MECN     C2       CG1N1    0.360000       12.0110           0
     75926 WT25     1033     MECN     N3       NG1T1   -0.460000       14.0070           0
     75927 WT25     1034     MECN     C1       CG331   -0.170000       12.0110           0
     75928 WT25     1034     MECN     H11      HGA3     0.090000        1.0080           0
     75929 WT25     1034     MECN     H12      HGA3     0.090000        1.0080           0
     75930 WT25     1034     MECN     H13      HGA3     0.090000        1.0080           0
     75931 WT25     1034     MECN     C2       CG1N1    0.360000       12.0110           0
     75932 WT25     1034     MECN     N3       NG1T1   -0.460000       14.0070           0
     75933 WT25     1035     MECN     C1       CG331   -0.170000       12.0110           0
     75934 WT25     1035     MECN     H11      HGA3     0.090000        1.0080           0
     75935 WT25     1035     MECN     H12      HGA3     0.090000        1.0080           0
     75936 WT25     1035     MECN     H13      HGA3     0.090000        1.0080           0
     75937 WT25     1035     MECN     C2       CG1N1    0.360000       12.0110           0
     75938 WT25     1035     MECN     N3       NG1T1   -0.460000       14.0070           0
     75939 WT25     1036     MECN     C1       CG331   -0.170000       12.0110           0
     75940 WT25     1036     MECN     H11      HGA3     0.090000        1.0080           0
     75941 WT25     1036     MECN     H12      HGA3     0.090000        1.0080           0
     75942 WT25     1036     MECN     H13      HGA3     0.090000        1.0080           0
     75943 WT25     1036     MECN     C2       CG1N1    0.360000       12.0110           0
     75944 WT25     1036     MECN     N3       NG1T1   -0.460000       14.0070           0
     75945 WT25     1039     MECN     C1       CG331   -0.170000       12.0110           0
     75946 WT25     1039     MECN     H11      HGA3     0.090000        1.0080           0
     75947 WT25     1039     MECN     H12      HGA3     0.090000        1.0080           0
     75948 WT25     1039     MECN     H13      HGA3     0.090000        1.0080           0
     75949 WT25     1039     MECN     C2       CG1N1    0.360000       12.0110           0
     75950 WT25     1039     MECN     N3       NG1T1   -0.460000       14.0070           0
     75951 WT25     1043     MECN     C1       CG331   -0.170000       12.0110           0
     75952 WT25     1043     MECN     H11      HGA3     0.090000        1.0080           0
     75953 WT25     1043     MECN     H12      HGA3     0.090000        1.0080           0
     75954 WT25     1043     MECN     H13      HGA3     0.090000        1.0080           0
     75955 WT25     1043     MECN     C2       CG1N1    0.360000       12.0110           0
     75956 WT25     1043     MECN     N3       NG1T1   -0.460000       14.0070           0
     75957 WT25     1044     MECN     C1       CG331   -0.170000       12.0110           0
     75958 WT25     1044     MECN     H11      HGA3     0.090000        1.0080           0
     75959 WT25     1044     MECN     H12      HGA3     0.090000        1.0080           0
     75960 WT25     1044     MECN     H13      HGA3     0.090000        1.0080           0
     75961 WT25     1044     MECN     C2       CG1N1    0.360000       12.0110           0
     75962 WT25     1044     MECN     N3       NG1T1   -0.460000       14.0070           0
     75963 WT25     1048     MECN     C1       CG331   -0.170000       12.0110           0
     75964 WT25     1048     MECN     H11      HGA3     0.090000        1.0080           0
     75965 WT25     1048     MECN     H12      HGA3     0.090000        1.0080           0
     75966 WT25     1048     MECN     H13      HGA3     0.090000        1.0080           0
     75967 WT25     1048     MECN     C2       CG1N1    0.360000       12.0110           0
     75968 WT25     1048     MECN     N3       NG1T1   -0.460000       14.0070           0
     75969 WT25     1051     MECN     C1       CG331   -0.170000       12.0110           0
     75970 WT25     1051     MECN     H11      HGA3     0.090000        1.0080           0
     75971 WT25     1051     MECN     H12      HGA3     0.090000        1.0080           0
     75972 WT25     1051     MECN     H13      HGA3     0.090000        1.0080           0
     75973 WT25     1051     MECN     C2       CG1N1    0.360000       12.0110           0
     75974 WT25     1051     MECN     N3       NG1T1   -0.460000       14.0070           0
     75975 WT25     1055     MECN     C1       CG331   -0.170000       12.0110           0
     75976 WT25     1055     MECN     H11      HGA3     0.090000        1.0080           0
     75977 WT25     1055     MECN     H12      HGA3     0.090000        1.0080           0
     75978 WT25     1055     MECN     H13      HGA3     0.090000        1.0080           0
     75979 WT25     1055     MECN     C2       CG1N1    0.360000       12.0110           0
     75980 WT25     1055     MECN     N3       NG1T1   -0.460000       14.0070           0
     75981 WT25     1057     MECN     C1       CG331   -0.170000       12.0110           0
     75982 WT25     1057     MECN     H11      HGA3     0.090000        1.0080           0
     75983 WT25     1057     MECN     H12      HGA3     0.090000        1.0080           0
     75984 WT25     1057     MECN     H13      HGA3     0.090000        1.0080           0
     75985 WT25     1057     MECN     C2       CG1N1    0.360000       12.0110           0
     75986 WT25     1057     MECN     N3       NG1T1   -0.460000       14.0070           0
     75987 WT25     1058     MECN     C1       CG331   -0.170000       12.0110           0
     75988 WT25     1058     MECN     H11      HGA3     0.090000        1.0080           0
     75989 WT25     1058     MECN     H12      HGA3     0.090000        1.0080           0
     75990 WT25     1058     MECN     H13      HGA3     0.090000        1.0080           0
     75991 WT25     1058     MECN     C2       CG1N1    0.360000       12.0110           0
     75992 WT25     1058     MECN     N3       NG1T1   -0.460000       14.0070           0
     75993 WT25     1059     MECN     C1       CG331   -0.170000       12.0110           0
     75994 WT25     1059     MECN     H11      HGA3     0.090000        1.0080           0
     75995 WT25     1059     MECN     H12      HGA3     0.090000        1.0080           0
     75996 WT25     1059     MECN     H13      HGA3     0.090000        1.0080           0
     75997 WT25     1059     MECN     C2       CG1N1    0.360000       12.0110           0
     75998 WT25     1059     MECN     N3       NG1T1   -0.460000       14.0070           0
     75999 WT25     1062     MECN     C1       CG331   -0.170000       12.0110           0
     76000 WT25     1062     MECN     H11      HGA3     0.090000        1.0080           0
     76001 WT25     1062     MECN     H12      HGA3     0.090000        1.0080           0
     76002 WT25     1062     MECN     H13      HGA3     0.090000        1.0080           0
     76003 WT25     1062     MECN     C2       CG1N1    0.360000       12.0110           0
     76004 WT25     1062     MECN     N3       NG1T1   -0.460000       14.0070           0
     76005 WT25     1063     MECN     C1       CG331   -0.170000       12.0110           0
     76006 WT25     1063     MECN     H11      HGA3     0.090000        1.0080           0
     76007 WT25     1063     MECN     H12      HGA3     0.090000        1.0080           0
     76008 WT25     1063     MECN     H13      HGA3     0.090000        1.0080           0
     76009 WT25     1063     MECN     C2       CG1N1    0.360000       12.0110           0
     76010 WT25     1063     MECN     N3       NG1T1   -0.460000       14.0070           0
     76011 WT25     1071     MECN     C1       CG331   -0.170000       12.0110           0
     76012 WT25     1071     MECN     H11      HGA3     0.090000        1.0080           0
     76013 WT25     1071     MECN     H12      HGA3     0.090000        1.0080           0
     76014 WT25     1071     MECN     H13      HGA3     0.090000        1.0080           0
     76015 WT25     1071     MECN     C2       CG1N1    0.360000       12.0110           0
     76016 WT25     1071     MECN     N3       NG1T1   -0.460000       14.0070           0
     76017 WT25     1072     MECN     C1       CG331   -0.170000       12.0110           0
     76018 WT25     1072     MECN     H11      HGA3     0.090000        1.0080           0
     76019 WT25     1072     MECN     H12      HGA3     0.090000        1.0080           0
     76020 WT25     1072     MECN     H13      HGA3     0.090000        1.0080           0
     76021 WT25     1072     MECN     C2       CG1N1    0.360000       12.0110           0
     76022 WT25     1072     MECN     N3       NG1T1   -0.460000       14.0070           0
     76023 WT25     1075     MECN     C1       CG331   -0.170000       12.0110           0
     76024 WT25     1075     MECN     H11      HGA3     0.090000        1.0080           0
     76025 WT25     1075     MECN     H12      HGA3     0.090000        1.0080           0
     76026 WT25     1075     MECN     H13      HGA3     0.090000        1.0080           0
     76027 WT25     1075     MECN     C2       CG1N1    0.360000       12.0110           0
     76028 WT25     1075     MECN     N3       NG1T1   -0.460000       14.0070           0
     76029 WT25     1076     MECN     C1       CG331   -0.170000       12.0110           0
     76030 WT25     1076     MECN     H11      HGA3     0.090000        1.0080           0
     76031 WT25     1076     MECN     H12      HGA3     0.090000        1.0080           0
     76032 WT25     1076     MECN     H13      HGA3     0.090000        1.0080           0
     76033 WT25     1076     MECN     C2       CG1N1    0.360000       12.0110           0
     76034 WT25     1076     MECN     N3       NG1T1   -0.460000       14.0070           0
     76035 WT25     1084     MECN     C1       CG331   -0.170000       12.0110           0
     76036 WT25     1084     MECN     H11      HGA3     0.090000        1.0080           0
     76037 WT25     1084     MECN     H12      HGA3     0.090000        1.0080           0
     76038 WT25     1084     MECN     H13      HGA3     0.090000        1.0080           0
     76039 WT25     1084     MECN     C2       CG1N1    0.360000       12.0110           0
     76040 WT25     1084     MECN     N3       NG1T1   -0.460000       14.0070           0
     76041 WT25     1089     MECN     C1       CG331   -0.170000       12.0110           0
     76042 WT25     1089     MECN     H11      HGA3     0.090000        1.0080           0
     76043 WT25     1089     MECN     H12      HGA3     0.090000        1.0080           0
     76044 WT25     1089     MECN     H13      HGA3     0.090000        1.0080           0
     76045 WT25     1089     MECN     C2       CG1N1    0.360000       12.0110           0
     76046 WT25     1089     MECN     N3       NG1T1   -0.460000       14.0070           0
     76047 WT25     1093     MECN     C1       CG331   -0.170000       12.0110           0
     76048 WT25     1093     MECN     H11      HGA3     0.090000        1.0080           0
     76049 WT25     1093     MECN     H12      HGA3     0.090000        1.0080           0
     76050 WT25     1093     MECN     H13      HGA3     0.090000        1.0080           0
     76051 WT25     1093     MECN     C2       CG1N1    0.360000       12.0110           0
     76052 WT25     1093     MECN     N3       NG1T1   -0.460000       14.0070           0
     76053 WT25     1102     MECN     C1       CG331   -0.170000       12.0110           0
     76054 WT25     1102     MECN     H11      HGA3     0.090000        1.0080           0
     76055 WT25     1102     MECN     H12      HGA3     0.090000        1.0080           0
     76056 WT25     1102     MECN     H13      HGA3     0.090000        1.0080           0
     76057 WT25     1102     MECN     C2       CG1N1    0.360000       12.0110           0
     76058 WT25     1102     MECN     N3       NG1T1   -0.460000       14.0070           0
     76059 WT25     1106     MECN     C1       CG331   -0.170000       12.0110           0
     76060 WT25     1106     MECN     H11      HGA3     0.090000        1.0080           0
     76061 WT25     1106     MECN     H12      HGA3     0.090000        1.0080           0
     76062 WT25     1106     MECN     H13      HGA3     0.090000        1.0080           0
     76063 WT25     1106     MECN     C2       CG1N1    0.360000       12.0110           0
     76064 WT25     1106     MECN     N3       NG1T1   -0.460000       14.0070           0
     76065 WT25     1109     MECN     C1       CG331   -0.170000       12.0110           0
     76066 WT25     1109     MECN     H11      HGA3     0.090000        1.0080           0
     76067 WT25     1109     MECN     H12      HGA3     0.090000        1.0080           0
     76068 WT25     1109     MECN     H13      HGA3     0.090000        1.0080           0
     76069 WT25     1109     MECN     C2       CG1N1    0.360000       12.0110           0
     76070 WT25     1109     MECN     N3       NG1T1   -0.460000       14.0070           0
     76071 WT25     1120     MECN     C1       CG331   -0.170000       12.0110           0
     76072 WT25     1120     MECN     H11      HGA3     0.090000        1.0080           0
     76073 WT25     1120     MECN     H12      HGA3     0.090000        1.0080           0
     76074 WT25     1120     MECN     H13      HGA3     0.090000        1.0080           0
     76075 WT25     1120     MECN     C2       CG1N1    0.360000       12.0110           0
     76076 WT25     1120     MECN     N3       NG1T1   -0.460000       14.0070           0
     76077 WT25     1122     MECN     C1       CG331   -0.170000       12.0110           0
     76078 WT25     1122     MECN     H11      HGA3     0.090000        1.0080           0
     76079 WT25     1122     MECN     H12      HGA3     0.090000        1.0080           0
     76080 WT25     1122     MECN     H13      HGA3     0.090000        1.0080           0
     76081 WT25     1122     MECN     C2       CG1N1    0.360000       12.0110           0
     76082 WT25     1122     MECN     N3       NG1T1   -0.460000       14.0070           0
     76083 WT25     1124     MECN     C1       CG331   -0.170000       12.0110           0
     76084 WT25     1124     MECN     H11      HGA3     0.090000        1.0080           0
     76085 WT25     1124     MECN     H12      HGA3     0.090000        1.0080           0
     76086 WT25     1124     MECN     H13      HGA3     0.090000        1.0080           0
     76087 WT25     1124     MECN     C2       CG1N1    0.360000       12.0110           0
     76088 WT25     1124     MECN     N3       NG1T1   -0.460000       14.0070           0
     76089 WT25     1126     MECN     C1       CG331   -0.170000       12.0110           0
     76090 WT25     1126     MECN     H11      HGA3     0.090000        1.0080           0
     76091 WT25     1126     MECN     H12      HGA3     0.090000        1.0080           0
     76092 WT25     1126     MECN     H13      HGA3     0.090000        1.0080           0
     76093 WT25     1126     MECN     C2       CG1N1    0.360000       12.0110           0
     76094 WT25     1126     MECN     N3       NG1T1   -0.460000       14.0070           0
     76095 WT25     1131     MECN     C1       CG331   -0.170000       12.0110           0
     76096 WT25     1131     MECN     H11      HGA3     0.090000        1.0080           0
     76097 WT25     1131     MECN     H12      HGA3     0.090000        1.0080           0
     76098 WT25     1131     MECN     H13      HGA3     0.090000        1.0080           0
     76099 WT25     1131     MECN     C2       CG1N1    0.360000       12.0110           0
     76100 WT25     1131     MECN     N3       NG1T1   -0.460000       14.0070           0
     76101 WT25     1132     MECN     C1       CG331   -0.170000       12.0110           0
     76102 WT25     1132     MECN     H11      HGA3     0.090000        1.0080           0
     76103 WT25     1132     MECN     H12      HGA3     0.090000        1.0080           0
     76104 WT25     1132     MECN     H13      HGA3     0.090000        1.0080           0
     76105 WT25     1132     MECN     C2       CG1N1    0.360000       12.0110           0
     76106 WT25     1132     MECN     N3       NG1T1   -0.460000       14.0070           0
     76107 WT25     1137     MECN     C1       CG331   -0.170000       12.0110           0
     76108 WT25     1137     MECN     H11      HGA3     0.090000        1.0080           0
     76109 WT25     1137     MECN     H12      HGA3     0.090000        1.0080           0
     76110 WT25     1137     MECN     H13      HGA3     0.090000        1.0080           0
     76111 WT25     1137     MECN     C2       CG1N1    0.360000       12.0110           0
     76112 WT25     1137     MECN     N3       NG1T1   -0.460000       14.0070           0
     76113 WT25     1146     MECN     C1       CG331   -0.170000       12.0110           0
     76114 WT25     1146     MECN     H11      HGA3     0.090000        1.0080           0
     76115 WT25     1146     MECN     H12      HGA3     0.090000        1.0080           0
     76116 WT25     1146     MECN     H13      HGA3     0.090000        1.0080           0
     76117 WT25     1146     MECN     C2       CG1N1    0.360000       12.0110           0
     76118 WT25     1146     MECN     N3       NG1T1   -0.460000       14.0070           0
     76119 WT25     1148     MECN     C1       CG331   -0.170000       12.0110           0
     76120 WT25     1148     MECN     H11      HGA3     0.090000        1.0080           0
     76121 WT25     1148     MECN     H12      HGA3     0.090000        1.0080           0
     76122 WT25     1148     MECN     H13      HGA3     0.090000        1.0080           0
     76123 WT25     1148     MECN     C2       CG1N1    0.360000       12.0110           0
     76124 WT25     1148     MECN     N3       NG1T1   -0.460000       14.0070           0
     76125 WT25     1155     MECN     C1       CG331   -0.170000       12.0110           0
     76126 WT25     1155     MECN     H11      HGA3     0.090000        1.0080           0
     76127 WT25     1155     MECN     H12      HGA3     0.090000        1.0080           0
     76128 WT25     1155     MECN     H13      HGA3     0.090000        1.0080           0
     76129 WT25     1155     MECN     C2       CG1N1    0.360000       12.0110           0
     76130 WT25     1155     MECN     N3       NG1T1   -0.460000       14.0070           0
     76131 WT25     1158     MECN     C1       CG331   -0.170000       12.0110           0
     76132 WT25     1158     MECN     H11      HGA3     0.090000        1.0080           0
     76133 WT25     1158     MECN     H12      HGA3     0.090000        1.0080           0
     76134 WT25     1158     MECN     H13      HGA3     0.090000        1.0080           0
     76135 WT25     1158     MECN     C2       CG1N1    0.360000       12.0110           0
     76136 WT25     1158     MECN     N3       NG1T1   -0.460000       14.0070           0
     76137 WT25     1161     MECN     C1       CG331   -0.170000       12.0110           0
     76138 WT25     1161     MECN     H11      HGA3     0.090000        1.0080           0
     76139 WT25     1161     MECN     H12      HGA3     0.090000        1.0080           0
     76140 WT25     1161     MECN     H13      HGA3     0.090000        1.0080           0
     76141 WT25     1161     MECN     C2       CG1N1    0.360000       12.0110           0
     76142 WT25     1161     MECN     N3       NG1T1   -0.460000       14.0070           0
     76143 WT25     1163     MECN     C1       CG331   -0.170000       12.0110           0
     76144 WT25     1163     MECN     H11      HGA3     0.090000        1.0080           0
     76145 WT25     1163     MECN     H12      HGA3     0.090000        1.0080           0
     76146 WT25     1163     MECN     H13      HGA3     0.090000        1.0080           0
     76147 WT25     1163     MECN     C2       CG1N1    0.360000       12.0110           0
     76148 WT25     1163     MECN     N3       NG1T1   -0.460000       14.0070           0
     76149 WT25     1168     MECN     C1       CG331   -0.170000       12.0110           0
     76150 WT25     1168     MECN     H11      HGA3     0.090000        1.0080           0
     76151 WT25     1168     MECN     H12      HGA3     0.090000        1.0080           0
     76152 WT25     1168     MECN     H13      HGA3     0.090000        1.0080           0
     76153 WT25     1168     MECN     C2       CG1N1    0.360000       12.0110           0
     76154 WT25     1168     MECN     N3       NG1T1   -0.460000       14.0070           0
     76155 WT25     1171     MECN     C1       CG331   -0.170000       12.0110           0
     76156 WT25     1171     MECN     H11      HGA3     0.090000        1.0080           0
     76157 WT25     1171     MECN     H12      HGA3     0.090000        1.0080           0
     76158 WT25     1171     MECN     H13      HGA3     0.090000        1.0080           0
     76159 WT25     1171     MECN     C2       CG1N1    0.360000       12.0110           0
     76160 WT25     1171     MECN     N3       NG1T1   -0.460000       14.0070           0
     76161 WT25     1181     MECN     C1       CG331   -0.170000       12.0110           0
     76162 WT25     1181     MECN     H11      HGA3     0.090000        1.0080           0
     76163 WT25     1181     MECN     H12      HGA3     0.090000        1.0080           0
     76164 WT25     1181     MECN     H13      HGA3     0.090000        1.0080           0
     76165 WT25     1181     MECN     C2       CG1N1    0.360000       12.0110           0
     76166 WT25     1181     MECN     N3       NG1T1   -0.460000       14.0070           0
     76167 WT25     1184     MECN     C1       CG331   -0.170000       12.0110           0
     76168 WT25     1184     MECN     H11      HGA3     0.090000        1.0080           0
     76169 WT25     1184     MECN     H12      HGA3     0.090000        1.0080           0
     76170 WT25     1184     MECN     H13      HGA3     0.090000        1.0080           0
     76171 WT25     1184     MECN     C2       CG1N1    0.360000       12.0110           0
     76172 WT25     1184     MECN     N3       NG1T1   -0.460000       14.0070           0
     76173 WT25     1188     MECN     C1       CG331   -0.170000       12.0110           0
     76174 WT25     1188     MECN     H11      HGA3     0.090000        1.0080           0
     76175 WT25     1188     MECN     H12      HGA3     0.090000        1.0080           0
     76176 WT25     1188     MECN     H13      HGA3     0.090000        1.0080           0
     76177 WT25     1188     MECN     C2       CG1N1    0.360000       12.0110           0
     76178 WT25     1188     MECN     N3       NG1T1   -0.460000       14.0070           0
     76179 WT25     1193     MECN     C1       CG331   -0.170000       12.0110           0
     76180 WT25     1193     MECN     H11      HGA3     0.090000        1.0080           0
     76181 WT25     1193     MECN     H12      HGA3     0.090000        1.0080           0
     76182 WT25     1193     MECN     H13      HGA3     0.090000        1.0080           0
     76183 WT25     1193     MECN     C2       CG1N1    0.360000       12.0110           0
     76184 WT25     1193     MECN     N3       NG1T1   -0.460000       14.0070           0
     76185 WT25     1197     MECN     C1       CG331   -0.170000       12.0110           0
     76186 WT25     1197     MECN     H11      HGA3     0.090000        1.0080           0
     76187 WT25     1197     MECN     H12      HGA3     0.090000        1.0080           0
     76188 WT25     1197     MECN     H13      HGA3     0.090000        1.0080           0
     76189 WT25     1197     MECN     C2       CG1N1    0.360000       12.0110           0
     76190 WT25     1197     MECN     N3       NG1T1   -0.460000       14.0070           0
     76191 WT25     1200     MECN     C1       CG331   -0.170000       12.0110           0
     76192 WT25     1200     MECN     H11      HGA3     0.090000        1.0080           0
     76193 WT25     1200     MECN     H12      HGA3     0.090000        1.0080           0
     76194 WT25     1200     MECN     H13      HGA3     0.090000        1.0080           0
     76195 WT25     1200     MECN     C2       CG1N1    0.360000       12.0110           0
     76196 WT25     1200     MECN     N3       NG1T1   -0.460000       14.0070           0
     76197 WT25     1207     MECN     C1       CG331   -0.170000       12.0110           0
     76198 WT25     1207     MECN     H11      HGA3     0.090000        1.0080           0
     76199 WT25     1207     MECN     H12      HGA3     0.090000        1.0080           0
     76200 WT25     1207     MECN     H13      HGA3     0.090000        1.0080           0
     76201 WT25     1207     MECN     C2       CG1N1    0.360000       12.0110           0
     76202 WT25     1207     MECN     N3       NG1T1   -0.460000       14.0070           0
     76203 WT25     1210     MECN     C1       CG331   -0.170000       12.0110           0
     76204 WT25     1210     MECN     H11      HGA3     0.090000        1.0080           0
     76205 WT25     1210     MECN     H12      HGA3     0.090000        1.0080           0
     76206 WT25     1210     MECN     H13      HGA3     0.090000        1.0080           0
     76207 WT25     1210     MECN     C2       CG1N1    0.360000       12.0110           0
     76208 WT25     1210     MECN     N3       NG1T1   -0.460000       14.0070           0
     76209 WT25     1211     MECN     C1       CG331   -0.170000       12.0110           0
     76210 WT25     1211     MECN     H11      HGA3     0.090000        1.0080           0
     76211 WT25     1211     MECN     H12      HGA3     0.090000        1.0080           0
     76212 WT25     1211     MECN     H13      HGA3     0.090000        1.0080           0
     76213 WT25     1211     MECN     C2       CG1N1    0.360000       12.0110           0
     76214 WT25     1211     MECN     N3       NG1T1   -0.460000       14.0070           0
     76215 WT25     1220     MECN     C1       CG331   -0.170000       12.0110           0
     76216 WT25     1220     MECN     H11      HGA3     0.090000        1.0080           0
     76217 WT25     1220     MECN     H12      HGA3     0.090000        1.0080           0
     76218 WT25     1220     MECN     H13      HGA3     0.090000        1.0080           0
     76219 WT25     1220     MECN     C2       CG1N1    0.360000       12.0110           0
     76220 WT25     1220     MECN     N3       NG1T1   -0.460000       14.0070           0
     76221 WT25     1222     MECN     C1       CG331   -0.170000       12.0110           0
     76222 WT25     1222     MECN     H11      HGA3     0.090000        1.0080           0
     76223 WT25     1222     MECN     H12      HGA3     0.090000        1.0080           0
     76224 WT25     1222     MECN     H13      HGA3     0.090000        1.0080           0
     76225 WT25     1222     MECN     C2       CG1N1    0.360000       12.0110           0
     76226 WT25     1222     MECN     N3       NG1T1   -0.460000       14.0070           0
     76227 WT25     1229     MECN     C1       CG331   -0.170000       12.0110           0
     76228 WT25     1229     MECN     H11      HGA3     0.090000        1.0080           0
     76229 WT25     1229     MECN     H12      HGA3     0.090000        1.0080           0
     76230 WT25     1229     MECN     H13      HGA3     0.090000        1.0080           0
     76231 WT25     1229     MECN     C2       CG1N1    0.360000       12.0110           0
     76232 WT25     1229     MECN     N3       NG1T1   -0.460000       14.0070           0
     76233 WT25     1230     MECN     C1       CG331   -0.170000       12.0110           0
     76234 WT25     1230     MECN     H11      HGA3     0.090000        1.0080           0
     76235 WT25     1230     MECN     H12      HGA3     0.090000        1.0080           0
     76236 WT25     1230     MECN     H13      HGA3     0.090000        1.0080           0
     76237 WT25     1230     MECN     C2       CG1N1    0.360000       12.0110           0
     76238 WT25     1230     MECN     N3       NG1T1   -0.460000       14.0070           0
     76239 WT25     1239     MECN     C1       CG331   -0.170000       12.0110           0
     76240 WT25     1239     MECN     H11      HGA3     0.090000        1.0080           0
     76241 WT25     1239     MECN     H12      HGA3     0.090000        1.0080           0
     76242 WT25     1239     MECN     H13      HGA3     0.090000        1.0080           0
     76243 WT25     1239     MECN     C2       CG1N1    0.360000       12.0110           0
     76244 WT25     1239     MECN     N3       NG1T1   -0.460000       14.0070           0
     76245 WT25     1253     MECN     C1       CG331   -0.170000       12.0110           0
     76246 WT25     1253     MECN     H11      HGA3     0.090000        1.0080           0
     76247 WT25     1253     MECN     H12      HGA3     0.090000        1.0080           0
     76248 WT25     1253     MECN     H13      HGA3     0.090000        1.0080           0
     76249 WT25     1253     MECN     C2       CG1N1    0.360000       12.0110           0
     76250 WT25     1253     MECN     N3       NG1T1   -0.460000       14.0070           0
     76251 WT25     1261     MECN     C1       CG331   -0.170000       12.0110           0
     76252 WT25     1261     MECN     H11      HGA3     0.090000        1.0080           0
     76253 WT25     1261     MECN     H12      HGA3     0.090000        1.0080           0
     76254 WT25     1261     MECN     H13      HGA3     0.090000        1.0080           0
     76255 WT25     1261     MECN     C2       CG1N1    0.360000       12.0110           0
     76256 WT25     1261     MECN     N3       NG1T1   -0.460000       14.0070           0
     76257 WT25     1263     MECN     C1       CG331   -0.170000       12.0110           0
     76258 WT25     1263     MECN     H11      HGA3     0.090000        1.0080           0
     76259 WT25     1263     MECN     H12      HGA3     0.090000        1.0080           0
     76260 WT25     1263     MECN     H13      HGA3     0.090000        1.0080           0
     76261 WT25     1263     MECN     C2       CG1N1    0.360000       12.0110           0
     76262 WT25     1263     MECN     N3       NG1T1   -0.460000       14.0070           0
     76263 WT25     1264     MECN     C1       CG331   -0.170000       12.0110           0
     76264 WT25     1264     MECN     H11      HGA3     0.090000        1.0080           0
     76265 WT25     1264     MECN     H12      HGA3     0.090000        1.0080           0
     76266 WT25     1264     MECN     H13      HGA3     0.090000        1.0080           0
     76267 WT25     1264     MECN     C2       CG1N1    0.360000       12.0110           0
     76268 WT25     1264     MECN     N3       NG1T1   -0.460000       14.0070           0
     76269 WT25     1265     MECN     C1       CG331   -0.170000       12.0110           0
     76270 WT25     1265     MECN     H11      HGA3     0.090000        1.0080           0
     76271 WT25     1265     MECN     H12      HGA3     0.090000        1.0080           0
     76272 WT25     1265     MECN     H13      HGA3     0.090000        1.0080           0
     76273 WT25     1265     MECN     C2       CG1N1    0.360000       12.0110           0
     76274 WT25     1265     MECN     N3       NG1T1   -0.460000       14.0070           0
     76275 WT25     1270     MECN     C1       CG331   -0.170000       12.0110           0
     76276 WT25     1270     MECN     H11      HGA3     0.090000        1.0080           0
     76277 WT25     1270     MECN     H12      HGA3     0.090000        1.0080           0
     76278 WT25     1270     MECN     H13      HGA3     0.090000        1.0080           0
     76279 WT25     1270     MECN     C2       CG1N1    0.360000       12.0110           0
     76280 WT25     1270     MECN     N3       NG1T1   -0.460000       14.0070           0
     76281 WT25     1271     MECN     C1       CG331   -0.170000       12.0110           0
     76282 WT25     1271     MECN     H11      HGA3     0.090000        1.0080           0
     76283 WT25     1271     MECN     H12      HGA3     0.090000        1.0080           0
     76284 WT25     1271     MECN     H13      HGA3     0.090000        1.0080           0
     76285 WT25     1271     MECN     C2       CG1N1    0.360000       12.0110           0
     76286 WT25     1271     MECN     N3       NG1T1   -0.460000       14.0070           0
     76287 WT25     1273     MECN     C1       CG331   -0.170000       12.0110           0
     76288 WT25     1273     MECN     H11      HGA3     0.090000        1.0080           0
     76289 WT25     1273     MECN     H12      HGA3     0.090000        1.0080           0
     76290 WT25     1273     MECN     H13      HGA3     0.090000        1.0080           0
     76291 WT25     1273     MECN     C2       CG1N1    0.360000       12.0110           0
     76292 WT25     1273     MECN     N3       NG1T1   -0.460000       14.0070           0
     76293 WT25     1274     MECN     C1       CG331   -0.170000       12.0110           0
     76294 WT25     1274     MECN     H11      HGA3     0.090000        1.0080           0
     76295 WT25     1274     MECN     H12      HGA3     0.090000        1.0080           0
     76296 WT25     1274     MECN     H13      HGA3     0.090000        1.0080           0
     76297 WT25     1274     MECN     C2       CG1N1    0.360000       12.0110           0
     76298 WT25     1274     MECN     N3       NG1T1   -0.460000       14.0070           0
     76299 WT25     1287     MECN     C1       CG331   -0.170000       12.0110           0
     76300 WT25     1287     MECN     H11      HGA3     0.090000        1.0080           0
     76301 WT25     1287     MECN     H12      HGA3     0.090000        1.0080           0
     76302 WT25     1287     MECN     H13      HGA3     0.090000        1.0080           0
     76303 WT25     1287     MECN     C2       CG1N1    0.360000       12.0110           0
     76304 WT25     1287     MECN     N3       NG1T1   -0.460000       14.0070           0
     76305 WT25     1293     MECN     C1       CG331   -0.170000       12.0110           0
     76306 WT25     1293     MECN     H11      HGA3     0.090000        1.0080           0
     76307 WT25     1293     MECN     H12      HGA3     0.090000        1.0080           0
     76308 WT25     1293     MECN     H13      HGA3     0.090000        1.0080           0
     76309 WT25     1293     MECN     C2       CG1N1    0.360000       12.0110           0
     76310 WT25     1293     MECN     N3       NG1T1   -0.460000       14.0070           0
     76311 WT25     1295     MECN     C1       CG331   -0.170000       12.0110           0
     76312 WT25     1295     MECN     H11      HGA3     0.090000        1.0080           0
     76313 WT25     1295     MECN     H12      HGA3     0.090000        1.0080           0
     76314 WT25     1295     MECN     H13      HGA3     0.090000        1.0080           0
     76315 WT25     1295     MECN     C2       CG1N1    0.360000       12.0110           0
     76316 WT25     1295     MECN     N3       NG1T1   -0.460000       14.0070           0
     76317 WT25     1298     MECN     C1       CG331   -0.170000       12.0110           0
     76318 WT25     1298     MECN     H11      HGA3     0.090000        1.0080           0
     76319 WT25     1298     MECN     H12      HGA3     0.090000        1.0080           0
     76320 WT25     1298     MECN     H13      HGA3     0.090000        1.0080           0
     76321 WT25     1298     MECN     C2       CG1N1    0.360000       12.0110           0
     76322 WT25     1298     MECN     N3       NG1T1   -0.460000       14.0070           0
     76323 WT25     1300     MECN     C1       CG331   -0.170000       12.0110           0
     76324 WT25     1300     MECN     H11      HGA3     0.090000        1.0080           0
     76325 WT25     1300     MECN     H12      HGA3     0.090000        1.0080           0
     76326 WT25     1300     MECN     H13      HGA3     0.090000        1.0080           0
     76327 WT25     1300     MECN     C2       CG1N1    0.360000       12.0110           0
     76328 WT25     1300     MECN     N3       NG1T1   -0.460000       14.0070           0
     76329 WT25     1305     MECN     C1       CG331   -0.170000       12.0110           0
     76330 WT25     1305     MECN     H11      HGA3     0.090000        1.0080           0
     76331 WT25     1305     MECN     H12      HGA3     0.090000        1.0080           0
     76332 WT25     1305     MECN     H13      HGA3     0.090000        1.0080           0
     76333 WT25     1305     MECN     C2       CG1N1    0.360000       12.0110           0
     76334 WT25     1305     MECN     N3       NG1T1   -0.460000       14.0070           0
     76335 WT25     1310     MECN     C1       CG331   -0.170000       12.0110           0
     76336 WT25     1310     MECN     H11      HGA3     0.090000        1.0080           0
     76337 WT25     1310     MECN     H12      HGA3     0.090000        1.0080           0
     76338 WT25     1310     MECN     H13      HGA3     0.090000        1.0080           0
     76339 WT25     1310     MECN     C2       CG1N1    0.360000       12.0110           0
     76340 WT25     1310     MECN     N3       NG1T1   -0.460000       14.0070           0
     76341 WT25     1315     MECN     C1       CG331   -0.170000       12.0110           0
     76342 WT25     1315     MECN     H11      HGA3     0.090000        1.0080           0
     76343 WT25     1315     MECN     H12      HGA3     0.090000        1.0080           0
     76344 WT25     1315     MECN     H13      HGA3     0.090000        1.0080           0
     76345 WT25     1315     MECN     C2       CG1N1    0.360000       12.0110           0
     76346 WT25     1315     MECN     N3       NG1T1   -0.460000       14.0070           0
     76347 WT25     1325     MECN     C1       CG331   -0.170000       12.0110           0
     76348 WT25     1325     MECN     H11      HGA3     0.090000        1.0080           0
     76349 WT25     1325     MECN     H12      HGA3     0.090000        1.0080           0
     76350 WT25     1325     MECN     H13      HGA3     0.090000        1.0080           0
     76351 WT25     1325     MECN     C2       CG1N1    0.360000       12.0110           0
     76352 WT25     1325     MECN     N3       NG1T1   -0.460000       14.0070           0
     76353 WT25     1328     MECN     C1       CG331   -0.170000       12.0110           0
     76354 WT25     1328     MECN     H11      HGA3     0.090000        1.0080           0
     76355 WT25     1328     MECN     H12      HGA3     0.090000        1.0080           0
     76356 WT25     1328     MECN     H13      HGA3     0.090000        1.0080           0
     76357 WT25     1328     MECN     C2       CG1N1    0.360000       12.0110           0
     76358 WT25     1328     MECN     N3       NG1T1   -0.460000       14.0070           0
     76359 WT26     1        MECN     C1       CG331   -0.170000       12.0110           0
     76360 WT26     1        MECN     H11      HGA3     0.090000        1.0080           0
     76361 WT26     1        MECN     H12      HGA3     0.090000        1.0080           0
     76362 WT26     1        MECN     H13      HGA3     0.090000        1.0080           0
     76363 WT26     1        MECN     C2       CG1N1    0.360000       12.0110           0
     76364 WT26     1        MECN     N3       NG1T1   -0.460000       14.0070           0
     76365 WT26     2        MECN     C1       CG331   -0.170000       12.0110           0
     76366 WT26     2        MECN     H11      HGA3     0.090000        1.0080           0
     76367 WT26     2        MECN     H12      HGA3     0.090000        1.0080           0
     76368 WT26     2        MECN     H13      HGA3     0.090000        1.0080           0
     76369 WT26     2        MECN     C2       CG1N1    0.360000       12.0110           0
     76370 WT26     2        MECN     N3       NG1T1   -0.460000       14.0070           0
     76371 WT26     5        MECN     C1       CG331   -0.170000       12.0110           0
     76372 WT26     5        MECN     H11      HGA3     0.090000        1.0080           0
     76373 WT26     5        MECN     H12      HGA3     0.090000        1.0080           0
     76374 WT26     5        MECN     H13      HGA3     0.090000        1.0080           0
     76375 WT26     5        MECN     C2       CG1N1    0.360000       12.0110           0
     76376 WT26     5        MECN     N3       NG1T1   -0.460000       14.0070           0
     76377 WT26     6        MECN     C1       CG331   -0.170000       12.0110           0
     76378 WT26     6        MECN     H11      HGA3     0.090000        1.0080           0
     76379 WT26     6        MECN     H12      HGA3     0.090000        1.0080           0
     76380 WT26     6        MECN     H13      HGA3     0.090000        1.0080           0
     76381 WT26     6        MECN     C2       CG1N1    0.360000       12.0110           0
     76382 WT26     6        MECN     N3       NG1T1   -0.460000       14.0070           0
     76383 WT26     9        MECN     C1       CG331   -0.170000       12.0110           0
     76384 WT26     9        MECN     H11      HGA3     0.090000        1.0080           0
     76385 WT26     9        MECN     H12      HGA3     0.090000        1.0080           0
     76386 WT26     9        MECN     H13      HGA3     0.090000        1.0080           0
     76387 WT26     9        MECN     C2       CG1N1    0.360000       12.0110           0
     76388 WT26     9        MECN     N3       NG1T1   -0.460000       14.0070           0
     76389 WT26     11       MECN     C1       CG331   -0.170000       12.0110           0
     76390 WT26     11       MECN     H11      HGA3     0.090000        1.0080           0
     76391 WT26     11       MECN     H12      HGA3     0.090000        1.0080           0
     76392 WT26     11       MECN     H13      HGA3     0.090000        1.0080           0
     76393 WT26     11       MECN     C2       CG1N1    0.360000       12.0110           0
     76394 WT26     11       MECN     N3       NG1T1   -0.460000       14.0070           0
     76395 WT26     13       MECN     C1       CG331   -0.170000       12.0110           0
     76396 WT26     13       MECN     H11      HGA3     0.090000        1.0080           0
     76397 WT26     13       MECN     H12      HGA3     0.090000        1.0080           0
     76398 WT26     13       MECN     H13      HGA3     0.090000        1.0080           0
     76399 WT26     13       MECN     C2       CG1N1    0.360000       12.0110           0
     76400 WT26     13       MECN     N3       NG1T1   -0.460000       14.0070           0
     76401 WT26     15       MECN     C1       CG331   -0.170000       12.0110           0
     76402 WT26     15       MECN     H11      HGA3     0.090000        1.0080           0
     76403 WT26     15       MECN     H12      HGA3     0.090000        1.0080           0
     76404 WT26     15       MECN     H13      HGA3     0.090000        1.0080           0
     76405 WT26     15       MECN     C2       CG1N1    0.360000       12.0110           0
     76406 WT26     15       MECN     N3       NG1T1   -0.460000       14.0070           0
     76407 WT26     18       MECN     C1       CG331   -0.170000       12.0110           0
     76408 WT26     18       MECN     H11      HGA3     0.090000        1.0080           0
     76409 WT26     18       MECN     H12      HGA3     0.090000        1.0080           0
     76410 WT26     18       MECN     H13      HGA3     0.090000        1.0080           0
     76411 WT26     18       MECN     C2       CG1N1    0.360000       12.0110           0
     76412 WT26     18       MECN     N3       NG1T1   -0.460000       14.0070           0
     76413 WT26     24       MECN     C1       CG331   -0.170000       12.0110           0
     76414 WT26     24       MECN     H11      HGA3     0.090000        1.0080           0
     76415 WT26     24       MECN     H12      HGA3     0.090000        1.0080           0
     76416 WT26     24       MECN     H13      HGA3     0.090000        1.0080           0
     76417 WT26     24       MECN     C2       CG1N1    0.360000       12.0110           0
     76418 WT26     24       MECN     N3       NG1T1   -0.460000       14.0070           0
     76419 WT26     27       MECN     C1       CG331   -0.170000       12.0110           0
     76420 WT26     27       MECN     H11      HGA3     0.090000        1.0080           0
     76421 WT26     27       MECN     H12      HGA3     0.090000        1.0080           0
     76422 WT26     27       MECN     H13      HGA3     0.090000        1.0080           0
     76423 WT26     27       MECN     C2       CG1N1    0.360000       12.0110           0
     76424 WT26     27       MECN     N3       NG1T1   -0.460000       14.0070           0
     76425 WT26     28       MECN     C1       CG331   -0.170000       12.0110           0
     76426 WT26     28       MECN     H11      HGA3     0.090000        1.0080           0
     76427 WT26     28       MECN     H12      HGA3     0.090000        1.0080           0
     76428 WT26     28       MECN     H13      HGA3     0.090000        1.0080           0
     76429 WT26     28       MECN     C2       CG1N1    0.360000       12.0110           0
     76430 WT26     28       MECN     N3       NG1T1   -0.460000       14.0070           0
     76431 WT26     32       MECN     C1       CG331   -0.170000       12.0110           0
     76432 WT26     32       MECN     H11      HGA3     0.090000        1.0080           0
     76433 WT26     32       MECN     H12      HGA3     0.090000        1.0080           0
     76434 WT26     32       MECN     H13      HGA3     0.090000        1.0080           0
     76435 WT26     32       MECN     C2       CG1N1    0.360000       12.0110           0
     76436 WT26     32       MECN     N3       NG1T1   -0.460000       14.0070           0
     76437 WT26     35       MECN     C1       CG331   -0.170000       12.0110           0
     76438 WT26     35       MECN     H11      HGA3     0.090000        1.0080           0
     76439 WT26     35       MECN     H12      HGA3     0.090000        1.0080           0
     76440 WT26     35       MECN     H13      HGA3     0.090000        1.0080           0
     76441 WT26     35       MECN     C2       CG1N1    0.360000       12.0110           0
     76442 WT26     35       MECN     N3       NG1T1   -0.460000       14.0070           0
     76443 WT26     36       MECN     C1       CG331   -0.170000       12.0110           0
     76444 WT26     36       MECN     H11      HGA3     0.090000        1.0080           0
     76445 WT26     36       MECN     H12      HGA3     0.090000        1.0080           0
     76446 WT26     36       MECN     H13      HGA3     0.090000        1.0080           0
     76447 WT26     36       MECN     C2       CG1N1    0.360000       12.0110           0
     76448 WT26     36       MECN     N3       NG1T1   -0.460000       14.0070           0
     76449 WT26     37       MECN     C1       CG331   -0.170000       12.0110           0
     76450 WT26     37       MECN     H11      HGA3     0.090000        1.0080           0
     76451 WT26     37       MECN     H12      HGA3     0.090000        1.0080           0
     76452 WT26     37       MECN     H13      HGA3     0.090000        1.0080           0
     76453 WT26     37       MECN     C2       CG1N1    0.360000       12.0110           0
     76454 WT26     37       MECN     N3       NG1T1   -0.460000       14.0070           0
     76455 WT26     40       MECN     C1       CG331   -0.170000       12.0110           0
     76456 WT26     40       MECN     H11      HGA3     0.090000        1.0080           0
     76457 WT26     40       MECN     H12      HGA3     0.090000        1.0080           0
     76458 WT26     40       MECN     H13      HGA3     0.090000        1.0080           0
     76459 WT26     40       MECN     C2       CG1N1    0.360000       12.0110           0
     76460 WT26     40       MECN     N3       NG1T1   -0.460000       14.0070           0
     76461 WT26     41       MECN     C1       CG331   -0.170000       12.0110           0
     76462 WT26     41       MECN     H11      HGA3     0.090000        1.0080           0
     76463 WT26     41       MECN     H12      HGA3     0.090000        1.0080           0
     76464 WT26     41       MECN     H13      HGA3     0.090000        1.0080           0
     76465 WT26     41       MECN     C2       CG1N1    0.360000       12.0110           0
     76466 WT26     41       MECN     N3       NG1T1   -0.460000       14.0070           0
     76467 WT26     43       MECN     C1       CG331   -0.170000       12.0110           0
     76468 WT26     43       MECN     H11      HGA3     0.090000        1.0080           0
     76469 WT26     43       MECN     H12      HGA3     0.090000        1.0080           0
     76470 WT26     43       MECN     H13      HGA3     0.090000        1.0080           0
     76471 WT26     43       MECN     C2       CG1N1    0.360000       12.0110           0
     76472 WT26     43       MECN     N3       NG1T1   -0.460000       14.0070           0
     76473 WT26     45       MECN     C1       CG331   -0.170000       12.0110           0
     76474 WT26     45       MECN     H11      HGA3     0.090000        1.0080           0
     76475 WT26     45       MECN     H12      HGA3     0.090000        1.0080           0
     76476 WT26     45       MECN     H13      HGA3     0.090000        1.0080           0
     76477 WT26     45       MECN     C2       CG1N1    0.360000       12.0110           0
     76478 WT26     45       MECN     N3       NG1T1   -0.460000       14.0070           0
     76479 WT26     46       MECN     C1       CG331   -0.170000       12.0110           0
     76480 WT26     46       MECN     H11      HGA3     0.090000        1.0080           0
     76481 WT26     46       MECN     H12      HGA3     0.090000        1.0080           0
     76482 WT26     46       MECN     H13      HGA3     0.090000        1.0080           0
     76483 WT26     46       MECN     C2       CG1N1    0.360000       12.0110           0
     76484 WT26     46       MECN     N3       NG1T1   -0.460000       14.0070           0
     76485 WT26     47       MECN     C1       CG331   -0.170000       12.0110           0
     76486 WT26     47       MECN     H11      HGA3     0.090000        1.0080           0
     76487 WT26     47       MECN     H12      HGA3     0.090000        1.0080           0
     76488 WT26     47       MECN     H13      HGA3     0.090000        1.0080           0
     76489 WT26     47       MECN     C2       CG1N1    0.360000       12.0110           0
     76490 WT26     47       MECN     N3       NG1T1   -0.460000       14.0070           0
     76491 WT26     48       MECN     C1       CG331   -0.170000       12.0110           0
     76492 WT26     48       MECN     H11      HGA3     0.090000        1.0080           0
     76493 WT26     48       MECN     H12      HGA3     0.090000        1.0080           0
     76494 WT26     48       MECN     H13      HGA3     0.090000        1.0080           0
     76495 WT26     48       MECN     C2       CG1N1    0.360000       12.0110           0
     76496 WT26     48       MECN     N3       NG1T1   -0.460000       14.0070           0
     76497 WT26     57       MECN     C1       CG331   -0.170000       12.0110           0
     76498 WT26     57       MECN     H11      HGA3     0.090000        1.0080           0
     76499 WT26     57       MECN     H12      HGA3     0.090000        1.0080           0
     76500 WT26     57       MECN     H13      HGA3     0.090000        1.0080           0
     76501 WT26     57       MECN     C2       CG1N1    0.360000       12.0110           0
     76502 WT26     57       MECN     N3       NG1T1   -0.460000       14.0070           0
     76503 WT26     59       MECN     C1       CG331   -0.170000       12.0110           0
     76504 WT26     59       MECN     H11      HGA3     0.090000        1.0080           0
     76505 WT26     59       MECN     H12      HGA3     0.090000        1.0080           0
     76506 WT26     59       MECN     H13      HGA3     0.090000        1.0080           0
     76507 WT26     59       MECN     C2       CG1N1    0.360000       12.0110           0
     76508 WT26     59       MECN     N3       NG1T1   -0.460000       14.0070           0
     76509 WT26     60       MECN     C1       CG331   -0.170000       12.0110           0
     76510 WT26     60       MECN     H11      HGA3     0.090000        1.0080           0
     76511 WT26     60       MECN     H12      HGA3     0.090000        1.0080           0
     76512 WT26     60       MECN     H13      HGA3     0.090000        1.0080           0
     76513 WT26     60       MECN     C2       CG1N1    0.360000       12.0110           0
     76514 WT26     60       MECN     N3       NG1T1   -0.460000       14.0070           0
     76515 WT26     63       MECN     C1       CG331   -0.170000       12.0110           0
     76516 WT26     63       MECN     H11      HGA3     0.090000        1.0080           0
     76517 WT26     63       MECN     H12      HGA3     0.090000        1.0080           0
     76518 WT26     63       MECN     H13      HGA3     0.090000        1.0080           0
     76519 WT26     63       MECN     C2       CG1N1    0.360000       12.0110           0
     76520 WT26     63       MECN     N3       NG1T1   -0.460000       14.0070           0
     76521 WT26     65       MECN     C1       CG331   -0.170000       12.0110           0
     76522 WT26     65       MECN     H11      HGA3     0.090000        1.0080           0
     76523 WT26     65       MECN     H12      HGA3     0.090000        1.0080           0
     76524 WT26     65       MECN     H13      HGA3     0.090000        1.0080           0
     76525 WT26     65       MECN     C2       CG1N1    0.360000       12.0110           0
     76526 WT26     65       MECN     N3       NG1T1   -0.460000       14.0070           0
     76527 WT26     66       MECN     C1       CG331   -0.170000       12.0110           0
     76528 WT26     66       MECN     H11      HGA3     0.090000        1.0080           0
     76529 WT26     66       MECN     H12      HGA3     0.090000        1.0080           0
     76530 WT26     66       MECN     H13      HGA3     0.090000        1.0080           0
     76531 WT26     66       MECN     C2       CG1N1    0.360000       12.0110           0
     76532 WT26     66       MECN     N3       NG1T1   -0.460000       14.0070           0
     76533 WT26     67       MECN     C1       CG331   -0.170000       12.0110           0
     76534 WT26     67       MECN     H11      HGA3     0.090000        1.0080           0
     76535 WT26     67       MECN     H12      HGA3     0.090000        1.0080           0
     76536 WT26     67       MECN     H13      HGA3     0.090000        1.0080           0
     76537 WT26     67       MECN     C2       CG1N1    0.360000       12.0110           0
     76538 WT26     67       MECN     N3       NG1T1   -0.460000       14.0070           0
     76539 WT26     68       MECN     C1       CG331   -0.170000       12.0110           0
     76540 WT26     68       MECN     H11      HGA3     0.090000        1.0080           0
     76541 WT26     68       MECN     H12      HGA3     0.090000        1.0080           0
     76542 WT26     68       MECN     H13      HGA3     0.090000        1.0080           0
     76543 WT26     68       MECN     C2       CG1N1    0.360000       12.0110           0
     76544 WT26     68       MECN     N3       NG1T1   -0.460000       14.0070           0
     76545 WT26     70       MECN     C1       CG331   -0.170000       12.0110           0
     76546 WT26     70       MECN     H11      HGA3     0.090000        1.0080           0
     76547 WT26     70       MECN     H12      HGA3     0.090000        1.0080           0
     76548 WT26     70       MECN     H13      HGA3     0.090000        1.0080           0
     76549 WT26     70       MECN     C2       CG1N1    0.360000       12.0110           0
     76550 WT26     70       MECN     N3       NG1T1   -0.460000       14.0070           0
     76551 WT26     71       MECN     C1       CG331   -0.170000       12.0110           0
     76552 WT26     71       MECN     H11      HGA3     0.090000        1.0080           0
     76553 WT26     71       MECN     H12      HGA3     0.090000        1.0080           0
     76554 WT26     71       MECN     H13      HGA3     0.090000        1.0080           0
     76555 WT26     71       MECN     C2       CG1N1    0.360000       12.0110           0
     76556 WT26     71       MECN     N3       NG1T1   -0.460000       14.0070           0
     76557 WT26     72       MECN     C1       CG331   -0.170000       12.0110           0
     76558 WT26     72       MECN     H11      HGA3     0.090000        1.0080           0
     76559 WT26     72       MECN     H12      HGA3     0.090000        1.0080           0
     76560 WT26     72       MECN     H13      HGA3     0.090000        1.0080           0
     76561 WT26     72       MECN     C2       CG1N1    0.360000       12.0110           0
     76562 WT26     72       MECN     N3       NG1T1   -0.460000       14.0070           0
     76563 WT26     75       MECN     C1       CG331   -0.170000       12.0110           0
     76564 WT26     75       MECN     H11      HGA3     0.090000        1.0080           0
     76565 WT26     75       MECN     H12      HGA3     0.090000        1.0080           0
     76566 WT26     75       MECN     H13      HGA3     0.090000        1.0080           0
     76567 WT26     75       MECN     C2       CG1N1    0.360000       12.0110           0
     76568 WT26     75       MECN     N3       NG1T1   -0.460000       14.0070           0
     76569 WT26     78       MECN     C1       CG331   -0.170000       12.0110           0
     76570 WT26     78       MECN     H11      HGA3     0.090000        1.0080           0
     76571 WT26     78       MECN     H12      HGA3     0.090000        1.0080           0
     76572 WT26     78       MECN     H13      HGA3     0.090000        1.0080           0
     76573 WT26     78       MECN     C2       CG1N1    0.360000       12.0110           0
     76574 WT26     78       MECN     N3       NG1T1   -0.460000       14.0070           0
     76575 WT26     82       MECN     C1       CG331   -0.170000       12.0110           0
     76576 WT26     82       MECN     H11      HGA3     0.090000        1.0080           0
     76577 WT26     82       MECN     H12      HGA3     0.090000        1.0080           0
     76578 WT26     82       MECN     H13      HGA3     0.090000        1.0080           0
     76579 WT26     82       MECN     C2       CG1N1    0.360000       12.0110           0
     76580 WT26     82       MECN     N3       NG1T1   -0.460000       14.0070           0
     76581 WT26     83       MECN     C1       CG331   -0.170000       12.0110           0
     76582 WT26     83       MECN     H11      HGA3     0.090000        1.0080           0
     76583 WT26     83       MECN     H12      HGA3     0.090000        1.0080           0
     76584 WT26     83       MECN     H13      HGA3     0.090000        1.0080           0
     76585 WT26     83       MECN     C2       CG1N1    0.360000       12.0110           0
     76586 WT26     83       MECN     N3       NG1T1   -0.460000       14.0070           0
     76587 WT26     86       MECN     C1       CG331   -0.170000       12.0110           0
     76588 WT26     86       MECN     H11      HGA3     0.090000        1.0080           0
     76589 WT26     86       MECN     H12      HGA3     0.090000        1.0080           0
     76590 WT26     86       MECN     H13      HGA3     0.090000        1.0080           0
     76591 WT26     86       MECN     C2       CG1N1    0.360000       12.0110           0
     76592 WT26     86       MECN     N3       NG1T1   -0.460000       14.0070           0
     76593 WT26     88       MECN     C1       CG331   -0.170000       12.0110           0
     76594 WT26     88       MECN     H11      HGA3     0.090000        1.0080           0
     76595 WT26     88       MECN     H12      HGA3     0.090000        1.0080           0
     76596 WT26     88       MECN     H13      HGA3     0.090000        1.0080           0
     76597 WT26     88       MECN     C2       CG1N1    0.360000       12.0110           0
     76598 WT26     88       MECN     N3       NG1T1   -0.460000       14.0070           0
     76599 WT26     89       MECN     C1       CG331   -0.170000       12.0110           0
     76600 WT26     89       MECN     H11      HGA3     0.090000        1.0080           0
     76601 WT26     89       MECN     H12      HGA3     0.090000        1.0080           0
     76602 WT26     89       MECN     H13      HGA3     0.090000        1.0080           0
     76603 WT26     89       MECN     C2       CG1N1    0.360000       12.0110           0
     76604 WT26     89       MECN     N3       NG1T1   -0.460000       14.0070           0
     76605 WT26     90       MECN     C1       CG331   -0.170000       12.0110           0
     76606 WT26     90       MECN     H11      HGA3     0.090000        1.0080           0
     76607 WT26     90       MECN     H12      HGA3     0.090000        1.0080           0
     76608 WT26     90       MECN     H13      HGA3     0.090000        1.0080           0
     76609 WT26     90       MECN     C2       CG1N1    0.360000       12.0110           0
     76610 WT26     90       MECN     N3       NG1T1   -0.460000       14.0070           0
     76611 WT26     93       MECN     C1       CG331   -0.170000       12.0110           0
     76612 WT26     93       MECN     H11      HGA3     0.090000        1.0080           0
     76613 WT26     93       MECN     H12      HGA3     0.090000        1.0080           0
     76614 WT26     93       MECN     H13      HGA3     0.090000        1.0080           0
     76615 WT26     93       MECN     C2       CG1N1    0.360000       12.0110           0
     76616 WT26     93       MECN     N3       NG1T1   -0.460000       14.0070           0
     76617 WT26     95       MECN     C1       CG331   -0.170000       12.0110           0
     76618 WT26     95       MECN     H11      HGA3     0.090000        1.0080           0
     76619 WT26     95       MECN     H12      HGA3     0.090000        1.0080           0
     76620 WT26     95       MECN     H13      HGA3     0.090000        1.0080           0
     76621 WT26     95       MECN     C2       CG1N1    0.360000       12.0110           0
     76622 WT26     95       MECN     N3       NG1T1   -0.460000       14.0070           0
     76623 WT26     97       MECN     C1       CG331   -0.170000       12.0110           0
     76624 WT26     97       MECN     H11      HGA3     0.090000        1.0080           0
     76625 WT26     97       MECN     H12      HGA3     0.090000        1.0080           0
     76626 WT26     97       MECN     H13      HGA3     0.090000        1.0080           0
     76627 WT26     97       MECN     C2       CG1N1    0.360000       12.0110           0
     76628 WT26     97       MECN     N3       NG1T1   -0.460000       14.0070           0
     76629 WT26     99       MECN     C1       CG331   -0.170000       12.0110           0
     76630 WT26     99       MECN     H11      HGA3     0.090000        1.0080           0
     76631 WT26     99       MECN     H12      HGA3     0.090000        1.0080           0
     76632 WT26     99       MECN     H13      HGA3     0.090000        1.0080           0
     76633 WT26     99       MECN     C2       CG1N1    0.360000       12.0110           0
     76634 WT26     99       MECN     N3       NG1T1   -0.460000       14.0070           0
     76635 WT26     104      MECN     C1       CG331   -0.170000       12.0110           0
     76636 WT26     104      MECN     H11      HGA3     0.090000        1.0080           0
     76637 WT26     104      MECN     H12      HGA3     0.090000        1.0080           0
     76638 WT26     104      MECN     H13      HGA3     0.090000        1.0080           0
     76639 WT26     104      MECN     C2       CG1N1    0.360000       12.0110           0
     76640 WT26     104      MECN     N3       NG1T1   -0.460000       14.0070           0
     76641 WT26     107      MECN     C1       CG331   -0.170000       12.0110           0
     76642 WT26     107      MECN     H11      HGA3     0.090000        1.0080           0
     76643 WT26     107      MECN     H12      HGA3     0.090000        1.0080           0
     76644 WT26     107      MECN     H13      HGA3     0.090000        1.0080           0
     76645 WT26     107      MECN     C2       CG1N1    0.360000       12.0110           0
     76646 WT26     107      MECN     N3       NG1T1   -0.460000       14.0070           0
     76647 WT26     114      MECN     C1       CG331   -0.170000       12.0110           0
     76648 WT26     114      MECN     H11      HGA3     0.090000        1.0080           0
     76649 WT26     114      MECN     H12      HGA3     0.090000        1.0080           0
     76650 WT26     114      MECN     H13      HGA3     0.090000        1.0080           0
     76651 WT26     114      MECN     C2       CG1N1    0.360000       12.0110           0
     76652 WT26     114      MECN     N3       NG1T1   -0.460000       14.0070           0
     76653 WT26     117      MECN     C1       CG331   -0.170000       12.0110           0
     76654 WT26     117      MECN     H11      HGA3     0.090000        1.0080           0
     76655 WT26     117      MECN     H12      HGA3     0.090000        1.0080           0
     76656 WT26     117      MECN     H13      HGA3     0.090000        1.0080           0
     76657 WT26     117      MECN     C2       CG1N1    0.360000       12.0110           0
     76658 WT26     117      MECN     N3       NG1T1   -0.460000       14.0070           0
     76659 WT26     119      MECN     C1       CG331   -0.170000       12.0110           0
     76660 WT26     119      MECN     H11      HGA3     0.090000        1.0080           0
     76661 WT26     119      MECN     H12      HGA3     0.090000        1.0080           0
     76662 WT26     119      MECN     H13      HGA3     0.090000        1.0080           0
     76663 WT26     119      MECN     C2       CG1N1    0.360000       12.0110           0
     76664 WT26     119      MECN     N3       NG1T1   -0.460000       14.0070           0
     76665 WT26     126      MECN     C1       CG331   -0.170000       12.0110           0
     76666 WT26     126      MECN     H11      HGA3     0.090000        1.0080           0
     76667 WT26     126      MECN     H12      HGA3     0.090000        1.0080           0
     76668 WT26     126      MECN     H13      HGA3     0.090000        1.0080           0
     76669 WT26     126      MECN     C2       CG1N1    0.360000       12.0110           0
     76670 WT26     126      MECN     N3       NG1T1   -0.460000       14.0070           0
     76671 WT26     128      MECN     C1       CG331   -0.170000       12.0110           0
     76672 WT26     128      MECN     H11      HGA3     0.090000        1.0080           0
     76673 WT26     128      MECN     H12      HGA3     0.090000        1.0080           0
     76674 WT26     128      MECN     H13      HGA3     0.090000        1.0080           0
     76675 WT26     128      MECN     C2       CG1N1    0.360000       12.0110           0
     76676 WT26     128      MECN     N3       NG1T1   -0.460000       14.0070           0
     76677 WT26     130      MECN     C1       CG331   -0.170000       12.0110           0
     76678 WT26     130      MECN     H11      HGA3     0.090000        1.0080           0
     76679 WT26     130      MECN     H12      HGA3     0.090000        1.0080           0
     76680 WT26     130      MECN     H13      HGA3     0.090000        1.0080           0
     76681 WT26     130      MECN     C2       CG1N1    0.360000       12.0110           0
     76682 WT26     130      MECN     N3       NG1T1   -0.460000       14.0070           0
     76683 WT26     131      MECN     C1       CG331   -0.170000       12.0110           0
     76684 WT26     131      MECN     H11      HGA3     0.090000        1.0080           0
     76685 WT26     131      MECN     H12      HGA3     0.090000        1.0080           0
     76686 WT26     131      MECN     H13      HGA3     0.090000        1.0080           0
     76687 WT26     131      MECN     C2       CG1N1    0.360000       12.0110           0
     76688 WT26     131      MECN     N3       NG1T1   -0.460000       14.0070           0
     76689 WT26     133      MECN     C1       CG331   -0.170000       12.0110           0
     76690 WT26     133      MECN     H11      HGA3     0.090000        1.0080           0
     76691 WT26     133      MECN     H12      HGA3     0.090000        1.0080           0
     76692 WT26     133      MECN     H13      HGA3     0.090000        1.0080           0
     76693 WT26     133      MECN     C2       CG1N1    0.360000       12.0110           0
     76694 WT26     133      MECN     N3       NG1T1   -0.460000       14.0070           0
     76695 WT26     134      MECN     C1       CG331   -0.170000       12.0110           0
     76696 WT26     134      MECN     H11      HGA3     0.090000        1.0080           0
     76697 WT26     134      MECN     H12      HGA3     0.090000        1.0080           0
     76698 WT26     134      MECN     H13      HGA3     0.090000        1.0080           0
     76699 WT26     134      MECN     C2       CG1N1    0.360000       12.0110           0
     76700 WT26     134      MECN     N3       NG1T1   -0.460000       14.0070           0
     76701 WT26     136      MECN     C1       CG331   -0.170000       12.0110           0
     76702 WT26     136      MECN     H11      HGA3     0.090000        1.0080           0
     76703 WT26     136      MECN     H12      HGA3     0.090000        1.0080           0
     76704 WT26     136      MECN     H13      HGA3     0.090000        1.0080           0
     76705 WT26     136      MECN     C2       CG1N1    0.360000       12.0110           0
     76706 WT26     136      MECN     N3       NG1T1   -0.460000       14.0070           0
     76707 WT26     137      MECN     C1       CG331   -0.170000       12.0110           0
     76708 WT26     137      MECN     H11      HGA3     0.090000        1.0080           0
     76709 WT26     137      MECN     H12      HGA3     0.090000        1.0080           0
     76710 WT26     137      MECN     H13      HGA3     0.090000        1.0080           0
     76711 WT26     137      MECN     C2       CG1N1    0.360000       12.0110           0
     76712 WT26     137      MECN     N3       NG1T1   -0.460000       14.0070           0
     76713 WT26     141      MECN     C1       CG331   -0.170000       12.0110           0
     76714 WT26     141      MECN     H11      HGA3     0.090000        1.0080           0
     76715 WT26     141      MECN     H12      HGA3     0.090000        1.0080           0
     76716 WT26     141      MECN     H13      HGA3     0.090000        1.0080           0
     76717 WT26     141      MECN     C2       CG1N1    0.360000       12.0110           0
     76718 WT26     141      MECN     N3       NG1T1   -0.460000       14.0070           0
     76719 WT26     142      MECN     C1       CG331   -0.170000       12.0110           0
     76720 WT26     142      MECN     H11      HGA3     0.090000        1.0080           0
     76721 WT26     142      MECN     H12      HGA3     0.090000        1.0080           0
     76722 WT26     142      MECN     H13      HGA3     0.090000        1.0080           0
     76723 WT26     142      MECN     C2       CG1N1    0.360000       12.0110           0
     76724 WT26     142      MECN     N3       NG1T1   -0.460000       14.0070           0
     76725 WT26     144      MECN     C1       CG331   -0.170000       12.0110           0
     76726 WT26     144      MECN     H11      HGA3     0.090000        1.0080           0
     76727 WT26     144      MECN     H12      HGA3     0.090000        1.0080           0
     76728 WT26     144      MECN     H13      HGA3     0.090000        1.0080           0
     76729 WT26     144      MECN     C2       CG1N1    0.360000       12.0110           0
     76730 WT26     144      MECN     N3       NG1T1   -0.460000       14.0070           0
     76731 WT26     146      MECN     C1       CG331   -0.170000       12.0110           0
     76732 WT26     146      MECN     H11      HGA3     0.090000        1.0080           0
     76733 WT26     146      MECN     H12      HGA3     0.090000        1.0080           0
     76734 WT26     146      MECN     H13      HGA3     0.090000        1.0080           0
     76735 WT26     146      MECN     C2       CG1N1    0.360000       12.0110           0
     76736 WT26     146      MECN     N3       NG1T1   -0.460000       14.0070           0
     76737 WT26     147      MECN     C1       CG331   -0.170000       12.0110           0
     76738 WT26     147      MECN     H11      HGA3     0.090000        1.0080           0
     76739 WT26     147      MECN     H12      HGA3     0.090000        1.0080           0
     76740 WT26     147      MECN     H13      HGA3     0.090000        1.0080           0
     76741 WT26     147      MECN     C2       CG1N1    0.360000       12.0110           0
     76742 WT26     147      MECN     N3       NG1T1   -0.460000       14.0070           0
     76743 WT26     148      MECN     C1       CG331   -0.170000       12.0110           0
     76744 WT26     148      MECN     H11      HGA3     0.090000        1.0080           0
     76745 WT26     148      MECN     H12      HGA3     0.090000        1.0080           0
     76746 WT26     148      MECN     H13      HGA3     0.090000        1.0080           0
     76747 WT26     148      MECN     C2       CG1N1    0.360000       12.0110           0
     76748 WT26     148      MECN     N3       NG1T1   -0.460000       14.0070           0
     76749 WT26     149      MECN     C1       CG331   -0.170000       12.0110           0
     76750 WT26     149      MECN     H11      HGA3     0.090000        1.0080           0
     76751 WT26     149      MECN     H12      HGA3     0.090000        1.0080           0
     76752 WT26     149      MECN     H13      HGA3     0.090000        1.0080           0
     76753 WT26     149      MECN     C2       CG1N1    0.360000       12.0110           0
     76754 WT26     149      MECN     N3       NG1T1   -0.460000       14.0070           0
     76755 WT26     150      MECN     C1       CG331   -0.170000       12.0110           0
     76756 WT26     150      MECN     H11      HGA3     0.090000        1.0080           0
     76757 WT26     150      MECN     H12      HGA3     0.090000        1.0080           0
     76758 WT26     150      MECN     H13      HGA3     0.090000        1.0080           0
     76759 WT26     150      MECN     C2       CG1N1    0.360000       12.0110           0
     76760 WT26     150      MECN     N3       NG1T1   -0.460000       14.0070           0
     76761 WT26     152      MECN     C1       CG331   -0.170000       12.0110           0
     76762 WT26     152      MECN     H11      HGA3     0.090000        1.0080           0
     76763 WT26     152      MECN     H12      HGA3     0.090000        1.0080           0
     76764 WT26     152      MECN     H13      HGA3     0.090000        1.0080           0
     76765 WT26     152      MECN     C2       CG1N1    0.360000       12.0110           0
     76766 WT26     152      MECN     N3       NG1T1   -0.460000       14.0070           0
     76767 WT26     153      MECN     C1       CG331   -0.170000       12.0110           0
     76768 WT26     153      MECN     H11      HGA3     0.090000        1.0080           0
     76769 WT26     153      MECN     H12      HGA3     0.090000        1.0080           0
     76770 WT26     153      MECN     H13      HGA3     0.090000        1.0080           0
     76771 WT26     153      MECN     C2       CG1N1    0.360000       12.0110           0
     76772 WT26     153      MECN     N3       NG1T1   -0.460000       14.0070           0
     76773 WT26     154      MECN     C1       CG331   -0.170000       12.0110           0
     76774 WT26     154      MECN     H11      HGA3     0.090000        1.0080           0
     76775 WT26     154      MECN     H12      HGA3     0.090000        1.0080           0
     76776 WT26     154      MECN     H13      HGA3     0.090000        1.0080           0
     76777 WT26     154      MECN     C2       CG1N1    0.360000       12.0110           0
     76778 WT26     154      MECN     N3       NG1T1   -0.460000       14.0070           0
     76779 WT26     155      MECN     C1       CG331   -0.170000       12.0110           0
     76780 WT26     155      MECN     H11      HGA3     0.090000        1.0080           0
     76781 WT26     155      MECN     H12      HGA3     0.090000        1.0080           0
     76782 WT26     155      MECN     H13      HGA3     0.090000        1.0080           0
     76783 WT26     155      MECN     C2       CG1N1    0.360000       12.0110           0
     76784 WT26     155      MECN     N3       NG1T1   -0.460000       14.0070           0
     76785 WT26     157      MECN     C1       CG331   -0.170000       12.0110           0
     76786 WT26     157      MECN     H11      HGA3     0.090000        1.0080           0
     76787 WT26     157      MECN     H12      HGA3     0.090000        1.0080           0
     76788 WT26     157      MECN     H13      HGA3     0.090000        1.0080           0
     76789 WT26     157      MECN     C2       CG1N1    0.360000       12.0110           0
     76790 WT26     157      MECN     N3       NG1T1   -0.460000       14.0070           0
     76791 WT26     158      MECN     C1       CG331   -0.170000       12.0110           0
     76792 WT26     158      MECN     H11      HGA3     0.090000        1.0080           0
     76793 WT26     158      MECN     H12      HGA3     0.090000        1.0080           0
     76794 WT26     158      MECN     H13      HGA3     0.090000        1.0080           0
     76795 WT26     158      MECN     C2       CG1N1    0.360000       12.0110           0
     76796 WT26     158      MECN     N3       NG1T1   -0.460000       14.0070           0
     76797 WT26     162      MECN     C1       CG331   -0.170000       12.0110           0
     76798 WT26     162      MECN     H11      HGA3     0.090000        1.0080           0
     76799 WT26     162      MECN     H12      HGA3     0.090000        1.0080           0
     76800 WT26     162      MECN     H13      HGA3     0.090000        1.0080           0
     76801 WT26     162      MECN     C2       CG1N1    0.360000       12.0110           0
     76802 WT26     162      MECN     N3       NG1T1   -0.460000       14.0070           0
     76803 WT26     163      MECN     C1       CG331   -0.170000       12.0110           0
     76804 WT26     163      MECN     H11      HGA3     0.090000        1.0080           0
     76805 WT26     163      MECN     H12      HGA3     0.090000        1.0080           0
     76806 WT26     163      MECN     H13      HGA3     0.090000        1.0080           0
     76807 WT26     163      MECN     C2       CG1N1    0.360000       12.0110           0
     76808 WT26     163      MECN     N3       NG1T1   -0.460000       14.0070           0
     76809 WT26     165      MECN     C1       CG331   -0.170000       12.0110           0
     76810 WT26     165      MECN     H11      HGA3     0.090000        1.0080           0
     76811 WT26     165      MECN     H12      HGA3     0.090000        1.0080           0
     76812 WT26     165      MECN     H13      HGA3     0.090000        1.0080           0
     76813 WT26     165      MECN     C2       CG1N1    0.360000       12.0110           0
     76814 WT26     165      MECN     N3       NG1T1   -0.460000       14.0070           0
     76815 WT26     166      MECN     C1       CG331   -0.170000       12.0110           0
     76816 WT26     166      MECN     H11      HGA3     0.090000        1.0080           0
     76817 WT26     166      MECN     H12      HGA3     0.090000        1.0080           0
     76818 WT26     166      MECN     H13      HGA3     0.090000        1.0080           0
     76819 WT26     166      MECN     C2       CG1N1    0.360000       12.0110           0
     76820 WT26     166      MECN     N3       NG1T1   -0.460000       14.0070           0
     76821 WT26     167      MECN     C1       CG331   -0.170000       12.0110           0
     76822 WT26     167      MECN     H11      HGA3     0.090000        1.0080           0
     76823 WT26     167      MECN     H12      HGA3     0.090000        1.0080           0
     76824 WT26     167      MECN     H13      HGA3     0.090000        1.0080           0
     76825 WT26     167      MECN     C2       CG1N1    0.360000       12.0110           0
     76826 WT26     167      MECN     N3       NG1T1   -0.460000       14.0070           0
     76827 WT26     168      MECN     C1       CG331   -0.170000       12.0110           0
     76828 WT26     168      MECN     H11      HGA3     0.090000        1.0080           0
     76829 WT26     168      MECN     H12      HGA3     0.090000        1.0080           0
     76830 WT26     168      MECN     H13      HGA3     0.090000        1.0080           0
     76831 WT26     168      MECN     C2       CG1N1    0.360000       12.0110           0
     76832 WT26     168      MECN     N3       NG1T1   -0.460000       14.0070           0
     76833 WT26     178      MECN     C1       CG331   -0.170000       12.0110           0
     76834 WT26     178      MECN     H11      HGA3     0.090000        1.0080           0
     76835 WT26     178      MECN     H12      HGA3     0.090000        1.0080           0
     76836 WT26     178      MECN     H13      HGA3     0.090000        1.0080           0
     76837 WT26     178      MECN     C2       CG1N1    0.360000       12.0110           0
     76838 WT26     178      MECN     N3       NG1T1   -0.460000       14.0070           0
     76839 WT26     179      MECN     C1       CG331   -0.170000       12.0110           0
     76840 WT26     179      MECN     H11      HGA3     0.090000        1.0080           0
     76841 WT26     179      MECN     H12      HGA3     0.090000        1.0080           0
     76842 WT26     179      MECN     H13      HGA3     0.090000        1.0080           0
     76843 WT26     179      MECN     C2       CG1N1    0.360000       12.0110           0
     76844 WT26     179      MECN     N3       NG1T1   -0.460000       14.0070           0
     76845 WT26     181      MECN     C1       CG331   -0.170000       12.0110           0
     76846 WT26     181      MECN     H11      HGA3     0.090000        1.0080           0
     76847 WT26     181      MECN     H12      HGA3     0.090000        1.0080           0
     76848 WT26     181      MECN     H13      HGA3     0.090000        1.0080           0
     76849 WT26     181      MECN     C2       CG1N1    0.360000       12.0110           0
     76850 WT26     181      MECN     N3       NG1T1   -0.460000       14.0070           0
     76851 WT26     186      MECN     C1       CG331   -0.170000       12.0110           0
     76852 WT26     186      MECN     H11      HGA3     0.090000        1.0080           0
     76853 WT26     186      MECN     H12      HGA3     0.090000        1.0080           0
     76854 WT26     186      MECN     H13      HGA3     0.090000        1.0080           0
     76855 WT26     186      MECN     C2       CG1N1    0.360000       12.0110           0
     76856 WT26     186      MECN     N3       NG1T1   -0.460000       14.0070           0
     76857 WT26     189      MECN     C1       CG331   -0.170000       12.0110           0
     76858 WT26     189      MECN     H11      HGA3     0.090000        1.0080           0
     76859 WT26     189      MECN     H12      HGA3     0.090000        1.0080           0
     76860 WT26     189      MECN     H13      HGA3     0.090000        1.0080           0
     76861 WT26     189      MECN     C2       CG1N1    0.360000       12.0110           0
     76862 WT26     189      MECN     N3       NG1T1   -0.460000       14.0070           0
     76863 WT26     192      MECN     C1       CG331   -0.170000       12.0110           0
     76864 WT26     192      MECN     H11      HGA3     0.090000        1.0080           0
     76865 WT26     192      MECN     H12      HGA3     0.090000        1.0080           0
     76866 WT26     192      MECN     H13      HGA3     0.090000        1.0080           0
     76867 WT26     192      MECN     C2       CG1N1    0.360000       12.0110           0
     76868 WT26     192      MECN     N3       NG1T1   -0.460000       14.0070           0
     76869 WT26     194      MECN     C1       CG331   -0.170000       12.0110           0
     76870 WT26     194      MECN     H11      HGA3     0.090000        1.0080           0
     76871 WT26     194      MECN     H12      HGA3     0.090000        1.0080           0
     76872 WT26     194      MECN     H13      HGA3     0.090000        1.0080           0
     76873 WT26     194      MECN     C2       CG1N1    0.360000       12.0110           0
     76874 WT26     194      MECN     N3       NG1T1   -0.460000       14.0070           0
     76875 WT26     196      MECN     C1       CG331   -0.170000       12.0110           0
     76876 WT26     196      MECN     H11      HGA3     0.090000        1.0080           0
     76877 WT26     196      MECN     H12      HGA3     0.090000        1.0080           0
     76878 WT26     196      MECN     H13      HGA3     0.090000        1.0080           0
     76879 WT26     196      MECN     C2       CG1N1    0.360000       12.0110           0
     76880 WT26     196      MECN     N3       NG1T1   -0.460000       14.0070           0
     76881 WT26     198      MECN     C1       CG331   -0.170000       12.0110           0
     76882 WT26     198      MECN     H11      HGA3     0.090000        1.0080           0
     76883 WT26     198      MECN     H12      HGA3     0.090000        1.0080           0
     76884 WT26     198      MECN     H13      HGA3     0.090000        1.0080           0
     76885 WT26     198      MECN     C2       CG1N1    0.360000       12.0110           0
     76886 WT26     198      MECN     N3       NG1T1   -0.460000       14.0070           0
     76887 WT26     199      MECN     C1       CG331   -0.170000       12.0110           0
     76888 WT26     199      MECN     H11      HGA3     0.090000        1.0080           0
     76889 WT26     199      MECN     H12      HGA3     0.090000        1.0080           0
     76890 WT26     199      MECN     H13      HGA3     0.090000        1.0080           0
     76891 WT26     199      MECN     C2       CG1N1    0.360000       12.0110           0
     76892 WT26     199      MECN     N3       NG1T1   -0.460000       14.0070           0
     76893 WT26     202      MECN     C1       CG331   -0.170000       12.0110           0
     76894 WT26     202      MECN     H11      HGA3     0.090000        1.0080           0
     76895 WT26     202      MECN     H12      HGA3     0.090000        1.0080           0
     76896 WT26     202      MECN     H13      HGA3     0.090000        1.0080           0
     76897 WT26     202      MECN     C2       CG1N1    0.360000       12.0110           0
     76898 WT26     202      MECN     N3       NG1T1   -0.460000       14.0070           0
     76899 WT26     203      MECN     C1       CG331   -0.170000       12.0110           0
     76900 WT26     203      MECN     H11      HGA3     0.090000        1.0080           0
     76901 WT26     203      MECN     H12      HGA3     0.090000        1.0080           0
     76902 WT26     203      MECN     H13      HGA3     0.090000        1.0080           0
     76903 WT26     203      MECN     C2       CG1N1    0.360000       12.0110           0
     76904 WT26     203      MECN     N3       NG1T1   -0.460000       14.0070           0
     76905 WT26     204      MECN     C1       CG331   -0.170000       12.0110           0
     76906 WT26     204      MECN     H11      HGA3     0.090000        1.0080           0
     76907 WT26     204      MECN     H12      HGA3     0.090000        1.0080           0
     76908 WT26     204      MECN     H13      HGA3     0.090000        1.0080           0
     76909 WT26     204      MECN     C2       CG1N1    0.360000       12.0110           0
     76910 WT26     204      MECN     N3       NG1T1   -0.460000       14.0070           0
     76911 WT26     205      MECN     C1       CG331   -0.170000       12.0110           0
     76912 WT26     205      MECN     H11      HGA3     0.090000        1.0080           0
     76913 WT26     205      MECN     H12      HGA3     0.090000        1.0080           0
     76914 WT26     205      MECN     H13      HGA3     0.090000        1.0080           0
     76915 WT26     205      MECN     C2       CG1N1    0.360000       12.0110           0
     76916 WT26     205      MECN     N3       NG1T1   -0.460000       14.0070           0
     76917 WT26     207      MECN     C1       CG331   -0.170000       12.0110           0
     76918 WT26     207      MECN     H11      HGA3     0.090000        1.0080           0
     76919 WT26     207      MECN     H12      HGA3     0.090000        1.0080           0
     76920 WT26     207      MECN     H13      HGA3     0.090000        1.0080           0
     76921 WT26     207      MECN     C2       CG1N1    0.360000       12.0110           0
     76922 WT26     207      MECN     N3       NG1T1   -0.460000       14.0070           0
     76923 WT26     208      MECN     C1       CG331   -0.170000       12.0110           0
     76924 WT26     208      MECN     H11      HGA3     0.090000        1.0080           0
     76925 WT26     208      MECN     H12      HGA3     0.090000        1.0080           0
     76926 WT26     208      MECN     H13      HGA3     0.090000        1.0080           0
     76927 WT26     208      MECN     C2       CG1N1    0.360000       12.0110           0
     76928 WT26     208      MECN     N3       NG1T1   -0.460000       14.0070           0
     76929 WT26     209      MECN     C1       CG331   -0.170000       12.0110           0
     76930 WT26     209      MECN     H11      HGA3     0.090000        1.0080           0
     76931 WT26     209      MECN     H12      HGA3     0.090000        1.0080           0
     76932 WT26     209      MECN     H13      HGA3     0.090000        1.0080           0
     76933 WT26     209      MECN     C2       CG1N1    0.360000       12.0110           0
     76934 WT26     209      MECN     N3       NG1T1   -0.460000       14.0070           0
     76935 WT26     210      MECN     C1       CG331   -0.170000       12.0110           0
     76936 WT26     210      MECN     H11      HGA3     0.090000        1.0080           0
     76937 WT26     210      MECN     H12      HGA3     0.090000        1.0080           0
     76938 WT26     210      MECN     H13      HGA3     0.090000        1.0080           0
     76939 WT26     210      MECN     C2       CG1N1    0.360000       12.0110           0
     76940 WT26     210      MECN     N3       NG1T1   -0.460000       14.0070           0
     76941 WT26     217      MECN     C1       CG331   -0.170000       12.0110           0
     76942 WT26     217      MECN     H11      HGA3     0.090000        1.0080           0
     76943 WT26     217      MECN     H12      HGA3     0.090000        1.0080           0
     76944 WT26     217      MECN     H13      HGA3     0.090000        1.0080           0
     76945 WT26     217      MECN     C2       CG1N1    0.360000       12.0110           0
     76946 WT26     217      MECN     N3       NG1T1   -0.460000       14.0070           0
     76947 WT26     218      MECN     C1       CG331   -0.170000       12.0110           0
     76948 WT26     218      MECN     H11      HGA3     0.090000        1.0080           0
     76949 WT26     218      MECN     H12      HGA3     0.090000        1.0080           0
     76950 WT26     218      MECN     H13      HGA3     0.090000        1.0080           0
     76951 WT26     218      MECN     C2       CG1N1    0.360000       12.0110           0
     76952 WT26     218      MECN     N3       NG1T1   -0.460000       14.0070           0
     76953 WT26     219      MECN     C1       CG331   -0.170000       12.0110           0
     76954 WT26     219      MECN     H11      HGA3     0.090000        1.0080           0
     76955 WT26     219      MECN     H12      HGA3     0.090000        1.0080           0
     76956 WT26     219      MECN     H13      HGA3     0.090000        1.0080           0
     76957 WT26     219      MECN     C2       CG1N1    0.360000       12.0110           0
     76958 WT26     219      MECN     N3       NG1T1   -0.460000       14.0070           0
     76959 WT26     221      MECN     C1       CG331   -0.170000       12.0110           0
     76960 WT26     221      MECN     H11      HGA3     0.090000        1.0080           0
     76961 WT26     221      MECN     H12      HGA3     0.090000        1.0080           0
     76962 WT26     221      MECN     H13      HGA3     0.090000        1.0080           0
     76963 WT26     221      MECN     C2       CG1N1    0.360000       12.0110           0
     76964 WT26     221      MECN     N3       NG1T1   -0.460000       14.0070           0
     76965 WT26     223      MECN     C1       CG331   -0.170000       12.0110           0
     76966 WT26     223      MECN     H11      HGA3     0.090000        1.0080           0
     76967 WT26     223      MECN     H12      HGA3     0.090000        1.0080           0
     76968 WT26     223      MECN     H13      HGA3     0.090000        1.0080           0
     76969 WT26     223      MECN     C2       CG1N1    0.360000       12.0110           0
     76970 WT26     223      MECN     N3       NG1T1   -0.460000       14.0070           0
     76971 WT26     230      MECN     C1       CG331   -0.170000       12.0110           0
     76972 WT26     230      MECN     H11      HGA3     0.090000        1.0080           0
     76973 WT26     230      MECN     H12      HGA3     0.090000        1.0080           0
     76974 WT26     230      MECN     H13      HGA3     0.090000        1.0080           0
     76975 WT26     230      MECN     C2       CG1N1    0.360000       12.0110           0
     76976 WT26     230      MECN     N3       NG1T1   -0.460000       14.0070           0
     76977 WT26     232      MECN     C1       CG331   -0.170000       12.0110           0
     76978 WT26     232      MECN     H11      HGA3     0.090000        1.0080           0
     76979 WT26     232      MECN     H12      HGA3     0.090000        1.0080           0
     76980 WT26     232      MECN     H13      HGA3     0.090000        1.0080           0
     76981 WT26     232      MECN     C2       CG1N1    0.360000       12.0110           0
     76982 WT26     232      MECN     N3       NG1T1   -0.460000       14.0070           0
     76983 WT26     235      MECN     C1       CG331   -0.170000       12.0110           0
     76984 WT26     235      MECN     H11      HGA3     0.090000        1.0080           0
     76985 WT26     235      MECN     H12      HGA3     0.090000        1.0080           0
     76986 WT26     235      MECN     H13      HGA3     0.090000        1.0080           0
     76987 WT26     235      MECN     C2       CG1N1    0.360000       12.0110           0
     76988 WT26     235      MECN     N3       NG1T1   -0.460000       14.0070           0
     76989 WT26     239      MECN     C1       CG331   -0.170000       12.0110           0
     76990 WT26     239      MECN     H11      HGA3     0.090000        1.0080           0
     76991 WT26     239      MECN     H12      HGA3     0.090000        1.0080           0
     76992 WT26     239      MECN     H13      HGA3     0.090000        1.0080           0
     76993 WT26     239      MECN     C2       CG1N1    0.360000       12.0110           0
     76994 WT26     239      MECN     N3       NG1T1   -0.460000       14.0070           0
     76995 WT26     241      MECN     C1       CG331   -0.170000       12.0110           0
     76996 WT26     241      MECN     H11      HGA3     0.090000        1.0080           0
     76997 WT26     241      MECN     H12      HGA3     0.090000        1.0080           0
     76998 WT26     241      MECN     H13      HGA3     0.090000        1.0080           0
     76999 WT26     241      MECN     C2       CG1N1    0.360000       12.0110           0
     77000 WT26     241      MECN     N3       NG1T1   -0.460000       14.0070           0
     77001 WT26     243      MECN     C1       CG331   -0.170000       12.0110           0
     77002 WT26     243      MECN     H11      HGA3     0.090000        1.0080           0
     77003 WT26     243      MECN     H12      HGA3     0.090000        1.0080           0
     77004 WT26     243      MECN     H13      HGA3     0.090000        1.0080           0
     77005 WT26     243      MECN     C2       CG1N1    0.360000       12.0110           0
     77006 WT26     243      MECN     N3       NG1T1   -0.460000       14.0070           0
     77007 WT26     244      MECN     C1       CG331   -0.170000       12.0110           0
     77008 WT26     244      MECN     H11      HGA3     0.090000        1.0080           0
     77009 WT26     244      MECN     H12      HGA3     0.090000        1.0080           0
     77010 WT26     244      MECN     H13      HGA3     0.090000        1.0080           0
     77011 WT26     244      MECN     C2       CG1N1    0.360000       12.0110           0
     77012 WT26     244      MECN     N3       NG1T1   -0.460000       14.0070           0
     77013 WT26     246      MECN     C1       CG331   -0.170000       12.0110           0
     77014 WT26     246      MECN     H11      HGA3     0.090000        1.0080           0
     77015 WT26     246      MECN     H12      HGA3     0.090000        1.0080           0
     77016 WT26     246      MECN     H13      HGA3     0.090000        1.0080           0
     77017 WT26     246      MECN     C2       CG1N1    0.360000       12.0110           0
     77018 WT26     246      MECN     N3       NG1T1   -0.460000       14.0070           0
     77019 WT26     247      MECN     C1       CG331   -0.170000       12.0110           0
     77020 WT26     247      MECN     H11      HGA3     0.090000        1.0080           0
     77021 WT26     247      MECN     H12      HGA3     0.090000        1.0080           0
     77022 WT26     247      MECN     H13      HGA3     0.090000        1.0080           0
     77023 WT26     247      MECN     C2       CG1N1    0.360000       12.0110           0
     77024 WT26     247      MECN     N3       NG1T1   -0.460000       14.0070           0
     77025 WT26     249      MECN     C1       CG331   -0.170000       12.0110           0
     77026 WT26     249      MECN     H11      HGA3     0.090000        1.0080           0
     77027 WT26     249      MECN     H12      HGA3     0.090000        1.0080           0
     77028 WT26     249      MECN     H13      HGA3     0.090000        1.0080           0
     77029 WT26     249      MECN     C2       CG1N1    0.360000       12.0110           0
     77030 WT26     249      MECN     N3       NG1T1   -0.460000       14.0070           0
     77031 WT26     250      MECN     C1       CG331   -0.170000       12.0110           0
     77032 WT26     250      MECN     H11      HGA3     0.090000        1.0080           0
     77033 WT26     250      MECN     H12      HGA3     0.090000        1.0080           0
     77034 WT26     250      MECN     H13      HGA3     0.090000        1.0080           0
     77035 WT26     250      MECN     C2       CG1N1    0.360000       12.0110           0
     77036 WT26     250      MECN     N3       NG1T1   -0.460000       14.0070           0
     77037 WT26     252      MECN     C1       CG331   -0.170000       12.0110           0
     77038 WT26     252      MECN     H11      HGA3     0.090000        1.0080           0
     77039 WT26     252      MECN     H12      HGA3     0.090000        1.0080           0
     77040 WT26     252      MECN     H13      HGA3     0.090000        1.0080           0
     77041 WT26     252      MECN     C2       CG1N1    0.360000       12.0110           0
     77042 WT26     252      MECN     N3       NG1T1   -0.460000       14.0070           0
     77043 WT26     253      MECN     C1       CG331   -0.170000       12.0110           0
     77044 WT26     253      MECN     H11      HGA3     0.090000        1.0080           0
     77045 WT26     253      MECN     H12      HGA3     0.090000        1.0080           0
     77046 WT26     253      MECN     H13      HGA3     0.090000        1.0080           0
     77047 WT26     253      MECN     C2       CG1N1    0.360000       12.0110           0
     77048 WT26     253      MECN     N3       NG1T1   -0.460000       14.0070           0
     77049 WT26     254      MECN     C1       CG331   -0.170000       12.0110           0
     77050 WT26     254      MECN     H11      HGA3     0.090000        1.0080           0
     77051 WT26     254      MECN     H12      HGA3     0.090000        1.0080           0
     77052 WT26     254      MECN     H13      HGA3     0.090000        1.0080           0
     77053 WT26     254      MECN     C2       CG1N1    0.360000       12.0110           0
     77054 WT26     254      MECN     N3       NG1T1   -0.460000       14.0070           0
     77055 WT26     256      MECN     C1       CG331   -0.170000       12.0110           0
     77056 WT26     256      MECN     H11      HGA3     0.090000        1.0080           0
     77057 WT26     256      MECN     H12      HGA3     0.090000        1.0080           0
     77058 WT26     256      MECN     H13      HGA3     0.090000        1.0080           0
     77059 WT26     256      MECN     C2       CG1N1    0.360000       12.0110           0
     77060 WT26     256      MECN     N3       NG1T1   -0.460000       14.0070           0
     77061 WT26     258      MECN     C1       CG331   -0.170000       12.0110           0
     77062 WT26     258      MECN     H11      HGA3     0.090000        1.0080           0
     77063 WT26     258      MECN     H12      HGA3     0.090000        1.0080           0
     77064 WT26     258      MECN     H13      HGA3     0.090000        1.0080           0
     77065 WT26     258      MECN     C2       CG1N1    0.360000       12.0110           0
     77066 WT26     258      MECN     N3       NG1T1   -0.460000       14.0070           0
     77067 WT26     260      MECN     C1       CG331   -0.170000       12.0110           0
     77068 WT26     260      MECN     H11      HGA3     0.090000        1.0080           0
     77069 WT26     260      MECN     H12      HGA3     0.090000        1.0080           0
     77070 WT26     260      MECN     H13      HGA3     0.090000        1.0080           0
     77071 WT26     260      MECN     C2       CG1N1    0.360000       12.0110           0
     77072 WT26     260      MECN     N3       NG1T1   -0.460000       14.0070           0
     77073 WT26     263      MECN     C1       CG331   -0.170000       12.0110           0
     77074 WT26     263      MECN     H11      HGA3     0.090000        1.0080           0
     77075 WT26     263      MECN     H12      HGA3     0.090000        1.0080           0
     77076 WT26     263      MECN     H13      HGA3     0.090000        1.0080           0
     77077 WT26     263      MECN     C2       CG1N1    0.360000       12.0110           0
     77078 WT26     263      MECN     N3       NG1T1   -0.460000       14.0070           0
     77079 WT26     264      MECN     C1       CG331   -0.170000       12.0110           0
     77080 WT26     264      MECN     H11      HGA3     0.090000        1.0080           0
     77081 WT26     264      MECN     H12      HGA3     0.090000        1.0080           0
     77082 WT26     264      MECN     H13      HGA3     0.090000        1.0080           0
     77083 WT26     264      MECN     C2       CG1N1    0.360000       12.0110           0
     77084 WT26     264      MECN     N3       NG1T1   -0.460000       14.0070           0
     77085 WT26     265      MECN     C1       CG331   -0.170000       12.0110           0
     77086 WT26     265      MECN     H11      HGA3     0.090000        1.0080           0
     77087 WT26     265      MECN     H12      HGA3     0.090000        1.0080           0
     77088 WT26     265      MECN     H13      HGA3     0.090000        1.0080           0
     77089 WT26     265      MECN     C2       CG1N1    0.360000       12.0110           0
     77090 WT26     265      MECN     N3       NG1T1   -0.460000       14.0070           0
     77091 WT26     266      MECN     C1       CG331   -0.170000       12.0110           0
     77092 WT26     266      MECN     H11      HGA3     0.090000        1.0080           0
     77093 WT26     266      MECN     H12      HGA3     0.090000        1.0080           0
     77094 WT26     266      MECN     H13      HGA3     0.090000        1.0080           0
     77095 WT26     266      MECN     C2       CG1N1    0.360000       12.0110           0
     77096 WT26     266      MECN     N3       NG1T1   -0.460000       14.0070           0
     77097 WT26     269      MECN     C1       CG331   -0.170000       12.0110           0
     77098 WT26     269      MECN     H11      HGA3     0.090000        1.0080           0
     77099 WT26     269      MECN     H12      HGA3     0.090000        1.0080           0
     77100 WT26     269      MECN     H13      HGA3     0.090000        1.0080           0
     77101 WT26     269      MECN     C2       CG1N1    0.360000       12.0110           0
     77102 WT26     269      MECN     N3       NG1T1   -0.460000       14.0070           0
     77103 WT26     271      MECN     C1       CG331   -0.170000       12.0110           0
     77104 WT26     271      MECN     H11      HGA3     0.090000        1.0080           0
     77105 WT26     271      MECN     H12      HGA3     0.090000        1.0080           0
     77106 WT26     271      MECN     H13      HGA3     0.090000        1.0080           0
     77107 WT26     271      MECN     C2       CG1N1    0.360000       12.0110           0
     77108 WT26     271      MECN     N3       NG1T1   -0.460000       14.0070           0
     77109 WT26     272      MECN     C1       CG331   -0.170000       12.0110           0
     77110 WT26     272      MECN     H11      HGA3     0.090000        1.0080           0
     77111 WT26     272      MECN     H12      HGA3     0.090000        1.0080           0
     77112 WT26     272      MECN     H13      HGA3     0.090000        1.0080           0
     77113 WT26     272      MECN     C2       CG1N1    0.360000       12.0110           0
     77114 WT26     272      MECN     N3       NG1T1   -0.460000       14.0070           0
     77115 WT26     275      MECN     C1       CG331   -0.170000       12.0110           0
     77116 WT26     275      MECN     H11      HGA3     0.090000        1.0080           0
     77117 WT26     275      MECN     H12      HGA3     0.090000        1.0080           0
     77118 WT26     275      MECN     H13      HGA3     0.090000        1.0080           0
     77119 WT26     275      MECN     C2       CG1N1    0.360000       12.0110           0
     77120 WT26     275      MECN     N3       NG1T1   -0.460000       14.0070           0
     77121 WT26     276      MECN     C1       CG331   -0.170000       12.0110           0
     77122 WT26     276      MECN     H11      HGA3     0.090000        1.0080           0
     77123 WT26     276      MECN     H12      HGA3     0.090000        1.0080           0
     77124 WT26     276      MECN     H13      HGA3     0.090000        1.0080           0
     77125 WT26     276      MECN     C2       CG1N1    0.360000       12.0110           0
     77126 WT26     276      MECN     N3       NG1T1   -0.460000       14.0070           0
     77127 WT26     278      MECN     C1       CG331   -0.170000       12.0110           0
     77128 WT26     278      MECN     H11      HGA3     0.090000        1.0080           0
     77129 WT26     278      MECN     H12      HGA3     0.090000        1.0080           0
     77130 WT26     278      MECN     H13      HGA3     0.090000        1.0080           0
     77131 WT26     278      MECN     C2       CG1N1    0.360000       12.0110           0
     77132 WT26     278      MECN     N3       NG1T1   -0.460000       14.0070           0
     77133 WT26     281      MECN     C1       CG331   -0.170000       12.0110           0
     77134 WT26     281      MECN     H11      HGA3     0.090000        1.0080           0
     77135 WT26     281      MECN     H12      HGA3     0.090000        1.0080           0
     77136 WT26     281      MECN     H13      HGA3     0.090000        1.0080           0
     77137 WT26     281      MECN     C2       CG1N1    0.360000       12.0110           0
     77138 WT26     281      MECN     N3       NG1T1   -0.460000       14.0070           0
     77139 WT26     283      MECN     C1       CG331   -0.170000       12.0110           0
     77140 WT26     283      MECN     H11      HGA3     0.090000        1.0080           0
     77141 WT26     283      MECN     H12      HGA3     0.090000        1.0080           0
     77142 WT26     283      MECN     H13      HGA3     0.090000        1.0080           0
     77143 WT26     283      MECN     C2       CG1N1    0.360000       12.0110           0
     77144 WT26     283      MECN     N3       NG1T1   -0.460000       14.0070           0
     77145 WT26     284      MECN     C1       CG331   -0.170000       12.0110           0
     77146 WT26     284      MECN     H11      HGA3     0.090000        1.0080           0
     77147 WT26     284      MECN     H12      HGA3     0.090000        1.0080           0
     77148 WT26     284      MECN     H13      HGA3     0.090000        1.0080           0
     77149 WT26     284      MECN     C2       CG1N1    0.360000       12.0110           0
     77150 WT26     284      MECN     N3       NG1T1   -0.460000       14.0070           0
     77151 WT26     290      MECN     C1       CG331   -0.170000       12.0110           0
     77152 WT26     290      MECN     H11      HGA3     0.090000        1.0080           0
     77153 WT26     290      MECN     H12      HGA3     0.090000        1.0080           0
     77154 WT26     290      MECN     H13      HGA3     0.090000        1.0080           0
     77155 WT26     290      MECN     C2       CG1N1    0.360000       12.0110           0
     77156 WT26     290      MECN     N3       NG1T1   -0.460000       14.0070           0
     77157 WT26     297      MECN     C1       CG331   -0.170000       12.0110           0
     77158 WT26     297      MECN     H11      HGA3     0.090000        1.0080           0
     77159 WT26     297      MECN     H12      HGA3     0.090000        1.0080           0
     77160 WT26     297      MECN     H13      HGA3     0.090000        1.0080           0
     77161 WT26     297      MECN     C2       CG1N1    0.360000       12.0110           0
     77162 WT26     297      MECN     N3       NG1T1   -0.460000       14.0070           0
     77163 WT26     300      MECN     C1       CG331   -0.170000       12.0110           0
     77164 WT26     300      MECN     H11      HGA3     0.090000        1.0080           0
     77165 WT26     300      MECN     H12      HGA3     0.090000        1.0080           0
     77166 WT26     300      MECN     H13      HGA3     0.090000        1.0080           0
     77167 WT26     300      MECN     C2       CG1N1    0.360000       12.0110           0
     77168 WT26     300      MECN     N3       NG1T1   -0.460000       14.0070           0
     77169 WT26     301      MECN     C1       CG331   -0.170000       12.0110           0
     77170 WT26     301      MECN     H11      HGA3     0.090000        1.0080           0
     77171 WT26     301      MECN     H12      HGA3     0.090000        1.0080           0
     77172 WT26     301      MECN     H13      HGA3     0.090000        1.0080           0
     77173 WT26     301      MECN     C2       CG1N1    0.360000       12.0110           0
     77174 WT26     301      MECN     N3       NG1T1   -0.460000       14.0070           0
     77175 WT26     303      MECN     C1       CG331   -0.170000       12.0110           0
     77176 WT26     303      MECN     H11      HGA3     0.090000        1.0080           0
     77177 WT26     303      MECN     H12      HGA3     0.090000        1.0080           0
     77178 WT26     303      MECN     H13      HGA3     0.090000        1.0080           0
     77179 WT26     303      MECN     C2       CG1N1    0.360000       12.0110           0
     77180 WT26     303      MECN     N3       NG1T1   -0.460000       14.0070           0
     77181 WT26     304      MECN     C1       CG331   -0.170000       12.0110           0
     77182 WT26     304      MECN     H11      HGA3     0.090000        1.0080           0
     77183 WT26     304      MECN     H12      HGA3     0.090000        1.0080           0
     77184 WT26     304      MECN     H13      HGA3     0.090000        1.0080           0
     77185 WT26     304      MECN     C2       CG1N1    0.360000       12.0110           0
     77186 WT26     304      MECN     N3       NG1T1   -0.460000       14.0070           0
     77187 WT26     305      MECN     C1       CG331   -0.170000       12.0110           0
     77188 WT26     305      MECN     H11      HGA3     0.090000        1.0080           0
     77189 WT26     305      MECN     H12      HGA3     0.090000        1.0080           0
     77190 WT26     305      MECN     H13      HGA3     0.090000        1.0080           0
     77191 WT26     305      MECN     C2       CG1N1    0.360000       12.0110           0
     77192 WT26     305      MECN     N3       NG1T1   -0.460000       14.0070           0
     77193 WT26     307      MECN     C1       CG331   -0.170000       12.0110           0
     77194 WT26     307      MECN     H11      HGA3     0.090000        1.0080           0
     77195 WT26     307      MECN     H12      HGA3     0.090000        1.0080           0
     77196 WT26     307      MECN     H13      HGA3     0.090000        1.0080           0
     77197 WT26     307      MECN     C2       CG1N1    0.360000       12.0110           0
     77198 WT26     307      MECN     N3       NG1T1   -0.460000       14.0070           0
     77199 WT26     309      MECN     C1       CG331   -0.170000       12.0110           0
     77200 WT26     309      MECN     H11      HGA3     0.090000        1.0080           0
     77201 WT26     309      MECN     H12      HGA3     0.090000        1.0080           0
     77202 WT26     309      MECN     H13      HGA3     0.090000        1.0080           0
     77203 WT26     309      MECN     C2       CG1N1    0.360000       12.0110           0
     77204 WT26     309      MECN     N3       NG1T1   -0.460000       14.0070           0
     77205 WT26     311      MECN     C1       CG331   -0.170000       12.0110           0
     77206 WT26     311      MECN     H11      HGA3     0.090000        1.0080           0
     77207 WT26     311      MECN     H12      HGA3     0.090000        1.0080           0
     77208 WT26     311      MECN     H13      HGA3     0.090000        1.0080           0
     77209 WT26     311      MECN     C2       CG1N1    0.360000       12.0110           0
     77210 WT26     311      MECN     N3       NG1T1   -0.460000       14.0070           0
     77211 WT26     312      MECN     C1       CG331   -0.170000       12.0110           0
     77212 WT26     312      MECN     H11      HGA3     0.090000        1.0080           0
     77213 WT26     312      MECN     H12      HGA3     0.090000        1.0080           0
     77214 WT26     312      MECN     H13      HGA3     0.090000        1.0080           0
     77215 WT26     312      MECN     C2       CG1N1    0.360000       12.0110           0
     77216 WT26     312      MECN     N3       NG1T1   -0.460000       14.0070           0
     77217 WT26     313      MECN     C1       CG331   -0.170000       12.0110           0
     77218 WT26     313      MECN     H11      HGA3     0.090000        1.0080           0
     77219 WT26     313      MECN     H12      HGA3     0.090000        1.0080           0
     77220 WT26     313      MECN     H13      HGA3     0.090000        1.0080           0
     77221 WT26     313      MECN     C2       CG1N1    0.360000       12.0110           0
     77222 WT26     313      MECN     N3       NG1T1   -0.460000       14.0070           0
     77223 WT26     314      MECN     C1       CG331   -0.170000       12.0110           0
     77224 WT26     314      MECN     H11      HGA3     0.090000        1.0080           0
     77225 WT26     314      MECN     H12      HGA3     0.090000        1.0080           0
     77226 WT26     314      MECN     H13      HGA3     0.090000        1.0080           0
     77227 WT26     314      MECN     C2       CG1N1    0.360000       12.0110           0
     77228 WT26     314      MECN     N3       NG1T1   -0.460000       14.0070           0
     77229 WT26     315      MECN     C1       CG331   -0.170000       12.0110           0
     77230 WT26     315      MECN     H11      HGA3     0.090000        1.0080           0
     77231 WT26     315      MECN     H12      HGA3     0.090000        1.0080           0
     77232 WT26     315      MECN     H13      HGA3     0.090000        1.0080           0
     77233 WT26     315      MECN     C2       CG1N1    0.360000       12.0110           0
     77234 WT26     315      MECN     N3       NG1T1   -0.460000       14.0070           0
     77235 WT26     320      MECN     C1       CG331   -0.170000       12.0110           0
     77236 WT26     320      MECN     H11      HGA3     0.090000        1.0080           0
     77237 WT26     320      MECN     H12      HGA3     0.090000        1.0080           0
     77238 WT26     320      MECN     H13      HGA3     0.090000        1.0080           0
     77239 WT26     320      MECN     C2       CG1N1    0.360000       12.0110           0
     77240 WT26     320      MECN     N3       NG1T1   -0.460000       14.0070           0
     77241 WT26     325      MECN     C1       CG331   -0.170000       12.0110           0
     77242 WT26     325      MECN     H11      HGA3     0.090000        1.0080           0
     77243 WT26     325      MECN     H12      HGA3     0.090000        1.0080           0
     77244 WT26     325      MECN     H13      HGA3     0.090000        1.0080           0
     77245 WT26     325      MECN     C2       CG1N1    0.360000       12.0110           0
     77246 WT26     325      MECN     N3       NG1T1   -0.460000       14.0070           0
     77247 WT26     329      MECN     C1       CG331   -0.170000       12.0110           0
     77248 WT26     329      MECN     H11      HGA3     0.090000        1.0080           0
     77249 WT26     329      MECN     H12      HGA3     0.090000        1.0080           0
     77250 WT26     329      MECN     H13      HGA3     0.090000        1.0080           0
     77251 WT26     329      MECN     C2       CG1N1    0.360000       12.0110           0
     77252 WT26     329      MECN     N3       NG1T1   -0.460000       14.0070           0
     77253 WT26     330      MECN     C1       CG331   -0.170000       12.0110           0
     77254 WT26     330      MECN     H11      HGA3     0.090000        1.0080           0
     77255 WT26     330      MECN     H12      HGA3     0.090000        1.0080           0
     77256 WT26     330      MECN     H13      HGA3     0.090000        1.0080           0
     77257 WT26     330      MECN     C2       CG1N1    0.360000       12.0110           0
     77258 WT26     330      MECN     N3       NG1T1   -0.460000       14.0070           0
     77259 WT26     331      MECN     C1       CG331   -0.170000       12.0110           0
     77260 WT26     331      MECN     H11      HGA3     0.090000        1.0080           0
     77261 WT26     331      MECN     H12      HGA3     0.090000        1.0080           0
     77262 WT26     331      MECN     H13      HGA3     0.090000        1.0080           0
     77263 WT26     331      MECN     C2       CG1N1    0.360000       12.0110           0
     77264 WT26     331      MECN     N3       NG1T1   -0.460000       14.0070           0
     77265 WT26     332      MECN     C1       CG331   -0.170000       12.0110           0
     77266 WT26     332      MECN     H11      HGA3     0.090000        1.0080           0
     77267 WT26     332      MECN     H12      HGA3     0.090000        1.0080           0
     77268 WT26     332      MECN     H13      HGA3     0.090000        1.0080           0
     77269 WT26     332      MECN     C2       CG1N1    0.360000       12.0110           0
     77270 WT26     332      MECN     N3       NG1T1   -0.460000       14.0070           0
     77271 WT26     334      MECN     C1       CG331   -0.170000       12.0110           0
     77272 WT26     334      MECN     H11      HGA3     0.090000        1.0080           0
     77273 WT26     334      MECN     H12      HGA3     0.090000        1.0080           0
     77274 WT26     334      MECN     H13      HGA3     0.090000        1.0080           0
     77275 WT26     334      MECN     C2       CG1N1    0.360000       12.0110           0
     77276 WT26     334      MECN     N3       NG1T1   -0.460000       14.0070           0
     77277 WT26     335      MECN     C1       CG331   -0.170000       12.0110           0
     77278 WT26     335      MECN     H11      HGA3     0.090000        1.0080           0
     77279 WT26     335      MECN     H12      HGA3     0.090000        1.0080           0
     77280 WT26     335      MECN     H13      HGA3     0.090000        1.0080           0
     77281 WT26     335      MECN     C2       CG1N1    0.360000       12.0110           0
     77282 WT26     335      MECN     N3       NG1T1   -0.460000       14.0070           0
     77283 WT26     336      MECN     C1       CG331   -0.170000       12.0110           0
     77284 WT26     336      MECN     H11      HGA3     0.090000        1.0080           0
     77285 WT26     336      MECN     H12      HGA3     0.090000        1.0080           0
     77286 WT26     336      MECN     H13      HGA3     0.090000        1.0080           0
     77287 WT26     336      MECN     C2       CG1N1    0.360000       12.0110           0
     77288 WT26     336      MECN     N3       NG1T1   -0.460000       14.0070           0
     77289 WT26     339      MECN     C1       CG331   -0.170000       12.0110           0
     77290 WT26     339      MECN     H11      HGA3     0.090000        1.0080           0
     77291 WT26     339      MECN     H12      HGA3     0.090000        1.0080           0
     77292 WT26     339      MECN     H13      HGA3     0.090000        1.0080           0
     77293 WT26     339      MECN     C2       CG1N1    0.360000       12.0110           0
     77294 WT26     339      MECN     N3       NG1T1   -0.460000       14.0070           0
     77295 WT26     343      MECN     C1       CG331   -0.170000       12.0110           0
     77296 WT26     343      MECN     H11      HGA3     0.090000        1.0080           0
     77297 WT26     343      MECN     H12      HGA3     0.090000        1.0080           0
     77298 WT26     343      MECN     H13      HGA3     0.090000        1.0080           0
     77299 WT26     343      MECN     C2       CG1N1    0.360000       12.0110           0
     77300 WT26     343      MECN     N3       NG1T1   -0.460000       14.0070           0
     77301 WT26     344      MECN     C1       CG331   -0.170000       12.0110           0
     77302 WT26     344      MECN     H11      HGA3     0.090000        1.0080           0
     77303 WT26     344      MECN     H12      HGA3     0.090000        1.0080           0
     77304 WT26     344      MECN     H13      HGA3     0.090000        1.0080           0
     77305 WT26     344      MECN     C2       CG1N1    0.360000       12.0110           0
     77306 WT26     344      MECN     N3       NG1T1   -0.460000       14.0070           0
     77307 WT26     345      MECN     C1       CG331   -0.170000       12.0110           0
     77308 WT26     345      MECN     H11      HGA3     0.090000        1.0080           0
     77309 WT26     345      MECN     H12      HGA3     0.090000        1.0080           0
     77310 WT26     345      MECN     H13      HGA3     0.090000        1.0080           0
     77311 WT26     345      MECN     C2       CG1N1    0.360000       12.0110           0
     77312 WT26     345      MECN     N3       NG1T1   -0.460000       14.0070           0
     77313 WT26     347      MECN     C1       CG331   -0.170000       12.0110           0
     77314 WT26     347      MECN     H11      HGA3     0.090000        1.0080           0
     77315 WT26     347      MECN     H12      HGA3     0.090000        1.0080           0
     77316 WT26     347      MECN     H13      HGA3     0.090000        1.0080           0
     77317 WT26     347      MECN     C2       CG1N1    0.360000       12.0110           0
     77318 WT26     347      MECN     N3       NG1T1   -0.460000       14.0070           0
     77319 WT26     350      MECN     C1       CG331   -0.170000       12.0110           0
     77320 WT26     350      MECN     H11      HGA3     0.090000        1.0080           0
     77321 WT26     350      MECN     H12      HGA3     0.090000        1.0080           0
     77322 WT26     350      MECN     H13      HGA3     0.090000        1.0080           0
     77323 WT26     350      MECN     C2       CG1N1    0.360000       12.0110           0
     77324 WT26     350      MECN     N3       NG1T1   -0.460000       14.0070           0
     77325 WT26     353      MECN     C1       CG331   -0.170000       12.0110           0
     77326 WT26     353      MECN     H11      HGA3     0.090000        1.0080           0
     77327 WT26     353      MECN     H12      HGA3     0.090000        1.0080           0
     77328 WT26     353      MECN     H13      HGA3     0.090000        1.0080           0
     77329 WT26     353      MECN     C2       CG1N1    0.360000       12.0110           0
     77330 WT26     353      MECN     N3       NG1T1   -0.460000       14.0070           0
     77331 WT26     355      MECN     C1       CG331   -0.170000       12.0110           0
     77332 WT26     355      MECN     H11      HGA3     0.090000        1.0080           0
     77333 WT26     355      MECN     H12      HGA3     0.090000        1.0080           0
     77334 WT26     355      MECN     H13      HGA3     0.090000        1.0080           0
     77335 WT26     355      MECN     C2       CG1N1    0.360000       12.0110           0
     77336 WT26     355      MECN     N3       NG1T1   -0.460000       14.0070           0
     77337 WT26     359      MECN     C1       CG331   -0.170000       12.0110           0
     77338 WT26     359      MECN     H11      HGA3     0.090000        1.0080           0
     77339 WT26     359      MECN     H12      HGA3     0.090000        1.0080           0
     77340 WT26     359      MECN     H13      HGA3     0.090000        1.0080           0
     77341 WT26     359      MECN     C2       CG1N1    0.360000       12.0110           0
     77342 WT26     359      MECN     N3       NG1T1   -0.460000       14.0070           0
     77343 WT26     360      MECN     C1       CG331   -0.170000       12.0110           0
     77344 WT26     360      MECN     H11      HGA3     0.090000        1.0080           0
     77345 WT26     360      MECN     H12      HGA3     0.090000        1.0080           0
     77346 WT26     360      MECN     H13      HGA3     0.090000        1.0080           0
     77347 WT26     360      MECN     C2       CG1N1    0.360000       12.0110           0
     77348 WT26     360      MECN     N3       NG1T1   -0.460000       14.0070           0
     77349 WT26     362      MECN     C1       CG331   -0.170000       12.0110           0
     77350 WT26     362      MECN     H11      HGA3     0.090000        1.0080           0
     77351 WT26     362      MECN     H12      HGA3     0.090000        1.0080           0
     77352 WT26     362      MECN     H13      HGA3     0.090000        1.0080           0
     77353 WT26     362      MECN     C2       CG1N1    0.360000       12.0110           0
     77354 WT26     362      MECN     N3       NG1T1   -0.460000       14.0070           0
     77355 WT26     363      MECN     C1       CG331   -0.170000       12.0110           0
     77356 WT26     363      MECN     H11      HGA3     0.090000        1.0080           0
     77357 WT26     363      MECN     H12      HGA3     0.090000        1.0080           0
     77358 WT26     363      MECN     H13      HGA3     0.090000        1.0080           0
     77359 WT26     363      MECN     C2       CG1N1    0.360000       12.0110           0
     77360 WT26     363      MECN     N3       NG1T1   -0.460000       14.0070           0
     77361 WT26     364      MECN     C1       CG331   -0.170000       12.0110           0
     77362 WT26     364      MECN     H11      HGA3     0.090000        1.0080           0
     77363 WT26     364      MECN     H12      HGA3     0.090000        1.0080           0
     77364 WT26     364      MECN     H13      HGA3     0.090000        1.0080           0
     77365 WT26     364      MECN     C2       CG1N1    0.360000       12.0110           0
     77366 WT26     364      MECN     N3       NG1T1   -0.460000       14.0070           0
     77367 WT26     365      MECN     C1       CG331   -0.170000       12.0110           0
     77368 WT26     365      MECN     H11      HGA3     0.090000        1.0080           0
     77369 WT26     365      MECN     H12      HGA3     0.090000        1.0080           0
     77370 WT26     365      MECN     H13      HGA3     0.090000        1.0080           0
     77371 WT26     365      MECN     C2       CG1N1    0.360000       12.0110           0
     77372 WT26     365      MECN     N3       NG1T1   -0.460000       14.0070           0
     77373 WT26     366      MECN     C1       CG331   -0.170000       12.0110           0
     77374 WT26     366      MECN     H11      HGA3     0.090000        1.0080           0
     77375 WT26     366      MECN     H12      HGA3     0.090000        1.0080           0
     77376 WT26     366      MECN     H13      HGA3     0.090000        1.0080           0
     77377 WT26     366      MECN     C2       CG1N1    0.360000       12.0110           0
     77378 WT26     366      MECN     N3       NG1T1   -0.460000       14.0070           0
     77379 WT26     374      MECN     C1       CG331   -0.170000       12.0110           0
     77380 WT26     374      MECN     H11      HGA3     0.090000        1.0080           0
     77381 WT26     374      MECN     H12      HGA3     0.090000        1.0080           0
     77382 WT26     374      MECN     H13      HGA3     0.090000        1.0080           0
     77383 WT26     374      MECN     C2       CG1N1    0.360000       12.0110           0
     77384 WT26     374      MECN     N3       NG1T1   -0.460000       14.0070           0
     77385 WT26     375      MECN     C1       CG331   -0.170000       12.0110           0
     77386 WT26     375      MECN     H11      HGA3     0.090000        1.0080           0
     77387 WT26     375      MECN     H12      HGA3     0.090000        1.0080           0
     77388 WT26     375      MECN     H13      HGA3     0.090000        1.0080           0
     77389 WT26     375      MECN     C2       CG1N1    0.360000       12.0110           0
     77390 WT26     375      MECN     N3       NG1T1   -0.460000       14.0070           0
     77391 WT26     376      MECN     C1       CG331   -0.170000       12.0110           0
     77392 WT26     376      MECN     H11      HGA3     0.090000        1.0080           0
     77393 WT26     376      MECN     H12      HGA3     0.090000        1.0080           0
     77394 WT26     376      MECN     H13      HGA3     0.090000        1.0080           0
     77395 WT26     376      MECN     C2       CG1N1    0.360000       12.0110           0
     77396 WT26     376      MECN     N3       NG1T1   -0.460000       14.0070           0
     77397 WT26     377      MECN     C1       CG331   -0.170000       12.0110           0
     77398 WT26     377      MECN     H11      HGA3     0.090000        1.0080           0
     77399 WT26     377      MECN     H12      HGA3     0.090000        1.0080           0
     77400 WT26     377      MECN     H13      HGA3     0.090000        1.0080           0
     77401 WT26     377      MECN     C2       CG1N1    0.360000       12.0110           0
     77402 WT26     377      MECN     N3       NG1T1   -0.460000       14.0070           0
     77403 WT26     378      MECN     C1       CG331   -0.170000       12.0110           0
     77404 WT26     378      MECN     H11      HGA3     0.090000        1.0080           0
     77405 WT26     378      MECN     H12      HGA3     0.090000        1.0080           0
     77406 WT26     378      MECN     H13      HGA3     0.090000        1.0080           0
     77407 WT26     378      MECN     C2       CG1N1    0.360000       12.0110           0
     77408 WT26     378      MECN     N3       NG1T1   -0.460000       14.0070           0
     77409 WT26     380      MECN     C1       CG331   -0.170000       12.0110           0
     77410 WT26     380      MECN     H11      HGA3     0.090000        1.0080           0
     77411 WT26     380      MECN     H12      HGA3     0.090000        1.0080           0
     77412 WT26     380      MECN     H13      HGA3     0.090000        1.0080           0
     77413 WT26     380      MECN     C2       CG1N1    0.360000       12.0110           0
     77414 WT26     380      MECN     N3       NG1T1   -0.460000       14.0070           0
     77415 WT26     381      MECN     C1       CG331   -0.170000       12.0110           0
     77416 WT26     381      MECN     H11      HGA3     0.090000        1.0080           0
     77417 WT26     381      MECN     H12      HGA3     0.090000        1.0080           0
     77418 WT26     381      MECN     H13      HGA3     0.090000        1.0080           0
     77419 WT26     381      MECN     C2       CG1N1    0.360000       12.0110           0
     77420 WT26     381      MECN     N3       NG1T1   -0.460000       14.0070           0
     77421 WT26     383      MECN     C1       CG331   -0.170000       12.0110           0
     77422 WT26     383      MECN     H11      HGA3     0.090000        1.0080           0
     77423 WT26     383      MECN     H12      HGA3     0.090000        1.0080           0
     77424 WT26     383      MECN     H13      HGA3     0.090000        1.0080           0
     77425 WT26     383      MECN     C2       CG1N1    0.360000       12.0110           0
     77426 WT26     383      MECN     N3       NG1T1   -0.460000       14.0070           0
     77427 WT26     386      MECN     C1       CG331   -0.170000       12.0110           0
     77428 WT26     386      MECN     H11      HGA3     0.090000        1.0080           0
     77429 WT26     386      MECN     H12      HGA3     0.090000        1.0080           0
     77430 WT26     386      MECN     H13      HGA3     0.090000        1.0080           0
     77431 WT26     386      MECN     C2       CG1N1    0.360000       12.0110           0
     77432 WT26     386      MECN     N3       NG1T1   -0.460000       14.0070           0
     77433 WT26     389      MECN     C1       CG331   -0.170000       12.0110           0
     77434 WT26     389      MECN     H11      HGA3     0.090000        1.0080           0
     77435 WT26     389      MECN     H12      HGA3     0.090000        1.0080           0
     77436 WT26     389      MECN     H13      HGA3     0.090000        1.0080           0
     77437 WT26     389      MECN     C2       CG1N1    0.360000       12.0110           0
     77438 WT26     389      MECN     N3       NG1T1   -0.460000       14.0070           0
     77439 WT26     393      MECN     C1       CG331   -0.170000       12.0110           0
     77440 WT26     393      MECN     H11      HGA3     0.090000        1.0080           0
     77441 WT26     393      MECN     H12      HGA3     0.090000        1.0080           0
     77442 WT26     393      MECN     H13      HGA3     0.090000        1.0080           0
     77443 WT26     393      MECN     C2       CG1N1    0.360000       12.0110           0
     77444 WT26     393      MECN     N3       NG1T1   -0.460000       14.0070           0
     77445 WT26     394      MECN     C1       CG331   -0.170000       12.0110           0
     77446 WT26     394      MECN     H11      HGA3     0.090000        1.0080           0
     77447 WT26     394      MECN     H12      HGA3     0.090000        1.0080           0
     77448 WT26     394      MECN     H13      HGA3     0.090000        1.0080           0
     77449 WT26     394      MECN     C2       CG1N1    0.360000       12.0110           0
     77450 WT26     394      MECN     N3       NG1T1   -0.460000       14.0070           0
     77451 WT26     399      MECN     C1       CG331   -0.170000       12.0110           0
     77452 WT26     399      MECN     H11      HGA3     0.090000        1.0080           0
     77453 WT26     399      MECN     H12      HGA3     0.090000        1.0080           0
     77454 WT26     399      MECN     H13      HGA3     0.090000        1.0080           0
     77455 WT26     399      MECN     C2       CG1N1    0.360000       12.0110           0
     77456 WT26     399      MECN     N3       NG1T1   -0.460000       14.0070           0
     77457 WT26     400      MECN     C1       CG331   -0.170000       12.0110           0
     77458 WT26     400      MECN     H11      HGA3     0.090000        1.0080           0
     77459 WT26     400      MECN     H12      HGA3     0.090000        1.0080           0
     77460 WT26     400      MECN     H13      HGA3     0.090000        1.0080           0
     77461 WT26     400      MECN     C2       CG1N1    0.360000       12.0110           0
     77462 WT26     400      MECN     N3       NG1T1   -0.460000       14.0070           0
     77463 WT26     404      MECN     C1       CG331   -0.170000       12.0110           0
     77464 WT26     404      MECN     H11      HGA3     0.090000        1.0080           0
     77465 WT26     404      MECN     H12      HGA3     0.090000        1.0080           0
     77466 WT26     404      MECN     H13      HGA3     0.090000        1.0080           0
     77467 WT26     404      MECN     C2       CG1N1    0.360000       12.0110           0
     77468 WT26     404      MECN     N3       NG1T1   -0.460000       14.0070           0
     77469 WT26     405      MECN     C1       CG331   -0.170000       12.0110           0
     77470 WT26     405      MECN     H11      HGA3     0.090000        1.0080           0
     77471 WT26     405      MECN     H12      HGA3     0.090000        1.0080           0
     77472 WT26     405      MECN     H13      HGA3     0.090000        1.0080           0
     77473 WT26     405      MECN     C2       CG1N1    0.360000       12.0110           0
     77474 WT26     405      MECN     N3       NG1T1   -0.460000       14.0070           0
     77475 WT26     407      MECN     C1       CG331   -0.170000       12.0110           0
     77476 WT26     407      MECN     H11      HGA3     0.090000        1.0080           0
     77477 WT26     407      MECN     H12      HGA3     0.090000        1.0080           0
     77478 WT26     407      MECN     H13      HGA3     0.090000        1.0080           0
     77479 WT26     407      MECN     C2       CG1N1    0.360000       12.0110           0
     77480 WT26     407      MECN     N3       NG1T1   -0.460000       14.0070           0
     77481 WT26     409      MECN     C1       CG331   -0.170000       12.0110           0
     77482 WT26     409      MECN     H11      HGA3     0.090000        1.0080           0
     77483 WT26     409      MECN     H12      HGA3     0.090000        1.0080           0
     77484 WT26     409      MECN     H13      HGA3     0.090000        1.0080           0
     77485 WT26     409      MECN     C2       CG1N1    0.360000       12.0110           0
     77486 WT26     409      MECN     N3       NG1T1   -0.460000       14.0070           0
     77487 WT26     411      MECN     C1       CG331   -0.170000       12.0110           0
     77488 WT26     411      MECN     H11      HGA3     0.090000        1.0080           0
     77489 WT26     411      MECN     H12      HGA3     0.090000        1.0080           0
     77490 WT26     411      MECN     H13      HGA3     0.090000        1.0080           0
     77491 WT26     411      MECN     C2       CG1N1    0.360000       12.0110           0
     77492 WT26     411      MECN     N3       NG1T1   -0.460000       14.0070           0
     77493 WT26     412      MECN     C1       CG331   -0.170000       12.0110           0
     77494 WT26     412      MECN     H11      HGA3     0.090000        1.0080           0
     77495 WT26     412      MECN     H12      HGA3     0.090000        1.0080           0
     77496 WT26     412      MECN     H13      HGA3     0.090000        1.0080           0
     77497 WT26     412      MECN     C2       CG1N1    0.360000       12.0110           0
     77498 WT26     412      MECN     N3       NG1T1   -0.460000       14.0070           0
     77499 WT26     413      MECN     C1       CG331   -0.170000       12.0110           0
     77500 WT26     413      MECN     H11      HGA3     0.090000        1.0080           0
     77501 WT26     413      MECN     H12      HGA3     0.090000        1.0080           0
     77502 WT26     413      MECN     H13      HGA3     0.090000        1.0080           0
     77503 WT26     413      MECN     C2       CG1N1    0.360000       12.0110           0
     77504 WT26     413      MECN     N3       NG1T1   -0.460000       14.0070           0
     77505 WT26     417      MECN     C1       CG331   -0.170000       12.0110           0
     77506 WT26     417      MECN     H11      HGA3     0.090000        1.0080           0
     77507 WT26     417      MECN     H12      HGA3     0.090000        1.0080           0
     77508 WT26     417      MECN     H13      HGA3     0.090000        1.0080           0
     77509 WT26     417      MECN     C2       CG1N1    0.360000       12.0110           0
     77510 WT26     417      MECN     N3       NG1T1   -0.460000       14.0070           0
     77511 WT26     419      MECN     C1       CG331   -0.170000       12.0110           0
     77512 WT26     419      MECN     H11      HGA3     0.090000        1.0080           0
     77513 WT26     419      MECN     H12      HGA3     0.090000        1.0080           0
     77514 WT26     419      MECN     H13      HGA3     0.090000        1.0080           0
     77515 WT26     419      MECN     C2       CG1N1    0.360000       12.0110           0
     77516 WT26     419      MECN     N3       NG1T1   -0.460000       14.0070           0
     77517 WT26     421      MECN     C1       CG331   -0.170000       12.0110           0
     77518 WT26     421      MECN     H11      HGA3     0.090000        1.0080           0
     77519 WT26     421      MECN     H12      HGA3     0.090000        1.0080           0
     77520 WT26     421      MECN     H13      HGA3     0.090000        1.0080           0
     77521 WT26     421      MECN     C2       CG1N1    0.360000       12.0110           0
     77522 WT26     421      MECN     N3       NG1T1   -0.460000       14.0070           0
     77523 WT26     422      MECN     C1       CG331   -0.170000       12.0110           0
     77524 WT26     422      MECN     H11      HGA3     0.090000        1.0080           0
     77525 WT26     422      MECN     H12      HGA3     0.090000        1.0080           0
     77526 WT26     422      MECN     H13      HGA3     0.090000        1.0080           0
     77527 WT26     422      MECN     C2       CG1N1    0.360000       12.0110           0
     77528 WT26     422      MECN     N3       NG1T1   -0.460000       14.0070           0
     77529 WT26     423      MECN     C1       CG331   -0.170000       12.0110           0
     77530 WT26     423      MECN     H11      HGA3     0.090000        1.0080           0
     77531 WT26     423      MECN     H12      HGA3     0.090000        1.0080           0
     77532 WT26     423      MECN     H13      HGA3     0.090000        1.0080           0
     77533 WT26     423      MECN     C2       CG1N1    0.360000       12.0110           0
     77534 WT26     423      MECN     N3       NG1T1   -0.460000       14.0070           0
     77535 WT26     429      MECN     C1       CG331   -0.170000       12.0110           0
     77536 WT26     429      MECN     H11      HGA3     0.090000        1.0080           0
     77537 WT26     429      MECN     H12      HGA3     0.090000        1.0080           0
     77538 WT26     429      MECN     H13      HGA3     0.090000        1.0080           0
     77539 WT26     429      MECN     C2       CG1N1    0.360000       12.0110           0
     77540 WT26     429      MECN     N3       NG1T1   -0.460000       14.0070           0
     77541 WT26     431      MECN     C1       CG331   -0.170000       12.0110           0
     77542 WT26     431      MECN     H11      HGA3     0.090000        1.0080           0
     77543 WT26     431      MECN     H12      HGA3     0.090000        1.0080           0
     77544 WT26     431      MECN     H13      HGA3     0.090000        1.0080           0
     77545 WT26     431      MECN     C2       CG1N1    0.360000       12.0110           0
     77546 WT26     431      MECN     N3       NG1T1   -0.460000       14.0070           0
     77547 WT26     432      MECN     C1       CG331   -0.170000       12.0110           0
     77548 WT26     432      MECN     H11      HGA3     0.090000        1.0080           0
     77549 WT26     432      MECN     H12      HGA3     0.090000        1.0080           0
     77550 WT26     432      MECN     H13      HGA3     0.090000        1.0080           0
     77551 WT26     432      MECN     C2       CG1N1    0.360000       12.0110           0
     77552 WT26     432      MECN     N3       NG1T1   -0.460000       14.0070           0
     77553 WT26     433      MECN     C1       CG331   -0.170000       12.0110           0
     77554 WT26     433      MECN     H11      HGA3     0.090000        1.0080           0
     77555 WT26     433      MECN     H12      HGA3     0.090000        1.0080           0
     77556 WT26     433      MECN     H13      HGA3     0.090000        1.0080           0
     77557 WT26     433      MECN     C2       CG1N1    0.360000       12.0110           0
     77558 WT26     433      MECN     N3       NG1T1   -0.460000       14.0070           0
     77559 WT26     434      MECN     C1       CG331   -0.170000       12.0110           0
     77560 WT26     434      MECN     H11      HGA3     0.090000        1.0080           0
     77561 WT26     434      MECN     H12      HGA3     0.090000        1.0080           0
     77562 WT26     434      MECN     H13      HGA3     0.090000        1.0080           0
     77563 WT26     434      MECN     C2       CG1N1    0.360000       12.0110           0
     77564 WT26     434      MECN     N3       NG1T1   -0.460000       14.0070           0
     77565 WT26     435      MECN     C1       CG331   -0.170000       12.0110           0
     77566 WT26     435      MECN     H11      HGA3     0.090000        1.0080           0
     77567 WT26     435      MECN     H12      HGA3     0.090000        1.0080           0
     77568 WT26     435      MECN     H13      HGA3     0.090000        1.0080           0
     77569 WT26     435      MECN     C2       CG1N1    0.360000       12.0110           0
     77570 WT26     435      MECN     N3       NG1T1   -0.460000       14.0070           0
     77571 WT26     437      MECN     C1       CG331   -0.170000       12.0110           0
     77572 WT26     437      MECN     H11      HGA3     0.090000        1.0080           0
     77573 WT26     437      MECN     H12      HGA3     0.090000        1.0080           0
     77574 WT26     437      MECN     H13      HGA3     0.090000        1.0080           0
     77575 WT26     437      MECN     C2       CG1N1    0.360000       12.0110           0
     77576 WT26     437      MECN     N3       NG1T1   -0.460000       14.0070           0
     77577 WT26     438      MECN     C1       CG331   -0.170000       12.0110           0
     77578 WT26     438      MECN     H11      HGA3     0.090000        1.0080           0
     77579 WT26     438      MECN     H12      HGA3     0.090000        1.0080           0
     77580 WT26     438      MECN     H13      HGA3     0.090000        1.0080           0
     77581 WT26     438      MECN     C2       CG1N1    0.360000       12.0110           0
     77582 WT26     438      MECN     N3       NG1T1   -0.460000       14.0070           0
     77583 WT26     441      MECN     C1       CG331   -0.170000       12.0110           0
     77584 WT26     441      MECN     H11      HGA3     0.090000        1.0080           0
     77585 WT26     441      MECN     H12      HGA3     0.090000        1.0080           0
     77586 WT26     441      MECN     H13      HGA3     0.090000        1.0080           0
     77587 WT26     441      MECN     C2       CG1N1    0.360000       12.0110           0
     77588 WT26     441      MECN     N3       NG1T1   -0.460000       14.0070           0
     77589 WT26     443      MECN     C1       CG331   -0.170000       12.0110           0
     77590 WT26     443      MECN     H11      HGA3     0.090000        1.0080           0
     77591 WT26     443      MECN     H12      HGA3     0.090000        1.0080           0
     77592 WT26     443      MECN     H13      HGA3     0.090000        1.0080           0
     77593 WT26     443      MECN     C2       CG1N1    0.360000       12.0110           0
     77594 WT26     443      MECN     N3       NG1T1   -0.460000       14.0070           0
     77595 WT26     446      MECN     C1       CG331   -0.170000       12.0110           0
     77596 WT26     446      MECN     H11      HGA3     0.090000        1.0080           0
     77597 WT26     446      MECN     H12      HGA3     0.090000        1.0080           0
     77598 WT26     446      MECN     H13      HGA3     0.090000        1.0080           0
     77599 WT26     446      MECN     C2       CG1N1    0.360000       12.0110           0
     77600 WT26     446      MECN     N3       NG1T1   -0.460000       14.0070           0
     77601 WT26     448      MECN     C1       CG331   -0.170000       12.0110           0
     77602 WT26     448      MECN     H11      HGA3     0.090000        1.0080           0
     77603 WT26     448      MECN     H12      HGA3     0.090000        1.0080           0
     77604 WT26     448      MECN     H13      HGA3     0.090000        1.0080           0
     77605 WT26     448      MECN     C2       CG1N1    0.360000       12.0110           0
     77606 WT26     448      MECN     N3       NG1T1   -0.460000       14.0070           0
     77607 WT26     452      MECN     C1       CG331   -0.170000       12.0110           0
     77608 WT26     452      MECN     H11      HGA3     0.090000        1.0080           0
     77609 WT26     452      MECN     H12      HGA3     0.090000        1.0080           0
     77610 WT26     452      MECN     H13      HGA3     0.090000        1.0080           0
     77611 WT26     452      MECN     C2       CG1N1    0.360000       12.0110           0
     77612 WT26     452      MECN     N3       NG1T1   -0.460000       14.0070           0
     77613 WT26     453      MECN     C1       CG331   -0.170000       12.0110           0
     77614 WT26     453      MECN     H11      HGA3     0.090000        1.0080           0
     77615 WT26     453      MECN     H12      HGA3     0.090000        1.0080           0
     77616 WT26     453      MECN     H13      HGA3     0.090000        1.0080           0
     77617 WT26     453      MECN     C2       CG1N1    0.360000       12.0110           0
     77618 WT26     453      MECN     N3       NG1T1   -0.460000       14.0070           0
     77619 WT26     455      MECN     C1       CG331   -0.170000       12.0110           0
     77620 WT26     455      MECN     H11      HGA3     0.090000        1.0080           0
     77621 WT26     455      MECN     H12      HGA3     0.090000        1.0080           0
     77622 WT26     455      MECN     H13      HGA3     0.090000        1.0080           0
     77623 WT26     455      MECN     C2       CG1N1    0.360000       12.0110           0
     77624 WT26     455      MECN     N3       NG1T1   -0.460000       14.0070           0
     77625 WT26     459      MECN     C1       CG331   -0.170000       12.0110           0
     77626 WT26     459      MECN     H11      HGA3     0.090000        1.0080           0
     77627 WT26     459      MECN     H12      HGA3     0.090000        1.0080           0
     77628 WT26     459      MECN     H13      HGA3     0.090000        1.0080           0
     77629 WT26     459      MECN     C2       CG1N1    0.360000       12.0110           0
     77630 WT26     459      MECN     N3       NG1T1   -0.460000       14.0070           0
     77631 WT26     460      MECN     C1       CG331   -0.170000       12.0110           0
     77632 WT26     460      MECN     H11      HGA3     0.090000        1.0080           0
     77633 WT26     460      MECN     H12      HGA3     0.090000        1.0080           0
     77634 WT26     460      MECN     H13      HGA3     0.090000        1.0080           0
     77635 WT26     460      MECN     C2       CG1N1    0.360000       12.0110           0
     77636 WT26     460      MECN     N3       NG1T1   -0.460000       14.0070           0
     77637 WT26     462      MECN     C1       CG331   -0.170000       12.0110           0
     77638 WT26     462      MECN     H11      HGA3     0.090000        1.0080           0
     77639 WT26     462      MECN     H12      HGA3     0.090000        1.0080           0
     77640 WT26     462      MECN     H13      HGA3     0.090000        1.0080           0
     77641 WT26     462      MECN     C2       CG1N1    0.360000       12.0110           0
     77642 WT26     462      MECN     N3       NG1T1   -0.460000       14.0070           0
     77643 WT26     463      MECN     C1       CG331   -0.170000       12.0110           0
     77644 WT26     463      MECN     H11      HGA3     0.090000        1.0080           0
     77645 WT26     463      MECN     H12      HGA3     0.090000        1.0080           0
     77646 WT26     463      MECN     H13      HGA3     0.090000        1.0080           0
     77647 WT26     463      MECN     C2       CG1N1    0.360000       12.0110           0
     77648 WT26     463      MECN     N3       NG1T1   -0.460000       14.0070           0
     77649 WT26     466      MECN     C1       CG331   -0.170000       12.0110           0
     77650 WT26     466      MECN     H11      HGA3     0.090000        1.0080           0
     77651 WT26     466      MECN     H12      HGA3     0.090000        1.0080           0
     77652 WT26     466      MECN     H13      HGA3     0.090000        1.0080           0
     77653 WT26     466      MECN     C2       CG1N1    0.360000       12.0110           0
     77654 WT26     466      MECN     N3       NG1T1   -0.460000       14.0070           0
     77655 WT26     474      MECN     C1       CG331   -0.170000       12.0110           0
     77656 WT26     474      MECN     H11      HGA3     0.090000        1.0080           0
     77657 WT26     474      MECN     H12      HGA3     0.090000        1.0080           0
     77658 WT26     474      MECN     H13      HGA3     0.090000        1.0080           0
     77659 WT26     474      MECN     C2       CG1N1    0.360000       12.0110           0
     77660 WT26     474      MECN     N3       NG1T1   -0.460000       14.0070           0
     77661 WT26     476      MECN     C1       CG331   -0.170000       12.0110           0
     77662 WT26     476      MECN     H11      HGA3     0.090000        1.0080           0
     77663 WT26     476      MECN     H12      HGA3     0.090000        1.0080           0
     77664 WT26     476      MECN     H13      HGA3     0.090000        1.0080           0
     77665 WT26     476      MECN     C2       CG1N1    0.360000       12.0110           0
     77666 WT26     476      MECN     N3       NG1T1   -0.460000       14.0070           0
     77667 WT26     479      MECN     C1       CG331   -0.170000       12.0110           0
     77668 WT26     479      MECN     H11      HGA3     0.090000        1.0080           0
     77669 WT26     479      MECN     H12      HGA3     0.090000        1.0080           0
     77670 WT26     479      MECN     H13      HGA3     0.090000        1.0080           0
     77671 WT26     479      MECN     C2       CG1N1    0.360000       12.0110           0
     77672 WT26     479      MECN     N3       NG1T1   -0.460000       14.0070           0
     77673 WT26     481      MECN     C1       CG331   -0.170000       12.0110           0
     77674 WT26     481      MECN     H11      HGA3     0.090000        1.0080           0
     77675 WT26     481      MECN     H12      HGA3     0.090000        1.0080           0
     77676 WT26     481      MECN     H13      HGA3     0.090000        1.0080           0
     77677 WT26     481      MECN     C2       CG1N1    0.360000       12.0110           0
     77678 WT26     481      MECN     N3       NG1T1   -0.460000       14.0070           0
     77679 WT26     483      MECN     C1       CG331   -0.170000       12.0110           0
     77680 WT26     483      MECN     H11      HGA3     0.090000        1.0080           0
     77681 WT26     483      MECN     H12      HGA3     0.090000        1.0080           0
     77682 WT26     483      MECN     H13      HGA3     0.090000        1.0080           0
     77683 WT26     483      MECN     C2       CG1N1    0.360000       12.0110           0
     77684 WT26     483      MECN     N3       NG1T1   -0.460000       14.0070           0
     77685 WT26     487      MECN     C1       CG331   -0.170000       12.0110           0
     77686 WT26     487      MECN     H11      HGA3     0.090000        1.0080           0
     77687 WT26     487      MECN     H12      HGA3     0.090000        1.0080           0
     77688 WT26     487      MECN     H13      HGA3     0.090000        1.0080           0
     77689 WT26     487      MECN     C2       CG1N1    0.360000       12.0110           0
     77690 WT26     487      MECN     N3       NG1T1   -0.460000       14.0070           0
     77691 WT26     491      MECN     C1       CG331   -0.170000       12.0110           0
     77692 WT26     491      MECN     H11      HGA3     0.090000        1.0080           0
     77693 WT26     491      MECN     H12      HGA3     0.090000        1.0080           0
     77694 WT26     491      MECN     H13      HGA3     0.090000        1.0080           0
     77695 WT26     491      MECN     C2       CG1N1    0.360000       12.0110           0
     77696 WT26     491      MECN     N3       NG1T1   -0.460000       14.0070           0
     77697 WT26     493      MECN     C1       CG331   -0.170000       12.0110           0
     77698 WT26     493      MECN     H11      HGA3     0.090000        1.0080           0
     77699 WT26     493      MECN     H12      HGA3     0.090000        1.0080           0
     77700 WT26     493      MECN     H13      HGA3     0.090000        1.0080           0
     77701 WT26     493      MECN     C2       CG1N1    0.360000       12.0110           0
     77702 WT26     493      MECN     N3       NG1T1   -0.460000       14.0070           0
     77703 WT26     496      MECN     C1       CG331   -0.170000       12.0110           0
     77704 WT26     496      MECN     H11      HGA3     0.090000        1.0080           0
     77705 WT26     496      MECN     H12      HGA3     0.090000        1.0080           0
     77706 WT26     496      MECN     H13      HGA3     0.090000        1.0080           0
     77707 WT26     496      MECN     C2       CG1N1    0.360000       12.0110           0
     77708 WT26     496      MECN     N3       NG1T1   -0.460000       14.0070           0
     77709 WT26     499      MECN     C1       CG331   -0.170000       12.0110           0
     77710 WT26     499      MECN     H11      HGA3     0.090000        1.0080           0
     77711 WT26     499      MECN     H12      HGA3     0.090000        1.0080           0
     77712 WT26     499      MECN     H13      HGA3     0.090000        1.0080           0
     77713 WT26     499      MECN     C2       CG1N1    0.360000       12.0110           0
     77714 WT26     499      MECN     N3       NG1T1   -0.460000       14.0070           0
     77715 WT26     502      MECN     C1       CG331   -0.170000       12.0110           0
     77716 WT26     502      MECN     H11      HGA3     0.090000        1.0080           0
     77717 WT26     502      MECN     H12      HGA3     0.090000        1.0080           0
     77718 WT26     502      MECN     H13      HGA3     0.090000        1.0080           0
     77719 WT26     502      MECN     C2       CG1N1    0.360000       12.0110           0
     77720 WT26     502      MECN     N3       NG1T1   -0.460000       14.0070           0
     77721 WT26     505      MECN     C1       CG331   -0.170000       12.0110           0
     77722 WT26     505      MECN     H11      HGA3     0.090000        1.0080           0
     77723 WT26     505      MECN     H12      HGA3     0.090000        1.0080           0
     77724 WT26     505      MECN     H13      HGA3     0.090000        1.0080           0
     77725 WT26     505      MECN     C2       CG1N1    0.360000       12.0110           0
     77726 WT26     505      MECN     N3       NG1T1   -0.460000       14.0070           0
     77727 WT26     506      MECN     C1       CG331   -0.170000       12.0110           0
     77728 WT26     506      MECN     H11      HGA3     0.090000        1.0080           0
     77729 WT26     506      MECN     H12      HGA3     0.090000        1.0080           0
     77730 WT26     506      MECN     H13      HGA3     0.090000        1.0080           0
     77731 WT26     506      MECN     C2       CG1N1    0.360000       12.0110           0
     77732 WT26     506      MECN     N3       NG1T1   -0.460000       14.0070           0
     77733 WT26     507      MECN     C1       CG331   -0.170000       12.0110           0
     77734 WT26     507      MECN     H11      HGA3     0.090000        1.0080           0
     77735 WT26     507      MECN     H12      HGA3     0.090000        1.0080           0
     77736 WT26     507      MECN     H13      HGA3     0.090000        1.0080           0
     77737 WT26     507      MECN     C2       CG1N1    0.360000       12.0110           0
     77738 WT26     507      MECN     N3       NG1T1   -0.460000       14.0070           0
     77739 WT26     510      MECN     C1       CG331   -0.170000       12.0110           0
     77740 WT26     510      MECN     H11      HGA3     0.090000        1.0080           0
     77741 WT26     510      MECN     H12      HGA3     0.090000        1.0080           0
     77742 WT26     510      MECN     H13      HGA3     0.090000        1.0080           0
     77743 WT26     510      MECN     C2       CG1N1    0.360000       12.0110           0
     77744 WT26     510      MECN     N3       NG1T1   -0.460000       14.0070           0
     77745 WT26     512      MECN     C1       CG331   -0.170000       12.0110           0
     77746 WT26     512      MECN     H11      HGA3     0.090000        1.0080           0
     77747 WT26     512      MECN     H12      HGA3     0.090000        1.0080           0
     77748 WT26     512      MECN     H13      HGA3     0.090000        1.0080           0
     77749 WT26     512      MECN     C2       CG1N1    0.360000       12.0110           0
     77750 WT26     512      MECN     N3       NG1T1   -0.460000       14.0070           0
     77751 WT26     514      MECN     C1       CG331   -0.170000       12.0110           0
     77752 WT26     514      MECN     H11      HGA3     0.090000        1.0080           0
     77753 WT26     514      MECN     H12      HGA3     0.090000        1.0080           0
     77754 WT26     514      MECN     H13      HGA3     0.090000        1.0080           0
     77755 WT26     514      MECN     C2       CG1N1    0.360000       12.0110           0
     77756 WT26     514      MECN     N3       NG1T1   -0.460000       14.0070           0
     77757 WT26     515      MECN     C1       CG331   -0.170000       12.0110           0
     77758 WT26     515      MECN     H11      HGA3     0.090000        1.0080           0
     77759 WT26     515      MECN     H12      HGA3     0.090000        1.0080           0
     77760 WT26     515      MECN     H13      HGA3     0.090000        1.0080           0
     77761 WT26     515      MECN     C2       CG1N1    0.360000       12.0110           0
     77762 WT26     515      MECN     N3       NG1T1   -0.460000       14.0070           0
     77763 WT26     516      MECN     C1       CG331   -0.170000       12.0110           0
     77764 WT26     516      MECN     H11      HGA3     0.090000        1.0080           0
     77765 WT26     516      MECN     H12      HGA3     0.090000        1.0080           0
     77766 WT26     516      MECN     H13      HGA3     0.090000        1.0080           0
     77767 WT26     516      MECN     C2       CG1N1    0.360000       12.0110           0
     77768 WT26     516      MECN     N3       NG1T1   -0.460000       14.0070           0
     77769 WT26     517      MECN     C1       CG331   -0.170000       12.0110           0
     77770 WT26     517      MECN     H11      HGA3     0.090000        1.0080           0
     77771 WT26     517      MECN     H12      HGA3     0.090000        1.0080           0
     77772 WT26     517      MECN     H13      HGA3     0.090000        1.0080           0
     77773 WT26     517      MECN     C2       CG1N1    0.360000       12.0110           0
     77774 WT26     517      MECN     N3       NG1T1   -0.460000       14.0070           0
     77775 WT26     521      MECN     C1       CG331   -0.170000       12.0110           0
     77776 WT26     521      MECN     H11      HGA3     0.090000        1.0080           0
     77777 WT26     521      MECN     H12      HGA3     0.090000        1.0080           0
     77778 WT26     521      MECN     H13      HGA3     0.090000        1.0080           0
     77779 WT26     521      MECN     C2       CG1N1    0.360000       12.0110           0
     77780 WT26     521      MECN     N3       NG1T1   -0.460000       14.0070           0
     77781 WT26     524      MECN     C1       CG331   -0.170000       12.0110           0
     77782 WT26     524      MECN     H11      HGA3     0.090000        1.0080           0
     77783 WT26     524      MECN     H12      HGA3     0.090000        1.0080           0
     77784 WT26     524      MECN     H13      HGA3     0.090000        1.0080           0
     77785 WT26     524      MECN     C2       CG1N1    0.360000       12.0110           0
     77786 WT26     524      MECN     N3       NG1T1   -0.460000       14.0070           0
     77787 WT26     525      MECN     C1       CG331   -0.170000       12.0110           0
     77788 WT26     525      MECN     H11      HGA3     0.090000        1.0080           0
     77789 WT26     525      MECN     H12      HGA3     0.090000        1.0080           0
     77790 WT26     525      MECN     H13      HGA3     0.090000        1.0080           0
     77791 WT26     525      MECN     C2       CG1N1    0.360000       12.0110           0
     77792 WT26     525      MECN     N3       NG1T1   -0.460000       14.0070           0
     77793 WT26     527      MECN     C1       CG331   -0.170000       12.0110           0
     77794 WT26     527      MECN     H11      HGA3     0.090000        1.0080           0
     77795 WT26     527      MECN     H12      HGA3     0.090000        1.0080           0
     77796 WT26     527      MECN     H13      HGA3     0.090000        1.0080           0
     77797 WT26     527      MECN     C2       CG1N1    0.360000       12.0110           0
     77798 WT26     527      MECN     N3       NG1T1   -0.460000       14.0070           0
     77799 WT26     528      MECN     C1       CG331   -0.170000       12.0110           0
     77800 WT26     528      MECN     H11      HGA3     0.090000        1.0080           0
     77801 WT26     528      MECN     H12      HGA3     0.090000        1.0080           0
     77802 WT26     528      MECN     H13      HGA3     0.090000        1.0080           0
     77803 WT26     528      MECN     C2       CG1N1    0.360000       12.0110           0
     77804 WT26     528      MECN     N3       NG1T1   -0.460000       14.0070           0
     77805 WT26     529      MECN     C1       CG331   -0.170000       12.0110           0
     77806 WT26     529      MECN     H11      HGA3     0.090000        1.0080           0
     77807 WT26     529      MECN     H12      HGA3     0.090000        1.0080           0
     77808 WT26     529      MECN     H13      HGA3     0.090000        1.0080           0
     77809 WT26     529      MECN     C2       CG1N1    0.360000       12.0110           0
     77810 WT26     529      MECN     N3       NG1T1   -0.460000       14.0070           0
     77811 WT26     533      MECN     C1       CG331   -0.170000       12.0110           0
     77812 WT26     533      MECN     H11      HGA3     0.090000        1.0080           0
     77813 WT26     533      MECN     H12      HGA3     0.090000        1.0080           0
     77814 WT26     533      MECN     H13      HGA3     0.090000        1.0080           0
     77815 WT26     533      MECN     C2       CG1N1    0.360000       12.0110           0
     77816 WT26     533      MECN     N3       NG1T1   -0.460000       14.0070           0
     77817 WT26     534      MECN     C1       CG331   -0.170000       12.0110           0
     77818 WT26     534      MECN     H11      HGA3     0.090000        1.0080           0
     77819 WT26     534      MECN     H12      HGA3     0.090000        1.0080           0
     77820 WT26     534      MECN     H13      HGA3     0.090000        1.0080           0
     77821 WT26     534      MECN     C2       CG1N1    0.360000       12.0110           0
     77822 WT26     534      MECN     N3       NG1T1   -0.460000       14.0070           0
     77823 WT26     535      MECN     C1       CG331   -0.170000       12.0110           0
     77824 WT26     535      MECN     H11      HGA3     0.090000        1.0080           0
     77825 WT26     535      MECN     H12      HGA3     0.090000        1.0080           0
     77826 WT26     535      MECN     H13      HGA3     0.090000        1.0080           0
     77827 WT26     535      MECN     C2       CG1N1    0.360000       12.0110           0
     77828 WT26     535      MECN     N3       NG1T1   -0.460000       14.0070           0
     77829 WT26     536      MECN     C1       CG331   -0.170000       12.0110           0
     77830 WT26     536      MECN     H11      HGA3     0.090000        1.0080           0
     77831 WT26     536      MECN     H12      HGA3     0.090000        1.0080           0
     77832 WT26     536      MECN     H13      HGA3     0.090000        1.0080           0
     77833 WT26     536      MECN     C2       CG1N1    0.360000       12.0110           0
     77834 WT26     536      MECN     N3       NG1T1   -0.460000       14.0070           0
     77835 WT26     538      MECN     C1       CG331   -0.170000       12.0110           0
     77836 WT26     538      MECN     H11      HGA3     0.090000        1.0080           0
     77837 WT26     538      MECN     H12      HGA3     0.090000        1.0080           0
     77838 WT26     538      MECN     H13      HGA3     0.090000        1.0080           0
     77839 WT26     538      MECN     C2       CG1N1    0.360000       12.0110           0
     77840 WT26     538      MECN     N3       NG1T1   -0.460000       14.0070           0
     77841 WT26     539      MECN     C1       CG331   -0.170000       12.0110           0
     77842 WT26     539      MECN     H11      HGA3     0.090000        1.0080           0
     77843 WT26     539      MECN     H12      HGA3     0.090000        1.0080           0
     77844 WT26     539      MECN     H13      HGA3     0.090000        1.0080           0
     77845 WT26     539      MECN     C2       CG1N1    0.360000       12.0110           0
     77846 WT26     539      MECN     N3       NG1T1   -0.460000       14.0070           0
     77847 WT26     540      MECN     C1       CG331   -0.170000       12.0110           0
     77848 WT26     540      MECN     H11      HGA3     0.090000        1.0080           0
     77849 WT26     540      MECN     H12      HGA3     0.090000        1.0080           0
     77850 WT26     540      MECN     H13      HGA3     0.090000        1.0080           0
     77851 WT26     540      MECN     C2       CG1N1    0.360000       12.0110           0
     77852 WT26     540      MECN     N3       NG1T1   -0.460000       14.0070           0
     77853 WT26     544      MECN     C1       CG331   -0.170000       12.0110           0
     77854 WT26     544      MECN     H11      HGA3     0.090000        1.0080           0
     77855 WT26     544      MECN     H12      HGA3     0.090000        1.0080           0
     77856 WT26     544      MECN     H13      HGA3     0.090000        1.0080           0
     77857 WT26     544      MECN     C2       CG1N1    0.360000       12.0110           0
     77858 WT26     544      MECN     N3       NG1T1   -0.460000       14.0070           0
     77859 WT26     545      MECN     C1       CG331   -0.170000       12.0110           0
     77860 WT26     545      MECN     H11      HGA3     0.090000        1.0080           0
     77861 WT26     545      MECN     H12      HGA3     0.090000        1.0080           0
     77862 WT26     545      MECN     H13      HGA3     0.090000        1.0080           0
     77863 WT26     545      MECN     C2       CG1N1    0.360000       12.0110           0
     77864 WT26     545      MECN     N3       NG1T1   -0.460000       14.0070           0
     77865 WT26     548      MECN     C1       CG331   -0.170000       12.0110           0
     77866 WT26     548      MECN     H11      HGA3     0.090000        1.0080           0
     77867 WT26     548      MECN     H12      HGA3     0.090000        1.0080           0
     77868 WT26     548      MECN     H13      HGA3     0.090000        1.0080           0
     77869 WT26     548      MECN     C2       CG1N1    0.360000       12.0110           0
     77870 WT26     548      MECN     N3       NG1T1   -0.460000       14.0070           0
     77871 WT26     549      MECN     C1       CG331   -0.170000       12.0110           0
     77872 WT26     549      MECN     H11      HGA3     0.090000        1.0080           0
     77873 WT26     549      MECN     H12      HGA3     0.090000        1.0080           0
     77874 WT26     549      MECN     H13      HGA3     0.090000        1.0080           0
     77875 WT26     549      MECN     C2       CG1N1    0.360000       12.0110           0
     77876 WT26     549      MECN     N3       NG1T1   -0.460000       14.0070           0
     77877 WT26     550      MECN     C1       CG331   -0.170000       12.0110           0
     77878 WT26     550      MECN     H11      HGA3     0.090000        1.0080           0
     77879 WT26     550      MECN     H12      HGA3     0.090000        1.0080           0
     77880 WT26     550      MECN     H13      HGA3     0.090000        1.0080           0
     77881 WT26     550      MECN     C2       CG1N1    0.360000       12.0110           0
     77882 WT26     550      MECN     N3       NG1T1   -0.460000       14.0070           0
     77883 WT26     551      MECN     C1       CG331   -0.170000       12.0110           0
     77884 WT26     551      MECN     H11      HGA3     0.090000        1.0080           0
     77885 WT26     551      MECN     H12      HGA3     0.090000        1.0080           0
     77886 WT26     551      MECN     H13      HGA3     0.090000        1.0080           0
     77887 WT26     551      MECN     C2       CG1N1    0.360000       12.0110           0
     77888 WT26     551      MECN     N3       NG1T1   -0.460000       14.0070           0
     77889 WT26     552      MECN     C1       CG331   -0.170000       12.0110           0
     77890 WT26     552      MECN     H11      HGA3     0.090000        1.0080           0
     77891 WT26     552      MECN     H12      HGA3     0.090000        1.0080           0
     77892 WT26     552      MECN     H13      HGA3     0.090000        1.0080           0
     77893 WT26     552      MECN     C2       CG1N1    0.360000       12.0110           0
     77894 WT26     552      MECN     N3       NG1T1   -0.460000       14.0070           0
     77895 WT26     554      MECN     C1       CG331   -0.170000       12.0110           0
     77896 WT26     554      MECN     H11      HGA3     0.090000        1.0080           0
     77897 WT26     554      MECN     H12      HGA3     0.090000        1.0080           0
     77898 WT26     554      MECN     H13      HGA3     0.090000        1.0080           0
     77899 WT26     554      MECN     C2       CG1N1    0.360000       12.0110           0
     77900 WT26     554      MECN     N3       NG1T1   -0.460000       14.0070           0
     77901 WT26     556      MECN     C1       CG331   -0.170000       12.0110           0
     77902 WT26     556      MECN     H11      HGA3     0.090000        1.0080           0
     77903 WT26     556      MECN     H12      HGA3     0.090000        1.0080           0
     77904 WT26     556      MECN     H13      HGA3     0.090000        1.0080           0
     77905 WT26     556      MECN     C2       CG1N1    0.360000       12.0110           0
     77906 WT26     556      MECN     N3       NG1T1   -0.460000       14.0070           0
     77907 WT26     559      MECN     C1       CG331   -0.170000       12.0110           0
     77908 WT26     559      MECN     H11      HGA3     0.090000        1.0080           0
     77909 WT26     559      MECN     H12      HGA3     0.090000        1.0080           0
     77910 WT26     559      MECN     H13      HGA3     0.090000        1.0080           0
     77911 WT26     559      MECN     C2       CG1N1    0.360000       12.0110           0
     77912 WT26     559      MECN     N3       NG1T1   -0.460000       14.0070           0
     77913 WT26     561      MECN     C1       CG331   -0.170000       12.0110           0
     77914 WT26     561      MECN     H11      HGA3     0.090000        1.0080           0
     77915 WT26     561      MECN     H12      HGA3     0.090000        1.0080           0
     77916 WT26     561      MECN     H13      HGA3     0.090000        1.0080           0
     77917 WT26     561      MECN     C2       CG1N1    0.360000       12.0110           0
     77918 WT26     561      MECN     N3       NG1T1   -0.460000       14.0070           0
     77919 WT26     565      MECN     C1       CG331   -0.170000       12.0110           0
     77920 WT26     565      MECN     H11      HGA3     0.090000        1.0080           0
     77921 WT26     565      MECN     H12      HGA3     0.090000        1.0080           0
     77922 WT26     565      MECN     H13      HGA3     0.090000        1.0080           0
     77923 WT26     565      MECN     C2       CG1N1    0.360000       12.0110           0
     77924 WT26     565      MECN     N3       NG1T1   -0.460000       14.0070           0
     77925 WT26     572      MECN     C1       CG331   -0.170000       12.0110           0
     77926 WT26     572      MECN     H11      HGA3     0.090000        1.0080           0
     77927 WT26     572      MECN     H12      HGA3     0.090000        1.0080           0
     77928 WT26     572      MECN     H13      HGA3     0.090000        1.0080           0
     77929 WT26     572      MECN     C2       CG1N1    0.360000       12.0110           0
     77930 WT26     572      MECN     N3       NG1T1   -0.460000       14.0070           0
     77931 WT26     575      MECN     C1       CG331   -0.170000       12.0110           0
     77932 WT26     575      MECN     H11      HGA3     0.090000        1.0080           0
     77933 WT26     575      MECN     H12      HGA3     0.090000        1.0080           0
     77934 WT26     575      MECN     H13      HGA3     0.090000        1.0080           0
     77935 WT26     575      MECN     C2       CG1N1    0.360000       12.0110           0
     77936 WT26     575      MECN     N3       NG1T1   -0.460000       14.0070           0
     77937 WT26     576      MECN     C1       CG331   -0.170000       12.0110           0
     77938 WT26     576      MECN     H11      HGA3     0.090000        1.0080           0
     77939 WT26     576      MECN     H12      HGA3     0.090000        1.0080           0
     77940 WT26     576      MECN     H13      HGA3     0.090000        1.0080           0
     77941 WT26     576      MECN     C2       CG1N1    0.360000       12.0110           0
     77942 WT26     576      MECN     N3       NG1T1   -0.460000       14.0070           0
     77943 WT26     577      MECN     C1       CG331   -0.170000       12.0110           0
     77944 WT26     577      MECN     H11      HGA3     0.090000        1.0080           0
     77945 WT26     577      MECN     H12      HGA3     0.090000        1.0080           0
     77946 WT26     577      MECN     H13      HGA3     0.090000        1.0080           0
     77947 WT26     577      MECN     C2       CG1N1    0.360000       12.0110           0
     77948 WT26     577      MECN     N3       NG1T1   -0.460000       14.0070           0
     77949 WT26     582      MECN     C1       CG331   -0.170000       12.0110           0
     77950 WT26     582      MECN     H11      HGA3     0.090000        1.0080           0
     77951 WT26     582      MECN     H12      HGA3     0.090000        1.0080           0
     77952 WT26     582      MECN     H13      HGA3     0.090000        1.0080           0
     77953 WT26     582      MECN     C2       CG1N1    0.360000       12.0110           0
     77954 WT26     582      MECN     N3       NG1T1   -0.460000       14.0070           0
     77955 WT26     584      MECN     C1       CG331   -0.170000       12.0110           0
     77956 WT26     584      MECN     H11      HGA3     0.090000        1.0080           0
     77957 WT26     584      MECN     H12      HGA3     0.090000        1.0080           0
     77958 WT26     584      MECN     H13      HGA3     0.090000        1.0080           0
     77959 WT26     584      MECN     C2       CG1N1    0.360000       12.0110           0
     77960 WT26     584      MECN     N3       NG1T1   -0.460000       14.0070           0
     77961 WT26     588      MECN     C1       CG331   -0.170000       12.0110           0
     77962 WT26     588      MECN     H11      HGA3     0.090000        1.0080           0
     77963 WT26     588      MECN     H12      HGA3     0.090000        1.0080           0
     77964 WT26     588      MECN     H13      HGA3     0.090000        1.0080           0
     77965 WT26     588      MECN     C2       CG1N1    0.360000       12.0110           0
     77966 WT26     588      MECN     N3       NG1T1   -0.460000       14.0070           0
     77967 WT26     591      MECN     C1       CG331   -0.170000       12.0110           0
     77968 WT26     591      MECN     H11      HGA3     0.090000        1.0080           0
     77969 WT26     591      MECN     H12      HGA3     0.090000        1.0080           0
     77970 WT26     591      MECN     H13      HGA3     0.090000        1.0080           0
     77971 WT26     591      MECN     C2       CG1N1    0.360000       12.0110           0
     77972 WT26     591      MECN     N3       NG1T1   -0.460000       14.0070           0
     77973 WT26     592      MECN     C1       CG331   -0.170000       12.0110           0
     77974 WT26     592      MECN     H11      HGA3     0.090000        1.0080           0
     77975 WT26     592      MECN     H12      HGA3     0.090000        1.0080           0
     77976 WT26     592      MECN     H13      HGA3     0.090000        1.0080           0
     77977 WT26     592      MECN     C2       CG1N1    0.360000       12.0110           0
     77978 WT26     592      MECN     N3       NG1T1   -0.460000       14.0070           0
     77979 WT26     593      MECN     C1       CG331   -0.170000       12.0110           0
     77980 WT26     593      MECN     H11      HGA3     0.090000        1.0080           0
     77981 WT26     593      MECN     H12      HGA3     0.090000        1.0080           0
     77982 WT26     593      MECN     H13      HGA3     0.090000        1.0080           0
     77983 WT26     593      MECN     C2       CG1N1    0.360000       12.0110           0
     77984 WT26     593      MECN     N3       NG1T1   -0.460000       14.0070           0
     77985 WT26     596      MECN     C1       CG331   -0.170000       12.0110           0
     77986 WT26     596      MECN     H11      HGA3     0.090000        1.0080           0
     77987 WT26     596      MECN     H12      HGA3     0.090000        1.0080           0
     77988 WT26     596      MECN     H13      HGA3     0.090000        1.0080           0
     77989 WT26     596      MECN     C2       CG1N1    0.360000       12.0110           0
     77990 WT26     596      MECN     N3       NG1T1   -0.460000       14.0070           0
     77991 WT26     597      MECN     C1       CG331   -0.170000       12.0110           0
     77992 WT26     597      MECN     H11      HGA3     0.090000        1.0080           0
     77993 WT26     597      MECN     H12      HGA3     0.090000        1.0080           0
     77994 WT26     597      MECN     H13      HGA3     0.090000        1.0080           0
     77995 WT26     597      MECN     C2       CG1N1    0.360000       12.0110           0
     77996 WT26     597      MECN     N3       NG1T1   -0.460000       14.0070           0
     77997 WT26     599      MECN     C1       CG331   -0.170000       12.0110           0
     77998 WT26     599      MECN     H11      HGA3     0.090000        1.0080           0
     77999 WT26     599      MECN     H12      HGA3     0.090000        1.0080           0
     78000 WT26     599      MECN     H13      HGA3     0.090000        1.0080           0
     78001 WT26     599      MECN     C2       CG1N1    0.360000       12.0110           0
     78002 WT26     599      MECN     N3       NG1T1   -0.460000       14.0070           0
     78003 WT26     600      MECN     C1       CG331   -0.170000       12.0110           0
     78004 WT26     600      MECN     H11      HGA3     0.090000        1.0080           0
     78005 WT26     600      MECN     H12      HGA3     0.090000        1.0080           0
     78006 WT26     600      MECN     H13      HGA3     0.090000        1.0080           0
     78007 WT26     600      MECN     C2       CG1N1    0.360000       12.0110           0
     78008 WT26     600      MECN     N3       NG1T1   -0.460000       14.0070           0
     78009 WT26     601      MECN     C1       CG331   -0.170000       12.0110           0
     78010 WT26     601      MECN     H11      HGA3     0.090000        1.0080           0
     78011 WT26     601      MECN     H12      HGA3     0.090000        1.0080           0
     78012 WT26     601      MECN     H13      HGA3     0.090000        1.0080           0
     78013 WT26     601      MECN     C2       CG1N1    0.360000       12.0110           0
     78014 WT26     601      MECN     N3       NG1T1   -0.460000       14.0070           0
     78015 WT26     603      MECN     C1       CG331   -0.170000       12.0110           0
     78016 WT26     603      MECN     H11      HGA3     0.090000        1.0080           0
     78017 WT26     603      MECN     H12      HGA3     0.090000        1.0080           0
     78018 WT26     603      MECN     H13      HGA3     0.090000        1.0080           0
     78019 WT26     603      MECN     C2       CG1N1    0.360000       12.0110           0
     78020 WT26     603      MECN     N3       NG1T1   -0.460000       14.0070           0
     78021 WT26     604      MECN     C1       CG331   -0.170000       12.0110           0
     78022 WT26     604      MECN     H11      HGA3     0.090000        1.0080           0
     78023 WT26     604      MECN     H12      HGA3     0.090000        1.0080           0
     78024 WT26     604      MECN     H13      HGA3     0.090000        1.0080           0
     78025 WT26     604      MECN     C2       CG1N1    0.360000       12.0110           0
     78026 WT26     604      MECN     N3       NG1T1   -0.460000       14.0070           0
     78027 WT26     607      MECN     C1       CG331   -0.170000       12.0110           0
     78028 WT26     607      MECN     H11      HGA3     0.090000        1.0080           0
     78029 WT26     607      MECN     H12      HGA3     0.090000        1.0080           0
     78030 WT26     607      MECN     H13      HGA3     0.090000        1.0080           0
     78031 WT26     607      MECN     C2       CG1N1    0.360000       12.0110           0
     78032 WT26     607      MECN     N3       NG1T1   -0.460000       14.0070           0
     78033 WT26     608      MECN     C1       CG331   -0.170000       12.0110           0
     78034 WT26     608      MECN     H11      HGA3     0.090000        1.0080           0
     78035 WT26     608      MECN     H12      HGA3     0.090000        1.0080           0
     78036 WT26     608      MECN     H13      HGA3     0.090000        1.0080           0
     78037 WT26     608      MECN     C2       CG1N1    0.360000       12.0110           0
     78038 WT26     608      MECN     N3       NG1T1   -0.460000       14.0070           0
     78039 WT26     609      MECN     C1       CG331   -0.170000       12.0110           0
     78040 WT26     609      MECN     H11      HGA3     0.090000        1.0080           0
     78041 WT26     609      MECN     H12      HGA3     0.090000        1.0080           0
     78042 WT26     609      MECN     H13      HGA3     0.090000        1.0080           0
     78043 WT26     609      MECN     C2       CG1N1    0.360000       12.0110           0
     78044 WT26     609      MECN     N3       NG1T1   -0.460000       14.0070           0
     78045 WT26     615      MECN     C1       CG331   -0.170000       12.0110           0
     78046 WT26     615      MECN     H11      HGA3     0.090000        1.0080           0
     78047 WT26     615      MECN     H12      HGA3     0.090000        1.0080           0
     78048 WT26     615      MECN     H13      HGA3     0.090000        1.0080           0
     78049 WT26     615      MECN     C2       CG1N1    0.360000       12.0110           0
     78050 WT26     615      MECN     N3       NG1T1   -0.460000       14.0070           0
     78051 WT26     616      MECN     C1       CG331   -0.170000       12.0110           0
     78052 WT26     616      MECN     H11      HGA3     0.090000        1.0080           0
     78053 WT26     616      MECN     H12      HGA3     0.090000        1.0080           0
     78054 WT26     616      MECN     H13      HGA3     0.090000        1.0080           0
     78055 WT26     616      MECN     C2       CG1N1    0.360000       12.0110           0
     78056 WT26     616      MECN     N3       NG1T1   -0.460000       14.0070           0
     78057 WT26     617      MECN     C1       CG331   -0.170000       12.0110           0
     78058 WT26     617      MECN     H11      HGA3     0.090000        1.0080           0
     78059 WT26     617      MECN     H12      HGA3     0.090000        1.0080           0
     78060 WT26     617      MECN     H13      HGA3     0.090000        1.0080           0
     78061 WT26     617      MECN     C2       CG1N1    0.360000       12.0110           0
     78062 WT26     617      MECN     N3       NG1T1   -0.460000       14.0070           0
     78063 WT26     618      MECN     C1       CG331   -0.170000       12.0110           0
     78064 WT26     618      MECN     H11      HGA3     0.090000        1.0080           0
     78065 WT26     618      MECN     H12      HGA3     0.090000        1.0080           0
     78066 WT26     618      MECN     H13      HGA3     0.090000        1.0080           0
     78067 WT26     618      MECN     C2       CG1N1    0.360000       12.0110           0
     78068 WT26     618      MECN     N3       NG1T1   -0.460000       14.0070           0
     78069 WT26     619      MECN     C1       CG331   -0.170000       12.0110           0
     78070 WT26     619      MECN     H11      HGA3     0.090000        1.0080           0
     78071 WT26     619      MECN     H12      HGA3     0.090000        1.0080           0
     78072 WT26     619      MECN     H13      HGA3     0.090000        1.0080           0
     78073 WT26     619      MECN     C2       CG1N1    0.360000       12.0110           0
     78074 WT26     619      MECN     N3       NG1T1   -0.460000       14.0070           0
     78075 WT26     621      MECN     C1       CG331   -0.170000       12.0110           0
     78076 WT26     621      MECN     H11      HGA3     0.090000        1.0080           0
     78077 WT26     621      MECN     H12      HGA3     0.090000        1.0080           0
     78078 WT26     621      MECN     H13      HGA3     0.090000        1.0080           0
     78079 WT26     621      MECN     C2       CG1N1    0.360000       12.0110           0
     78080 WT26     621      MECN     N3       NG1T1   -0.460000       14.0070           0
     78081 WT26     622      MECN     C1       CG331   -0.170000       12.0110           0
     78082 WT26     622      MECN     H11      HGA3     0.090000        1.0080           0
     78083 WT26     622      MECN     H12      HGA3     0.090000        1.0080           0
     78084 WT26     622      MECN     H13      HGA3     0.090000        1.0080           0
     78085 WT26     622      MECN     C2       CG1N1    0.360000       12.0110           0
     78086 WT26     622      MECN     N3       NG1T1   -0.460000       14.0070           0
     78087 WT26     624      MECN     C1       CG331   -0.170000       12.0110           0
     78088 WT26     624      MECN     H11      HGA3     0.090000        1.0080           0
     78089 WT26     624      MECN     H12      HGA3     0.090000        1.0080           0
     78090 WT26     624      MECN     H13      HGA3     0.090000        1.0080           0
     78091 WT26     624      MECN     C2       CG1N1    0.360000       12.0110           0
     78092 WT26     624      MECN     N3       NG1T1   -0.460000       14.0070           0
     78093 WT26     626      MECN     C1       CG331   -0.170000       12.0110           0
     78094 WT26     626      MECN     H11      HGA3     0.090000        1.0080           0
     78095 WT26     626      MECN     H12      HGA3     0.090000        1.0080           0
     78096 WT26     626      MECN     H13      HGA3     0.090000        1.0080           0
     78097 WT26     626      MECN     C2       CG1N1    0.360000       12.0110           0
     78098 WT26     626      MECN     N3       NG1T1   -0.460000       14.0070           0
     78099 WT26     627      MECN     C1       CG331   -0.170000       12.0110           0
     78100 WT26     627      MECN     H11      HGA3     0.090000        1.0080           0
     78101 WT26     627      MECN     H12      HGA3     0.090000        1.0080           0
     78102 WT26     627      MECN     H13      HGA3     0.090000        1.0080           0
     78103 WT26     627      MECN     C2       CG1N1    0.360000       12.0110           0
     78104 WT26     627      MECN     N3       NG1T1   -0.460000       14.0070           0
     78105 WT26     628      MECN     C1       CG331   -0.170000       12.0110           0
     78106 WT26     628      MECN     H11      HGA3     0.090000        1.0080           0
     78107 WT26     628      MECN     H12      HGA3     0.090000        1.0080           0
     78108 WT26     628      MECN     H13      HGA3     0.090000        1.0080           0
     78109 WT26     628      MECN     C2       CG1N1    0.360000       12.0110           0
     78110 WT26     628      MECN     N3       NG1T1   -0.460000       14.0070           0
     78111 WT26     629      MECN     C1       CG331   -0.170000       12.0110           0
     78112 WT26     629      MECN     H11      HGA3     0.090000        1.0080           0
     78113 WT26     629      MECN     H12      HGA3     0.090000        1.0080           0
     78114 WT26     629      MECN     H13      HGA3     0.090000        1.0080           0
     78115 WT26     629      MECN     C2       CG1N1    0.360000       12.0110           0
     78116 WT26     629      MECN     N3       NG1T1   -0.460000       14.0070           0
     78117 WT26     631      MECN     C1       CG331   -0.170000       12.0110           0
     78118 WT26     631      MECN     H11      HGA3     0.090000        1.0080           0
     78119 WT26     631      MECN     H12      HGA3     0.090000        1.0080           0
     78120 WT26     631      MECN     H13      HGA3     0.090000        1.0080           0
     78121 WT26     631      MECN     C2       CG1N1    0.360000       12.0110           0
     78122 WT26     631      MECN     N3       NG1T1   -0.460000       14.0070           0
     78123 WT26     633      MECN     C1       CG331   -0.170000       12.0110           0
     78124 WT26     633      MECN     H11      HGA3     0.090000        1.0080           0
     78125 WT26     633      MECN     H12      HGA3     0.090000        1.0080           0
     78126 WT26     633      MECN     H13      HGA3     0.090000        1.0080           0
     78127 WT26     633      MECN     C2       CG1N1    0.360000       12.0110           0
     78128 WT26     633      MECN     N3       NG1T1   -0.460000       14.0070           0
     78129 WT26     635      MECN     C1       CG331   -0.170000       12.0110           0
     78130 WT26     635      MECN     H11      HGA3     0.090000        1.0080           0
     78131 WT26     635      MECN     H12      HGA3     0.090000        1.0080           0
     78132 WT26     635      MECN     H13      HGA3     0.090000        1.0080           0
     78133 WT26     635      MECN     C2       CG1N1    0.360000       12.0110           0
     78134 WT26     635      MECN     N3       NG1T1   -0.460000       14.0070           0
     78135 WT26     640      MECN     C1       CG331   -0.170000       12.0110           0
     78136 WT26     640      MECN     H11      HGA3     0.090000        1.0080           0
     78137 WT26     640      MECN     H12      HGA3     0.090000        1.0080           0
     78138 WT26     640      MECN     H13      HGA3     0.090000        1.0080           0
     78139 WT26     640      MECN     C2       CG1N1    0.360000       12.0110           0
     78140 WT26     640      MECN     N3       NG1T1   -0.460000       14.0070           0
     78141 WT26     643      MECN     C1       CG331   -0.170000       12.0110           0
     78142 WT26     643      MECN     H11      HGA3     0.090000        1.0080           0
     78143 WT26     643      MECN     H12      HGA3     0.090000        1.0080           0
     78144 WT26     643      MECN     H13      HGA3     0.090000        1.0080           0
     78145 WT26     643      MECN     C2       CG1N1    0.360000       12.0110           0
     78146 WT26     643      MECN     N3       NG1T1   -0.460000       14.0070           0
     78147 WT26     645      MECN     C1       CG331   -0.170000       12.0110           0
     78148 WT26     645      MECN     H11      HGA3     0.090000        1.0080           0
     78149 WT26     645      MECN     H12      HGA3     0.090000        1.0080           0
     78150 WT26     645      MECN     H13      HGA3     0.090000        1.0080           0
     78151 WT26     645      MECN     C2       CG1N1    0.360000       12.0110           0
     78152 WT26     645      MECN     N3       NG1T1   -0.460000       14.0070           0
     78153 WT26     646      MECN     C1       CG331   -0.170000       12.0110           0
     78154 WT26     646      MECN     H11      HGA3     0.090000        1.0080           0
     78155 WT26     646      MECN     H12      HGA3     0.090000        1.0080           0
     78156 WT26     646      MECN     H13      HGA3     0.090000        1.0080           0
     78157 WT26     646      MECN     C2       CG1N1    0.360000       12.0110           0
     78158 WT26     646      MECN     N3       NG1T1   -0.460000       14.0070           0
     78159 WT26     648      MECN     C1       CG331   -0.170000       12.0110           0
     78160 WT26     648      MECN     H11      HGA3     0.090000        1.0080           0
     78161 WT26     648      MECN     H12      HGA3     0.090000        1.0080           0
     78162 WT26     648      MECN     H13      HGA3     0.090000        1.0080           0
     78163 WT26     648      MECN     C2       CG1N1    0.360000       12.0110           0
     78164 WT26     648      MECN     N3       NG1T1   -0.460000       14.0070           0
     78165 WT26     649      MECN     C1       CG331   -0.170000       12.0110           0
     78166 WT26     649      MECN     H11      HGA3     0.090000        1.0080           0
     78167 WT26     649      MECN     H12      HGA3     0.090000        1.0080           0
     78168 WT26     649      MECN     H13      HGA3     0.090000        1.0080           0
     78169 WT26     649      MECN     C2       CG1N1    0.360000       12.0110           0
     78170 WT26     649      MECN     N3       NG1T1   -0.460000       14.0070           0
     78171 WT26     653      MECN     C1       CG331   -0.170000       12.0110           0
     78172 WT26     653      MECN     H11      HGA3     0.090000        1.0080           0
     78173 WT26     653      MECN     H12      HGA3     0.090000        1.0080           0
     78174 WT26     653      MECN     H13      HGA3     0.090000        1.0080           0
     78175 WT26     653      MECN     C2       CG1N1    0.360000       12.0110           0
     78176 WT26     653      MECN     N3       NG1T1   -0.460000       14.0070           0
     78177 WT26     654      MECN     C1       CG331   -0.170000       12.0110           0
     78178 WT26     654      MECN     H11      HGA3     0.090000        1.0080           0
     78179 WT26     654      MECN     H12      HGA3     0.090000        1.0080           0
     78180 WT26     654      MECN     H13      HGA3     0.090000        1.0080           0
     78181 WT26     654      MECN     C2       CG1N1    0.360000       12.0110           0
     78182 WT26     654      MECN     N3       NG1T1   -0.460000       14.0070           0
     78183 WT26     657      MECN     C1       CG331   -0.170000       12.0110           0
     78184 WT26     657      MECN     H11      HGA3     0.090000        1.0080           0
     78185 WT26     657      MECN     H12      HGA3     0.090000        1.0080           0
     78186 WT26     657      MECN     H13      HGA3     0.090000        1.0080           0
     78187 WT26     657      MECN     C2       CG1N1    0.360000       12.0110           0
     78188 WT26     657      MECN     N3       NG1T1   -0.460000       14.0070           0
     78189 WT26     660      MECN     C1       CG331   -0.170000       12.0110           0
     78190 WT26     660      MECN     H11      HGA3     0.090000        1.0080           0
     78191 WT26     660      MECN     H12      HGA3     0.090000        1.0080           0
     78192 WT26     660      MECN     H13      HGA3     0.090000        1.0080           0
     78193 WT26     660      MECN     C2       CG1N1    0.360000       12.0110           0
     78194 WT26     660      MECN     N3       NG1T1   -0.460000       14.0070           0
     78195 WT26     662      MECN     C1       CG331   -0.170000       12.0110           0
     78196 WT26     662      MECN     H11      HGA3     0.090000        1.0080           0
     78197 WT26     662      MECN     H12      HGA3     0.090000        1.0080           0
     78198 WT26     662      MECN     H13      HGA3     0.090000        1.0080           0
     78199 WT26     662      MECN     C2       CG1N1    0.360000       12.0110           0
     78200 WT26     662      MECN     N3       NG1T1   -0.460000       14.0070           0
     78201 WT26     665      MECN     C1       CG331   -0.170000       12.0110           0
     78202 WT26     665      MECN     H11      HGA3     0.090000        1.0080           0
     78203 WT26     665      MECN     H12      HGA3     0.090000        1.0080           0
     78204 WT26     665      MECN     H13      HGA3     0.090000        1.0080           0
     78205 WT26     665      MECN     C2       CG1N1    0.360000       12.0110           0
     78206 WT26     665      MECN     N3       NG1T1   -0.460000       14.0070           0
     78207 WT26     666      MECN     C1       CG331   -0.170000       12.0110           0
     78208 WT26     666      MECN     H11      HGA3     0.090000        1.0080           0
     78209 WT26     666      MECN     H12      HGA3     0.090000        1.0080           0
     78210 WT26     666      MECN     H13      HGA3     0.090000        1.0080           0
     78211 WT26     666      MECN     C2       CG1N1    0.360000       12.0110           0
     78212 WT26     666      MECN     N3       NG1T1   -0.460000       14.0070           0
     78213 WT26     667      MECN     C1       CG331   -0.170000       12.0110           0
     78214 WT26     667      MECN     H11      HGA3     0.090000        1.0080           0
     78215 WT26     667      MECN     H12      HGA3     0.090000        1.0080           0
     78216 WT26     667      MECN     H13      HGA3     0.090000        1.0080           0
     78217 WT26     667      MECN     C2       CG1N1    0.360000       12.0110           0
     78218 WT26     667      MECN     N3       NG1T1   -0.460000       14.0070           0
     78219 WT26     668      MECN     C1       CG331   -0.170000       12.0110           0
     78220 WT26     668      MECN     H11      HGA3     0.090000        1.0080           0
     78221 WT26     668      MECN     H12      HGA3     0.090000        1.0080           0
     78222 WT26     668      MECN     H13      HGA3     0.090000        1.0080           0
     78223 WT26     668      MECN     C2       CG1N1    0.360000       12.0110           0
     78224 WT26     668      MECN     N3       NG1T1   -0.460000       14.0070           0
     78225 WT26     669      MECN     C1       CG331   -0.170000       12.0110           0
     78226 WT26     669      MECN     H11      HGA3     0.090000        1.0080           0
     78227 WT26     669      MECN     H12      HGA3     0.090000        1.0080           0
     78228 WT26     669      MECN     H13      HGA3     0.090000        1.0080           0
     78229 WT26     669      MECN     C2       CG1N1    0.360000       12.0110           0
     78230 WT26     669      MECN     N3       NG1T1   -0.460000       14.0070           0
     78231 WT26     671      MECN     C1       CG331   -0.170000       12.0110           0
     78232 WT26     671      MECN     H11      HGA3     0.090000        1.0080           0
     78233 WT26     671      MECN     H12      HGA3     0.090000        1.0080           0
     78234 WT26     671      MECN     H13      HGA3     0.090000        1.0080           0
     78235 WT26     671      MECN     C2       CG1N1    0.360000       12.0110           0
     78236 WT26     671      MECN     N3       NG1T1   -0.460000       14.0070           0
     78237 WT26     675      MECN     C1       CG331   -0.170000       12.0110           0
     78238 WT26     675      MECN     H11      HGA3     0.090000        1.0080           0
     78239 WT26     675      MECN     H12      HGA3     0.090000        1.0080           0
     78240 WT26     675      MECN     H13      HGA3     0.090000        1.0080           0
     78241 WT26     675      MECN     C2       CG1N1    0.360000       12.0110           0
     78242 WT26     675      MECN     N3       NG1T1   -0.460000       14.0070           0
     78243 WT26     676      MECN     C1       CG331   -0.170000       12.0110           0
     78244 WT26     676      MECN     H11      HGA3     0.090000        1.0080           0
     78245 WT26     676      MECN     H12      HGA3     0.090000        1.0080           0
     78246 WT26     676      MECN     H13      HGA3     0.090000        1.0080           0
     78247 WT26     676      MECN     C2       CG1N1    0.360000       12.0110           0
     78248 WT26     676      MECN     N3       NG1T1   -0.460000       14.0070           0
     78249 WT26     677      MECN     C1       CG331   -0.170000       12.0110           0
     78250 WT26     677      MECN     H11      HGA3     0.090000        1.0080           0
     78251 WT26     677      MECN     H12      HGA3     0.090000        1.0080           0
     78252 WT26     677      MECN     H13      HGA3     0.090000        1.0080           0
     78253 WT26     677      MECN     C2       CG1N1    0.360000       12.0110           0
     78254 WT26     677      MECN     N3       NG1T1   -0.460000       14.0070           0
     78255 WT26     678      MECN     C1       CG331   -0.170000       12.0110           0
     78256 WT26     678      MECN     H11      HGA3     0.090000        1.0080           0
     78257 WT26     678      MECN     H12      HGA3     0.090000        1.0080           0
     78258 WT26     678      MECN     H13      HGA3     0.090000        1.0080           0
     78259 WT26     678      MECN     C2       CG1N1    0.360000       12.0110           0
     78260 WT26     678      MECN     N3       NG1T1   -0.460000       14.0070           0
     78261 WT26     683      MECN     C1       CG331   -0.170000       12.0110           0
     78262 WT26     683      MECN     H11      HGA3     0.090000        1.0080           0
     78263 WT26     683      MECN     H12      HGA3     0.090000        1.0080           0
     78264 WT26     683      MECN     H13      HGA3     0.090000        1.0080           0
     78265 WT26     683      MECN     C2       CG1N1    0.360000       12.0110           0
     78266 WT26     683      MECN     N3       NG1T1   -0.460000       14.0070           0
     78267 WT26     685      MECN     C1       CG331   -0.170000       12.0110           0
     78268 WT26     685      MECN     H11      HGA3     0.090000        1.0080           0
     78269 WT26     685      MECN     H12      HGA3     0.090000        1.0080           0
     78270 WT26     685      MECN     H13      HGA3     0.090000        1.0080           0
     78271 WT26     685      MECN     C2       CG1N1    0.360000       12.0110           0
     78272 WT26     685      MECN     N3       NG1T1   -0.460000       14.0070           0
     78273 WT26     686      MECN     C1       CG331   -0.170000       12.0110           0
     78274 WT26     686      MECN     H11      HGA3     0.090000        1.0080           0
     78275 WT26     686      MECN     H12      HGA3     0.090000        1.0080           0
     78276 WT26     686      MECN     H13      HGA3     0.090000        1.0080           0
     78277 WT26     686      MECN     C2       CG1N1    0.360000       12.0110           0
     78278 WT26     686      MECN     N3       NG1T1   -0.460000       14.0070           0
     78279 WT26     690      MECN     C1       CG331   -0.170000       12.0110           0
     78280 WT26     690      MECN     H11      HGA3     0.090000        1.0080           0
     78281 WT26     690      MECN     H12      HGA3     0.090000        1.0080           0
     78282 WT26     690      MECN     H13      HGA3     0.090000        1.0080           0
     78283 WT26     690      MECN     C2       CG1N1    0.360000       12.0110           0
     78284 WT26     690      MECN     N3       NG1T1   -0.460000       14.0070           0
     78285 WT26     691      MECN     C1       CG331   -0.170000       12.0110           0
     78286 WT26     691      MECN     H11      HGA3     0.090000        1.0080           0
     78287 WT26     691      MECN     H12      HGA3     0.090000        1.0080           0
     78288 WT26     691      MECN     H13      HGA3     0.090000        1.0080           0
     78289 WT26     691      MECN     C2       CG1N1    0.360000       12.0110           0
     78290 WT26     691      MECN     N3       NG1T1   -0.460000       14.0070           0
     78291 WT26     693      MECN     C1       CG331   -0.170000       12.0110           0
     78292 WT26     693      MECN     H11      HGA3     0.090000        1.0080           0
     78293 WT26     693      MECN     H12      HGA3     0.090000        1.0080           0
     78294 WT26     693      MECN     H13      HGA3     0.090000        1.0080           0
     78295 WT26     693      MECN     C2       CG1N1    0.360000       12.0110           0
     78296 WT26     693      MECN     N3       NG1T1   -0.460000       14.0070           0
     78297 WT26     694      MECN     C1       CG331   -0.170000       12.0110           0
     78298 WT26     694      MECN     H11      HGA3     0.090000        1.0080           0
     78299 WT26     694      MECN     H12      HGA3     0.090000        1.0080           0
     78300 WT26     694      MECN     H13      HGA3     0.090000        1.0080           0
     78301 WT26     694      MECN     C2       CG1N1    0.360000       12.0110           0
     78302 WT26     694      MECN     N3       NG1T1   -0.460000       14.0070           0
     78303 WT26     695      MECN     C1       CG331   -0.170000       12.0110           0
     78304 WT26     695      MECN     H11      HGA3     0.090000        1.0080           0
     78305 WT26     695      MECN     H12      HGA3     0.090000        1.0080           0
     78306 WT26     695      MECN     H13      HGA3     0.090000        1.0080           0
     78307 WT26     695      MECN     C2       CG1N1    0.360000       12.0110           0
     78308 WT26     695      MECN     N3       NG1T1   -0.460000       14.0070           0
     78309 WT26     696      MECN     C1       CG331   -0.170000       12.0110           0
     78310 WT26     696      MECN     H11      HGA3     0.090000        1.0080           0
     78311 WT26     696      MECN     H12      HGA3     0.090000        1.0080           0
     78312 WT26     696      MECN     H13      HGA3     0.090000        1.0080           0
     78313 WT26     696      MECN     C2       CG1N1    0.360000       12.0110           0
     78314 WT26     696      MECN     N3       NG1T1   -0.460000       14.0070           0
     78315 WT26     697      MECN     C1       CG331   -0.170000       12.0110           0
     78316 WT26     697      MECN     H11      HGA3     0.090000        1.0080           0
     78317 WT26     697      MECN     H12      HGA3     0.090000        1.0080           0
     78318 WT26     697      MECN     H13      HGA3     0.090000        1.0080           0
     78319 WT26     697      MECN     C2       CG1N1    0.360000       12.0110           0
     78320 WT26     697      MECN     N3       NG1T1   -0.460000       14.0070           0
     78321 WT26     698      MECN     C1       CG331   -0.170000       12.0110           0
     78322 WT26     698      MECN     H11      HGA3     0.090000        1.0080           0
     78323 WT26     698      MECN     H12      HGA3     0.090000        1.0080           0
     78324 WT26     698      MECN     H13      HGA3     0.090000        1.0080           0
     78325 WT26     698      MECN     C2       CG1N1    0.360000       12.0110           0
     78326 WT26     698      MECN     N3       NG1T1   -0.460000       14.0070           0
     78327 WT26     701      MECN     C1       CG331   -0.170000       12.0110           0
     78328 WT26     701      MECN     H11      HGA3     0.090000        1.0080           0
     78329 WT26     701      MECN     H12      HGA3     0.090000        1.0080           0
     78330 WT26     701      MECN     H13      HGA3     0.090000        1.0080           0
     78331 WT26     701      MECN     C2       CG1N1    0.360000       12.0110           0
     78332 WT26     701      MECN     N3       NG1T1   -0.460000       14.0070           0
     78333 WT26     702      MECN     C1       CG331   -0.170000       12.0110           0
     78334 WT26     702      MECN     H11      HGA3     0.090000        1.0080           0
     78335 WT26     702      MECN     H12      HGA3     0.090000        1.0080           0
     78336 WT26     702      MECN     H13      HGA3     0.090000        1.0080           0
     78337 WT26     702      MECN     C2       CG1N1    0.360000       12.0110           0
     78338 WT26     702      MECN     N3       NG1T1   -0.460000       14.0070           0
     78339 WT26     707      MECN     C1       CG331   -0.170000       12.0110           0
     78340 WT26     707      MECN     H11      HGA3     0.090000        1.0080           0
     78341 WT26     707      MECN     H12      HGA3     0.090000        1.0080           0
     78342 WT26     707      MECN     H13      HGA3     0.090000        1.0080           0
     78343 WT26     707      MECN     C2       CG1N1    0.360000       12.0110           0
     78344 WT26     707      MECN     N3       NG1T1   -0.460000       14.0070           0
     78345 WT26     711      MECN     C1       CG331   -0.170000       12.0110           0
     78346 WT26     711      MECN     H11      HGA3     0.090000        1.0080           0
     78347 WT26     711      MECN     H12      HGA3     0.090000        1.0080           0
     78348 WT26     711      MECN     H13      HGA3     0.090000        1.0080           0
     78349 WT26     711      MECN     C2       CG1N1    0.360000       12.0110           0
     78350 WT26     711      MECN     N3       NG1T1   -0.460000       14.0070           0
     78351 WT26     713      MECN     C1       CG331   -0.170000       12.0110           0
     78352 WT26     713      MECN     H11      HGA3     0.090000        1.0080           0
     78353 WT26     713      MECN     H12      HGA3     0.090000        1.0080           0
     78354 WT26     713      MECN     H13      HGA3     0.090000        1.0080           0
     78355 WT26     713      MECN     C2       CG1N1    0.360000       12.0110           0
     78356 WT26     713      MECN     N3       NG1T1   -0.460000       14.0070           0
     78357 WT26     716      MECN     C1       CG331   -0.170000       12.0110           0
     78358 WT26     716      MECN     H11      HGA3     0.090000        1.0080           0
     78359 WT26     716      MECN     H12      HGA3     0.090000        1.0080           0
     78360 WT26     716      MECN     H13      HGA3     0.090000        1.0080           0
     78361 WT26     716      MECN     C2       CG1N1    0.360000       12.0110           0
     78362 WT26     716      MECN     N3       NG1T1   -0.460000       14.0070           0
     78363 WT26     720      MECN     C1       CG331   -0.170000       12.0110           0
     78364 WT26     720      MECN     H11      HGA3     0.090000        1.0080           0
     78365 WT26     720      MECN     H12      HGA3     0.090000        1.0080           0
     78366 WT26     720      MECN     H13      HGA3     0.090000        1.0080           0
     78367 WT26     720      MECN     C2       CG1N1    0.360000       12.0110           0
     78368 WT26     720      MECN     N3       NG1T1   -0.460000       14.0070           0
     78369 WT26     721      MECN     C1       CG331   -0.170000       12.0110           0
     78370 WT26     721      MECN     H11      HGA3     0.090000        1.0080           0
     78371 WT26     721      MECN     H12      HGA3     0.090000        1.0080           0
     78372 WT26     721      MECN     H13      HGA3     0.090000        1.0080           0
     78373 WT26     721      MECN     C2       CG1N1    0.360000       12.0110           0
     78374 WT26     721      MECN     N3       NG1T1   -0.460000       14.0070           0
     78375 WT26     723      MECN     C1       CG331   -0.170000       12.0110           0
     78376 WT26     723      MECN     H11      HGA3     0.090000        1.0080           0
     78377 WT26     723      MECN     H12      HGA3     0.090000        1.0080           0
     78378 WT26     723      MECN     H13      HGA3     0.090000        1.0080           0
     78379 WT26     723      MECN     C2       CG1N1    0.360000       12.0110           0
     78380 WT26     723      MECN     N3       NG1T1   -0.460000       14.0070           0
     78381 WT26     729      MECN     C1       CG331   -0.170000       12.0110           0
     78382 WT26     729      MECN     H11      HGA3     0.090000        1.0080           0
     78383 WT26     729      MECN     H12      HGA3     0.090000        1.0080           0
     78384 WT26     729      MECN     H13      HGA3     0.090000        1.0080           0
     78385 WT26     729      MECN     C2       CG1N1    0.360000       12.0110           0
     78386 WT26     729      MECN     N3       NG1T1   -0.460000       14.0070           0
     78387 WT26     730      MECN     C1       CG331   -0.170000       12.0110           0
     78388 WT26     730      MECN     H11      HGA3     0.090000        1.0080           0
     78389 WT26     730      MECN     H12      HGA3     0.090000        1.0080           0
     78390 WT26     730      MECN     H13      HGA3     0.090000        1.0080           0
     78391 WT26     730      MECN     C2       CG1N1    0.360000       12.0110           0
     78392 WT26     730      MECN     N3       NG1T1   -0.460000       14.0070           0
     78393 WT26     732      MECN     C1       CG331   -0.170000       12.0110           0
     78394 WT26     732      MECN     H11      HGA3     0.090000        1.0080           0
     78395 WT26     732      MECN     H12      HGA3     0.090000        1.0080           0
     78396 WT26     732      MECN     H13      HGA3     0.090000        1.0080           0
     78397 WT26     732      MECN     C2       CG1N1    0.360000       12.0110           0
     78398 WT26     732      MECN     N3       NG1T1   -0.460000       14.0070           0
     78399 WT26     733      MECN     C1       CG331   -0.170000       12.0110           0
     78400 WT26     733      MECN     H11      HGA3     0.090000        1.0080           0
     78401 WT26     733      MECN     H12      HGA3     0.090000        1.0080           0
     78402 WT26     733      MECN     H13      HGA3     0.090000        1.0080           0
     78403 WT26     733      MECN     C2       CG1N1    0.360000       12.0110           0
     78404 WT26     733      MECN     N3       NG1T1   -0.460000       14.0070           0
     78405 WT26     734      MECN     C1       CG331   -0.170000       12.0110           0
     78406 WT26     734      MECN     H11      HGA3     0.090000        1.0080           0
     78407 WT26     734      MECN     H12      HGA3     0.090000        1.0080           0
     78408 WT26     734      MECN     H13      HGA3     0.090000        1.0080           0
     78409 WT26     734      MECN     C2       CG1N1    0.360000       12.0110           0
     78410 WT26     734      MECN     N3       NG1T1   -0.460000       14.0070           0
     78411 WT26     735      MECN     C1       CG331   -0.170000       12.0110           0
     78412 WT26     735      MECN     H11      HGA3     0.090000        1.0080           0
     78413 WT26     735      MECN     H12      HGA3     0.090000        1.0080           0
     78414 WT26     735      MECN     H13      HGA3     0.090000        1.0080           0
     78415 WT26     735      MECN     C2       CG1N1    0.360000       12.0110           0
     78416 WT26     735      MECN     N3       NG1T1   -0.460000       14.0070           0
     78417 WT26     736      MECN     C1       CG331   -0.170000       12.0110           0
     78418 WT26     736      MECN     H11      HGA3     0.090000        1.0080           0
     78419 WT26     736      MECN     H12      HGA3     0.090000        1.0080           0
     78420 WT26     736      MECN     H13      HGA3     0.090000        1.0080           0
     78421 WT26     736      MECN     C2       CG1N1    0.360000       12.0110           0
     78422 WT26     736      MECN     N3       NG1T1   -0.460000       14.0070           0
     78423 WT26     738      MECN     C1       CG331   -0.170000       12.0110           0
     78424 WT26     738      MECN     H11      HGA3     0.090000        1.0080           0
     78425 WT26     738      MECN     H12      HGA3     0.090000        1.0080           0
     78426 WT26     738      MECN     H13      HGA3     0.090000        1.0080           0
     78427 WT26     738      MECN     C2       CG1N1    0.360000       12.0110           0
     78428 WT26     738      MECN     N3       NG1T1   -0.460000       14.0070           0
     78429 WT26     739      MECN     C1       CG331   -0.170000       12.0110           0
     78430 WT26     739      MECN     H11      HGA3     0.090000        1.0080           0
     78431 WT26     739      MECN     H12      HGA3     0.090000        1.0080           0
     78432 WT26     739      MECN     H13      HGA3     0.090000        1.0080           0
     78433 WT26     739      MECN     C2       CG1N1    0.360000       12.0110           0
     78434 WT26     739      MECN     N3       NG1T1   -0.460000       14.0070           0
     78435 WT26     740      MECN     C1       CG331   -0.170000       12.0110           0
     78436 WT26     740      MECN     H11      HGA3     0.090000        1.0080           0
     78437 WT26     740      MECN     H12      HGA3     0.090000        1.0080           0
     78438 WT26     740      MECN     H13      HGA3     0.090000        1.0080           0
     78439 WT26     740      MECN     C2       CG1N1    0.360000       12.0110           0
     78440 WT26     740      MECN     N3       NG1T1   -0.460000       14.0070           0
     78441 WT26     745      MECN     C1       CG331   -0.170000       12.0110           0
     78442 WT26     745      MECN     H11      HGA3     0.090000        1.0080           0
     78443 WT26     745      MECN     H12      HGA3     0.090000        1.0080           0
     78444 WT26     745      MECN     H13      HGA3     0.090000        1.0080           0
     78445 WT26     745      MECN     C2       CG1N1    0.360000       12.0110           0
     78446 WT26     745      MECN     N3       NG1T1   -0.460000       14.0070           0
     78447 WT26     746      MECN     C1       CG331   -0.170000       12.0110           0
     78448 WT26     746      MECN     H11      HGA3     0.090000        1.0080           0
     78449 WT26     746      MECN     H12      HGA3     0.090000        1.0080           0
     78450 WT26     746      MECN     H13      HGA3     0.090000        1.0080           0
     78451 WT26     746      MECN     C2       CG1N1    0.360000       12.0110           0
     78452 WT26     746      MECN     N3       NG1T1   -0.460000       14.0070           0
     78453 WT26     748      MECN     C1       CG331   -0.170000       12.0110           0
     78454 WT26     748      MECN     H11      HGA3     0.090000        1.0080           0
     78455 WT26     748      MECN     H12      HGA3     0.090000        1.0080           0
     78456 WT26     748      MECN     H13      HGA3     0.090000        1.0080           0
     78457 WT26     748      MECN     C2       CG1N1    0.360000       12.0110           0
     78458 WT26     748      MECN     N3       NG1T1   -0.460000       14.0070           0
     78459 WT26     750      MECN     C1       CG331   -0.170000       12.0110           0
     78460 WT26     750      MECN     H11      HGA3     0.090000        1.0080           0
     78461 WT26     750      MECN     H12      HGA3     0.090000        1.0080           0
     78462 WT26     750      MECN     H13      HGA3     0.090000        1.0080           0
     78463 WT26     750      MECN     C2       CG1N1    0.360000       12.0110           0
     78464 WT26     750      MECN     N3       NG1T1   -0.460000       14.0070           0
     78465 WT26     751      MECN     C1       CG331   -0.170000       12.0110           0
     78466 WT26     751      MECN     H11      HGA3     0.090000        1.0080           0
     78467 WT26     751      MECN     H12      HGA3     0.090000        1.0080           0
     78468 WT26     751      MECN     H13      HGA3     0.090000        1.0080           0
     78469 WT26     751      MECN     C2       CG1N1    0.360000       12.0110           0
     78470 WT26     751      MECN     N3       NG1T1   -0.460000       14.0070           0
     78471 WT26     752      MECN     C1       CG331   -0.170000       12.0110           0
     78472 WT26     752      MECN     H11      HGA3     0.090000        1.0080           0
     78473 WT26     752      MECN     H12      HGA3     0.090000        1.0080           0
     78474 WT26     752      MECN     H13      HGA3     0.090000        1.0080           0
     78475 WT26     752      MECN     C2       CG1N1    0.360000       12.0110           0
     78476 WT26     752      MECN     N3       NG1T1   -0.460000       14.0070           0
     78477 WT26     753      MECN     C1       CG331   -0.170000       12.0110           0
     78478 WT26     753      MECN     H11      HGA3     0.090000        1.0080           0
     78479 WT26     753      MECN     H12      HGA3     0.090000        1.0080           0
     78480 WT26     753      MECN     H13      HGA3     0.090000        1.0080           0
     78481 WT26     753      MECN     C2       CG1N1    0.360000       12.0110           0
     78482 WT26     753      MECN     N3       NG1T1   -0.460000       14.0070           0
     78483 WT26     759      MECN     C1       CG331   -0.170000       12.0110           0
     78484 WT26     759      MECN     H11      HGA3     0.090000        1.0080           0
     78485 WT26     759      MECN     H12      HGA3     0.090000        1.0080           0
     78486 WT26     759      MECN     H13      HGA3     0.090000        1.0080           0
     78487 WT26     759      MECN     C2       CG1N1    0.360000       12.0110           0
     78488 WT26     759      MECN     N3       NG1T1   -0.460000       14.0070           0
     78489 WT26     764      MECN     C1       CG331   -0.170000       12.0110           0
     78490 WT26     764      MECN     H11      HGA3     0.090000        1.0080           0
     78491 WT26     764      MECN     H12      HGA3     0.090000        1.0080           0
     78492 WT26     764      MECN     H13      HGA3     0.090000        1.0080           0
     78493 WT26     764      MECN     C2       CG1N1    0.360000       12.0110           0
     78494 WT26     764      MECN     N3       NG1T1   -0.460000       14.0070           0
     78495 WT26     767      MECN     C1       CG331   -0.170000       12.0110           0
     78496 WT26     767      MECN     H11      HGA3     0.090000        1.0080           0
     78497 WT26     767      MECN     H12      HGA3     0.090000        1.0080           0
     78498 WT26     767      MECN     H13      HGA3     0.090000        1.0080           0
     78499 WT26     767      MECN     C2       CG1N1    0.360000       12.0110           0
     78500 WT26     767      MECN     N3       NG1T1   -0.460000       14.0070           0
     78501 WT26     768      MECN     C1       CG331   -0.170000       12.0110           0
     78502 WT26     768      MECN     H11      HGA3     0.090000        1.0080           0
     78503 WT26     768      MECN     H12      HGA3     0.090000        1.0080           0
     78504 WT26     768      MECN     H13      HGA3     0.090000        1.0080           0
     78505 WT26     768      MECN     C2       CG1N1    0.360000       12.0110           0
     78506 WT26     768      MECN     N3       NG1T1   -0.460000       14.0070           0
     78507 WT26     769      MECN     C1       CG331   -0.170000       12.0110           0
     78508 WT26     769      MECN     H11      HGA3     0.090000        1.0080           0
     78509 WT26     769      MECN     H12      HGA3     0.090000        1.0080           0
     78510 WT26     769      MECN     H13      HGA3     0.090000        1.0080           0
     78511 WT26     769      MECN     C2       CG1N1    0.360000       12.0110           0
     78512 WT26     769      MECN     N3       NG1T1   -0.460000       14.0070           0
     78513 WT26     772      MECN     C1       CG331   -0.170000       12.0110           0
     78514 WT26     772      MECN     H11      HGA3     0.090000        1.0080           0
     78515 WT26     772      MECN     H12      HGA3     0.090000        1.0080           0
     78516 WT26     772      MECN     H13      HGA3     0.090000        1.0080           0
     78517 WT26     772      MECN     C2       CG1N1    0.360000       12.0110           0
     78518 WT26     772      MECN     N3       NG1T1   -0.460000       14.0070           0
     78519 WT26     774      MECN     C1       CG331   -0.170000       12.0110           0
     78520 WT26     774      MECN     H11      HGA3     0.090000        1.0080           0
     78521 WT26     774      MECN     H12      HGA3     0.090000        1.0080           0
     78522 WT26     774      MECN     H13      HGA3     0.090000        1.0080           0
     78523 WT26     774      MECN     C2       CG1N1    0.360000       12.0110           0
     78524 WT26     774      MECN     N3       NG1T1   -0.460000       14.0070           0
     78525 WT26     776      MECN     C1       CG331   -0.170000       12.0110           0
     78526 WT26     776      MECN     H11      HGA3     0.090000        1.0080           0
     78527 WT26     776      MECN     H12      HGA3     0.090000        1.0080           0
     78528 WT26     776      MECN     H13      HGA3     0.090000        1.0080           0
     78529 WT26     776      MECN     C2       CG1N1    0.360000       12.0110           0
     78530 WT26     776      MECN     N3       NG1T1   -0.460000       14.0070           0
     78531 WT26     779      MECN     C1       CG331   -0.170000       12.0110           0
     78532 WT26     779      MECN     H11      HGA3     0.090000        1.0080           0
     78533 WT26     779      MECN     H12      HGA3     0.090000        1.0080           0
     78534 WT26     779      MECN     H13      HGA3     0.090000        1.0080           0
     78535 WT26     779      MECN     C2       CG1N1    0.360000       12.0110           0
     78536 WT26     779      MECN     N3       NG1T1   -0.460000       14.0070           0
     78537 WT26     784      MECN     C1       CG331   -0.170000       12.0110           0
     78538 WT26     784      MECN     H11      HGA3     0.090000        1.0080           0
     78539 WT26     784      MECN     H12      HGA3     0.090000        1.0080           0
     78540 WT26     784      MECN     H13      HGA3     0.090000        1.0080           0
     78541 WT26     784      MECN     C2       CG1N1    0.360000       12.0110           0
     78542 WT26     784      MECN     N3       NG1T1   -0.460000       14.0070           0
     78543 WT26     792      MECN     C1       CG331   -0.170000       12.0110           0
     78544 WT26     792      MECN     H11      HGA3     0.090000        1.0080           0
     78545 WT26     792      MECN     H12      HGA3     0.090000        1.0080           0
     78546 WT26     792      MECN     H13      HGA3     0.090000        1.0080           0
     78547 WT26     792      MECN     C2       CG1N1    0.360000       12.0110           0
     78548 WT26     792      MECN     N3       NG1T1   -0.460000       14.0070           0
     78549 WT26     795      MECN     C1       CG331   -0.170000       12.0110           0
     78550 WT26     795      MECN     H11      HGA3     0.090000        1.0080           0
     78551 WT26     795      MECN     H12      HGA3     0.090000        1.0080           0
     78552 WT26     795      MECN     H13      HGA3     0.090000        1.0080           0
     78553 WT26     795      MECN     C2       CG1N1    0.360000       12.0110           0
     78554 WT26     795      MECN     N3       NG1T1   -0.460000       14.0070           0
     78555 WT26     796      MECN     C1       CG331   -0.170000       12.0110           0
     78556 WT26     796      MECN     H11      HGA3     0.090000        1.0080           0
     78557 WT26     796      MECN     H12      HGA3     0.090000        1.0080           0
     78558 WT26     796      MECN     H13      HGA3     0.090000        1.0080           0
     78559 WT26     796      MECN     C2       CG1N1    0.360000       12.0110           0
     78560 WT26     796      MECN     N3       NG1T1   -0.460000       14.0070           0
     78561 WT26     797      MECN     C1       CG331   -0.170000       12.0110           0
     78562 WT26     797      MECN     H11      HGA3     0.090000        1.0080           0
     78563 WT26     797      MECN     H12      HGA3     0.090000        1.0080           0
     78564 WT26     797      MECN     H13      HGA3     0.090000        1.0080           0
     78565 WT26     797      MECN     C2       CG1N1    0.360000       12.0110           0
     78566 WT26     797      MECN     N3       NG1T1   -0.460000       14.0070           0
     78567 WT26     798      MECN     C1       CG331   -0.170000       12.0110           0
     78568 WT26     798      MECN     H11      HGA3     0.090000        1.0080           0
     78569 WT26     798      MECN     H12      HGA3     0.090000        1.0080           0
     78570 WT26     798      MECN     H13      HGA3     0.090000        1.0080           0
     78571 WT26     798      MECN     C2       CG1N1    0.360000       12.0110           0
     78572 WT26     798      MECN     N3       NG1T1   -0.460000       14.0070           0
     78573 WT26     801      MECN     C1       CG331   -0.170000       12.0110           0
     78574 WT26     801      MECN     H11      HGA3     0.090000        1.0080           0
     78575 WT26     801      MECN     H12      HGA3     0.090000        1.0080           0
     78576 WT26     801      MECN     H13      HGA3     0.090000        1.0080           0
     78577 WT26     801      MECN     C2       CG1N1    0.360000       12.0110           0
     78578 WT26     801      MECN     N3       NG1T1   -0.460000       14.0070           0
     78579 WT26     802      MECN     C1       CG331   -0.170000       12.0110           0
     78580 WT26     802      MECN     H11      HGA3     0.090000        1.0080           0
     78581 WT26     802      MECN     H12      HGA3     0.090000        1.0080           0
     78582 WT26     802      MECN     H13      HGA3     0.090000        1.0080           0
     78583 WT26     802      MECN     C2       CG1N1    0.360000       12.0110           0
     78584 WT26     802      MECN     N3       NG1T1   -0.460000       14.0070           0
     78585 WT26     806      MECN     C1       CG331   -0.170000       12.0110           0
     78586 WT26     806      MECN     H11      HGA3     0.090000        1.0080           0
     78587 WT26     806      MECN     H12      HGA3     0.090000        1.0080           0
     78588 WT26     806      MECN     H13      HGA3     0.090000        1.0080           0
     78589 WT26     806      MECN     C2       CG1N1    0.360000       12.0110           0
     78590 WT26     806      MECN     N3       NG1T1   -0.460000       14.0070           0
     78591 WT26     812      MECN     C1       CG331   -0.170000       12.0110           0
     78592 WT26     812      MECN     H11      HGA3     0.090000        1.0080           0
     78593 WT26     812      MECN     H12      HGA3     0.090000        1.0080           0
     78594 WT26     812      MECN     H13      HGA3     0.090000        1.0080           0
     78595 WT26     812      MECN     C2       CG1N1    0.360000       12.0110           0
     78596 WT26     812      MECN     N3       NG1T1   -0.460000       14.0070           0
     78597 WT26     813      MECN     C1       CG331   -0.170000       12.0110           0
     78598 WT26     813      MECN     H11      HGA3     0.090000        1.0080           0
     78599 WT26     813      MECN     H12      HGA3     0.090000        1.0080           0
     78600 WT26     813      MECN     H13      HGA3     0.090000        1.0080           0
     78601 WT26     813      MECN     C2       CG1N1    0.360000       12.0110           0
     78602 WT26     813      MECN     N3       NG1T1   -0.460000       14.0070           0
     78603 WT26     819      MECN     C1       CG331   -0.170000       12.0110           0
     78604 WT26     819      MECN     H11      HGA3     0.090000        1.0080           0
     78605 WT26     819      MECN     H12      HGA3     0.090000        1.0080           0
     78606 WT26     819      MECN     H13      HGA3     0.090000        1.0080           0
     78607 WT26     819      MECN     C2       CG1N1    0.360000       12.0110           0
     78608 WT26     819      MECN     N3       NG1T1   -0.460000       14.0070           0
     78609 WT26     820      MECN     C1       CG331   -0.170000       12.0110           0
     78610 WT26     820      MECN     H11      HGA3     0.090000        1.0080           0
     78611 WT26     820      MECN     H12      HGA3     0.090000        1.0080           0
     78612 WT26     820      MECN     H13      HGA3     0.090000        1.0080           0
     78613 WT26     820      MECN     C2       CG1N1    0.360000       12.0110           0
     78614 WT26     820      MECN     N3       NG1T1   -0.460000       14.0070           0
     78615 WT26     821      MECN     C1       CG331   -0.170000       12.0110           0
     78616 WT26     821      MECN     H11      HGA3     0.090000        1.0080           0
     78617 WT26     821      MECN     H12      HGA3     0.090000        1.0080           0
     78618 WT26     821      MECN     H13      HGA3     0.090000        1.0080           0
     78619 WT26     821      MECN     C2       CG1N1    0.360000       12.0110           0
     78620 WT26     821      MECN     N3       NG1T1   -0.460000       14.0070           0
     78621 WT26     823      MECN     C1       CG331   -0.170000       12.0110           0
     78622 WT26     823      MECN     H11      HGA3     0.090000        1.0080           0
     78623 WT26     823      MECN     H12      HGA3     0.090000        1.0080           0
     78624 WT26     823      MECN     H13      HGA3     0.090000        1.0080           0
     78625 WT26     823      MECN     C2       CG1N1    0.360000       12.0110           0
     78626 WT26     823      MECN     N3       NG1T1   -0.460000       14.0070           0
     78627 WT26     824      MECN     C1       CG331   -0.170000       12.0110           0
     78628 WT26     824      MECN     H11      HGA3     0.090000        1.0080           0
     78629 WT26     824      MECN     H12      HGA3     0.090000        1.0080           0
     78630 WT26     824      MECN     H13      HGA3     0.090000        1.0080           0
     78631 WT26     824      MECN     C2       CG1N1    0.360000       12.0110           0
     78632 WT26     824      MECN     N3       NG1T1   -0.460000       14.0070           0
     78633 WT26     826      MECN     C1       CG331   -0.170000       12.0110           0
     78634 WT26     826      MECN     H11      HGA3     0.090000        1.0080           0
     78635 WT26     826      MECN     H12      HGA3     0.090000        1.0080           0
     78636 WT26     826      MECN     H13      HGA3     0.090000        1.0080           0
     78637 WT26     826      MECN     C2       CG1N1    0.360000       12.0110           0
     78638 WT26     826      MECN     N3       NG1T1   -0.460000       14.0070           0
     78639 WT26     827      MECN     C1       CG331   -0.170000       12.0110           0
     78640 WT26     827      MECN     H11      HGA3     0.090000        1.0080           0
     78641 WT26     827      MECN     H12      HGA3     0.090000        1.0080           0
     78642 WT26     827      MECN     H13      HGA3     0.090000        1.0080           0
     78643 WT26     827      MECN     C2       CG1N1    0.360000       12.0110           0
     78644 WT26     827      MECN     N3       NG1T1   -0.460000       14.0070           0
     78645 WT26     828      MECN     C1       CG331   -0.170000       12.0110           0
     78646 WT26     828      MECN     H11      HGA3     0.090000        1.0080           0
     78647 WT26     828      MECN     H12      HGA3     0.090000        1.0080           0
     78648 WT26     828      MECN     H13      HGA3     0.090000        1.0080           0
     78649 WT26     828      MECN     C2       CG1N1    0.360000       12.0110           0
     78650 WT26     828      MECN     N3       NG1T1   -0.460000       14.0070           0
     78651 WT26     830      MECN     C1       CG331   -0.170000       12.0110           0
     78652 WT26     830      MECN     H11      HGA3     0.090000        1.0080           0
     78653 WT26     830      MECN     H12      HGA3     0.090000        1.0080           0
     78654 WT26     830      MECN     H13      HGA3     0.090000        1.0080           0
     78655 WT26     830      MECN     C2       CG1N1    0.360000       12.0110           0
     78656 WT26     830      MECN     N3       NG1T1   -0.460000       14.0070           0
     78657 WT26     831      MECN     C1       CG331   -0.170000       12.0110           0
     78658 WT26     831      MECN     H11      HGA3     0.090000        1.0080           0
     78659 WT26     831      MECN     H12      HGA3     0.090000        1.0080           0
     78660 WT26     831      MECN     H13      HGA3     0.090000        1.0080           0
     78661 WT26     831      MECN     C2       CG1N1    0.360000       12.0110           0
     78662 WT26     831      MECN     N3       NG1T1   -0.460000       14.0070           0
     78663 WT26     832      MECN     C1       CG331   -0.170000       12.0110           0
     78664 WT26     832      MECN     H11      HGA3     0.090000        1.0080           0
     78665 WT26     832      MECN     H12      HGA3     0.090000        1.0080           0
     78666 WT26     832      MECN     H13      HGA3     0.090000        1.0080           0
     78667 WT26     832      MECN     C2       CG1N1    0.360000       12.0110           0
     78668 WT26     832      MECN     N3       NG1T1   -0.460000       14.0070           0
     78669 WT26     840      MECN     C1       CG331   -0.170000       12.0110           0
     78670 WT26     840      MECN     H11      HGA3     0.090000        1.0080           0
     78671 WT26     840      MECN     H12      HGA3     0.090000        1.0080           0
     78672 WT26     840      MECN     H13      HGA3     0.090000        1.0080           0
     78673 WT26     840      MECN     C2       CG1N1    0.360000       12.0110           0
     78674 WT26     840      MECN     N3       NG1T1   -0.460000       14.0070           0
     78675 WT26     843      MECN     C1       CG331   -0.170000       12.0110           0
     78676 WT26     843      MECN     H11      HGA3     0.090000        1.0080           0
     78677 WT26     843      MECN     H12      HGA3     0.090000        1.0080           0
     78678 WT26     843      MECN     H13      HGA3     0.090000        1.0080           0
     78679 WT26     843      MECN     C2       CG1N1    0.360000       12.0110           0
     78680 WT26     843      MECN     N3       NG1T1   -0.460000       14.0070           0
     78681 WT26     844      MECN     C1       CG331   -0.170000       12.0110           0
     78682 WT26     844      MECN     H11      HGA3     0.090000        1.0080           0
     78683 WT26     844      MECN     H12      HGA3     0.090000        1.0080           0
     78684 WT26     844      MECN     H13      HGA3     0.090000        1.0080           0
     78685 WT26     844      MECN     C2       CG1N1    0.360000       12.0110           0
     78686 WT26     844      MECN     N3       NG1T1   -0.460000       14.0070           0
     78687 WT26     847      MECN     C1       CG331   -0.170000       12.0110           0
     78688 WT26     847      MECN     H11      HGA3     0.090000        1.0080           0
     78689 WT26     847      MECN     H12      HGA3     0.090000        1.0080           0
     78690 WT26     847      MECN     H13      HGA3     0.090000        1.0080           0
     78691 WT26     847      MECN     C2       CG1N1    0.360000       12.0110           0
     78692 WT26     847      MECN     N3       NG1T1   -0.460000       14.0070           0
     78693 WT26     849      MECN     C1       CG331   -0.170000       12.0110           0
     78694 WT26     849      MECN     H11      HGA3     0.090000        1.0080           0
     78695 WT26     849      MECN     H12      HGA3     0.090000        1.0080           0
     78696 WT26     849      MECN     H13      HGA3     0.090000        1.0080           0
     78697 WT26     849      MECN     C2       CG1N1    0.360000       12.0110           0
     78698 WT26     849      MECN     N3       NG1T1   -0.460000       14.0070           0
     78699 WT26     850      MECN     C1       CG331   -0.170000       12.0110           0
     78700 WT26     850      MECN     H11      HGA3     0.090000        1.0080           0
     78701 WT26     850      MECN     H12      HGA3     0.090000        1.0080           0
     78702 WT26     850      MECN     H13      HGA3     0.090000        1.0080           0
     78703 WT26     850      MECN     C2       CG1N1    0.360000       12.0110           0
     78704 WT26     850      MECN     N3       NG1T1   -0.460000       14.0070           0
     78705 WT26     851      MECN     C1       CG331   -0.170000       12.0110           0
     78706 WT26     851      MECN     H11      HGA3     0.090000        1.0080           0
     78707 WT26     851      MECN     H12      HGA3     0.090000        1.0080           0
     78708 WT26     851      MECN     H13      HGA3     0.090000        1.0080           0
     78709 WT26     851      MECN     C2       CG1N1    0.360000       12.0110           0
     78710 WT26     851      MECN     N3       NG1T1   -0.460000       14.0070           0
     78711 WT26     852      MECN     C1       CG331   -0.170000       12.0110           0
     78712 WT26     852      MECN     H11      HGA3     0.090000        1.0080           0
     78713 WT26     852      MECN     H12      HGA3     0.090000        1.0080           0
     78714 WT26     852      MECN     H13      HGA3     0.090000        1.0080           0
     78715 WT26     852      MECN     C2       CG1N1    0.360000       12.0110           0
     78716 WT26     852      MECN     N3       NG1T1   -0.460000       14.0070           0
     78717 WT26     857      MECN     C1       CG331   -0.170000       12.0110           0
     78718 WT26     857      MECN     H11      HGA3     0.090000        1.0080           0
     78719 WT26     857      MECN     H12      HGA3     0.090000        1.0080           0
     78720 WT26     857      MECN     H13      HGA3     0.090000        1.0080           0
     78721 WT26     857      MECN     C2       CG1N1    0.360000       12.0110           0
     78722 WT26     857      MECN     N3       NG1T1   -0.460000       14.0070           0
     78723 WT26     858      MECN     C1       CG331   -0.170000       12.0110           0
     78724 WT26     858      MECN     H11      HGA3     0.090000        1.0080           0
     78725 WT26     858      MECN     H12      HGA3     0.090000        1.0080           0
     78726 WT26     858      MECN     H13      HGA3     0.090000        1.0080           0
     78727 WT26     858      MECN     C2       CG1N1    0.360000       12.0110           0
     78728 WT26     858      MECN     N3       NG1T1   -0.460000       14.0070           0
     78729 WT26     861      MECN     C1       CG331   -0.170000       12.0110           0
     78730 WT26     861      MECN     H11      HGA3     0.090000        1.0080           0
     78731 WT26     861      MECN     H12      HGA3     0.090000        1.0080           0
     78732 WT26     861      MECN     H13      HGA3     0.090000        1.0080           0
     78733 WT26     861      MECN     C2       CG1N1    0.360000       12.0110           0
     78734 WT26     861      MECN     N3       NG1T1   -0.460000       14.0070           0
     78735 WT26     863      MECN     C1       CG331   -0.170000       12.0110           0
     78736 WT26     863      MECN     H11      HGA3     0.090000        1.0080           0
     78737 WT26     863      MECN     H12      HGA3     0.090000        1.0080           0
     78738 WT26     863      MECN     H13      HGA3     0.090000        1.0080           0
     78739 WT26     863      MECN     C2       CG1N1    0.360000       12.0110           0
     78740 WT26     863      MECN     N3       NG1T1   -0.460000       14.0070           0
     78741 WT26     865      MECN     C1       CG331   -0.170000       12.0110           0
     78742 WT26     865      MECN     H11      HGA3     0.090000        1.0080           0
     78743 WT26     865      MECN     H12      HGA3     0.090000        1.0080           0
     78744 WT26     865      MECN     H13      HGA3     0.090000        1.0080           0
     78745 WT26     865      MECN     C2       CG1N1    0.360000       12.0110           0
     78746 WT26     865      MECN     N3       NG1T1   -0.460000       14.0070           0
     78747 WT26     869      MECN     C1       CG331   -0.170000       12.0110           0
     78748 WT26     869      MECN     H11      HGA3     0.090000        1.0080           0
     78749 WT26     869      MECN     H12      HGA3     0.090000        1.0080           0
     78750 WT26     869      MECN     H13      HGA3     0.090000        1.0080           0
     78751 WT26     869      MECN     C2       CG1N1    0.360000       12.0110           0
     78752 WT26     869      MECN     N3       NG1T1   -0.460000       14.0070           0
     78753 WT26     872      MECN     C1       CG331   -0.170000       12.0110           0
     78754 WT26     872      MECN     H11      HGA3     0.090000        1.0080           0
     78755 WT26     872      MECN     H12      HGA3     0.090000        1.0080           0
     78756 WT26     872      MECN     H13      HGA3     0.090000        1.0080           0
     78757 WT26     872      MECN     C2       CG1N1    0.360000       12.0110           0
     78758 WT26     872      MECN     N3       NG1T1   -0.460000       14.0070           0
     78759 WT26     874      MECN     C1       CG331   -0.170000       12.0110           0
     78760 WT26     874      MECN     H11      HGA3     0.090000        1.0080           0
     78761 WT26     874      MECN     H12      HGA3     0.090000        1.0080           0
     78762 WT26     874      MECN     H13      HGA3     0.090000        1.0080           0
     78763 WT26     874      MECN     C2       CG1N1    0.360000       12.0110           0
     78764 WT26     874      MECN     N3       NG1T1   -0.460000       14.0070           0
     78765 WT26     875      MECN     C1       CG331   -0.170000       12.0110           0
     78766 WT26     875      MECN     H11      HGA3     0.090000        1.0080           0
     78767 WT26     875      MECN     H12      HGA3     0.090000        1.0080           0
     78768 WT26     875      MECN     H13      HGA3     0.090000        1.0080           0
     78769 WT26     875      MECN     C2       CG1N1    0.360000       12.0110           0
     78770 WT26     875      MECN     N3       NG1T1   -0.460000       14.0070           0
     78771 WT26     877      MECN     C1       CG331   -0.170000       12.0110           0
     78772 WT26     877      MECN     H11      HGA3     0.090000        1.0080           0
     78773 WT26     877      MECN     H12      HGA3     0.090000        1.0080           0
     78774 WT26     877      MECN     H13      HGA3     0.090000        1.0080           0
     78775 WT26     877      MECN     C2       CG1N1    0.360000       12.0110           0
     78776 WT26     877      MECN     N3       NG1T1   -0.460000       14.0070           0
     78777 WT26     880      MECN     C1       CG331   -0.170000       12.0110           0
     78778 WT26     880      MECN     H11      HGA3     0.090000        1.0080           0
     78779 WT26     880      MECN     H12      HGA3     0.090000        1.0080           0
     78780 WT26     880      MECN     H13      HGA3     0.090000        1.0080           0
     78781 WT26     880      MECN     C2       CG1N1    0.360000       12.0110           0
     78782 WT26     880      MECN     N3       NG1T1   -0.460000       14.0070           0
     78783 WT26     881      MECN     C1       CG331   -0.170000       12.0110           0
     78784 WT26     881      MECN     H11      HGA3     0.090000        1.0080           0
     78785 WT26     881      MECN     H12      HGA3     0.090000        1.0080           0
     78786 WT26     881      MECN     H13      HGA3     0.090000        1.0080           0
     78787 WT26     881      MECN     C2       CG1N1    0.360000       12.0110           0
     78788 WT26     881      MECN     N3       NG1T1   -0.460000       14.0070           0
     78789 WT26     885      MECN     C1       CG331   -0.170000       12.0110           0
     78790 WT26     885      MECN     H11      HGA3     0.090000        1.0080           0
     78791 WT26     885      MECN     H12      HGA3     0.090000        1.0080           0
     78792 WT26     885      MECN     H13      HGA3     0.090000        1.0080           0
     78793 WT26     885      MECN     C2       CG1N1    0.360000       12.0110           0
     78794 WT26     885      MECN     N3       NG1T1   -0.460000       14.0070           0
     78795 WT26     886      MECN     C1       CG331   -0.170000       12.0110           0
     78796 WT26     886      MECN     H11      HGA3     0.090000        1.0080           0
     78797 WT26     886      MECN     H12      HGA3     0.090000        1.0080           0
     78798 WT26     886      MECN     H13      HGA3     0.090000        1.0080           0
     78799 WT26     886      MECN     C2       CG1N1    0.360000       12.0110           0
     78800 WT26     886      MECN     N3       NG1T1   -0.460000       14.0070           0
     78801 WT26     888      MECN     C1       CG331   -0.170000       12.0110           0
     78802 WT26     888      MECN     H11      HGA3     0.090000        1.0080           0
     78803 WT26     888      MECN     H12      HGA3     0.090000        1.0080           0
     78804 WT26     888      MECN     H13      HGA3     0.090000        1.0080           0
     78805 WT26     888      MECN     C2       CG1N1    0.360000       12.0110           0
     78806 WT26     888      MECN     N3       NG1T1   -0.460000       14.0070           0
     78807 WT26     892      MECN     C1       CG331   -0.170000       12.0110           0
     78808 WT26     892      MECN     H11      HGA3     0.090000        1.0080           0
     78809 WT26     892      MECN     H12      HGA3     0.090000        1.0080           0
     78810 WT26     892      MECN     H13      HGA3     0.090000        1.0080           0
     78811 WT26     892      MECN     C2       CG1N1    0.360000       12.0110           0
     78812 WT26     892      MECN     N3       NG1T1   -0.460000       14.0070           0
     78813 WT26     901      MECN     C1       CG331   -0.170000       12.0110           0
     78814 WT26     901      MECN     H11      HGA3     0.090000        1.0080           0
     78815 WT26     901      MECN     H12      HGA3     0.090000        1.0080           0
     78816 WT26     901      MECN     H13      HGA3     0.090000        1.0080           0
     78817 WT26     901      MECN     C2       CG1N1    0.360000       12.0110           0
     78818 WT26     901      MECN     N3       NG1T1   -0.460000       14.0070           0
     78819 WT26     903      MECN     C1       CG331   -0.170000       12.0110           0
     78820 WT26     903      MECN     H11      HGA3     0.090000        1.0080           0
     78821 WT26     903      MECN     H12      HGA3     0.090000        1.0080           0
     78822 WT26     903      MECN     H13      HGA3     0.090000        1.0080           0
     78823 WT26     903      MECN     C2       CG1N1    0.360000       12.0110           0
     78824 WT26     903      MECN     N3       NG1T1   -0.460000       14.0070           0
     78825 WT26     905      MECN     C1       CG331   -0.170000       12.0110           0
     78826 WT26     905      MECN     H11      HGA3     0.090000        1.0080           0
     78827 WT26     905      MECN     H12      HGA3     0.090000        1.0080           0
     78828 WT26     905      MECN     H13      HGA3     0.090000        1.0080           0
     78829 WT26     905      MECN     C2       CG1N1    0.360000       12.0110           0
     78830 WT26     905      MECN     N3       NG1T1   -0.460000       14.0070           0
     78831 WT26     910      MECN     C1       CG331   -0.170000       12.0110           0
     78832 WT26     910      MECN     H11      HGA3     0.090000        1.0080           0
     78833 WT26     910      MECN     H12      HGA3     0.090000        1.0080           0
     78834 WT26     910      MECN     H13      HGA3     0.090000        1.0080           0
     78835 WT26     910      MECN     C2       CG1N1    0.360000       12.0110           0
     78836 WT26     910      MECN     N3       NG1T1   -0.460000       14.0070           0
     78837 WT26     912      MECN     C1       CG331   -0.170000       12.0110           0
     78838 WT26     912      MECN     H11      HGA3     0.090000        1.0080           0
     78839 WT26     912      MECN     H12      HGA3     0.090000        1.0080           0
     78840 WT26     912      MECN     H13      HGA3     0.090000        1.0080           0
     78841 WT26     912      MECN     C2       CG1N1    0.360000       12.0110           0
     78842 WT26     912      MECN     N3       NG1T1   -0.460000       14.0070           0
     78843 WT26     914      MECN     C1       CG331   -0.170000       12.0110           0
     78844 WT26     914      MECN     H11      HGA3     0.090000        1.0080           0
     78845 WT26     914      MECN     H12      HGA3     0.090000        1.0080           0
     78846 WT26     914      MECN     H13      HGA3     0.090000        1.0080           0
     78847 WT26     914      MECN     C2       CG1N1    0.360000       12.0110           0
     78848 WT26     914      MECN     N3       NG1T1   -0.460000       14.0070           0
     78849 WT26     915      MECN     C1       CG331   -0.170000       12.0110           0
     78850 WT26     915      MECN     H11      HGA3     0.090000        1.0080           0
     78851 WT26     915      MECN     H12      HGA3     0.090000        1.0080           0
     78852 WT26     915      MECN     H13      HGA3     0.090000        1.0080           0
     78853 WT26     915      MECN     C2       CG1N1    0.360000       12.0110           0
     78854 WT26     915      MECN     N3       NG1T1   -0.460000       14.0070           0
     78855 WT26     918      MECN     C1       CG331   -0.170000       12.0110           0
     78856 WT26     918      MECN     H11      HGA3     0.090000        1.0080           0
     78857 WT26     918      MECN     H12      HGA3     0.090000        1.0080           0
     78858 WT26     918      MECN     H13      HGA3     0.090000        1.0080           0
     78859 WT26     918      MECN     C2       CG1N1    0.360000       12.0110           0
     78860 WT26     918      MECN     N3       NG1T1   -0.460000       14.0070           0
     78861 WT26     921      MECN     C1       CG331   -0.170000       12.0110           0
     78862 WT26     921      MECN     H11      HGA3     0.090000        1.0080           0
     78863 WT26     921      MECN     H12      HGA3     0.090000        1.0080           0
     78864 WT26     921      MECN     H13      HGA3     0.090000        1.0080           0
     78865 WT26     921      MECN     C2       CG1N1    0.360000       12.0110           0
     78866 WT26     921      MECN     N3       NG1T1   -0.460000       14.0070           0
     78867 WT26     924      MECN     C1       CG331   -0.170000       12.0110           0
     78868 WT26     924      MECN     H11      HGA3     0.090000        1.0080           0
     78869 WT26     924      MECN     H12      HGA3     0.090000        1.0080           0
     78870 WT26     924      MECN     H13      HGA3     0.090000        1.0080           0
     78871 WT26     924      MECN     C2       CG1N1    0.360000       12.0110           0
     78872 WT26     924      MECN     N3       NG1T1   -0.460000       14.0070           0
     78873 WT26     927      MECN     C1       CG331   -0.170000       12.0110           0
     78874 WT26     927      MECN     H11      HGA3     0.090000        1.0080           0
     78875 WT26     927      MECN     H12      HGA3     0.090000        1.0080           0
     78876 WT26     927      MECN     H13      HGA3     0.090000        1.0080           0
     78877 WT26     927      MECN     C2       CG1N1    0.360000       12.0110           0
     78878 WT26     927      MECN     N3       NG1T1   -0.460000       14.0070           0
     78879 WT26     928      MECN     C1       CG331   -0.170000       12.0110           0
     78880 WT26     928      MECN     H11      HGA3     0.090000        1.0080           0
     78881 WT26     928      MECN     H12      HGA3     0.090000        1.0080           0
     78882 WT26     928      MECN     H13      HGA3     0.090000        1.0080           0
     78883 WT26     928      MECN     C2       CG1N1    0.360000       12.0110           0
     78884 WT26     928      MECN     N3       NG1T1   -0.460000       14.0070           0
     78885 WT26     931      MECN     C1       CG331   -0.170000       12.0110           0
     78886 WT26     931      MECN     H11      HGA3     0.090000        1.0080           0
     78887 WT26     931      MECN     H12      HGA3     0.090000        1.0080           0
     78888 WT26     931      MECN     H13      HGA3     0.090000        1.0080           0
     78889 WT26     931      MECN     C2       CG1N1    0.360000       12.0110           0
     78890 WT26     931      MECN     N3       NG1T1   -0.460000       14.0070           0
     78891 WT26     932      MECN     C1       CG331   -0.170000       12.0110           0
     78892 WT26     932      MECN     H11      HGA3     0.090000        1.0080           0
     78893 WT26     932      MECN     H12      HGA3     0.090000        1.0080           0
     78894 WT26     932      MECN     H13      HGA3     0.090000        1.0080           0
     78895 WT26     932      MECN     C2       CG1N1    0.360000       12.0110           0
     78896 WT26     932      MECN     N3       NG1T1   -0.460000       14.0070           0
     78897 WT26     936      MECN     C1       CG331   -0.170000       12.0110           0
     78898 WT26     936      MECN     H11      HGA3     0.090000        1.0080           0
     78899 WT26     936      MECN     H12      HGA3     0.090000        1.0080           0
     78900 WT26     936      MECN     H13      HGA3     0.090000        1.0080           0
     78901 WT26     936      MECN     C2       CG1N1    0.360000       12.0110           0
     78902 WT26     936      MECN     N3       NG1T1   -0.460000       14.0070           0
     78903 WT26     937      MECN     C1       CG331   -0.170000       12.0110           0
     78904 WT26     937      MECN     H11      HGA3     0.090000        1.0080           0
     78905 WT26     937      MECN     H12      HGA3     0.090000        1.0080           0
     78906 WT26     937      MECN     H13      HGA3     0.090000        1.0080           0
     78907 WT26     937      MECN     C2       CG1N1    0.360000       12.0110           0
     78908 WT26     937      MECN     N3       NG1T1   -0.460000       14.0070           0
     78909 WT26     940      MECN     C1       CG331   -0.170000       12.0110           0
     78910 WT26     940      MECN     H11      HGA3     0.090000        1.0080           0
     78911 WT26     940      MECN     H12      HGA3     0.090000        1.0080           0
     78912 WT26     940      MECN     H13      HGA3     0.090000        1.0080           0
     78913 WT26     940      MECN     C2       CG1N1    0.360000       12.0110           0
     78914 WT26     940      MECN     N3       NG1T1   -0.460000       14.0070           0
     78915 WT26     942      MECN     C1       CG331   -0.170000       12.0110           0
     78916 WT26     942      MECN     H11      HGA3     0.090000        1.0080           0
     78917 WT26     942      MECN     H12      HGA3     0.090000        1.0080           0
     78918 WT26     942      MECN     H13      HGA3     0.090000        1.0080           0
     78919 WT26     942      MECN     C2       CG1N1    0.360000       12.0110           0
     78920 WT26     942      MECN     N3       NG1T1   -0.460000       14.0070           0
     78921 WT26     944      MECN     C1       CG331   -0.170000       12.0110           0
     78922 WT26     944      MECN     H11      HGA3     0.090000        1.0080           0
     78923 WT26     944      MECN     H12      HGA3     0.090000        1.0080           0
     78924 WT26     944      MECN     H13      HGA3     0.090000        1.0080           0
     78925 WT26     944      MECN     C2       CG1N1    0.360000       12.0110           0
     78926 WT26     944      MECN     N3       NG1T1   -0.460000       14.0070           0
     78927 WT26     946      MECN     C1       CG331   -0.170000       12.0110           0
     78928 WT26     946      MECN     H11      HGA3     0.090000        1.0080           0
     78929 WT26     946      MECN     H12      HGA3     0.090000        1.0080           0
     78930 WT26     946      MECN     H13      HGA3     0.090000        1.0080           0
     78931 WT26     946      MECN     C2       CG1N1    0.360000       12.0110           0
     78932 WT26     946      MECN     N3       NG1T1   -0.460000       14.0070           0
     78933 WT26     949      MECN     C1       CG331   -0.170000       12.0110           0
     78934 WT26     949      MECN     H11      HGA3     0.090000        1.0080           0
     78935 WT26     949      MECN     H12      HGA3     0.090000        1.0080           0
     78936 WT26     949      MECN     H13      HGA3     0.090000        1.0080           0
     78937 WT26     949      MECN     C2       CG1N1    0.360000       12.0110           0
     78938 WT26     949      MECN     N3       NG1T1   -0.460000       14.0070           0
     78939 WT26     951      MECN     C1       CG331   -0.170000       12.0110           0
     78940 WT26     951      MECN     H11      HGA3     0.090000        1.0080           0
     78941 WT26     951      MECN     H12      HGA3     0.090000        1.0080           0
     78942 WT26     951      MECN     H13      HGA3     0.090000        1.0080           0
     78943 WT26     951      MECN     C2       CG1N1    0.360000       12.0110           0
     78944 WT26     951      MECN     N3       NG1T1   -0.460000       14.0070           0
     78945 WT26     952      MECN     C1       CG331   -0.170000       12.0110           0
     78946 WT26     952      MECN     H11      HGA3     0.090000        1.0080           0
     78947 WT26     952      MECN     H12      HGA3     0.090000        1.0080           0
     78948 WT26     952      MECN     H13      HGA3     0.090000        1.0080           0
     78949 WT26     952      MECN     C2       CG1N1    0.360000       12.0110           0
     78950 WT26     952      MECN     N3       NG1T1   -0.460000       14.0070           0
     78951 WT26     954      MECN     C1       CG331   -0.170000       12.0110           0
     78952 WT26     954      MECN     H11      HGA3     0.090000        1.0080           0
     78953 WT26     954      MECN     H12      HGA3     0.090000        1.0080           0
     78954 WT26     954      MECN     H13      HGA3     0.090000        1.0080           0
     78955 WT26     954      MECN     C2       CG1N1    0.360000       12.0110           0
     78956 WT26     954      MECN     N3       NG1T1   -0.460000       14.0070           0
     78957 WT26     956      MECN     C1       CG331   -0.170000       12.0110           0
     78958 WT26     956      MECN     H11      HGA3     0.090000        1.0080           0
     78959 WT26     956      MECN     H12      HGA3     0.090000        1.0080           0
     78960 WT26     956      MECN     H13      HGA3     0.090000        1.0080           0
     78961 WT26     956      MECN     C2       CG1N1    0.360000       12.0110           0
     78962 WT26     956      MECN     N3       NG1T1   -0.460000       14.0070           0
     78963 WT26     961      MECN     C1       CG331   -0.170000       12.0110           0
     78964 WT26     961      MECN     H11      HGA3     0.090000        1.0080           0
     78965 WT26     961      MECN     H12      HGA3     0.090000        1.0080           0
     78966 WT26     961      MECN     H13      HGA3     0.090000        1.0080           0
     78967 WT26     961      MECN     C2       CG1N1    0.360000       12.0110           0
     78968 WT26     961      MECN     N3       NG1T1   -0.460000       14.0070           0
     78969 WT26     962      MECN     C1       CG331   -0.170000       12.0110           0
     78970 WT26     962      MECN     H11      HGA3     0.090000        1.0080           0
     78971 WT26     962      MECN     H12      HGA3     0.090000        1.0080           0
     78972 WT26     962      MECN     H13      HGA3     0.090000        1.0080           0
     78973 WT26     962      MECN     C2       CG1N1    0.360000       12.0110           0
     78974 WT26     962      MECN     N3       NG1T1   -0.460000       14.0070           0
     78975 WT26     966      MECN     C1       CG331   -0.170000       12.0110           0
     78976 WT26     966      MECN     H11      HGA3     0.090000        1.0080           0
     78977 WT26     966      MECN     H12      HGA3     0.090000        1.0080           0
     78978 WT26     966      MECN     H13      HGA3     0.090000        1.0080           0
     78979 WT26     966      MECN     C2       CG1N1    0.360000       12.0110           0
     78980 WT26     966      MECN     N3       NG1T1   -0.460000       14.0070           0
     78981 WT26     968      MECN     C1       CG331   -0.170000       12.0110           0
     78982 WT26     968      MECN     H11      HGA3     0.090000        1.0080           0
     78983 WT26     968      MECN     H12      HGA3     0.090000        1.0080           0
     78984 WT26     968      MECN     H13      HGA3     0.090000        1.0080           0
     78985 WT26     968      MECN     C2       CG1N1    0.360000       12.0110           0
     78986 WT26     968      MECN     N3       NG1T1   -0.460000       14.0070           0
     78987 WT26     969      MECN     C1       CG331   -0.170000       12.0110           0
     78988 WT26     969      MECN     H11      HGA3     0.090000        1.0080           0
     78989 WT26     969      MECN     H12      HGA3     0.090000        1.0080           0
     78990 WT26     969      MECN     H13      HGA3     0.090000        1.0080           0
     78991 WT26     969      MECN     C2       CG1N1    0.360000       12.0110           0
     78992 WT26     969      MECN     N3       NG1T1   -0.460000       14.0070           0
     78993 WT26     970      MECN     C1       CG331   -0.170000       12.0110           0
     78994 WT26     970      MECN     H11      HGA3     0.090000        1.0080           0
     78995 WT26     970      MECN     H12      HGA3     0.090000        1.0080           0
     78996 WT26     970      MECN     H13      HGA3     0.090000        1.0080           0
     78997 WT26     970      MECN     C2       CG1N1    0.360000       12.0110           0
     78998 WT26     970      MECN     N3       NG1T1   -0.460000       14.0070           0
     78999 WT26     971      MECN     C1       CG331   -0.170000       12.0110           0
     79000 WT26     971      MECN     H11      HGA3     0.090000        1.0080           0
     79001 WT26     971      MECN     H12      HGA3     0.090000        1.0080           0
     79002 WT26     971      MECN     H13      HGA3     0.090000        1.0080           0
     79003 WT26     971      MECN     C2       CG1N1    0.360000       12.0110           0
     79004 WT26     971      MECN     N3       NG1T1   -0.460000       14.0070           0
     79005 WT26     972      MECN     C1       CG331   -0.170000       12.0110           0
     79006 WT26     972      MECN     H11      HGA3     0.090000        1.0080           0
     79007 WT26     972      MECN     H12      HGA3     0.090000        1.0080           0
     79008 WT26     972      MECN     H13      HGA3     0.090000        1.0080           0
     79009 WT26     972      MECN     C2       CG1N1    0.360000       12.0110           0
     79010 WT26     972      MECN     N3       NG1T1   -0.460000       14.0070           0
     79011 WT26     978      MECN     C1       CG331   -0.170000       12.0110           0
     79012 WT26     978      MECN     H11      HGA3     0.090000        1.0080           0
     79013 WT26     978      MECN     H12      HGA3     0.090000        1.0080           0
     79014 WT26     978      MECN     H13      HGA3     0.090000        1.0080           0
     79015 WT26     978      MECN     C2       CG1N1    0.360000       12.0110           0
     79016 WT26     978      MECN     N3       NG1T1   -0.460000       14.0070           0
     79017 WT26     979      MECN     C1       CG331   -0.170000       12.0110           0
     79018 WT26     979      MECN     H11      HGA3     0.090000        1.0080           0
     79019 WT26     979      MECN     H12      HGA3     0.090000        1.0080           0
     79020 WT26     979      MECN     H13      HGA3     0.090000        1.0080           0
     79021 WT26     979      MECN     C2       CG1N1    0.360000       12.0110           0
     79022 WT26     979      MECN     N3       NG1T1   -0.460000       14.0070           0
     79023 WT26     981      MECN     C1       CG331   -0.170000       12.0110           0
     79024 WT26     981      MECN     H11      HGA3     0.090000        1.0080           0
     79025 WT26     981      MECN     H12      HGA3     0.090000        1.0080           0
     79026 WT26     981      MECN     H13      HGA3     0.090000        1.0080           0
     79027 WT26     981      MECN     C2       CG1N1    0.360000       12.0110           0
     79028 WT26     981      MECN     N3       NG1T1   -0.460000       14.0070           0
     79029 WT26     989      MECN     C1       CG331   -0.170000       12.0110           0
     79030 WT26     989      MECN     H11      HGA3     0.090000        1.0080           0
     79031 WT26     989      MECN     H12      HGA3     0.090000        1.0080           0
     79032 WT26     989      MECN     H13      HGA3     0.090000        1.0080           0
     79033 WT26     989      MECN     C2       CG1N1    0.360000       12.0110           0
     79034 WT26     989      MECN     N3       NG1T1   -0.460000       14.0070           0
     79035 WT26     990      MECN     C1       CG331   -0.170000       12.0110           0
     79036 WT26     990      MECN     H11      HGA3     0.090000        1.0080           0
     79037 WT26     990      MECN     H12      HGA3     0.090000        1.0080           0
     79038 WT26     990      MECN     H13      HGA3     0.090000        1.0080           0
     79039 WT26     990      MECN     C2       CG1N1    0.360000       12.0110           0
     79040 WT26     990      MECN     N3       NG1T1   -0.460000       14.0070           0
     79041 WT26     991      MECN     C1       CG331   -0.170000       12.0110           0
     79042 WT26     991      MECN     H11      HGA3     0.090000        1.0080           0
     79043 WT26     991      MECN     H12      HGA3     0.090000        1.0080           0
     79044 WT26     991      MECN     H13      HGA3     0.090000        1.0080           0
     79045 WT26     991      MECN     C2       CG1N1    0.360000       12.0110           0
     79046 WT26     991      MECN     N3       NG1T1   -0.460000       14.0070           0
     79047 WT26     993      MECN     C1       CG331   -0.170000       12.0110           0
     79048 WT26     993      MECN     H11      HGA3     0.090000        1.0080           0
     79049 WT26     993      MECN     H12      HGA3     0.090000        1.0080           0
     79050 WT26     993      MECN     H13      HGA3     0.090000        1.0080           0
     79051 WT26     993      MECN     C2       CG1N1    0.360000       12.0110           0
     79052 WT26     993      MECN     N3       NG1T1   -0.460000       14.0070           0
     79053 WT26     994      MECN     C1       CG331   -0.170000       12.0110           0
     79054 WT26     994      MECN     H11      HGA3     0.090000        1.0080           0
     79055 WT26     994      MECN     H12      HGA3     0.090000        1.0080           0
     79056 WT26     994      MECN     H13      HGA3     0.090000        1.0080           0
     79057 WT26     994      MECN     C2       CG1N1    0.360000       12.0110           0
     79058 WT26     994      MECN     N3       NG1T1   -0.460000       14.0070           0
     79059 WT26     996      MECN     C1       CG331   -0.170000       12.0110           0
     79060 WT26     996      MECN     H11      HGA3     0.090000        1.0080           0
     79061 WT26     996      MECN     H12      HGA3     0.090000        1.0080           0
     79062 WT26     996      MECN     H13      HGA3     0.090000        1.0080           0
     79063 WT26     996      MECN     C2       CG1N1    0.360000       12.0110           0
     79064 WT26     996      MECN     N3       NG1T1   -0.460000       14.0070           0
     79065 WT26     998      MECN     C1       CG331   -0.170000       12.0110           0
     79066 WT26     998      MECN     H11      HGA3     0.090000        1.0080           0
     79067 WT26     998      MECN     H12      HGA3     0.090000        1.0080           0
     79068 WT26     998      MECN     H13      HGA3     0.090000        1.0080           0
     79069 WT26     998      MECN     C2       CG1N1    0.360000       12.0110           0
     79070 WT26     998      MECN     N3       NG1T1   -0.460000       14.0070           0
     79071 WT26     1002     MECN     C1       CG331   -0.170000       12.0110           0
     79072 WT26     1002     MECN     H11      HGA3     0.090000        1.0080           0
     79073 WT26     1002     MECN     H12      HGA3     0.090000        1.0080           0
     79074 WT26     1002     MECN     H13      HGA3     0.090000        1.0080           0
     79075 WT26     1002     MECN     C2       CG1N1    0.360000       12.0110           0
     79076 WT26     1002     MECN     N3       NG1T1   -0.460000       14.0070           0
     79077 WT26     1004     MECN     C1       CG331   -0.170000       12.0110           0
     79078 WT26     1004     MECN     H11      HGA3     0.090000        1.0080           0
     79079 WT26     1004     MECN     H12      HGA3     0.090000        1.0080           0
     79080 WT26     1004     MECN     H13      HGA3     0.090000        1.0080           0
     79081 WT26     1004     MECN     C2       CG1N1    0.360000       12.0110           0
     79082 WT26     1004     MECN     N3       NG1T1   -0.460000       14.0070           0
     79083 WT26     1007     MECN     C1       CG331   -0.170000       12.0110           0
     79084 WT26     1007     MECN     H11      HGA3     0.090000        1.0080           0
     79085 WT26     1007     MECN     H12      HGA3     0.090000        1.0080           0
     79086 WT26     1007     MECN     H13      HGA3     0.090000        1.0080           0
     79087 WT26     1007     MECN     C2       CG1N1    0.360000       12.0110           0
     79088 WT26     1007     MECN     N3       NG1T1   -0.460000       14.0070           0
     79089 WT26     1008     MECN     C1       CG331   -0.170000       12.0110           0
     79090 WT26     1008     MECN     H11      HGA3     0.090000        1.0080           0
     79091 WT26     1008     MECN     H12      HGA3     0.090000        1.0080           0
     79092 WT26     1008     MECN     H13      HGA3     0.090000        1.0080           0
     79093 WT26     1008     MECN     C2       CG1N1    0.360000       12.0110           0
     79094 WT26     1008     MECN     N3       NG1T1   -0.460000       14.0070           0
     79095 WT26     1010     MECN     C1       CG331   -0.170000       12.0110           0
     79096 WT26     1010     MECN     H11      HGA3     0.090000        1.0080           0
     79097 WT26     1010     MECN     H12      HGA3     0.090000        1.0080           0
     79098 WT26     1010     MECN     H13      HGA3     0.090000        1.0080           0
     79099 WT26     1010     MECN     C2       CG1N1    0.360000       12.0110           0
     79100 WT26     1010     MECN     N3       NG1T1   -0.460000       14.0070           0
     79101 WT26     1012     MECN     C1       CG331   -0.170000       12.0110           0
     79102 WT26     1012     MECN     H11      HGA3     0.090000        1.0080           0
     79103 WT26     1012     MECN     H12      HGA3     0.090000        1.0080           0
     79104 WT26     1012     MECN     H13      HGA3     0.090000        1.0080           0
     79105 WT26     1012     MECN     C2       CG1N1    0.360000       12.0110           0
     79106 WT26     1012     MECN     N3       NG1T1   -0.460000       14.0070           0
     79107 WT26     1013     MECN     C1       CG331   -0.170000       12.0110           0
     79108 WT26     1013     MECN     H11      HGA3     0.090000        1.0080           0
     79109 WT26     1013     MECN     H12      HGA3     0.090000        1.0080           0
     79110 WT26     1013     MECN     H13      HGA3     0.090000        1.0080           0
     79111 WT26     1013     MECN     C2       CG1N1    0.360000       12.0110           0
     79112 WT26     1013     MECN     N3       NG1T1   -0.460000       14.0070           0
     79113 WT26     1018     MECN     C1       CG331   -0.170000       12.0110           0
     79114 WT26     1018     MECN     H11      HGA3     0.090000        1.0080           0
     79115 WT26     1018     MECN     H12      HGA3     0.090000        1.0080           0
     79116 WT26     1018     MECN     H13      HGA3     0.090000        1.0080           0
     79117 WT26     1018     MECN     C2       CG1N1    0.360000       12.0110           0
     79118 WT26     1018     MECN     N3       NG1T1   -0.460000       14.0070           0
     79119 WT26     1019     MECN     C1       CG331   -0.170000       12.0110           0
     79120 WT26     1019     MECN     H11      HGA3     0.090000        1.0080           0
     79121 WT26     1019     MECN     H12      HGA3     0.090000        1.0080           0
     79122 WT26     1019     MECN     H13      HGA3     0.090000        1.0080           0
     79123 WT26     1019     MECN     C2       CG1N1    0.360000       12.0110           0
     79124 WT26     1019     MECN     N3       NG1T1   -0.460000       14.0070           0
     79125 WT26     1028     MECN     C1       CG331   -0.170000       12.0110           0
     79126 WT26     1028     MECN     H11      HGA3     0.090000        1.0080           0
     79127 WT26     1028     MECN     H12      HGA3     0.090000        1.0080           0
     79128 WT26     1028     MECN     H13      HGA3     0.090000        1.0080           0
     79129 WT26     1028     MECN     C2       CG1N1    0.360000       12.0110           0
     79130 WT26     1028     MECN     N3       NG1T1   -0.460000       14.0070           0
     79131 WT26     1030     MECN     C1       CG331   -0.170000       12.0110           0
     79132 WT26     1030     MECN     H11      HGA3     0.090000        1.0080           0
     79133 WT26     1030     MECN     H12      HGA3     0.090000        1.0080           0
     79134 WT26     1030     MECN     H13      HGA3     0.090000        1.0080           0
     79135 WT26     1030     MECN     C2       CG1N1    0.360000       12.0110           0
     79136 WT26     1030     MECN     N3       NG1T1   -0.460000       14.0070           0
     79137 WT26     1031     MECN     C1       CG331   -0.170000       12.0110           0
     79138 WT26     1031     MECN     H11      HGA3     0.090000        1.0080           0
     79139 WT26     1031     MECN     H12      HGA3     0.090000        1.0080           0
     79140 WT26     1031     MECN     H13      HGA3     0.090000        1.0080           0
     79141 WT26     1031     MECN     C2       CG1N1    0.360000       12.0110           0
     79142 WT26     1031     MECN     N3       NG1T1   -0.460000       14.0070           0
     79143 WT26     1032     MECN     C1       CG331   -0.170000       12.0110           0
     79144 WT26     1032     MECN     H11      HGA3     0.090000        1.0080           0
     79145 WT26     1032     MECN     H12      HGA3     0.090000        1.0080           0
     79146 WT26     1032     MECN     H13      HGA3     0.090000        1.0080           0
     79147 WT26     1032     MECN     C2       CG1N1    0.360000       12.0110           0
     79148 WT26     1032     MECN     N3       NG1T1   -0.460000       14.0070           0
     79149 WT26     1033     MECN     C1       CG331   -0.170000       12.0110           0
     79150 WT26     1033     MECN     H11      HGA3     0.090000        1.0080           0
     79151 WT26     1033     MECN     H12      HGA3     0.090000        1.0080           0
     79152 WT26     1033     MECN     H13      HGA3     0.090000        1.0080           0
     79153 WT26     1033     MECN     C2       CG1N1    0.360000       12.0110           0
     79154 WT26     1033     MECN     N3       NG1T1   -0.460000       14.0070           0
     79155 WT26     1034     MECN     C1       CG331   -0.170000       12.0110           0
     79156 WT26     1034     MECN     H11      HGA3     0.090000        1.0080           0
     79157 WT26     1034     MECN     H12      HGA3     0.090000        1.0080           0
     79158 WT26     1034     MECN     H13      HGA3     0.090000        1.0080           0
     79159 WT26     1034     MECN     C2       CG1N1    0.360000       12.0110           0
     79160 WT26     1034     MECN     N3       NG1T1   -0.460000       14.0070           0
     79161 WT26     1036     MECN     C1       CG331   -0.170000       12.0110           0
     79162 WT26     1036     MECN     H11      HGA3     0.090000        1.0080           0
     79163 WT26     1036     MECN     H12      HGA3     0.090000        1.0080           0
     79164 WT26     1036     MECN     H13      HGA3     0.090000        1.0080           0
     79165 WT26     1036     MECN     C2       CG1N1    0.360000       12.0110           0
     79166 WT26     1036     MECN     N3       NG1T1   -0.460000       14.0070           0
     79167 WT26     1039     MECN     C1       CG331   -0.170000       12.0110           0
     79168 WT26     1039     MECN     H11      HGA3     0.090000        1.0080           0
     79169 WT26     1039     MECN     H12      HGA3     0.090000        1.0080           0
     79170 WT26     1039     MECN     H13      HGA3     0.090000        1.0080           0
     79171 WT26     1039     MECN     C2       CG1N1    0.360000       12.0110           0
     79172 WT26     1039     MECN     N3       NG1T1   -0.460000       14.0070           0
     79173 WT26     1041     MECN     C1       CG331   -0.170000       12.0110           0
     79174 WT26     1041     MECN     H11      HGA3     0.090000        1.0080           0
     79175 WT26     1041     MECN     H12      HGA3     0.090000        1.0080           0
     79176 WT26     1041     MECN     H13      HGA3     0.090000        1.0080           0
     79177 WT26     1041     MECN     C2       CG1N1    0.360000       12.0110           0
     79178 WT26     1041     MECN     N3       NG1T1   -0.460000       14.0070           0
     79179 WT26     1042     MECN     C1       CG331   -0.170000       12.0110           0
     79180 WT26     1042     MECN     H11      HGA3     0.090000        1.0080           0
     79181 WT26     1042     MECN     H12      HGA3     0.090000        1.0080           0
     79182 WT26     1042     MECN     H13      HGA3     0.090000        1.0080           0
     79183 WT26     1042     MECN     C2       CG1N1    0.360000       12.0110           0
     79184 WT26     1042     MECN     N3       NG1T1   -0.460000       14.0070           0
     79185 WT26     1044     MECN     C1       CG331   -0.170000       12.0110           0
     79186 WT26     1044     MECN     H11      HGA3     0.090000        1.0080           0
     79187 WT26     1044     MECN     H12      HGA3     0.090000        1.0080           0
     79188 WT26     1044     MECN     H13      HGA3     0.090000        1.0080           0
     79189 WT26     1044     MECN     C2       CG1N1    0.360000       12.0110           0
     79190 WT26     1044     MECN     N3       NG1T1   -0.460000       14.0070           0
     79191 WT26     1048     MECN     C1       CG331   -0.170000       12.0110           0
     79192 WT26     1048     MECN     H11      HGA3     0.090000        1.0080           0
     79193 WT26     1048     MECN     H12      HGA3     0.090000        1.0080           0
     79194 WT26     1048     MECN     H13      HGA3     0.090000        1.0080           0
     79195 WT26     1048     MECN     C2       CG1N1    0.360000       12.0110           0
     79196 WT26     1048     MECN     N3       NG1T1   -0.460000       14.0070           0
     79197 WT26     1049     MECN     C1       CG331   -0.170000       12.0110           0
     79198 WT26     1049     MECN     H11      HGA3     0.090000        1.0080           0
     79199 WT26     1049     MECN     H12      HGA3     0.090000        1.0080           0
     79200 WT26     1049     MECN     H13      HGA3     0.090000        1.0080           0
     79201 WT26     1049     MECN     C2       CG1N1    0.360000       12.0110           0
     79202 WT26     1049     MECN     N3       NG1T1   -0.460000       14.0070           0
     79203 WT26     1051     MECN     C1       CG331   -0.170000       12.0110           0
     79204 WT26     1051     MECN     H11      HGA3     0.090000        1.0080           0
     79205 WT26     1051     MECN     H12      HGA3     0.090000        1.0080           0
     79206 WT26     1051     MECN     H13      HGA3     0.090000        1.0080           0
     79207 WT26     1051     MECN     C2       CG1N1    0.360000       12.0110           0
     79208 WT26     1051     MECN     N3       NG1T1   -0.460000       14.0070           0
     79209 WT26     1055     MECN     C1       CG331   -0.170000       12.0110           0
     79210 WT26     1055     MECN     H11      HGA3     0.090000        1.0080           0
     79211 WT26     1055     MECN     H12      HGA3     0.090000        1.0080           0
     79212 WT26     1055     MECN     H13      HGA3     0.090000        1.0080           0
     79213 WT26     1055     MECN     C2       CG1N1    0.360000       12.0110           0
     79214 WT26     1055     MECN     N3       NG1T1   -0.460000       14.0070           0
     79215 WT26     1056     MECN     C1       CG331   -0.170000       12.0110           0
     79216 WT26     1056     MECN     H11      HGA3     0.090000        1.0080           0
     79217 WT26     1056     MECN     H12      HGA3     0.090000        1.0080           0
     79218 WT26     1056     MECN     H13      HGA3     0.090000        1.0080           0
     79219 WT26     1056     MECN     C2       CG1N1    0.360000       12.0110           0
     79220 WT26     1056     MECN     N3       NG1T1   -0.460000       14.0070           0
     79221 WT26     1057     MECN     C1       CG331   -0.170000       12.0110           0
     79222 WT26     1057     MECN     H11      HGA3     0.090000        1.0080           0
     79223 WT26     1057     MECN     H12      HGA3     0.090000        1.0080           0
     79224 WT26     1057     MECN     H13      HGA3     0.090000        1.0080           0
     79225 WT26     1057     MECN     C2       CG1N1    0.360000       12.0110           0
     79226 WT26     1057     MECN     N3       NG1T1   -0.460000       14.0070           0
     79227 WT26     1058     MECN     C1       CG331   -0.170000       12.0110           0
     79228 WT26     1058     MECN     H11      HGA3     0.090000        1.0080           0
     79229 WT26     1058     MECN     H12      HGA3     0.090000        1.0080           0
     79230 WT26     1058     MECN     H13      HGA3     0.090000        1.0080           0
     79231 WT26     1058     MECN     C2       CG1N1    0.360000       12.0110           0
     79232 WT26     1058     MECN     N3       NG1T1   -0.460000       14.0070           0
     79233 WT26     1062     MECN     C1       CG331   -0.170000       12.0110           0
     79234 WT26     1062     MECN     H11      HGA3     0.090000        1.0080           0
     79235 WT26     1062     MECN     H12      HGA3     0.090000        1.0080           0
     79236 WT26     1062     MECN     H13      HGA3     0.090000        1.0080           0
     79237 WT26     1062     MECN     C2       CG1N1    0.360000       12.0110           0
     79238 WT26     1062     MECN     N3       NG1T1   -0.460000       14.0070           0
     79239 WT26     1063     MECN     C1       CG331   -0.170000       12.0110           0
     79240 WT26     1063     MECN     H11      HGA3     0.090000        1.0080           0
     79241 WT26     1063     MECN     H12      HGA3     0.090000        1.0080           0
     79242 WT26     1063     MECN     H13      HGA3     0.090000        1.0080           0
     79243 WT26     1063     MECN     C2       CG1N1    0.360000       12.0110           0
     79244 WT26     1063     MECN     N3       NG1T1   -0.460000       14.0070           0
     79245 WT26     1064     MECN     C1       CG331   -0.170000       12.0110           0
     79246 WT26     1064     MECN     H11      HGA3     0.090000        1.0080           0
     79247 WT26     1064     MECN     H12      HGA3     0.090000        1.0080           0
     79248 WT26     1064     MECN     H13      HGA3     0.090000        1.0080           0
     79249 WT26     1064     MECN     C2       CG1N1    0.360000       12.0110           0
     79250 WT26     1064     MECN     N3       NG1T1   -0.460000       14.0070           0
     79251 WT26     1066     MECN     C1       CG331   -0.170000       12.0110           0
     79252 WT26     1066     MECN     H11      HGA3     0.090000        1.0080           0
     79253 WT26     1066     MECN     H12      HGA3     0.090000        1.0080           0
     79254 WT26     1066     MECN     H13      HGA3     0.090000        1.0080           0
     79255 WT26     1066     MECN     C2       CG1N1    0.360000       12.0110           0
     79256 WT26     1066     MECN     N3       NG1T1   -0.460000       14.0070           0
     79257 WT26     1067     MECN     C1       CG331   -0.170000       12.0110           0
     79258 WT26     1067     MECN     H11      HGA3     0.090000        1.0080           0
     79259 WT26     1067     MECN     H12      HGA3     0.090000        1.0080           0
     79260 WT26     1067     MECN     H13      HGA3     0.090000        1.0080           0
     79261 WT26     1067     MECN     C2       CG1N1    0.360000       12.0110           0
     79262 WT26     1067     MECN     N3       NG1T1   -0.460000       14.0070           0
     79263 WT26     1071     MECN     C1       CG331   -0.170000       12.0110           0
     79264 WT26     1071     MECN     H11      HGA3     0.090000        1.0080           0
     79265 WT26     1071     MECN     H12      HGA3     0.090000        1.0080           0
     79266 WT26     1071     MECN     H13      HGA3     0.090000        1.0080           0
     79267 WT26     1071     MECN     C2       CG1N1    0.360000       12.0110           0
     79268 WT26     1071     MECN     N3       NG1T1   -0.460000       14.0070           0
     79269 WT26     1072     MECN     C1       CG331   -0.170000       12.0110           0
     79270 WT26     1072     MECN     H11      HGA3     0.090000        1.0080           0
     79271 WT26     1072     MECN     H12      HGA3     0.090000        1.0080           0
     79272 WT26     1072     MECN     H13      HGA3     0.090000        1.0080           0
     79273 WT26     1072     MECN     C2       CG1N1    0.360000       12.0110           0
     79274 WT26     1072     MECN     N3       NG1T1   -0.460000       14.0070           0
     79275 WT26     1074     MECN     C1       CG331   -0.170000       12.0110           0
     79276 WT26     1074     MECN     H11      HGA3     0.090000        1.0080           0
     79277 WT26     1074     MECN     H12      HGA3     0.090000        1.0080           0
     79278 WT26     1074     MECN     H13      HGA3     0.090000        1.0080           0
     79279 WT26     1074     MECN     C2       CG1N1    0.360000       12.0110           0
     79280 WT26     1074     MECN     N3       NG1T1   -0.460000       14.0070           0
     79281 WT26     1075     MECN     C1       CG331   -0.170000       12.0110           0
     79282 WT26     1075     MECN     H11      HGA3     0.090000        1.0080           0
     79283 WT26     1075     MECN     H12      HGA3     0.090000        1.0080           0
     79284 WT26     1075     MECN     H13      HGA3     0.090000        1.0080           0
     79285 WT26     1075     MECN     C2       CG1N1    0.360000       12.0110           0
     79286 WT26     1075     MECN     N3       NG1T1   -0.460000       14.0070           0
     79287 WT26     1076     MECN     C1       CG331   -0.170000       12.0110           0
     79288 WT26     1076     MECN     H11      HGA3     0.090000        1.0080           0
     79289 WT26     1076     MECN     H12      HGA3     0.090000        1.0080           0
     79290 WT26     1076     MECN     H13      HGA3     0.090000        1.0080           0
     79291 WT26     1076     MECN     C2       CG1N1    0.360000       12.0110           0
     79292 WT26     1076     MECN     N3       NG1T1   -0.460000       14.0070           0
     79293 WT26     1079     MECN     C1       CG331   -0.170000       12.0110           0
     79294 WT26     1079     MECN     H11      HGA3     0.090000        1.0080           0
     79295 WT26     1079     MECN     H12      HGA3     0.090000        1.0080           0
     79296 WT26     1079     MECN     H13      HGA3     0.090000        1.0080           0
     79297 WT26     1079     MECN     C2       CG1N1    0.360000       12.0110           0
     79298 WT26     1079     MECN     N3       NG1T1   -0.460000       14.0070           0
     79299 WT26     1082     MECN     C1       CG331   -0.170000       12.0110           0
     79300 WT26     1082     MECN     H11      HGA3     0.090000        1.0080           0
     79301 WT26     1082     MECN     H12      HGA3     0.090000        1.0080           0
     79302 WT26     1082     MECN     H13      HGA3     0.090000        1.0080           0
     79303 WT26     1082     MECN     C2       CG1N1    0.360000       12.0110           0
     79304 WT26     1082     MECN     N3       NG1T1   -0.460000       14.0070           0
     79305 WT26     1084     MECN     C1       CG331   -0.170000       12.0110           0
     79306 WT26     1084     MECN     H11      HGA3     0.090000        1.0080           0
     79307 WT26     1084     MECN     H12      HGA3     0.090000        1.0080           0
     79308 WT26     1084     MECN     H13      HGA3     0.090000        1.0080           0
     79309 WT26     1084     MECN     C2       CG1N1    0.360000       12.0110           0
     79310 WT26     1084     MECN     N3       NG1T1   -0.460000       14.0070           0
     79311 WT26     1086     MECN     C1       CG331   -0.170000       12.0110           0
     79312 WT26     1086     MECN     H11      HGA3     0.090000        1.0080           0
     79313 WT26     1086     MECN     H12      HGA3     0.090000        1.0080           0
     79314 WT26     1086     MECN     H13      HGA3     0.090000        1.0080           0
     79315 WT26     1086     MECN     C2       CG1N1    0.360000       12.0110           0
     79316 WT26     1086     MECN     N3       NG1T1   -0.460000       14.0070           0
     79317 WT26     1089     MECN     C1       CG331   -0.170000       12.0110           0
     79318 WT26     1089     MECN     H11      HGA3     0.090000        1.0080           0
     79319 WT26     1089     MECN     H12      HGA3     0.090000        1.0080           0
     79320 WT26     1089     MECN     H13      HGA3     0.090000        1.0080           0
     79321 WT26     1089     MECN     C2       CG1N1    0.360000       12.0110           0
     79322 WT26     1089     MECN     N3       NG1T1   -0.460000       14.0070           0
     79323 WT26     1090     MECN     C1       CG331   -0.170000       12.0110           0
     79324 WT26     1090     MECN     H11      HGA3     0.090000        1.0080           0
     79325 WT26     1090     MECN     H12      HGA3     0.090000        1.0080           0
     79326 WT26     1090     MECN     H13      HGA3     0.090000        1.0080           0
     79327 WT26     1090     MECN     C2       CG1N1    0.360000       12.0110           0
     79328 WT26     1090     MECN     N3       NG1T1   -0.460000       14.0070           0
     79329 WT26     1091     MECN     C1       CG331   -0.170000       12.0110           0
     79330 WT26     1091     MECN     H11      HGA3     0.090000        1.0080           0
     79331 WT26     1091     MECN     H12      HGA3     0.090000        1.0080           0
     79332 WT26     1091     MECN     H13      HGA3     0.090000        1.0080           0
     79333 WT26     1091     MECN     C2       CG1N1    0.360000       12.0110           0
     79334 WT26     1091     MECN     N3       NG1T1   -0.460000       14.0070           0
     79335 WT26     1093     MECN     C1       CG331   -0.170000       12.0110           0
     79336 WT26     1093     MECN     H11      HGA3     0.090000        1.0080           0
     79337 WT26     1093     MECN     H12      HGA3     0.090000        1.0080           0
     79338 WT26     1093     MECN     H13      HGA3     0.090000        1.0080           0
     79339 WT26     1093     MECN     C2       CG1N1    0.360000       12.0110           0
     79340 WT26     1093     MECN     N3       NG1T1   -0.460000       14.0070           0
     79341 WT26     1097     MECN     C1       CG331   -0.170000       12.0110           0
     79342 WT26     1097     MECN     H11      HGA3     0.090000        1.0080           0
     79343 WT26     1097     MECN     H12      HGA3     0.090000        1.0080           0
     79344 WT26     1097     MECN     H13      HGA3     0.090000        1.0080           0
     79345 WT26     1097     MECN     C2       CG1N1    0.360000       12.0110           0
     79346 WT26     1097     MECN     N3       NG1T1   -0.460000       14.0070           0
     79347 WT26     1100     MECN     C1       CG331   -0.170000       12.0110           0
     79348 WT26     1100     MECN     H11      HGA3     0.090000        1.0080           0
     79349 WT26     1100     MECN     H12      HGA3     0.090000        1.0080           0
     79350 WT26     1100     MECN     H13      HGA3     0.090000        1.0080           0
     79351 WT26     1100     MECN     C2       CG1N1    0.360000       12.0110           0
     79352 WT26     1100     MECN     N3       NG1T1   -0.460000       14.0070           0
     79353 WT26     1102     MECN     C1       CG331   -0.170000       12.0110           0
     79354 WT26     1102     MECN     H11      HGA3     0.090000        1.0080           0
     79355 WT26     1102     MECN     H12      HGA3     0.090000        1.0080           0
     79356 WT26     1102     MECN     H13      HGA3     0.090000        1.0080           0
     79357 WT26     1102     MECN     C2       CG1N1    0.360000       12.0110           0
     79358 WT26     1102     MECN     N3       NG1T1   -0.460000       14.0070           0
     79359 WT26     1104     MECN     C1       CG331   -0.170000       12.0110           0
     79360 WT26     1104     MECN     H11      HGA3     0.090000        1.0080           0
     79361 WT26     1104     MECN     H12      HGA3     0.090000        1.0080           0
     79362 WT26     1104     MECN     H13      HGA3     0.090000        1.0080           0
     79363 WT26     1104     MECN     C2       CG1N1    0.360000       12.0110           0
     79364 WT26     1104     MECN     N3       NG1T1   -0.460000       14.0070           0
     79365 WT26     1105     MECN     C1       CG331   -0.170000       12.0110           0
     79366 WT26     1105     MECN     H11      HGA3     0.090000        1.0080           0
     79367 WT26     1105     MECN     H12      HGA3     0.090000        1.0080           0
     79368 WT26     1105     MECN     H13      HGA3     0.090000        1.0080           0
     79369 WT26     1105     MECN     C2       CG1N1    0.360000       12.0110           0
     79370 WT26     1105     MECN     N3       NG1T1   -0.460000       14.0070           0
     79371 WT26     1106     MECN     C1       CG331   -0.170000       12.0110           0
     79372 WT26     1106     MECN     H11      HGA3     0.090000        1.0080           0
     79373 WT26     1106     MECN     H12      HGA3     0.090000        1.0080           0
     79374 WT26     1106     MECN     H13      HGA3     0.090000        1.0080           0
     79375 WT26     1106     MECN     C2       CG1N1    0.360000       12.0110           0
     79376 WT26     1106     MECN     N3       NG1T1   -0.460000       14.0070           0
     79377 WT26     1108     MECN     C1       CG331   -0.170000       12.0110           0
     79378 WT26     1108     MECN     H11      HGA3     0.090000        1.0080           0
     79379 WT26     1108     MECN     H12      HGA3     0.090000        1.0080           0
     79380 WT26     1108     MECN     H13      HGA3     0.090000        1.0080           0
     79381 WT26     1108     MECN     C2       CG1N1    0.360000       12.0110           0
     79382 WT26     1108     MECN     N3       NG1T1   -0.460000       14.0070           0
     79383 WT26     1109     MECN     C1       CG331   -0.170000       12.0110           0
     79384 WT26     1109     MECN     H11      HGA3     0.090000        1.0080           0
     79385 WT26     1109     MECN     H12      HGA3     0.090000        1.0080           0
     79386 WT26     1109     MECN     H13      HGA3     0.090000        1.0080           0
     79387 WT26     1109     MECN     C2       CG1N1    0.360000       12.0110           0
     79388 WT26     1109     MECN     N3       NG1T1   -0.460000       14.0070           0
     79389 WT26     1111     MECN     C1       CG331   -0.170000       12.0110           0
     79390 WT26     1111     MECN     H11      HGA3     0.090000        1.0080           0
     79391 WT26     1111     MECN     H12      HGA3     0.090000        1.0080           0
     79392 WT26     1111     MECN     H13      HGA3     0.090000        1.0080           0
     79393 WT26     1111     MECN     C2       CG1N1    0.360000       12.0110           0
     79394 WT26     1111     MECN     N3       NG1T1   -0.460000       14.0070           0
     79395 WT26     1118     MECN     C1       CG331   -0.170000       12.0110           0
     79396 WT26     1118     MECN     H11      HGA3     0.090000        1.0080           0
     79397 WT26     1118     MECN     H12      HGA3     0.090000        1.0080           0
     79398 WT26     1118     MECN     H13      HGA3     0.090000        1.0080           0
     79399 WT26     1118     MECN     C2       CG1N1    0.360000       12.0110           0
     79400 WT26     1118     MECN     N3       NG1T1   -0.460000       14.0070           0
     79401 WT26     1120     MECN     C1       CG331   -0.170000       12.0110           0
     79402 WT26     1120     MECN     H11      HGA3     0.090000        1.0080           0
     79403 WT26     1120     MECN     H12      HGA3     0.090000        1.0080           0
     79404 WT26     1120     MECN     H13      HGA3     0.090000        1.0080           0
     79405 WT26     1120     MECN     C2       CG1N1    0.360000       12.0110           0
     79406 WT26     1120     MECN     N3       NG1T1   -0.460000       14.0070           0
     79407 WT26     1127     MECN     C1       CG331   -0.170000       12.0110           0
     79408 WT26     1127     MECN     H11      HGA3     0.090000        1.0080           0
     79409 WT26     1127     MECN     H12      HGA3     0.090000        1.0080           0
     79410 WT26     1127     MECN     H13      HGA3     0.090000        1.0080           0
     79411 WT26     1127     MECN     C2       CG1N1    0.360000       12.0110           0
     79412 WT26     1127     MECN     N3       NG1T1   -0.460000       14.0070           0
     79413 WT26     1128     MECN     C1       CG331   -0.170000       12.0110           0
     79414 WT26     1128     MECN     H11      HGA3     0.090000        1.0080           0
     79415 WT26     1128     MECN     H12      HGA3     0.090000        1.0080           0
     79416 WT26     1128     MECN     H13      HGA3     0.090000        1.0080           0
     79417 WT26     1128     MECN     C2       CG1N1    0.360000       12.0110           0
     79418 WT26     1128     MECN     N3       NG1T1   -0.460000       14.0070           0
     79419 WT26     1132     MECN     C1       CG331   -0.170000       12.0110           0
     79420 WT26     1132     MECN     H11      HGA3     0.090000        1.0080           0
     79421 WT26     1132     MECN     H12      HGA3     0.090000        1.0080           0
     79422 WT26     1132     MECN     H13      HGA3     0.090000        1.0080           0
     79423 WT26     1132     MECN     C2       CG1N1    0.360000       12.0110           0
     79424 WT26     1132     MECN     N3       NG1T1   -0.460000       14.0070           0
     79425 WT26     1133     MECN     C1       CG331   -0.170000       12.0110           0
     79426 WT26     1133     MECN     H11      HGA3     0.090000        1.0080           0
     79427 WT26     1133     MECN     H12      HGA3     0.090000        1.0080           0
     79428 WT26     1133     MECN     H13      HGA3     0.090000        1.0080           0
     79429 WT26     1133     MECN     C2       CG1N1    0.360000       12.0110           0
     79430 WT26     1133     MECN     N3       NG1T1   -0.460000       14.0070           0
     79431 WT26     1135     MECN     C1       CG331   -0.170000       12.0110           0
     79432 WT26     1135     MECN     H11      HGA3     0.090000        1.0080           0
     79433 WT26     1135     MECN     H12      HGA3     0.090000        1.0080           0
     79434 WT26     1135     MECN     H13      HGA3     0.090000        1.0080           0
     79435 WT26     1135     MECN     C2       CG1N1    0.360000       12.0110           0
     79436 WT26     1135     MECN     N3       NG1T1   -0.460000       14.0070           0
     79437 WT26     1137     MECN     C1       CG331   -0.170000       12.0110           0
     79438 WT26     1137     MECN     H11      HGA3     0.090000        1.0080           0
     79439 WT26     1137     MECN     H12      HGA3     0.090000        1.0080           0
     79440 WT26     1137     MECN     H13      HGA3     0.090000        1.0080           0
     79441 WT26     1137     MECN     C2       CG1N1    0.360000       12.0110           0
     79442 WT26     1137     MECN     N3       NG1T1   -0.460000       14.0070           0
     79443 WT26     1140     MECN     C1       CG331   -0.170000       12.0110           0
     79444 WT26     1140     MECN     H11      HGA3     0.090000        1.0080           0
     79445 WT26     1140     MECN     H12      HGA3     0.090000        1.0080           0
     79446 WT26     1140     MECN     H13      HGA3     0.090000        1.0080           0
     79447 WT26     1140     MECN     C2       CG1N1    0.360000       12.0110           0
     79448 WT26     1140     MECN     N3       NG1T1   -0.460000       14.0070           0
     79449 WT26     1146     MECN     C1       CG331   -0.170000       12.0110           0
     79450 WT26     1146     MECN     H11      HGA3     0.090000        1.0080           0
     79451 WT26     1146     MECN     H12      HGA3     0.090000        1.0080           0
     79452 WT26     1146     MECN     H13      HGA3     0.090000        1.0080           0
     79453 WT26     1146     MECN     C2       CG1N1    0.360000       12.0110           0
     79454 WT26     1146     MECN     N3       NG1T1   -0.460000       14.0070           0
     79455 WT26     1148     MECN     C1       CG331   -0.170000       12.0110           0
     79456 WT26     1148     MECN     H11      HGA3     0.090000        1.0080           0
     79457 WT26     1148     MECN     H12      HGA3     0.090000        1.0080           0
     79458 WT26     1148     MECN     H13      HGA3     0.090000        1.0080           0
     79459 WT26     1148     MECN     C2       CG1N1    0.360000       12.0110           0
     79460 WT26     1148     MECN     N3       NG1T1   -0.460000       14.0070           0
     79461 WT26     1149     MECN     C1       CG331   -0.170000       12.0110           0
     79462 WT26     1149     MECN     H11      HGA3     0.090000        1.0080           0
     79463 WT26     1149     MECN     H12      HGA3     0.090000        1.0080           0
     79464 WT26     1149     MECN     H13      HGA3     0.090000        1.0080           0
     79465 WT26     1149     MECN     C2       CG1N1    0.360000       12.0110           0
     79466 WT26     1149     MECN     N3       NG1T1   -0.460000       14.0070           0
     79467 WT26     1150     MECN     C1       CG331   -0.170000       12.0110           0
     79468 WT26     1150     MECN     H11      HGA3     0.090000        1.0080           0
     79469 WT26     1150     MECN     H12      HGA3     0.090000        1.0080           0
     79470 WT26     1150     MECN     H13      HGA3     0.090000        1.0080           0
     79471 WT26     1150     MECN     C2       CG1N1    0.360000       12.0110           0
     79472 WT26     1150     MECN     N3       NG1T1   -0.460000       14.0070           0
     79473 WT26     1151     MECN     C1       CG331   -0.170000       12.0110           0
     79474 WT26     1151     MECN     H11      HGA3     0.090000        1.0080           0
     79475 WT26     1151     MECN     H12      HGA3     0.090000        1.0080           0
     79476 WT26     1151     MECN     H13      HGA3     0.090000        1.0080           0
     79477 WT26     1151     MECN     C2       CG1N1    0.360000       12.0110           0
     79478 WT26     1151     MECN     N3       NG1T1   -0.460000       14.0070           0
     79479 WT26     1152     MECN     C1       CG331   -0.170000       12.0110           0
     79480 WT26     1152     MECN     H11      HGA3     0.090000        1.0080           0
     79481 WT26     1152     MECN     H12      HGA3     0.090000        1.0080           0
     79482 WT26     1152     MECN     H13      HGA3     0.090000        1.0080           0
     79483 WT26     1152     MECN     C2       CG1N1    0.360000       12.0110           0
     79484 WT26     1152     MECN     N3       NG1T1   -0.460000       14.0070           0
     79485 WT26     1161     MECN     C1       CG331   -0.170000       12.0110           0
     79486 WT26     1161     MECN     H11      HGA3     0.090000        1.0080           0
     79487 WT26     1161     MECN     H12      HGA3     0.090000        1.0080           0
     79488 WT26     1161     MECN     H13      HGA3     0.090000        1.0080           0
     79489 WT26     1161     MECN     C2       CG1N1    0.360000       12.0110           0
     79490 WT26     1161     MECN     N3       NG1T1   -0.460000       14.0070           0
     79491 WT26     1162     MECN     C1       CG331   -0.170000       12.0110           0
     79492 WT26     1162     MECN     H11      HGA3     0.090000        1.0080           0
     79493 WT26     1162     MECN     H12      HGA3     0.090000        1.0080           0
     79494 WT26     1162     MECN     H13      HGA3     0.090000        1.0080           0
     79495 WT26     1162     MECN     C2       CG1N1    0.360000       12.0110           0
     79496 WT26     1162     MECN     N3       NG1T1   -0.460000       14.0070           0
     79497 WT26     1167     MECN     C1       CG331   -0.170000       12.0110           0
     79498 WT26     1167     MECN     H11      HGA3     0.090000        1.0080           0
     79499 WT26     1167     MECN     H12      HGA3     0.090000        1.0080           0
     79500 WT26     1167     MECN     H13      HGA3     0.090000        1.0080           0
     79501 WT26     1167     MECN     C2       CG1N1    0.360000       12.0110           0
     79502 WT26     1167     MECN     N3       NG1T1   -0.460000       14.0070           0
     79503 WT26     1168     MECN     C1       CG331   -0.170000       12.0110           0
     79504 WT26     1168     MECN     H11      HGA3     0.090000        1.0080           0
     79505 WT26     1168     MECN     H12      HGA3     0.090000        1.0080           0
     79506 WT26     1168     MECN     H13      HGA3     0.090000        1.0080           0
     79507 WT26     1168     MECN     C2       CG1N1    0.360000       12.0110           0
     79508 WT26     1168     MECN     N3       NG1T1   -0.460000       14.0070           0
     79509 WT26     1170     MECN     C1       CG331   -0.170000       12.0110           0
     79510 WT26     1170     MECN     H11      HGA3     0.090000        1.0080           0
     79511 WT26     1170     MECN     H12      HGA3     0.090000        1.0080           0
     79512 WT26     1170     MECN     H13      HGA3     0.090000        1.0080           0
     79513 WT26     1170     MECN     C2       CG1N1    0.360000       12.0110           0
     79514 WT26     1170     MECN     N3       NG1T1   -0.460000       14.0070           0
     79515 WT26     1171     MECN     C1       CG331   -0.170000       12.0110           0
     79516 WT26     1171     MECN     H11      HGA3     0.090000        1.0080           0
     79517 WT26     1171     MECN     H12      HGA3     0.090000        1.0080           0
     79518 WT26     1171     MECN     H13      HGA3     0.090000        1.0080           0
     79519 WT26     1171     MECN     C2       CG1N1    0.360000       12.0110           0
     79520 WT26     1171     MECN     N3       NG1T1   -0.460000       14.0070           0
     79521 WT26     1175     MECN     C1       CG331   -0.170000       12.0110           0
     79522 WT26     1175     MECN     H11      HGA3     0.090000        1.0080           0
     79523 WT26     1175     MECN     H12      HGA3     0.090000        1.0080           0
     79524 WT26     1175     MECN     H13      HGA3     0.090000        1.0080           0
     79525 WT26     1175     MECN     C2       CG1N1    0.360000       12.0110           0
     79526 WT26     1175     MECN     N3       NG1T1   -0.460000       14.0070           0
     79527 WT26     1176     MECN     C1       CG331   -0.170000       12.0110           0
     79528 WT26     1176     MECN     H11      HGA3     0.090000        1.0080           0
     79529 WT26     1176     MECN     H12      HGA3     0.090000        1.0080           0
     79530 WT26     1176     MECN     H13      HGA3     0.090000        1.0080           0
     79531 WT26     1176     MECN     C2       CG1N1    0.360000       12.0110           0
     79532 WT26     1176     MECN     N3       NG1T1   -0.460000       14.0070           0
     79533 WT26     1177     MECN     C1       CG331   -0.170000       12.0110           0
     79534 WT26     1177     MECN     H11      HGA3     0.090000        1.0080           0
     79535 WT26     1177     MECN     H12      HGA3     0.090000        1.0080           0
     79536 WT26     1177     MECN     H13      HGA3     0.090000        1.0080           0
     79537 WT26     1177     MECN     C2       CG1N1    0.360000       12.0110           0
     79538 WT26     1177     MECN     N3       NG1T1   -0.460000       14.0070           0
     79539 WT26     1179     MECN     C1       CG331   -0.170000       12.0110           0
     79540 WT26     1179     MECN     H11      HGA3     0.090000        1.0080           0
     79541 WT26     1179     MECN     H12      HGA3     0.090000        1.0080           0
     79542 WT26     1179     MECN     H13      HGA3     0.090000        1.0080           0
     79543 WT26     1179     MECN     C2       CG1N1    0.360000       12.0110           0
     79544 WT26     1179     MECN     N3       NG1T1   -0.460000       14.0070           0
     79545 WT26     1180     MECN     C1       CG331   -0.170000       12.0110           0
     79546 WT26     1180     MECN     H11      HGA3     0.090000        1.0080           0
     79547 WT26     1180     MECN     H12      HGA3     0.090000        1.0080           0
     79548 WT26     1180     MECN     H13      HGA3     0.090000        1.0080           0
     79549 WT26     1180     MECN     C2       CG1N1    0.360000       12.0110           0
     79550 WT26     1180     MECN     N3       NG1T1   -0.460000       14.0070           0
     79551 WT26     1181     MECN     C1       CG331   -0.170000       12.0110           0
     79552 WT26     1181     MECN     H11      HGA3     0.090000        1.0080           0
     79553 WT26     1181     MECN     H12      HGA3     0.090000        1.0080           0
     79554 WT26     1181     MECN     H13      HGA3     0.090000        1.0080           0
     79555 WT26     1181     MECN     C2       CG1N1    0.360000       12.0110           0
     79556 WT26     1181     MECN     N3       NG1T1   -0.460000       14.0070           0
     79557 WT26     1184     MECN     C1       CG331   -0.170000       12.0110           0
     79558 WT26     1184     MECN     H11      HGA3     0.090000        1.0080           0
     79559 WT26     1184     MECN     H12      HGA3     0.090000        1.0080           0
     79560 WT26     1184     MECN     H13      HGA3     0.090000        1.0080           0
     79561 WT26     1184     MECN     C2       CG1N1    0.360000       12.0110           0
     79562 WT26     1184     MECN     N3       NG1T1   -0.460000       14.0070           0
     79563 WT26     1185     MECN     C1       CG331   -0.170000       12.0110           0
     79564 WT26     1185     MECN     H11      HGA3     0.090000        1.0080           0
     79565 WT26     1185     MECN     H12      HGA3     0.090000        1.0080           0
     79566 WT26     1185     MECN     H13      HGA3     0.090000        1.0080           0
     79567 WT26     1185     MECN     C2       CG1N1    0.360000       12.0110           0
     79568 WT26     1185     MECN     N3       NG1T1   -0.460000       14.0070           0
     79569 WT26     1188     MECN     C1       CG331   -0.170000       12.0110           0
     79570 WT26     1188     MECN     H11      HGA3     0.090000        1.0080           0
     79571 WT26     1188     MECN     H12      HGA3     0.090000        1.0080           0
     79572 WT26     1188     MECN     H13      HGA3     0.090000        1.0080           0
     79573 WT26     1188     MECN     C2       CG1N1    0.360000       12.0110           0
     79574 WT26     1188     MECN     N3       NG1T1   -0.460000       14.0070           0
     79575 WT26     1200     MECN     C1       CG331   -0.170000       12.0110           0
     79576 WT26     1200     MECN     H11      HGA3     0.090000        1.0080           0
     79577 WT26     1200     MECN     H12      HGA3     0.090000        1.0080           0
     79578 WT26     1200     MECN     H13      HGA3     0.090000        1.0080           0
     79579 WT26     1200     MECN     C2       CG1N1    0.360000       12.0110           0
     79580 WT26     1200     MECN     N3       NG1T1   -0.460000       14.0070           0
     79581 WT26     1202     MECN     C1       CG331   -0.170000       12.0110           0
     79582 WT26     1202     MECN     H11      HGA3     0.090000        1.0080           0
     79583 WT26     1202     MECN     H12      HGA3     0.090000        1.0080           0
     79584 WT26     1202     MECN     H13      HGA3     0.090000        1.0080           0
     79585 WT26     1202     MECN     C2       CG1N1    0.360000       12.0110           0
     79586 WT26     1202     MECN     N3       NG1T1   -0.460000       14.0070           0
     79587 WT26     1203     MECN     C1       CG331   -0.170000       12.0110           0
     79588 WT26     1203     MECN     H11      HGA3     0.090000        1.0080           0
     79589 WT26     1203     MECN     H12      HGA3     0.090000        1.0080           0
     79590 WT26     1203     MECN     H13      HGA3     0.090000        1.0080           0
     79591 WT26     1203     MECN     C2       CG1N1    0.360000       12.0110           0
     79592 WT26     1203     MECN     N3       NG1T1   -0.460000       14.0070           0
     79593 WT26     1204     MECN     C1       CG331   -0.170000       12.0110           0
     79594 WT26     1204     MECN     H11      HGA3     0.090000        1.0080           0
     79595 WT26     1204     MECN     H12      HGA3     0.090000        1.0080           0
     79596 WT26     1204     MECN     H13      HGA3     0.090000        1.0080           0
     79597 WT26     1204     MECN     C2       CG1N1    0.360000       12.0110           0
     79598 WT26     1204     MECN     N3       NG1T1   -0.460000       14.0070           0
     79599 WT26     1206     MECN     C1       CG331   -0.170000       12.0110           0
     79600 WT26     1206     MECN     H11      HGA3     0.090000        1.0080           0
     79601 WT26     1206     MECN     H12      HGA3     0.090000        1.0080           0
     79602 WT26     1206     MECN     H13      HGA3     0.090000        1.0080           0
     79603 WT26     1206     MECN     C2       CG1N1    0.360000       12.0110           0
     79604 WT26     1206     MECN     N3       NG1T1   -0.460000       14.0070           0
     79605 WT26     1207     MECN     C1       CG331   -0.170000       12.0110           0
     79606 WT26     1207     MECN     H11      HGA3     0.090000        1.0080           0
     79607 WT26     1207     MECN     H12      HGA3     0.090000        1.0080           0
     79608 WT26     1207     MECN     H13      HGA3     0.090000        1.0080           0
     79609 WT26     1207     MECN     C2       CG1N1    0.360000       12.0110           0
     79610 WT26     1207     MECN     N3       NG1T1   -0.460000       14.0070           0
     79611 WT26     1209     MECN     C1       CG331   -0.170000       12.0110           0
     79612 WT26     1209     MECN     H11      HGA3     0.090000        1.0080           0
     79613 WT26     1209     MECN     H12      HGA3     0.090000        1.0080           0
     79614 WT26     1209     MECN     H13      HGA3     0.090000        1.0080           0
     79615 WT26     1209     MECN     C2       CG1N1    0.360000       12.0110           0
     79616 WT26     1209     MECN     N3       NG1T1   -0.460000       14.0070           0
     79617 WT26     1213     MECN     C1       CG331   -0.170000       12.0110           0
     79618 WT26     1213     MECN     H11      HGA3     0.090000        1.0080           0
     79619 WT26     1213     MECN     H12      HGA3     0.090000        1.0080           0
     79620 WT26     1213     MECN     H13      HGA3     0.090000        1.0080           0
     79621 WT26     1213     MECN     C2       CG1N1    0.360000       12.0110           0
     79622 WT26     1213     MECN     N3       NG1T1   -0.460000       14.0070           0
     79623 WT26     1217     MECN     C1       CG331   -0.170000       12.0110           0
     79624 WT26     1217     MECN     H11      HGA3     0.090000        1.0080           0
     79625 WT26     1217     MECN     H12      HGA3     0.090000        1.0080           0
     79626 WT26     1217     MECN     H13      HGA3     0.090000        1.0080           0
     79627 WT26     1217     MECN     C2       CG1N1    0.360000       12.0110           0
     79628 WT26     1217     MECN     N3       NG1T1   -0.460000       14.0070           0
     79629 WT26     1220     MECN     C1       CG331   -0.170000       12.0110           0
     79630 WT26     1220     MECN     H11      HGA3     0.090000        1.0080           0
     79631 WT26     1220     MECN     H12      HGA3     0.090000        1.0080           0
     79632 WT26     1220     MECN     H13      HGA3     0.090000        1.0080           0
     79633 WT26     1220     MECN     C2       CG1N1    0.360000       12.0110           0
     79634 WT26     1220     MECN     N3       NG1T1   -0.460000       14.0070           0
     79635 WT26     1222     MECN     C1       CG331   -0.170000       12.0110           0
     79636 WT26     1222     MECN     H11      HGA3     0.090000        1.0080           0
     79637 WT26     1222     MECN     H12      HGA3     0.090000        1.0080           0
     79638 WT26     1222     MECN     H13      HGA3     0.090000        1.0080           0
     79639 WT26     1222     MECN     C2       CG1N1    0.360000       12.0110           0
     79640 WT26     1222     MECN     N3       NG1T1   -0.460000       14.0070           0
     79641 WT26     1224     MECN     C1       CG331   -0.170000       12.0110           0
     79642 WT26     1224     MECN     H11      HGA3     0.090000        1.0080           0
     79643 WT26     1224     MECN     H12      HGA3     0.090000        1.0080           0
     79644 WT26     1224     MECN     H13      HGA3     0.090000        1.0080           0
     79645 WT26     1224     MECN     C2       CG1N1    0.360000       12.0110           0
     79646 WT26     1224     MECN     N3       NG1T1   -0.460000       14.0070           0
     79647 WT26     1225     MECN     C1       CG331   -0.170000       12.0110           0
     79648 WT26     1225     MECN     H11      HGA3     0.090000        1.0080           0
     79649 WT26     1225     MECN     H12      HGA3     0.090000        1.0080           0
     79650 WT26     1225     MECN     H13      HGA3     0.090000        1.0080           0
     79651 WT26     1225     MECN     C2       CG1N1    0.360000       12.0110           0
     79652 WT26     1225     MECN     N3       NG1T1   -0.460000       14.0070           0
     79653 WT26     1226     MECN     C1       CG331   -0.170000       12.0110           0
     79654 WT26     1226     MECN     H11      HGA3     0.090000        1.0080           0
     79655 WT26     1226     MECN     H12      HGA3     0.090000        1.0080           0
     79656 WT26     1226     MECN     H13      HGA3     0.090000        1.0080           0
     79657 WT26     1226     MECN     C2       CG1N1    0.360000       12.0110           0
     79658 WT26     1226     MECN     N3       NG1T1   -0.460000       14.0070           0
     79659 WT26     1227     MECN     C1       CG331   -0.170000       12.0110           0
     79660 WT26     1227     MECN     H11      HGA3     0.090000        1.0080           0
     79661 WT26     1227     MECN     H12      HGA3     0.090000        1.0080           0
     79662 WT26     1227     MECN     H13      HGA3     0.090000        1.0080           0
     79663 WT26     1227     MECN     C2       CG1N1    0.360000       12.0110           0
     79664 WT26     1227     MECN     N3       NG1T1   -0.460000       14.0070           0
     79665 WT26     1229     MECN     C1       CG331   -0.170000       12.0110           0
     79666 WT26     1229     MECN     H11      HGA3     0.090000        1.0080           0
     79667 WT26     1229     MECN     H12      HGA3     0.090000        1.0080           0
     79668 WT26     1229     MECN     H13      HGA3     0.090000        1.0080           0
     79669 WT26     1229     MECN     C2       CG1N1    0.360000       12.0110           0
     79670 WT26     1229     MECN     N3       NG1T1   -0.460000       14.0070           0
     79671 WT26     1230     MECN     C1       CG331   -0.170000       12.0110           0
     79672 WT26     1230     MECN     H11      HGA3     0.090000        1.0080           0
     79673 WT26     1230     MECN     H12      HGA3     0.090000        1.0080           0
     79674 WT26     1230     MECN     H13      HGA3     0.090000        1.0080           0
     79675 WT26     1230     MECN     C2       CG1N1    0.360000       12.0110           0
     79676 WT26     1230     MECN     N3       NG1T1   -0.460000       14.0070           0
     79677 WT26     1233     MECN     C1       CG331   -0.170000       12.0110           0
     79678 WT26     1233     MECN     H11      HGA3     0.090000        1.0080           0
     79679 WT26     1233     MECN     H12      HGA3     0.090000        1.0080           0
     79680 WT26     1233     MECN     H13      HGA3     0.090000        1.0080           0
     79681 WT26     1233     MECN     C2       CG1N1    0.360000       12.0110           0
     79682 WT26     1233     MECN     N3       NG1T1   -0.460000       14.0070           0
     79683 WT26     1235     MECN     C1       CG331   -0.170000       12.0110           0
     79684 WT26     1235     MECN     H11      HGA3     0.090000        1.0080           0
     79685 WT26     1235     MECN     H12      HGA3     0.090000        1.0080           0
     79686 WT26     1235     MECN     H13      HGA3     0.090000        1.0080           0
     79687 WT26     1235     MECN     C2       CG1N1    0.360000       12.0110           0
     79688 WT26     1235     MECN     N3       NG1T1   -0.460000       14.0070           0
     79689 WT26     1237     MECN     C1       CG331   -0.170000       12.0110           0
     79690 WT26     1237     MECN     H11      HGA3     0.090000        1.0080           0
     79691 WT26     1237     MECN     H12      HGA3     0.090000        1.0080           0
     79692 WT26     1237     MECN     H13      HGA3     0.090000        1.0080           0
     79693 WT26     1237     MECN     C2       CG1N1    0.360000       12.0110           0
     79694 WT26     1237     MECN     N3       NG1T1   -0.460000       14.0070           0
     79695 WT26     1239     MECN     C1       CG331   -0.170000       12.0110           0
     79696 WT26     1239     MECN     H11      HGA3     0.090000        1.0080           0
     79697 WT26     1239     MECN     H12      HGA3     0.090000        1.0080           0
     79698 WT26     1239     MECN     H13      HGA3     0.090000        1.0080           0
     79699 WT26     1239     MECN     C2       CG1N1    0.360000       12.0110           0
     79700 WT26     1239     MECN     N3       NG1T1   -0.460000       14.0070           0
     79701 WT26     1241     MECN     C1       CG331   -0.170000       12.0110           0
     79702 WT26     1241     MECN     H11      HGA3     0.090000        1.0080           0
     79703 WT26     1241     MECN     H12      HGA3     0.090000        1.0080           0
     79704 WT26     1241     MECN     H13      HGA3     0.090000        1.0080           0
     79705 WT26     1241     MECN     C2       CG1N1    0.360000       12.0110           0
     79706 WT26     1241     MECN     N3       NG1T1   -0.460000       14.0070           0
     79707 WT26     1244     MECN     C1       CG331   -0.170000       12.0110           0
     79708 WT26     1244     MECN     H11      HGA3     0.090000        1.0080           0
     79709 WT26     1244     MECN     H12      HGA3     0.090000        1.0080           0
     79710 WT26     1244     MECN     H13      HGA3     0.090000        1.0080           0
     79711 WT26     1244     MECN     C2       CG1N1    0.360000       12.0110           0
     79712 WT26     1244     MECN     N3       NG1T1   -0.460000       14.0070           0
     79713 WT26     1247     MECN     C1       CG331   -0.170000       12.0110           0
     79714 WT26     1247     MECN     H11      HGA3     0.090000        1.0080           0
     79715 WT26     1247     MECN     H12      HGA3     0.090000        1.0080           0
     79716 WT26     1247     MECN     H13      HGA3     0.090000        1.0080           0
     79717 WT26     1247     MECN     C2       CG1N1    0.360000       12.0110           0
     79718 WT26     1247     MECN     N3       NG1T1   -0.460000       14.0070           0
     79719 WT26     1250     MECN     C1       CG331   -0.170000       12.0110           0
     79720 WT26     1250     MECN     H11      HGA3     0.090000        1.0080           0
     79721 WT26     1250     MECN     H12      HGA3     0.090000        1.0080           0
     79722 WT26     1250     MECN     H13      HGA3     0.090000        1.0080           0
     79723 WT26     1250     MECN     C2       CG1N1    0.360000       12.0110           0
     79724 WT26     1250     MECN     N3       NG1T1   -0.460000       14.0070           0
     79725 WT26     1253     MECN     C1       CG331   -0.170000       12.0110           0
     79726 WT26     1253     MECN     H11      HGA3     0.090000        1.0080           0
     79727 WT26     1253     MECN     H12      HGA3     0.090000        1.0080           0
     79728 WT26     1253     MECN     H13      HGA3     0.090000        1.0080           0
     79729 WT26     1253     MECN     C2       CG1N1    0.360000       12.0110           0
     79730 WT26     1253     MECN     N3       NG1T1   -0.460000       14.0070           0
     79731 WT26     1254     MECN     C1       CG331   -0.170000       12.0110           0
     79732 WT26     1254     MECN     H11      HGA3     0.090000        1.0080           0
     79733 WT26     1254     MECN     H12      HGA3     0.090000        1.0080           0
     79734 WT26     1254     MECN     H13      HGA3     0.090000        1.0080           0
     79735 WT26     1254     MECN     C2       CG1N1    0.360000       12.0110           0
     79736 WT26     1254     MECN     N3       NG1T1   -0.460000       14.0070           0
     79737 WT26     1255     MECN     C1       CG331   -0.170000       12.0110           0
     79738 WT26     1255     MECN     H11      HGA3     0.090000        1.0080           0
     79739 WT26     1255     MECN     H12      HGA3     0.090000        1.0080           0
     79740 WT26     1255     MECN     H13      HGA3     0.090000        1.0080           0
     79741 WT26     1255     MECN     C2       CG1N1    0.360000       12.0110           0
     79742 WT26     1255     MECN     N3       NG1T1   -0.460000       14.0070           0
     79743 WT26     1258     MECN     C1       CG331   -0.170000       12.0110           0
     79744 WT26     1258     MECN     H11      HGA3     0.090000        1.0080           0
     79745 WT26     1258     MECN     H12      HGA3     0.090000        1.0080           0
     79746 WT26     1258     MECN     H13      HGA3     0.090000        1.0080           0
     79747 WT26     1258     MECN     C2       CG1N1    0.360000       12.0110           0
     79748 WT26     1258     MECN     N3       NG1T1   -0.460000       14.0070           0
     79749 WT26     1260     MECN     C1       CG331   -0.170000       12.0110           0
     79750 WT26     1260     MECN     H11      HGA3     0.090000        1.0080           0
     79751 WT26     1260     MECN     H12      HGA3     0.090000        1.0080           0
     79752 WT26     1260     MECN     H13      HGA3     0.090000        1.0080           0
     79753 WT26     1260     MECN     C2       CG1N1    0.360000       12.0110           0
     79754 WT26     1260     MECN     N3       NG1T1   -0.460000       14.0070           0
     79755 WT26     1261     MECN     C1       CG331   -0.170000       12.0110           0
     79756 WT26     1261     MECN     H11      HGA3     0.090000        1.0080           0
     79757 WT26     1261     MECN     H12      HGA3     0.090000        1.0080           0
     79758 WT26     1261     MECN     H13      HGA3     0.090000        1.0080           0
     79759 WT26     1261     MECN     C2       CG1N1    0.360000       12.0110           0
     79760 WT26     1261     MECN     N3       NG1T1   -0.460000       14.0070           0
     79761 WT26     1262     MECN     C1       CG331   -0.170000       12.0110           0
     79762 WT26     1262     MECN     H11      HGA3     0.090000        1.0080           0
     79763 WT26     1262     MECN     H12      HGA3     0.090000        1.0080           0
     79764 WT26     1262     MECN     H13      HGA3     0.090000        1.0080           0
     79765 WT26     1262     MECN     C2       CG1N1    0.360000       12.0110           0
     79766 WT26     1262     MECN     N3       NG1T1   -0.460000       14.0070           0
     79767 WT26     1263     MECN     C1       CG331   -0.170000       12.0110           0
     79768 WT26     1263     MECN     H11      HGA3     0.090000        1.0080           0
     79769 WT26     1263     MECN     H12      HGA3     0.090000        1.0080           0
     79770 WT26     1263     MECN     H13      HGA3     0.090000        1.0080           0
     79771 WT26     1263     MECN     C2       CG1N1    0.360000       12.0110           0
     79772 WT26     1263     MECN     N3       NG1T1   -0.460000       14.0070           0
     79773 WT26     1268     MECN     C1       CG331   -0.170000       12.0110           0
     79774 WT26     1268     MECN     H11      HGA3     0.090000        1.0080           0
     79775 WT26     1268     MECN     H12      HGA3     0.090000        1.0080           0
     79776 WT26     1268     MECN     H13      HGA3     0.090000        1.0080           0
     79777 WT26     1268     MECN     C2       CG1N1    0.360000       12.0110           0
     79778 WT26     1268     MECN     N3       NG1T1   -0.460000       14.0070           0
     79779 WT26     1271     MECN     C1       CG331   -0.170000       12.0110           0
     79780 WT26     1271     MECN     H11      HGA3     0.090000        1.0080           0
     79781 WT26     1271     MECN     H12      HGA3     0.090000        1.0080           0
     79782 WT26     1271     MECN     H13      HGA3     0.090000        1.0080           0
     79783 WT26     1271     MECN     C2       CG1N1    0.360000       12.0110           0
     79784 WT26     1271     MECN     N3       NG1T1   -0.460000       14.0070           0
     79785 WT26     1272     MECN     C1       CG331   -0.170000       12.0110           0
     79786 WT26     1272     MECN     H11      HGA3     0.090000        1.0080           0
     79787 WT26     1272     MECN     H12      HGA3     0.090000        1.0080           0
     79788 WT26     1272     MECN     H13      HGA3     0.090000        1.0080           0
     79789 WT26     1272     MECN     C2       CG1N1    0.360000       12.0110           0
     79790 WT26     1272     MECN     N3       NG1T1   -0.460000       14.0070           0
     79791 WT26     1273     MECN     C1       CG331   -0.170000       12.0110           0
     79792 WT26     1273     MECN     H11      HGA3     0.090000        1.0080           0
     79793 WT26     1273     MECN     H12      HGA3     0.090000        1.0080           0
     79794 WT26     1273     MECN     H13      HGA3     0.090000        1.0080           0
     79795 WT26     1273     MECN     C2       CG1N1    0.360000       12.0110           0
     79796 WT26     1273     MECN     N3       NG1T1   -0.460000       14.0070           0
     79797 WT26     1274     MECN     C1       CG331   -0.170000       12.0110           0
     79798 WT26     1274     MECN     H11      HGA3     0.090000        1.0080           0
     79799 WT26     1274     MECN     H12      HGA3     0.090000        1.0080           0
     79800 WT26     1274     MECN     H13      HGA3     0.090000        1.0080           0
     79801 WT26     1274     MECN     C2       CG1N1    0.360000       12.0110           0
     79802 WT26     1274     MECN     N3       NG1T1   -0.460000       14.0070           0
     79803 WT26     1277     MECN     C1       CG331   -0.170000       12.0110           0
     79804 WT26     1277     MECN     H11      HGA3     0.090000        1.0080           0
     79805 WT26     1277     MECN     H12      HGA3     0.090000        1.0080           0
     79806 WT26     1277     MECN     H13      HGA3     0.090000        1.0080           0
     79807 WT26     1277     MECN     C2       CG1N1    0.360000       12.0110           0
     79808 WT26     1277     MECN     N3       NG1T1   -0.460000       14.0070           0
     79809 WT26     1280     MECN     C1       CG331   -0.170000       12.0110           0
     79810 WT26     1280     MECN     H11      HGA3     0.090000        1.0080           0
     79811 WT26     1280     MECN     H12      HGA3     0.090000        1.0080           0
     79812 WT26     1280     MECN     H13      HGA3     0.090000        1.0080           0
     79813 WT26     1280     MECN     C2       CG1N1    0.360000       12.0110           0
     79814 WT26     1280     MECN     N3       NG1T1   -0.460000       14.0070           0
     79815 WT26     1283     MECN     C1       CG331   -0.170000       12.0110           0
     79816 WT26     1283     MECN     H11      HGA3     0.090000        1.0080           0
     79817 WT26     1283     MECN     H12      HGA3     0.090000        1.0080           0
     79818 WT26     1283     MECN     H13      HGA3     0.090000        1.0080           0
     79819 WT26     1283     MECN     C2       CG1N1    0.360000       12.0110           0
     79820 WT26     1283     MECN     N3       NG1T1   -0.460000       14.0070           0
     79821 WT26     1285     MECN     C1       CG331   -0.170000       12.0110           0
     79822 WT26     1285     MECN     H11      HGA3     0.090000        1.0080           0
     79823 WT26     1285     MECN     H12      HGA3     0.090000        1.0080           0
     79824 WT26     1285     MECN     H13      HGA3     0.090000        1.0080           0
     79825 WT26     1285     MECN     C2       CG1N1    0.360000       12.0110           0
     79826 WT26     1285     MECN     N3       NG1T1   -0.460000       14.0070           0
     79827 WT26     1286     MECN     C1       CG331   -0.170000       12.0110           0
     79828 WT26     1286     MECN     H11      HGA3     0.090000        1.0080           0
     79829 WT26     1286     MECN     H12      HGA3     0.090000        1.0080           0
     79830 WT26     1286     MECN     H13      HGA3     0.090000        1.0080           0
     79831 WT26     1286     MECN     C2       CG1N1    0.360000       12.0110           0
     79832 WT26     1286     MECN     N3       NG1T1   -0.460000       14.0070           0
     79833 WT26     1287     MECN     C1       CG331   -0.170000       12.0110           0
     79834 WT26     1287     MECN     H11      HGA3     0.090000        1.0080           0
     79835 WT26     1287     MECN     H12      HGA3     0.090000        1.0080           0
     79836 WT26     1287     MECN     H13      HGA3     0.090000        1.0080           0
     79837 WT26     1287     MECN     C2       CG1N1    0.360000       12.0110           0
     79838 WT26     1287     MECN     N3       NG1T1   -0.460000       14.0070           0
     79839 WT26     1292     MECN     C1       CG331   -0.170000       12.0110           0
     79840 WT26     1292     MECN     H11      HGA3     0.090000        1.0080           0
     79841 WT26     1292     MECN     H12      HGA3     0.090000        1.0080           0
     79842 WT26     1292     MECN     H13      HGA3     0.090000        1.0080           0
     79843 WT26     1292     MECN     C2       CG1N1    0.360000       12.0110           0
     79844 WT26     1292     MECN     N3       NG1T1   -0.460000       14.0070           0
     79845 WT26     1293     MECN     C1       CG331   -0.170000       12.0110           0
     79846 WT26     1293     MECN     H11      HGA3     0.090000        1.0080           0
     79847 WT26     1293     MECN     H12      HGA3     0.090000        1.0080           0
     79848 WT26     1293     MECN     H13      HGA3     0.090000        1.0080           0
     79849 WT26     1293     MECN     C2       CG1N1    0.360000       12.0110           0
     79850 WT26     1293     MECN     N3       NG1T1   -0.460000       14.0070           0
     79851 WT26     1295     MECN     C1       CG331   -0.170000       12.0110           0
     79852 WT26     1295     MECN     H11      HGA3     0.090000        1.0080           0
     79853 WT26     1295     MECN     H12      HGA3     0.090000        1.0080           0
     79854 WT26     1295     MECN     H13      HGA3     0.090000        1.0080           0
     79855 WT26     1295     MECN     C2       CG1N1    0.360000       12.0110           0
     79856 WT26     1295     MECN     N3       NG1T1   -0.460000       14.0070           0
     79857 WT26     1297     MECN     C1       CG331   -0.170000       12.0110           0
     79858 WT26     1297     MECN     H11      HGA3     0.090000        1.0080           0
     79859 WT26     1297     MECN     H12      HGA3     0.090000        1.0080           0
     79860 WT26     1297     MECN     H13      HGA3     0.090000        1.0080           0
     79861 WT26     1297     MECN     C2       CG1N1    0.360000       12.0110           0
     79862 WT26     1297     MECN     N3       NG1T1   -0.460000       14.0070           0
     79863 WT26     1298     MECN     C1       CG331   -0.170000       12.0110           0
     79864 WT26     1298     MECN     H11      HGA3     0.090000        1.0080           0
     79865 WT26     1298     MECN     H12      HGA3     0.090000        1.0080           0
     79866 WT26     1298     MECN     H13      HGA3     0.090000        1.0080           0
     79867 WT26     1298     MECN     C2       CG1N1    0.360000       12.0110           0
     79868 WT26     1298     MECN     N3       NG1T1   -0.460000       14.0070           0
     79869 WT26     1300     MECN     C1       CG331   -0.170000       12.0110           0
     79870 WT26     1300     MECN     H11      HGA3     0.090000        1.0080           0
     79871 WT26     1300     MECN     H12      HGA3     0.090000        1.0080           0
     79872 WT26     1300     MECN     H13      HGA3     0.090000        1.0080           0
     79873 WT26     1300     MECN     C2       CG1N1    0.360000       12.0110           0
     79874 WT26     1300     MECN     N3       NG1T1   -0.460000       14.0070           0
     79875 WT26     1301     MECN     C1       CG331   -0.170000       12.0110           0
     79876 WT26     1301     MECN     H11      HGA3     0.090000        1.0080           0
     79877 WT26     1301     MECN     H12      HGA3     0.090000        1.0080           0
     79878 WT26     1301     MECN     H13      HGA3     0.090000        1.0080           0
     79879 WT26     1301     MECN     C2       CG1N1    0.360000       12.0110           0
     79880 WT26     1301     MECN     N3       NG1T1   -0.460000       14.0070           0
     79881 WT26     1305     MECN     C1       CG331   -0.170000       12.0110           0
     79882 WT26     1305     MECN     H11      HGA3     0.090000        1.0080           0
     79883 WT26     1305     MECN     H12      HGA3     0.090000        1.0080           0
     79884 WT26     1305     MECN     H13      HGA3     0.090000        1.0080           0
     79885 WT26     1305     MECN     C2       CG1N1    0.360000       12.0110           0
     79886 WT26     1305     MECN     N3       NG1T1   -0.460000       14.0070           0
     79887 WT26     1310     MECN     C1       CG331   -0.170000       12.0110           0
     79888 WT26     1310     MECN     H11      HGA3     0.090000        1.0080           0
     79889 WT26     1310     MECN     H12      HGA3     0.090000        1.0080           0
     79890 WT26     1310     MECN     H13      HGA3     0.090000        1.0080           0
     79891 WT26     1310     MECN     C2       CG1N1    0.360000       12.0110           0
     79892 WT26     1310     MECN     N3       NG1T1   -0.460000       14.0070           0
     79893 WT26     1311     MECN     C1       CG331   -0.170000       12.0110           0
     79894 WT26     1311     MECN     H11      HGA3     0.090000        1.0080           0
     79895 WT26     1311     MECN     H12      HGA3     0.090000        1.0080           0
     79896 WT26     1311     MECN     H13      HGA3     0.090000        1.0080           0
     79897 WT26     1311     MECN     C2       CG1N1    0.360000       12.0110           0
     79898 WT26     1311     MECN     N3       NG1T1   -0.460000       14.0070           0
     79899 WT26     1312     MECN     C1       CG331   -0.170000       12.0110           0
     79900 WT26     1312     MECN     H11      HGA3     0.090000        1.0080           0
     79901 WT26     1312     MECN     H12      HGA3     0.090000        1.0080           0
     79902 WT26     1312     MECN     H13      HGA3     0.090000        1.0080           0
     79903 WT26     1312     MECN     C2       CG1N1    0.360000       12.0110           0
     79904 WT26     1312     MECN     N3       NG1T1   -0.460000       14.0070           0
     79905 WT26     1314     MECN     C1       CG331   -0.170000       12.0110           0
     79906 WT26     1314     MECN     H11      HGA3     0.090000        1.0080           0
     79907 WT26     1314     MECN     H12      HGA3     0.090000        1.0080           0
     79908 WT26     1314     MECN     H13      HGA3     0.090000        1.0080           0
     79909 WT26     1314     MECN     C2       CG1N1    0.360000       12.0110           0
     79910 WT26     1314     MECN     N3       NG1T1   -0.460000       14.0070           0
     79911 WT26     1315     MECN     C1       CG331   -0.170000       12.0110           0
     79912 WT26     1315     MECN     H11      HGA3     0.090000        1.0080           0
     79913 WT26     1315     MECN     H12      HGA3     0.090000        1.0080           0
     79914 WT26     1315     MECN     H13      HGA3     0.090000        1.0080           0
     79915 WT26     1315     MECN     C2       CG1N1    0.360000       12.0110           0
     79916 WT26     1315     MECN     N3       NG1T1   -0.460000       14.0070           0
     79917 WT26     1318     MECN     C1       CG331   -0.170000       12.0110           0
     79918 WT26     1318     MECN     H11      HGA3     0.090000        1.0080           0
     79919 WT26     1318     MECN     H12      HGA3     0.090000        1.0080           0
     79920 WT26     1318     MECN     H13      HGA3     0.090000        1.0080           0
     79921 WT26     1318     MECN     C2       CG1N1    0.360000       12.0110           0
     79922 WT26     1318     MECN     N3       NG1T1   -0.460000       14.0070           0
     79923 WT26     1319     MECN     C1       CG331   -0.170000       12.0110           0
     79924 WT26     1319     MECN     H11      HGA3     0.090000        1.0080           0
     79925 WT26     1319     MECN     H12      HGA3     0.090000        1.0080           0
     79926 WT26     1319     MECN     H13      HGA3     0.090000        1.0080           0
     79927 WT26     1319     MECN     C2       CG1N1    0.360000       12.0110           0
     79928 WT26     1319     MECN     N3       NG1T1   -0.460000       14.0070           0
     79929 WT26     1320     MECN     C1       CG331   -0.170000       12.0110           0
     79930 WT26     1320     MECN     H11      HGA3     0.090000        1.0080           0
     79931 WT26     1320     MECN     H12      HGA3     0.090000        1.0080           0
     79932 WT26     1320     MECN     H13      HGA3     0.090000        1.0080           0
     79933 WT26     1320     MECN     C2       CG1N1    0.360000       12.0110           0
     79934 WT26     1320     MECN     N3       NG1T1   -0.460000       14.0070           0
     79935 WT26     1324     MECN     C1       CG331   -0.170000       12.0110           0
     79936 WT26     1324     MECN     H11      HGA3     0.090000        1.0080           0
     79937 WT26     1324     MECN     H12      HGA3     0.090000        1.0080           0
     79938 WT26     1324     MECN     H13      HGA3     0.090000        1.0080           0
     79939 WT26     1324     MECN     C2       CG1N1    0.360000       12.0110           0
     79940 WT26     1324     MECN     N3       NG1T1   -0.460000       14.0070           0
     79941 WT26     1325     MECN     C1       CG331   -0.170000       12.0110           0
     79942 WT26     1325     MECN     H11      HGA3     0.090000        1.0080           0
     79943 WT26     1325     MECN     H12      HGA3     0.090000        1.0080           0
     79944 WT26     1325     MECN     H13      HGA3     0.090000        1.0080           0
     79945 WT26     1325     MECN     C2       CG1N1    0.360000       12.0110           0
     79946 WT26     1325     MECN     N3       NG1T1   -0.460000       14.0070           0
     79947 WT26     1327     MECN     C1       CG331   -0.170000       12.0110           0
     79948 WT26     1327     MECN     H11      HGA3     0.090000        1.0080           0
     79949 WT26     1327     MECN     H12      HGA3     0.090000        1.0080           0
     79950 WT26     1327     MECN     H13      HGA3     0.090000        1.0080           0
     79951 WT26     1327     MECN     C2       CG1N1    0.360000       12.0110           0
     79952 WT26     1327     MECN     N3       NG1T1   -0.460000       14.0070           0
     79953 WT26     1331     MECN     C1       CG331   -0.170000       12.0110           0
     79954 WT26     1331     MECN     H11      HGA3     0.090000        1.0080           0
     79955 WT26     1331     MECN     H12      HGA3     0.090000        1.0080           0
     79956 WT26     1331     MECN     H13      HGA3     0.090000        1.0080           0
     79957 WT26     1331     MECN     C2       CG1N1    0.360000       12.0110           0
     79958 WT26     1331     MECN     N3       NG1T1   -0.460000       14.0070           0
     79959 WT27     2        MECN     C1       CG331   -0.170000       12.0110           0
     79960 WT27     2        MECN     H11      HGA3     0.090000        1.0080           0
     79961 WT27     2        MECN     H12      HGA3     0.090000        1.0080           0
     79962 WT27     2        MECN     H13      HGA3     0.090000        1.0080           0
     79963 WT27     2        MECN     C2       CG1N1    0.360000       12.0110           0
     79964 WT27     2        MECN     N3       NG1T1   -0.460000       14.0070           0
     79965 WT27     5        MECN     C1       CG331   -0.170000       12.0110           0
     79966 WT27     5        MECN     H11      HGA3     0.090000        1.0080           0
     79967 WT27     5        MECN     H12      HGA3     0.090000        1.0080           0
     79968 WT27     5        MECN     H13      HGA3     0.090000        1.0080           0
     79969 WT27     5        MECN     C2       CG1N1    0.360000       12.0110           0
     79970 WT27     5        MECN     N3       NG1T1   -0.460000       14.0070           0
     79971 WT27     6        MECN     C1       CG331   -0.170000       12.0110           0
     79972 WT27     6        MECN     H11      HGA3     0.090000        1.0080           0
     79973 WT27     6        MECN     H12      HGA3     0.090000        1.0080           0
     79974 WT27     6        MECN     H13      HGA3     0.090000        1.0080           0
     79975 WT27     6        MECN     C2       CG1N1    0.360000       12.0110           0
     79976 WT27     6        MECN     N3       NG1T1   -0.460000       14.0070           0
     79977 WT27     8        MECN     C1       CG331   -0.170000       12.0110           0
     79978 WT27     8        MECN     H11      HGA3     0.090000        1.0080           0
     79979 WT27     8        MECN     H12      HGA3     0.090000        1.0080           0
     79980 WT27     8        MECN     H13      HGA3     0.090000        1.0080           0
     79981 WT27     8        MECN     C2       CG1N1    0.360000       12.0110           0
     79982 WT27     8        MECN     N3       NG1T1   -0.460000       14.0070           0
     79983 WT27     11       MECN     C1       CG331   -0.170000       12.0110           0
     79984 WT27     11       MECN     H11      HGA3     0.090000        1.0080           0
     79985 WT27     11       MECN     H12      HGA3     0.090000        1.0080           0
     79986 WT27     11       MECN     H13      HGA3     0.090000        1.0080           0
     79987 WT27     11       MECN     C2       CG1N1    0.360000       12.0110           0
     79988 WT27     11       MECN     N3       NG1T1   -0.460000       14.0070           0
     79989 WT27     13       MECN     C1       CG331   -0.170000       12.0110           0
     79990 WT27     13       MECN     H11      HGA3     0.090000        1.0080           0
     79991 WT27     13       MECN     H12      HGA3     0.090000        1.0080           0
     79992 WT27     13       MECN     H13      HGA3     0.090000        1.0080           0
     79993 WT27     13       MECN     C2       CG1N1    0.360000       12.0110           0
     79994 WT27     13       MECN     N3       NG1T1   -0.460000       14.0070           0
     79995 WT27     15       MECN     C1       CG331   -0.170000       12.0110           0
     79996 WT27     15       MECN     H11      HGA3     0.090000        1.0080           0
     79997 WT27     15       MECN     H12      HGA3     0.090000        1.0080           0
     79998 WT27     15       MECN     H13      HGA3     0.090000        1.0080           0
     79999 WT27     15       MECN     C2       CG1N1    0.360000       12.0110           0
     80000 WT27     15       MECN     N3       NG1T1   -0.460000       14.0070           0
     80001 WT27     17       MECN     C1       CG331   -0.170000       12.0110           0
     80002 WT27     17       MECN     H11      HGA3     0.090000        1.0080           0
     80003 WT27     17       MECN     H12      HGA3     0.090000        1.0080           0
     80004 WT27     17       MECN     H13      HGA3     0.090000        1.0080           0
     80005 WT27     17       MECN     C2       CG1N1    0.360000       12.0110           0
     80006 WT27     17       MECN     N3       NG1T1   -0.460000       14.0070           0
     80007 WT27     18       MECN     C1       CG331   -0.170000       12.0110           0
     80008 WT27     18       MECN     H11      HGA3     0.090000        1.0080           0
     80009 WT27     18       MECN     H12      HGA3     0.090000        1.0080           0
     80010 WT27     18       MECN     H13      HGA3     0.090000        1.0080           0
     80011 WT27     18       MECN     C2       CG1N1    0.360000       12.0110           0
     80012 WT27     18       MECN     N3       NG1T1   -0.460000       14.0070           0
     80013 WT27     19       MECN     C1       CG331   -0.170000       12.0110           0
     80014 WT27     19       MECN     H11      HGA3     0.090000        1.0080           0
     80015 WT27     19       MECN     H12      HGA3     0.090000        1.0080           0
     80016 WT27     19       MECN     H13      HGA3     0.090000        1.0080           0
     80017 WT27     19       MECN     C2       CG1N1    0.360000       12.0110           0
     80018 WT27     19       MECN     N3       NG1T1   -0.460000       14.0070           0
     80019 WT27     20       MECN     C1       CG331   -0.170000       12.0110           0
     80020 WT27     20       MECN     H11      HGA3     0.090000        1.0080           0
     80021 WT27     20       MECN     H12      HGA3     0.090000        1.0080           0
     80022 WT27     20       MECN     H13      HGA3     0.090000        1.0080           0
     80023 WT27     20       MECN     C2       CG1N1    0.360000       12.0110           0
     80024 WT27     20       MECN     N3       NG1T1   -0.460000       14.0070           0
     80025 WT27     24       MECN     C1       CG331   -0.170000       12.0110           0
     80026 WT27     24       MECN     H11      HGA3     0.090000        1.0080           0
     80027 WT27     24       MECN     H12      HGA3     0.090000        1.0080           0
     80028 WT27     24       MECN     H13      HGA3     0.090000        1.0080           0
     80029 WT27     24       MECN     C2       CG1N1    0.360000       12.0110           0
     80030 WT27     24       MECN     N3       NG1T1   -0.460000       14.0070           0
     80031 WT27     25       MECN     C1       CG331   -0.170000       12.0110           0
     80032 WT27     25       MECN     H11      HGA3     0.090000        1.0080           0
     80033 WT27     25       MECN     H12      HGA3     0.090000        1.0080           0
     80034 WT27     25       MECN     H13      HGA3     0.090000        1.0080           0
     80035 WT27     25       MECN     C2       CG1N1    0.360000       12.0110           0
     80036 WT27     25       MECN     N3       NG1T1   -0.460000       14.0070           0
     80037 WT27     27       MECN     C1       CG331   -0.170000       12.0110           0
     80038 WT27     27       MECN     H11      HGA3     0.090000        1.0080           0
     80039 WT27     27       MECN     H12      HGA3     0.090000        1.0080           0
     80040 WT27     27       MECN     H13      HGA3     0.090000        1.0080           0
     80041 WT27     27       MECN     C2       CG1N1    0.360000       12.0110           0
     80042 WT27     27       MECN     N3       NG1T1   -0.460000       14.0070           0
     80043 WT27     28       MECN     C1       CG331   -0.170000       12.0110           0
     80044 WT27     28       MECN     H11      HGA3     0.090000        1.0080           0
     80045 WT27     28       MECN     H12      HGA3     0.090000        1.0080           0
     80046 WT27     28       MECN     H13      HGA3     0.090000        1.0080           0
     80047 WT27     28       MECN     C2       CG1N1    0.360000       12.0110           0
     80048 WT27     28       MECN     N3       NG1T1   -0.460000       14.0070           0
     80049 WT27     30       MECN     C1       CG331   -0.170000       12.0110           0
     80050 WT27     30       MECN     H11      HGA3     0.090000        1.0080           0
     80051 WT27     30       MECN     H12      HGA3     0.090000        1.0080           0
     80052 WT27     30       MECN     H13      HGA3     0.090000        1.0080           0
     80053 WT27     30       MECN     C2       CG1N1    0.360000       12.0110           0
     80054 WT27     30       MECN     N3       NG1T1   -0.460000       14.0070           0
     80055 WT27     32       MECN     C1       CG331   -0.170000       12.0110           0
     80056 WT27     32       MECN     H11      HGA3     0.090000        1.0080           0
     80057 WT27     32       MECN     H12      HGA3     0.090000        1.0080           0
     80058 WT27     32       MECN     H13      HGA3     0.090000        1.0080           0
     80059 WT27     32       MECN     C2       CG1N1    0.360000       12.0110           0
     80060 WT27     32       MECN     N3       NG1T1   -0.460000       14.0070           0
     80061 WT27     35       MECN     C1       CG331   -0.170000       12.0110           0
     80062 WT27     35       MECN     H11      HGA3     0.090000        1.0080           0
     80063 WT27     35       MECN     H12      HGA3     0.090000        1.0080           0
     80064 WT27     35       MECN     H13      HGA3     0.090000        1.0080           0
     80065 WT27     35       MECN     C2       CG1N1    0.360000       12.0110           0
     80066 WT27     35       MECN     N3       NG1T1   -0.460000       14.0070           0
     80067 WT27     38       MECN     C1       CG331   -0.170000       12.0110           0
     80068 WT27     38       MECN     H11      HGA3     0.090000        1.0080           0
     80069 WT27     38       MECN     H12      HGA3     0.090000        1.0080           0
     80070 WT27     38       MECN     H13      HGA3     0.090000        1.0080           0
     80071 WT27     38       MECN     C2       CG1N1    0.360000       12.0110           0
     80072 WT27     38       MECN     N3       NG1T1   -0.460000       14.0070           0
     80073 WT27     39       MECN     C1       CG331   -0.170000       12.0110           0
     80074 WT27     39       MECN     H11      HGA3     0.090000        1.0080           0
     80075 WT27     39       MECN     H12      HGA3     0.090000        1.0080           0
     80076 WT27     39       MECN     H13      HGA3     0.090000        1.0080           0
     80077 WT27     39       MECN     C2       CG1N1    0.360000       12.0110           0
     80078 WT27     39       MECN     N3       NG1T1   -0.460000       14.0070           0
     80079 WT27     40       MECN     C1       CG331   -0.170000       12.0110           0
     80080 WT27     40       MECN     H11      HGA3     0.090000        1.0080           0
     80081 WT27     40       MECN     H12      HGA3     0.090000        1.0080           0
     80082 WT27     40       MECN     H13      HGA3     0.090000        1.0080           0
     80083 WT27     40       MECN     C2       CG1N1    0.360000       12.0110           0
     80084 WT27     40       MECN     N3       NG1T1   -0.460000       14.0070           0
     80085 WT27     41       MECN     C1       CG331   -0.170000       12.0110           0
     80086 WT27     41       MECN     H11      HGA3     0.090000        1.0080           0
     80087 WT27     41       MECN     H12      HGA3     0.090000        1.0080           0
     80088 WT27     41       MECN     H13      HGA3     0.090000        1.0080           0
     80089 WT27     41       MECN     C2       CG1N1    0.360000       12.0110           0
     80090 WT27     41       MECN     N3       NG1T1   -0.460000       14.0070           0
     80091 WT27     45       MECN     C1       CG331   -0.170000       12.0110           0
     80092 WT27     45       MECN     H11      HGA3     0.090000        1.0080           0
     80093 WT27     45       MECN     H12      HGA3     0.090000        1.0080           0
     80094 WT27     45       MECN     H13      HGA3     0.090000        1.0080           0
     80095 WT27     45       MECN     C2       CG1N1    0.360000       12.0110           0
     80096 WT27     45       MECN     N3       NG1T1   -0.460000       14.0070           0
     80097 WT27     47       MECN     C1       CG331   -0.170000       12.0110           0
     80098 WT27     47       MECN     H11      HGA3     0.090000        1.0080           0
     80099 WT27     47       MECN     H12      HGA3     0.090000        1.0080           0
     80100 WT27     47       MECN     H13      HGA3     0.090000        1.0080           0
     80101 WT27     47       MECN     C2       CG1N1    0.360000       12.0110           0
     80102 WT27     47       MECN     N3       NG1T1   -0.460000       14.0070           0
     80103 WT27     48       MECN     C1       CG331   -0.170000       12.0110           0
     80104 WT27     48       MECN     H11      HGA3     0.090000        1.0080           0
     80105 WT27     48       MECN     H12      HGA3     0.090000        1.0080           0
     80106 WT27     48       MECN     H13      HGA3     0.090000        1.0080           0
     80107 WT27     48       MECN     C2       CG1N1    0.360000       12.0110           0
     80108 WT27     48       MECN     N3       NG1T1   -0.460000       14.0070           0
     80109 WT27     62       MECN     C1       CG331   -0.170000       12.0110           0
     80110 WT27     62       MECN     H11      HGA3     0.090000        1.0080           0
     80111 WT27     62       MECN     H12      HGA3     0.090000        1.0080           0
     80112 WT27     62       MECN     H13      HGA3     0.090000        1.0080           0
     80113 WT27     62       MECN     C2       CG1N1    0.360000       12.0110           0
     80114 WT27     62       MECN     N3       NG1T1   -0.460000       14.0070           0
     80115 WT27     65       MECN     C1       CG331   -0.170000       12.0110           0
     80116 WT27     65       MECN     H11      HGA3     0.090000        1.0080           0
     80117 WT27     65       MECN     H12      HGA3     0.090000        1.0080           0
     80118 WT27     65       MECN     H13      HGA3     0.090000        1.0080           0
     80119 WT27     65       MECN     C2       CG1N1    0.360000       12.0110           0
     80120 WT27     65       MECN     N3       NG1T1   -0.460000       14.0070           0
     80121 WT27     66       MECN     C1       CG331   -0.170000       12.0110           0
     80122 WT27     66       MECN     H11      HGA3     0.090000        1.0080           0
     80123 WT27     66       MECN     H12      HGA3     0.090000        1.0080           0
     80124 WT27     66       MECN     H13      HGA3     0.090000        1.0080           0
     80125 WT27     66       MECN     C2       CG1N1    0.360000       12.0110           0
     80126 WT27     66       MECN     N3       NG1T1   -0.460000       14.0070           0
     80127 WT27     67       MECN     C1       CG331   -0.170000       12.0110           0
     80128 WT27     67       MECN     H11      HGA3     0.090000        1.0080           0
     80129 WT27     67       MECN     H12      HGA3     0.090000        1.0080           0
     80130 WT27     67       MECN     H13      HGA3     0.090000        1.0080           0
     80131 WT27     67       MECN     C2       CG1N1    0.360000       12.0110           0
     80132 WT27     67       MECN     N3       NG1T1   -0.460000       14.0070           0
     80133 WT27     68       MECN     C1       CG331   -0.170000       12.0110           0
     80134 WT27     68       MECN     H11      HGA3     0.090000        1.0080           0
     80135 WT27     68       MECN     H12      HGA3     0.090000        1.0080           0
     80136 WT27     68       MECN     H13      HGA3     0.090000        1.0080           0
     80137 WT27     68       MECN     C2       CG1N1    0.360000       12.0110           0
     80138 WT27     68       MECN     N3       NG1T1   -0.460000       14.0070           0
     80139 WT27     70       MECN     C1       CG331   -0.170000       12.0110           0
     80140 WT27     70       MECN     H11      HGA3     0.090000        1.0080           0
     80141 WT27     70       MECN     H12      HGA3     0.090000        1.0080           0
     80142 WT27     70       MECN     H13      HGA3     0.090000        1.0080           0
     80143 WT27     70       MECN     C2       CG1N1    0.360000       12.0110           0
     80144 WT27     70       MECN     N3       NG1T1   -0.460000       14.0070           0
     80145 WT27     80       MECN     C1       CG331   -0.170000       12.0110           0
     80146 WT27     80       MECN     H11      HGA3     0.090000        1.0080           0
     80147 WT27     80       MECN     H12      HGA3     0.090000        1.0080           0
     80148 WT27     80       MECN     H13      HGA3     0.090000        1.0080           0
     80149 WT27     80       MECN     C2       CG1N1    0.360000       12.0110           0
     80150 WT27     80       MECN     N3       NG1T1   -0.460000       14.0070           0
     80151 WT27     82       MECN     C1       CG331   -0.170000       12.0110           0
     80152 WT27     82       MECN     H11      HGA3     0.090000        1.0080           0
     80153 WT27     82       MECN     H12      HGA3     0.090000        1.0080           0
     80154 WT27     82       MECN     H13      HGA3     0.090000        1.0080           0
     80155 WT27     82       MECN     C2       CG1N1    0.360000       12.0110           0
     80156 WT27     82       MECN     N3       NG1T1   -0.460000       14.0070           0
     80157 WT27     83       MECN     C1       CG331   -0.170000       12.0110           0
     80158 WT27     83       MECN     H11      HGA3     0.090000        1.0080           0
     80159 WT27     83       MECN     H12      HGA3     0.090000        1.0080           0
     80160 WT27     83       MECN     H13      HGA3     0.090000        1.0080           0
     80161 WT27     83       MECN     C2       CG1N1    0.360000       12.0110           0
     80162 WT27     83       MECN     N3       NG1T1   -0.460000       14.0070           0
     80163 WT27     88       MECN     C1       CG331   -0.170000       12.0110           0
     80164 WT27     88       MECN     H11      HGA3     0.090000        1.0080           0
     80165 WT27     88       MECN     H12      HGA3     0.090000        1.0080           0
     80166 WT27     88       MECN     H13      HGA3     0.090000        1.0080           0
     80167 WT27     88       MECN     C2       CG1N1    0.360000       12.0110           0
     80168 WT27     88       MECN     N3       NG1T1   -0.460000       14.0070           0
     80169 WT27     89       MECN     C1       CG331   -0.170000       12.0110           0
     80170 WT27     89       MECN     H11      HGA3     0.090000        1.0080           0
     80171 WT27     89       MECN     H12      HGA3     0.090000        1.0080           0
     80172 WT27     89       MECN     H13      HGA3     0.090000        1.0080           0
     80173 WT27     89       MECN     C2       CG1N1    0.360000       12.0110           0
     80174 WT27     89       MECN     N3       NG1T1   -0.460000       14.0070           0
     80175 WT27     93       MECN     C1       CG331   -0.170000       12.0110           0
     80176 WT27     93       MECN     H11      HGA3     0.090000        1.0080           0
     80177 WT27     93       MECN     H12      HGA3     0.090000        1.0080           0
     80178 WT27     93       MECN     H13      HGA3     0.090000        1.0080           0
     80179 WT27     93       MECN     C2       CG1N1    0.360000       12.0110           0
     80180 WT27     93       MECN     N3       NG1T1   -0.460000       14.0070           0
     80181 WT27     97       MECN     C1       CG331   -0.170000       12.0110           0
     80182 WT27     97       MECN     H11      HGA3     0.090000        1.0080           0
     80183 WT27     97       MECN     H12      HGA3     0.090000        1.0080           0
     80184 WT27     97       MECN     H13      HGA3     0.090000        1.0080           0
     80185 WT27     97       MECN     C2       CG1N1    0.360000       12.0110           0
     80186 WT27     97       MECN     N3       NG1T1   -0.460000       14.0070           0
     80187 WT27     99       MECN     C1       CG331   -0.170000       12.0110           0
     80188 WT27     99       MECN     H11      HGA3     0.090000        1.0080           0
     80189 WT27     99       MECN     H12      HGA3     0.090000        1.0080           0
     80190 WT27     99       MECN     H13      HGA3     0.090000        1.0080           0
     80191 WT27     99       MECN     C2       CG1N1    0.360000       12.0110           0
     80192 WT27     99       MECN     N3       NG1T1   -0.460000       14.0070           0
     80193 WT27     100      MECN     C1       CG331   -0.170000       12.0110           0
     80194 WT27     100      MECN     H11      HGA3     0.090000        1.0080           0
     80195 WT27     100      MECN     H12      HGA3     0.090000        1.0080           0
     80196 WT27     100      MECN     H13      HGA3     0.090000        1.0080           0
     80197 WT27     100      MECN     C2       CG1N1    0.360000       12.0110           0
     80198 WT27     100      MECN     N3       NG1T1   -0.460000       14.0070           0
     80199 WT27     102      MECN     C1       CG331   -0.170000       12.0110           0
     80200 WT27     102      MECN     H11      HGA3     0.090000        1.0080           0
     80201 WT27     102      MECN     H12      HGA3     0.090000        1.0080           0
     80202 WT27     102      MECN     H13      HGA3     0.090000        1.0080           0
     80203 WT27     102      MECN     C2       CG1N1    0.360000       12.0110           0
     80204 WT27     102      MECN     N3       NG1T1   -0.460000       14.0070           0
     80205 WT27     104      MECN     C1       CG331   -0.170000       12.0110           0
     80206 WT27     104      MECN     H11      HGA3     0.090000        1.0080           0
     80207 WT27     104      MECN     H12      HGA3     0.090000        1.0080           0
     80208 WT27     104      MECN     H13      HGA3     0.090000        1.0080           0
     80209 WT27     104      MECN     C2       CG1N1    0.360000       12.0110           0
     80210 WT27     104      MECN     N3       NG1T1   -0.460000       14.0070           0
     80211 WT27     107      MECN     C1       CG331   -0.170000       12.0110           0
     80212 WT27     107      MECN     H11      HGA3     0.090000        1.0080           0
     80213 WT27     107      MECN     H12      HGA3     0.090000        1.0080           0
     80214 WT27     107      MECN     H13      HGA3     0.090000        1.0080           0
     80215 WT27     107      MECN     C2       CG1N1    0.360000       12.0110           0
     80216 WT27     107      MECN     N3       NG1T1   -0.460000       14.0070           0
     80217 WT27     108      MECN     C1       CG331   -0.170000       12.0110           0
     80218 WT27     108      MECN     H11      HGA3     0.090000        1.0080           0
     80219 WT27     108      MECN     H12      HGA3     0.090000        1.0080           0
     80220 WT27     108      MECN     H13      HGA3     0.090000        1.0080           0
     80221 WT27     108      MECN     C2       CG1N1    0.360000       12.0110           0
     80222 WT27     108      MECN     N3       NG1T1   -0.460000       14.0070           0
     80223 WT27     114      MECN     C1       CG331   -0.170000       12.0110           0
     80224 WT27     114      MECN     H11      HGA3     0.090000        1.0080           0
     80225 WT27     114      MECN     H12      HGA3     0.090000        1.0080           0
     80226 WT27     114      MECN     H13      HGA3     0.090000        1.0080           0
     80227 WT27     114      MECN     C2       CG1N1    0.360000       12.0110           0
     80228 WT27     114      MECN     N3       NG1T1   -0.460000       14.0070           0
     80229 WT27     117      MECN     C1       CG331   -0.170000       12.0110           0
     80230 WT27     117      MECN     H11      HGA3     0.090000        1.0080           0
     80231 WT27     117      MECN     H12      HGA3     0.090000        1.0080           0
     80232 WT27     117      MECN     H13      HGA3     0.090000        1.0080           0
     80233 WT27     117      MECN     C2       CG1N1    0.360000       12.0110           0
     80234 WT27     117      MECN     N3       NG1T1   -0.460000       14.0070           0
     80235 WT27     119      MECN     C1       CG331   -0.170000       12.0110           0
     80236 WT27     119      MECN     H11      HGA3     0.090000        1.0080           0
     80237 WT27     119      MECN     H12      HGA3     0.090000        1.0080           0
     80238 WT27     119      MECN     H13      HGA3     0.090000        1.0080           0
     80239 WT27     119      MECN     C2       CG1N1    0.360000       12.0110           0
     80240 WT27     119      MECN     N3       NG1T1   -0.460000       14.0070           0
     80241 WT27     126      MECN     C1       CG331   -0.170000       12.0110           0
     80242 WT27     126      MECN     H11      HGA3     0.090000        1.0080           0
     80243 WT27     126      MECN     H12      HGA3     0.090000        1.0080           0
     80244 WT27     126      MECN     H13      HGA3     0.090000        1.0080           0
     80245 WT27     126      MECN     C2       CG1N1    0.360000       12.0110           0
     80246 WT27     126      MECN     N3       NG1T1   -0.460000       14.0070           0
     80247 WT27     128      MECN     C1       CG331   -0.170000       12.0110           0
     80248 WT27     128      MECN     H11      HGA3     0.090000        1.0080           0
     80249 WT27     128      MECN     H12      HGA3     0.090000        1.0080           0
     80250 WT27     128      MECN     H13      HGA3     0.090000        1.0080           0
     80251 WT27     128      MECN     C2       CG1N1    0.360000       12.0110           0
     80252 WT27     128      MECN     N3       NG1T1   -0.460000       14.0070           0
     80253 WT27     130      MECN     C1       CG331   -0.170000       12.0110           0
     80254 WT27     130      MECN     H11      HGA3     0.090000        1.0080           0
     80255 WT27     130      MECN     H12      HGA3     0.090000        1.0080           0
     80256 WT27     130      MECN     H13      HGA3     0.090000        1.0080           0
     80257 WT27     130      MECN     C2       CG1N1    0.360000       12.0110           0
     80258 WT27     130      MECN     N3       NG1T1   -0.460000       14.0070           0
     80259 WT27     131      MECN     C1       CG331   -0.170000       12.0110           0
     80260 WT27     131      MECN     H11      HGA3     0.090000        1.0080           0
     80261 WT27     131      MECN     H12      HGA3     0.090000        1.0080           0
     80262 WT27     131      MECN     H13      HGA3     0.090000        1.0080           0
     80263 WT27     131      MECN     C2       CG1N1    0.360000       12.0110           0
     80264 WT27     131      MECN     N3       NG1T1   -0.460000       14.0070           0
     80265 WT27     136      MECN     C1       CG331   -0.170000       12.0110           0
     80266 WT27     136      MECN     H11      HGA3     0.090000        1.0080           0
     80267 WT27     136      MECN     H12      HGA3     0.090000        1.0080           0
     80268 WT27     136      MECN     H13      HGA3     0.090000        1.0080           0
     80269 WT27     136      MECN     C2       CG1N1    0.360000       12.0110           0
     80270 WT27     136      MECN     N3       NG1T1   -0.460000       14.0070           0
     80271 WT27     137      MECN     C1       CG331   -0.170000       12.0110           0
     80272 WT27     137      MECN     H11      HGA3     0.090000        1.0080           0
     80273 WT27     137      MECN     H12      HGA3     0.090000        1.0080           0
     80274 WT27     137      MECN     H13      HGA3     0.090000        1.0080           0
     80275 WT27     137      MECN     C2       CG1N1    0.360000       12.0110           0
     80276 WT27     137      MECN     N3       NG1T1   -0.460000       14.0070           0
     80277 WT27     141      MECN     C1       CG331   -0.170000       12.0110           0
     80278 WT27     141      MECN     H11      HGA3     0.090000        1.0080           0
     80279 WT27     141      MECN     H12      HGA3     0.090000        1.0080           0
     80280 WT27     141      MECN     H13      HGA3     0.090000        1.0080           0
     80281 WT27     141      MECN     C2       CG1N1    0.360000       12.0110           0
     80282 WT27     141      MECN     N3       NG1T1   -0.460000       14.0070           0
     80283 WT27     142      MECN     C1       CG331   -0.170000       12.0110           0
     80284 WT27     142      MECN     H11      HGA3     0.090000        1.0080           0
     80285 WT27     142      MECN     H12      HGA3     0.090000        1.0080           0
     80286 WT27     142      MECN     H13      HGA3     0.090000        1.0080           0
     80287 WT27     142      MECN     C2       CG1N1    0.360000       12.0110           0
     80288 WT27     142      MECN     N3       NG1T1   -0.460000       14.0070           0
     80289 WT27     150      MECN     C1       CG331   -0.170000       12.0110           0
     80290 WT27     150      MECN     H11      HGA3     0.090000        1.0080           0
     80291 WT27     150      MECN     H12      HGA3     0.090000        1.0080           0
     80292 WT27     150      MECN     H13      HGA3     0.090000        1.0080           0
     80293 WT27     150      MECN     C2       CG1N1    0.360000       12.0110           0
     80294 WT27     150      MECN     N3       NG1T1   -0.460000       14.0070           0
     80295 WT27     153      MECN     C1       CG331   -0.170000       12.0110           0
     80296 WT27     153      MECN     H11      HGA3     0.090000        1.0080           0
     80297 WT27     153      MECN     H12      HGA3     0.090000        1.0080           0
     80298 WT27     153      MECN     H13      HGA3     0.090000        1.0080           0
     80299 WT27     153      MECN     C2       CG1N1    0.360000       12.0110           0
     80300 WT27     153      MECN     N3       NG1T1   -0.460000       14.0070           0
     80301 WT27     154      MECN     C1       CG331   -0.170000       12.0110           0
     80302 WT27     154      MECN     H11      HGA3     0.090000        1.0080           0
     80303 WT27     154      MECN     H12      HGA3     0.090000        1.0080           0
     80304 WT27     154      MECN     H13      HGA3     0.090000        1.0080           0
     80305 WT27     154      MECN     C2       CG1N1    0.360000       12.0110           0
     80306 WT27     154      MECN     N3       NG1T1   -0.460000       14.0070           0
     80307 WT27     155      MECN     C1       CG331   -0.170000       12.0110           0
     80308 WT27     155      MECN     H11      HGA3     0.090000        1.0080           0
     80309 WT27     155      MECN     H12      HGA3     0.090000        1.0080           0
     80310 WT27     155      MECN     H13      HGA3     0.090000        1.0080           0
     80311 WT27     155      MECN     C2       CG1N1    0.360000       12.0110           0
     80312 WT27     155      MECN     N3       NG1T1   -0.460000       14.0070           0
     80313 WT27     157      MECN     C1       CG331   -0.170000       12.0110           0
     80314 WT27     157      MECN     H11      HGA3     0.090000        1.0080           0
     80315 WT27     157      MECN     H12      HGA3     0.090000        1.0080           0
     80316 WT27     157      MECN     H13      HGA3     0.090000        1.0080           0
     80317 WT27     157      MECN     C2       CG1N1    0.360000       12.0110           0
     80318 WT27     157      MECN     N3       NG1T1   -0.460000       14.0070           0
     80319 WT27     158      MECN     C1       CG331   -0.170000       12.0110           0
     80320 WT27     158      MECN     H11      HGA3     0.090000        1.0080           0
     80321 WT27     158      MECN     H12      HGA3     0.090000        1.0080           0
     80322 WT27     158      MECN     H13      HGA3     0.090000        1.0080           0
     80323 WT27     158      MECN     C2       CG1N1    0.360000       12.0110           0
     80324 WT27     158      MECN     N3       NG1T1   -0.460000       14.0070           0
     80325 WT27     161      MECN     C1       CG331   -0.170000       12.0110           0
     80326 WT27     161      MECN     H11      HGA3     0.090000        1.0080           0
     80327 WT27     161      MECN     H12      HGA3     0.090000        1.0080           0
     80328 WT27     161      MECN     H13      HGA3     0.090000        1.0080           0
     80329 WT27     161      MECN     C2       CG1N1    0.360000       12.0110           0
     80330 WT27     161      MECN     N3       NG1T1   -0.460000       14.0070           0
     80331 WT27     163      MECN     C1       CG331   -0.170000       12.0110           0
     80332 WT27     163      MECN     H11      HGA3     0.090000        1.0080           0
     80333 WT27     163      MECN     H12      HGA3     0.090000        1.0080           0
     80334 WT27     163      MECN     H13      HGA3     0.090000        1.0080           0
     80335 WT27     163      MECN     C2       CG1N1    0.360000       12.0110           0
     80336 WT27     163      MECN     N3       NG1T1   -0.460000       14.0070           0
     80337 WT27     165      MECN     C1       CG331   -0.170000       12.0110           0
     80338 WT27     165      MECN     H11      HGA3     0.090000        1.0080           0
     80339 WT27     165      MECN     H12      HGA3     0.090000        1.0080           0
     80340 WT27     165      MECN     H13      HGA3     0.090000        1.0080           0
     80341 WT27     165      MECN     C2       CG1N1    0.360000       12.0110           0
     80342 WT27     165      MECN     N3       NG1T1   -0.460000       14.0070           0
     80343 WT27     166      MECN     C1       CG331   -0.170000       12.0110           0
     80344 WT27     166      MECN     H11      HGA3     0.090000        1.0080           0
     80345 WT27     166      MECN     H12      HGA3     0.090000        1.0080           0
     80346 WT27     166      MECN     H13      HGA3     0.090000        1.0080           0
     80347 WT27     166      MECN     C2       CG1N1    0.360000       12.0110           0
     80348 WT27     166      MECN     N3       NG1T1   -0.460000       14.0070           0
     80349 WT27     168      MECN     C1       CG331   -0.170000       12.0110           0
     80350 WT27     168      MECN     H11      HGA3     0.090000        1.0080           0
     80351 WT27     168      MECN     H12      HGA3     0.090000        1.0080           0
     80352 WT27     168      MECN     H13      HGA3     0.090000        1.0080           0
     80353 WT27     168      MECN     C2       CG1N1    0.360000       12.0110           0
     80354 WT27     168      MECN     N3       NG1T1   -0.460000       14.0070           0
     80355 WT27     178      MECN     C1       CG331   -0.170000       12.0110           0
     80356 WT27     178      MECN     H11      HGA3     0.090000        1.0080           0
     80357 WT27     178      MECN     H12      HGA3     0.090000        1.0080           0
     80358 WT27     178      MECN     H13      HGA3     0.090000        1.0080           0
     80359 WT27     178      MECN     C2       CG1N1    0.360000       12.0110           0
     80360 WT27     178      MECN     N3       NG1T1   -0.460000       14.0070           0
     80361 WT27     181      MECN     C1       CG331   -0.170000       12.0110           0
     80362 WT27     181      MECN     H11      HGA3     0.090000        1.0080           0
     80363 WT27     181      MECN     H12      HGA3     0.090000        1.0080           0
     80364 WT27     181      MECN     H13      HGA3     0.090000        1.0080           0
     80365 WT27     181      MECN     C2       CG1N1    0.360000       12.0110           0
     80366 WT27     181      MECN     N3       NG1T1   -0.460000       14.0070           0
     80367 WT27     182      MECN     C1       CG331   -0.170000       12.0110           0
     80368 WT27     182      MECN     H11      HGA3     0.090000        1.0080           0
     80369 WT27     182      MECN     H12      HGA3     0.090000        1.0080           0
     80370 WT27     182      MECN     H13      HGA3     0.090000        1.0080           0
     80371 WT27     182      MECN     C2       CG1N1    0.360000       12.0110           0
     80372 WT27     182      MECN     N3       NG1T1   -0.460000       14.0070           0
     80373 WT27     186      MECN     C1       CG331   -0.170000       12.0110           0
     80374 WT27     186      MECN     H11      HGA3     0.090000        1.0080           0
     80375 WT27     186      MECN     H12      HGA3     0.090000        1.0080           0
     80376 WT27     186      MECN     H13      HGA3     0.090000        1.0080           0
     80377 WT27     186      MECN     C2       CG1N1    0.360000       12.0110           0
     80378 WT27     186      MECN     N3       NG1T1   -0.460000       14.0070           0
     80379 WT27     193      MECN     C1       CG331   -0.170000       12.0110           0
     80380 WT27     193      MECN     H11      HGA3     0.090000        1.0080           0
     80381 WT27     193      MECN     H12      HGA3     0.090000        1.0080           0
     80382 WT27     193      MECN     H13      HGA3     0.090000        1.0080           0
     80383 WT27     193      MECN     C2       CG1N1    0.360000       12.0110           0
     80384 WT27     193      MECN     N3       NG1T1   -0.460000       14.0070           0
     80385 WT27     195      MECN     C1       CG331   -0.170000       12.0110           0
     80386 WT27     195      MECN     H11      HGA3     0.090000        1.0080           0
     80387 WT27     195      MECN     H12      HGA3     0.090000        1.0080           0
     80388 WT27     195      MECN     H13      HGA3     0.090000        1.0080           0
     80389 WT27     195      MECN     C2       CG1N1    0.360000       12.0110           0
     80390 WT27     195      MECN     N3       NG1T1   -0.460000       14.0070           0
     80391 WT27     196      MECN     C1       CG331   -0.170000       12.0110           0
     80392 WT27     196      MECN     H11      HGA3     0.090000        1.0080           0
     80393 WT27     196      MECN     H12      HGA3     0.090000        1.0080           0
     80394 WT27     196      MECN     H13      HGA3     0.090000        1.0080           0
     80395 WT27     196      MECN     C2       CG1N1    0.360000       12.0110           0
     80396 WT27     196      MECN     N3       NG1T1   -0.460000       14.0070           0
     80397 WT27     198      MECN     C1       CG331   -0.170000       12.0110           0
     80398 WT27     198      MECN     H11      HGA3     0.090000        1.0080           0
     80399 WT27     198      MECN     H12      HGA3     0.090000        1.0080           0
     80400 WT27     198      MECN     H13      HGA3     0.090000        1.0080           0
     80401 WT27     198      MECN     C2       CG1N1    0.360000       12.0110           0
     80402 WT27     198      MECN     N3       NG1T1   -0.460000       14.0070           0
     80403 WT27     199      MECN     C1       CG331   -0.170000       12.0110           0
     80404 WT27     199      MECN     H11      HGA3     0.090000        1.0080           0
     80405 WT27     199      MECN     H12      HGA3     0.090000        1.0080           0
     80406 WT27     199      MECN     H13      HGA3     0.090000        1.0080           0
     80407 WT27     199      MECN     C2       CG1N1    0.360000       12.0110           0
     80408 WT27     199      MECN     N3       NG1T1   -0.460000       14.0070           0
     80409 WT27     203      MECN     C1       CG331   -0.170000       12.0110           0
     80410 WT27     203      MECN     H11      HGA3     0.090000        1.0080           0
     80411 WT27     203      MECN     H12      HGA3     0.090000        1.0080           0
     80412 WT27     203      MECN     H13      HGA3     0.090000        1.0080           0
     80413 WT27     203      MECN     C2       CG1N1    0.360000       12.0110           0
     80414 WT27     203      MECN     N3       NG1T1   -0.460000       14.0070           0
     80415 WT27     205      MECN     C1       CG331   -0.170000       12.0110           0
     80416 WT27     205      MECN     H11      HGA3     0.090000        1.0080           0
     80417 WT27     205      MECN     H12      HGA3     0.090000        1.0080           0
     80418 WT27     205      MECN     H13      HGA3     0.090000        1.0080           0
     80419 WT27     205      MECN     C2       CG1N1    0.360000       12.0110           0
     80420 WT27     205      MECN     N3       NG1T1   -0.460000       14.0070           0
     80421 WT27     210      MECN     C1       CG331   -0.170000       12.0110           0
     80422 WT27     210      MECN     H11      HGA3     0.090000        1.0080           0
     80423 WT27     210      MECN     H12      HGA3     0.090000        1.0080           0
     80424 WT27     210      MECN     H13      HGA3     0.090000        1.0080           0
     80425 WT27     210      MECN     C2       CG1N1    0.360000       12.0110           0
     80426 WT27     210      MECN     N3       NG1T1   -0.460000       14.0070           0
     80427 WT27     217      MECN     C1       CG331   -0.170000       12.0110           0
     80428 WT27     217      MECN     H11      HGA3     0.090000        1.0080           0
     80429 WT27     217      MECN     H12      HGA3     0.090000        1.0080           0
     80430 WT27     217      MECN     H13      HGA3     0.090000        1.0080           0
     80431 WT27     217      MECN     C2       CG1N1    0.360000       12.0110           0
     80432 WT27     217      MECN     N3       NG1T1   -0.460000       14.0070           0
     80433 WT27     218      MECN     C1       CG331   -0.170000       12.0110           0
     80434 WT27     218      MECN     H11      HGA3     0.090000        1.0080           0
     80435 WT27     218      MECN     H12      HGA3     0.090000        1.0080           0
     80436 WT27     218      MECN     H13      HGA3     0.090000        1.0080           0
     80437 WT27     218      MECN     C2       CG1N1    0.360000       12.0110           0
     80438 WT27     218      MECN     N3       NG1T1   -0.460000       14.0070           0
     80439 WT27     223      MECN     C1       CG331   -0.170000       12.0110           0
     80440 WT27     223      MECN     H11      HGA3     0.090000        1.0080           0
     80441 WT27     223      MECN     H12      HGA3     0.090000        1.0080           0
     80442 WT27     223      MECN     H13      HGA3     0.090000        1.0080           0
     80443 WT27     223      MECN     C2       CG1N1    0.360000       12.0110           0
     80444 WT27     223      MECN     N3       NG1T1   -0.460000       14.0070           0
     80445 WT27     225      MECN     C1       CG331   -0.170000       12.0110           0
     80446 WT27     225      MECN     H11      HGA3     0.090000        1.0080           0
     80447 WT27     225      MECN     H12      HGA3     0.090000        1.0080           0
     80448 WT27     225      MECN     H13      HGA3     0.090000        1.0080           0
     80449 WT27     225      MECN     C2       CG1N1    0.360000       12.0110           0
     80450 WT27     225      MECN     N3       NG1T1   -0.460000       14.0070           0
     80451 WT27     232      MECN     C1       CG331   -0.170000       12.0110           0
     80452 WT27     232      MECN     H11      HGA3     0.090000        1.0080           0
     80453 WT27     232      MECN     H12      HGA3     0.090000        1.0080           0
     80454 WT27     232      MECN     H13      HGA3     0.090000        1.0080           0
     80455 WT27     232      MECN     C2       CG1N1    0.360000       12.0110           0
     80456 WT27     232      MECN     N3       NG1T1   -0.460000       14.0070           0
     80457 WT27     233      MECN     C1       CG331   -0.170000       12.0110           0
     80458 WT27     233      MECN     H11      HGA3     0.090000        1.0080           0
     80459 WT27     233      MECN     H12      HGA3     0.090000        1.0080           0
     80460 WT27     233      MECN     H13      HGA3     0.090000        1.0080           0
     80461 WT27     233      MECN     C2       CG1N1    0.360000       12.0110           0
     80462 WT27     233      MECN     N3       NG1T1   -0.460000       14.0070           0
     80463 WT27     235      MECN     C1       CG331   -0.170000       12.0110           0
     80464 WT27     235      MECN     H11      HGA3     0.090000        1.0080           0
     80465 WT27     235      MECN     H12      HGA3     0.090000        1.0080           0
     80466 WT27     235      MECN     H13      HGA3     0.090000        1.0080           0
     80467 WT27     235      MECN     C2       CG1N1    0.360000       12.0110           0
     80468 WT27     235      MECN     N3       NG1T1   -0.460000       14.0070           0
     80469 WT27     239      MECN     C1       CG331   -0.170000       12.0110           0
     80470 WT27     239      MECN     H11      HGA3     0.090000        1.0080           0
     80471 WT27     239      MECN     H12      HGA3     0.090000        1.0080           0
     80472 WT27     239      MECN     H13      HGA3     0.090000        1.0080           0
     80473 WT27     239      MECN     C2       CG1N1    0.360000       12.0110           0
     80474 WT27     239      MECN     N3       NG1T1   -0.460000       14.0070           0
     80475 WT27     243      MECN     C1       CG331   -0.170000       12.0110           0
     80476 WT27     243      MECN     H11      HGA3     0.090000        1.0080           0
     80477 WT27     243      MECN     H12      HGA3     0.090000        1.0080           0
     80478 WT27     243      MECN     H13      HGA3     0.090000        1.0080           0
     80479 WT27     243      MECN     C2       CG1N1    0.360000       12.0110           0
     80480 WT27     243      MECN     N3       NG1T1   -0.460000       14.0070           0
     80481 WT27     244      MECN     C1       CG331   -0.170000       12.0110           0
     80482 WT27     244      MECN     H11      HGA3     0.090000        1.0080           0
     80483 WT27     244      MECN     H12      HGA3     0.090000        1.0080           0
     80484 WT27     244      MECN     H13      HGA3     0.090000        1.0080           0
     80485 WT27     244      MECN     C2       CG1N1    0.360000       12.0110           0
     80486 WT27     244      MECN     N3       NG1T1   -0.460000       14.0070           0
     80487 WT27     246      MECN     C1       CG331   -0.170000       12.0110           0
     80488 WT27     246      MECN     H11      HGA3     0.090000        1.0080           0
     80489 WT27     246      MECN     H12      HGA3     0.090000        1.0080           0
     80490 WT27     246      MECN     H13      HGA3     0.090000        1.0080           0
     80491 WT27     246      MECN     C2       CG1N1    0.360000       12.0110           0
     80492 WT27     246      MECN     N3       NG1T1   -0.460000       14.0070           0
     80493 WT27     249      MECN     C1       CG331   -0.170000       12.0110           0
     80494 WT27     249      MECN     H11      HGA3     0.090000        1.0080           0
     80495 WT27     249      MECN     H12      HGA3     0.090000        1.0080           0
     80496 WT27     249      MECN     H13      HGA3     0.090000        1.0080           0
     80497 WT27     249      MECN     C2       CG1N1    0.360000       12.0110           0
     80498 WT27     249      MECN     N3       NG1T1   -0.460000       14.0070           0
     80499 WT27     250      MECN     C1       CG331   -0.170000       12.0110           0
     80500 WT27     250      MECN     H11      HGA3     0.090000        1.0080           0
     80501 WT27     250      MECN     H12      HGA3     0.090000        1.0080           0
     80502 WT27     250      MECN     H13      HGA3     0.090000        1.0080           0
     80503 WT27     250      MECN     C2       CG1N1    0.360000       12.0110           0
     80504 WT27     250      MECN     N3       NG1T1   -0.460000       14.0070           0
     80505 WT27     251      MECN     C1       CG331   -0.170000       12.0110           0
     80506 WT27     251      MECN     H11      HGA3     0.090000        1.0080           0
     80507 WT27     251      MECN     H12      HGA3     0.090000        1.0080           0
     80508 WT27     251      MECN     H13      HGA3     0.090000        1.0080           0
     80509 WT27     251      MECN     C2       CG1N1    0.360000       12.0110           0
     80510 WT27     251      MECN     N3       NG1T1   -0.460000       14.0070           0
     80511 WT27     252      MECN     C1       CG331   -0.170000       12.0110           0
     80512 WT27     252      MECN     H11      HGA3     0.090000        1.0080           0
     80513 WT27     252      MECN     H12      HGA3     0.090000        1.0080           0
     80514 WT27     252      MECN     H13      HGA3     0.090000        1.0080           0
     80515 WT27     252      MECN     C2       CG1N1    0.360000       12.0110           0
     80516 WT27     252      MECN     N3       NG1T1   -0.460000       14.0070           0
     80517 WT27     254      MECN     C1       CG331   -0.170000       12.0110           0
     80518 WT27     254      MECN     H11      HGA3     0.090000        1.0080           0
     80519 WT27     254      MECN     H12      HGA3     0.090000        1.0080           0
     80520 WT27     254      MECN     H13      HGA3     0.090000        1.0080           0
     80521 WT27     254      MECN     C2       CG1N1    0.360000       12.0110           0
     80522 WT27     254      MECN     N3       NG1T1   -0.460000       14.0070           0
     80523 WT27     258      MECN     C1       CG331   -0.170000       12.0110           0
     80524 WT27     258      MECN     H11      HGA3     0.090000        1.0080           0
     80525 WT27     258      MECN     H12      HGA3     0.090000        1.0080           0
     80526 WT27     258      MECN     H13      HGA3     0.090000        1.0080           0
     80527 WT27     258      MECN     C2       CG1N1    0.360000       12.0110           0
     80528 WT27     258      MECN     N3       NG1T1   -0.460000       14.0070           0
     80529 WT27     262      MECN     C1       CG331   -0.170000       12.0110           0
     80530 WT27     262      MECN     H11      HGA3     0.090000        1.0080           0
     80531 WT27     262      MECN     H12      HGA3     0.090000        1.0080           0
     80532 WT27     262      MECN     H13      HGA3     0.090000        1.0080           0
     80533 WT27     262      MECN     C2       CG1N1    0.360000       12.0110           0
     80534 WT27     262      MECN     N3       NG1T1   -0.460000       14.0070           0
     80535 WT27     263      MECN     C1       CG331   -0.170000       12.0110           0
     80536 WT27     263      MECN     H11      HGA3     0.090000        1.0080           0
     80537 WT27     263      MECN     H12      HGA3     0.090000        1.0080           0
     80538 WT27     263      MECN     H13      HGA3     0.090000        1.0080           0
     80539 WT27     263      MECN     C2       CG1N1    0.360000       12.0110           0
     80540 WT27     263      MECN     N3       NG1T1   -0.460000       14.0070           0
     80541 WT27     264      MECN     C1       CG331   -0.170000       12.0110           0
     80542 WT27     264      MECN     H11      HGA3     0.090000        1.0080           0
     80543 WT27     264      MECN     H12      HGA3     0.090000        1.0080           0
     80544 WT27     264      MECN     H13      HGA3     0.090000        1.0080           0
     80545 WT27     264      MECN     C2       CG1N1    0.360000       12.0110           0
     80546 WT27     264      MECN     N3       NG1T1   -0.460000       14.0070           0
     80547 WT27     265      MECN     C1       CG331   -0.170000       12.0110           0
     80548 WT27     265      MECN     H11      HGA3     0.090000        1.0080           0
     80549 WT27     265      MECN     H12      HGA3     0.090000        1.0080           0
     80550 WT27     265      MECN     H13      HGA3     0.090000        1.0080           0
     80551 WT27     265      MECN     C2       CG1N1    0.360000       12.0110           0
     80552 WT27     265      MECN     N3       NG1T1   -0.460000       14.0070           0
     80553 WT27     269      MECN     C1       CG331   -0.170000       12.0110           0
     80554 WT27     269      MECN     H11      HGA3     0.090000        1.0080           0
     80555 WT27     269      MECN     H12      HGA3     0.090000        1.0080           0
     80556 WT27     269      MECN     H13      HGA3     0.090000        1.0080           0
     80557 WT27     269      MECN     C2       CG1N1    0.360000       12.0110           0
     80558 WT27     269      MECN     N3       NG1T1   -0.460000       14.0070           0
     80559 WT27     275      MECN     C1       CG331   -0.170000       12.0110           0
     80560 WT27     275      MECN     H11      HGA3     0.090000        1.0080           0
     80561 WT27     275      MECN     H12      HGA3     0.090000        1.0080           0
     80562 WT27     275      MECN     H13      HGA3     0.090000        1.0080           0
     80563 WT27     275      MECN     C2       CG1N1    0.360000       12.0110           0
     80564 WT27     275      MECN     N3       NG1T1   -0.460000       14.0070           0
     80565 WT27     276      MECN     C1       CG331   -0.170000       12.0110           0
     80566 WT27     276      MECN     H11      HGA3     0.090000        1.0080           0
     80567 WT27     276      MECN     H12      HGA3     0.090000        1.0080           0
     80568 WT27     276      MECN     H13      HGA3     0.090000        1.0080           0
     80569 WT27     276      MECN     C2       CG1N1    0.360000       12.0110           0
     80570 WT27     276      MECN     N3       NG1T1   -0.460000       14.0070           0
     80571 WT27     278      MECN     C1       CG331   -0.170000       12.0110           0
     80572 WT27     278      MECN     H11      HGA3     0.090000        1.0080           0
     80573 WT27     278      MECN     H12      HGA3     0.090000        1.0080           0
     80574 WT27     278      MECN     H13      HGA3     0.090000        1.0080           0
     80575 WT27     278      MECN     C2       CG1N1    0.360000       12.0110           0
     80576 WT27     278      MECN     N3       NG1T1   -0.460000       14.0070           0
     80577 WT27     281      MECN     C1       CG331   -0.170000       12.0110           0
     80578 WT27     281      MECN     H11      HGA3     0.090000        1.0080           0
     80579 WT27     281      MECN     H12      HGA3     0.090000        1.0080           0
     80580 WT27     281      MECN     H13      HGA3     0.090000        1.0080           0
     80581 WT27     281      MECN     C2       CG1N1    0.360000       12.0110           0
     80582 WT27     281      MECN     N3       NG1T1   -0.460000       14.0070           0
     80583 WT27     282      MECN     C1       CG331   -0.170000       12.0110           0
     80584 WT27     282      MECN     H11      HGA3     0.090000        1.0080           0
     80585 WT27     282      MECN     H12      HGA3     0.090000        1.0080           0
     80586 WT27     282      MECN     H13      HGA3     0.090000        1.0080           0
     80587 WT27     282      MECN     C2       CG1N1    0.360000       12.0110           0
     80588 WT27     282      MECN     N3       NG1T1   -0.460000       14.0070           0
     80589 WT27     283      MECN     C1       CG331   -0.170000       12.0110           0
     80590 WT27     283      MECN     H11      HGA3     0.090000        1.0080           0
     80591 WT27     283      MECN     H12      HGA3     0.090000        1.0080           0
     80592 WT27     283      MECN     H13      HGA3     0.090000        1.0080           0
     80593 WT27     283      MECN     C2       CG1N1    0.360000       12.0110           0
     80594 WT27     283      MECN     N3       NG1T1   -0.460000       14.0070           0
     80595 WT27     284      MECN     C1       CG331   -0.170000       12.0110           0
     80596 WT27     284      MECN     H11      HGA3     0.090000        1.0080           0
     80597 WT27     284      MECN     H12      HGA3     0.090000        1.0080           0
     80598 WT27     284      MECN     H13      HGA3     0.090000        1.0080           0
     80599 WT27     284      MECN     C2       CG1N1    0.360000       12.0110           0
     80600 WT27     284      MECN     N3       NG1T1   -0.460000       14.0070           0
     80601 WT27     285      MECN     C1       CG331   -0.170000       12.0110           0
     80602 WT27     285      MECN     H11      HGA3     0.090000        1.0080           0
     80603 WT27     285      MECN     H12      HGA3     0.090000        1.0080           0
     80604 WT27     285      MECN     H13      HGA3     0.090000        1.0080           0
     80605 WT27     285      MECN     C2       CG1N1    0.360000       12.0110           0
     80606 WT27     285      MECN     N3       NG1T1   -0.460000       14.0070           0
     80607 WT27     290      MECN     C1       CG331   -0.170000       12.0110           0
     80608 WT27     290      MECN     H11      HGA3     0.090000        1.0080           0
     80609 WT27     290      MECN     H12      HGA3     0.090000        1.0080           0
     80610 WT27     290      MECN     H13      HGA3     0.090000        1.0080           0
     80611 WT27     290      MECN     C2       CG1N1    0.360000       12.0110           0
     80612 WT27     290      MECN     N3       NG1T1   -0.460000       14.0070           0
     80613 WT27     295      MECN     C1       CG331   -0.170000       12.0110           0
     80614 WT27     295      MECN     H11      HGA3     0.090000        1.0080           0
     80615 WT27     295      MECN     H12      HGA3     0.090000        1.0080           0
     80616 WT27     295      MECN     H13      HGA3     0.090000        1.0080           0
     80617 WT27     295      MECN     C2       CG1N1    0.360000       12.0110           0
     80618 WT27     295      MECN     N3       NG1T1   -0.460000       14.0070           0
     80619 WT27     301      MECN     C1       CG331   -0.170000       12.0110           0
     80620 WT27     301      MECN     H11      HGA3     0.090000        1.0080           0
     80621 WT27     301      MECN     H12      HGA3     0.090000        1.0080           0
     80622 WT27     301      MECN     H13      HGA3     0.090000        1.0080           0
     80623 WT27     301      MECN     C2       CG1N1    0.360000       12.0110           0
     80624 WT27     301      MECN     N3       NG1T1   -0.460000       14.0070           0
     80625 WT27     302      MECN     C1       CG331   -0.170000       12.0110           0
     80626 WT27     302      MECN     H11      HGA3     0.090000        1.0080           0
     80627 WT27     302      MECN     H12      HGA3     0.090000        1.0080           0
     80628 WT27     302      MECN     H13      HGA3     0.090000        1.0080           0
     80629 WT27     302      MECN     C2       CG1N1    0.360000       12.0110           0
     80630 WT27     302      MECN     N3       NG1T1   -0.460000       14.0070           0
     80631 WT27     303      MECN     C1       CG331   -0.170000       12.0110           0
     80632 WT27     303      MECN     H11      HGA3     0.090000        1.0080           0
     80633 WT27     303      MECN     H12      HGA3     0.090000        1.0080           0
     80634 WT27     303      MECN     H13      HGA3     0.090000        1.0080           0
     80635 WT27     303      MECN     C2       CG1N1    0.360000       12.0110           0
     80636 WT27     303      MECN     N3       NG1T1   -0.460000       14.0070           0
     80637 WT27     304      MECN     C1       CG331   -0.170000       12.0110           0
     80638 WT27     304      MECN     H11      HGA3     0.090000        1.0080           0
     80639 WT27     304      MECN     H12      HGA3     0.090000        1.0080           0
     80640 WT27     304      MECN     H13      HGA3     0.090000        1.0080           0
     80641 WT27     304      MECN     C2       CG1N1    0.360000       12.0110           0
     80642 WT27     304      MECN     N3       NG1T1   -0.460000       14.0070           0
     80643 WT27     305      MECN     C1       CG331   -0.170000       12.0110           0
     80644 WT27     305      MECN     H11      HGA3     0.090000        1.0080           0
     80645 WT27     305      MECN     H12      HGA3     0.090000        1.0080           0
     80646 WT27     305      MECN     H13      HGA3     0.090000        1.0080           0
     80647 WT27     305      MECN     C2       CG1N1    0.360000       12.0110           0
     80648 WT27     305      MECN     N3       NG1T1   -0.460000       14.0070           0
     80649 WT27     307      MECN     C1       CG331   -0.170000       12.0110           0
     80650 WT27     307      MECN     H11      HGA3     0.090000        1.0080           0
     80651 WT27     307      MECN     H12      HGA3     0.090000        1.0080           0
     80652 WT27     307      MECN     H13      HGA3     0.090000        1.0080           0
     80653 WT27     307      MECN     C2       CG1N1    0.360000       12.0110           0
     80654 WT27     307      MECN     N3       NG1T1   -0.460000       14.0070           0
     80655 WT27     308      MECN     C1       CG331   -0.170000       12.0110           0
     80656 WT27     308      MECN     H11      HGA3     0.090000        1.0080           0
     80657 WT27     308      MECN     H12      HGA3     0.090000        1.0080           0
     80658 WT27     308      MECN     H13      HGA3     0.090000        1.0080           0
     80659 WT27     308      MECN     C2       CG1N1    0.360000       12.0110           0
     80660 WT27     308      MECN     N3       NG1T1   -0.460000       14.0070           0
     80661 WT27     309      MECN     C1       CG331   -0.170000       12.0110           0
     80662 WT27     309      MECN     H11      HGA3     0.090000        1.0080           0
     80663 WT27     309      MECN     H12      HGA3     0.090000        1.0080           0
     80664 WT27     309      MECN     H13      HGA3     0.090000        1.0080           0
     80665 WT27     309      MECN     C2       CG1N1    0.360000       12.0110           0
     80666 WT27     309      MECN     N3       NG1T1   -0.460000       14.0070           0
     80667 WT27     311      MECN     C1       CG331   -0.170000       12.0110           0
     80668 WT27     311      MECN     H11      HGA3     0.090000        1.0080           0
     80669 WT27     311      MECN     H12      HGA3     0.090000        1.0080           0
     80670 WT27     311      MECN     H13      HGA3     0.090000        1.0080           0
     80671 WT27     311      MECN     C2       CG1N1    0.360000       12.0110           0
     80672 WT27     311      MECN     N3       NG1T1   -0.460000       14.0070           0
     80673 WT27     314      MECN     C1       CG331   -0.170000       12.0110           0
     80674 WT27     314      MECN     H11      HGA3     0.090000        1.0080           0
     80675 WT27     314      MECN     H12      HGA3     0.090000        1.0080           0
     80676 WT27     314      MECN     H13      HGA3     0.090000        1.0080           0
     80677 WT27     314      MECN     C2       CG1N1    0.360000       12.0110           0
     80678 WT27     314      MECN     N3       NG1T1   -0.460000       14.0070           0
     80679 WT27     320      MECN     C1       CG331   -0.170000       12.0110           0
     80680 WT27     320      MECN     H11      HGA3     0.090000        1.0080           0
     80681 WT27     320      MECN     H12      HGA3     0.090000        1.0080           0
     80682 WT27     320      MECN     H13      HGA3     0.090000        1.0080           0
     80683 WT27     320      MECN     C2       CG1N1    0.360000       12.0110           0
     80684 WT27     320      MECN     N3       NG1T1   -0.460000       14.0070           0
     80685 WT27     329      MECN     C1       CG331   -0.170000       12.0110           0
     80686 WT27     329      MECN     H11      HGA3     0.090000        1.0080           0
     80687 WT27     329      MECN     H12      HGA3     0.090000        1.0080           0
     80688 WT27     329      MECN     H13      HGA3     0.090000        1.0080           0
     80689 WT27     329      MECN     C2       CG1N1    0.360000       12.0110           0
     80690 WT27     329      MECN     N3       NG1T1   -0.460000       14.0070           0
     80691 WT27     330      MECN     C1       CG331   -0.170000       12.0110           0
     80692 WT27     330      MECN     H11      HGA3     0.090000        1.0080           0
     80693 WT27     330      MECN     H12      HGA3     0.090000        1.0080           0
     80694 WT27     330      MECN     H13      HGA3     0.090000        1.0080           0
     80695 WT27     330      MECN     C2       CG1N1    0.360000       12.0110           0
     80696 WT27     330      MECN     N3       NG1T1   -0.460000       14.0070           0
     80697 WT27     331      MECN     C1       CG331   -0.170000       12.0110           0
     80698 WT27     331      MECN     H11      HGA3     0.090000        1.0080           0
     80699 WT27     331      MECN     H12      HGA3     0.090000        1.0080           0
     80700 WT27     331      MECN     H13      HGA3     0.090000        1.0080           0
     80701 WT27     331      MECN     C2       CG1N1    0.360000       12.0110           0
     80702 WT27     331      MECN     N3       NG1T1   -0.460000       14.0070           0
     80703 WT27     334      MECN     C1       CG331   -0.170000       12.0110           0
     80704 WT27     334      MECN     H11      HGA3     0.090000        1.0080           0
     80705 WT27     334      MECN     H12      HGA3     0.090000        1.0080           0
     80706 WT27     334      MECN     H13      HGA3     0.090000        1.0080           0
     80707 WT27     334      MECN     C2       CG1N1    0.360000       12.0110           0
     80708 WT27     334      MECN     N3       NG1T1   -0.460000       14.0070           0
     80709 WT27     343      MECN     C1       CG331   -0.170000       12.0110           0
     80710 WT27     343      MECN     H11      HGA3     0.090000        1.0080           0
     80711 WT27     343      MECN     H12      HGA3     0.090000        1.0080           0
     80712 WT27     343      MECN     H13      HGA3     0.090000        1.0080           0
     80713 WT27     343      MECN     C2       CG1N1    0.360000       12.0110           0
     80714 WT27     343      MECN     N3       NG1T1   -0.460000       14.0070           0
     80715 WT27     345      MECN     C1       CG331   -0.170000       12.0110           0
     80716 WT27     345      MECN     H11      HGA3     0.090000        1.0080           0
     80717 WT27     345      MECN     H12      HGA3     0.090000        1.0080           0
     80718 WT27     345      MECN     H13      HGA3     0.090000        1.0080           0
     80719 WT27     345      MECN     C2       CG1N1    0.360000       12.0110           0
     80720 WT27     345      MECN     N3       NG1T1   -0.460000       14.0070           0
     80721 WT27     346      MECN     C1       CG331   -0.170000       12.0110           0
     80722 WT27     346      MECN     H11      HGA3     0.090000        1.0080           0
     80723 WT27     346      MECN     H12      HGA3     0.090000        1.0080           0
     80724 WT27     346      MECN     H13      HGA3     0.090000        1.0080           0
     80725 WT27     346      MECN     C2       CG1N1    0.360000       12.0110           0
     80726 WT27     346      MECN     N3       NG1T1   -0.460000       14.0070           0
     80727 WT27     347      MECN     C1       CG331   -0.170000       12.0110           0
     80728 WT27     347      MECN     H11      HGA3     0.090000        1.0080           0
     80729 WT27     347      MECN     H12      HGA3     0.090000        1.0080           0
     80730 WT27     347      MECN     H13      HGA3     0.090000        1.0080           0
     80731 WT27     347      MECN     C2       CG1N1    0.360000       12.0110           0
     80732 WT27     347      MECN     N3       NG1T1   -0.460000       14.0070           0
     80733 WT27     350      MECN     C1       CG331   -0.170000       12.0110           0
     80734 WT27     350      MECN     H11      HGA3     0.090000        1.0080           0
     80735 WT27     350      MECN     H12      HGA3     0.090000        1.0080           0
     80736 WT27     350      MECN     H13      HGA3     0.090000        1.0080           0
     80737 WT27     350      MECN     C2       CG1N1    0.360000       12.0110           0
     80738 WT27     350      MECN     N3       NG1T1   -0.460000       14.0070           0
     80739 WT27     353      MECN     C1       CG331   -0.170000       12.0110           0
     80740 WT27     353      MECN     H11      HGA3     0.090000        1.0080           0
     80741 WT27     353      MECN     H12      HGA3     0.090000        1.0080           0
     80742 WT27     353      MECN     H13      HGA3     0.090000        1.0080           0
     80743 WT27     353      MECN     C2       CG1N1    0.360000       12.0110           0
     80744 WT27     353      MECN     N3       NG1T1   -0.460000       14.0070           0
     80745 WT27     355      MECN     C1       CG331   -0.170000       12.0110           0
     80746 WT27     355      MECN     H11      HGA3     0.090000        1.0080           0
     80747 WT27     355      MECN     H12      HGA3     0.090000        1.0080           0
     80748 WT27     355      MECN     H13      HGA3     0.090000        1.0080           0
     80749 WT27     355      MECN     C2       CG1N1    0.360000       12.0110           0
     80750 WT27     355      MECN     N3       NG1T1   -0.460000       14.0070           0
     80751 WT27     359      MECN     C1       CG331   -0.170000       12.0110           0
     80752 WT27     359      MECN     H11      HGA3     0.090000        1.0080           0
     80753 WT27     359      MECN     H12      HGA3     0.090000        1.0080           0
     80754 WT27     359      MECN     H13      HGA3     0.090000        1.0080           0
     80755 WT27     359      MECN     C2       CG1N1    0.360000       12.0110           0
     80756 WT27     359      MECN     N3       NG1T1   -0.460000       14.0070           0
     80757 WT27     362      MECN     C1       CG331   -0.170000       12.0110           0
     80758 WT27     362      MECN     H11      HGA3     0.090000        1.0080           0
     80759 WT27     362      MECN     H12      HGA3     0.090000        1.0080           0
     80760 WT27     362      MECN     H13      HGA3     0.090000        1.0080           0
     80761 WT27     362      MECN     C2       CG1N1    0.360000       12.0110           0
     80762 WT27     362      MECN     N3       NG1T1   -0.460000       14.0070           0
     80763 WT27     363      MECN     C1       CG331   -0.170000       12.0110           0
     80764 WT27     363      MECN     H11      HGA3     0.090000        1.0080           0
     80765 WT27     363      MECN     H12      HGA3     0.090000        1.0080           0
     80766 WT27     363      MECN     H13      HGA3     0.090000        1.0080           0
     80767 WT27     363      MECN     C2       CG1N1    0.360000       12.0110           0
     80768 WT27     363      MECN     N3       NG1T1   -0.460000       14.0070           0
     80769 WT27     364      MECN     C1       CG331   -0.170000       12.0110           0
     80770 WT27     364      MECN     H11      HGA3     0.090000        1.0080           0
     80771 WT27     364      MECN     H12      HGA3     0.090000        1.0080           0
     80772 WT27     364      MECN     H13      HGA3     0.090000        1.0080           0
     80773 WT27     364      MECN     C2       CG1N1    0.360000       12.0110           0
     80774 WT27     364      MECN     N3       NG1T1   -0.460000       14.0070           0
     80775 WT27     375      MECN     C1       CG331   -0.170000       12.0110           0
     80776 WT27     375      MECN     H11      HGA3     0.090000        1.0080           0
     80777 WT27     375      MECN     H12      HGA3     0.090000        1.0080           0
     80778 WT27     375      MECN     H13      HGA3     0.090000        1.0080           0
     80779 WT27     375      MECN     C2       CG1N1    0.360000       12.0110           0
     80780 WT27     375      MECN     N3       NG1T1   -0.460000       14.0070           0
     80781 WT27     376      MECN     C1       CG331   -0.170000       12.0110           0
     80782 WT27     376      MECN     H11      HGA3     0.090000        1.0080           0
     80783 WT27     376      MECN     H12      HGA3     0.090000        1.0080           0
     80784 WT27     376      MECN     H13      HGA3     0.090000        1.0080           0
     80785 WT27     376      MECN     C2       CG1N1    0.360000       12.0110           0
     80786 WT27     376      MECN     N3       NG1T1   -0.460000       14.0070           0
     80787 WT27     380      MECN     C1       CG331   -0.170000       12.0110           0
     80788 WT27     380      MECN     H11      HGA3     0.090000        1.0080           0
     80789 WT27     380      MECN     H12      HGA3     0.090000        1.0080           0
     80790 WT27     380      MECN     H13      HGA3     0.090000        1.0080           0
     80791 WT27     380      MECN     C2       CG1N1    0.360000       12.0110           0
     80792 WT27     380      MECN     N3       NG1T1   -0.460000       14.0070           0
     80793 WT27     391      MECN     C1       CG331   -0.170000       12.0110           0
     80794 WT27     391      MECN     H11      HGA3     0.090000        1.0080           0
     80795 WT27     391      MECN     H12      HGA3     0.090000        1.0080           0
     80796 WT27     391      MECN     H13      HGA3     0.090000        1.0080           0
     80797 WT27     391      MECN     C2       CG1N1    0.360000       12.0110           0
     80798 WT27     391      MECN     N3       NG1T1   -0.460000       14.0070           0
     80799 WT27     393      MECN     C1       CG331   -0.170000       12.0110           0
     80800 WT27     393      MECN     H11      HGA3     0.090000        1.0080           0
     80801 WT27     393      MECN     H12      HGA3     0.090000        1.0080           0
     80802 WT27     393      MECN     H13      HGA3     0.090000        1.0080           0
     80803 WT27     393      MECN     C2       CG1N1    0.360000       12.0110           0
     80804 WT27     393      MECN     N3       NG1T1   -0.460000       14.0070           0
     80805 WT27     394      MECN     C1       CG331   -0.170000       12.0110           0
     80806 WT27     394      MECN     H11      HGA3     0.090000        1.0080           0
     80807 WT27     394      MECN     H12      HGA3     0.090000        1.0080           0
     80808 WT27     394      MECN     H13      HGA3     0.090000        1.0080           0
     80809 WT27     394      MECN     C2       CG1N1    0.360000       12.0110           0
     80810 WT27     394      MECN     N3       NG1T1   -0.460000       14.0070           0
     80811 WT27     395      MECN     C1       CG331   -0.170000       12.0110           0
     80812 WT27     395      MECN     H11      HGA3     0.090000        1.0080           0
     80813 WT27     395      MECN     H12      HGA3     0.090000        1.0080           0
     80814 WT27     395      MECN     H13      HGA3     0.090000        1.0080           0
     80815 WT27     395      MECN     C2       CG1N1    0.360000       12.0110           0
     80816 WT27     395      MECN     N3       NG1T1   -0.460000       14.0070           0
     80817 WT27     399      MECN     C1       CG331   -0.170000       12.0110           0
     80818 WT27     399      MECN     H11      HGA3     0.090000        1.0080           0
     80819 WT27     399      MECN     H12      HGA3     0.090000        1.0080           0
     80820 WT27     399      MECN     H13      HGA3     0.090000        1.0080           0
     80821 WT27     399      MECN     C2       CG1N1    0.360000       12.0110           0
     80822 WT27     399      MECN     N3       NG1T1   -0.460000       14.0070           0
     80823 WT27     405      MECN     C1       CG331   -0.170000       12.0110           0
     80824 WT27     405      MECN     H11      HGA3     0.090000        1.0080           0
     80825 WT27     405      MECN     H12      HGA3     0.090000        1.0080           0
     80826 WT27     405      MECN     H13      HGA3     0.090000        1.0080           0
     80827 WT27     405      MECN     C2       CG1N1    0.360000       12.0110           0
     80828 WT27     405      MECN     N3       NG1T1   -0.460000       14.0070           0
     80829 WT27     407      MECN     C1       CG331   -0.170000       12.0110           0
     80830 WT27     407      MECN     H11      HGA3     0.090000        1.0080           0
     80831 WT27     407      MECN     H12      HGA3     0.090000        1.0080           0
     80832 WT27     407      MECN     H13      HGA3     0.090000        1.0080           0
     80833 WT27     407      MECN     C2       CG1N1    0.360000       12.0110           0
     80834 WT27     407      MECN     N3       NG1T1   -0.460000       14.0070           0
     80835 WT27     409      MECN     C1       CG331   -0.170000       12.0110           0
     80836 WT27     409      MECN     H11      HGA3     0.090000        1.0080           0
     80837 WT27     409      MECN     H12      HGA3     0.090000        1.0080           0
     80838 WT27     409      MECN     H13      HGA3     0.090000        1.0080           0
     80839 WT27     409      MECN     C2       CG1N1    0.360000       12.0110           0
     80840 WT27     409      MECN     N3       NG1T1   -0.460000       14.0070           0
     80841 WT27     411      MECN     C1       CG331   -0.170000       12.0110           0
     80842 WT27     411      MECN     H11      HGA3     0.090000        1.0080           0
     80843 WT27     411      MECN     H12      HGA3     0.090000        1.0080           0
     80844 WT27     411      MECN     H13      HGA3     0.090000        1.0080           0
     80845 WT27     411      MECN     C2       CG1N1    0.360000       12.0110           0
     80846 WT27     411      MECN     N3       NG1T1   -0.460000       14.0070           0
     80847 WT27     413      MECN     C1       CG331   -0.170000       12.0110           0
     80848 WT27     413      MECN     H11      HGA3     0.090000        1.0080           0
     80849 WT27     413      MECN     H12      HGA3     0.090000        1.0080           0
     80850 WT27     413      MECN     H13      HGA3     0.090000        1.0080           0
     80851 WT27     413      MECN     C2       CG1N1    0.360000       12.0110           0
     80852 WT27     413      MECN     N3       NG1T1   -0.460000       14.0070           0
     80853 WT27     414      MECN     C1       CG331   -0.170000       12.0110           0
     80854 WT27     414      MECN     H11      HGA3     0.090000        1.0080           0
     80855 WT27     414      MECN     H12      HGA3     0.090000        1.0080           0
     80856 WT27     414      MECN     H13      HGA3     0.090000        1.0080           0
     80857 WT27     414      MECN     C2       CG1N1    0.360000       12.0110           0
     80858 WT27     414      MECN     N3       NG1T1   -0.460000       14.0070           0
     80859 WT27     417      MECN     C1       CG331   -0.170000       12.0110           0
     80860 WT27     417      MECN     H11      HGA3     0.090000        1.0080           0
     80861 WT27     417      MECN     H12      HGA3     0.090000        1.0080           0
     80862 WT27     417      MECN     H13      HGA3     0.090000        1.0080           0
     80863 WT27     417      MECN     C2       CG1N1    0.360000       12.0110           0
     80864 WT27     417      MECN     N3       NG1T1   -0.460000       14.0070           0
     80865 WT27     419      MECN     C1       CG331   -0.170000       12.0110           0
     80866 WT27     419      MECN     H11      HGA3     0.090000        1.0080           0
     80867 WT27     419      MECN     H12      HGA3     0.090000        1.0080           0
     80868 WT27     419      MECN     H13      HGA3     0.090000        1.0080           0
     80869 WT27     419      MECN     C2       CG1N1    0.360000       12.0110           0
     80870 WT27     419      MECN     N3       NG1T1   -0.460000       14.0070           0
     80871 WT27     422      MECN     C1       CG331   -0.170000       12.0110           0
     80872 WT27     422      MECN     H11      HGA3     0.090000        1.0080           0
     80873 WT27     422      MECN     H12      HGA3     0.090000        1.0080           0
     80874 WT27     422      MECN     H13      HGA3     0.090000        1.0080           0
     80875 WT27     422      MECN     C2       CG1N1    0.360000       12.0110           0
     80876 WT27     422      MECN     N3       NG1T1   -0.460000       14.0070           0
     80877 WT27     429      MECN     C1       CG331   -0.170000       12.0110           0
     80878 WT27     429      MECN     H11      HGA3     0.090000        1.0080           0
     80879 WT27     429      MECN     H12      HGA3     0.090000        1.0080           0
     80880 WT27     429      MECN     H13      HGA3     0.090000        1.0080           0
     80881 WT27     429      MECN     C2       CG1N1    0.360000       12.0110           0
     80882 WT27     429      MECN     N3       NG1T1   -0.460000       14.0070           0
     80883 WT27     433      MECN     C1       CG331   -0.170000       12.0110           0
     80884 WT27     433      MECN     H11      HGA3     0.090000        1.0080           0
     80885 WT27     433      MECN     H12      HGA3     0.090000        1.0080           0
     80886 WT27     433      MECN     H13      HGA3     0.090000        1.0080           0
     80887 WT27     433      MECN     C2       CG1N1    0.360000       12.0110           0
     80888 WT27     433      MECN     N3       NG1T1   -0.460000       14.0070           0
     80889 WT27     434      MECN     C1       CG331   -0.170000       12.0110           0
     80890 WT27     434      MECN     H11      HGA3     0.090000        1.0080           0
     80891 WT27     434      MECN     H12      HGA3     0.090000        1.0080           0
     80892 WT27     434      MECN     H13      HGA3     0.090000        1.0080           0
     80893 WT27     434      MECN     C2       CG1N1    0.360000       12.0110           0
     80894 WT27     434      MECN     N3       NG1T1   -0.460000       14.0070           0
     80895 WT27     435      MECN     C1       CG331   -0.170000       12.0110           0
     80896 WT27     435      MECN     H11      HGA3     0.090000        1.0080           0
     80897 WT27     435      MECN     H12      HGA3     0.090000        1.0080           0
     80898 WT27     435      MECN     H13      HGA3     0.090000        1.0080           0
     80899 WT27     435      MECN     C2       CG1N1    0.360000       12.0110           0
     80900 WT27     435      MECN     N3       NG1T1   -0.460000       14.0070           0
     80901 WT27     439      MECN     C1       CG331   -0.170000       12.0110           0
     80902 WT27     439      MECN     H11      HGA3     0.090000        1.0080           0
     80903 WT27     439      MECN     H12      HGA3     0.090000        1.0080           0
     80904 WT27     439      MECN     H13      HGA3     0.090000        1.0080           0
     80905 WT27     439      MECN     C2       CG1N1    0.360000       12.0110           0
     80906 WT27     439      MECN     N3       NG1T1   -0.460000       14.0070           0
     80907 WT27     441      MECN     C1       CG331   -0.170000       12.0110           0
     80908 WT27     441      MECN     H11      HGA3     0.090000        1.0080           0
     80909 WT27     441      MECN     H12      HGA3     0.090000        1.0080           0
     80910 WT27     441      MECN     H13      HGA3     0.090000        1.0080           0
     80911 WT27     441      MECN     C2       CG1N1    0.360000       12.0110           0
     80912 WT27     441      MECN     N3       NG1T1   -0.460000       14.0070           0
     80913 WT27     443      MECN     C1       CG331   -0.170000       12.0110           0
     80914 WT27     443      MECN     H11      HGA3     0.090000        1.0080           0
     80915 WT27     443      MECN     H12      HGA3     0.090000        1.0080           0
     80916 WT27     443      MECN     H13      HGA3     0.090000        1.0080           0
     80917 WT27     443      MECN     C2       CG1N1    0.360000       12.0110           0
     80918 WT27     443      MECN     N3       NG1T1   -0.460000       14.0070           0
     80919 WT27     448      MECN     C1       CG331   -0.170000       12.0110           0
     80920 WT27     448      MECN     H11      HGA3     0.090000        1.0080           0
     80921 WT27     448      MECN     H12      HGA3     0.090000        1.0080           0
     80922 WT27     448      MECN     H13      HGA3     0.090000        1.0080           0
     80923 WT27     448      MECN     C2       CG1N1    0.360000       12.0110           0
     80924 WT27     448      MECN     N3       NG1T1   -0.460000       14.0070           0
     80925 WT27     449      MECN     C1       CG331   -0.170000       12.0110           0
     80926 WT27     449      MECN     H11      HGA3     0.090000        1.0080           0
     80927 WT27     449      MECN     H12      HGA3     0.090000        1.0080           0
     80928 WT27     449      MECN     H13      HGA3     0.090000        1.0080           0
     80929 WT27     449      MECN     C2       CG1N1    0.360000       12.0110           0
     80930 WT27     449      MECN     N3       NG1T1   -0.460000       14.0070           0
     80931 WT27     452      MECN     C1       CG331   -0.170000       12.0110           0
     80932 WT27     452      MECN     H11      HGA3     0.090000        1.0080           0
     80933 WT27     452      MECN     H12      HGA3     0.090000        1.0080           0
     80934 WT27     452      MECN     H13      HGA3     0.090000        1.0080           0
     80935 WT27     452      MECN     C2       CG1N1    0.360000       12.0110           0
     80936 WT27     452      MECN     N3       NG1T1   -0.460000       14.0070           0
     80937 WT27     455      MECN     C1       CG331   -0.170000       12.0110           0
     80938 WT27     455      MECN     H11      HGA3     0.090000        1.0080           0
     80939 WT27     455      MECN     H12      HGA3     0.090000        1.0080           0
     80940 WT27     455      MECN     H13      HGA3     0.090000        1.0080           0
     80941 WT27     455      MECN     C2       CG1N1    0.360000       12.0110           0
     80942 WT27     455      MECN     N3       NG1T1   -0.460000       14.0070           0
     80943 WT27     459      MECN     C1       CG331   -0.170000       12.0110           0
     80944 WT27     459      MECN     H11      HGA3     0.090000        1.0080           0
     80945 WT27     459      MECN     H12      HGA3     0.090000        1.0080           0
     80946 WT27     459      MECN     H13      HGA3     0.090000        1.0080           0
     80947 WT27     459      MECN     C2       CG1N1    0.360000       12.0110           0
     80948 WT27     459      MECN     N3       NG1T1   -0.460000       14.0070           0
     80949 WT27     460      MECN     C1       CG331   -0.170000       12.0110           0
     80950 WT27     460      MECN     H11      HGA3     0.090000        1.0080           0
     80951 WT27     460      MECN     H12      HGA3     0.090000        1.0080           0
     80952 WT27     460      MECN     H13      HGA3     0.090000        1.0080           0
     80953 WT27     460      MECN     C2       CG1N1    0.360000       12.0110           0
     80954 WT27     460      MECN     N3       NG1T1   -0.460000       14.0070           0
     80955 WT27     462      MECN     C1       CG331   -0.170000       12.0110           0
     80956 WT27     462      MECN     H11      HGA3     0.090000        1.0080           0
     80957 WT27     462      MECN     H12      HGA3     0.090000        1.0080           0
     80958 WT27     462      MECN     H13      HGA3     0.090000        1.0080           0
     80959 WT27     462      MECN     C2       CG1N1    0.360000       12.0110           0
     80960 WT27     462      MECN     N3       NG1T1   -0.460000       14.0070           0
     80961 WT27     463      MECN     C1       CG331   -0.170000       12.0110           0
     80962 WT27     463      MECN     H11      HGA3     0.090000        1.0080           0
     80963 WT27     463      MECN     H12      HGA3     0.090000        1.0080           0
     80964 WT27     463      MECN     H13      HGA3     0.090000        1.0080           0
     80965 WT27     463      MECN     C2       CG1N1    0.360000       12.0110           0
     80966 WT27     463      MECN     N3       NG1T1   -0.460000       14.0070           0
     80967 WT27     464      MECN     C1       CG331   -0.170000       12.0110           0
     80968 WT27     464      MECN     H11      HGA3     0.090000        1.0080           0
     80969 WT27     464      MECN     H12      HGA3     0.090000        1.0080           0
     80970 WT27     464      MECN     H13      HGA3     0.090000        1.0080           0
     80971 WT27     464      MECN     C2       CG1N1    0.360000       12.0110           0
     80972 WT27     464      MECN     N3       NG1T1   -0.460000       14.0070           0
     80973 WT27     466      MECN     C1       CG331   -0.170000       12.0110           0
     80974 WT27     466      MECN     H11      HGA3     0.090000        1.0080           0
     80975 WT27     466      MECN     H12      HGA3     0.090000        1.0080           0
     80976 WT27     466      MECN     H13      HGA3     0.090000        1.0080           0
     80977 WT27     466      MECN     C2       CG1N1    0.360000       12.0110           0
     80978 WT27     466      MECN     N3       NG1T1   -0.460000       14.0070           0
     80979 WT27     479      MECN     C1       CG331   -0.170000       12.0110           0
     80980 WT27     479      MECN     H11      HGA3     0.090000        1.0080           0
     80981 WT27     479      MECN     H12      HGA3     0.090000        1.0080           0
     80982 WT27     479      MECN     H13      HGA3     0.090000        1.0080           0
     80983 WT27     479      MECN     C2       CG1N1    0.360000       12.0110           0
     80984 WT27     479      MECN     N3       NG1T1   -0.460000       14.0070           0
     80985 WT27     480      MECN     C1       CG331   -0.170000       12.0110           0
     80986 WT27     480      MECN     H11      HGA3     0.090000        1.0080           0
     80987 WT27     480      MECN     H12      HGA3     0.090000        1.0080           0
     80988 WT27     480      MECN     H13      HGA3     0.090000        1.0080           0
     80989 WT27     480      MECN     C2       CG1N1    0.360000       12.0110           0
     80990 WT27     480      MECN     N3       NG1T1   -0.460000       14.0070           0
     80991 WT27     483      MECN     C1       CG331   -0.170000       12.0110           0
     80992 WT27     483      MECN     H11      HGA3     0.090000        1.0080           0
     80993 WT27     483      MECN     H12      HGA3     0.090000        1.0080           0
     80994 WT27     483      MECN     H13      HGA3     0.090000        1.0080           0
     80995 WT27     483      MECN     C2       CG1N1    0.360000       12.0110           0
     80996 WT27     483      MECN     N3       NG1T1   -0.460000       14.0070           0
     80997 WT27     487      MECN     C1       CG331   -0.170000       12.0110           0
     80998 WT27     487      MECN     H11      HGA3     0.090000        1.0080           0
     80999 WT27     487      MECN     H12      HGA3     0.090000        1.0080           0
     81000 WT27     487      MECN     H13      HGA3     0.090000        1.0080           0
     81001 WT27     487      MECN     C2       CG1N1    0.360000       12.0110           0
     81002 WT27     487      MECN     N3       NG1T1   -0.460000       14.0070           0
     81003 WT27     491      MECN     C1       CG331   -0.170000       12.0110           0
     81004 WT27     491      MECN     H11      HGA3     0.090000        1.0080           0
     81005 WT27     491      MECN     H12      HGA3     0.090000        1.0080           0
     81006 WT27     491      MECN     H13      HGA3     0.090000        1.0080           0
     81007 WT27     491      MECN     C2       CG1N1    0.360000       12.0110           0
     81008 WT27     491      MECN     N3       NG1T1   -0.460000       14.0070           0
     81009 WT27     493      MECN     C1       CG331   -0.170000       12.0110           0
     81010 WT27     493      MECN     H11      HGA3     0.090000        1.0080           0
     81011 WT27     493      MECN     H12      HGA3     0.090000        1.0080           0
     81012 WT27     493      MECN     H13      HGA3     0.090000        1.0080           0
     81013 WT27     493      MECN     C2       CG1N1    0.360000       12.0110           0
     81014 WT27     493      MECN     N3       NG1T1   -0.460000       14.0070           0
     81015 WT27     496      MECN     C1       CG331   -0.170000       12.0110           0
     81016 WT27     496      MECN     H11      HGA3     0.090000        1.0080           0
     81017 WT27     496      MECN     H12      HGA3     0.090000        1.0080           0
     81018 WT27     496      MECN     H13      HGA3     0.090000        1.0080           0
     81019 WT27     496      MECN     C2       CG1N1    0.360000       12.0110           0
     81020 WT27     496      MECN     N3       NG1T1   -0.460000       14.0070           0
     81021 WT27     497      MECN     C1       CG331   -0.170000       12.0110           0
     81022 WT27     497      MECN     H11      HGA3     0.090000        1.0080           0
     81023 WT27     497      MECN     H12      HGA3     0.090000        1.0080           0
     81024 WT27     497      MECN     H13      HGA3     0.090000        1.0080           0
     81025 WT27     497      MECN     C2       CG1N1    0.360000       12.0110           0
     81026 WT27     497      MECN     N3       NG1T1   -0.460000       14.0070           0
     81027 WT27     499      MECN     C1       CG331   -0.170000       12.0110           0
     81028 WT27     499      MECN     H11      HGA3     0.090000        1.0080           0
     81029 WT27     499      MECN     H12      HGA3     0.090000        1.0080           0
     81030 WT27     499      MECN     H13      HGA3     0.090000        1.0080           0
     81031 WT27     499      MECN     C2       CG1N1    0.360000       12.0110           0
     81032 WT27     499      MECN     N3       NG1T1   -0.460000       14.0070           0
     81033 WT27     502      MECN     C1       CG331   -0.170000       12.0110           0
     81034 WT27     502      MECN     H11      HGA3     0.090000        1.0080           0
     81035 WT27     502      MECN     H12      HGA3     0.090000        1.0080           0
     81036 WT27     502      MECN     H13      HGA3     0.090000        1.0080           0
     81037 WT27     502      MECN     C2       CG1N1    0.360000       12.0110           0
     81038 WT27     502      MECN     N3       NG1T1   -0.460000       14.0070           0
     81039 WT27     503      MECN     C1       CG331   -0.170000       12.0110           0
     81040 WT27     503      MECN     H11      HGA3     0.090000        1.0080           0
     81041 WT27     503      MECN     H12      HGA3     0.090000        1.0080           0
     81042 WT27     503      MECN     H13      HGA3     0.090000        1.0080           0
     81043 WT27     503      MECN     C2       CG1N1    0.360000       12.0110           0
     81044 WT27     503      MECN     N3       NG1T1   -0.460000       14.0070           0
     81045 WT27     506      MECN     C1       CG331   -0.170000       12.0110           0
     81046 WT27     506      MECN     H11      HGA3     0.090000        1.0080           0
     81047 WT27     506      MECN     H12      HGA3     0.090000        1.0080           0
     81048 WT27     506      MECN     H13      HGA3     0.090000        1.0080           0
     81049 WT27     506      MECN     C2       CG1N1    0.360000       12.0110           0
     81050 WT27     506      MECN     N3       NG1T1   -0.460000       14.0070           0
     81051 WT27     507      MECN     C1       CG331   -0.170000       12.0110           0
     81052 WT27     507      MECN     H11      HGA3     0.090000        1.0080           0
     81053 WT27     507      MECN     H12      HGA3     0.090000        1.0080           0
     81054 WT27     507      MECN     H13      HGA3     0.090000        1.0080           0
     81055 WT27     507      MECN     C2       CG1N1    0.360000       12.0110           0
     81056 WT27     507      MECN     N3       NG1T1   -0.460000       14.0070           0
     81057 WT27     508      MECN     C1       CG331   -0.170000       12.0110           0
     81058 WT27     508      MECN     H11      HGA3     0.090000        1.0080           0
     81059 WT27     508      MECN     H12      HGA3     0.090000        1.0080           0
     81060 WT27     508      MECN     H13      HGA3     0.090000        1.0080           0
     81061 WT27     508      MECN     C2       CG1N1    0.360000       12.0110           0
     81062 WT27     508      MECN     N3       NG1T1   -0.460000       14.0070           0
     81063 WT27     511      MECN     C1       CG331   -0.170000       12.0110           0
     81064 WT27     511      MECN     H11      HGA3     0.090000        1.0080           0
     81065 WT27     511      MECN     H12      HGA3     0.090000        1.0080           0
     81066 WT27     511      MECN     H13      HGA3     0.090000        1.0080           0
     81067 WT27     511      MECN     C2       CG1N1    0.360000       12.0110           0
     81068 WT27     511      MECN     N3       NG1T1   -0.460000       14.0070           0
     81069 WT27     512      MECN     C1       CG331   -0.170000       12.0110           0
     81070 WT27     512      MECN     H11      HGA3     0.090000        1.0080           0
     81071 WT27     512      MECN     H12      HGA3     0.090000        1.0080           0
     81072 WT27     512      MECN     H13      HGA3     0.090000        1.0080           0
     81073 WT27     512      MECN     C2       CG1N1    0.360000       12.0110           0
     81074 WT27     512      MECN     N3       NG1T1   -0.460000       14.0070           0
     81075 WT27     514      MECN     C1       CG331   -0.170000       12.0110           0
     81076 WT27     514      MECN     H11      HGA3     0.090000        1.0080           0
     81077 WT27     514      MECN     H12      HGA3     0.090000        1.0080           0
     81078 WT27     514      MECN     H13      HGA3     0.090000        1.0080           0
     81079 WT27     514      MECN     C2       CG1N1    0.360000       12.0110           0
     81080 WT27     514      MECN     N3       NG1T1   -0.460000       14.0070           0
     81081 WT27     515      MECN     C1       CG331   -0.170000       12.0110           0
     81082 WT27     515      MECN     H11      HGA3     0.090000        1.0080           0
     81083 WT27     515      MECN     H12      HGA3     0.090000        1.0080           0
     81084 WT27     515      MECN     H13      HGA3     0.090000        1.0080           0
     81085 WT27     515      MECN     C2       CG1N1    0.360000       12.0110           0
     81086 WT27     515      MECN     N3       NG1T1   -0.460000       14.0070           0
     81087 WT27     516      MECN     C1       CG331   -0.170000       12.0110           0
     81088 WT27     516      MECN     H11      HGA3     0.090000        1.0080           0
     81089 WT27     516      MECN     H12      HGA3     0.090000        1.0080           0
     81090 WT27     516      MECN     H13      HGA3     0.090000        1.0080           0
     81091 WT27     516      MECN     C2       CG1N1    0.360000       12.0110           0
     81092 WT27     516      MECN     N3       NG1T1   -0.460000       14.0070           0
     81093 WT27     518      MECN     C1       CG331   -0.170000       12.0110           0
     81094 WT27     518      MECN     H11      HGA3     0.090000        1.0080           0
     81095 WT27     518      MECN     H12      HGA3     0.090000        1.0080           0
     81096 WT27     518      MECN     H13      HGA3     0.090000        1.0080           0
     81097 WT27     518      MECN     C2       CG1N1    0.360000       12.0110           0
     81098 WT27     518      MECN     N3       NG1T1   -0.460000       14.0070           0
     81099 WT27     521      MECN     C1       CG331   -0.170000       12.0110           0
     81100 WT27     521      MECN     H11      HGA3     0.090000        1.0080           0
     81101 WT27     521      MECN     H12      HGA3     0.090000        1.0080           0
     81102 WT27     521      MECN     H13      HGA3     0.090000        1.0080           0
     81103 WT27     521      MECN     C2       CG1N1    0.360000       12.0110           0
     81104 WT27     521      MECN     N3       NG1T1   -0.460000       14.0070           0
     81105 WT27     524      MECN     C1       CG331   -0.170000       12.0110           0
     81106 WT27     524      MECN     H11      HGA3     0.090000        1.0080           0
     81107 WT27     524      MECN     H12      HGA3     0.090000        1.0080           0
     81108 WT27     524      MECN     H13      HGA3     0.090000        1.0080           0
     81109 WT27     524      MECN     C2       CG1N1    0.360000       12.0110           0
     81110 WT27     524      MECN     N3       NG1T1   -0.460000       14.0070           0
     81111 WT27     526      MECN     C1       CG331   -0.170000       12.0110           0
     81112 WT27     526      MECN     H11      HGA3     0.090000        1.0080           0
     81113 WT27     526      MECN     H12      HGA3     0.090000        1.0080           0
     81114 WT27     526      MECN     H13      HGA3     0.090000        1.0080           0
     81115 WT27     526      MECN     C2       CG1N1    0.360000       12.0110           0
     81116 WT27     526      MECN     N3       NG1T1   -0.460000       14.0070           0
     81117 WT27     529      MECN     C1       CG331   -0.170000       12.0110           0
     81118 WT27     529      MECN     H11      HGA3     0.090000        1.0080           0
     81119 WT27     529      MECN     H12      HGA3     0.090000        1.0080           0
     81120 WT27     529      MECN     H13      HGA3     0.090000        1.0080           0
     81121 WT27     529      MECN     C2       CG1N1    0.360000       12.0110           0
     81122 WT27     529      MECN     N3       NG1T1   -0.460000       14.0070           0
     81123 WT27     533      MECN     C1       CG331   -0.170000       12.0110           0
     81124 WT27     533      MECN     H11      HGA3     0.090000        1.0080           0
     81125 WT27     533      MECN     H12      HGA3     0.090000        1.0080           0
     81126 WT27     533      MECN     H13      HGA3     0.090000        1.0080           0
     81127 WT27     533      MECN     C2       CG1N1    0.360000       12.0110           0
     81128 WT27     533      MECN     N3       NG1T1   -0.460000       14.0070           0
     81129 WT27     534      MECN     C1       CG331   -0.170000       12.0110           0
     81130 WT27     534      MECN     H11      HGA3     0.090000        1.0080           0
     81131 WT27     534      MECN     H12      HGA3     0.090000        1.0080           0
     81132 WT27     534      MECN     H13      HGA3     0.090000        1.0080           0
     81133 WT27     534      MECN     C2       CG1N1    0.360000       12.0110           0
     81134 WT27     534      MECN     N3       NG1T1   -0.460000       14.0070           0
     81135 WT27     536      MECN     C1       CG331   -0.170000       12.0110           0
     81136 WT27     536      MECN     H11      HGA3     0.090000        1.0080           0
     81137 WT27     536      MECN     H12      HGA3     0.090000        1.0080           0
     81138 WT27     536      MECN     H13      HGA3     0.090000        1.0080           0
     81139 WT27     536      MECN     C2       CG1N1    0.360000       12.0110           0
     81140 WT27     536      MECN     N3       NG1T1   -0.460000       14.0070           0
     81141 WT27     538      MECN     C1       CG331   -0.170000       12.0110           0
     81142 WT27     538      MECN     H11      HGA3     0.090000        1.0080           0
     81143 WT27     538      MECN     H12      HGA3     0.090000        1.0080           0
     81144 WT27     538      MECN     H13      HGA3     0.090000        1.0080           0
     81145 WT27     538      MECN     C2       CG1N1    0.360000       12.0110           0
     81146 WT27     538      MECN     N3       NG1T1   -0.460000       14.0070           0
     81147 WT27     539      MECN     C1       CG331   -0.170000       12.0110           0
     81148 WT27     539      MECN     H11      HGA3     0.090000        1.0080           0
     81149 WT27     539      MECN     H12      HGA3     0.090000        1.0080           0
     81150 WT27     539      MECN     H13      HGA3     0.090000        1.0080           0
     81151 WT27     539      MECN     C2       CG1N1    0.360000       12.0110           0
     81152 WT27     539      MECN     N3       NG1T1   -0.460000       14.0070           0
     81153 WT27     540      MECN     C1       CG331   -0.170000       12.0110           0
     81154 WT27     540      MECN     H11      HGA3     0.090000        1.0080           0
     81155 WT27     540      MECN     H12      HGA3     0.090000        1.0080           0
     81156 WT27     540      MECN     H13      HGA3     0.090000        1.0080           0
     81157 WT27     540      MECN     C2       CG1N1    0.360000       12.0110           0
     81158 WT27     540      MECN     N3       NG1T1   -0.460000       14.0070           0
     81159 WT27     545      MECN     C1       CG331   -0.170000       12.0110           0
     81160 WT27     545      MECN     H11      HGA3     0.090000        1.0080           0
     81161 WT27     545      MECN     H12      HGA3     0.090000        1.0080           0
     81162 WT27     545      MECN     H13      HGA3     0.090000        1.0080           0
     81163 WT27     545      MECN     C2       CG1N1    0.360000       12.0110           0
     81164 WT27     545      MECN     N3       NG1T1   -0.460000       14.0070           0
     81165 WT27     548      MECN     C1       CG331   -0.170000       12.0110           0
     81166 WT27     548      MECN     H11      HGA3     0.090000        1.0080           0
     81167 WT27     548      MECN     H12      HGA3     0.090000        1.0080           0
     81168 WT27     548      MECN     H13      HGA3     0.090000        1.0080           0
     81169 WT27     548      MECN     C2       CG1N1    0.360000       12.0110           0
     81170 WT27     548      MECN     N3       NG1T1   -0.460000       14.0070           0
     81171 WT27     549      MECN     C1       CG331   -0.170000       12.0110           0
     81172 WT27     549      MECN     H11      HGA3     0.090000        1.0080           0
     81173 WT27     549      MECN     H12      HGA3     0.090000        1.0080           0
     81174 WT27     549      MECN     H13      HGA3     0.090000        1.0080           0
     81175 WT27     549      MECN     C2       CG1N1    0.360000       12.0110           0
     81176 WT27     549      MECN     N3       NG1T1   -0.460000       14.0070           0
     81177 WT27     550      MECN     C1       CG331   -0.170000       12.0110           0
     81178 WT27     550      MECN     H11      HGA3     0.090000        1.0080           0
     81179 WT27     550      MECN     H12      HGA3     0.090000        1.0080           0
     81180 WT27     550      MECN     H13      HGA3     0.090000        1.0080           0
     81181 WT27     550      MECN     C2       CG1N1    0.360000       12.0110           0
     81182 WT27     550      MECN     N3       NG1T1   -0.460000       14.0070           0
     81183 WT27     551      MECN     C1       CG331   -0.170000       12.0110           0
     81184 WT27     551      MECN     H11      HGA3     0.090000        1.0080           0
     81185 WT27     551      MECN     H12      HGA3     0.090000        1.0080           0
     81186 WT27     551      MECN     H13      HGA3     0.090000        1.0080           0
     81187 WT27     551      MECN     C2       CG1N1    0.360000       12.0110           0
     81188 WT27     551      MECN     N3       NG1T1   -0.460000       14.0070           0
     81189 WT27     552      MECN     C1       CG331   -0.170000       12.0110           0
     81190 WT27     552      MECN     H11      HGA3     0.090000        1.0080           0
     81191 WT27     552      MECN     H12      HGA3     0.090000        1.0080           0
     81192 WT27     552      MECN     H13      HGA3     0.090000        1.0080           0
     81193 WT27     552      MECN     C2       CG1N1    0.360000       12.0110           0
     81194 WT27     552      MECN     N3       NG1T1   -0.460000       14.0070           0
     81195 WT27     559      MECN     C1       CG331   -0.170000       12.0110           0
     81196 WT27     559      MECN     H11      HGA3     0.090000        1.0080           0
     81197 WT27     559      MECN     H12      HGA3     0.090000        1.0080           0
     81198 WT27     559      MECN     H13      HGA3     0.090000        1.0080           0
     81199 WT27     559      MECN     C2       CG1N1    0.360000       12.0110           0
     81200 WT27     559      MECN     N3       NG1T1   -0.460000       14.0070           0
     81201 WT27     561      MECN     C1       CG331   -0.170000       12.0110           0
     81202 WT27     561      MECN     H11      HGA3     0.090000        1.0080           0
     81203 WT27     561      MECN     H12      HGA3     0.090000        1.0080           0
     81204 WT27     561      MECN     H13      HGA3     0.090000        1.0080           0
     81205 WT27     561      MECN     C2       CG1N1    0.360000       12.0110           0
     81206 WT27     561      MECN     N3       NG1T1   -0.460000       14.0070           0
     81207 WT27     562      MECN     C1       CG331   -0.170000       12.0110           0
     81208 WT27     562      MECN     H11      HGA3     0.090000        1.0080           0
     81209 WT27     562      MECN     H12      HGA3     0.090000        1.0080           0
     81210 WT27     562      MECN     H13      HGA3     0.090000        1.0080           0
     81211 WT27     562      MECN     C2       CG1N1    0.360000       12.0110           0
     81212 WT27     562      MECN     N3       NG1T1   -0.460000       14.0070           0
     81213 WT27     565      MECN     C1       CG331   -0.170000       12.0110           0
     81214 WT27     565      MECN     H11      HGA3     0.090000        1.0080           0
     81215 WT27     565      MECN     H12      HGA3     0.090000        1.0080           0
     81216 WT27     565      MECN     H13      HGA3     0.090000        1.0080           0
     81217 WT27     565      MECN     C2       CG1N1    0.360000       12.0110           0
     81218 WT27     565      MECN     N3       NG1T1   -0.460000       14.0070           0
     81219 WT27     572      MECN     C1       CG331   -0.170000       12.0110           0
     81220 WT27     572      MECN     H11      HGA3     0.090000        1.0080           0
     81221 WT27     572      MECN     H12      HGA3     0.090000        1.0080           0
     81222 WT27     572      MECN     H13      HGA3     0.090000        1.0080           0
     81223 WT27     572      MECN     C2       CG1N1    0.360000       12.0110           0
     81224 WT27     572      MECN     N3       NG1T1   -0.460000       14.0070           0
     81225 WT27     575      MECN     C1       CG331   -0.170000       12.0110           0
     81226 WT27     575      MECN     H11      HGA3     0.090000        1.0080           0
     81227 WT27     575      MECN     H12      HGA3     0.090000        1.0080           0
     81228 WT27     575      MECN     H13      HGA3     0.090000        1.0080           0
     81229 WT27     575      MECN     C2       CG1N1    0.360000       12.0110           0
     81230 WT27     575      MECN     N3       NG1T1   -0.460000       14.0070           0
     81231 WT27     576      MECN     C1       CG331   -0.170000       12.0110           0
     81232 WT27     576      MECN     H11      HGA3     0.090000        1.0080           0
     81233 WT27     576      MECN     H12      HGA3     0.090000        1.0080           0
     81234 WT27     576      MECN     H13      HGA3     0.090000        1.0080           0
     81235 WT27     576      MECN     C2       CG1N1    0.360000       12.0110           0
     81236 WT27     576      MECN     N3       NG1T1   -0.460000       14.0070           0
     81237 WT27     577      MECN     C1       CG331   -0.170000       12.0110           0
     81238 WT27     577      MECN     H11      HGA3     0.090000        1.0080           0
     81239 WT27     577      MECN     H12      HGA3     0.090000        1.0080           0
     81240 WT27     577      MECN     H13      HGA3     0.090000        1.0080           0
     81241 WT27     577      MECN     C2       CG1N1    0.360000       12.0110           0
     81242 WT27     577      MECN     N3       NG1T1   -0.460000       14.0070           0
     81243 WT27     582      MECN     C1       CG331   -0.170000       12.0110           0
     81244 WT27     582      MECN     H11      HGA3     0.090000        1.0080           0
     81245 WT27     582      MECN     H12      HGA3     0.090000        1.0080           0
     81246 WT27     582      MECN     H13      HGA3     0.090000        1.0080           0
     81247 WT27     582      MECN     C2       CG1N1    0.360000       12.0110           0
     81248 WT27     582      MECN     N3       NG1T1   -0.460000       14.0070           0
     81249 WT27     584      MECN     C1       CG331   -0.170000       12.0110           0
     81250 WT27     584      MECN     H11      HGA3     0.090000        1.0080           0
     81251 WT27     584      MECN     H12      HGA3     0.090000        1.0080           0
     81252 WT27     584      MECN     H13      HGA3     0.090000        1.0080           0
     81253 WT27     584      MECN     C2       CG1N1    0.360000       12.0110           0
     81254 WT27     584      MECN     N3       NG1T1   -0.460000       14.0070           0
     81255 WT27     585      MECN     C1       CG331   -0.170000       12.0110           0
     81256 WT27     585      MECN     H11      HGA3     0.090000        1.0080           0
     81257 WT27     585      MECN     H12      HGA3     0.090000        1.0080           0
     81258 WT27     585      MECN     H13      HGA3     0.090000        1.0080           0
     81259 WT27     585      MECN     C2       CG1N1    0.360000       12.0110           0
     81260 WT27     585      MECN     N3       NG1T1   -0.460000       14.0070           0
     81261 WT27     591      MECN     C1       CG331   -0.170000       12.0110           0
     81262 WT27     591      MECN     H11      HGA3     0.090000        1.0080           0
     81263 WT27     591      MECN     H12      HGA3     0.090000        1.0080           0
     81264 WT27     591      MECN     H13      HGA3     0.090000        1.0080           0
     81265 WT27     591      MECN     C2       CG1N1    0.360000       12.0110           0
     81266 WT27     591      MECN     N3       NG1T1   -0.460000       14.0070           0
     81267 WT27     592      MECN     C1       CG331   -0.170000       12.0110           0
     81268 WT27     592      MECN     H11      HGA3     0.090000        1.0080           0
     81269 WT27     592      MECN     H12      HGA3     0.090000        1.0080           0
     81270 WT27     592      MECN     H13      HGA3     0.090000        1.0080           0
     81271 WT27     592      MECN     C2       CG1N1    0.360000       12.0110           0
     81272 WT27     592      MECN     N3       NG1T1   -0.460000       14.0070           0
     81273 WT27     593      MECN     C1       CG331   -0.170000       12.0110           0
     81274 WT27     593      MECN     H11      HGA3     0.090000        1.0080           0
     81275 WT27     593      MECN     H12      HGA3     0.090000        1.0080           0
     81276 WT27     593      MECN     H13      HGA3     0.090000        1.0080           0
     81277 WT27     593      MECN     C2       CG1N1    0.360000       12.0110           0
     81278 WT27     593      MECN     N3       NG1T1   -0.460000       14.0070           0
     81279 WT27     595      MECN     C1       CG331   -0.170000       12.0110           0
     81280 WT27     595      MECN     H11      HGA3     0.090000        1.0080           0
     81281 WT27     595      MECN     H12      HGA3     0.090000        1.0080           0
     81282 WT27     595      MECN     H13      HGA3     0.090000        1.0080           0
     81283 WT27     595      MECN     C2       CG1N1    0.360000       12.0110           0
     81284 WT27     595      MECN     N3       NG1T1   -0.460000       14.0070           0
     81285 WT27     596      MECN     C1       CG331   -0.170000       12.0110           0
     81286 WT27     596      MECN     H11      HGA3     0.090000        1.0080           0
     81287 WT27     596      MECN     H12      HGA3     0.090000        1.0080           0
     81288 WT27     596      MECN     H13      HGA3     0.090000        1.0080           0
     81289 WT27     596      MECN     C2       CG1N1    0.360000       12.0110           0
     81290 WT27     596      MECN     N3       NG1T1   -0.460000       14.0070           0
     81291 WT27     597      MECN     C1       CG331   -0.170000       12.0110           0
     81292 WT27     597      MECN     H11      HGA3     0.090000        1.0080           0
     81293 WT27     597      MECN     H12      HGA3     0.090000        1.0080           0
     81294 WT27     597      MECN     H13      HGA3     0.090000        1.0080           0
     81295 WT27     597      MECN     C2       CG1N1    0.360000       12.0110           0
     81296 WT27     597      MECN     N3       NG1T1   -0.460000       14.0070           0
     81297 WT27     600      MECN     C1       CG331   -0.170000       12.0110           0
     81298 WT27     600      MECN     H11      HGA3     0.090000        1.0080           0
     81299 WT27     600      MECN     H12      HGA3     0.090000        1.0080           0
     81300 WT27     600      MECN     H13      HGA3     0.090000        1.0080           0
     81301 WT27     600      MECN     C2       CG1N1    0.360000       12.0110           0
     81302 WT27     600      MECN     N3       NG1T1   -0.460000       14.0070           0
     81303 WT27     602      MECN     C1       CG331   -0.170000       12.0110           0
     81304 WT27     602      MECN     H11      HGA3     0.090000        1.0080           0
     81305 WT27     602      MECN     H12      HGA3     0.090000        1.0080           0
     81306 WT27     602      MECN     H13      HGA3     0.090000        1.0080           0
     81307 WT27     602      MECN     C2       CG1N1    0.360000       12.0110           0
     81308 WT27     602      MECN     N3       NG1T1   -0.460000       14.0070           0
     81309 WT27     603      MECN     C1       CG331   -0.170000       12.0110           0
     81310 WT27     603      MECN     H11      HGA3     0.090000        1.0080           0
     81311 WT27     603      MECN     H12      HGA3     0.090000        1.0080           0
     81312 WT27     603      MECN     H13      HGA3     0.090000        1.0080           0
     81313 WT27     603      MECN     C2       CG1N1    0.360000       12.0110           0
     81314 WT27     603      MECN     N3       NG1T1   -0.460000       14.0070           0
     81315 WT27     604      MECN     C1       CG331   -0.170000       12.0110           0
     81316 WT27     604      MECN     H11      HGA3     0.090000        1.0080           0
     81317 WT27     604      MECN     H12      HGA3     0.090000        1.0080           0
     81318 WT27     604      MECN     H13      HGA3     0.090000        1.0080           0
     81319 WT27     604      MECN     C2       CG1N1    0.360000       12.0110           0
     81320 WT27     604      MECN     N3       NG1T1   -0.460000       14.0070           0
     81321 WT27     607      MECN     C1       CG331   -0.170000       12.0110           0
     81322 WT27     607      MECN     H11      HGA3     0.090000        1.0080           0
     81323 WT27     607      MECN     H12      HGA3     0.090000        1.0080           0
     81324 WT27     607      MECN     H13      HGA3     0.090000        1.0080           0
     81325 WT27     607      MECN     C2       CG1N1    0.360000       12.0110           0
     81326 WT27     607      MECN     N3       NG1T1   -0.460000       14.0070           0
     81327 WT27     609      MECN     C1       CG331   -0.170000       12.0110           0
     81328 WT27     609      MECN     H11      HGA3     0.090000        1.0080           0
     81329 WT27     609      MECN     H12      HGA3     0.090000        1.0080           0
     81330 WT27     609      MECN     H13      HGA3     0.090000        1.0080           0
     81331 WT27     609      MECN     C2       CG1N1    0.360000       12.0110           0
     81332 WT27     609      MECN     N3       NG1T1   -0.460000       14.0070           0
     81333 WT27     616      MECN     C1       CG331   -0.170000       12.0110           0
     81334 WT27     616      MECN     H11      HGA3     0.090000        1.0080           0
     81335 WT27     616      MECN     H12      HGA3     0.090000        1.0080           0
     81336 WT27     616      MECN     H13      HGA3     0.090000        1.0080           0
     81337 WT27     616      MECN     C2       CG1N1    0.360000       12.0110           0
     81338 WT27     616      MECN     N3       NG1T1   -0.460000       14.0070           0
     81339 WT27     619      MECN     C1       CG331   -0.170000       12.0110           0
     81340 WT27     619      MECN     H11      HGA3     0.090000        1.0080           0
     81341 WT27     619      MECN     H12      HGA3     0.090000        1.0080           0
     81342 WT27     619      MECN     H13      HGA3     0.090000        1.0080           0
     81343 WT27     619      MECN     C2       CG1N1    0.360000       12.0110           0
     81344 WT27     619      MECN     N3       NG1T1   -0.460000       14.0070           0
     81345 WT27     621      MECN     C1       CG331   -0.170000       12.0110           0
     81346 WT27     621      MECN     H11      HGA3     0.090000        1.0080           0
     81347 WT27     621      MECN     H12      HGA3     0.090000        1.0080           0
     81348 WT27     621      MECN     H13      HGA3     0.090000        1.0080           0
     81349 WT27     621      MECN     C2       CG1N1    0.360000       12.0110           0
     81350 WT27     621      MECN     N3       NG1T1   -0.460000       14.0070           0
     81351 WT27     623      MECN     C1       CG331   -0.170000       12.0110           0
     81352 WT27     623      MECN     H11      HGA3     0.090000        1.0080           0
     81353 WT27     623      MECN     H12      HGA3     0.090000        1.0080           0
     81354 WT27     623      MECN     H13      HGA3     0.090000        1.0080           0
     81355 WT27     623      MECN     C2       CG1N1    0.360000       12.0110           0
     81356 WT27     623      MECN     N3       NG1T1   -0.460000       14.0070           0
     81357 WT27     624      MECN     C1       CG331   -0.170000       12.0110           0
     81358 WT27     624      MECN     H11      HGA3     0.090000        1.0080           0
     81359 WT27     624      MECN     H12      HGA3     0.090000        1.0080           0
     81360 WT27     624      MECN     H13      HGA3     0.090000        1.0080           0
     81361 WT27     624      MECN     C2       CG1N1    0.360000       12.0110           0
     81362 WT27     624      MECN     N3       NG1T1   -0.460000       14.0070           0
     81363 WT27     628      MECN     C1       CG331   -0.170000       12.0110           0
     81364 WT27     628      MECN     H11      HGA3     0.090000        1.0080           0
     81365 WT27     628      MECN     H12      HGA3     0.090000        1.0080           0
     81366 WT27     628      MECN     H13      HGA3     0.090000        1.0080           0
     81367 WT27     628      MECN     C2       CG1N1    0.360000       12.0110           0
     81368 WT27     628      MECN     N3       NG1T1   -0.460000       14.0070           0
     81369 WT27     629      MECN     C1       CG331   -0.170000       12.0110           0
     81370 WT27     629      MECN     H11      HGA3     0.090000        1.0080           0
     81371 WT27     629      MECN     H12      HGA3     0.090000        1.0080           0
     81372 WT27     629      MECN     H13      HGA3     0.090000        1.0080           0
     81373 WT27     629      MECN     C2       CG1N1    0.360000       12.0110           0
     81374 WT27     629      MECN     N3       NG1T1   -0.460000       14.0070           0
     81375 WT27     631      MECN     C1       CG331   -0.170000       12.0110           0
     81376 WT27     631      MECN     H11      HGA3     0.090000        1.0080           0
     81377 WT27     631      MECN     H12      HGA3     0.090000        1.0080           0
     81378 WT27     631      MECN     H13      HGA3     0.090000        1.0080           0
     81379 WT27     631      MECN     C2       CG1N1    0.360000       12.0110           0
     81380 WT27     631      MECN     N3       NG1T1   -0.460000       14.0070           0
     81381 WT27     635      MECN     C1       CG331   -0.170000       12.0110           0
     81382 WT27     635      MECN     H11      HGA3     0.090000        1.0080           0
     81383 WT27     635      MECN     H12      HGA3     0.090000        1.0080           0
     81384 WT27     635      MECN     H13      HGA3     0.090000        1.0080           0
     81385 WT27     635      MECN     C2       CG1N1    0.360000       12.0110           0
     81386 WT27     635      MECN     N3       NG1T1   -0.460000       14.0070           0
     81387 WT27     643      MECN     C1       CG331   -0.170000       12.0110           0
     81388 WT27     643      MECN     H11      HGA3     0.090000        1.0080           0
     81389 WT27     643      MECN     H12      HGA3     0.090000        1.0080           0
     81390 WT27     643      MECN     H13      HGA3     0.090000        1.0080           0
     81391 WT27     643      MECN     C2       CG1N1    0.360000       12.0110           0
     81392 WT27     643      MECN     N3       NG1T1   -0.460000       14.0070           0
     81393 WT27     653      MECN     C1       CG331   -0.170000       12.0110           0
     81394 WT27     653      MECN     H11      HGA3     0.090000        1.0080           0
     81395 WT27     653      MECN     H12      HGA3     0.090000        1.0080           0
     81396 WT27     653      MECN     H13      HGA3     0.090000        1.0080           0
     81397 WT27     653      MECN     C2       CG1N1    0.360000       12.0110           0
     81398 WT27     653      MECN     N3       NG1T1   -0.460000       14.0070           0
     81399 WT27     654      MECN     C1       CG331   -0.170000       12.0110           0
     81400 WT27     654      MECN     H11      HGA3     0.090000        1.0080           0
     81401 WT27     654      MECN     H12      HGA3     0.090000        1.0080           0
     81402 WT27     654      MECN     H13      HGA3     0.090000        1.0080           0
     81403 WT27     654      MECN     C2       CG1N1    0.360000       12.0110           0
     81404 WT27     654      MECN     N3       NG1T1   -0.460000       14.0070           0
     81405 WT27     660      MECN     C1       CG331   -0.170000       12.0110           0
     81406 WT27     660      MECN     H11      HGA3     0.090000        1.0080           0
     81407 WT27     660      MECN     H12      HGA3     0.090000        1.0080           0
     81408 WT27     660      MECN     H13      HGA3     0.090000        1.0080           0
     81409 WT27     660      MECN     C2       CG1N1    0.360000       12.0110           0
     81410 WT27     660      MECN     N3       NG1T1   -0.460000       14.0070           0
     81411 WT27     662      MECN     C1       CG331   -0.170000       12.0110           0
     81412 WT27     662      MECN     H11      HGA3     0.090000        1.0080           0
     81413 WT27     662      MECN     H12      HGA3     0.090000        1.0080           0
     81414 WT27     662      MECN     H13      HGA3     0.090000        1.0080           0
     81415 WT27     662      MECN     C2       CG1N1    0.360000       12.0110           0
     81416 WT27     662      MECN     N3       NG1T1   -0.460000       14.0070           0
     81417 WT27     665      MECN     C1       CG331   -0.170000       12.0110           0
     81418 WT27     665      MECN     H11      HGA3     0.090000        1.0080           0
     81419 WT27     665      MECN     H12      HGA3     0.090000        1.0080           0
     81420 WT27     665      MECN     H13      HGA3     0.090000        1.0080           0
     81421 WT27     665      MECN     C2       CG1N1    0.360000       12.0110           0
     81422 WT27     665      MECN     N3       NG1T1   -0.460000       14.0070           0
     81423 WT27     668      MECN     C1       CG331   -0.170000       12.0110           0
     81424 WT27     668      MECN     H11      HGA3     0.090000        1.0080           0
     81425 WT27     668      MECN     H12      HGA3     0.090000        1.0080           0
     81426 WT27     668      MECN     H13      HGA3     0.090000        1.0080           0
     81427 WT27     668      MECN     C2       CG1N1    0.360000       12.0110           0
     81428 WT27     668      MECN     N3       NG1T1   -0.460000       14.0070           0
     81429 WT27     669      MECN     C1       CG331   -0.170000       12.0110           0
     81430 WT27     669      MECN     H11      HGA3     0.090000        1.0080           0
     81431 WT27     669      MECN     H12      HGA3     0.090000        1.0080           0
     81432 WT27     669      MECN     H13      HGA3     0.090000        1.0080           0
     81433 WT27     669      MECN     C2       CG1N1    0.360000       12.0110           0
     81434 WT27     669      MECN     N3       NG1T1   -0.460000       14.0070           0
     81435 WT27     671      MECN     C1       CG331   -0.170000       12.0110           0
     81436 WT27     671      MECN     H11      HGA3     0.090000        1.0080           0
     81437 WT27     671      MECN     H12      HGA3     0.090000        1.0080           0
     81438 WT27     671      MECN     H13      HGA3     0.090000        1.0080           0
     81439 WT27     671      MECN     C2       CG1N1    0.360000       12.0110           0
     81440 WT27     671      MECN     N3       NG1T1   -0.460000       14.0070           0
     81441 WT27     675      MECN     C1       CG331   -0.170000       12.0110           0
     81442 WT27     675      MECN     H11      HGA3     0.090000        1.0080           0
     81443 WT27     675      MECN     H12      HGA3     0.090000        1.0080           0
     81444 WT27     675      MECN     H13      HGA3     0.090000        1.0080           0
     81445 WT27     675      MECN     C2       CG1N1    0.360000       12.0110           0
     81446 WT27     675      MECN     N3       NG1T1   -0.460000       14.0070           0
     81447 WT27     676      MECN     C1       CG331   -0.170000       12.0110           0
     81448 WT27     676      MECN     H11      HGA3     0.090000        1.0080           0
     81449 WT27     676      MECN     H12      HGA3     0.090000        1.0080           0
     81450 WT27     676      MECN     H13      HGA3     0.090000        1.0080           0
     81451 WT27     676      MECN     C2       CG1N1    0.360000       12.0110           0
     81452 WT27     676      MECN     N3       NG1T1   -0.460000       14.0070           0
     81453 WT27     677      MECN     C1       CG331   -0.170000       12.0110           0
     81454 WT27     677      MECN     H11      HGA3     0.090000        1.0080           0
     81455 WT27     677      MECN     H12      HGA3     0.090000        1.0080           0
     81456 WT27     677      MECN     H13      HGA3     0.090000        1.0080           0
     81457 WT27     677      MECN     C2       CG1N1    0.360000       12.0110           0
     81458 WT27     677      MECN     N3       NG1T1   -0.460000       14.0070           0
     81459 WT27     682      MECN     C1       CG331   -0.170000       12.0110           0
     81460 WT27     682      MECN     H11      HGA3     0.090000        1.0080           0
     81461 WT27     682      MECN     H12      HGA3     0.090000        1.0080           0
     81462 WT27     682      MECN     H13      HGA3     0.090000        1.0080           0
     81463 WT27     682      MECN     C2       CG1N1    0.360000       12.0110           0
     81464 WT27     682      MECN     N3       NG1T1   -0.460000       14.0070           0
     81465 WT27     683      MECN     C1       CG331   -0.170000       12.0110           0
     81466 WT27     683      MECN     H11      HGA3     0.090000        1.0080           0
     81467 WT27     683      MECN     H12      HGA3     0.090000        1.0080           0
     81468 WT27     683      MECN     H13      HGA3     0.090000        1.0080           0
     81469 WT27     683      MECN     C2       CG1N1    0.360000       12.0110           0
     81470 WT27     683      MECN     N3       NG1T1   -0.460000       14.0070           0
     81471 WT27     685      MECN     C1       CG331   -0.170000       12.0110           0
     81472 WT27     685      MECN     H11      HGA3     0.090000        1.0080           0
     81473 WT27     685      MECN     H12      HGA3     0.090000        1.0080           0
     81474 WT27     685      MECN     H13      HGA3     0.090000        1.0080           0
     81475 WT27     685      MECN     C2       CG1N1    0.360000       12.0110           0
     81476 WT27     685      MECN     N3       NG1T1   -0.460000       14.0070           0
     81477 WT27     686      MECN     C1       CG331   -0.170000       12.0110           0
     81478 WT27     686      MECN     H11      HGA3     0.090000        1.0080           0
     81479 WT27     686      MECN     H12      HGA3     0.090000        1.0080           0
     81480 WT27     686      MECN     H13      HGA3     0.090000        1.0080           0
     81481 WT27     686      MECN     C2       CG1N1    0.360000       12.0110           0
     81482 WT27     686      MECN     N3       NG1T1   -0.460000       14.0070           0
     81483 WT27     690      MECN     C1       CG331   -0.170000       12.0110           0
     81484 WT27     690      MECN     H11      HGA3     0.090000        1.0080           0
     81485 WT27     690      MECN     H12      HGA3     0.090000        1.0080           0
     81486 WT27     690      MECN     H13      HGA3     0.090000        1.0080           0
     81487 WT27     690      MECN     C2       CG1N1    0.360000       12.0110           0
     81488 WT27     690      MECN     N3       NG1T1   -0.460000       14.0070           0
     81489 WT27     693      MECN     C1       CG331   -0.170000       12.0110           0
     81490 WT27     693      MECN     H11      HGA3     0.090000        1.0080           0
     81491 WT27     693      MECN     H12      HGA3     0.090000        1.0080           0
     81492 WT27     693      MECN     H13      HGA3     0.090000        1.0080           0
     81493 WT27     693      MECN     C2       CG1N1    0.360000       12.0110           0
     81494 WT27     693      MECN     N3       NG1T1   -0.460000       14.0070           0
     81495 WT27     695      MECN     C1       CG331   -0.170000       12.0110           0
     81496 WT27     695      MECN     H11      HGA3     0.090000        1.0080           0
     81497 WT27     695      MECN     H12      HGA3     0.090000        1.0080           0
     81498 WT27     695      MECN     H13      HGA3     0.090000        1.0080           0
     81499 WT27     695      MECN     C2       CG1N1    0.360000       12.0110           0
     81500 WT27     695      MECN     N3       NG1T1   -0.460000       14.0070           0
     81501 WT27     696      MECN     C1       CG331   -0.170000       12.0110           0
     81502 WT27     696      MECN     H11      HGA3     0.090000        1.0080           0
     81503 WT27     696      MECN     H12      HGA3     0.090000        1.0080           0
     81504 WT27     696      MECN     H13      HGA3     0.090000        1.0080           0
     81505 WT27     696      MECN     C2       CG1N1    0.360000       12.0110           0
     81506 WT27     696      MECN     N3       NG1T1   -0.460000       14.0070           0
     81507 WT27     697      MECN     C1       CG331   -0.170000       12.0110           0
     81508 WT27     697      MECN     H11      HGA3     0.090000        1.0080           0
     81509 WT27     697      MECN     H12      HGA3     0.090000        1.0080           0
     81510 WT27     697      MECN     H13      HGA3     0.090000        1.0080           0
     81511 WT27     697      MECN     C2       CG1N1    0.360000       12.0110           0
     81512 WT27     697      MECN     N3       NG1T1   -0.460000       14.0070           0
     81513 WT27     701      MECN     C1       CG331   -0.170000       12.0110           0
     81514 WT27     701      MECN     H11      HGA3     0.090000        1.0080           0
     81515 WT27     701      MECN     H12      HGA3     0.090000        1.0080           0
     81516 WT27     701      MECN     H13      HGA3     0.090000        1.0080           0
     81517 WT27     701      MECN     C2       CG1N1    0.360000       12.0110           0
     81518 WT27     701      MECN     N3       NG1T1   -0.460000       14.0070           0
     81519 WT27     702      MECN     C1       CG331   -0.170000       12.0110           0
     81520 WT27     702      MECN     H11      HGA3     0.090000        1.0080           0
     81521 WT27     702      MECN     H12      HGA3     0.090000        1.0080           0
     81522 WT27     702      MECN     H13      HGA3     0.090000        1.0080           0
     81523 WT27     702      MECN     C2       CG1N1    0.360000       12.0110           0
     81524 WT27     702      MECN     N3       NG1T1   -0.460000       14.0070           0
     81525 WT27     707      MECN     C1       CG331   -0.170000       12.0110           0
     81526 WT27     707      MECN     H11      HGA3     0.090000        1.0080           0
     81527 WT27     707      MECN     H12      HGA3     0.090000        1.0080           0
     81528 WT27     707      MECN     H13      HGA3     0.090000        1.0080           0
     81529 WT27     707      MECN     C2       CG1N1    0.360000       12.0110           0
     81530 WT27     707      MECN     N3       NG1T1   -0.460000       14.0070           0
     81531 WT27     709      MECN     C1       CG331   -0.170000       12.0110           0
     81532 WT27     709      MECN     H11      HGA3     0.090000        1.0080           0
     81533 WT27     709      MECN     H12      HGA3     0.090000        1.0080           0
     81534 WT27     709      MECN     H13      HGA3     0.090000        1.0080           0
     81535 WT27     709      MECN     C2       CG1N1    0.360000       12.0110           0
     81536 WT27     709      MECN     N3       NG1T1   -0.460000       14.0070           0
     81537 WT27     711      MECN     C1       CG331   -0.170000       12.0110           0
     81538 WT27     711      MECN     H11      HGA3     0.090000        1.0080           0
     81539 WT27     711      MECN     H12      HGA3     0.090000        1.0080           0
     81540 WT27     711      MECN     H13      HGA3     0.090000        1.0080           0
     81541 WT27     711      MECN     C2       CG1N1    0.360000       12.0110           0
     81542 WT27     711      MECN     N3       NG1T1   -0.460000       14.0070           0
     81543 WT27     713      MECN     C1       CG331   -0.170000       12.0110           0
     81544 WT27     713      MECN     H11      HGA3     0.090000        1.0080           0
     81545 WT27     713      MECN     H12      HGA3     0.090000        1.0080           0
     81546 WT27     713      MECN     H13      HGA3     0.090000        1.0080           0
     81547 WT27     713      MECN     C2       CG1N1    0.360000       12.0110           0
     81548 WT27     713      MECN     N3       NG1T1   -0.460000       14.0070           0
     81549 WT27     714      MECN     C1       CG331   -0.170000       12.0110           0
     81550 WT27     714      MECN     H11      HGA3     0.090000        1.0080           0
     81551 WT27     714      MECN     H12      HGA3     0.090000        1.0080           0
     81552 WT27     714      MECN     H13      HGA3     0.090000        1.0080           0
     81553 WT27     714      MECN     C2       CG1N1    0.360000       12.0110           0
     81554 WT27     714      MECN     N3       NG1T1   -0.460000       14.0070           0
     81555 WT27     716      MECN     C1       CG331   -0.170000       12.0110           0
     81556 WT27     716      MECN     H11      HGA3     0.090000        1.0080           0
     81557 WT27     716      MECN     H12      HGA3     0.090000        1.0080           0
     81558 WT27     716      MECN     H13      HGA3     0.090000        1.0080           0
     81559 WT27     716      MECN     C2       CG1N1    0.360000       12.0110           0
     81560 WT27     716      MECN     N3       NG1T1   -0.460000       14.0070           0
     81561 WT27     717      MECN     C1       CG331   -0.170000       12.0110           0
     81562 WT27     717      MECN     H11      HGA3     0.090000        1.0080           0
     81563 WT27     717      MECN     H12      HGA3     0.090000        1.0080           0
     81564 WT27     717      MECN     H13      HGA3     0.090000        1.0080           0
     81565 WT27     717      MECN     C2       CG1N1    0.360000       12.0110           0
     81566 WT27     717      MECN     N3       NG1T1   -0.460000       14.0070           0
     81567 WT27     720      MECN     C1       CG331   -0.170000       12.0110           0
     81568 WT27     720      MECN     H11      HGA3     0.090000        1.0080           0
     81569 WT27     720      MECN     H12      HGA3     0.090000        1.0080           0
     81570 WT27     720      MECN     H13      HGA3     0.090000        1.0080           0
     81571 WT27     720      MECN     C2       CG1N1    0.360000       12.0110           0
     81572 WT27     720      MECN     N3       NG1T1   -0.460000       14.0070           0
     81573 WT27     729      MECN     C1       CG331   -0.170000       12.0110           0
     81574 WT27     729      MECN     H11      HGA3     0.090000        1.0080           0
     81575 WT27     729      MECN     H12      HGA3     0.090000        1.0080           0
     81576 WT27     729      MECN     H13      HGA3     0.090000        1.0080           0
     81577 WT27     729      MECN     C2       CG1N1    0.360000       12.0110           0
     81578 WT27     729      MECN     N3       NG1T1   -0.460000       14.0070           0
     81579 WT27     730      MECN     C1       CG331   -0.170000       12.0110           0
     81580 WT27     730      MECN     H11      HGA3     0.090000        1.0080           0
     81581 WT27     730      MECN     H12      HGA3     0.090000        1.0080           0
     81582 WT27     730      MECN     H13      HGA3     0.090000        1.0080           0
     81583 WT27     730      MECN     C2       CG1N1    0.360000       12.0110           0
     81584 WT27     730      MECN     N3       NG1T1   -0.460000       14.0070           0
     81585 WT27     732      MECN     C1       CG331   -0.170000       12.0110           0
     81586 WT27     732      MECN     H11      HGA3     0.090000        1.0080           0
     81587 WT27     732      MECN     H12      HGA3     0.090000        1.0080           0
     81588 WT27     732      MECN     H13      HGA3     0.090000        1.0080           0
     81589 WT27     732      MECN     C2       CG1N1    0.360000       12.0110           0
     81590 WT27     732      MECN     N3       NG1T1   -0.460000       14.0070           0
     81591 WT27     733      MECN     C1       CG331   -0.170000       12.0110           0
     81592 WT27     733      MECN     H11      HGA3     0.090000        1.0080           0
     81593 WT27     733      MECN     H12      HGA3     0.090000        1.0080           0
     81594 WT27     733      MECN     H13      HGA3     0.090000        1.0080           0
     81595 WT27     733      MECN     C2       CG1N1    0.360000       12.0110           0
     81596 WT27     733      MECN     N3       NG1T1   -0.460000       14.0070           0
     81597 WT27     734      MECN     C1       CG331   -0.170000       12.0110           0
     81598 WT27     734      MECN     H11      HGA3     0.090000        1.0080           0
     81599 WT27     734      MECN     H12      HGA3     0.090000        1.0080           0
     81600 WT27     734      MECN     H13      HGA3     0.090000        1.0080           0
     81601 WT27     734      MECN     C2       CG1N1    0.360000       12.0110           0
     81602 WT27     734      MECN     N3       NG1T1   -0.460000       14.0070           0
     81603 WT27     735      MECN     C1       CG331   -0.170000       12.0110           0
     81604 WT27     735      MECN     H11      HGA3     0.090000        1.0080           0
     81605 WT27     735      MECN     H12      HGA3     0.090000        1.0080           0
     81606 WT27     735      MECN     H13      HGA3     0.090000        1.0080           0
     81607 WT27     735      MECN     C2       CG1N1    0.360000       12.0110           0
     81608 WT27     735      MECN     N3       NG1T1   -0.460000       14.0070           0
     81609 WT27     736      MECN     C1       CG331   -0.170000       12.0110           0
     81610 WT27     736      MECN     H11      HGA3     0.090000        1.0080           0
     81611 WT27     736      MECN     H12      HGA3     0.090000        1.0080           0
     81612 WT27     736      MECN     H13      HGA3     0.090000        1.0080           0
     81613 WT27     736      MECN     C2       CG1N1    0.360000       12.0110           0
     81614 WT27     736      MECN     N3       NG1T1   -0.460000       14.0070           0
     81615 WT27     738      MECN     C1       CG331   -0.170000       12.0110           0
     81616 WT27     738      MECN     H11      HGA3     0.090000        1.0080           0
     81617 WT27     738      MECN     H12      HGA3     0.090000        1.0080           0
     81618 WT27     738      MECN     H13      HGA3     0.090000        1.0080           0
     81619 WT27     738      MECN     C2       CG1N1    0.360000       12.0110           0
     81620 WT27     738      MECN     N3       NG1T1   -0.460000       14.0070           0
     81621 WT27     739      MECN     C1       CG331   -0.170000       12.0110           0
     81622 WT27     739      MECN     H11      HGA3     0.090000        1.0080           0
     81623 WT27     739      MECN     H12      HGA3     0.090000        1.0080           0
     81624 WT27     739      MECN     H13      HGA3     0.090000        1.0080           0
     81625 WT27     739      MECN     C2       CG1N1    0.360000       12.0110           0
     81626 WT27     739      MECN     N3       NG1T1   -0.460000       14.0070           0
     81627 WT27     740      MECN     C1       CG331   -0.170000       12.0110           0
     81628 WT27     740      MECN     H11      HGA3     0.090000        1.0080           0
     81629 WT27     740      MECN     H12      HGA3     0.090000        1.0080           0
     81630 WT27     740      MECN     H13      HGA3     0.090000        1.0080           0
     81631 WT27     740      MECN     C2       CG1N1    0.360000       12.0110           0
     81632 WT27     740      MECN     N3       NG1T1   -0.460000       14.0070           0
     81633 WT27     745      MECN     C1       CG331   -0.170000       12.0110           0
     81634 WT27     745      MECN     H11      HGA3     0.090000        1.0080           0
     81635 WT27     745      MECN     H12      HGA3     0.090000        1.0080           0
     81636 WT27     745      MECN     H13      HGA3     0.090000        1.0080           0
     81637 WT27     745      MECN     C2       CG1N1    0.360000       12.0110           0
     81638 WT27     745      MECN     N3       NG1T1   -0.460000       14.0070           0
     81639 WT27     746      MECN     C1       CG331   -0.170000       12.0110           0
     81640 WT27     746      MECN     H11      HGA3     0.090000        1.0080           0
     81641 WT27     746      MECN     H12      HGA3     0.090000        1.0080           0
     81642 WT27     746      MECN     H13      HGA3     0.090000        1.0080           0
     81643 WT27     746      MECN     C2       CG1N1    0.360000       12.0110           0
     81644 WT27     746      MECN     N3       NG1T1   -0.460000       14.0070           0
     81645 WT27     750      MECN     C1       CG331   -0.170000       12.0110           0
     81646 WT27     750      MECN     H11      HGA3     0.090000        1.0080           0
     81647 WT27     750      MECN     H12      HGA3     0.090000        1.0080           0
     81648 WT27     750      MECN     H13      HGA3     0.090000        1.0080           0
     81649 WT27     750      MECN     C2       CG1N1    0.360000       12.0110           0
     81650 WT27     750      MECN     N3       NG1T1   -0.460000       14.0070           0
     81651 WT27     751      MECN     C1       CG331   -0.170000       12.0110           0
     81652 WT27     751      MECN     H11      HGA3     0.090000        1.0080           0
     81653 WT27     751      MECN     H12      HGA3     0.090000        1.0080           0
     81654 WT27     751      MECN     H13      HGA3     0.090000        1.0080           0
     81655 WT27     751      MECN     C2       CG1N1    0.360000       12.0110           0
     81656 WT27     751      MECN     N3       NG1T1   -0.460000       14.0070           0
     81657 WT27     752      MECN     C1       CG331   -0.170000       12.0110           0
     81658 WT27     752      MECN     H11      HGA3     0.090000        1.0080           0
     81659 WT27     752      MECN     H12      HGA3     0.090000        1.0080           0
     81660 WT27     752      MECN     H13      HGA3     0.090000        1.0080           0
     81661 WT27     752      MECN     C2       CG1N1    0.360000       12.0110           0
     81662 WT27     752      MECN     N3       NG1T1   -0.460000       14.0070           0
     81663 WT27     759      MECN     C1       CG331   -0.170000       12.0110           0
     81664 WT27     759      MECN     H11      HGA3     0.090000        1.0080           0
     81665 WT27     759      MECN     H12      HGA3     0.090000        1.0080           0
     81666 WT27     759      MECN     H13      HGA3     0.090000        1.0080           0
     81667 WT27     759      MECN     C2       CG1N1    0.360000       12.0110           0
     81668 WT27     759      MECN     N3       NG1T1   -0.460000       14.0070           0
     81669 WT27     760      MECN     C1       CG331   -0.170000       12.0110           0
     81670 WT27     760      MECN     H11      HGA3     0.090000        1.0080           0
     81671 WT27     760      MECN     H12      HGA3     0.090000        1.0080           0
     81672 WT27     760      MECN     H13      HGA3     0.090000        1.0080           0
     81673 WT27     760      MECN     C2       CG1N1    0.360000       12.0110           0
     81674 WT27     760      MECN     N3       NG1T1   -0.460000       14.0070           0
     81675 WT27     763      MECN     C1       CG331   -0.170000       12.0110           0
     81676 WT27     763      MECN     H11      HGA3     0.090000        1.0080           0
     81677 WT27     763      MECN     H12      HGA3     0.090000        1.0080           0
     81678 WT27     763      MECN     H13      HGA3     0.090000        1.0080           0
     81679 WT27     763      MECN     C2       CG1N1    0.360000       12.0110           0
     81680 WT27     763      MECN     N3       NG1T1   -0.460000       14.0070           0
     81681 WT27     764      MECN     C1       CG331   -0.170000       12.0110           0
     81682 WT27     764      MECN     H11      HGA3     0.090000        1.0080           0
     81683 WT27     764      MECN     H12      HGA3     0.090000        1.0080           0
     81684 WT27     764      MECN     H13      HGA3     0.090000        1.0080           0
     81685 WT27     764      MECN     C2       CG1N1    0.360000       12.0110           0
     81686 WT27     764      MECN     N3       NG1T1   -0.460000       14.0070           0
     81687 WT27     766      MECN     C1       CG331   -0.170000       12.0110           0
     81688 WT27     766      MECN     H11      HGA3     0.090000        1.0080           0
     81689 WT27     766      MECN     H12      HGA3     0.090000        1.0080           0
     81690 WT27     766      MECN     H13      HGA3     0.090000        1.0080           0
     81691 WT27     766      MECN     C2       CG1N1    0.360000       12.0110           0
     81692 WT27     766      MECN     N3       NG1T1   -0.460000       14.0070           0
     81693 WT27     769      MECN     C1       CG331   -0.170000       12.0110           0
     81694 WT27     769      MECN     H11      HGA3     0.090000        1.0080           0
     81695 WT27     769      MECN     H12      HGA3     0.090000        1.0080           0
     81696 WT27     769      MECN     H13      HGA3     0.090000        1.0080           0
     81697 WT27     769      MECN     C2       CG1N1    0.360000       12.0110           0
     81698 WT27     769      MECN     N3       NG1T1   -0.460000       14.0070           0
     81699 WT27     773      MECN     C1       CG331   -0.170000       12.0110           0
     81700 WT27     773      MECN     H11      HGA3     0.090000        1.0080           0
     81701 WT27     773      MECN     H12      HGA3     0.090000        1.0080           0
     81702 WT27     773      MECN     H13      HGA3     0.090000        1.0080           0
     81703 WT27     773      MECN     C2       CG1N1    0.360000       12.0110           0
     81704 WT27     773      MECN     N3       NG1T1   -0.460000       14.0070           0
     81705 WT27     775      MECN     C1       CG331   -0.170000       12.0110           0
     81706 WT27     775      MECN     H11      HGA3     0.090000        1.0080           0
     81707 WT27     775      MECN     H12      HGA3     0.090000        1.0080           0
     81708 WT27     775      MECN     H13      HGA3     0.090000        1.0080           0
     81709 WT27     775      MECN     C2       CG1N1    0.360000       12.0110           0
     81710 WT27     775      MECN     N3       NG1T1   -0.460000       14.0070           0
     81711 WT27     779      MECN     C1       CG331   -0.170000       12.0110           0
     81712 WT27     779      MECN     H11      HGA3     0.090000        1.0080           0
     81713 WT27     779      MECN     H12      HGA3     0.090000        1.0080           0
     81714 WT27     779      MECN     H13      HGA3     0.090000        1.0080           0
     81715 WT27     779      MECN     C2       CG1N1    0.360000       12.0110           0
     81716 WT27     779      MECN     N3       NG1T1   -0.460000       14.0070           0
     81717 WT27     784      MECN     C1       CG331   -0.170000       12.0110           0
     81718 WT27     784      MECN     H11      HGA3     0.090000        1.0080           0
     81719 WT27     784      MECN     H12      HGA3     0.090000        1.0080           0
     81720 WT27     784      MECN     H13      HGA3     0.090000        1.0080           0
     81721 WT27     784      MECN     C2       CG1N1    0.360000       12.0110           0
     81722 WT27     784      MECN     N3       NG1T1   -0.460000       14.0070           0
     81723 WT27     786      MECN     C1       CG331   -0.170000       12.0110           0
     81724 WT27     786      MECN     H11      HGA3     0.090000        1.0080           0
     81725 WT27     786      MECN     H12      HGA3     0.090000        1.0080           0
     81726 WT27     786      MECN     H13      HGA3     0.090000        1.0080           0
     81727 WT27     786      MECN     C2       CG1N1    0.360000       12.0110           0
     81728 WT27     786      MECN     N3       NG1T1   -0.460000       14.0070           0
     81729 WT27     788      MECN     C1       CG331   -0.170000       12.0110           0
     81730 WT27     788      MECN     H11      HGA3     0.090000        1.0080           0
     81731 WT27     788      MECN     H12      HGA3     0.090000        1.0080           0
     81732 WT27     788      MECN     H13      HGA3     0.090000        1.0080           0
     81733 WT27     788      MECN     C2       CG1N1    0.360000       12.0110           0
     81734 WT27     788      MECN     N3       NG1T1   -0.460000       14.0070           0
     81735 WT27     792      MECN     C1       CG331   -0.170000       12.0110           0
     81736 WT27     792      MECN     H11      HGA3     0.090000        1.0080           0
     81737 WT27     792      MECN     H12      HGA3     0.090000        1.0080           0
     81738 WT27     792      MECN     H13      HGA3     0.090000        1.0080           0
     81739 WT27     792      MECN     C2       CG1N1    0.360000       12.0110           0
     81740 WT27     792      MECN     N3       NG1T1   -0.460000       14.0070           0
     81741 WT27     795      MECN     C1       CG331   -0.170000       12.0110           0
     81742 WT27     795      MECN     H11      HGA3     0.090000        1.0080           0
     81743 WT27     795      MECN     H12      HGA3     0.090000        1.0080           0
     81744 WT27     795      MECN     H13      HGA3     0.090000        1.0080           0
     81745 WT27     795      MECN     C2       CG1N1    0.360000       12.0110           0
     81746 WT27     795      MECN     N3       NG1T1   -0.460000       14.0070           0
     81747 WT27     796      MECN     C1       CG331   -0.170000       12.0110           0
     81748 WT27     796      MECN     H11      HGA3     0.090000        1.0080           0
     81749 WT27     796      MECN     H12      HGA3     0.090000        1.0080           0
     81750 WT27     796      MECN     H13      HGA3     0.090000        1.0080           0
     81751 WT27     796      MECN     C2       CG1N1    0.360000       12.0110           0
     81752 WT27     796      MECN     N3       NG1T1   -0.460000       14.0070           0
     81753 WT27     798      MECN     C1       CG331   -0.170000       12.0110           0
     81754 WT27     798      MECN     H11      HGA3     0.090000        1.0080           0
     81755 WT27     798      MECN     H12      HGA3     0.090000        1.0080           0
     81756 WT27     798      MECN     H13      HGA3     0.090000        1.0080           0
     81757 WT27     798      MECN     C2       CG1N1    0.360000       12.0110           0
     81758 WT27     798      MECN     N3       NG1T1   -0.460000       14.0070           0
     81759 WT27     801      MECN     C1       CG331   -0.170000       12.0110           0
     81760 WT27     801      MECN     H11      HGA3     0.090000        1.0080           0
     81761 WT27     801      MECN     H12      HGA3     0.090000        1.0080           0
     81762 WT27     801      MECN     H13      HGA3     0.090000        1.0080           0
     81763 WT27     801      MECN     C2       CG1N1    0.360000       12.0110           0
     81764 WT27     801      MECN     N3       NG1T1   -0.460000       14.0070           0
     81765 WT27     802      MECN     C1       CG331   -0.170000       12.0110           0
     81766 WT27     802      MECN     H11      HGA3     0.090000        1.0080           0
     81767 WT27     802      MECN     H12      HGA3     0.090000        1.0080           0
     81768 WT27     802      MECN     H13      HGA3     0.090000        1.0080           0
     81769 WT27     802      MECN     C2       CG1N1    0.360000       12.0110           0
     81770 WT27     802      MECN     N3       NG1T1   -0.460000       14.0070           0
     81771 WT27     809      MECN     C1       CG331   -0.170000       12.0110           0
     81772 WT27     809      MECN     H11      HGA3     0.090000        1.0080           0
     81773 WT27     809      MECN     H12      HGA3     0.090000        1.0080           0
     81774 WT27     809      MECN     H13      HGA3     0.090000        1.0080           0
     81775 WT27     809      MECN     C2       CG1N1    0.360000       12.0110           0
     81776 WT27     809      MECN     N3       NG1T1   -0.460000       14.0070           0
     81777 WT27     812      MECN     C1       CG331   -0.170000       12.0110           0
     81778 WT27     812      MECN     H11      HGA3     0.090000        1.0080           0
     81779 WT27     812      MECN     H12      HGA3     0.090000        1.0080           0
     81780 WT27     812      MECN     H13      HGA3     0.090000        1.0080           0
     81781 WT27     812      MECN     C2       CG1N1    0.360000       12.0110           0
     81782 WT27     812      MECN     N3       NG1T1   -0.460000       14.0070           0
     81783 WT27     813      MECN     C1       CG331   -0.170000       12.0110           0
     81784 WT27     813      MECN     H11      HGA3     0.090000        1.0080           0
     81785 WT27     813      MECN     H12      HGA3     0.090000        1.0080           0
     81786 WT27     813      MECN     H13      HGA3     0.090000        1.0080           0
     81787 WT27     813      MECN     C2       CG1N1    0.360000       12.0110           0
     81788 WT27     813      MECN     N3       NG1T1   -0.460000       14.0070           0
     81789 WT27     815      MECN     C1       CG331   -0.170000       12.0110           0
     81790 WT27     815      MECN     H11      HGA3     0.090000        1.0080           0
     81791 WT27     815      MECN     H12      HGA3     0.090000        1.0080           0
     81792 WT27     815      MECN     H13      HGA3     0.090000        1.0080           0
     81793 WT27     815      MECN     C2       CG1N1    0.360000       12.0110           0
     81794 WT27     815      MECN     N3       NG1T1   -0.460000       14.0070           0
     81795 WT27     816      MECN     C1       CG331   -0.170000       12.0110           0
     81796 WT27     816      MECN     H11      HGA3     0.090000        1.0080           0
     81797 WT27     816      MECN     H12      HGA3     0.090000        1.0080           0
     81798 WT27     816      MECN     H13      HGA3     0.090000        1.0080           0
     81799 WT27     816      MECN     C2       CG1N1    0.360000       12.0110           0
     81800 WT27     816      MECN     N3       NG1T1   -0.460000       14.0070           0
     81801 WT27     819      MECN     C1       CG331   -0.170000       12.0110           0
     81802 WT27     819      MECN     H11      HGA3     0.090000        1.0080           0
     81803 WT27     819      MECN     H12      HGA3     0.090000        1.0080           0
     81804 WT27     819      MECN     H13      HGA3     0.090000        1.0080           0
     81805 WT27     819      MECN     C2       CG1N1    0.360000       12.0110           0
     81806 WT27     819      MECN     N3       NG1T1   -0.460000       14.0070           0
     81807 WT27     820      MECN     C1       CG331   -0.170000       12.0110           0
     81808 WT27     820      MECN     H11      HGA3     0.090000        1.0080           0
     81809 WT27     820      MECN     H12      HGA3     0.090000        1.0080           0
     81810 WT27     820      MECN     H13      HGA3     0.090000        1.0080           0
     81811 WT27     820      MECN     C2       CG1N1    0.360000       12.0110           0
     81812 WT27     820      MECN     N3       NG1T1   -0.460000       14.0070           0
     81813 WT27     824      MECN     C1       CG331   -0.170000       12.0110           0
     81814 WT27     824      MECN     H11      HGA3     0.090000        1.0080           0
     81815 WT27     824      MECN     H12      HGA3     0.090000        1.0080           0
     81816 WT27     824      MECN     H13      HGA3     0.090000        1.0080           0
     81817 WT27     824      MECN     C2       CG1N1    0.360000       12.0110           0
     81818 WT27     824      MECN     N3       NG1T1   -0.460000       14.0070           0
     81819 WT27     826      MECN     C1       CG331   -0.170000       12.0110           0
     81820 WT27     826      MECN     H11      HGA3     0.090000        1.0080           0
     81821 WT27     826      MECN     H12      HGA3     0.090000        1.0080           0
     81822 WT27     826      MECN     H13      HGA3     0.090000        1.0080           0
     81823 WT27     826      MECN     C2       CG1N1    0.360000       12.0110           0
     81824 WT27     826      MECN     N3       NG1T1   -0.460000       14.0070           0
     81825 WT27     830      MECN     C1       CG331   -0.170000       12.0110           0
     81826 WT27     830      MECN     H11      HGA3     0.090000        1.0080           0
     81827 WT27     830      MECN     H12      HGA3     0.090000        1.0080           0
     81828 WT27     830      MECN     H13      HGA3     0.090000        1.0080           0
     81829 WT27     830      MECN     C2       CG1N1    0.360000       12.0110           0
     81830 WT27     830      MECN     N3       NG1T1   -0.460000       14.0070           0
     81831 WT27     831      MECN     C1       CG331   -0.170000       12.0110           0
     81832 WT27     831      MECN     H11      HGA3     0.090000        1.0080           0
     81833 WT27     831      MECN     H12      HGA3     0.090000        1.0080           0
     81834 WT27     831      MECN     H13      HGA3     0.090000        1.0080           0
     81835 WT27     831      MECN     C2       CG1N1    0.360000       12.0110           0
     81836 WT27     831      MECN     N3       NG1T1   -0.460000       14.0070           0
     81837 WT27     832      MECN     C1       CG331   -0.170000       12.0110           0
     81838 WT27     832      MECN     H11      HGA3     0.090000        1.0080           0
     81839 WT27     832      MECN     H12      HGA3     0.090000        1.0080           0
     81840 WT27     832      MECN     H13      HGA3     0.090000        1.0080           0
     81841 WT27     832      MECN     C2       CG1N1    0.360000       12.0110           0
     81842 WT27     832      MECN     N3       NG1T1   -0.460000       14.0070           0
     81843 WT27     835      MECN     C1       CG331   -0.170000       12.0110           0
     81844 WT27     835      MECN     H11      HGA3     0.090000        1.0080           0
     81845 WT27     835      MECN     H12      HGA3     0.090000        1.0080           0
     81846 WT27     835      MECN     H13      HGA3     0.090000        1.0080           0
     81847 WT27     835      MECN     C2       CG1N1    0.360000       12.0110           0
     81848 WT27     835      MECN     N3       NG1T1   -0.460000       14.0070           0
     81849 WT27     843      MECN     C1       CG331   -0.170000       12.0110           0
     81850 WT27     843      MECN     H11      HGA3     0.090000        1.0080           0
     81851 WT27     843      MECN     H12      HGA3     0.090000        1.0080           0
     81852 WT27     843      MECN     H13      HGA3     0.090000        1.0080           0
     81853 WT27     843      MECN     C2       CG1N1    0.360000       12.0110           0
     81854 WT27     843      MECN     N3       NG1T1   -0.460000       14.0070           0
     81855 WT27     844      MECN     C1       CG331   -0.170000       12.0110           0
     81856 WT27     844      MECN     H11      HGA3     0.090000        1.0080           0
     81857 WT27     844      MECN     H12      HGA3     0.090000        1.0080           0
     81858 WT27     844      MECN     H13      HGA3     0.090000        1.0080           0
     81859 WT27     844      MECN     C2       CG1N1    0.360000       12.0110           0
     81860 WT27     844      MECN     N3       NG1T1   -0.460000       14.0070           0
     81861 WT27     847      MECN     C1       CG331   -0.170000       12.0110           0
     81862 WT27     847      MECN     H11      HGA3     0.090000        1.0080           0
     81863 WT27     847      MECN     H12      HGA3     0.090000        1.0080           0
     81864 WT27     847      MECN     H13      HGA3     0.090000        1.0080           0
     81865 WT27     847      MECN     C2       CG1N1    0.360000       12.0110           0
     81866 WT27     847      MECN     N3       NG1T1   -0.460000       14.0070           0
     81867 WT27     848      MECN     C1       CG331   -0.170000       12.0110           0
     81868 WT27     848      MECN     H11      HGA3     0.090000        1.0080           0
     81869 WT27     848      MECN     H12      HGA3     0.090000        1.0080           0
     81870 WT27     848      MECN     H13      HGA3     0.090000        1.0080           0
     81871 WT27     848      MECN     C2       CG1N1    0.360000       12.0110           0
     81872 WT27     848      MECN     N3       NG1T1   -0.460000       14.0070           0
     81873 WT27     850      MECN     C1       CG331   -0.170000       12.0110           0
     81874 WT27     850      MECN     H11      HGA3     0.090000        1.0080           0
     81875 WT27     850      MECN     H12      HGA3     0.090000        1.0080           0
     81876 WT27     850      MECN     H13      HGA3     0.090000        1.0080           0
     81877 WT27     850      MECN     C2       CG1N1    0.360000       12.0110           0
     81878 WT27     850      MECN     N3       NG1T1   -0.460000       14.0070           0
     81879 WT27     851      MECN     C1       CG331   -0.170000       12.0110           0
     81880 WT27     851      MECN     H11      HGA3     0.090000        1.0080           0
     81881 WT27     851      MECN     H12      HGA3     0.090000        1.0080           0
     81882 WT27     851      MECN     H13      HGA3     0.090000        1.0080           0
     81883 WT27     851      MECN     C2       CG1N1    0.360000       12.0110           0
     81884 WT27     851      MECN     N3       NG1T1   -0.460000       14.0070           0
     81885 WT27     852      MECN     C1       CG331   -0.170000       12.0110           0
     81886 WT27     852      MECN     H11      HGA3     0.090000        1.0080           0
     81887 WT27     852      MECN     H12      HGA3     0.090000        1.0080           0
     81888 WT27     852      MECN     H13      HGA3     0.090000        1.0080           0
     81889 WT27     852      MECN     C2       CG1N1    0.360000       12.0110           0
     81890 WT27     852      MECN     N3       NG1T1   -0.460000       14.0070           0
     81891 WT27     857      MECN     C1       CG331   -0.170000       12.0110           0
     81892 WT27     857      MECN     H11      HGA3     0.090000        1.0080           0
     81893 WT27     857      MECN     H12      HGA3     0.090000        1.0080           0
     81894 WT27     857      MECN     H13      HGA3     0.090000        1.0080           0
     81895 WT27     857      MECN     C2       CG1N1    0.360000       12.0110           0
     81896 WT27     857      MECN     N3       NG1T1   -0.460000       14.0070           0
     81897 WT27     858      MECN     C1       CG331   -0.170000       12.0110           0
     81898 WT27     858      MECN     H11      HGA3     0.090000        1.0080           0
     81899 WT27     858      MECN     H12      HGA3     0.090000        1.0080           0
     81900 WT27     858      MECN     H13      HGA3     0.090000        1.0080           0
     81901 WT27     858      MECN     C2       CG1N1    0.360000       12.0110           0
     81902 WT27     858      MECN     N3       NG1T1   -0.460000       14.0070           0
     81903 WT27     861      MECN     C1       CG331   -0.170000       12.0110           0
     81904 WT27     861      MECN     H11      HGA3     0.090000        1.0080           0
     81905 WT27     861      MECN     H12      HGA3     0.090000        1.0080           0
     81906 WT27     861      MECN     H13      HGA3     0.090000        1.0080           0
     81907 WT27     861      MECN     C2       CG1N1    0.360000       12.0110           0
     81908 WT27     861      MECN     N3       NG1T1   -0.460000       14.0070           0
     81909 WT27     865      MECN     C1       CG331   -0.170000       12.0110           0
     81910 WT27     865      MECN     H11      HGA3     0.090000        1.0080           0
     81911 WT27     865      MECN     H12      HGA3     0.090000        1.0080           0
     81912 WT27     865      MECN     H13      HGA3     0.090000        1.0080           0
     81913 WT27     865      MECN     C2       CG1N1    0.360000       12.0110           0
     81914 WT27     865      MECN     N3       NG1T1   -0.460000       14.0070           0
     81915 WT27     869      MECN     C1       CG331   -0.170000       12.0110           0
     81916 WT27     869      MECN     H11      HGA3     0.090000        1.0080           0
     81917 WT27     869      MECN     H12      HGA3     0.090000        1.0080           0
     81918 WT27     869      MECN     H13      HGA3     0.090000        1.0080           0
     81919 WT27     869      MECN     C2       CG1N1    0.360000       12.0110           0
     81920 WT27     869      MECN     N3       NG1T1   -0.460000       14.0070           0
     81921 WT27     872      MECN     C1       CG331   -0.170000       12.0110           0
     81922 WT27     872      MECN     H11      HGA3     0.090000        1.0080           0
     81923 WT27     872      MECN     H12      HGA3     0.090000        1.0080           0
     81924 WT27     872      MECN     H13      HGA3     0.090000        1.0080           0
     81925 WT27     872      MECN     C2       CG1N1    0.360000       12.0110           0
     81926 WT27     872      MECN     N3       NG1T1   -0.460000       14.0070           0
     81927 WT27     873      MECN     C1       CG331   -0.170000       12.0110           0
     81928 WT27     873      MECN     H11      HGA3     0.090000        1.0080           0
     81929 WT27     873      MECN     H12      HGA3     0.090000        1.0080           0
     81930 WT27     873      MECN     H13      HGA3     0.090000        1.0080           0
     81931 WT27     873      MECN     C2       CG1N1    0.360000       12.0110           0
     81932 WT27     873      MECN     N3       NG1T1   -0.460000       14.0070           0
     81933 WT27     874      MECN     C1       CG331   -0.170000       12.0110           0
     81934 WT27     874      MECN     H11      HGA3     0.090000        1.0080           0
     81935 WT27     874      MECN     H12      HGA3     0.090000        1.0080           0
     81936 WT27     874      MECN     H13      HGA3     0.090000        1.0080           0
     81937 WT27     874      MECN     C2       CG1N1    0.360000       12.0110           0
     81938 WT27     874      MECN     N3       NG1T1   -0.460000       14.0070           0
     81939 WT27     876      MECN     C1       CG331   -0.170000       12.0110           0
     81940 WT27     876      MECN     H11      HGA3     0.090000        1.0080           0
     81941 WT27     876      MECN     H12      HGA3     0.090000        1.0080           0
     81942 WT27     876      MECN     H13      HGA3     0.090000        1.0080           0
     81943 WT27     876      MECN     C2       CG1N1    0.360000       12.0110           0
     81944 WT27     876      MECN     N3       NG1T1   -0.460000       14.0070           0
     81945 WT27     877      MECN     C1       CG331   -0.170000       12.0110           0
     81946 WT27     877      MECN     H11      HGA3     0.090000        1.0080           0
     81947 WT27     877      MECN     H12      HGA3     0.090000        1.0080           0
     81948 WT27     877      MECN     H13      HGA3     0.090000        1.0080           0
     81949 WT27     877      MECN     C2       CG1N1    0.360000       12.0110           0
     81950 WT27     877      MECN     N3       NG1T1   -0.460000       14.0070           0
     81951 WT27     878      MECN     C1       CG331   -0.170000       12.0110           0
     81952 WT27     878      MECN     H11      HGA3     0.090000        1.0080           0
     81953 WT27     878      MECN     H12      HGA3     0.090000        1.0080           0
     81954 WT27     878      MECN     H13      HGA3     0.090000        1.0080           0
     81955 WT27     878      MECN     C2       CG1N1    0.360000       12.0110           0
     81956 WT27     878      MECN     N3       NG1T1   -0.460000       14.0070           0
     81957 WT27     880      MECN     C1       CG331   -0.170000       12.0110           0
     81958 WT27     880      MECN     H11      HGA3     0.090000        1.0080           0
     81959 WT27     880      MECN     H12      HGA3     0.090000        1.0080           0
     81960 WT27     880      MECN     H13      HGA3     0.090000        1.0080           0
     81961 WT27     880      MECN     C2       CG1N1    0.360000       12.0110           0
     81962 WT27     880      MECN     N3       NG1T1   -0.460000       14.0070           0
     81963 WT27     881      MECN     C1       CG331   -0.170000       12.0110           0
     81964 WT27     881      MECN     H11      HGA3     0.090000        1.0080           0
     81965 WT27     881      MECN     H12      HGA3     0.090000        1.0080           0
     81966 WT27     881      MECN     H13      HGA3     0.090000        1.0080           0
     81967 WT27     881      MECN     C2       CG1N1    0.360000       12.0110           0
     81968 WT27     881      MECN     N3       NG1T1   -0.460000       14.0070           0
     81969 WT27     885      MECN     C1       CG331   -0.170000       12.0110           0
     81970 WT27     885      MECN     H11      HGA3     0.090000        1.0080           0
     81971 WT27     885      MECN     H12      HGA3     0.090000        1.0080           0
     81972 WT27     885      MECN     H13      HGA3     0.090000        1.0080           0
     81973 WT27     885      MECN     C2       CG1N1    0.360000       12.0110           0
     81974 WT27     885      MECN     N3       NG1T1   -0.460000       14.0070           0
     81975 WT27     886      MECN     C1       CG331   -0.170000       12.0110           0
     81976 WT27     886      MECN     H11      HGA3     0.090000        1.0080           0
     81977 WT27     886      MECN     H12      HGA3     0.090000        1.0080           0
     81978 WT27     886      MECN     H13      HGA3     0.090000        1.0080           0
     81979 WT27     886      MECN     C2       CG1N1    0.360000       12.0110           0
     81980 WT27     886      MECN     N3       NG1T1   -0.460000       14.0070           0
     81981 WT27     901      MECN     C1       CG331   -0.170000       12.0110           0
     81982 WT27     901      MECN     H11      HGA3     0.090000        1.0080           0
     81983 WT27     901      MECN     H12      HGA3     0.090000        1.0080           0
     81984 WT27     901      MECN     H13      HGA3     0.090000        1.0080           0
     81985 WT27     901      MECN     C2       CG1N1    0.360000       12.0110           0
     81986 WT27     901      MECN     N3       NG1T1   -0.460000       14.0070           0
     81987 WT27     902      MECN     C1       CG331   -0.170000       12.0110           0
     81988 WT27     902      MECN     H11      HGA3     0.090000        1.0080           0
     81989 WT27     902      MECN     H12      HGA3     0.090000        1.0080           0
     81990 WT27     902      MECN     H13      HGA3     0.090000        1.0080           0
     81991 WT27     902      MECN     C2       CG1N1    0.360000       12.0110           0
     81992 WT27     902      MECN     N3       NG1T1   -0.460000       14.0070           0
     81993 WT27     903      MECN     C1       CG331   -0.170000       12.0110           0
     81994 WT27     903      MECN     H11      HGA3     0.090000        1.0080           0
     81995 WT27     903      MECN     H12      HGA3     0.090000        1.0080           0
     81996 WT27     903      MECN     H13      HGA3     0.090000        1.0080           0
     81997 WT27     903      MECN     C2       CG1N1    0.360000       12.0110           0
     81998 WT27     903      MECN     N3       NG1T1   -0.460000       14.0070           0
     81999 WT27     909      MECN     C1       CG331   -0.170000       12.0110           0
     82000 WT27     909      MECN     H11      HGA3     0.090000        1.0080           0
     82001 WT27     909      MECN     H12      HGA3     0.090000        1.0080           0
     82002 WT27     909      MECN     H13      HGA3     0.090000        1.0080           0
     82003 WT27     909      MECN     C2       CG1N1    0.360000       12.0110           0
     82004 WT27     909      MECN     N3       NG1T1   -0.460000       14.0070           0
     82005 WT27     911      MECN     C1       CG331   -0.170000       12.0110           0
     82006 WT27     911      MECN     H11      HGA3     0.090000        1.0080           0
     82007 WT27     911      MECN     H12      HGA3     0.090000        1.0080           0
     82008 WT27     911      MECN     H13      HGA3     0.090000        1.0080           0
     82009 WT27     911      MECN     C2       CG1N1    0.360000       12.0110           0
     82010 WT27     911      MECN     N3       NG1T1   -0.460000       14.0070           0
     82011 WT27     912      MECN     C1       CG331   -0.170000       12.0110           0
     82012 WT27     912      MECN     H11      HGA3     0.090000        1.0080           0
     82013 WT27     912      MECN     H12      HGA3     0.090000        1.0080           0
     82014 WT27     912      MECN     H13      HGA3     0.090000        1.0080           0
     82015 WT27     912      MECN     C2       CG1N1    0.360000       12.0110           0
     82016 WT27     912      MECN     N3       NG1T1   -0.460000       14.0070           0
     82017 WT27     913      MECN     C1       CG331   -0.170000       12.0110           0
     82018 WT27     913      MECN     H11      HGA3     0.090000        1.0080           0
     82019 WT27     913      MECN     H12      HGA3     0.090000        1.0080           0
     82020 WT27     913      MECN     H13      HGA3     0.090000        1.0080           0
     82021 WT27     913      MECN     C2       CG1N1    0.360000       12.0110           0
     82022 WT27     913      MECN     N3       NG1T1   -0.460000       14.0070           0
     82023 WT27     917      MECN     C1       CG331   -0.170000       12.0110           0
     82024 WT27     917      MECN     H11      HGA3     0.090000        1.0080           0
     82025 WT27     917      MECN     H12      HGA3     0.090000        1.0080           0
     82026 WT27     917      MECN     H13      HGA3     0.090000        1.0080           0
     82027 WT27     917      MECN     C2       CG1N1    0.360000       12.0110           0
     82028 WT27     917      MECN     N3       NG1T1   -0.460000       14.0070           0
     82029 WT27     921      MECN     C1       CG331   -0.170000       12.0110           0
     82030 WT27     921      MECN     H11      HGA3     0.090000        1.0080           0
     82031 WT27     921      MECN     H12      HGA3     0.090000        1.0080           0
     82032 WT27     921      MECN     H13      HGA3     0.090000        1.0080           0
     82033 WT27     921      MECN     C2       CG1N1    0.360000       12.0110           0
     82034 WT27     921      MECN     N3       NG1T1   -0.460000       14.0070           0
     82035 WT27     923      MECN     C1       CG331   -0.170000       12.0110           0
     82036 WT27     923      MECN     H11      HGA3     0.090000        1.0080           0
     82037 WT27     923      MECN     H12      HGA3     0.090000        1.0080           0
     82038 WT27     923      MECN     H13      HGA3     0.090000        1.0080           0
     82039 WT27     923      MECN     C2       CG1N1    0.360000       12.0110           0
     82040 WT27     923      MECN     N3       NG1T1   -0.460000       14.0070           0
     82041 WT27     927      MECN     C1       CG331   -0.170000       12.0110           0
     82042 WT27     927      MECN     H11      HGA3     0.090000        1.0080           0
     82043 WT27     927      MECN     H12      HGA3     0.090000        1.0080           0
     82044 WT27     927      MECN     H13      HGA3     0.090000        1.0080           0
     82045 WT27     927      MECN     C2       CG1N1    0.360000       12.0110           0
     82046 WT27     927      MECN     N3       NG1T1   -0.460000       14.0070           0
     82047 WT27     928      MECN     C1       CG331   -0.170000       12.0110           0
     82048 WT27     928      MECN     H11      HGA3     0.090000        1.0080           0
     82049 WT27     928      MECN     H12      HGA3     0.090000        1.0080           0
     82050 WT27     928      MECN     H13      HGA3     0.090000        1.0080           0
     82051 WT27     928      MECN     C2       CG1N1    0.360000       12.0110           0
     82052 WT27     928      MECN     N3       NG1T1   -0.460000       14.0070           0
     82053 WT27     931      MECN     C1       CG331   -0.170000       12.0110           0
     82054 WT27     931      MECN     H11      HGA3     0.090000        1.0080           0
     82055 WT27     931      MECN     H12      HGA3     0.090000        1.0080           0
     82056 WT27     931      MECN     H13      HGA3     0.090000        1.0080           0
     82057 WT27     931      MECN     C2       CG1N1    0.360000       12.0110           0
     82058 WT27     931      MECN     N3       NG1T1   -0.460000       14.0070           0
     82059 WT27     932      MECN     C1       CG331   -0.170000       12.0110           0
     82060 WT27     932      MECN     H11      HGA3     0.090000        1.0080           0
     82061 WT27     932      MECN     H12      HGA3     0.090000        1.0080           0
     82062 WT27     932      MECN     H13      HGA3     0.090000        1.0080           0
     82063 WT27     932      MECN     C2       CG1N1    0.360000       12.0110           0
     82064 WT27     932      MECN     N3       NG1T1   -0.460000       14.0070           0
     82065 WT27     936      MECN     C1       CG331   -0.170000       12.0110           0
     82066 WT27     936      MECN     H11      HGA3     0.090000        1.0080           0
     82067 WT27     936      MECN     H12      HGA3     0.090000        1.0080           0
     82068 WT27     936      MECN     H13      HGA3     0.090000        1.0080           0
     82069 WT27     936      MECN     C2       CG1N1    0.360000       12.0110           0
     82070 WT27     936      MECN     N3       NG1T1   -0.460000       14.0070           0
     82071 WT27     937      MECN     C1       CG331   -0.170000       12.0110           0
     82072 WT27     937      MECN     H11      HGA3     0.090000        1.0080           0
     82073 WT27     937      MECN     H12      HGA3     0.090000        1.0080           0
     82074 WT27     937      MECN     H13      HGA3     0.090000        1.0080           0
     82075 WT27     937      MECN     C2       CG1N1    0.360000       12.0110           0
     82076 WT27     937      MECN     N3       NG1T1   -0.460000       14.0070           0
     82077 WT27     940      MECN     C1       CG331   -0.170000       12.0110           0
     82078 WT27     940      MECN     H11      HGA3     0.090000        1.0080           0
     82079 WT27     940      MECN     H12      HGA3     0.090000        1.0080           0
     82080 WT27     940      MECN     H13      HGA3     0.090000        1.0080           0
     82081 WT27     940      MECN     C2       CG1N1    0.360000       12.0110           0
     82082 WT27     940      MECN     N3       NG1T1   -0.460000       14.0070           0
     82083 WT27     942      MECN     C1       CG331   -0.170000       12.0110           0
     82084 WT27     942      MECN     H11      HGA3     0.090000        1.0080           0
     82085 WT27     942      MECN     H12      HGA3     0.090000        1.0080           0
     82086 WT27     942      MECN     H13      HGA3     0.090000        1.0080           0
     82087 WT27     942      MECN     C2       CG1N1    0.360000       12.0110           0
     82088 WT27     942      MECN     N3       NG1T1   -0.460000       14.0070           0
     82089 WT27     943      MECN     C1       CG331   -0.170000       12.0110           0
     82090 WT27     943      MECN     H11      HGA3     0.090000        1.0080           0
     82091 WT27     943      MECN     H12      HGA3     0.090000        1.0080           0
     82092 WT27     943      MECN     H13      HGA3     0.090000        1.0080           0
     82093 WT27     943      MECN     C2       CG1N1    0.360000       12.0110           0
     82094 WT27     943      MECN     N3       NG1T1   -0.460000       14.0070           0
     82095 WT27     946      MECN     C1       CG331   -0.170000       12.0110           0
     82096 WT27     946      MECN     H11      HGA3     0.090000        1.0080           0
     82097 WT27     946      MECN     H12      HGA3     0.090000        1.0080           0
     82098 WT27     946      MECN     H13      HGA3     0.090000        1.0080           0
     82099 WT27     946      MECN     C2       CG1N1    0.360000       12.0110           0
     82100 WT27     946      MECN     N3       NG1T1   -0.460000       14.0070           0
     82101 WT27     949      MECN     C1       CG331   -0.170000       12.0110           0
     82102 WT27     949      MECN     H11      HGA3     0.090000        1.0080           0
     82103 WT27     949      MECN     H12      HGA3     0.090000        1.0080           0
     82104 WT27     949      MECN     H13      HGA3     0.090000        1.0080           0
     82105 WT27     949      MECN     C2       CG1N1    0.360000       12.0110           0
     82106 WT27     949      MECN     N3       NG1T1   -0.460000       14.0070           0
     82107 WT27     952      MECN     C1       CG331   -0.170000       12.0110           0
     82108 WT27     952      MECN     H11      HGA3     0.090000        1.0080           0
     82109 WT27     952      MECN     H12      HGA3     0.090000        1.0080           0
     82110 WT27     952      MECN     H13      HGA3     0.090000        1.0080           0
     82111 WT27     952      MECN     C2       CG1N1    0.360000       12.0110           0
     82112 WT27     952      MECN     N3       NG1T1   -0.460000       14.0070           0
     82113 WT27     954      MECN     C1       CG331   -0.170000       12.0110           0
     82114 WT27     954      MECN     H11      HGA3     0.090000        1.0080           0
     82115 WT27     954      MECN     H12      HGA3     0.090000        1.0080           0
     82116 WT27     954      MECN     H13      HGA3     0.090000        1.0080           0
     82117 WT27     954      MECN     C2       CG1N1    0.360000       12.0110           0
     82118 WT27     954      MECN     N3       NG1T1   -0.460000       14.0070           0
     82119 WT27     955      MECN     C1       CG331   -0.170000       12.0110           0
     82120 WT27     955      MECN     H11      HGA3     0.090000        1.0080           0
     82121 WT27     955      MECN     H12      HGA3     0.090000        1.0080           0
     82122 WT27     955      MECN     H13      HGA3     0.090000        1.0080           0
     82123 WT27     955      MECN     C2       CG1N1    0.360000       12.0110           0
     82124 WT27     955      MECN     N3       NG1T1   -0.460000       14.0070           0
     82125 WT27     962      MECN     C1       CG331   -0.170000       12.0110           0
     82126 WT27     962      MECN     H11      HGA3     0.090000        1.0080           0
     82127 WT27     962      MECN     H12      HGA3     0.090000        1.0080           0
     82128 WT27     962      MECN     H13      HGA3     0.090000        1.0080           0
     82129 WT27     962      MECN     C2       CG1N1    0.360000       12.0110           0
     82130 WT27     962      MECN     N3       NG1T1   -0.460000       14.0070           0
     82131 WT27     965      MECN     C1       CG331   -0.170000       12.0110           0
     82132 WT27     965      MECN     H11      HGA3     0.090000        1.0080           0
     82133 WT27     965      MECN     H12      HGA3     0.090000        1.0080           0
     82134 WT27     965      MECN     H13      HGA3     0.090000        1.0080           0
     82135 WT27     965      MECN     C2       CG1N1    0.360000       12.0110           0
     82136 WT27     965      MECN     N3       NG1T1   -0.460000       14.0070           0
     82137 WT27     966      MECN     C1       CG331   -0.170000       12.0110           0
     82138 WT27     966      MECN     H11      HGA3     0.090000        1.0080           0
     82139 WT27     966      MECN     H12      HGA3     0.090000        1.0080           0
     82140 WT27     966      MECN     H13      HGA3     0.090000        1.0080           0
     82141 WT27     966      MECN     C2       CG1N1    0.360000       12.0110           0
     82142 WT27     966      MECN     N3       NG1T1   -0.460000       14.0070           0
     82143 WT27     969      MECN     C1       CG331   -0.170000       12.0110           0
     82144 WT27     969      MECN     H11      HGA3     0.090000        1.0080           0
     82145 WT27     969      MECN     H12      HGA3     0.090000        1.0080           0
     82146 WT27     969      MECN     H13      HGA3     0.090000        1.0080           0
     82147 WT27     969      MECN     C2       CG1N1    0.360000       12.0110           0
     82148 WT27     969      MECN     N3       NG1T1   -0.460000       14.0070           0
     82149 WT27     970      MECN     C1       CG331   -0.170000       12.0110           0
     82150 WT27     970      MECN     H11      HGA3     0.090000        1.0080           0
     82151 WT27     970      MECN     H12      HGA3     0.090000        1.0080           0
     82152 WT27     970      MECN     H13      HGA3     0.090000        1.0080           0
     82153 WT27     970      MECN     C2       CG1N1    0.360000       12.0110           0
     82154 WT27     970      MECN     N3       NG1T1   -0.460000       14.0070           0
     82155 WT27     971      MECN     C1       CG331   -0.170000       12.0110           0
     82156 WT27     971      MECN     H11      HGA3     0.090000        1.0080           0
     82157 WT27     971      MECN     H12      HGA3     0.090000        1.0080           0
     82158 WT27     971      MECN     H13      HGA3     0.090000        1.0080           0
     82159 WT27     971      MECN     C2       CG1N1    0.360000       12.0110           0
     82160 WT27     971      MECN     N3       NG1T1   -0.460000       14.0070           0
     82161 WT27     972      MECN     C1       CG331   -0.170000       12.0110           0
     82162 WT27     972      MECN     H11      HGA3     0.090000        1.0080           0
     82163 WT27     972      MECN     H12      HGA3     0.090000        1.0080           0
     82164 WT27     972      MECN     H13      HGA3     0.090000        1.0080           0
     82165 WT27     972      MECN     C2       CG1N1    0.360000       12.0110           0
     82166 WT27     972      MECN     N3       NG1T1   -0.460000       14.0070           0
     82167 WT27     979      MECN     C1       CG331   -0.170000       12.0110           0
     82168 WT27     979      MECN     H11      HGA3     0.090000        1.0080           0
     82169 WT27     979      MECN     H12      HGA3     0.090000        1.0080           0
     82170 WT27     979      MECN     H13      HGA3     0.090000        1.0080           0
     82171 WT27     979      MECN     C2       CG1N1    0.360000       12.0110           0
     82172 WT27     979      MECN     N3       NG1T1   -0.460000       14.0070           0
     82173 WT27     980      MECN     C1       CG331   -0.170000       12.0110           0
     82174 WT27     980      MECN     H11      HGA3     0.090000        1.0080           0
     82175 WT27     980      MECN     H12      HGA3     0.090000        1.0080           0
     82176 WT27     980      MECN     H13      HGA3     0.090000        1.0080           0
     82177 WT27     980      MECN     C2       CG1N1    0.360000       12.0110           0
     82178 WT27     980      MECN     N3       NG1T1   -0.460000       14.0070           0
     82179 WT27     981      MECN     C1       CG331   -0.170000       12.0110           0
     82180 WT27     981      MECN     H11      HGA3     0.090000        1.0080           0
     82181 WT27     981      MECN     H12      HGA3     0.090000        1.0080           0
     82182 WT27     981      MECN     H13      HGA3     0.090000        1.0080           0
     82183 WT27     981      MECN     C2       CG1N1    0.360000       12.0110           0
     82184 WT27     981      MECN     N3       NG1T1   -0.460000       14.0070           0
     82185 WT27     984      MECN     C1       CG331   -0.170000       12.0110           0
     82186 WT27     984      MECN     H11      HGA3     0.090000        1.0080           0
     82187 WT27     984      MECN     H12      HGA3     0.090000        1.0080           0
     82188 WT27     984      MECN     H13      HGA3     0.090000        1.0080           0
     82189 WT27     984      MECN     C2       CG1N1    0.360000       12.0110           0
     82190 WT27     984      MECN     N3       NG1T1   -0.460000       14.0070           0
     82191 WT27     993      MECN     C1       CG331   -0.170000       12.0110           0
     82192 WT27     993      MECN     H11      HGA3     0.090000        1.0080           0
     82193 WT27     993      MECN     H12      HGA3     0.090000        1.0080           0
     82194 WT27     993      MECN     H13      HGA3     0.090000        1.0080           0
     82195 WT27     993      MECN     C2       CG1N1    0.360000       12.0110           0
     82196 WT27     993      MECN     N3       NG1T1   -0.460000       14.0070           0
     82197 WT27     996      MECN     C1       CG331   -0.170000       12.0110           0
     82198 WT27     996      MECN     H11      HGA3     0.090000        1.0080           0
     82199 WT27     996      MECN     H12      HGA3     0.090000        1.0080           0
     82200 WT27     996      MECN     H13      HGA3     0.090000        1.0080           0
     82201 WT27     996      MECN     C2       CG1N1    0.360000       12.0110           0
     82202 WT27     996      MECN     N3       NG1T1   -0.460000       14.0070           0
     82203 WT27     998      MECN     C1       CG331   -0.170000       12.0110           0
     82204 WT27     998      MECN     H11      HGA3     0.090000        1.0080           0
     82205 WT27     998      MECN     H12      HGA3     0.090000        1.0080           0
     82206 WT27     998      MECN     H13      HGA3     0.090000        1.0080           0
     82207 WT27     998      MECN     C2       CG1N1    0.360000       12.0110           0
     82208 WT27     998      MECN     N3       NG1T1   -0.460000       14.0070           0
     82209 WT27     1004     MECN     C1       CG331   -0.170000       12.0110           0
     82210 WT27     1004     MECN     H11      HGA3     0.090000        1.0080           0
     82211 WT27     1004     MECN     H12      HGA3     0.090000        1.0080           0
     82212 WT27     1004     MECN     H13      HGA3     0.090000        1.0080           0
     82213 WT27     1004     MECN     C2       CG1N1    0.360000       12.0110           0
     82214 WT27     1004     MECN     N3       NG1T1   -0.460000       14.0070           0
     82215 WT27     1007     MECN     C1       CG331   -0.170000       12.0110           0
     82216 WT27     1007     MECN     H11      HGA3     0.090000        1.0080           0
     82217 WT27     1007     MECN     H12      HGA3     0.090000        1.0080           0
     82218 WT27     1007     MECN     H13      HGA3     0.090000        1.0080           0
     82219 WT27     1007     MECN     C2       CG1N1    0.360000       12.0110           0
     82220 WT27     1007     MECN     N3       NG1T1   -0.460000       14.0070           0
     82221 WT27     1009     MECN     C1       CG331   -0.170000       12.0110           0
     82222 WT27     1009     MECN     H11      HGA3     0.090000        1.0080           0
     82223 WT27     1009     MECN     H12      HGA3     0.090000        1.0080           0
     82224 WT27     1009     MECN     H13      HGA3     0.090000        1.0080           0
     82225 WT27     1009     MECN     C2       CG1N1    0.360000       12.0110           0
     82226 WT27     1009     MECN     N3       NG1T1   -0.460000       14.0070           0
     82227 WT27     1011     MECN     C1       CG331   -0.170000       12.0110           0
     82228 WT27     1011     MECN     H11      HGA3     0.090000        1.0080           0
     82229 WT27     1011     MECN     H12      HGA3     0.090000        1.0080           0
     82230 WT27     1011     MECN     H13      HGA3     0.090000        1.0080           0
     82231 WT27     1011     MECN     C2       CG1N1    0.360000       12.0110           0
     82232 WT27     1011     MECN     N3       NG1T1   -0.460000       14.0070           0
     82233 WT27     1013     MECN     C1       CG331   -0.170000       12.0110           0
     82234 WT27     1013     MECN     H11      HGA3     0.090000        1.0080           0
     82235 WT27     1013     MECN     H12      HGA3     0.090000        1.0080           0
     82236 WT27     1013     MECN     H13      HGA3     0.090000        1.0080           0
     82237 WT27     1013     MECN     C2       CG1N1    0.360000       12.0110           0
     82238 WT27     1013     MECN     N3       NG1T1   -0.460000       14.0070           0
     82239 WT27     1014     MECN     C1       CG331   -0.170000       12.0110           0
     82240 WT27     1014     MECN     H11      HGA3     0.090000        1.0080           0
     82241 WT27     1014     MECN     H12      HGA3     0.090000        1.0080           0
     82242 WT27     1014     MECN     H13      HGA3     0.090000        1.0080           0
     82243 WT27     1014     MECN     C2       CG1N1    0.360000       12.0110           0
     82244 WT27     1014     MECN     N3       NG1T1   -0.460000       14.0070           0
     82245 WT27     1018     MECN     C1       CG331   -0.170000       12.0110           0
     82246 WT27     1018     MECN     H11      HGA3     0.090000        1.0080           0
     82247 WT27     1018     MECN     H12      HGA3     0.090000        1.0080           0
     82248 WT27     1018     MECN     H13      HGA3     0.090000        1.0080           0
     82249 WT27     1018     MECN     C2       CG1N1    0.360000       12.0110           0
     82250 WT27     1018     MECN     N3       NG1T1   -0.460000       14.0070           0
     82251 WT27     1028     MECN     C1       CG331   -0.170000       12.0110           0
     82252 WT27     1028     MECN     H11      HGA3     0.090000        1.0080           0
     82253 WT27     1028     MECN     H12      HGA3     0.090000        1.0080           0
     82254 WT27     1028     MECN     H13      HGA3     0.090000        1.0080           0
     82255 WT27     1028     MECN     C2       CG1N1    0.360000       12.0110           0
     82256 WT27     1028     MECN     N3       NG1T1   -0.460000       14.0070           0
     82257 WT27     1031     MECN     C1       CG331   -0.170000       12.0110           0
     82258 WT27     1031     MECN     H11      HGA3     0.090000        1.0080           0
     82259 WT27     1031     MECN     H12      HGA3     0.090000        1.0080           0
     82260 WT27     1031     MECN     H13      HGA3     0.090000        1.0080           0
     82261 WT27     1031     MECN     C2       CG1N1    0.360000       12.0110           0
     82262 WT27     1031     MECN     N3       NG1T1   -0.460000       14.0070           0
     82263 WT27     1032     MECN     C1       CG331   -0.170000       12.0110           0
     82264 WT27     1032     MECN     H11      HGA3     0.090000        1.0080           0
     82265 WT27     1032     MECN     H12      HGA3     0.090000        1.0080           0
     82266 WT27     1032     MECN     H13      HGA3     0.090000        1.0080           0
     82267 WT27     1032     MECN     C2       CG1N1    0.360000       12.0110           0
     82268 WT27     1032     MECN     N3       NG1T1   -0.460000       14.0070           0
     82269 WT27     1035     MECN     C1       CG331   -0.170000       12.0110           0
     82270 WT27     1035     MECN     H11      HGA3     0.090000        1.0080           0
     82271 WT27     1035     MECN     H12      HGA3     0.090000        1.0080           0
     82272 WT27     1035     MECN     H13      HGA3     0.090000        1.0080           0
     82273 WT27     1035     MECN     C2       CG1N1    0.360000       12.0110           0
     82274 WT27     1035     MECN     N3       NG1T1   -0.460000       14.0070           0
     82275 WT27     1036     MECN     C1       CG331   -0.170000       12.0110           0
     82276 WT27     1036     MECN     H11      HGA3     0.090000        1.0080           0
     82277 WT27     1036     MECN     H12      HGA3     0.090000        1.0080           0
     82278 WT27     1036     MECN     H13      HGA3     0.090000        1.0080           0
     82279 WT27     1036     MECN     C2       CG1N1    0.360000       12.0110           0
     82280 WT27     1036     MECN     N3       NG1T1   -0.460000       14.0070           0
     82281 WT27     1041     MECN     C1       CG331   -0.170000       12.0110           0
     82282 WT27     1041     MECN     H11      HGA3     0.090000        1.0080           0
     82283 WT27     1041     MECN     H12      HGA3     0.090000        1.0080           0
     82284 WT27     1041     MECN     H13      HGA3     0.090000        1.0080           0
     82285 WT27     1041     MECN     C2       CG1N1    0.360000       12.0110           0
     82286 WT27     1041     MECN     N3       NG1T1   -0.460000       14.0070           0
     82287 WT27     1042     MECN     C1       CG331   -0.170000       12.0110           0
     82288 WT27     1042     MECN     H11      HGA3     0.090000        1.0080           0
     82289 WT27     1042     MECN     H12      HGA3     0.090000        1.0080           0
     82290 WT27     1042     MECN     H13      HGA3     0.090000        1.0080           0
     82291 WT27     1042     MECN     C2       CG1N1    0.360000       12.0110           0
     82292 WT27     1042     MECN     N3       NG1T1   -0.460000       14.0070           0
     82293 WT27     1044     MECN     C1       CG331   -0.170000       12.0110           0
     82294 WT27     1044     MECN     H11      HGA3     0.090000        1.0080           0
     82295 WT27     1044     MECN     H12      HGA3     0.090000        1.0080           0
     82296 WT27     1044     MECN     H13      HGA3     0.090000        1.0080           0
     82297 WT27     1044     MECN     C2       CG1N1    0.360000       12.0110           0
     82298 WT27     1044     MECN     N3       NG1T1   -0.460000       14.0070           0
     82299 WT27     1049     MECN     C1       CG331   -0.170000       12.0110           0
     82300 WT27     1049     MECN     H11      HGA3     0.090000        1.0080           0
     82301 WT27     1049     MECN     H12      HGA3     0.090000        1.0080           0
     82302 WT27     1049     MECN     H13      HGA3     0.090000        1.0080           0
     82303 WT27     1049     MECN     C2       CG1N1    0.360000       12.0110           0
     82304 WT27     1049     MECN     N3       NG1T1   -0.460000       14.0070           0
     82305 WT27     1056     MECN     C1       CG331   -0.170000       12.0110           0
     82306 WT27     1056     MECN     H11      HGA3     0.090000        1.0080           0
     82307 WT27     1056     MECN     H12      HGA3     0.090000        1.0080           0
     82308 WT27     1056     MECN     H13      HGA3     0.090000        1.0080           0
     82309 WT27     1056     MECN     C2       CG1N1    0.360000       12.0110           0
     82310 WT27     1056     MECN     N3       NG1T1   -0.460000       14.0070           0
     82311 WT27     1059     MECN     C1       CG331   -0.170000       12.0110           0
     82312 WT27     1059     MECN     H11      HGA3     0.090000        1.0080           0
     82313 WT27     1059     MECN     H12      HGA3     0.090000        1.0080           0
     82314 WT27     1059     MECN     H13      HGA3     0.090000        1.0080           0
     82315 WT27     1059     MECN     C2       CG1N1    0.360000       12.0110           0
     82316 WT27     1059     MECN     N3       NG1T1   -0.460000       14.0070           0
     82317 WT27     1064     MECN     C1       CG331   -0.170000       12.0110           0
     82318 WT27     1064     MECN     H11      HGA3     0.090000        1.0080           0
     82319 WT27     1064     MECN     H12      HGA3     0.090000        1.0080           0
     82320 WT27     1064     MECN     H13      HGA3     0.090000        1.0080           0
     82321 WT27     1064     MECN     C2       CG1N1    0.360000       12.0110           0
     82322 WT27     1064     MECN     N3       NG1T1   -0.460000       14.0070           0
     82323 WT27     1066     MECN     C1       CG331   -0.170000       12.0110           0
     82324 WT27     1066     MECN     H11      HGA3     0.090000        1.0080           0
     82325 WT27     1066     MECN     H12      HGA3     0.090000        1.0080           0
     82326 WT27     1066     MECN     H13      HGA3     0.090000        1.0080           0
     82327 WT27     1066     MECN     C2       CG1N1    0.360000       12.0110           0
     82328 WT27     1066     MECN     N3       NG1T1   -0.460000       14.0070           0
     82329 WT27     1067     MECN     C1       CG331   -0.170000       12.0110           0
     82330 WT27     1067     MECN     H11      HGA3     0.090000        1.0080           0
     82331 WT27     1067     MECN     H12      HGA3     0.090000        1.0080           0
     82332 WT27     1067     MECN     H13      HGA3     0.090000        1.0080           0
     82333 WT27     1067     MECN     C2       CG1N1    0.360000       12.0110           0
     82334 WT27     1067     MECN     N3       NG1T1   -0.460000       14.0070           0
     82335 WT27     1074     MECN     C1       CG331   -0.170000       12.0110           0
     82336 WT27     1074     MECN     H11      HGA3     0.090000        1.0080           0
     82337 WT27     1074     MECN     H12      HGA3     0.090000        1.0080           0
     82338 WT27     1074     MECN     H13      HGA3     0.090000        1.0080           0
     82339 WT27     1074     MECN     C2       CG1N1    0.360000       12.0110           0
     82340 WT27     1074     MECN     N3       NG1T1   -0.460000       14.0070           0
     82341 WT27     1076     MECN     C1       CG331   -0.170000       12.0110           0
     82342 WT27     1076     MECN     H11      HGA3     0.090000        1.0080           0
     82343 WT27     1076     MECN     H12      HGA3     0.090000        1.0080           0
     82344 WT27     1076     MECN     H13      HGA3     0.090000        1.0080           0
     82345 WT27     1076     MECN     C2       CG1N1    0.360000       12.0110           0
     82346 WT27     1076     MECN     N3       NG1T1   -0.460000       14.0070           0
     82347 WT27     1079     MECN     C1       CG331   -0.170000       12.0110           0
     82348 WT27     1079     MECN     H11      HGA3     0.090000        1.0080           0
     82349 WT27     1079     MECN     H12      HGA3     0.090000        1.0080           0
     82350 WT27     1079     MECN     H13      HGA3     0.090000        1.0080           0
     82351 WT27     1079     MECN     C2       CG1N1    0.360000       12.0110           0
     82352 WT27     1079     MECN     N3       NG1T1   -0.460000       14.0070           0
     82353 WT27     1082     MECN     C1       CG331   -0.170000       12.0110           0
     82354 WT27     1082     MECN     H11      HGA3     0.090000        1.0080           0
     82355 WT27     1082     MECN     H12      HGA3     0.090000        1.0080           0
     82356 WT27     1082     MECN     H13      HGA3     0.090000        1.0080           0
     82357 WT27     1082     MECN     C2       CG1N1    0.360000       12.0110           0
     82358 WT27     1082     MECN     N3       NG1T1   -0.460000       14.0070           0
     82359 WT27     1086     MECN     C1       CG331   -0.170000       12.0110           0
     82360 WT27     1086     MECN     H11      HGA3     0.090000        1.0080           0
     82361 WT27     1086     MECN     H12      HGA3     0.090000        1.0080           0
     82362 WT27     1086     MECN     H13      HGA3     0.090000        1.0080           0
     82363 WT27     1086     MECN     C2       CG1N1    0.360000       12.0110           0
     82364 WT27     1086     MECN     N3       NG1T1   -0.460000       14.0070           0
     82365 WT27     1089     MECN     C1       CG331   -0.170000       12.0110           0
     82366 WT27     1089     MECN     H11      HGA3     0.090000        1.0080           0
     82367 WT27     1089     MECN     H12      HGA3     0.090000        1.0080           0
     82368 WT27     1089     MECN     H13      HGA3     0.090000        1.0080           0
     82369 WT27     1089     MECN     C2       CG1N1    0.360000       12.0110           0
     82370 WT27     1089     MECN     N3       NG1T1   -0.460000       14.0070           0
     82371 WT27     1097     MECN     C1       CG331   -0.170000       12.0110           0
     82372 WT27     1097     MECN     H11      HGA3     0.090000        1.0080           0
     82373 WT27     1097     MECN     H12      HGA3     0.090000        1.0080           0
     82374 WT27     1097     MECN     H13      HGA3     0.090000        1.0080           0
     82375 WT27     1097     MECN     C2       CG1N1    0.360000       12.0110           0
     82376 WT27     1097     MECN     N3       NG1T1   -0.460000       14.0070           0
     82377 WT27     1102     MECN     C1       CG331   -0.170000       12.0110           0
     82378 WT27     1102     MECN     H11      HGA3     0.090000        1.0080           0
     82379 WT27     1102     MECN     H12      HGA3     0.090000        1.0080           0
     82380 WT27     1102     MECN     H13      HGA3     0.090000        1.0080           0
     82381 WT27     1102     MECN     C2       CG1N1    0.360000       12.0110           0
     82382 WT27     1102     MECN     N3       NG1T1   -0.460000       14.0070           0
     82383 WT27     1104     MECN     C1       CG331   -0.170000       12.0110           0
     82384 WT27     1104     MECN     H11      HGA3     0.090000        1.0080           0
     82385 WT27     1104     MECN     H12      HGA3     0.090000        1.0080           0
     82386 WT27     1104     MECN     H13      HGA3     0.090000        1.0080           0
     82387 WT27     1104     MECN     C2       CG1N1    0.360000       12.0110           0
     82388 WT27     1104     MECN     N3       NG1T1   -0.460000       14.0070           0
     82389 WT27     1105     MECN     C1       CG331   -0.170000       12.0110           0
     82390 WT27     1105     MECN     H11      HGA3     0.090000        1.0080           0
     82391 WT27     1105     MECN     H12      HGA3     0.090000        1.0080           0
     82392 WT27     1105     MECN     H13      HGA3     0.090000        1.0080           0
     82393 WT27     1105     MECN     C2       CG1N1    0.360000       12.0110           0
     82394 WT27     1105     MECN     N3       NG1T1   -0.460000       14.0070           0
     82395 WT27     1108     MECN     C1       CG331   -0.170000       12.0110           0
     82396 WT27     1108     MECN     H11      HGA3     0.090000        1.0080           0
     82397 WT27     1108     MECN     H12      HGA3     0.090000        1.0080           0
     82398 WT27     1108     MECN     H13      HGA3     0.090000        1.0080           0
     82399 WT27     1108     MECN     C2       CG1N1    0.360000       12.0110           0
     82400 WT27     1108     MECN     N3       NG1T1   -0.460000       14.0070           0
     82401 WT27     1111     MECN     C1       CG331   -0.170000       12.0110           0
     82402 WT27     1111     MECN     H11      HGA3     0.090000        1.0080           0
     82403 WT27     1111     MECN     H12      HGA3     0.090000        1.0080           0
     82404 WT27     1111     MECN     H13      HGA3     0.090000        1.0080           0
     82405 WT27     1111     MECN     C2       CG1N1    0.360000       12.0110           0
     82406 WT27     1111     MECN     N3       NG1T1   -0.460000       14.0070           0
     82407 WT27     1118     MECN     C1       CG331   -0.170000       12.0110           0
     82408 WT27     1118     MECN     H11      HGA3     0.090000        1.0080           0
     82409 WT27     1118     MECN     H12      HGA3     0.090000        1.0080           0
     82410 WT27     1118     MECN     H13      HGA3     0.090000        1.0080           0
     82411 WT27     1118     MECN     C2       CG1N1    0.360000       12.0110           0
     82412 WT27     1118     MECN     N3       NG1T1   -0.460000       14.0070           0
     82413 WT27     1119     MECN     C1       CG331   -0.170000       12.0110           0
     82414 WT27     1119     MECN     H11      HGA3     0.090000        1.0080           0
     82415 WT27     1119     MECN     H12      HGA3     0.090000        1.0080           0
     82416 WT27     1119     MECN     H13      HGA3     0.090000        1.0080           0
     82417 WT27     1119     MECN     C2       CG1N1    0.360000       12.0110           0
     82418 WT27     1119     MECN     N3       NG1T1   -0.460000       14.0070           0
     82419 WT27     1122     MECN     C1       CG331   -0.170000       12.0110           0
     82420 WT27     1122     MECN     H11      HGA3     0.090000        1.0080           0
     82421 WT27     1122     MECN     H12      HGA3     0.090000        1.0080           0
     82422 WT27     1122     MECN     H13      HGA3     0.090000        1.0080           0
     82423 WT27     1122     MECN     C2       CG1N1    0.360000       12.0110           0
     82424 WT27     1122     MECN     N3       NG1T1   -0.460000       14.0070           0
     82425 WT27     1124     MECN     C1       CG331   -0.170000       12.0110           0
     82426 WT27     1124     MECN     H11      HGA3     0.090000        1.0080           0
     82427 WT27     1124     MECN     H12      HGA3     0.090000        1.0080           0
     82428 WT27     1124     MECN     H13      HGA3     0.090000        1.0080           0
     82429 WT27     1124     MECN     C2       CG1N1    0.360000       12.0110           0
     82430 WT27     1124     MECN     N3       NG1T1   -0.460000       14.0070           0
     82431 WT27     1126     MECN     C1       CG331   -0.170000       12.0110           0
     82432 WT27     1126     MECN     H11      HGA3     0.090000        1.0080           0
     82433 WT27     1126     MECN     H12      HGA3     0.090000        1.0080           0
     82434 WT27     1126     MECN     H13      HGA3     0.090000        1.0080           0
     82435 WT27     1126     MECN     C2       CG1N1    0.360000       12.0110           0
     82436 WT27     1126     MECN     N3       NG1T1   -0.460000       14.0070           0
     82437 WT27     1127     MECN     C1       CG331   -0.170000       12.0110           0
     82438 WT27     1127     MECN     H11      HGA3     0.090000        1.0080           0
     82439 WT27     1127     MECN     H12      HGA3     0.090000        1.0080           0
     82440 WT27     1127     MECN     H13      HGA3     0.090000        1.0080           0
     82441 WT27     1127     MECN     C2       CG1N1    0.360000       12.0110           0
     82442 WT27     1127     MECN     N3       NG1T1   -0.460000       14.0070           0
     82443 WT27     1131     MECN     C1       CG331   -0.170000       12.0110           0
     82444 WT27     1131     MECN     H11      HGA3     0.090000        1.0080           0
     82445 WT27     1131     MECN     H12      HGA3     0.090000        1.0080           0
     82446 WT27     1131     MECN     H13      HGA3     0.090000        1.0080           0
     82447 WT27     1131     MECN     C2       CG1N1    0.360000       12.0110           0
     82448 WT27     1131     MECN     N3       NG1T1   -0.460000       14.0070           0
     82449 WT27     1132     MECN     C1       CG331   -0.170000       12.0110           0
     82450 WT27     1132     MECN     H11      HGA3     0.090000        1.0080           0
     82451 WT27     1132     MECN     H12      HGA3     0.090000        1.0080           0
     82452 WT27     1132     MECN     H13      HGA3     0.090000        1.0080           0
     82453 WT27     1132     MECN     C2       CG1N1    0.360000       12.0110           0
     82454 WT27     1132     MECN     N3       NG1T1   -0.460000       14.0070           0
     82455 WT27     1133     MECN     C1       CG331   -0.170000       12.0110           0
     82456 WT27     1133     MECN     H11      HGA3     0.090000        1.0080           0
     82457 WT27     1133     MECN     H12      HGA3     0.090000        1.0080           0
     82458 WT27     1133     MECN     H13      HGA3     0.090000        1.0080           0
     82459 WT27     1133     MECN     C2       CG1N1    0.360000       12.0110           0
     82460 WT27     1133     MECN     N3       NG1T1   -0.460000       14.0070           0
     82461 WT27     1135     MECN     C1       CG331   -0.170000       12.0110           0
     82462 WT27     1135     MECN     H11      HGA3     0.090000        1.0080           0
     82463 WT27     1135     MECN     H12      HGA3     0.090000        1.0080           0
     82464 WT27     1135     MECN     H13      HGA3     0.090000        1.0080           0
     82465 WT27     1135     MECN     C2       CG1N1    0.360000       12.0110           0
     82466 WT27     1135     MECN     N3       NG1T1   -0.460000       14.0070           0
     82467 WT27     1140     MECN     C1       CG331   -0.170000       12.0110           0
     82468 WT27     1140     MECN     H11      HGA3     0.090000        1.0080           0
     82469 WT27     1140     MECN     H12      HGA3     0.090000        1.0080           0
     82470 WT27     1140     MECN     H13      HGA3     0.090000        1.0080           0
     82471 WT27     1140     MECN     C2       CG1N1    0.360000       12.0110           0
     82472 WT27     1140     MECN     N3       NG1T1   -0.460000       14.0070           0
     82473 WT27     1142     MECN     C1       CG331   -0.170000       12.0110           0
     82474 WT27     1142     MECN     H11      HGA3     0.090000        1.0080           0
     82475 WT27     1142     MECN     H12      HGA3     0.090000        1.0080           0
     82476 WT27     1142     MECN     H13      HGA3     0.090000        1.0080           0
     82477 WT27     1142     MECN     C2       CG1N1    0.360000       12.0110           0
     82478 WT27     1142     MECN     N3       NG1T1   -0.460000       14.0070           0
     82479 WT27     1149     MECN     C1       CG331   -0.170000       12.0110           0
     82480 WT27     1149     MECN     H11      HGA3     0.090000        1.0080           0
     82481 WT27     1149     MECN     H12      HGA3     0.090000        1.0080           0
     82482 WT27     1149     MECN     H13      HGA3     0.090000        1.0080           0
     82483 WT27     1149     MECN     C2       CG1N1    0.360000       12.0110           0
     82484 WT27     1149     MECN     N3       NG1T1   -0.460000       14.0070           0
     82485 WT27     1150     MECN     C1       CG331   -0.170000       12.0110           0
     82486 WT27     1150     MECN     H11      HGA3     0.090000        1.0080           0
     82487 WT27     1150     MECN     H12      HGA3     0.090000        1.0080           0
     82488 WT27     1150     MECN     H13      HGA3     0.090000        1.0080           0
     82489 WT27     1150     MECN     C2       CG1N1    0.360000       12.0110           0
     82490 WT27     1150     MECN     N3       NG1T1   -0.460000       14.0070           0
     82491 WT27     1151     MECN     C1       CG331   -0.170000       12.0110           0
     82492 WT27     1151     MECN     H11      HGA3     0.090000        1.0080           0
     82493 WT27     1151     MECN     H12      HGA3     0.090000        1.0080           0
     82494 WT27     1151     MECN     H13      HGA3     0.090000        1.0080           0
     82495 WT27     1151     MECN     C2       CG1N1    0.360000       12.0110           0
     82496 WT27     1151     MECN     N3       NG1T1   -0.460000       14.0070           0
     82497 WT27     1152     MECN     C1       CG331   -0.170000       12.0110           0
     82498 WT27     1152     MECN     H11      HGA3     0.090000        1.0080           0
     82499 WT27     1152     MECN     H12      HGA3     0.090000        1.0080           0
     82500 WT27     1152     MECN     H13      HGA3     0.090000        1.0080           0
     82501 WT27     1152     MECN     C2       CG1N1    0.360000       12.0110           0
     82502 WT27     1152     MECN     N3       NG1T1   -0.460000       14.0070           0
     82503 WT27     1155     MECN     C1       CG331   -0.170000       12.0110           0
     82504 WT27     1155     MECN     H11      HGA3     0.090000        1.0080           0
     82505 WT27     1155     MECN     H12      HGA3     0.090000        1.0080           0
     82506 WT27     1155     MECN     H13      HGA3     0.090000        1.0080           0
     82507 WT27     1155     MECN     C2       CG1N1    0.360000       12.0110           0
     82508 WT27     1155     MECN     N3       NG1T1   -0.460000       14.0070           0
     82509 WT27     1158     MECN     C1       CG331   -0.170000       12.0110           0
     82510 WT27     1158     MECN     H11      HGA3     0.090000        1.0080           0
     82511 WT27     1158     MECN     H12      HGA3     0.090000        1.0080           0
     82512 WT27     1158     MECN     H13      HGA3     0.090000        1.0080           0
     82513 WT27     1158     MECN     C2       CG1N1    0.360000       12.0110           0
     82514 WT27     1158     MECN     N3       NG1T1   -0.460000       14.0070           0
     82515 WT27     1159     MECN     C1       CG331   -0.170000       12.0110           0
     82516 WT27     1159     MECN     H11      HGA3     0.090000        1.0080           0
     82517 WT27     1159     MECN     H12      HGA3     0.090000        1.0080           0
     82518 WT27     1159     MECN     H13      HGA3     0.090000        1.0080           0
     82519 WT27     1159     MECN     C2       CG1N1    0.360000       12.0110           0
     82520 WT27     1159     MECN     N3       NG1T1   -0.460000       14.0070           0
     82521 WT27     1163     MECN     C1       CG331   -0.170000       12.0110           0
     82522 WT27     1163     MECN     H11      HGA3     0.090000        1.0080           0
     82523 WT27     1163     MECN     H12      HGA3     0.090000        1.0080           0
     82524 WT27     1163     MECN     H13      HGA3     0.090000        1.0080           0
     82525 WT27     1163     MECN     C2       CG1N1    0.360000       12.0110           0
     82526 WT27     1163     MECN     N3       NG1T1   -0.460000       14.0070           0
     82527 WT27     1167     MECN     C1       CG331   -0.170000       12.0110           0
     82528 WT27     1167     MECN     H11      HGA3     0.090000        1.0080           0
     82529 WT27     1167     MECN     H12      HGA3     0.090000        1.0080           0
     82530 WT27     1167     MECN     H13      HGA3     0.090000        1.0080           0
     82531 WT27     1167     MECN     C2       CG1N1    0.360000       12.0110           0
     82532 WT27     1167     MECN     N3       NG1T1   -0.460000       14.0070           0
     82533 WT27     1168     MECN     C1       CG331   -0.170000       12.0110           0
     82534 WT27     1168     MECN     H11      HGA3     0.090000        1.0080           0
     82535 WT27     1168     MECN     H12      HGA3     0.090000        1.0080           0
     82536 WT27     1168     MECN     H13      HGA3     0.090000        1.0080           0
     82537 WT27     1168     MECN     C2       CG1N1    0.360000       12.0110           0
     82538 WT27     1168     MECN     N3       NG1T1   -0.460000       14.0070           0
     82539 WT27     1170     MECN     C1       CG331   -0.170000       12.0110           0
     82540 WT27     1170     MECN     H11      HGA3     0.090000        1.0080           0
     82541 WT27     1170     MECN     H12      HGA3     0.090000        1.0080           0
     82542 WT27     1170     MECN     H13      HGA3     0.090000        1.0080           0
     82543 WT27     1170     MECN     C2       CG1N1    0.360000       12.0110           0
     82544 WT27     1170     MECN     N3       NG1T1   -0.460000       14.0070           0
     82545 WT27     1171     MECN     C1       CG331   -0.170000       12.0110           0
     82546 WT27     1171     MECN     H11      HGA3     0.090000        1.0080           0
     82547 WT27     1171     MECN     H12      HGA3     0.090000        1.0080           0
     82548 WT27     1171     MECN     H13      HGA3     0.090000        1.0080           0
     82549 WT27     1171     MECN     C2       CG1N1    0.360000       12.0110           0
     82550 WT27     1171     MECN     N3       NG1T1   -0.460000       14.0070           0
     82551 WT27     1175     MECN     C1       CG331   -0.170000       12.0110           0
     82552 WT27     1175     MECN     H11      HGA3     0.090000        1.0080           0
     82553 WT27     1175     MECN     H12      HGA3     0.090000        1.0080           0
     82554 WT27     1175     MECN     H13      HGA3     0.090000        1.0080           0
     82555 WT27     1175     MECN     C2       CG1N1    0.360000       12.0110           0
     82556 WT27     1175     MECN     N3       NG1T1   -0.460000       14.0070           0
     82557 WT27     1176     MECN     C1       CG331   -0.170000       12.0110           0
     82558 WT27     1176     MECN     H11      HGA3     0.090000        1.0080           0
     82559 WT27     1176     MECN     H12      HGA3     0.090000        1.0080           0
     82560 WT27     1176     MECN     H13      HGA3     0.090000        1.0080           0
     82561 WT27     1176     MECN     C2       CG1N1    0.360000       12.0110           0
     82562 WT27     1176     MECN     N3       NG1T1   -0.460000       14.0070           0
     82563 WT27     1177     MECN     C1       CG331   -0.170000       12.0110           0
     82564 WT27     1177     MECN     H11      HGA3     0.090000        1.0080           0
     82565 WT27     1177     MECN     H12      HGA3     0.090000        1.0080           0
     82566 WT27     1177     MECN     H13      HGA3     0.090000        1.0080           0
     82567 WT27     1177     MECN     C2       CG1N1    0.360000       12.0110           0
     82568 WT27     1177     MECN     N3       NG1T1   -0.460000       14.0070           0
     82569 WT27     1179     MECN     C1       CG331   -0.170000       12.0110           0
     82570 WT27     1179     MECN     H11      HGA3     0.090000        1.0080           0
     82571 WT27     1179     MECN     H12      HGA3     0.090000        1.0080           0
     82572 WT27     1179     MECN     H13      HGA3     0.090000        1.0080           0
     82573 WT27     1179     MECN     C2       CG1N1    0.360000       12.0110           0
     82574 WT27     1179     MECN     N3       NG1T1   -0.460000       14.0070           0
     82575 WT27     1180     MECN     C1       CG331   -0.170000       12.0110           0
     82576 WT27     1180     MECN     H11      HGA3     0.090000        1.0080           0
     82577 WT27     1180     MECN     H12      HGA3     0.090000        1.0080           0
     82578 WT27     1180     MECN     H13      HGA3     0.090000        1.0080           0
     82579 WT27     1180     MECN     C2       CG1N1    0.360000       12.0110           0
     82580 WT27     1180     MECN     N3       NG1T1   -0.460000       14.0070           0
     82581 WT27     1185     MECN     C1       CG331   -0.170000       12.0110           0
     82582 WT27     1185     MECN     H11      HGA3     0.090000        1.0080           0
     82583 WT27     1185     MECN     H12      HGA3     0.090000        1.0080           0
     82584 WT27     1185     MECN     H13      HGA3     0.090000        1.0080           0
     82585 WT27     1185     MECN     C2       CG1N1    0.360000       12.0110           0
     82586 WT27     1185     MECN     N3       NG1T1   -0.460000       14.0070           0
     82587 WT27     1193     MECN     C1       CG331   -0.170000       12.0110           0
     82588 WT27     1193     MECN     H11      HGA3     0.090000        1.0080           0
     82589 WT27     1193     MECN     H12      HGA3     0.090000        1.0080           0
     82590 WT27     1193     MECN     H13      HGA3     0.090000        1.0080           0
     82591 WT27     1193     MECN     C2       CG1N1    0.360000       12.0110           0
     82592 WT27     1193     MECN     N3       NG1T1   -0.460000       14.0070           0
     82593 WT27     1197     MECN     C1       CG331   -0.170000       12.0110           0
     82594 WT27     1197     MECN     H11      HGA3     0.090000        1.0080           0
     82595 WT27     1197     MECN     H12      HGA3     0.090000        1.0080           0
     82596 WT27     1197     MECN     H13      HGA3     0.090000        1.0080           0
     82597 WT27     1197     MECN     C2       CG1N1    0.360000       12.0110           0
     82598 WT27     1197     MECN     N3       NG1T1   -0.460000       14.0070           0
     82599 WT27     1202     MECN     C1       CG331   -0.170000       12.0110           0
     82600 WT27     1202     MECN     H11      HGA3     0.090000        1.0080           0
     82601 WT27     1202     MECN     H12      HGA3     0.090000        1.0080           0
     82602 WT27     1202     MECN     H13      HGA3     0.090000        1.0080           0
     82603 WT27     1202     MECN     C2       CG1N1    0.360000       12.0110           0
     82604 WT27     1202     MECN     N3       NG1T1   -0.460000       14.0070           0
     82605 WT27     1203     MECN     C1       CG331   -0.170000       12.0110           0
     82606 WT27     1203     MECN     H11      HGA3     0.090000        1.0080           0
     82607 WT27     1203     MECN     H12      HGA3     0.090000        1.0080           0
     82608 WT27     1203     MECN     H13      HGA3     0.090000        1.0080           0
     82609 WT27     1203     MECN     C2       CG1N1    0.360000       12.0110           0
     82610 WT27     1203     MECN     N3       NG1T1   -0.460000       14.0070           0
     82611 WT27     1204     MECN     C1       CG331   -0.170000       12.0110           0
     82612 WT27     1204     MECN     H11      HGA3     0.090000        1.0080           0
     82613 WT27     1204     MECN     H12      HGA3     0.090000        1.0080           0
     82614 WT27     1204     MECN     H13      HGA3     0.090000        1.0080           0
     82615 WT27     1204     MECN     C2       CG1N1    0.360000       12.0110           0
     82616 WT27     1204     MECN     N3       NG1T1   -0.460000       14.0070           0
     82617 WT27     1206     MECN     C1       CG331   -0.170000       12.0110           0
     82618 WT27     1206     MECN     H11      HGA3     0.090000        1.0080           0
     82619 WT27     1206     MECN     H12      HGA3     0.090000        1.0080           0
     82620 WT27     1206     MECN     H13      HGA3     0.090000        1.0080           0
     82621 WT27     1206     MECN     C2       CG1N1    0.360000       12.0110           0
     82622 WT27     1206     MECN     N3       NG1T1   -0.460000       14.0070           0
     82623 WT27     1207     MECN     C1       CG331   -0.170000       12.0110           0
     82624 WT27     1207     MECN     H11      HGA3     0.090000        1.0080           0
     82625 WT27     1207     MECN     H12      HGA3     0.090000        1.0080           0
     82626 WT27     1207     MECN     H13      HGA3     0.090000        1.0080           0
     82627 WT27     1207     MECN     C2       CG1N1    0.360000       12.0110           0
     82628 WT27     1207     MECN     N3       NG1T1   -0.460000       14.0070           0
     82629 WT27     1209     MECN     C1       CG331   -0.170000       12.0110           0
     82630 WT27     1209     MECN     H11      HGA3     0.090000        1.0080           0
     82631 WT27     1209     MECN     H12      HGA3     0.090000        1.0080           0
     82632 WT27     1209     MECN     H13      HGA3     0.090000        1.0080           0
     82633 WT27     1209     MECN     C2       CG1N1    0.360000       12.0110           0
     82634 WT27     1209     MECN     N3       NG1T1   -0.460000       14.0070           0
     82635 WT27     1210     MECN     C1       CG331   -0.170000       12.0110           0
     82636 WT27     1210     MECN     H11      HGA3     0.090000        1.0080           0
     82637 WT27     1210     MECN     H12      HGA3     0.090000        1.0080           0
     82638 WT27     1210     MECN     H13      HGA3     0.090000        1.0080           0
     82639 WT27     1210     MECN     C2       CG1N1    0.360000       12.0110           0
     82640 WT27     1210     MECN     N3       NG1T1   -0.460000       14.0070           0
     82641 WT27     1211     MECN     C1       CG331   -0.170000       12.0110           0
     82642 WT27     1211     MECN     H11      HGA3     0.090000        1.0080           0
     82643 WT27     1211     MECN     H12      HGA3     0.090000        1.0080           0
     82644 WT27     1211     MECN     H13      HGA3     0.090000        1.0080           0
     82645 WT27     1211     MECN     C2       CG1N1    0.360000       12.0110           0
     82646 WT27     1211     MECN     N3       NG1T1   -0.460000       14.0070           0
     82647 WT27     1213     MECN     C1       CG331   -0.170000       12.0110           0
     82648 WT27     1213     MECN     H11      HGA3     0.090000        1.0080           0
     82649 WT27     1213     MECN     H12      HGA3     0.090000        1.0080           0
     82650 WT27     1213     MECN     H13      HGA3     0.090000        1.0080           0
     82651 WT27     1213     MECN     C2       CG1N1    0.360000       12.0110           0
     82652 WT27     1213     MECN     N3       NG1T1   -0.460000       14.0070           0
     82653 WT27     1217     MECN     C1       CG331   -0.170000       12.0110           0
     82654 WT27     1217     MECN     H11      HGA3     0.090000        1.0080           0
     82655 WT27     1217     MECN     H12      HGA3     0.090000        1.0080           0
     82656 WT27     1217     MECN     H13      HGA3     0.090000        1.0080           0
     82657 WT27     1217     MECN     C2       CG1N1    0.360000       12.0110           0
     82658 WT27     1217     MECN     N3       NG1T1   -0.460000       14.0070           0
     82659 WT27     1220     MECN     C1       CG331   -0.170000       12.0110           0
     82660 WT27     1220     MECN     H11      HGA3     0.090000        1.0080           0
     82661 WT27     1220     MECN     H12      HGA3     0.090000        1.0080           0
     82662 WT27     1220     MECN     H13      HGA3     0.090000        1.0080           0
     82663 WT27     1220     MECN     C2       CG1N1    0.360000       12.0110           0
     82664 WT27     1220     MECN     N3       NG1T1   -0.460000       14.0070           0
     82665 WT27     1222     MECN     C1       CG331   -0.170000       12.0110           0
     82666 WT27     1222     MECN     H11      HGA3     0.090000        1.0080           0
     82667 WT27     1222     MECN     H12      HGA3     0.090000        1.0080           0
     82668 WT27     1222     MECN     H13      HGA3     0.090000        1.0080           0
     82669 WT27     1222     MECN     C2       CG1N1    0.360000       12.0110           0
     82670 WT27     1222     MECN     N3       NG1T1   -0.460000       14.0070           0
     82671 WT27     1224     MECN     C1       CG331   -0.170000       12.0110           0
     82672 WT27     1224     MECN     H11      HGA3     0.090000        1.0080           0
     82673 WT27     1224     MECN     H12      HGA3     0.090000        1.0080           0
     82674 WT27     1224     MECN     H13      HGA3     0.090000        1.0080           0
     82675 WT27     1224     MECN     C2       CG1N1    0.360000       12.0110           0
     82676 WT27     1224     MECN     N3       NG1T1   -0.460000       14.0070           0
     82677 WT27     1225     MECN     C1       CG331   -0.170000       12.0110           0
     82678 WT27     1225     MECN     H11      HGA3     0.090000        1.0080           0
     82679 WT27     1225     MECN     H12      HGA3     0.090000        1.0080           0
     82680 WT27     1225     MECN     H13      HGA3     0.090000        1.0080           0
     82681 WT27     1225     MECN     C2       CG1N1    0.360000       12.0110           0
     82682 WT27     1225     MECN     N3       NG1T1   -0.460000       14.0070           0
     82683 WT27     1226     MECN     C1       CG331   -0.170000       12.0110           0
     82684 WT27     1226     MECN     H11      HGA3     0.090000        1.0080           0
     82685 WT27     1226     MECN     H12      HGA3     0.090000        1.0080           0
     82686 WT27     1226     MECN     H13      HGA3     0.090000        1.0080           0
     82687 WT27     1226     MECN     C2       CG1N1    0.360000       12.0110           0
     82688 WT27     1226     MECN     N3       NG1T1   -0.460000       14.0070           0
     82689 WT27     1227     MECN     C1       CG331   -0.170000       12.0110           0
     82690 WT27     1227     MECN     H11      HGA3     0.090000        1.0080           0
     82691 WT27     1227     MECN     H12      HGA3     0.090000        1.0080           0
     82692 WT27     1227     MECN     H13      HGA3     0.090000        1.0080           0
     82693 WT27     1227     MECN     C2       CG1N1    0.360000       12.0110           0
     82694 WT27     1227     MECN     N3       NG1T1   -0.460000       14.0070           0
     82695 WT27     1233     MECN     C1       CG331   -0.170000       12.0110           0
     82696 WT27     1233     MECN     H11      HGA3     0.090000        1.0080           0
     82697 WT27     1233     MECN     H12      HGA3     0.090000        1.0080           0
     82698 WT27     1233     MECN     H13      HGA3     0.090000        1.0080           0
     82699 WT27     1233     MECN     C2       CG1N1    0.360000       12.0110           0
     82700 WT27     1233     MECN     N3       NG1T1   -0.460000       14.0070           0
     82701 WT27     1235     MECN     C1       CG331   -0.170000       12.0110           0
     82702 WT27     1235     MECN     H11      HGA3     0.090000        1.0080           0
     82703 WT27     1235     MECN     H12      HGA3     0.090000        1.0080           0
     82704 WT27     1235     MECN     H13      HGA3     0.090000        1.0080           0
     82705 WT27     1235     MECN     C2       CG1N1    0.360000       12.0110           0
     82706 WT27     1235     MECN     N3       NG1T1   -0.460000       14.0070           0
     82707 WT27     1237     MECN     C1       CG331   -0.170000       12.0110           0
     82708 WT27     1237     MECN     H11      HGA3     0.090000        1.0080           0
     82709 WT27     1237     MECN     H12      HGA3     0.090000        1.0080           0
     82710 WT27     1237     MECN     H13      HGA3     0.090000        1.0080           0
     82711 WT27     1237     MECN     C2       CG1N1    0.360000       12.0110           0
     82712 WT27     1237     MECN     N3       NG1T1   -0.460000       14.0070           0
     82713 WT27     1240     MECN     C1       CG331   -0.170000       12.0110           0
     82714 WT27     1240     MECN     H11      HGA3     0.090000        1.0080           0
     82715 WT27     1240     MECN     H12      HGA3     0.090000        1.0080           0
     82716 WT27     1240     MECN     H13      HGA3     0.090000        1.0080           0
     82717 WT27     1240     MECN     C2       CG1N1    0.360000       12.0110           0
     82718 WT27     1240     MECN     N3       NG1T1   -0.460000       14.0070           0
     82719 WT27     1241     MECN     C1       CG331   -0.170000       12.0110           0
     82720 WT27     1241     MECN     H11      HGA3     0.090000        1.0080           0
     82721 WT27     1241     MECN     H12      HGA3     0.090000        1.0080           0
     82722 WT27     1241     MECN     H13      HGA3     0.090000        1.0080           0
     82723 WT27     1241     MECN     C2       CG1N1    0.360000       12.0110           0
     82724 WT27     1241     MECN     N3       NG1T1   -0.460000       14.0070           0
     82725 WT27     1244     MECN     C1       CG331   -0.170000       12.0110           0
     82726 WT27     1244     MECN     H11      HGA3     0.090000        1.0080           0
     82727 WT27     1244     MECN     H12      HGA3     0.090000        1.0080           0
     82728 WT27     1244     MECN     H13      HGA3     0.090000        1.0080           0
     82729 WT27     1244     MECN     C2       CG1N1    0.360000       12.0110           0
     82730 WT27     1244     MECN     N3       NG1T1   -0.460000       14.0070           0
     82731 WT27     1247     MECN     C1       CG331   -0.170000       12.0110           0
     82732 WT27     1247     MECN     H11      HGA3     0.090000        1.0080           0
     82733 WT27     1247     MECN     H12      HGA3     0.090000        1.0080           0
     82734 WT27     1247     MECN     H13      HGA3     0.090000        1.0080           0
     82735 WT27     1247     MECN     C2       CG1N1    0.360000       12.0110           0
     82736 WT27     1247     MECN     N3       NG1T1   -0.460000       14.0070           0
     82737 WT27     1250     MECN     C1       CG331   -0.170000       12.0110           0
     82738 WT27     1250     MECN     H11      HGA3     0.090000        1.0080           0
     82739 WT27     1250     MECN     H12      HGA3     0.090000        1.0080           0
     82740 WT27     1250     MECN     H13      HGA3     0.090000        1.0080           0
     82741 WT27     1250     MECN     C2       CG1N1    0.360000       12.0110           0
     82742 WT27     1250     MECN     N3       NG1T1   -0.460000       14.0070           0
     82743 WT27     1254     MECN     C1       CG331   -0.170000       12.0110           0
     82744 WT27     1254     MECN     H11      HGA3     0.090000        1.0080           0
     82745 WT27     1254     MECN     H12      HGA3     0.090000        1.0080           0
     82746 WT27     1254     MECN     H13      HGA3     0.090000        1.0080           0
     82747 WT27     1254     MECN     C2       CG1N1    0.360000       12.0110           0
     82748 WT27     1254     MECN     N3       NG1T1   -0.460000       14.0070           0
     82749 WT27     1255     MECN     C1       CG331   -0.170000       12.0110           0
     82750 WT27     1255     MECN     H11      HGA3     0.090000        1.0080           0
     82751 WT27     1255     MECN     H12      HGA3     0.090000        1.0080           0
     82752 WT27     1255     MECN     H13      HGA3     0.090000        1.0080           0
     82753 WT27     1255     MECN     C2       CG1N1    0.360000       12.0110           0
     82754 WT27     1255     MECN     N3       NG1T1   -0.460000       14.0070           0
     82755 WT27     1258     MECN     C1       CG331   -0.170000       12.0110           0
     82756 WT27     1258     MECN     H11      HGA3     0.090000        1.0080           0
     82757 WT27     1258     MECN     H12      HGA3     0.090000        1.0080           0
     82758 WT27     1258     MECN     H13      HGA3     0.090000        1.0080           0
     82759 WT27     1258     MECN     C2       CG1N1    0.360000       12.0110           0
     82760 WT27     1258     MECN     N3       NG1T1   -0.460000       14.0070           0
     82761 WT27     1260     MECN     C1       CG331   -0.170000       12.0110           0
     82762 WT27     1260     MECN     H11      HGA3     0.090000        1.0080           0
     82763 WT27     1260     MECN     H12      HGA3     0.090000        1.0080           0
     82764 WT27     1260     MECN     H13      HGA3     0.090000        1.0080           0
     82765 WT27     1260     MECN     C2       CG1N1    0.360000       12.0110           0
     82766 WT27     1260     MECN     N3       NG1T1   -0.460000       14.0070           0
     82767 WT27     1262     MECN     C1       CG331   -0.170000       12.0110           0
     82768 WT27     1262     MECN     H11      HGA3     0.090000        1.0080           0
     82769 WT27     1262     MECN     H12      HGA3     0.090000        1.0080           0
     82770 WT27     1262     MECN     H13      HGA3     0.090000        1.0080           0
     82771 WT27     1262     MECN     C2       CG1N1    0.360000       12.0110           0
     82772 WT27     1262     MECN     N3       NG1T1   -0.460000       14.0070           0
     82773 WT27     1263     MECN     C1       CG331   -0.170000       12.0110           0
     82774 WT27     1263     MECN     H11      HGA3     0.090000        1.0080           0
     82775 WT27     1263     MECN     H12      HGA3     0.090000        1.0080           0
     82776 WT27     1263     MECN     H13      HGA3     0.090000        1.0080           0
     82777 WT27     1263     MECN     C2       CG1N1    0.360000       12.0110           0
     82778 WT27     1263     MECN     N3       NG1T1   -0.460000       14.0070           0
     82779 WT27     1264     MECN     C1       CG331   -0.170000       12.0110           0
     82780 WT27     1264     MECN     H11      HGA3     0.090000        1.0080           0
     82781 WT27     1264     MECN     H12      HGA3     0.090000        1.0080           0
     82782 WT27     1264     MECN     H13      HGA3     0.090000        1.0080           0
     82783 WT27     1264     MECN     C2       CG1N1    0.360000       12.0110           0
     82784 WT27     1264     MECN     N3       NG1T1   -0.460000       14.0070           0
     82785 WT27     1265     MECN     C1       CG331   -0.170000       12.0110           0
     82786 WT27     1265     MECN     H11      HGA3     0.090000        1.0080           0
     82787 WT27     1265     MECN     H12      HGA3     0.090000        1.0080           0
     82788 WT27     1265     MECN     H13      HGA3     0.090000        1.0080           0
     82789 WT27     1265     MECN     C2       CG1N1    0.360000       12.0110           0
     82790 WT27     1265     MECN     N3       NG1T1   -0.460000       14.0070           0
     82791 WT27     1268     MECN     C1       CG331   -0.170000       12.0110           0
     82792 WT27     1268     MECN     H11      HGA3     0.090000        1.0080           0
     82793 WT27     1268     MECN     H12      HGA3     0.090000        1.0080           0
     82794 WT27     1268     MECN     H13      HGA3     0.090000        1.0080           0
     82795 WT27     1268     MECN     C2       CG1N1    0.360000       12.0110           0
     82796 WT27     1268     MECN     N3       NG1T1   -0.460000       14.0070           0
     82797 WT27     1272     MECN     C1       CG331   -0.170000       12.0110           0
     82798 WT27     1272     MECN     H11      HGA3     0.090000        1.0080           0
     82799 WT27     1272     MECN     H12      HGA3     0.090000        1.0080           0
     82800 WT27     1272     MECN     H13      HGA3     0.090000        1.0080           0
     82801 WT27     1272     MECN     C2       CG1N1    0.360000       12.0110           0
     82802 WT27     1272     MECN     N3       NG1T1   -0.460000       14.0070           0
     82803 WT27     1277     MECN     C1       CG331   -0.170000       12.0110           0
     82804 WT27     1277     MECN     H11      HGA3     0.090000        1.0080           0
     82805 WT27     1277     MECN     H12      HGA3     0.090000        1.0080           0
     82806 WT27     1277     MECN     H13      HGA3     0.090000        1.0080           0
     82807 WT27     1277     MECN     C2       CG1N1    0.360000       12.0110           0
     82808 WT27     1277     MECN     N3       NG1T1   -0.460000       14.0070           0
     82809 WT27     1280     MECN     C1       CG331   -0.170000       12.0110           0
     82810 WT27     1280     MECN     H11      HGA3     0.090000        1.0080           0
     82811 WT27     1280     MECN     H12      HGA3     0.090000        1.0080           0
     82812 WT27     1280     MECN     H13      HGA3     0.090000        1.0080           0
     82813 WT27     1280     MECN     C2       CG1N1    0.360000       12.0110           0
     82814 WT27     1280     MECN     N3       NG1T1   -0.460000       14.0070           0
     82815 WT27     1283     MECN     C1       CG331   -0.170000       12.0110           0
     82816 WT27     1283     MECN     H11      HGA3     0.090000        1.0080           0
     82817 WT27     1283     MECN     H12      HGA3     0.090000        1.0080           0
     82818 WT27     1283     MECN     H13      HGA3     0.090000        1.0080           0
     82819 WT27     1283     MECN     C2       CG1N1    0.360000       12.0110           0
     82820 WT27     1283     MECN     N3       NG1T1   -0.460000       14.0070           0
     82821 WT27     1285     MECN     C1       CG331   -0.170000       12.0110           0
     82822 WT27     1285     MECN     H11      HGA3     0.090000        1.0080           0
     82823 WT27     1285     MECN     H12      HGA3     0.090000        1.0080           0
     82824 WT27     1285     MECN     H13      HGA3     0.090000        1.0080           0
     82825 WT27     1285     MECN     C2       CG1N1    0.360000       12.0110           0
     82826 WT27     1285     MECN     N3       NG1T1   -0.460000       14.0070           0
     82827 WT27     1286     MECN     C1       CG331   -0.170000       12.0110           0
     82828 WT27     1286     MECN     H11      HGA3     0.090000        1.0080           0
     82829 WT27     1286     MECN     H12      HGA3     0.090000        1.0080           0
     82830 WT27     1286     MECN     H13      HGA3     0.090000        1.0080           0
     82831 WT27     1286     MECN     C2       CG1N1    0.360000       12.0110           0
     82832 WT27     1286     MECN     N3       NG1T1   -0.460000       14.0070           0
     82833 WT27     1297     MECN     C1       CG331   -0.170000       12.0110           0
     82834 WT27     1297     MECN     H11      HGA3     0.090000        1.0080           0
     82835 WT27     1297     MECN     H12      HGA3     0.090000        1.0080           0
     82836 WT27     1297     MECN     H13      HGA3     0.090000        1.0080           0
     82837 WT27     1297     MECN     C2       CG1N1    0.360000       12.0110           0
     82838 WT27     1297     MECN     N3       NG1T1   -0.460000       14.0070           0
     82839 WT27     1301     MECN     C1       CG331   -0.170000       12.0110           0
     82840 WT27     1301     MECN     H11      HGA3     0.090000        1.0080           0
     82841 WT27     1301     MECN     H12      HGA3     0.090000        1.0080           0
     82842 WT27     1301     MECN     H13      HGA3     0.090000        1.0080           0
     82843 WT27     1301     MECN     C2       CG1N1    0.360000       12.0110           0
     82844 WT27     1301     MECN     N3       NG1T1   -0.460000       14.0070           0
     82845 WT27     1305     MECN     C1       CG331   -0.170000       12.0110           0
     82846 WT27     1305     MECN     H11      HGA3     0.090000        1.0080           0
     82847 WT27     1305     MECN     H12      HGA3     0.090000        1.0080           0
     82848 WT27     1305     MECN     H13      HGA3     0.090000        1.0080           0
     82849 WT27     1305     MECN     C2       CG1N1    0.360000       12.0110           0
     82850 WT27     1305     MECN     N3       NG1T1   -0.460000       14.0070           0
     82851 WT27     1309     MECN     C1       CG331   -0.170000       12.0110           0
     82852 WT27     1309     MECN     H11      HGA3     0.090000        1.0080           0
     82853 WT27     1309     MECN     H12      HGA3     0.090000        1.0080           0
     82854 WT27     1309     MECN     H13      HGA3     0.090000        1.0080           0
     82855 WT27     1309     MECN     C2       CG1N1    0.360000       12.0110           0
     82856 WT27     1309     MECN     N3       NG1T1   -0.460000       14.0070           0
     82857 WT27     1311     MECN     C1       CG331   -0.170000       12.0110           0
     82858 WT27     1311     MECN     H11      HGA3     0.090000        1.0080           0
     82859 WT27     1311     MECN     H12      HGA3     0.090000        1.0080           0
     82860 WT27     1311     MECN     H13      HGA3     0.090000        1.0080           0
     82861 WT27     1311     MECN     C2       CG1N1    0.360000       12.0110           0
     82862 WT27     1311     MECN     N3       NG1T1   -0.460000       14.0070           0
     82863 WT27     1312     MECN     C1       CG331   -0.170000       12.0110           0
     82864 WT27     1312     MECN     H11      HGA3     0.090000        1.0080           0
     82865 WT27     1312     MECN     H12      HGA3     0.090000        1.0080           0
     82866 WT27     1312     MECN     H13      HGA3     0.090000        1.0080           0
     82867 WT27     1312     MECN     C2       CG1N1    0.360000       12.0110           0
     82868 WT27     1312     MECN     N3       NG1T1   -0.460000       14.0070           0
     82869 WT27     1314     MECN     C1       CG331   -0.170000       12.0110           0
     82870 WT27     1314     MECN     H11      HGA3     0.090000        1.0080           0
     82871 WT27     1314     MECN     H12      HGA3     0.090000        1.0080           0
     82872 WT27     1314     MECN     H13      HGA3     0.090000        1.0080           0
     82873 WT27     1314     MECN     C2       CG1N1    0.360000       12.0110           0
     82874 WT27     1314     MECN     N3       NG1T1   -0.460000       14.0070           0
     82875 WT27     1319     MECN     C1       CG331   -0.170000       12.0110           0
     82876 WT27     1319     MECN     H11      HGA3     0.090000        1.0080           0
     82877 WT27     1319     MECN     H12      HGA3     0.090000        1.0080           0
     82878 WT27     1319     MECN     H13      HGA3     0.090000        1.0080           0
     82879 WT27     1319     MECN     C2       CG1N1    0.360000       12.0110           0
     82880 WT27     1319     MECN     N3       NG1T1   -0.460000       14.0070           0
     82881 WT27     1320     MECN     C1       CG331   -0.170000       12.0110           0
     82882 WT27     1320     MECN     H11      HGA3     0.090000        1.0080           0
     82883 WT27     1320     MECN     H12      HGA3     0.090000        1.0080           0
     82884 WT27     1320     MECN     H13      HGA3     0.090000        1.0080           0
     82885 WT27     1320     MECN     C2       CG1N1    0.360000       12.0110           0
     82886 WT27     1320     MECN     N3       NG1T1   -0.460000       14.0070           0
     82887 WT27     1324     MECN     C1       CG331   -0.170000       12.0110           0
     82888 WT27     1324     MECN     H11      HGA3     0.090000        1.0080           0
     82889 WT27     1324     MECN     H12      HGA3     0.090000        1.0080           0
     82890 WT27     1324     MECN     H13      HGA3     0.090000        1.0080           0
     82891 WT27     1324     MECN     C2       CG1N1    0.360000       12.0110           0
     82892 WT27     1324     MECN     N3       NG1T1   -0.460000       14.0070           0
     82893 WT27     1327     MECN     C1       CG331   -0.170000       12.0110           0
     82894 WT27     1327     MECN     H11      HGA3     0.090000        1.0080           0
     82895 WT27     1327     MECN     H12      HGA3     0.090000        1.0080           0
     82896 WT27     1327     MECN     H13      HGA3     0.090000        1.0080           0
     82897 WT27     1327     MECN     C2       CG1N1    0.360000       12.0110           0
     82898 WT27     1327     MECN     N3       NG1T1   -0.460000       14.0070           0
     82899 WT27     1328     MECN     C1       CG331   -0.170000       12.0110           0
     82900 WT27     1328     MECN     H11      HGA3     0.090000        1.0080           0
     82901 WT27     1328     MECN     H12      HGA3     0.090000        1.0080           0
     82902 WT27     1328     MECN     H13      HGA3     0.090000        1.0080           0
     82903 WT27     1328     MECN     C2       CG1N1    0.360000       12.0110           0
     82904 WT27     1328     MECN     N3       NG1T1   -0.460000       14.0070           0
     82905 WT27     1331     MECN     C1       CG331   -0.170000       12.0110           0
     82906 WT27     1331     MECN     H11      HGA3     0.090000        1.0080           0
     82907 WT27     1331     MECN     H12      HGA3     0.090000        1.0080           0
     82908 WT27     1331     MECN     H13      HGA3     0.090000        1.0080           0
     82909 WT27     1331     MECN     C2       CG1N1    0.360000       12.0110           0
     82910 WT27     1331     MECN     N3       NG1T1   -0.460000       14.0070           0

   71803 !NBOND: bonds
         1         2         1         6         2         3         3         4
         4         7         4       181         5         6         5        10
         6         7         7         8         8        11         8       185
         9        14         9        10        10        11        11        12
        12        15        12       189        13        18        13        14
        14        15        15        16        16        19        16       193
        17        22        17        18        18        19        19        20
        20        23        20       197        21        22        21        26
        22        23        23        24        24        27        24       201
        25        26        25        30        26        27        27        28
        28        31        28       205        29        34        29        30
        30        31        31        32        32        35        32       209
        33        38        33        34        34        35        35        36
        36        39        36       213        37        42        37        38
        38        39        39        40        40        43        40       217
        41        42        41        46        42        43        43        44
        44        47        44       221        45        46        45        50
        46        47        47        48        48        51        48       225
        49        54        49        50        50        51        51        52
        52        55        52       229        53        58        53        54
        54        55        55        56        56        59        56       233
        57        62        57        58        58        59        59        60
        60        63        60       237        61        62        61        66
        62        63        63        64        64        67        64       241
        65        66        65        70        66        67        67        68
        68        71        68       245        69        74        69        70
        70        71        71        72        72        75        72       249
        73        78        73        74        74        75        75        76
        76        79        76       253        77        82        77        78
        78        79        79        80        80        83        80       257
        81        82        81        86        82        83        83        84
        84        87        84       261        85        86        85        90
        86        87        87        88        88        91        88       265
        89        94        89        90        90        91        91        92
        92        95        92       269        93        98        93        94
        94        95        95        96        96        99        96       273
        97       102        97        98        98        99        99       100
       100       103       100       277       101       102       101       106
       102       103       103       104       104       107       104       281
       105       106       105       110       106       107       107       108
       108       111       108       285       109       114       109       110
       110       111       111       112       112       115       112       289
       113       118       113       114       114       115       115       116
       116       119       116       293       117       122       117       118
       118       119       119       120       120       123       120       297
       121       122       121       126       122       123       123       124
       124       127       124       301       125       126       125       130
       126       127       127       128       128       131       128       305
       129       134       129       130       130       131       131       132
       132       135       132       309       133       134       133       138
       134       135       135       136       136       139       136       313
       137       142       137       138       138       139       139       140
       140       143       140       317       141       142       141       146
       142       143       143       144       144       147       144       321
       145       146       145       150       146       147       147       148
       148       151       148       325       149       154       149       150
       150       151       151       152       152       155       152       329
       153       158       153       154       154       155       155       156
       156       159       156       333       157       162       157       158
       158       159       159       160       160       163       160       337
       161       162       161       166       162       163       163       164
       164       167       164       341       165       166       165       170
       166       167       167       168       168       171       168       345
       169       174       169       170       170       171       171       172
       172       175       172       349       173       178       173       174
       174       175       175       176       176       179       176       353
       177       178       178       179       179       180       180       357
       181       182       181       186       182       183       183       184
       184       187       184       361       185       186       185       190
       186       187       187       188       188       191       188       365
       189       194       189       190       190       191       191       192
       192       195       192       369       193       198       193       194
       194       195       195       196       196       199       196       373
       197       202       197       198       198       199       199       200
       200       203       200       377       201       202       201       206
       202       203       203       204       204       207       204       381
       205       206       205       210       206       207       207       208
       208       211       208       385       209       214       209       210
       210       211       211       212       212       215       212       389
       213       218       213       214       214       215       215       216
       216       219       216       393       217       222       217       218
       218       219       219       220       220       223       220       397
       221       222       221       226       222       223       223       224
       224       227       224       401       225       226       225       230
       226       227       227       228       228       231       228       405
       229       234       229       230       230       231       231       232
       232       235       232       409       233       238       233       234
       234       235       235       236       236       239       236       413
       237       242       237       238       238       239       239       240
       240       243       240       417       241       242       241       246
       242       243       243       244       244       247       244       421
       245       246       245       250       246       247       247       248
       248       251       248       425       249       254       249       250
       250       251       251       252       252       255       252       429
       253       258       253       254       254       255       255       256
       256       259       256       433       257       262       257       258
       258       259       259       260       260       263       260       437
       261       262       261       266       262       263       263       264
       264       267       264       441       265       266       265       270
       266       267       267       268       268       271       268       445
       269       274       269       270       270       271       271       272
       272       275       272       449       273       278       273       274
       274       275       275       276       276       279       276       453
       277       282       277       278       278       279       279       280
       280       283       280       457       281       282       281       286
       282       283       283       284       284       287       284       461
       285       286       285       290       286       287       287       288
       288       291       288       465       289       294       289       290
       290       291       291       292       292       295       292       469
       293       298       293       294       294       295       295       296
       296       299       296       473       297       302       297       298
       298       299       299       300       300       303       300       477
       301       302       301       306       302       303       303       304
       304       307       304       481       305       306       305       310
       306       307       307       308       308       311       308       485
       309       314       309       310       310       311       311       312
       312       315       312       489       313       318       313       314
       314       315       315       316       316       319       316       493
       317       322       317       318       318       319       319       320
       320       323       320       497       321       322       321       326
       322       323       323       324       324       327       324       501
       325       326       325       330       326       327       327       328
       328       331       328       505       329       334       329       330
       330       331       331       332       332       335       332       509
       333       338       333       334       334       335       335       336
       336       339       336       513       337       342       337       338
       338       339       339       340       340       343       340       517
       341       342       341       346       342       343       343       344
       344       347       344       521       345       346       345       350
       346       347       347       348       348       351       348       525
       349       354       349       350       350       351       351       352
       352       355       352       529       353       354       353       358
       354       355       355       356       356       359       356       533
       357       358       358       359       359       360       360       537
       361       362       361       366       362       363       363       364
       364       367       364       541       365       366       365       370
       366       367       367       368       368       371       368       545
       369       374       369       370       370       371       371       372
       372       375       372       549       373       374       373       378
       374       375       375       376       376       379       376       553
       377       382       377       378       378       379       379       380
       380       383       380       557       381       382       381       386
       382       383       383       384       384       387       384       561
       385       386       385       390       386       387       387       388
       388       391       388       565       389       394       389       390
       390       391       391       392       392       395       392       569
       393       398       393       394       394       395       395       396
       396       399       396       573       397       402       397       398
       398       399       399       400       400       403       400       577
       401       402       401       406       402       403       403       404
       404       407       404       581       405       406       405       410
       406       407       407       408       408       411       408       585
       409       414       409       410       410       411       411       412
       412       415       412       589       413       418       413       414
       414       415       415       416       416       419       416       593
       417       422       417       418       418       419       419       420
       420       423       420       597       421       422       421       426
       422       423       423       424       424       427       424       601
       425       426       425       430       426       427       427       428
       428       431       428       605       429       434       429       430
       430       431       431       432       432       435       432       609
       433       438       433       434       434       435       435       436
       436       439       436       613       437       442       437       438
       438       439       439       440       440       443       440       617
       441       442       441       446       442       443       443       444
       444       447       444       621       445       446       445       450
       446       447       447       448       448       451       448       625
       449       454       449       450       450       451       451       452
       452       455       452       629       453       458       453       454
       454       455       455       456       456       459       456       633
       457       462       457       458       458       459       459       460
       460       463       460       637       461       462       461       466
       462       463       463       464       464       467       464       641
       465       466       465       470       466       467       467       468
       468       471       468       645       469       474       469       470
       470       471       471       472       472       475       472       649
       473       478       473       474       474       475       475       476
       476       479       476       653       477       482       477       478
       478       479       479       480       480       483       480       657
       481       482       481       486       482       483       483       484
       484       487       484       661       485       486       485       490
       486       487       487       488       488       491       488       665
       489       494       489       490       490       491       491       492
       492       495       492       669       493       498       493       494
       494       495       495       496       496       499       496       673
       497       502       497       498       498       499       499       500
       500       503       500       677       501       502       501       506
       502       503       503       504       504       507       504       681
       505       506       505       510       506       507       507       508
       508       511       508       685       509       514       509       510
       510       511       511       512       512       515       512       689
       513       518       513       514       514       515       515       516
       516       519       516       693       517       522       517       518
       518       519       519       520       520       523       520       697
       521       522       521       526       522       523       523       524
       524       527       524       701       525       526       525       530
       526       527       527       528       528       531       528       705
       529       534       529       530       530       531       531       532
       532       535       532       709       533       538       533       534
       534       535       535       536       536       539       536       713
       537       538       538       539       539       540       540       717
       541       542       541       546       542       543       543       544
       544       547       544       721       545       546       545       550
       546       547       547       548       548       551       548       725
       549       554       549       550       550       551       551       552
       552       555       552       729       553       558       553       554
       554       555       555       556       556       559       556       733
       557       562       557       558       558       559       559       560
       560       563       560       737       561       562       561       566
       562       563       563       564       564       567       564       741
       565       566       565       570       566       567       567       568
       568       571       568       745       569       574       569       570
       570       571       571       572       572       575       572       749
       573       578       573       574       574       575       575       576
       576       579       576       753       577       582       577       578
       578       579       579       580       580       583       580       757
       581       582       581       586       582       583       583       584
       584       587       584       761       585       586       585       590
       586       587       587       588       588       591       588       765
       589       594       589       590       590       591       591       592
       592       595       592       769       593       594       593       598
       594       595       595       596       596       599       596       773
       597       602       597       598       598       599       599       600
       600       603       600       777       601       602       601       606
       602       603       603       604       604       607       604       781
       605       606       605       610       606       607       607       608
       608       611       608       785       609       614       609       610
       610       611       611       612       612       615       612       789
       613       618       613       614       614       615       615       616
       616       619       616       793       617       622       617       618
       618       619       619       620       620       623       620       797
       621       622       621       626       622       623       623       624
       624       627       624       801       625       626       625       630
       626       627       627       628       628       631       628       805
       629       634       629       630       630       631       631       632
       632       635       632       809       633       638       633       634
       634       635       635       636       636       639       636       813
       637       642       637       638       638       639       639       640
       640       643       640       817       641       642       641       646
       642       643       643       644       644       647       644       821
       645       646       645       650       646       647       647       648
       648       651       648       825       649       654       649       650
       650       651       651       652       652       655       652       829
       653       658       653       654       654       655       655       656
       656       659       656       833       657       662       657       658
       658       659       659       660       660       663       660       837
       661       662       661       666       662       663       663       664
       664       667       664       841       665       666       665       670
       666       667       667       668       668       671       668       845
       669       674       669       670       670       671       671       672
       672       675       672       849       673       678       673       674
       674       675       675       676       676       679       676       853
       677       682       677       678       678       679       679       680
       680       683       680       857       681       682       681       686
       682       683       683       684       684       687       684       861
       685       686       685       690       686       687       687       688
       688       691       688       865       689       694       689       690
       690       691       691       692       692       695       692       869
       693       698       693       694       694       695       695       696
       696       699       696       873       697       702       697       698
       698       699       699       700       700       703       700       877
       701       702       701       706       702       703       703       704
       704       707       704       881       705       706       705       710
       706       707       707       708       708       711       708       885
       709       714       709       710       710       711       711       712
       712       715       712       889       713       718       713       714
       714       715       715       716       716       719       716       893
       717       718       718       719       719       720       720       897
       721       722       721       726       722       723       723       724
       724       727       724       901       725       726       725       730
       726       727       727       728       728       731       728       905
       729       734       729       730       730       731       731       732
       732       735       732       909       733       738       733       734
       734       735       735       736       736       739       736       913
       737       742       737       738       738       739       739       740
       740       743       740       917       741       742       741       746
       742       743       743       744       744       747       744       921
       745       746       745       750       746       747       747       748
       748       751       748       925       749       754       749       750
       750       751       751       752       752       755       752       929
       753       758       753       754       754       755       755       756
       756       759       756       933       757       762       757       758
       758       759       759       760       760       763       760       937
       761       762       761       766       762       763       763       764
       764       767       764       941       765       766       765       770
       766       767       767       768       768       771       768       945
       769       774       769       770       770       771       771       772
       772       775       772       949       773       778       773       774
       774       775       775       776       776       779       776       953
       777       782       777       778       778       779       779       780
       780       783       780       957       781       782       781       786
       782       783       783       784       784       787       784       961
       785       786       785       790       786       787       787       788
       788       791       788       965       789       794       789       790
       790       791       791       792       792       795       792       969
       793       798       793       794       794       795       795       796
       796       799       796       973       797       802       797       798
       798       799       799       800       800       803       800       977
       801       802       801       806       802       803       803       804
       804       807       804       981       805       806       805       810
       806       807       807       808       808       811       808       985
       809       814       809       810       810       811       811       812
       812       815       812       989       813       814       813       818
       814       815       815       816       816       819       816       993
       817       822       817       818       818       819       819       820
       820       823       820       997       821       822       821       826
       822       823       823       824       824       827       824      1001
       825       826       825       830       826       827       827       828
       828       831       828      1005       829       834       829       830
       830       831       831       832       832       835       832      1009
       833       838       833       834       834       835       835       836
       836       839       836      1013       837       842       837       838
       838       839       839       840       840       843       840      1017
       841       842       841       846       842       843       843       844
       844       847       844      1021       845       846       845       850
       846       847       847       848       848       851       848      1025
       849       854       849       850       850       851       851       852
       852       855       852      1029       853       858       853       854
       854       855       855       856       856       859       856      1033
       857       862       857       858       858       859       859       860
       860       863       860      1037       861       862       861       866
       862       863       863       864       864       867       864      1041
       865       866       865       870       866       867       867       868
       868       871       868      1045       869       874       869       870
       870       871       871       872       872       875       872      1049
       873       878       873       874       874       875       875       876
       876       879       876      1053       877       882       877       878
       878       879       879       880       880       883       880      1057
       881       882       881       886       882       883       883       884
       884       887       884      1061       885       886       885       890
       886       887       887       888       888       891       888      1065
       889       894       889       890       890       891       891       892
       892       895       892      1069       893       898       893       894
       894       895       895       896       896       899       896      1073
       897       898       898       899       899       900       900      1077
       901       902       901       906       902       903       903       904
       904       907       904      1081       905       906       905       910
       906       907       907       908       908       911       908      1085
       909       914       909       910       910       911       911       912
       912       915       912      1089       913       918       913       914
       914       915       915       916       916       919       916      1093
       917       922       917       918       918       919       919       920
       920       923       920      1097       921       922       921       926
       922       923       923       924       924       927       924      1101
       925       926       925       930       926       927       927       928
       928       931       928      1105       929       934       929       930
       930       931       931       932       932       935       932      1109
       933       938       933       934       934       935       935       936
       936       939       936      1113       937       942       937       938
       938       939       939       940       940       943       940      1117
       941       942       941       946       942       943       943       944
       944       947       944      1121       945       946       945       950
       946       947       947       948       948       951       948      1125
       949       954       949       950       950       951       951       952
       952       955       952      1129       953       958       953       954
       954       955       955       956       956       959       956      1133
       957       962       957       958       958       959       959       960
       960       963       960      1137       961       962       961       966
       962       963       963       964       964       967       964      1141
       965       966       965       970       966       967       967       968
       968       971       968      1145       969       974       969       970
       970       971       971       972       972       975       972      1149
       973       978       973       974       974       975       975       976
       976       979       976      1153       977       982       977       978
       978       979       979       980       980       983       980      1157
       981       982       981       986       982       983       983       984
       984       987       984      1161       985       986       985       990
       986       987       987       988       988       991       988      1165
       989       994       989       990       990       991       991       992
       992       995       992      1169       993       998       993       994
       994       995       995       996       996       999       996      1173
       997      1002       997       998       998       999       999      1000
      1000      1003      1000      1177      1001      1002      1001      1006
      1002      1003      1003      1004      1004      1007      1004      1181
      1005      1006      1005      1010      1006      1007      1007      1008
      1008      1011      1008      1185      1009      1014      1009      1010
      1010      1011      1011      1012      1012      1015      1012      1189
      1013      1018      1013      1014      1014      1015      1015      1016
      1016      1019      1016      1193      1017      1022      1017      1018
      1018      1019      1019      1020      1020      1023      1020      1197
      1021      1022      1021      1026      1022      1023      1023      1024
      1024      1027      1024      1201      1025      1026      1025      1030
      1026      1027      1027      1028      1028      1031      1028      1205
      1029      1034      1029      1030      1030      1031      1031      1032
      1032      1035      1032      1209      1033      1034      1033      1038
      1034      1035      1035      1036      1036      1039      1036      1213
      1037      1042      1037      1038      1038      1039      1039      1040
      1040      1043      1040      1217      1041      1042      1041      1046
      1042      1043      1043      1044      1044      1047      1044      1221
      1045      1046      1045      1050      1046      1047      1047      1048
      1048      1051      1048      1225      1049      1054      1049      1050
      1050      1051      1051      1052      1052      1055      1052      1229
      1053      1058      1053      1054      1054      1055      1055      1056
      1056      1059      1056      1233      1057      1062      1057      1058
      1058      1059      1059      1060      1060      1063      1060      1237
      1061      1062      1061      1066      1062      1063      1063      1064
      1064      1067      1064      1241      1065      1066      1065      1070
      1066      1067      1067      1068      1068      1071      1068      1245
      1069      1074      1069      1070      1070      1071      1071      1072
      1072      1075      1072      1249      1073      1078      1073      1074
      1074      1075      1075      1076      1076      1079      1076      1253
      1077      1078      1078      1079      1079      1080      1080      1257
      1081      1082      1081      1086      1082      1083      1083      1084
      1084      1087      1084      1261      1085      1086      1085      1090
      1086      1087      1087      1088      1088      1091      1088      1265
      1089      1094      1089      1090      1090      1091      1091      1092
      1092      1095      1092      1269      1093      1098      1093      1094
      1094      1095      1095      1096      1096      1099      1096      1273
      1097      1102      1097      1098      1098      1099      1099      1100
      1100      1103      1100      1277      1101      1102      1101      1106
      1102      1103      1103      1104      1104      1107      1104      1281
      1105      1106      1105      1110      1106      1107      1107      1108
      1108      1111      1108      1285      1109      1114      1109      1110
      1110      1111      1111      1112      1112      1115      1112      1289
      1113      1118      1113      1114      1114      1115      1115      1116
      1116      1119      1116      1293      1117      1122      1117      1118
      1118      1119      1119      1120      1120      1123      1120      1297
      1121      1122      1121      1126      1122      1123      1123      1124
      1124      1127      1124      1301      1125      1126      1125      1130
      1126      1127      1127      1128      1128      1131      1128      1305
      1129      1134      1129      1130      1130      1131      1131      1132
      1132      1135      1132      1309      1133      1138      1133      1134
      1134      1135      1135      1136      1136      1139      1136      1313
      1137      1142      1137      1138      1138      1139      1139      1140
      1140      1143      1140      1317      1141      1142      1141      1146
      1142      1143      1143      1144      1144      1147      1144      1321
      1145      1146      1145      1150      1146      1147      1147      1148
      1148      1151      1148      1325      1149      1154      1149      1150
      1150      1151      1151      1152      1152      1155      1152      1329
      1153      1158      1153      1154      1154      1155      1155      1156
      1156      1159      1156      1333      1157      1162      1157      1158
      1158      1159      1159      1160      1160      1163      1160      1337
      1161      1162      1161      1166      1162      1163      1163      1164
      1164      1167      1164      1341      1165      1166      1165      1170
      1166      1167      1167      1168      1168      1171      1168      1345
      1169      1174      1169      1170      1170      1171      1171      1172
      1172      1175      1172      1349      1173      1178      1173      1174
      1174      1175      1175      1176      1176      1179      1176      1353
      1177      1182      1177      1178      1178      1179      1179      1180
      1180      1183      1180      1357      1181      1182      1181      1186
      1182      1183      1183      1184      1184      1187      1184      1361
      1185      1186      1185      1190      1186      1187      1187      1188
      1188      1191      1188      1365      1189      1194      1189      1190
      1190      1191      1191      1192      1192      1195      1192      1369
      1193      1198      1193      1194      1194      1195      1195      1196
      1196      1199      1196      1373      1197      1202      1197      1198
      1198      1199      1199      1200      1200      1203      1200      1377
      1201      1202      1201      1206      1202      1203      1203      1204
      1204      1207      1204      1381      1205      1206      1205      1210
      1206      1207      1207      1208      1208      1211      1208      1385
      1209      1214      1209      1210      1210      1211      1211      1212
      1212      1215      1212      1389      1213      1218      1213      1214
      1214      1215      1215      1216      1216      1219      1216      1393
      1217      1222      1217      1218      1218      1219      1219      1220
      1220      1223      1220      1397      1221      1222      1221      1226
      1222      1223      1223      1224      1224      1227      1224      1401
      1225      1226      1225      1230      1226      1227      1227      1228
      1228      1231      1228      1405      1229      1234      1229      1230
      1230      1231      1231      1232      1232      1235      1232      1409
      1233      1238      1233      1234      1234      1235      1235      1236
      1236      1239      1236      1413      1237      1242      1237      1238
      1238      1239      1239      1240      1240      1243      1240      1417
      1241      1242      1241      1246      1242      1243      1243      1244
      1244      1247      1244      1421      1245      1246      1245      1250
      1246      1247      1247      1248      1248      1251      1248      1425
      1249      1254      1249      1250      1250      1251      1251      1252
      1252      1255      1252      1429      1253      1254      1253      1258
      1254      1255      1255      1256      1256      1259      1256      1433
      1257      1258      1258      1259      1259      1260      1260      1437
      1261      1262      1261      1266      1262      1263      1263      1264
      1264      1267      1264      1441      1265      1266      1265      1270
      1266      1267      1267      1268      1268      1271      1268      1445
      1269      1274      1269      1270      1270      1271      1271      1272
      1272      1275      1272      1449      1273      1274      1273      1278
      1274      1275      1275      1276      1276      1279      1276      1453
      1277      1282      1277      1278      1278      1279      1279      1280
      1280      1283      1280      1457      1281      1282      1281      1286
      1282      1283      1283      1284      1284      1287      1284      1461
      1285      1286      1285      1290      1286      1287      1287      1288
      1288      1291      1288      1465      1289      1294      1289      1290
      1290      1291      1291      1292      1292      1295      1292      1469
      1293      1298      1293      1294      1294      1295      1295      1296
      1296      1299      1296      1473      1297      1302      1297      1298
      1298      1299      1299      1300      1300      1303      1300      1477
      1301      1302      1301      1306      1302      1303      1303      1304
      1304      1307      1304      1481      1305      1306      1305      1310
      1306      1307      1307      1308      1308      1311      1308      1485
      1309      1314      1309      1310      1310      1311      1311      1312
      1312      1315      1312      1489      1313      1318      1313      1314
      1314      1315      1315      1316      1316      1319      1316      1493
      1317      1322      1317      1318      1318      1319      1319      1320
      1320      1323      1320      1497      1321      1322      1321      1326
      1322      1323      1323      1324      1324      1327      1324      1501
      1325      1326      1325      1330      1326      1327      1327      1328
      1328      1331      1328      1505      1329      1334      1329      1330
      1330      1331      1331      1332      1332      1335      1332      1509
      1333      1338      1333      1334      1334      1335      1335      1336
      1336      1339      1336      1513      1337      1342      1337      1338
      1338      1339      1339      1340      1340      1343      1340      1517
      1341      1342      1341      1346      1342      1343      1343      1344
      1344      1347      1344      1521      1345      1346      1345      1350
      1346      1347      1347      1348      1348      1351      1348      1525
      1349      1354      1349      1350      1350      1351      1351      1352
      1352      1355      1352      1529      1353      1358      1353      1354
      1354      1355      1355      1356      1356      1359      1356      1533
      1357      1362      1357      1358      1358      1359      1359      1360
      1360      1363      1360      1537      1361      1362      1361      1366
      1362      1363      1363      1364      1364      1367      1364      1541
      1365      1366      1365      1370      1366      1367      1367      1368
      1368      1371      1368      1545      1369      1374      1369      1370
      1370      1371      1371      1372      1372      1375      1372      1549
      1373      1378      1373      1374      1374      1375      1375      1376
      1376      1379      1376      1553      1377      1382      1377      1378
      1378      1379      1379      1380      1380      1383      1380      1557
      1381      1382      1381      1386      1382      1383      1383      1384
      1384      1387      1384      1561      1385      1386      1385      1390
      1386      1387      1387      1388      1388      1391      1388      1565
      1389      1394      1389      1390      1390      1391      1391      1392
      1392      1395      1392      1569      1393      1398      1393      1394
      1394      1395      1395      1396      1396      1399      1396      1573
      1397      1402      1397      1398      1398      1399      1399      1400
      1400      1403      1400      1577      1401      1402      1401      1406
      1402      1403      1403      1404      1404      1407      1404      1581
      1405      1406      1405      1410      1406      1407      1407      1408
      1408      1411      1408      1585      1409      1414      1409      1410
      1410      1411      1411      1412      1412      1415      1412      1589
      1413      1418      1413      1414      1414      1415      1415      1416
      1416      1419      1416      1593      1417      1422      1417      1418
      1418      1419      1419      1420      1420      1423      1420      1597
      1421      1422      1421      1426      1422      1423      1423      1424
      1424      1427      1424      1601      1425      1426      1425      1430
      1426      1427      1427      1428      1428      1431      1428      1605
      1429      1434      1429      1430      1430      1431      1431      1432
      1432      1435      1432      1609      1433      1438      1433      1434
      1434      1435      1435      1436      1436      1439      1436      1613
      1437      1438      1438      1439      1439      1440      1440      1617
      1441      1442      1441      1446      1442      1443      1443      1444
      1444      1621      1444      1447      1445      1446      1445      1450
      1446      1447      1447      1448      1448      1625      1448      1451
      1449      1454      1449      1450      1450      1451      1451      1452
      1452      1629      1452      1455      1453      1458      1453      1454
      1454      1455      1455      1456      1456      1633      1456      1459
      1457      1462      1457      1458      1458      1459      1459      1460
      1460      1637      1460      1463      1461      1462      1461      1466
      1462      1463      1463      1464      1464      1641      1464      1467
      1465      1466      1465      1470      1466      1467      1467      1468
      1468      1645      1468      1471      1469      1474      1469      1470
      1470      1471      1471      1472      1472      1475      1472      1649
      1473      1478      1473      1474      1474      1475      1475      1476
      1476      1479      1476      1653      1477      1482      1477      1478
      1478      1479      1479      1480      1480      1657      1480      1483
      1481      1482      1481      1486      1482      1483      1483      1484
      1484      1661      1484      1487      1485      1486      1485      1490
      1486      1487      1487      1488      1488      1665      1488      1491
      1489      1494      1489      1490      1490      1491      1491      1492
      1492      1495      1492      1669      1493      1494      1493      1498
      1494      1495      1495      1496      1496      1499      1496      1673
      1497      1498      1497      1502      1498      1499      1499      1500
      1500      1677      1500      1503      1501      1502      1501      1506
      1502      1503      1503      1504      1504      1681      1504      1507
      1505      1506      1505      1510      1506      1507      1507      1508
      1508      1685      1508      1511      1509      1510      1509      1514
      1510      1511      1511      1512      1512      1515      1512      1689
      1513      1514      1513      1518      1514      1515      1515      1516
      1516      1693      1516      1519      1517      1522      1517      1518
      1518      1519      1519      1520      1520      1697      1520      1523
      1521      1522      1521      1526      1522      1523      1523      1524
      1524      1701      1524      1527      1525      1526      1525      1530
      1526      1527      1527      1528      1528      1705      1528      1531
      1529      1534      1529      1530      1530      1531      1531      1532
      1532      1709      1532      1535      1533      1538      1533      1534
      1534      1535      1535      1536      1536      1539      1536      1713
      1537      1542      1537      1538      1538      1539      1539      1540
      1540      1717      1540      1543      1541      1542      1541      1546
      1542      1543      1543      1544      1544      1721      1544      1547
      1545      1546      1545      1550      1546      1547      1547      1548
      1548      1725      1548      1551      1549      1554      1549      1550
      1550      1551      1551      1552      1552      1555      1552      1729
      1553      1558      1553      1554      1554      1555      1555      1556
      1556      1559      1556      1733      1557      1562      1557      1558
      1558      1559      1559      1560      1560      1737      1560      1563
      1561      1562      1561      1566      1562      1563      1563      1564
      1564      1741      1564      1567      1565      1566      1565      1570
      1566      1567      1567      1568      1568      1745      1568      1571
      1569      1570      1569      1574      1570      1571      1571      1572
      1572      1575      1572      1749      1573      1574      1573      1578
      1574      1575      1575      1576      1576      1579      1576      1753
      1577      1578      1577      1582      1578      1579      1579      1580
      1580      1757      1580      1583      1581      1582      1581      1586
      1582      1583      1583      1584      1584      1761      1584      1587
      1585      1586      1585      1590      1586      1587      1587      1588
      1588      1765      1588      1591      1589      1594      1589      1590
      1590      1591      1591      1592      1592      1769      1592      1595
      1593      1598      1593      1594      1594      1595      1595      1596
      1596      1773      1596      1599      1597      1602      1597      1598
      1598      1599      1599      1600      1600      1777      1600      1603
      1601      1602      1601      1606      1602      1603      1603      1604
      1604      1781      1604      1607      1605      1606      1605      1610
      1606      1607      1607      1608      1608      1785      1608      1611
      1609      1614      1609      1610      1610      1611      1611      1612
      1612      1615      1612      1789      1613      1618      1613      1614
      1614      1615      1615      1616      1616      1619      1616      1793
      1617      1618      1618      1619      1619      1620      1620      1797
      1621      1622      1621      1626      1622      1623      1623      1624
      1624      1801      1624      1627      1625      1626      1625      1630
      1626      1627      1627      1628      1628      1805      1628      1631
      1629      1634      1629      1630      1630      1631      1631      1632
      1632      1635      1632      1809      1633      1638      1633      1634
      1634      1635      1635      1636      1636      1639      1636      1813
      1637      1642      1637      1638      1638      1639      1639      1640
      1640      1817      1640      1643      1641      1642      1641      1646
      1642      1643      1643      1644      1644      1821      1644      1647
      1645      1646      1645      1650      1646      1647      1647      1648
      1648      1825      1648      1651      1649      1650      1649      1654
      1650      1651      1651      1652      1652      1655      1652      1829
      1653      1654      1653      1658      1654      1655      1655      1656
      1656      1659      1656      1833      1657      1658      1657      1662
      1658      1659      1659      1660      1660      1837      1660      1663
      1661      1662      1661      1666      1662      1663      1663      1664
      1664      1841      1664      1667      1665      1666      1665      1670
      1666      1667      1667      1668      1668      1845      1668      1671
      1669      1674      1669      1670      1670      1671      1671      1672
      1672      1849      1672      1675      1673      1678      1673      1674
      1674      1675      1675      1676      1676      1853      1676      1679
      1677      1682      1677      1678      1678      1679      1679      1680
      1680      1857      1680      1683      1681      1682      1681      1686
      1682      1683      1683      1684      1684      1861      1684      1687
      1685      1686      1685      1690      1686      1687      1687      1688
      1688      1865      1688      1691      1689      1694      1689      1690
      1690      1691      1691      1692      1692      1695      1692      1869
      1693      1698      1693      1694      1694      1695      1695      1696
      1696      1699      1696      1873      1697      1702      1697      1698
      1698      1699      1699      1700      1700      1877      1700      1703
      1701      1702      1701      1706      1702      1703      1703      1704
      1704      1881      1704      1707      1705      1706      1705      1710
      1706      1707      1707      1708      1708      1885      1708      1711
      1709      1714      1709      1710      1710      1711      1711      1712
      1712      1715      1712      1889      1713      1714      1713      1718
      1714      1715      1715      1716      1716      1719      1716      1893
      1717      1718      1717      1722      1718      1719      1719      1720
      1720      1897      1720      1723      1721      1722      1721      1726
      1722      1723      1723      1724      1724      1901      1724      1727
      1725      1726      1725      1730      1726      1727      1727      1728
      1728      1905      1728      1731      1729      1730      1729      1734
      1730      1731      1731      1732      1732      1735      1732      1909
      1733      1734      1733      1738      1734      1735      1735      1736
      1736      1913      1736      1739      1737      1742      1737      1738
      1738      1739      1739      1740      1740      1917      1740      1743
      1741      1742      1741      1746      1742      1743      1743      1744
      1744      1921      1744      1747      1745      1746      1745      1750
      1746      1747      1747      1748      1748      1925      1748      1751
      1749      1754      1749      1750      1750      1751      1751      1752
      1752      1929      1752      1755      1753      1758      1753      1754
      1754      1755      1755      1756      1756      1759      1756      1933
      1757      1762      1757      1758      1758      1759      1759      1760
      1760      1937      1760      1763      1761      1762      1761      1766
      1762      1763      1763      1764      1764      1941      1764      1767
      1765      1766      1765      1770      1766      1767      1767      1768
      1768      1945      1768      1771      1769      1774      1769      1770
      1770      1771      1771      1772      1772      1775      1772      1949
      1773      1778      1773      1774      1774      1775      1775      1776
      1776      1779      1776      1953      1777      1782      1777      1778
      1778      1779      1779      1780      1780      1957      1780      1783
      1781      1782      1781      1786      1782      1783      1783      1784
      1784      1961      1784      1787      1785      1786      1785      1790
      1786      1787      1787      1788      1788      1965      1788      1791
      1789      1790      1789      1794      1790      1791      1791      1792
      1792      1795      1792      1969      1793      1794      1793      1798
      1794      1795      1795      1796      1796      1799      1796      1973
      1797      1798      1798      1799      1799      1800      1800      1977
      1801      1802      1801      1806      1802      1803      1803      1804
      1804      1981      1804      1807      1805      1806      1805      1810
      1806      1807      1807      1808      1808      1985      1808      1811
      1809      1810      1809      1814      1810      1811      1811      1812
      1812      1815      1812      1989      1813      1814      1813      1818
      1814      1815      1815      1816      1816      1819      1816      1993
      1817      1818      1817      1822      1818      1819      1819      1820
      1820      1997      1820      1823      1821      1822      1821      1826
      1822      1823      1823      1824      1824      2001      1824      1827
      1825      1826      1825      1830      1826      1827      1827      1828
      1828      2005      1828      1831      1829      1834      1829      1830
      1830      1831      1831      1832      1832      2009      1832      1835
      1833      1838      1833      1834      1834      1835      1835      1836
      1836      2013      1836      1839      1837      1842      1837      1838
      1838      1839      1839      1840      1840      2017      1840      1843
      1841      1842      1841      1846      1842      1843      1843      1844
      1844      2021      1844      1847      1845      1846      1845      1850
      1846      1847      1847      1848      1848      2025      1848      1851
      1849      1854      1849      1850      1850      1851      1851      1852
      1852      1855      1852      2029      1853      1858      1853      1854
      1854      1855      1855      1856      1856      1859      1856      2033
      1857      1862      1857      1858      1858      1859      1859      1860
      1860      2037      1860      1863      1861      1862      1861      1866
      1862      1863      1863      1864      1864      2041      1864      1867
      1865      1866      1865      1870      1866      1867      1867      1868
      1868      2045      1868      1871      1869      1870      1869      1874
      1870      1871      1871      1872      1872      1875      1872      2049
      1873      1874      1873      1878      1874      1875      1875      1876
      1876      1879      1876      2053      1877      1878      1877      1882
      1878      1879      1879      1880      1880      2057      1880      1883
      1881      1882      1881      1886      1882      1883      1883      1884
      1884      2061      1884      1887      1885      1886      1885      1890
      1886      1887      1887      1888      1888      2065      1888      1891
      1889      1894      1889      1890      1890      1891      1891      1892
      1892      2069      1892      1895      1893      1898      1893      1894
      1894      1895      1895      1896      1896      2073      1896      1899
      1897      1902      1897      1898      1898      1899      1899      1900
      1900      2077      1900      1903      1901      1902      1901      1906
      1902      1903      1903      1904      1904      2081      1904      1907
      1905      1906      1905      1910      1906      1907      1907      1908
      1908      2085      1908      1911      1909      1914      1909      1910
      1910      1911      1911      1912      1912      1915      1912      2089
      1913      1918      1913      1914      1914      1915      1915      1916
      1916      1919      1916      2093      1917      1922      1917      1918
      1918      1919      1919      1920      1920      2097      1920      1923
      1921      1922      1921      1926      1922      1923      1923      1924
      1924      2101      1924      1927      1925      1926      1925      1930
      1926      1927      1927      1928      1928      2105      1928      1931
      1929      1934      1929      1930      1930      1931      1931      1932
      1932      1935      1932      2109      1933      1934      1933      1938
      1934      1935      1935      1936      1936      1939      1936      2113
      1937      1938      1937      1942      1938      1939      1939      1940
      1940      2117      1940      1943      1941      1942      1941      1946
      1942      1943      1943      1944      1944      2121      1944      1947
      1945      1946      1945      1950      1946      1947      1947      1948
      1948      2125      1948      1951      1949      1950      1949      1954
      1950      1951      1951      1952      1952      1955      1952      2129
      1953      1954      1953      1958      1954      1955      1955      1956
      1956      2133      1956      1959      1957      1962      1957      1958
      1958      1959      1959      1960      1960      2137      1960      1963
      1961      1962      1961      1966      1962      1963      1963      1964
      1964      2141      1964      1967      1965      1966      1965      1970
      1966      1967      1967      1968      1968      2145      1968      1971
      1969      1974      1969      1970      1970      1971      1971      1972
      1972      2149      1972      1975      1973      1978      1973      1974
      1974      1975      1975      1976      1976      1979      1976      2153
      1977      1978      1978      1979      1979      1980      1980      2157
      1981      1982      1981      1986      1982      1983      1983      1984
      1984      2161      1984      1987      1985      1986      1985      1990
      1986      1987      1987      1988      1988      2165      1988      1991
      1989      1994      1989      1990      1990      1991      1991      1992
      1992      2169      1992      1995      1993      1998      1993      1994
      1994      1995      1995      1996      1996      1999      1996      2173
      1997      2002      1997      1998      1998      1999      1999      2000
      2000      2177      2000      2003      2001      2002      2001      2006
      2002      2003      2003      2004      2004      2181      2004      2007
      2005      2006      2005      2010      2006      2007      2007      2008
      2008      2185      2008      2011      2009      2014      2009      2010
      2010      2011      2011      2012      2012      2015      2012      2189
      2013      2018      2013      2014      2014      2015      2015      2016
      2016      2019      2016      2193      2017      2022      2017      2018
      2018      2019      2019      2020      2020      2197      2020      2023
      2021      2022      2021      2026      2022      2023      2023      2024
      2024      2201      2024      2027      2025      2026      2025      2030
      2026      2027      2027      2028      2028      2205      2028      2031
      2029      2030      2029      2034      2030      2031      2031      2032
      2032      2035      2032      2209      2033      2034      2033      2038
      2034      2035      2035      2036      2036      2039      2036      2213
      2037      2038      2037      2042      2038      2039      2039      2040
      2040      2217      2040      2043      2041      2042      2041      2046
      2042      2043      2043      2044      2044      2221      2044      2047
      2045      2046      2045      2050      2046      2047      2047      2048
      2048      2225      2048      2051      2049      2054      2049      2050
      2050      2051      2051      2052      2052      2229      2052      2055
      2053      2058      2053      2054      2054      2055      2055      2056
      2056      2233      2056      2059      2057      2062      2057      2058
      2058      2059      2059      2060      2060      2237      2060      2063
      2061      2062      2061      2066      2062      2063      2063      2064
      2064      2241      2064      2067      2065      2066      2065      2070
      2066      2067      2067      2068      2068      2245      2068      2071
      2069      2074      2069      2070      2070      2071      2071      2072
      2072      2075      2072      2249      2073      2078      2073      2074
      2074      2075      2075      2076      2076      2079      2076      2253
      2077      2082      2077      2078      2078      2079      2079      2080
      2080      2257      2080      2083      2081      2082      2081      2086
      2082      2083      2083      2084      2084      2261      2084      2087
      2085      2086      2085      2090      2086      2087      2087      2088
      2088      2265      2088      2091      2089      2090      2089      2094
      2090      2091      2091      2092      2092      2095      2092      2269
      2093      2094      2093      2098      2094      2095      2095      2096
      2096      2099      2096      2273      2097      2098      2097      2102
      2098      2099      2099      2100      2100      2277      2100      2103
      2101      2102      2101      2106      2102      2103      2103      2104
      2104      2281      2104      2107      2105      2106      2105      2110
      2106      2107      2107      2108      2108      2285      2108      2111
      2109      2114      2109      2110      2110      2111      2111      2112
      2112      2289      2112      2115      2113      2118      2113      2114
      2114      2115      2115      2116      2116      2293      2116      2119
      2117      2122      2117      2118      2118      2119      2119      2120
      2120      2297      2120      2123      2121      2122      2121      2126
      2122      2123      2123      2124      2124      2301      2124      2127
      2125      2126      2125      2130      2126      2127      2127      2128
      2128      2305      2128      2131      2129      2134      2129      2130
      2130      2131      2131      2132      2132      2135      2132      2309
      2133      2138      2133      2134      2134      2135      2135      2136
      2136      2139      2136      2313      2137      2142      2137      2138
      2138      2139      2139      2140      2140      2317      2140      2143
      2141      2142      2141      2146      2142      2143      2143      2144
      2144      2321      2144      2147      2145      2146      2145      2150
      2146      2147      2147      2148      2148      2325      2148      2151
      2149      2154      2149      2150      2150      2151      2151      2152
      2152      2155      2152      2329      2153      2154      2153      2158
      2154      2155      2155      2156      2156      2159      2156      2333
      2157      2158      2158      2159      2159      2160      2160      2337
      2161      2162      2161      2166      2162      2163      2163      2164
      2164      2167      2164      2341      2165      2166      2165      2170
      2166      2167      2167      2168      2168      2171      2168      2345
      2169      2174      2169      2170      2170      2171      2171      2172
      2172      2175      2172      2349      2173      2178      2173      2174
      2174      2175      2175      2176      2176      2179      2176      2353
      2177      2182      2177      2178      2178      2179      2179      2180
      2180      2183      2180      2357      2181      2182      2181      2186
      2182      2183      2183      2184      2184      2187      2184      2361
      2185      2186      2185      2190      2186      2187      2187      2188
      2188      2191      2188      2365      2189      2194      2189      2190
      2190      2191      2191      2192      2192      2195      2192      2369
      2193      2194      2193      2198      2194      2195      2195      2196
      2196      2199      2196      2373      2197      2202      2197      2198
      2198      2199      2199      2200      2200      2203      2200      2377
      2201      2202      2201      2206      2202      2203      2203      2204
      2204      2207      2204      2381      2205      2206      2205      2210
      2206      2207      2207      2208      2208      2211      2208      2385
      2209      2214      2209      2210      2210      2211      2211      2212
      2212      2215      2212      2389      2213      2218      2213      2214
      2214      2215      2215      2216      2216      2219      2216      2393
      2217      2222      2217      2218      2218      2219      2219      2220
      2220      2223      2220      2397      2221      2222      2221      2226
      2222      2223      2223      2224      2224      2227      2224      2401
      2225      2226      2225      2230      2226      2227      2227      2228
      2228      2231      2228      2405      2229      2234      2229      2230
      2230      2231      2231      2232      2232      2235      2232      2409
      2233      2238      2233      2234      2234      2235      2235      2236
      2236      2239      2236      2413      2237      2242      2237      2238
      2238      2239      2239      2240      2240      2243      2240      2417
      2241      2242      2241      2246      2242      2243      2243      2244
      2244      2247      2244      2421      2245      2246      2245      2250
      2246      2247      2247      2248      2248      2251      2248      2425
      2249      2254      2249      2250      2250      2251      2251      2252
      2252      2255      2252      2429      2253      2258      2253      2254
      2254      2255      2255      2256      2256      2259      2256      2433
      2257      2262      2257      2258      2258      2259      2259      2260
      2260      2263      2260      2437      2261      2262      2261      2266
      2262      2263      2263      2264      2264      2267      2264      2441
      2265      2266      2265      2270      2266      2267      2267      2268
      2268      2271      2268      2445      2269      2274      2269      2270
      2270      2271      2271      2272      2272      2275      2272      2449
      2273      2278      2273      2274      2274      2275      2275      2276
      2276      2279      2276      2453      2277      2282      2277      2278
      2278      2279      2279      2280      2280      2283      2280      2457
      2281      2282      2281      2286      2282      2283      2283      2284
      2284      2287      2284      2461      2285      2286      2285      2290
      2286      2287      2287      2288      2288      2291      2288      2465
      2289      2294      2289      2290      2290      2291      2291      2292
      2292      2295      2292      2469      2293      2298      2293      2294
      2294      2295      2295      2296      2296      2299      2296      2473
      2297      2302      2297      2298      2298      2299      2299      2300
      2300      2303      2300      2477      2301      2302      2301      2306
      2302      2303      2303      2304      2304      2307      2304      2481
      2305      2306      2305      2310      2306      2307      2307      2308
      2308      2311      2308      2485      2309      2314      2309      2310
      2310      2311      2311      2312      2312      2315      2312      2489
      2313      2318      2313      2314      2314      2315      2315      2316
      2316      2319      2316      2493      2317      2322      2317      2318
      2318      2319      2319      2320      2320      2323      2320      2497
      2321      2322      2321      2326      2322      2323      2323      2324
      2324      2327      2324      2501      2325      2326      2325      2330
      2326      2327      2327      2328      2328      2331      2328      2505
      2329      2334      2329      2330      2330      2331      2331      2332
      2332      2335      2332      2509      2333      2338      2333      2334
      2334      2335      2335      2336      2336      2339      2336      2513
      2337      2338      2338      2339      2339      2340      2340      2517
      2341      2342      2341      2346      2342      2343      2343      2344
      2344      2347      2344      2521      2345      2346      2345      2350
      2346      2347      2347      2348      2348      2351      2348      2525
      2349      2354      2349      2350      2350      2351      2351      2352
      2352      2355      2352      2529      2353      2358      2353      2354
      2354      2355      2355      2356      2356      2359      2356      2533
      2357      2362      2357      2358      2358      2359      2359      2360
      2360      2363      2360      2537      2361      2362      2361      2366
      2362      2363      2363      2364      2364      2367      2364      2541
      2365      2366      2365      2370      2366      2367      2367      2368
      2368      2371      2368      2545      2369      2374      2369      2370
      2370      2371      2371      2372      2372      2375      2372      2549
      2373      2378      2373      2374      2374      2375      2375      2376
      2376      2379      2376      2553      2377      2382      2377      2378
      2378      2379      2379      2380      2380      2383      2380      2557
      2381      2382      2381      2386      2382      2383      2383      2384
      2384      2387      2384      2561      2385      2386      2385      2390
      2386      2387      2387      2388      2388      2391      2388      2565
      2389      2394      2389      2390      2390      2391      2391      2392
      2392      2395      2392      2569      2393      2398      2393      2394
      2394      2395      2395      2396      2396      2399      2396      2573
      2397      2402      2397      2398      2398      2399      2399      2400
      2400      2403      2400      2577      2401      2402      2401      2406
      2402      2403      2403      2404      2404      2407      2404      2581
      2405      2406      2405      2410      2406      2407      2407      2408
      2408      2411      2408      2585      2409      2414      2409      2410
      2410      2411      2411      2412      2412      2415      2412      2589
      2413      2414      2413      2418      2414      2415      2415      2416
      2416      2419      2416      2593      2417      2422      2417      2418
      2418      2419      2419      2420      2420      2423      2420      2597
      2421      2422      2421      2426      2422      2423      2423      2424
      2424      2427      2424      2601      2425      2426      2425      2430
      2426      2427      2427      2428      2428      2431      2428      2605
      2429      2434      2429      2430      2430      2431      2431      2432
      2432      2435      2432      2609      2433      2438      2433      2434
      2434      2435      2435      2436      2436      2439      2436      2613
      2437      2442      2437      2438      2438      2439      2439      2440
      2440      2443      2440      2617      2441      2442      2441      2446
      2442      2443      2443      2444      2444      2447      2444      2621
      2445      2446      2445      2450      2446      2447      2447      2448
      2448      2451      2448      2625      2449      2454      2449      2450
      2450      2451      2451      2452      2452      2455      2452      2629
      2453      2458      2453      2454      2454      2455      2455      2456
      2456      2459      2456      2633      2457      2462      2457      2458
      2458      2459      2459      2460      2460      2463      2460      2637
      2461      2462      2461      2466      2462      2463      2463      2464
      2464      2467      2464      2641      2465      2466      2465      2470
      2466      2467      2467      2468      2468      2471      2468      2645
      2469      2474      2469      2470      2470      2471      2471      2472
      2472      2475      2472      2649      2473      2478      2473      2474
      2474      2475      2475      2476      2476      2479      2476      2653
      2477      2482      2477      2478      2478      2479      2479      2480
      2480      2483      2480      2657      2481      2482      2481      2486
      2482      2483      2483      2484      2484      2487      2484      2661
      2485      2486      2485      2490      2486      2487      2487      2488
      2488      2491      2488      2665      2489      2494      2489      2490
      2490      2491      2491      2492      2492      2495      2492      2669
      2493      2498      2493      2494      2494      2495      2495      2496
      2496      2499      2496      2673      2497      2502      2497      2498
      2498      2499      2499      2500      2500      2503      2500      2677
      2501      2502      2501      2506      2502      2503      2503      2504
      2504      2507      2504      2681      2505      2506      2505      2510
      2506      2507      2507      2508      2508      2511      2508      2685
      2509      2514      2509      2510      2510      2511      2511      2512
      2512      2515      2512      2689      2513      2518      2513      2514
      2514      2515      2515      2516      2516      2519      2516      2693
      2517      2518      2518      2519      2519      2520      2520      2697
      2521      2522      2521      2526      2522      2523      2523      2524
      2524      2527      2524      2701      2525      2526      2525      2530
      2526      2527      2527      2528      2528      2531      2528      2705
      2529      2534      2529      2530      2530      2531      2531      2532
      2532      2535      2532      2709      2533      2538      2533      2534
      2534      2535      2535      2536      2536      2539      2536      2713
      2537      2542      2537      2538      2538      2539      2539      2540
      2540      2543      2540      2717      2541      2542      2541      2546
      2542      2543      2543      2544      2544      2547      2544      2721
      2545      2546      2545      2550      2546      2547      2547      2548
      2548      2551      2548      2725      2549      2554      2549      2550
      2550      2551      2551      2552      2552      2555      2552      2729
      2553      2558      2553      2554      2554      2555      2555      2556
      2556      2559      2556      2733      2557      2562      2557      2558
      2558      2559      2559      2560      2560      2563      2560      2737
      2561      2562      2561      2566      2562      2563      2563      2564
      2564      2567      2564      2741      2565      2566      2565      2570
      2566      2567      2567      2568      2568      2571      2568      2745
      2569      2574      2569      2570      2570      2571      2571      2572
      2572      2575      2572      2749      2573      2578      2573      2574
      2574      2575      2575      2576      2576      2579      2576      2753
      2577      2582      2577      2578      2578      2579      2579      2580
      2580      2583      2580      2757      2581      2582      2581      2586
      2582      2583      2583      2584      2584      2587      2584      2761
      2585      2586      2585      2590      2586      2587      2587      2588
      2588      2591      2588      2765      2589      2594      2589      2590
      2590      2591      2591      2592      2592      2595      2592      2769
      2593      2598      2593      2594      2594      2595      2595      2596
      2596      2599      2596      2773      2597      2602      2597      2598
      2598      2599      2599      2600      2600      2603      2600      2777
      2601      2602      2601      2606      2602      2603      2603      2604
      2604      2607      2604      2781      2605      2606      2605      2610
      2606      2607      2607      2608      2608      2611      2608      2785
      2609      2614      2609      2610      2610      2611      2611      2612
      2612      2615      2612      2789      2613      2618      2613      2614
      2614      2615      2615      2616      2616      2619      2616      2793
      2617      2622      2617      2618      2618      2619      2619      2620
      2620      2623      2620      2797      2621      2622      2621      2626
      2622      2623      2623      2624      2624      2627      2624      2801
      2625      2626      2625      2630      2626      2627      2627      2628
      2628      2631      2628      2805      2629      2634      2629      2630
      2630      2631      2631      2632      2632      2635      2632      2809
      2633      2634      2633      2638      2634      2635      2635      2636
      2636      2639      2636      2813      2637      2642      2637      2638
      2638      2639      2639      2640      2640      2643      2640      2817
      2641      2642      2641      2646      2642      2643      2643      2644
      2644      2647      2644      2821      2645      2646      2645      2650
      2646      2647      2647      2648      2648      2651      2648      2825
      2649      2654      2649      2650      2650      2651      2651      2652
      2652      2655      2652      2829      2653      2658      2653      2654
      2654      2655      2655      2656      2656      2659      2656      2833
      2657      2662      2657      2658      2658      2659      2659      2660
      2660      2663      2660      2837      2661      2662      2661      2666
      2662      2663      2663      2664      2664      2667      2664      2841
      2665      2666      2665      2670      2666      2667      2667      2668
      2668      2671      2668      2845      2669      2674      2669      2670
      2670      2671      2671      2672      2672      2675      2672      2849
      2673      2678      2673      2674      2674      2675      2675      2676
      2676      2679      2676      2853      2677      2682      2677      2678
      2678      2679      2679      2680      2680      2683      2680      2857
      2681      2682      2681      2686      2682      2683      2683      2684
      2684      2687      2684      2861      2685      2686      2685      2690
      2686      2687      2687      2688      2688      2691      2688      2865
      2689      2694      2689      2690      2690      2691      2691      2692
      2692      2695      2692      2869      2693      2698      2693      2694
      2694      2695      2695      2696      2696      2699      2696      2873
      2697      2698      2698      2699      2699      2700      2700      2877
      2701      2702      2701      2706      2702      2703      2703      2704
      2704      2707      2704      2881      2705      2706      2705      2710
      2706      2707      2707      2708      2708      2711      2708      2885
      2709      2714      2709      2710      2710      2711      2711      2712
      2712      2715      2712      2889      2713      2718      2713      2714
      2714      2715      2715      2716      2716      2719      2716      2893
      2717      2722      2717      2718      2718      2719      2719      2720
      2720      2723      2720      2897      2721      2722      2721      2726
      2722      2723      2723      2724      2724      2727      2724      2901
      2725      2726      2725      2730      2726      2727      2727      2728
      2728      2731      2728      2905      2729      2734      2729      2730
      2730      2731      2731      2732      2732      2735      2732      2909
      2733      2738      2733      2734      2734      2735      2735      2736
      2736      2739      2736      2913      2737      2742      2737      2738
      2738      2739      2739      2740      2740      2743      2740      2917
      2741      2742      2741      2746      2742      2743      2743      2744
      2744      2747      2744      2921      2745      2746      2745      2750
      2746      2747      2747      2748      2748      2751      2748      2925
      2749      2754      2749      2750      2750      2751      2751      2752
      2752      2755      2752      2929      2753      2758      2753      2754
      2754      2755      2755      2756      2756      2759      2756      2933
      2757      2762      2757      2758      2758      2759      2759      2760
      2760      2763      2760      2937      2761      2762      2761      2766
      2762      2763      2763      2764      2764      2767      2764      2941
      2765      2766      2765      2770      2766      2767      2767      2768
      2768      2771      2768      2945      2769      2774      2769      2770
      2770      2771      2771      2772      2772      2775      2772      2949
      2773      2778      2773      2774      2774      2775      2775      2776
      2776      2779      2776      2953      2777      2782      2777      2778
      2778      2779      2779      2780      2780      2783      2780      2957
      2781      2782      2781      2786      2782      2783      2783      2784
      2784      2787      2784      2961      2785      2786      2785      2790
      2786      2787      2787      2788      2788      2791      2788      2965
      2789      2794      2789      2790      2790      2791      2791      2792
      2792      2795      2792      2969      2793      2798      2793      2794
      2794      2795      2795      2796      2796      2799      2796      2973
      2797      2802      2797      2798      2798      2799      2799      2800
      2800      2803      2800      2977      2801      2802      2801      2806
      2802      2803      2803      2804      2804      2807      2804      2981
      2805      2806      2805      2810      2806      2807      2807      2808
      2808      2811      2808      2985      2809      2814      2809      2810
      2810      2811      2811      2812      2812      2815      2812      2989
      2813      2818      2813      2814      2814      2815      2815      2816
      2816      2819      2816      2993      2817      2822      2817      2818
      2818      2819      2819      2820      2820      2823      2820      2997
      2821      2822      2821      2826      2822      2823      2823      2824
      2824      2827      2824      3001      2825      2826      2825      2830
      2826      2827      2827      2828      2828      2831      2828      3005
      2829      2834      2829      2830      2830      2831      2831      2832
      2832      2835      2832      3009      2833      2838      2833      2834
      2834      2835      2835      2836      2836      2839      2836      3013
      2837      2842      2837      2838      2838      2839      2839      2840
      2840      2843      2840      3017      2841      2842      2841      2846
      2842      2843      2843      2844      2844      2847      2844      3021
      2845      2846      2845      2850      2846      2847      2847      2848
      2848      2851      2848      3025      2849      2854      2849      2850
      2850      2851      2851      2852      2852      2855      2852      3029
      2853      2854      2853      2858      2854      2855      2855      2856
      2856      2859      2856      3033      2857      2862      2857      2858
      2858      2859      2859      2860      2860      2863      2860      3037
      2861      2862      2861      2866      2862      2863      2863      2864
      2864      2867      2864      3041      2865      2866      2865      2870
      2866      2867      2867      2868      2868      2871      2868      3045
      2869      2874      2869      2870      2870      2871      2871      2872
      2872      2875      2872      3049      2873      2878      2873      2874
      2874      2875      2875      2876      2876      2879      2876      3053
      2877      2878      2878      2879      2879      2880      2880      3057
      2881      2882      2881      2886      2882      2883      2883      2884
      2884      2887      2884      3061      2885      2886      2885      2890
      2886      2887      2887      2888      2888      2891      2888      3065
      2889      2894      2889      2890      2890      2891      2891      2892
      2892      2895      2892      3069      2893      2898      2893      2894
      2894      2895      2895      2896      2896      2899      2896      3073
      2897      2902      2897      2898      2898      2899      2899      2900
      2900      2903      2900      3077      2901      2902      2901      2906
      2902      2903      2903      2904      2904      2907      2904      3081
      2905      2906      2905      2910      2906      2907      2907      2908
      2908      2911      2908      3085      2909      2914      2909      2910
      2910      2911      2911      2912      2912      2915      2912      3089
      2913      2918      2913      2914      2914      2915      2915      2916
      2916      2919      2916      3093      2917      2922      2917      2918
      2918      2919      2919      2920      2920      2923      2920      3097
      2921      2922      2921      2926      2922      2923      2923      2924
      2924      2927      2924      3101      2925      2926      2925      2930
      2926      2927      2927      2928      2928      2931      2928      3105
      2929      2934      2929      2930      2930      2931      2931      2932
      2932      2935      2932      3109      2933      2938      2933      2934
      2934      2935      2935      2936      2936      2939      2936      3113
      2937      2942      2937      2938      2938      2939      2939      2940
      2940      2943      2940      3117      2941      2942      2941      2946
      2942      2943      2943      2944      2944      2947      2944      3121
      2945      2946      2945      2950      2946      2947      2947      2948
      2948      2951      2948      3125      2949      2954      2949      2950
      2950      2951      2951      2952      2952      2955      2952      3129
      2953      2958      2953      2954      2954      2955      2955      2956
      2956      2959      2956      3133      2957      2962      2957      2958
      2958      2959      2959      2960      2960      2963      2960      3137
      2961      2962      2961      2966      2962      2963      2963      2964
      2964      2967      2964      3141      2965      2966      2965      2970
      2966      2967      2967      2968      2968      2971      2968      3145
      2969      2974      2969      2970      2970      2971      2971      2972
      2972      2975      2972      3149      2973      2978      2973      2974
      2974      2975      2975      2976      2976      2979      2976      3153
      2977      2982      2977      2978      2978      2979      2979      2980
      2980      2983      2980      3157      2981      2982      2981      2986
      2982      2983      2983      2984      2984      2987      2984      3161
      2985      2986      2985      2990      2986      2987      2987      2988
      2988      2991      2988      3165      2989      2994      2989      2990
      2990      2991      2991      2992      2992      2995      2992      3169
      2993      2998      2993      2994      2994      2995      2995      2996
      2996      2999      2996      3173      2997      3002      2997      2998
      2998      2999      2999      3000      3000      3003      3000      3177
      3001      3002      3001      3006      3002      3003      3003      3004
      3004      3007      3004      3181      3005      3006      3005      3010
      3006      3007      3007      3008      3008      3011      3008      3185
      3009      3014      3009      3010      3010      3011      3011      3012
      3012      3015      3012      3189      3013      3018      3013      3014
      3014      3015      3015      3016      3016      3019      3016      3193
      3017      3022      3017      3018      3018      3019      3019      3020
      3020      3023      3020      3197      3021      3022      3021      3026
      3022      3023      3023      3024      3024      3027      3024      3201
      3025      3026      3025      3030      3026      3027      3027      3028
      3028      3031      3028      3205      3029      3034      3029      3030
      3030      3031      3031      3032      3032      3035      3032      3209
      3033      3038      3033      3034      3034      3035      3035      3036
      3036      3039      3036      3213      3037      3042      3037      3038
      3038      3039      3039      3040      3040      3043      3040      3217
      3041      3042      3041      3046      3042      3043      3043      3044
      3044      3047      3044      3221      3045      3046      3045      3050
      3046      3047      3047      3048      3048      3051      3048      3225
      3049      3054      3049      3050      3050      3051      3051      3052
      3052      3055      3052      3229      3053      3058      3053      3054
      3054      3055      3055      3056      3056      3059      3056      3233
      3057      3058      3058      3059      3059      3060      3060      3237
      3061      3062      3061      3066      3062      3063      3063      3064
      3064      3067      3064      3241      3065      3066      3065      3070
      3066      3067      3067      3068      3068      3071      3068      3245
      3069      3074      3069      3070      3070      3071      3071      3072
      3072      3075      3072      3249      3073      3078      3073      3074
      3074      3075      3075      3076      3076      3079      3076      3253
      3077      3082      3077      3078      3078      3079      3079      3080
      3080      3083      3080      3257      3081      3082      3081      3086
      3082      3083      3083      3084      3084      3087      3084      3261
      3085      3086      3085      3090      3086      3087      3087      3088
      3088      3091      3088      3265      3089      3094      3089      3090
      3090      3091      3091      3092      3092      3095      3092      3269
      3093      3094      3093      3098      3094      3095      3095      3096
      3096      3099      3096      3273      3097      3102      3097      3098
      3098      3099      3099      3100      3100      3103      3100      3277
      3101      3102      3101      3106      3102      3103      3103      3104
      3104      3107      3104      3281      3105      3106      3105      3110
      3106      3107      3107      3108      3108      3111      3108      3285
      3109      3114      3109      3110      3110      3111      3111      3112
      3112      3115      3112      3289      3113      3118      3113      3114
      3114      3115      3115      3116      3116      3119      3116      3293
      3117      3122      3117      3118      3118      3119      3119      3120
      3120      3123      3120      3297      3121      3122      3121      3126
      3122      3123      3123      3124      3124      3127      3124      3301
      3125      3126      3125      3130      3126      3127      3127      3128
      3128      3131      3128      3305      3129      3134      3129      3130
      3130      3131      3131      3132      3132      3135      3132      3309
      3133      3138      3133      3134      3134      3135      3135      3136
      3136      3139      3136      3313      3137      3142      3137      3138
      3138      3139      3139      3140      3140      3143      3140      3317
      3141      3142      3141      3146      3142      3143      3143      3144
      3144      3147      3144      3321      3145      3146      3145      3150
      3146      3147      3147      3148      3148      3151      3148      3325
      3149      3154      3149      3150      3150      3151      3151      3152
      3152      3155      3152      3329      3153      3158      3153      3154
      3154      3155      3155      3156      3156      3159      3156      3333
      3157      3162      3157      3158      3158      3159      3159      3160
      3160      3163      3160      3337      3161      3162      3161      3166
      3162      3163      3163      3164      3164      3167      3164      3341
      3165      3166      3165      3170      3166      3167      3167      3168
      3168      3171      3168      3345      3169      3174      3169      3170
      3170      3171      3171      3172      3172      3175      3172      3349
      3173      3178      3173      3174      3174      3175      3175      3176
      3176      3179      3176      3353      3177      3182      3177      3178
      3178      3179      3179      3180      3180      3183      3180      3357
      3181      3182      3181      3186      3182      3183      3183      3184
      3184      3187      3184      3361      3185      3186      3185      3190
      3186      3187      3187      3188      3188      3191      3188      3365
      3189      3194      3189      3190      3190      3191      3191      3192
      3192      3195      3192      3369      3193      3198      3193      3194
      3194      3195      3195      3196      3196      3199      3196      3373
      3197      3202      3197      3198      3198      3199      3199      3200
      3200      3203      3200      3377      3201      3202      3201      3206
      3202      3203      3203      3204      3204      3207      3204      3381
      3205      3206      3205      3210      3206      3207      3207      3208
      3208      3211      3208      3385      3209      3214      3209      3210
      3210      3211      3211      3212      3212      3215      3212      3389
      3213      3218      3213      3214      3214      3215      3215      3216
      3216      3219      3216      3393      3217      3222      3217      3218
      3218      3219      3219      3220      3220      3223      3220      3397
      3221      3222      3221      3226      3222      3223      3223      3224
      3224      3227      3224      3401      3225      3226      3225      3230
      3226      3227      3227      3228      3228      3231      3228      3405
      3229      3234      3229      3230      3230      3231      3231      3232
      3232      3235      3232      3409      3233      3238      3233      3234
      3234      3235      3235      3236      3236      3239      3236      3413
      3237      3238      3238      3239      3239      3240      3240      3417
      3241      3242      3241      3246      3242      3243      3243      3244
      3244      3247      3244      3421      3245      3246      3245      3250
      3246      3247      3247      3248      3248      3251      3248      3425
      3249      3254      3249      3250      3250      3251      3251      3252
      3252      3255      3252      3429      3253      3258      3253      3254
      3254      3255      3255      3256      3256      3259      3256      3433
      3257      3262      3257      3258      3258      3259      3259      3260
      3260      3263      3260      3437      3261      3262      3261      3266
      3262      3263      3263      3264      3264      3267      3264      3441
      3265      3266      3265      3270      3266      3267      3267      3268
      3268      3271      3268      3445      3269      3274      3269      3270
      3270      3271      3271      3272      3272      3275      3272      3449
      3273      3278      3273      3274      3274      3275      3275      3276
      3276      3279      3276      3453      3277      3282      3277      3278
      3278      3279      3279      3280      3280      3283      3280      3457
      3281      3282      3281      3286      3282      3283      3283      3284
      3284      3287      3284      3461      3285      3286      3285      3290
      3286      3287      3287      3288      3288      3291      3288      3465
      3289      3294      3289      3290      3290      3291      3291      3292
      3292      3295      3292      3469      3293      3298      3293      3294
      3294      3295      3295      3296      3296      3299      3296      3473
      3297      3302      3297      3298      3298      3299      3299      3300
      3300      3303      3300      3477      3301      3302      3301      3306
      3302      3303      3303      3304      3304      3307      3304      3481
      3305      3306      3305      3310      3306      3307      3307      3308
      3308      3311      3308      3485      3309      3314      3309      3310
      3310      3311      3311      3312      3312      3315      3312      3489
      3313      3314      3313      3318      3314      3315      3315      3316
      3316      3319      3316      3493      3317      3322      3317      3318
      3318      3319      3319      3320      3320      3323      3320      3497
      3321      3322      3321      3326      3322      3323      3323      3324
      3324      3327      3324      3501      3325      3326      3325      3330
      3326      3327      3327      3328      3328      3331      3328      3505
      3329      3334      3329      3330      3330      3331      3331      3332
      3332      3335      3332      3509      3333      3338      3333      3334
      3334      3335      3335      3336      3336      3339      3336      3513
      3337      3342      3337      3338      3338      3339      3339      3340
      3340      3343      3340      3517      3341      3342      3341      3346
      3342      3343      3343      3344      3344      3347      3344      3521
      3345      3346      3345      3350      3346      3347      3347      3348
      3348      3351      3348      3525      3349      3354      3349      3350
      3350      3351      3351      3352      3352      3355      3352      3529
      3353      3358      3353      3354      3354      3355      3355      3356
      3356      3359      3356      3533      3357      3362      3357      3358
      3358      3359      3359      3360      3360      3363      3360      3537
      3361      3362      3361      3366      3362      3363      3363      3364
      3364      3367      3364      3541      3365      3366      3365      3370
      3366      3367      3367      3368      3368      3371      3368      3545
      3369      3374      3369      3370      3370      3371      3371      3372
      3372      3375      3372      3549      3373      3378      3373      3374
      3374      3375      3375      3376      3376      3379      3376      3553
      3377      3382      3377      3378      3378      3379      3379      3380
      3380      3383      3380      3557      3381      3382      3381      3386
      3382      3383      3383      3384      3384      3387      3384      3561
      3385      3386      3385      3390      3386      3387      3387      3388
      3388      3391      3388      3565      3389      3394      3389      3390
      3390      3391      3391      3392      3392      3395      3392      3569
      3393      3398      3393      3394      3394      3395      3395      3396
      3396      3399      3396      3573      3397      3402      3397      3398
      3398      3399      3399      3400      3400      3403      3400      3577
      3401      3402      3401      3406      3402      3403      3403      3404
      3404      3407      3404      3581      3405      3406      3405      3410
      3406      3407      3407      3408      3408      3411      3408      3585
      3409      3414      3409      3410      3410      3411      3411      3412
      3412      3415      3412      3589      3413      3418      3413      3414
      3414      3415      3415      3416      3416      3419      3416      3593
      3417      3418      3418      3419      3419      3420      3420      3597
      3421      3422      3421      3426      3422      3423      3423      3424
      3424      3427      3424      3601      3425      3426      3425      3430
      3426      3427      3427      3428      3428      3431      3428      3605
      3429      3434      3429      3430      3430      3431      3431      3432
      3432      3435      3432      3609      3433      3438      3433      3434
      3434      3435      3435      3436      3436      3439      3436      3613
      3437      3442      3437      3438      3438      3439      3439      3440
      3440      3443      3440      3617      3441      3442      3441      3446
      3442      3443      3443      3444      3444      3447      3444      3621
      3445      3446      3445      3450      3446      3447      3447      3448
      3448      3451      3448      3625      3449      3454      3449      3450
      3450      3451      3451      3452      3452      3455      3452      3629
      3453      3458      3453      3454      3454      3455      3455      3456
      3456      3459      3456      3633      3457      3462      3457      3458
      3458      3459      3459      3460      3460      3463      3460      3637
      3461      3462      3461      3466      3462      3463      3463      3464
      3464      3467      3464      3641      3465      3466      3465      3470
      3466      3467      3467      3468      3468      3471      3468      3645
      3469      3474      3469      3470      3470      3471      3471      3472
      3472      3475      3472      3649      3473      3478      3473      3474
      3474      3475      3475      3476      3476      3479      3476      3653
      3477      3482      3477      3478      3478      3479      3479      3480
      3480      3483      3480      3657      3481      3482      3481      3486
      3482      3483      3483      3484      3484      3487      3484      3661
      3485      3486      3485      3490      3486      3487      3487      3488
      3488      3491      3488      3665      3489      3494      3489      3490
      3490      3491      3491      3492      3492      3495      3492      3669
      3493      3498      3493      3494      3494      3495      3495      3496
      3496      3499      3496      3673      3497      3502      3497      3498
      3498      3499      3499      3500      3500      3503      3500      3677
      3501      3502      3501      3506      3502      3503      3503      3504
      3504      3507      3504      3681      3505      3506      3505      3510
      3506      3507      3507      3508      3508      3511      3508      3685
      3509      3514      3509      3510      3510      3511      3511      3512
      3512      3515      3512      3689      3513      3518      3513      3514
      3514      3515      3515      3516      3516      3519      3516      3693
      3517      3522      3517      3518      3518      3519      3519      3520
      3520      3523      3520      3697      3521      3522      3521      3526
      3522      3523      3523      3524      3524      3527      3524      3701
      3525      3526      3525      3530      3526      3527      3527      3528
      3528      3531      3528      3705      3529      3534      3529      3530
      3530      3531      3531      3532      3532      3535      3532      3709
      3533      3534      3533      3538      3534      3535      3535      3536
      3536      3539      3536      3713      3537      3542      3537      3538
      3538      3539      3539      3540      3540      3543      3540      3717
      3541      3542      3541      3546      3542      3543      3543      3544
      3544      3547      3544      3721      3545      3546      3545      3550
      3546      3547      3547      3548      3548      3551      3548      3725
      3549      3554      3549      3550      3550      3551      3551      3552
      3552      3555      3552      3729      3553      3558      3553      3554
      3554      3555      3555      3556      3556      3559      3556      3733
      3557      3562      3557      3558      3558      3559      3559      3560
      3560      3563      3560      3737      3561      3562      3561      3566
      3562      3563      3563      3564      3564      3567      3564      3741
      3565      3566      3565      3570      3566      3567      3567      3568
      3568      3571      3568      3745      3569      3574      3569      3570
      3570      3571      3571      3572      3572      3575      3572      3749
      3573      3578      3573      3574      3574      3575      3575      3576
      3576      3579      3576      3753      3577      3582      3577      3578
      3578      3579      3579      3580      3580      3583      3580      3757
      3581      3582      3581      3586      3582      3583      3583      3584
      3584      3587      3584      3761      3585      3586      3585      3590
      3586      3587      3587      3588      3588      3591      3588      3765
      3589      3594      3589      3590      3590      3591      3591      3592
      3592      3595      3592      3769      3593      3598      3593      3594
      3594      3595      3595      3596      3596      3599      3596      3773
      3597      3598      3598      3599      3599      3600      3600      3777
      3601      3602      3601      3606      3602      3603      3603      3604
      3604      3781      3604      3607      3605      3606      3605      3610
      3606      3607      3607      3608      3608      3785      3608      3611
      3609      3614      3609      3610      3610      3611      3611      3612
      3612      3615      3612      3789      3613      3618      3613      3614
      3614      3615      3615      3616      3616      3619      3616      3793
      3617      3622      3617      3618      3618      3619      3619      3620
      3620      3797      3620      3623      3621      3622      3621      3626
      3622      3623      3623      3624      3624      3801      3624      3627
      3625      3626      3625      3630      3626      3627      3627      3628
      3628      3805      3628      3631      3629      3630      3629      3634
      3630      3631      3631      3632      3632      3635      3632      3809
      3633      3634      3633      3638      3634      3635      3635      3636
      3636      3639      3636      3813      3637      3638      3637      3642
      3638      3639      3639      3640      3640      3817      3640      3643
      3641      3642      3641      3646      3642      3643      3643      3644
      3644      3821      3644      3647      3645      3646      3645      3650
      3646      3647      3647      3648      3648      3825      3648      3651
      3649      3654      3649      3650      3650      3651      3651      3652
      3652      3829      3652      3655      3653      3658      3653      3654
      3654      3655      3655      3656      3656      3833      3656      3659
      3657      3662      3657      3658      3658      3659      3659      3660
      3660      3837      3660      3663      3661      3662      3661      3666
      3662      3663      3663      3664      3664      3841      3664      3667
      3665      3666      3665      3670      3666      3667      3667      3668
      3668      3845      3668      3671      3669      3674      3669      3670
      3670      3671      3671      3672      3672      3675      3672      3849
      3673      3678      3673      3674      3674      3675      3675      3676
      3676      3679      3676      3853      3677      3682      3677      3678
      3678      3679      3679      3680      3680      3857      3680      3683
      3681      3682      3681      3686      3682      3683      3683      3684
      3684      3861      3684      3687      3685      3686      3685      3690
      3686      3687      3687      3688      3688      3865      3688      3691
      3689      3690      3689      3694      3690      3691      3691      3692
      3692      3695      3692      3869      3693      3694      3693      3698
      3694      3695      3695      3696      3696      3699      3696      3873
      3697      3698      3697      3702      3698      3699      3699      3700
      3700      3877      3700      3703      3701      3702      3701      3706
      3702      3703      3703      3704      3704      3881      3704      3707
      3705      3706      3705      3710      3706      3707      3707      3708
      3708      3885      3708      3711      3709      3714      3709      3710
      3710      3711      3711      3712      3712      3889      3712      3715
      3713      3718      3713      3714      3714      3715      3715      3716
      3716      3893      3716      3719      3717      3722      3717      3718
      3718      3719      3719      3720      3720      3897      3720      3723
      3721      3722      3721      3726      3722      3723      3723      3724
      3724      3901      3724      3727      3725      3726      3725      3730
      3726      3727      3727      3728      3728      3905      3728      3731
      3729      3734      3729      3730      3730      3731      3731      3732
      3732      3735      3732      3909      3733      3738      3733      3734
      3734      3735      3735      3736      3736      3739      3736      3913
      3737      3742      3737      3738      3738      3739      3739      3740
      3740      3917      3740      3743      3741      3742      3741      3746
      3742      3743      3743      3744      3744      3921      3744      3747
      3745      3746      3745      3750      3746      3747      3747      3748
      3748      3925      3748      3751      3749      3754      3749      3750
      3750      3751      3751      3752      3752      3755      3752      3929
      3753      3754      3753      3758      3754      3755      3755      3756
      3756      3759      3756      3933      3757      3758      3757      3762
      3758      3759      3759      3760      3760      3937      3760      3763
      3761      3762      3761      3766      3762      3763      3763      3764
      3764      3941      3764      3767      3765      3766      3765      3770
      3766      3767      3767      3768      3768      3945      3768      3771
      3769      3770      3769      3774      3770      3771      3771      3772
      3772      3775      3772      3949      3773      3774      3773      3778
      3774      3775      3775      3776      3776      3953      3776      3779
      3777      3778      3778      3779      3779      3780      3780      3957
      3781      3782      3781      3786      3782      3783      3783      3784
      3784      3961      3784      3787      3785      3786      3785      3790
      3786      3787      3787      3788      3788      3965      3788      3791
      3789      3790      3789      3794      3790      3791      3791      3792
      3792      3795      3792      3969      3793      3794      3793      3798
      3794      3795      3795      3796      3796      3973      3796      3799
      3797      3802      3797      3798      3798      3799      3799      3800
      3800      3977      3800      3803      3801      3802      3801      3806
      3802      3803      3803      3804      3804      3981      3804      3807
      3805      3806      3805      3810      3806      3807      3807      3808
      3808      3985      3808      3811      3809      3814      3809      3810
      3810      3811      3811      3812      3812      3989      3812      3815
      3813      3818      3813      3814      3814      3815      3815      3816
      3816      3819      3816      3993      3817      3822      3817      3818
      3818      3819      3819      3820      3820      3997      3820      3823
      3821      3822      3821      3826      3822      3823      3823      3824
      3824      4001      3824      3827      3825      3826      3825      3830
      3826      3827      3827      3828      3828      4005      3828      3831
      3829      3834      3829      3830      3830      3831      3831      3832
      3832      3835      3832      4009      3833      3838      3833      3834
      3834      3835      3835      3836      3836      3839      3836      4013
      3837      3842      3837      3838      3838      3839      3839      3840
      3840      4017      3840      3843      3841      3842      3841      3846
      3842      3843      3843      3844      3844      4021      3844      3847
      3845      3846      3845      3850      3846      3847      3847      3848
      3848      4025      3848      3851      3849      3850      3849      3854
      3850      3851      3851      3852      3852      3855      3852      4029
      3853      3854      3853      3858      3854      3855      3855      3856
      3856      3859      3856      4033      3857      3858      3857      3862
      3858      3859      3859      3860      3860      4037      3860      3863
      3861      3862      3861      3866      3862      3863      3863      3864
      3864      4041      3864      3867      3865      3866      3865      3870
      3866      3867      3867      3868      3868      4045      3868      3871
      3869      3874      3869      3870      3870      3871      3871      3872
      3872      4049      3872      3875      3873      3878      3873      3874
      3874      3875      3875      3876      3876      4053      3876      3879
      3877      3882      3877      3878      3878      3879      3879      3880
      3880      4057      3880      3883      3881      3882      3881      3886
      3882      3883      3883      3884      3884      4061      3884      3887
      3885      3886      3885      3890      3886      3887      3887      3888
      3888      4065      3888      3891      3889      3894      3889      3890
      3890      3891      3891      3892      3892      3895      3892      4069
      3893      3898      3893      3894      3894      3895      3895      3896
      3896      3899      3896      4073      3897      3902      3897      3898
      3898      3899      3899      3900      3900      4077      3900      3903
      3901      3902      3901      3906      3902      3903      3903      3904
      3904      4081      3904      3907      3905      3906      3905      3910
      3906      3907      3907      3908      3908      4085      3908      3911
      3909      3910      3909      3914      3910      3911      3911      3912
      3912      3915      3912      4089      3913      3914      3913      3918
      3914      3915      3915      3916      3916      3919      3916      4093
      3917      3918      3917      3922      3918      3919      3919      3920
      3920      4097      3920      3923      3921      3922      3921      3926
      3922      3923      3923      3924      3924      4101      3924      3927
      3925      3926      3925      3930      3926      3927      3927      3928
      3928      4105      3928      3931      3929      3934      3929      3930
      3930      3931      3931      3932      3932      4109      3932      3935
      3933      3938      3933      3934      3934      3935      3935      3936
      3936      4113      3936      3939      3937      3942      3937      3938
      3938      3939      3939      3940      3940      4117      3940      3943
      3941      3942      3941      3946      3942      3943      3943      3944
      3944      4121      3944      3947      3945      3946      3945      3950
      3946      3947      3947      3948      3948      4125      3948      3951
      3949      3954      3949      3950      3950      3951      3951      3952
      3952      3955      3952      4129      3953      3958      3953      3954
      3954      3955      3955      3956      3956      3959      3956      4133
      3957      3958      3958      3959      3959      3960      3960      4137
      3961      3962      3961      3966      3962      3963      3963      3964
      3964      4141      3964      3967      3965      3966      3965      3970
      3966      3967      3967      3968      3968      4145      3968      3971
      3969      3974      3969      3970      3970      3971      3971      3972
      3972      3975      3972      4149      3973      3978      3973      3974
      3974      3975      3975      3976      3976      3979      3976      4153
      3977      3982      3977      3978      3978      3979      3979      3980
      3980      4157      3980      3983      3981      3982      3981      3986
      3982      3983      3983      3984      3984      4161      3984      3987
      3985      3986      3985      3990      3986      3987      3987      3988
      3988      4165      3988      3991      3989      3994      3989      3990
      3990      3991      3991      3992      3992      3995      3992      4169
      3993      3994      3993      3998      3994      3995      3995      3996
      3996      3999      3996      4173      3997      3998      3997      4002
      3998      3999      3999      4000      4000      4177      4000      4003
      4001      4002      4001      4006      4002      4003      4003      4004
      4004      4181      4004      4007      4005      4006      4005      4010
      4006      4007      4007      4008      4008      4185      4008      4011
      4009      4010      4009      4014      4010      4011      4011      4012
      4012      4015      4012      4189      4013      4014      4013      4018
      4014      4015      4015      4016      4016      4193      4016      4019
      4017      4022      4017      4018      4018      4019      4019      4020
      4020      4197      4020      4023      4021      4022      4021      4026
      4022      4023      4023      4024      4024      4201      4024      4027
      4025      4026      4025      4030      4026      4027      4027      4028
      4028      4205      4028      4031      4029      4034      4029      4030
      4030      4031      4031      4032      4032      4209      4032      4035
      4033      4038      4033      4034      4034      4035      4035      4036
      4036      4039      4036      4213      4037      4042      4037      4038
      4038      4039      4039      4040      4040      4217      4040      4043
      4041      4042      4041      4046      4042      4043      4043      4044
      4044      4221      4044      4047      4045      4046      4045      4050
      4046      4047      4047      4048      4048      4225      4048      4051
      4049      4054      4049      4050      4050      4051      4051      4052
      4052      4055      4052      4229      4053      4058      4053      4054
      4054      4055      4055      4056      4056      4059      4056      4233
      4057      4062      4057      4058      4058      4059      4059      4060
      4060      4237      4060      4063      4061      4062      4061      4066
      4062      4063      4063      4064      4064      4241      4064      4067
      4065      4066      4065      4070      4066      4067      4067      4068
      4068      4245      4068      4071      4069      4070      4069      4074
      4070      4071      4071      4072      4072      4075      4072      4249
      4073      4074      4073      4078      4074      4075      4075      4076
      4076      4079      4076      4253      4077      4078      4077      4082
      4078      4079      4079      4080      4080      4257      4080      4083
      4081      4082      4081      4086      4082      4083      4083      4084
      4084      4261      4084      4087      4085      4086      4085      4090
      4086      4087      4087      4088      4088      4265      4088      4091
      4089      4094      4089      4090      4090      4091      4091      4092
      4092      4269      4092      4095      4093      4098      4093      4094
      4094      4095      4095      4096      4096      4273      4096      4099
      4097      4102      4097      4098      4098      4099      4099      4100
      4100      4277      4100      4103      4101      4102      4101      4106
      4102      4103      4103      4104      4104      4281      4104      4107
      4105      4106      4105      4110      4106      4107      4107      4108
      4108      4285      4108      4111      4109      4114      4109      4110
      4110      4111      4111      4112      4112      4115      4112      4289
      4113      4118      4113      4114      4114      4115      4115      4116
      4116      4119      4116      4293      4117      4122      4117      4118
      4118      4119      4119      4120      4120      4297      4120      4123
      4121      4122      4121      4126      4122      4123      4123      4124
      4124      4301      4124      4127      4125      4126      4125      4130
      4126      4127      4127      4128      4128      4305      4128      4131
      4129      4130      4129      4134      4130      4131      4131      4132
      4132      4135      4132      4309      4133      4134      4133      4138
      4134      4135      4135      4136      4136      4139      4136      4313
      4137      4138      4138      4139      4139      4140      4140      4317
      4141      4142      4141      4146      4142      4143      4143      4144
      4144      4321      4144      4147      4145      4146      4145      4150
      4146      4147      4147      4148      4148      4325      4148      4151
      4149      4150      4149      4154      4150      4151      4151      4152
      4152      4155      4152      4329      4153      4154      4153      4158
      4154      4155      4155      4156      4156      4159      4156      4333
      4157      4158      4157      4162      4158      4159      4159      4160
      4160      4337      4160      4163      4161      4162      4161      4166
      4162      4163      4163      4164      4164      4341      4164      4167
      4165      4166      4165      4170      4166      4167      4167      4168
      4168      4345      4168      4171      4169      4174      4169      4170
      4170      4171      4171      4172      4172      4349      4172      4175
      4173      4178      4173      4174      4174      4175      4175      4176
      4176      4353      4176      4179      4177      4182      4177      4178
      4178      4179      4179      4180      4180      4357      4180      4183
      4181      4182      4181      4186      4182      4183      4183      4184
      4184      4361      4184      4187      4185      4186      4185      4190
      4186      4187      4187      4188      4188      4365      4188      4191
      4189      4194      4189      4190      4190      4191      4191      4192
      4192      4195      4192      4369      4193      4198      4193      4194
      4194      4195      4195      4196      4196      4199      4196      4373
      4197      4202      4197      4198      4198      4199      4199      4200
      4200      4377      4200      4203      4201      4202      4201      4206
      4202      4203      4203      4204      4204      4381      4204      4207
      4205      4206      4205      4210      4206      4207      4207      4208
      4208      4385      4208      4211      4209      4214      4209      4210
      4210      4211      4211      4212      4212      4215      4212      4389
      4213      4214      4213      4218      4214      4215      4215      4216
      4216      4219      4216      4393      4217      4218      4217      4222
      4218      4219      4219      4220      4220      4397      4220      4223
      4221      4222      4221      4226      4222      4223      4223      4224
      4224      4401      4224      4227      4225      4226      4225      4230
      4226      4227      4227      4228      4228      4405      4228      4231
      4229      4230      4229      4234      4230      4231      4231      4232
      4232      4235      4232      4409      4233      4234      4233      4238
      4234      4235      4235      4236      4236      4413      4236      4239
      4237      4242      4237      4238      4238      4239      4239      4240
      4240      4417      4240      4243      4241      4242      4241      4246
      4242      4243      4243      4244      4244      4421      4244      4247
      4245      4246      4245      4250      4246      4247      4247      4248
      4248      4425      4248      4251      4249      4254      4249      4250
      4250      4251      4251      4252      4252      4429      4252      4255
      4253      4258      4253      4254      4254      4255      4255      4256
      4256      4259      4256      4433      4257      4262      4257      4258
      4258      4259      4259      4260      4260      4437      4260      4263
      4261      4262      4261      4266      4262      4263      4263      4264
      4264      4441      4264      4267      4265      4266      4265      4270
      4266      4267      4267      4268      4268      4445      4268      4271
      4269      4274      4269      4270      4270      4271      4271      4272
      4272      4275      4272      4449      4273      4278      4273      4274
      4274      4275      4275      4276      4276      4279      4276      4453
      4277      4282      4277      4278      4278      4279      4279      4280
      4280      4457      4280      4283      4281      4282      4281      4286
      4282      4283      4283      4284      4284      4461      4284      4287
      4285      4286      4285      4290      4286      4287      4287      4288
      4288      4465      4288      4291      4289      4290      4289      4294
      4290      4291      4291      4292      4292      4295      4292      4469
      4293      4294      4293      4298      4294      4295      4295      4296
      4296      4299      4296      4473      4297      4298      4297      4302
      4298      4299      4299      4300      4300      4477      4300      4303
      4301      4302      4301      4306      4302      4303      4303      4304
      4304      4481      4304      4307      4305      4306      4305      4310
      4306      4307      4307      4308      4308      4485      4308      4311
      4309      4314      4309      4310      4310      4311      4311      4312
      4312      4489      4312      4315      4313      4318      4313      4314
      4314      4315      4315      4316      4316      4493      4316      4319
      4317      4318      4318      4319      4319      4320      4320      4497
      4321      4322      4321      4326      4322      4323      4323      4324
      4324      4327      4324      4501      4325      4326      4325      4330
      4326      4327      4327      4328      4328      4331      4328      4505
      4329      4334      4329      4330      4330      4331      4331      4332
      4332      4335      4332      4509      4333      4338      4333      4334
      4334      4335      4335      4336      4336      4339      4336      4513
      4337      4342      4337      4338      4338      4339      4339      4340
      4340      4343      4340      4517      4341      4342      4341      4346
      4342      4343      4343      4344      4344      4347      4344      4521
      4345      4346      4345      4350      4346      4347      4347      4348
      4348      4351      4348      4525      4349      4354      4349      4350
      4350      4351      4351      4352      4352      4355      4352      4529
      4353      4358      4353      4354      4354      4355      4355      4356
      4356      4359      4356      4533      4357      4362      4357      4358
      4358      4359      4359      4360      4360      4363      4360      4537
      4361      4362      4361      4366      4362      4363      4363      4364
      4364      4367      4364      4541      4365      4366      4365      4370
      4366      4367      4367      4368      4368      4371      4368      4545
      4369      4374      4369      4370      4370      4371      4371      4372
      4372      4375      4372      4549      4373      4378      4373      4374
      4374      4375      4375      4376      4376      4379      4376      4553
      4377      4382      4377      4378      4378      4379      4379      4380
      4380      4383      4380      4557      4381      4382      4381      4386
      4382      4383      4383      4384      4384      4387      4384      4561
      4385      4386      4385      4390      4386      4387      4387      4388
      4388      4391      4388      4565      4389      4394      4389      4390
      4390      4391      4391      4392      4392      4395      4392      4569
      4393      4398      4393      4394      4394      4395      4395      4396
      4396      4399      4396      4573      4397      4402      4397      4398
      4398      4399      4399      4400      4400      4403      4400      4577
      4401      4402      4401      4406      4402      4403      4403      4404
      4404      4407      4404      4581      4405      4406      4405      4410
      4406      4407      4407      4408      4408      4411      4408      4585
      4409      4414      4409      4410      4410      4411      4411      4412
      4412      4415      4412      4589      4413      4418      4413      4414
      4414      4415      4415      4416      4416      4419      4416      4593
      4417      4422      4417      4418      4418      4419      4419      4420
      4420      4423      4420      4597      4421      4422      4421      4426
      4422      4423      4423      4424      4424      4427      4424      4601
      4425      4426      4425      4430      4426      4427      4427      4428
      4428      4431      4428      4605      4429      4434      4429      4430
      4430      4431      4431      4432      4432      4435      4432      4609
      4433      4438      4433      4434      4434      4435      4435      4436
      4436      4439      4436      4613      4437      4442      4437      4438
      4438      4439      4439      4440      4440      4443      4440      4617
      4441      4442      4441      4446      4442      4443      4443      4444
      4444      4447      4444      4621      4445      4446      4445      4450
      4446      4447      4447      4448      4448      4451      4448      4625
      4449      4454      4449      4450      4450      4451      4451      4452
      4452      4455      4452      4629      4453      4454      4453      4458
      4454      4455      4455      4456      4456      4459      4456      4633
      4457      4462      4457      4458      4458      4459      4459      4460
      4460      4463      4460      4637      4461      4462      4461      4466
      4462      4463      4463      4464      4464      4467      4464      4641
      4465      4466      4465      4470      4466      4467      4467      4468
      4468      4471      4468      4645      4469      4474      4469      4470
      4470      4471      4471      4472      4472      4475      4472      4649
      4473      4478      4473      4474      4474      4475      4475      4476
      4476      4479      4476      4653      4477      4482      4477      4478
      4478      4479      4479      4480      4480      4483      4480      4657
      4481      4482      4481      4486      4482      4483      4483      4484
      4484      4487      4484      4661      4485      4486      4485      4490
      4486      4487      4487      4488      4488      4491      4488      4665
      4489      4494      4489      4490      4490      4491      4491      4492
      4492      4495      4492      4669      4493      4498      4493      4494
      4494      4495      4495      4496      4496      4499      4496      4673
      4497      4498      4498      4499      4499      4500      4500      4677
      4501      4502      4501      4506      4502      4503      4503      4504
      4504      4507      4505      4506      4505      4510      4506      4507
      4507      4508      4508      4511      4509      4514      4509      4510
      4510      4511      4511      4512      4512      4515      4513      4518
      4513      4514      4514      4515      4515      4516      4516      4519
      4517      4522      4517      4518      4518      4519      4519      4520
      4520      4523      4521      4522      4521      4526      4522      4523
      4523      4524      4524      4527      4525      4526      4525      4530
      4526      4527      4527      4528      4528      4531      4529      4534
      4529      4530      4530      4531      4531      4532      4532      4535
      4533      4538      4533      4534      4534      4535      4535      4536
      4536      4539      4537      4542      4537      4538      4538      4539
      4539      4540      4540      4543      4541      4542      4541      4546
      4542      4543      4543      4544      4544      4547      4545      4546
      4545      4550      4546      4547      4547      4548      4548      4551
      4549      4554      4549      4550      4550      4551      4551      4552
      4552      4555      4553      4558      4553      4554      4554      4555
      4555      4556      4556      4559      4557      4562      4557      4558
      4558      4559      4559      4560      4560      4563      4561      4562
      4561      4566      4562      4563      4563      4564      4564      4567
      4565      4566      4565      4570      4566      4567      4567      4568
      4568      4571      4569      4574      4569      4570      4570      4571
      4571      4572      4572      4575      4573      4578      4573      4574
      4574      4575      4575      4576      4576      4579      4577      4582
      4577      4578      4578      4579      4579      4580      4580      4583
      4581      4582      4581      4586      4582      4583      4583      4584
      4584      4587      4585      4586      4585      4590      4586      4587
      4587      4588      4588      4591      4589      4594      4589      4590
      4590      4591      4591      4592      4592      4595      4593      4598
      4593      4594      4594      4595      4595      4596      4596      4599
      4597      4602      4597      4598      4598      4599      4599      4600
      4600      4603      4601      4602      4601      4606      4602      4603
      4603      4604      4604      4607      4605      4606      4605      4610
      4606      4607      4607      4608      4608      4611      4609      4614
      4609      4610      4610      4611      4611      4612      4612      4615
      4613      4618      4613      4614      4614      4615      4615      4616
      4616      4619      4617      4622      4617      4618      4618      4619
      4619      4620      4620      4623      4621      4622      4621      4626
      4622      4623      4623      4624      4624      4627      4625      4626
      4625      4630      4626      4627      4627      4628      4628      4631
      4629      4634      4629      4630      4630      4631      4631      4632
      4632      4635      4633      4638      4633      4634      4634      4635
      4635      4636      4636      4639      4637      4642      4637      4638
      4638      4639      4639      4640      4640      4643      4641      4642
      4641      4646      4642      4643      4643      4644      4644      4647
      4645      4646      4645      4650      4646      4647      4647      4648
      4648      4651      4649      4654      4649      4650      4650      4651
      4651      4652      4652      4655      4653      4658      4653      4654
      4654      4655      4655      4656      4656      4659      4657      4662
      4657      4658      4658      4659      4659      4660      4660      4663
      4661      4662      4661      4666      4662      4663      4663      4664
      4664      4667      4665      4666      4665      4670      4666      4667
      4667      4668      4668      4671      4669      4674      4669      4670
      4670      4671      4671      4672      4672      4675      4673      4674
      4673      4678      4674      4675      4675      4676      4676      4679
      4677      4678      4678      4679      4679      4680      5055      5059
      5055      5056      5055      5057      5055      5058      5059      5060
      5061      5065      5061      5062      5061      5063      5061      5064
      5065      5066      5067      5071      5067      5068      5067      5069
      5067      5070      5071      5072      5073      5077      5073      5074
      5073      5075      5073      5076      5077      5078      5079      5083
      5079      5080      5079      5081      5079      5082      5083      5084
      5085      5089      5085      5086      5085      5087      5085      5088
      5089      5090      5091      5095      5091      5092      5091      5093
      5091      5094      5095      5096      5097      5101      5097      5098
      5097      5099      5097      5100      5101      5102      5103      5107
      5103      5104      5103      5105      5103      5106      5107      5108
      5109      5113      5109      5110      5109      5111      5109      5112
      5113      5114      5115      5119      5115      5116      5115      5117
      5115      5118      5119      5120      5121      5125      5121      5122
      5121      5123      5121      5124      5125      5126      5127      5131
      5127      5128      5127      5129      5127      5130      5131      5132
      5133      5137      5133      5134      5133      5135      5133      5136
      5137      5138      5139      5143      5139      5140      5139      5141
      5139      5142      5143      5144      5145      5149      5145      5146
      5145      5147      5145      5148      5149      5150      5151      5155
      5151      5152      5151      5153      5151      5154      5155      5156
      5157      5161      5157      5158      5157      5159      5157      5160
      5161      5162      5163      5167      5163      5164      5163      5165
      5163      5166      5167      5168      5169      5173      5169      5170
      5169      5171      5169      5172      5173      5174      5175      5179
      5175      5176      5175      5177      5175      5178      5179      5180
      5181      5185      5181      5182      5181      5183      5181      5184
      5185      5186      5187      5191      5187      5188      5187      5189
      5187      5190      5191      5192      5193      5197      5193      5194
      5193      5195      5193      5196      5197      5198      5199      5203
      5199      5200      5199      5201      5199      5202      5203      5204
      5205      5209      5205      5206      5205      5207      5205      5208
      5209      5210      5211      5215      5211      5212      5211      5213
      5211      5214      5215      5216      5217      5221      5217      5218
      5217      5219      5217      5220      5221      5222      5223      5227
      5223      5224      5223      5225      5223      5226      5227      5228
      5229      5233      5229      5230      5229      5231      5229      5232
      5233      5234      5235      5239      5235      5236      5235      5237
      5235      5238      5239      5240      5241      5245      5241      5242
      5241      5243      5241      5244      5245      5246      5247      5251
      5247      5248      5247      5249      5247      5250      5251      5252
      5253      5257      5253      5254      5253      5255      5253      5256
      5257      5258      5259      5263      5259      5260      5259      5261
      5259      5262      5263      5264      5265      5269      5265      5266
      5265      5267      5265      5268      5269      5270      5271      5275
      5271      5272      5271      5273      5271      5274      5275      5276
      5277      5281      5277      5278      5277      5279      5277      5280
      5281      5282      5283      5287      5283      5284      5283      5285
      5283      5286      5287      5288      5289      5293      5289      5290
      5289      5291      5289      5292      5293      5294      5295      5299
      5295      5296      5295      5297      5295      5298      5299      5300
      5301      5305      5301      5302      5301      5303      5301      5304
      5305      5306      5307      5311      5307      5308      5307      5309
      5307      5310      5311      5312      5313      5317      5313      5314
      5313      5315      5313      5316      5317      5318      5319      5323
      5319      5320      5319      5321      5319      5322      5323      5324
      5325      5329      5325      5326      5325      5327      5325      5328
      5329      5330      5331      5335      5331      5332      5331      5333
      5331      5334      5335      5336      5337      5341      5337      5338
      5337      5339      5337      5340      5341      5342      5343      5347
      5343      5344      5343      5345      5343      5346      5347      5348
      5349      5353      5349      5350      5349      5351      5349      5352
      5353      5354      5355      5359      5355      5356      5355      5357
      5355      5358      5359      5360      5361      5365      5361      5362
      5361      5363      5361      5364      5365      5366      5367      5371
      5367      5368      5367      5369      5367      5370      5371      5372
      5373      5377      5373      5374      5373      5375      5373      5376
      5377      5378      5379      5383      5379      5380      5379      5381
      5379      5382      5383      5384      5385      5389      5385      5386
      5385      5387      5385      5388      5389      5390      5391      5395
      5391      5392      5391      5393      5391      5394      5395      5396
      5397      5401      5397      5398      5397      5399      5397      5400
      5401      5402      5403      5407      5403      5404      5403      5405
      5403      5406      5407      5408      5409      5413      5409      5410
      5409      5411      5409      5412      5413      5414      5415      5419
      5415      5416      5415      5417      5415      5418      5419      5420
      5421      5425      5421      5422      5421      5423      5421      5424
      5425      5426      5427      5431      5427      5428      5427      5429
      5427      5430      5431      5432      5433      5437      5433      5434
      5433      5435      5433      5436      5437      5438      5439      5443
      5439      5440      5439      5441      5439      5442      5443      5444
      5445      5449      5445      5446      5445      5447      5445      5448
      5449      5450      5451      5455      5451      5452      5451      5453
      5451      5454      5455      5456      5457      5461      5457      5458
      5457      5459      5457      5460      5461      5462      5463      5467
      5463      5464      5463      5465      5463      5466      5467      5468
      5469      5473      5469      5470      5469      5471      5469      5472
      5473      5474      5475      5479      5475      5476      5475      5477
      5475      5478      5479      5480      5481      5485      5481      5482
      5481      5483      5481      5484      5485      5486      5487      5491
      5487      5488      5487      5489      5487      5490      5491      5492
      5493      5497      5493      5494      5493      5495      5493      5496
      5497      5498      5499      5503      5499      5500      5499      5501
      5499      5502      5503      5504      5505      5509      5505      5506
      5505      5507      5505      5508      5509      5510      5511      5515
      5511      5512      5511      5513      5511      5514      5515      5516
      5517      5521      5517      5518      5517      5519      5517      5520
      5521      5522      5523      5527      5523      5524      5523      5525
      5523      5526      5527      5528      5529      5533      5529      5530
      5529      5531      5529      5532      5533      5534      5535      5539
      5535      5536      5535      5537      5535      5538      5539      5540
      5541      5545      5541      5542      5541      5543      5541      5544
      5545      5546      5547      5551      5547      5548      5547      5549
      5547      5550      5551      5552      5553      5557      5553      5554
      5553      5555      5553      5556      5557      5558      5559      5563
      5559      5560      5559      5561      5559      5562      5563      5564
      5565      5569      5565      5566      5565      5567      5565      5568
      5569      5570      5571      5575      5571      5572      5571      5573
      5571      5574      5575      5576      5577      5581      5577      5578
      5577      5579      5577      5580      5581      5582      5583      5587
      5583      5584      5583      5585      5583      5586      5587      5588
      5589      5593      5589      5590      5589      5591      5589      5592
      5593      5594      5595      5599      5595      5596      5595      5597
      5595      5598      5599      5600      5601      5605      5601      5602
      5601      5603      5601      5604      5605      5606      5607      5611
      5607      5608      5607      5609      5607      5610      5611      5612
      5613      5617      5613      5614      5613      5615      5613      5616
      5617      5618      5619      5623      5619      5620      5619      5621
      5619      5622      5623      5624      5625      5629      5625      5626
      5625      5627      5625      5628      5629      5630      5631      5635
      5631      5632      5631      5633      5631      5634      5635      5636
      5637      5641      5637      5638      5637      5639      5637      5640
      5641      5642      5643      5647      5643      5644      5643      5645
      5643      5646      5647      5648      5649      5653      5649      5650
      5649      5651      5649      5652      5653      5654      5655      5659
      5655      5656      5655      5657      5655      5658      5659      5660
      5661      5665      5661      5662      5661      5663      5661      5664
      5665      5666      5667      5671      5667      5668      5667      5669
      5667      5670      5671      5672      5673      5677      5673      5674
      5673      5675      5673      5676      5677      5678      5679      5683
      5679      5680      5679      5681      5679      5682      5683      5684
      5685      5689      5685      5686      5685      5687      5685      5688
      5689      5690      5691      5695      5691      5692      5691      5693
      5691      5694      5695      5696      5697      5701      5697      5698
      5697      5699      5697      5700      5701      5702      5703      5707
      5703      5704      5703      5705      5703      5706      5707      5708
      5709      5713      5709      5710      5709      5711      5709      5712
      5713      5714      5715      5719      5715      5716      5715      5717
      5715      5718      5719      5720      5721      5725      5721      5722
      5721      5723      5721      5724      5725      5726      5727      5731
      5727      5728      5727      5729      5727      5730      5731      5732
      5733      5737      5733      5734      5733      5735      5733      5736
      5737      5738      5739      5743      5739      5740      5739      5741
      5739      5742      5743      5744      5745      5749      5745      5746
      5745      5747      5745      5748      5749      5750      5751      5755
      5751      5752      5751      5753      5751      5754      5755      5756
      5757      5761      5757      5758      5757      5759      5757      5760
      5761      5762      5763      5767      5763      5764      5763      5765
      5763      5766      5767      5768      5769      5773      5769      5770
      5769      5771      5769      5772      5773      5774      5775      5779
      5775      5776      5775      5777      5775      5778      5779      5780
      5781      5785      5781      5782      5781      5783      5781      5784
      5785      5786      5787      5791      5787      5788      5787      5789
      5787      5790      5791      5792      5793      5797      5793      5794
      5793      5795      5793      5796      5797      5798      5799      5803
      5799      5800      5799      5801      5799      5802      5803      5804
      5805      5809      5805      5806      5805      5807      5805      5808
      5809      5810      5811      5815      5811      5812      5811      5813
      5811      5814      5815      5816      5817      5821      5817      5818
      5817      5819      5817      5820      5821      5822      5823      5827
      5823      5824      5823      5825      5823      5826      5827      5828
      5829      5833      5829      5830      5829      5831      5829      5832
      5833      5834      5835      5839      5835      5836      5835      5837
      5835      5838      5839      5840      5841      5845      5841      5842
      5841      5843      5841      5844      5845      5846      5847      5851
      5847      5848      5847      5849      5847      5850      5851      5852
      5853      5857      5853      5854      5853      5855      5853      5856
      5857      5858      5859      5863      5859      5860      5859      5861
      5859      5862      5863      5864      5865      5869      5865      5866
      5865      5867      5865      5868      5869      5870      5871      5875
      5871      5872      5871      5873      5871      5874      5875      5876
      5877      5881      5877      5878      5877      5879      5877      5880
      5881      5882      5883      5887      5883      5884      5883      5885
      5883      5886      5887      5888      5889      5893      5889      5890
      5889      5891      5889      5892      5893      5894      5895      5899
      5895      5896      5895      5897      5895      5898      5899      5900
      5901      5905      5901      5902      5901      5903      5901      5904
      5905      5906      5907      5911      5907      5908      5907      5909
      5907      5910      5911      5912      5913      5917      5913      5914
      5913      5915      5913      5916      5917      5918      5919      5923
      5919      5920      5919      5921      5919      5922      5923      5924
      5925      5929      5925      5926      5925      5927      5925      5928
      5929      5930      5931      5935      5931      5932      5931      5933
      5931      5934      5935      5936      5937      5941      5937      5938
      5937      5939      5937      5940      5941      5942      5943      5947
      5943      5944      5943      5945      5943      5946      5947      5948
      5949      5953      5949      5950      5949      5951      5949      5952
      5953      5954      5955      5959      5955      5956      5955      5957
      5955      5958      5959      5960      5961      5965      5961      5962
      5961      5963      5961      5964      5965      5966      5967      5971
      5967      5968      5967      5969      5967      5970      5971      5972
      5973      5977      5973      5974      5973      5975      5973      5976
      5977      5978      5979      5983      5979      5980      5979      5981
      5979      5982      5983      5984      5985      5989      5985      5986
      5985      5987      5985      5988      5989      5990      5991      5995
      5991      5992      5991      5993      5991      5994      5995      5996
      5997      6001      5997      5998      5997      5999      5997      6000
      6001      6002      6003      6007      6003      6004      6003      6005
      6003      6006      6007      6008      6009      6013      6009      6010
      6009      6011      6009      6012      6013      6014      6015      6019
      6015      6016      6015      6017      6015      6018      6019      6020
      6021      6025      6021      6022      6021      6023      6021      6024
      6025      6026      6027      6031      6027      6028      6027      6029
      6027      6030      6031      6032      6033      6037      6033      6034
      6033      6035      6033      6036      6037      6038      6039      6043
      6039      6040      6039      6041      6039      6042      6043      6044
      6045      6049      6045      6046      6045      6047      6045      6048
      6049      6050      6051      6055      6051      6052      6051      6053
      6051      6054      6055      6056      6057      6061      6057      6058
      6057      6059      6057      6060      6061      6062      6063      6067
      6063      6064      6063      6065      6063      6066      6067      6068
      6069      6073      6069      6070      6069      6071      6069      6072
      6073      6074      6075      6079      6075      6076      6075      6077
      6075      6078      6079      6080      6081      6085      6081      6082
      6081      6083      6081      6084      6085      6086      6087      6091
      6087      6088      6087      6089      6087      6090      6091      6092
      6093      6097      6093      6094      6093      6095      6093      6096
      6097      6098      6099      6103      6099      6100      6099      6101
      6099      6102      6103      6104      6105      6109      6105      6106
      6105      6107      6105      6108      6109      6110      6111      6115
      6111      6112      6111      6113      6111      6114      6115      6116
      6117      6121      6117      6118      6117      6119      6117      6120
      6121      6122      6123      6127      6123      6124      6123      6125
      6123      6126      6127      6128      6129      6133      6129      6130
      6129      6131      6129      6132      6133      6134      6135      6139
      6135      6136      6135      6137      6135      6138      6139      6140
      6141      6145      6141      6142      6141      6143      6141      6144
      6145      6146      6147      6151      6147      6148      6147      6149
      6147      6150      6151      6152      6153      6157      6153      6154
      6153      6155      6153      6156      6157      6158      6159      6163
      6159      6160      6159      6161      6159      6162      6163      6164
      6165      6169      6165      6166      6165      6167      6165      6168
      6169      6170      6171      6175      6171      6172      6171      6173
      6171      6174      6175      6176      6177      6181      6177      6178
      6177      6179      6177      6180      6181      6182      6183      6187
      6183      6184      6183      6185      6183      6186      6187      6188
      6189      6193      6189      6190      6189      6191      6189      6192
      6193      6194      6195      6199      6195      6196      6195      6197
      6195      6198      6199      6200      6201      6205      6201      6202
      6201      6203      6201      6204      6205      6206      6207      6211
      6207      6208      6207      6209      6207      6210      6211      6212
      6213      6217      6213      6214      6213      6215      6213      6216
      6217      6218      6219      6223      6219      6220      6219      6221
      6219      6222      6223      6224      6225      6229      6225      6226
      6225      6227      6225      6228      6229      6230      6231      6235
      6231      6232      6231      6233      6231      6234      6235      6236
      6237      6241      6237      6238      6237      6239      6237      6240
      6241      6242      6243      6247      6243      6244      6243      6245
      6243      6246      6247      6248      6249      6253      6249      6250
      6249      6251      6249      6252      6253      6254      6255      6259
      6255      6256      6255      6257      6255      6258      6259      6260
      6261      6265      6261      6262      6261      6263      6261      6264
      6265      6266      6267      6271      6267      6268      6267      6269
      6267      6270      6271      6272      6273      6277      6273      6274
      6273      6275      6273      6276      6277      6278      6279      6283
      6279      6280      6279      6281      6279      6282      6283      6284
      6285      6289      6285      6286      6285      6287      6285      6288
      6289      6290      6291      6295      6291      6292      6291      6293
      6291      6294      6295      6296      6297      6301      6297      6298
      6297      6299      6297      6300      6301      6302      6303      6307
      6303      6304      6303      6305      6303      6306      6307      6308
      6309      6313      6309      6310      6309      6311      6309      6312
      6313      6314      6315      6319      6315      6316      6315      6317
      6315      6318      6319      6320      6321      6325      6321      6322
      6321      6323      6321      6324      6325      6326      6327      6331
      6327      6328      6327      6329      6327      6330      6331      6332
      6333      6337      6333      6334      6333      6335      6333      6336
      6337      6338      6339      6343      6339      6340      6339      6341
      6339      6342      6343      6344      6345      6349      6345      6346
      6345      6347      6345      6348      6349      6350      6351      6355
      6351      6352      6351      6353      6351      6354      6355      6356
      6357      6361      6357      6358      6357      6359      6357      6360
      6361      6362      6363      6367      6363      6364      6363      6365
      6363      6366      6367      6368      6369      6373      6369      6370
      6369      6371      6369      6372      6373      6374      6375      6379
      6375      6376      6375      6377      6375      6378      6379      6380
      6381      6385      6381      6382      6381      6383      6381      6384
      6385      6386      6387      6391      6387      6388      6387      6389
      6387      6390      6391      6392      6393      6397      6393      6394
      6393      6395      6393      6396      6397      6398      6399      6403
      6399      6400      6399      6401      6399      6402      6403      6404
      6405      6409      6405      6406      6405      6407      6405      6408
      6409      6410      6411      6415      6411      6412      6411      6413
      6411      6414      6415      6416      6417      6421      6417      6418
      6417      6419      6417      6420      6421      6422      6423      6427
      6423      6424      6423      6425      6423      6426      6427      6428
      6429      6433      6429      6430      6429      6431      6429      6432
      6433      6434      6435      6439      6435      6436      6435      6437
      6435      6438      6439      6440      6441      6445      6441      6442
      6441      6443      6441      6444      6445      6446      6447      6451
      6447      6448      6447      6449      6447      6450      6451      6452
      6453      6457      6453      6454      6453      6455      6453      6456
      6457      6458      6459      6463      6459      6460      6459      6461
      6459      6462      6463      6464      6465      6469      6465      6466
      6465      6467      6465      6468      6469      6470      6471      6475
      6471      6472      6471      6473      6471      6474      6475      6476
      6477      6481      6477      6478      6477      6479      6477      6480
      6481      6482      6483      6487      6483      6484      6483      6485
      6483      6486      6487      6488      6489      6493      6489      6490
      6489      6491      6489      6492      6493      6494      6495      6499
      6495      6496      6495      6497      6495      6498      6499      6500
      6501      6505      6501      6502      6501      6503      6501      6504
      6505      6506      6507      6511      6507      6508      6507      6509
      6507      6510      6511      6512      6513      6517      6513      6514
      6513      6515      6513      6516      6517      6518      6519      6523
      6519      6520      6519      6521      6519      6522      6523      6524
      6525      6529      6525      6526      6525      6527      6525      6528
      6529      6530      6531      6535      6531      6532      6531      6533
      6531      6534      6535      6536      6537      6541      6537      6538
      6537      6539      6537      6540      6541      6542      6543      6547
      6543      6544      6543      6545      6543      6546      6547      6548
      6549      6553      6549      6550      6549      6551      6549      6552
      6553      6554      6555      6559      6555      6556      6555      6557
      6555      6558      6559      6560      6561      6565      6561      6562
      6561      6563      6561      6564      6565      6566      6567      6571
      6567      6568      6567      6569      6567      6570      6571      6572
      6573      6577      6573      6574      6573      6575      6573      6576
      6577      6578      6579      6583      6579      6580      6579      6581
      6579      6582      6583      6584      6585      6589      6585      6586
      6585      6587      6585      6588      6589      6590      6591      6595
      6591      6592      6591      6593      6591      6594      6595      6596
      6597      6601      6597      6598      6597      6599      6597      6600
      6601      6602      6603      6607      6603      6604      6603      6605
      6603      6606      6607      6608      6609      6613      6609      6610
      6609      6611      6609      6612      6613      6614      6615      6619
      6615      6616      6615      6617      6615      6618      6619      6620
      6621      6625      6621      6622      6621      6623      6621      6624
      6625      6626      6627      6631      6627      6628      6627      6629
      6627      6630      6631      6632      6633      6637      6633      6634
      6633      6635      6633      6636      6637      6638      6639      6643
      6639      6640      6639      6641      6639      6642      6643      6644
      6645      6649      6645      6646      6645      6647      6645      6648
      6649      6650      6651      6655      6651      6652      6651      6653
      6651      6654      6655      6656      6657      6661      6657      6658
      6657      6659      6657      6660      6661      6662      6663      6667
      6663      6664      6663      6665      6663      6666      6667      6668
      6669      6673      6669      6670      6669      6671      6669      6672
      6673      6674      6675      6679      6675      6676      6675      6677
      6675      6678      6679      6680      6681      6685      6681      6682
      6681      6683      6681      6684      6685      6686      6687      6691
      6687      6688      6687      6689      6687      6690      6691      6692
      6693      6697      6693      6694      6693      6695      6693      6696
      6697      6698      6699      6703      6699      6700      6699      6701
      6699      6702      6703      6704      6705      6709      6705      6706
      6705      6707      6705      6708      6709      6710      6711      6715
      6711      6712      6711      6713      6711      6714      6715      6716
      6717      6721      6717      6718      6717      6719      6717      6720
      6721      6722      6723      6727      6723      6724      6723      6725
      6723      6726      6727      6728      6729      6733      6729      6730
      6729      6731      6729      6732      6733      6734      6735      6739
      6735      6736      6735      6737      6735      6738      6739      6740
      6741      6745      6741      6742      6741      6743      6741      6744
      6745      6746      6747      6751      6747      6748      6747      6749
      6747      6750      6751      6752      6753      6757      6753      6754
      6753      6755      6753      6756      6757      6758      6759      6763
      6759      6760      6759      6761      6759      6762      6763      6764
      6765      6769      6765      6766      6765      6767      6765      6768
      6769      6770      6771      6775      6771      6772      6771      6773
      6771      6774      6775      6776      6777      6781      6777      6778
      6777      6779      6777      6780      6781      6782      6783      6787
      6783      6784      6783      6785      6783      6786      6787      6788
      6789      6793      6789      6790      6789      6791      6789      6792
      6793      6794      6795      6799      6795      6796      6795      6797
      6795      6798      6799      6800      6801      6805      6801      6802
      6801      6803      6801      6804      6805      6806      6807      6811
      6807      6808      6807      6809      6807      6810      6811      6812
      6813      6817      6813      6814      6813      6815      6813      6816
      6817      6818      6819      6823      6819      6820      6819      6821
      6819      6822      6823      6824      6825      6829      6825      6826
      6825      6827      6825      6828      6829      6830      6831      6835
      6831      6832      6831      6833      6831      6834      6835      6836
      6837      6841      6837      6838      6837      6839      6837      6840
      6841      6842      6843      6847      6843      6844      6843      6845
      6843      6846      6847      6848      6849      6853      6849      6850
      6849      6851      6849      6852      6853      6854      6855      6859
      6855      6856      6855      6857      6855      6858      6859      6860
      6861      6865      6861      6862      6861      6863      6861      6864
      6865      6866      6867      6871      6867      6868      6867      6869
      6867      6870      6871      6872      6873      6877      6873      6874
      6873      6875      6873      6876      6877      6878      6879      6883
      6879      6880      6879      6881      6879      6882      6883      6884
      6885      6889      6885      6886      6885      6887      6885      6888
      6889      6890      6891      6895      6891      6892      6891      6893
      6891      6894      6895      6896      6897      6901      6897      6898
      6897      6899      6897      6900      6901      6902      6903      6907
      6903      6904      6903      6905      6903      6906      6907      6908
      6909      6913      6909      6910      6909      6911      6909      6912
      6913      6914      6915      6919      6915      6916      6915      6917
      6915      6918      6919      6920      6921      6925      6921      6922
      6921      6923      6921      6924      6925      6926      6927      6931
      6927      6928      6927      6929      6927      6930      6931      6932
      6933      6937      6933      6934      6933      6935      6933      6936
      6937      6938      6939      6943      6939      6940      6939      6941
      6939      6942      6943      6944      6945      6949      6945      6946
      6945      6947      6945      6948      6949      6950      6951      6955
      6951      6952      6951      6953      6951      6954      6955      6956
      6957      6961      6957      6958      6957      6959      6957      6960
      6961      6962      6963      6967      6963      6964      6963      6965
      6963      6966      6967      6968      6969      6973      6969      6970
      6969      6971      6969      6972      6973      6974      6975      6979
      6975      6976      6975      6977      6975      6978      6979      6980
      6981      6985      6981      6982      6981      6983      6981      6984
      6985      6986      6987      6991      6987      6988      6987      6989
      6987      6990      6991      6992      6993      6997      6993      6994
      6993      6995      6993      6996      6997      6998      6999      7003
      6999      7000      6999      7001      6999      7002      7003      7004
      7005      7009      7005      7006      7005      7007      7005      7008
      7009      7010      7011      7015      7011      7012      7011      7013
      7011      7014      7015      7016      7017      7021      7017      7018
      7017      7019      7017      7020      7021      7022      7023      7027
      7023      7024      7023      7025      7023      7026      7027      7028
      7029      7033      7029      7030      7029      7031      7029      7032
      7033      7034      7035      7039      7035      7036      7035      7037
      7035      7038      7039      7040      7041      7045      7041      7042
      7041      7043      7041      7044      7045      7046      7047      7051
      7047      7048      7047      7049      7047      7050      7051      7052
      7053      7057      7053      7054      7053      7055      7053      7056
      7057      7058      7059      7063      7059      7060      7059      7061
      7059      7062      7063      7064      7065      7069      7065      7066
      7065      7067      7065      7068      7069      7070      7071      7075
      7071      7072      7071      7073      7071      7074      7075      7076
      7077      7081      7077      7078      7077      7079      7077      7080
      7081      7082      7083      7087      7083      7084      7083      7085
      7083      7086      7087      7088      7089      7093      7089      7090
      7089      7091      7089      7092      7093      7094      7095      7099
      7095      7096      7095      7097      7095      7098      7099      7100
      7101      7105      7101      7102      7101      7103      7101      7104
      7105      7106      7107      7111      7107      7108      7107      7109
      7107      7110      7111      7112      7113      7117      7113      7114
      7113      7115      7113      7116      7117      7118      7119      7123
      7119      7120      7119      7121      7119      7122      7123      7124
      7125      7129      7125      7126      7125      7127      7125      7128
      7129      7130      7131      7135      7131      7132      7131      7133
      7131      7134      7135      7136      7137      7141      7137      7138
      7137      7139      7137      7140      7141      7142      7143      7147
      7143      7144      7143      7145      7143      7146      7147      7148
      7149      7153      7149      7150      7149      7151      7149      7152
      7153      7154      7155      7159      7155      7156      7155      7157
      7155      7158      7159      7160      7161      7165      7161      7162
      7161      7163      7161      7164      7165      7166      7167      7171
      7167      7168      7167      7169      7167      7170      7171      7172
      7173      7177      7173      7174      7173      7175      7173      7176
      7177      7178      7179      7183      7179      7180      7179      7181
      7179      7182      7183      7184      7185      7189      7185      7186
      7185      7187      7185      7188      7189      7190      7191      7195
      7191      7192      7191      7193      7191      7194      7195      7196
      7197      7201      7197      7198      7197      7199      7197      7200
      7201      7202      7203      7207      7203      7204      7203      7205
      7203      7206      7207      7208      7209      7213      7209      7210
      7209      7211      7209      7212      7213      7214      7215      7219
      7215      7216      7215      7217      7215      7218      7219      7220
      7221      7225      7221      7222      7221      7223      7221      7224
      7225      7226      7227      7231      7227      7228      7227      7229
      7227      7230      7231      7232      7233      7237      7233      7234
      7233      7235      7233      7236      7237      7238      7239      7243
      7239      7240      7239      7241      7239      7242      7243      7244
      7245      7249      7245      7246      7245      7247      7245      7248
      7249      7250      7251      7255      7251      7252      7251      7253
      7251      7254      7255      7256      7257      7261      7257      7258
      7257      7259      7257      7260      7261      7262      7263      7267
      7263      7264      7263      7265      7263      7266      7267      7268
      7269      7273      7269      7270      7269      7271      7269      7272
      7273      7274      7275      7279      7275      7276      7275      7277
      7275      7278      7279      7280      7281      7285      7281      7282
      7281      7283      7281      7284      7285      7286      7287      7291
      7287      7288      7287      7289      7287      7290      7291      7292
      7293      7297      7293      7294      7293      7295      7293      7296
      7297      7298      7299      7303      7299      7300      7299      7301
      7299      7302      7303      7304      7305      7309      7305      7306
      7305      7307      7305      7308      7309      7310      7311      7315
      7311      7312      7311      7313      7311      7314      7315      7316
      7317      7321      7317      7318      7317      7319      7317      7320
      7321      7322      7323      7327      7323      7324      7323      7325
      7323      7326      7327      7328      7329      7333      7329      7330
      7329      7331      7329      7332      7333      7334      7335      7339
      7335      7336      7335      7337      7335      7338      7339      7340
      7341      7345      7341      7342      7341      7343      7341      7344
      7345      7346      7347      7351      7347      7348      7347      7349
      7347      7350      7351      7352      7353      7357      7353      7354
      7353      7355      7353      7356      7357      7358      7359      7363
      7359      7360      7359      7361      7359      7362      7363      7364
      7365      7369      7365      7366      7365      7367      7365      7368
      7369      7370      7371      7375      7371      7372      7371      7373
      7371      7374      7375      7376      7377      7381      7377      7378
      7377      7379      7377      7380      7381      7382      7383      7387
      7383      7384      7383      7385      7383      7386      7387      7388
      7389      7393      7389      7390      7389      7391      7389      7392
      7393      7394      7395      7399      7395      7396      7395      7397
      7395      7398      7399      7400      7401      7405      7401      7402
      7401      7403      7401      7404      7405      7406      7407      7411
      7407      7408      7407      7409      7407      7410      7411      7412
      7413      7417      7413      7414      7413      7415      7413      7416
      7417      7418      7419      7423      7419      7420      7419      7421
      7419      7422      7423      7424      7425      7429      7425      7426
      7425      7427      7425      7428      7429      7430      7431      7435
      7431      7432      7431      7433      7431      7434      7435      7436
      7437      7441      7437      7438      7437      7439      7437      7440
      7441      7442      7443      7447      7443      7444      7443      7445
      7443      7446      7447      7448      7449      7453      7449      7450
      7449      7451      7449      7452      7453      7454      7455      7459
      7455      7456      7455      7457      7455      7458      7459      7460
      7461      7465      7461      7462      7461      7463      7461      7464
      7465      7466      7467      7471      7467      7468      7467      7469
      7467      7470      7471      7472      7473      7477      7473      7474
      7473      7475      7473      7476      7477      7478      7479      7483
      7479      7480      7479      7481      7479      7482      7483      7484
      7485      7489      7485      7486      7485      7487      7485      7488
      7489      7490      7491      7495      7491      7492      7491      7493
      7491      7494      7495      7496      7497      7501      7497      7498
      7497      7499      7497      7500      7501      7502      7503      7507
      7503      7504      7503      7505      7503      7506      7507      7508
      7509      7513      7509      7510      7509      7511      7509      7512
      7513      7514      7515      7519      7515      7516      7515      7517
      7515      7518      7519      7520      7521      7525      7521      7522
      7521      7523      7521      7524      7525      7526      7527      7531
      7527      7528      7527      7529      7527      7530      7531      7532
      7533      7537      7533      7534      7533      7535      7533      7536
      7537      7538      7539      7543      7539      7540      7539      7541
      7539      7542      7543      7544      7545      7549      7545      7546
      7545      7547      7545      7548      7549      7550      7551      7555
      7551      7552      7551      7553      7551      7554      7555      7556
      7557      7561      7557      7558      7557      7559      7557      7560
      7561      7562      7563      7567      7563      7564      7563      7565
      7563      7566      7567      7568      7569      7573      7569      7570
      7569      7571      7569      7572      7573      7574      7575      7579
      7575      7576      7575      7577      7575      7578      7579      7580
      7581      7585      7581      7582      7581      7583      7581      7584
      7585      7586      7587      7591      7587      7588      7587      7589
      7587      7590      7591      7592      7593      7597      7593      7594
      7593      7595      7593      7596      7597      7598      7599      7603
      7599      7600      7599      7601      7599      7602      7603      7604
      7605      7609      7605      7606      7605      7607      7605      7608
      7609      7610      7611      7615      7611      7612      7611      7613
      7611      7614      7615      7616      7617      7621      7617      7618
      7617      7619      7617      7620      7621      7622      7623      7627
      7623      7624      7623      7625      7623      7626      7627      7628
      7629      7633      7629      7630      7629      7631      7629      7632
      7633      7634      7635      7639      7635      7636      7635      7637
      7635      7638      7639      7640      7641      7645      7641      7642
      7641      7643      7641      7644      7645      7646      7647      7651
      7647      7648      7647      7649      7647      7650      7651      7652
      7653      7657      7653      7654      7653      7655      7653      7656
      7657      7658      7659      7663      7659      7660      7659      7661
      7659      7662      7663      7664      7665      7669      7665      7666
      7665      7667      7665      7668      7669      7670      7671      7675
      7671      7672      7671      7673      7671      7674      7675      7676
      7677      7681      7677      7678      7677      7679      7677      7680
      7681      7682      7683      7687      7683      7684      7683      7685
      7683      7686      7687      7688      7689      7693      7689      7690
      7689      7691      7689      7692      7693      7694      7695      7699
      7695      7696      7695      7697      7695      7698      7699      7700
      7701      7705      7701      7702      7701      7703      7701      7704
      7705      7706      7707      7711      7707      7708      7707      7709
      7707      7710      7711      7712      7713      7717      7713      7714
      7713      7715      7713      7716      7717      7718      7719      7723
      7719      7720      7719      7721      7719      7722      7723      7724
      7725      7729      7725      7726      7725      7727      7725      7728
      7729      7730      7731      7735      7731      7732      7731      7733
      7731      7734      7735      7736      7737      7741      7737      7738
      7737      7739      7737      7740      7741      7742      7743      7747
      7743      7744      7743      7745      7743      7746      7747      7748
      7749      7753      7749      7750      7749      7751      7749      7752
      7753      7754      7755      7759      7755      7756      7755      7757
      7755      7758      7759      7760      7761      7765      7761      7762
      7761      7763      7761      7764      7765      7766      7767      7771
      7767      7768      7767      7769      7767      7770      7771      7772
      7773      7777      7773      7774      7773      7775      7773      7776
      7777      7778      7779      7783      7779      7780      7779      7781
      7779      7782      7783      7784      7785      7789      7785      7786
      7785      7787      7785      7788      7789      7790      7791      7795
      7791      7792      7791      7793      7791      7794      7795      7796
      7797      7801      7797      7798      7797      7799      7797      7800
      7801      7802      7803      7807      7803      7804      7803      7805
      7803      7806      7807      7808      7809      7813      7809      7810
      7809      7811      7809      7812      7813      7814      7815      7819
      7815      7816      7815      7817      7815      7818      7819      7820
      7821      7825      7821      7822      7821      7823      7821      7824
      7825      7826      7827      7831      7827      7828      7827      7829
      7827      7830      7831      7832      7833      7837      7833      7834
      7833      7835      7833      7836      7837      7838      7839      7843
      7839      7840      7839      7841      7839      7842      7843      7844
      7845      7849      7845      7846      7845      7847      7845      7848
      7849      7850      7851      7855      7851      7852      7851      7853
      7851      7854      7855      7856      7857      7861      7857      7858
      7857      7859      7857      7860      7861      7862      7863      7867
      7863      7864      7863      7865      7863      7866      7867      7868
      7869      7873      7869      7870      7869      7871      7869      7872
      7873      7874      7875      7879      7875      7876      7875      7877
      7875      7878      7879      7880      7881      7885      7881      7882
      7881      7883      7881      7884      7885      7886      7887      7891
      7887      7888      7887      7889      7887      7890      7891      7892
      7893      7897      7893      7894      7893      7895      7893      7896
      7897      7898      7899      7903      7899      7900      7899      7901
      7899      7902      7903      7904      7905      7909      7905      7906
      7905      7907      7905      7908      7909      7910      7911      7915
      7911      7912      7911      7913      7911      7914      7915      7916
      7917      7921      7917      7918      7917      7919      7917      7920
      7921      7922      7923      7927      7923      7924      7923      7925
      7923      7926      7927      7928      7929      7933      7929      7930
      7929      7931      7929      7932      7933      7934      7935      7939
      7935      7936      7935      7937      7935      7938      7939      7940
      7941      7945      7941      7942      7941      7943      7941      7944
      7945      7946      7947      7951      7947      7948      7947      7949
      7947      7950      7951      7952      7953      7957      7953      7954
      7953      7955      7953      7956      7957      7958      7959      7963
      7959      7960      7959      7961      7959      7962      7963      7964
      7965      7969      7965      7966      7965      7967      7965      7968
      7969      7970      7971      7975      7971      7972      7971      7973
      7971      7974      7975      7976      7977      7981      7977      7978
      7977      7979      7977      7980      7981      7982      7983      7987
      7983      7984      7983      7985      7983      7986      7987      7988
      7989      7993      7989      7990      7989      7991      7989      7992
      7993      7994      7995      7999      7995      7996      7995      7997
      7995      7998      7999      8000      8001      8005      8001      8002
      8001      8003      8001      8004      8005      8006      8007      8011
      8007      8008      8007      8009      8007      8010      8011      8012
      8013      8017      8013      8014      8013      8015      8013      8016
      8017      8018      8019      8023      8019      8020      8019      8021
      8019      8022      8023      8024      8025      8029      8025      8026
      8025      8027      8025      8028      8029      8030      8031      8035
      8031      8032      8031      8033      8031      8034      8035      8036
      8037      8041      8037      8038      8037      8039      8037      8040
      8041      8042      8043      8047      8043      8044      8043      8045
      8043      8046      8047      8048      8049      8053      8049      8050
      8049      8051      8049      8052      8053      8054      8055      8059
      8055      8056      8055      8057      8055      8058      8059      8060
      8061      8065      8061      8062      8061      8063      8061      8064
      8065      8066      8067      8071      8067      8068      8067      8069
      8067      8070      8071      8072      8073      8077      8073      8074
      8073      8075      8073      8076      8077      8078      8079      8083
      8079      8080      8079      8081      8079      8082      8083      8084
      8085      8089      8085      8086      8085      8087      8085      8088
      8089      8090      8091      8095      8091      8092      8091      8093
      8091      8094      8095      8096      8097      8101      8097      8098
      8097      8099      8097      8100      8101      8102      8103      8107
      8103      8104      8103      8105      8103      8106      8107      8108
      8109      8113      8109      8110      8109      8111      8109      8112
      8113      8114      8115      8119      8115      8116      8115      8117
      8115      8118      8119      8120      8121      8125      8121      8122
      8121      8123      8121      8124      8125      8126      8127      8131
      8127      8128      8127      8129      8127      8130      8131      8132
      8133      8137      8133      8134      8133      8135      8133      8136
      8137      8138      8139      8143      8139      8140      8139      8141
      8139      8142      8143      8144      8145      8149      8145      8146
      8145      8147      8145      8148      8149      8150      8151      8155
      8151      8152      8151      8153      8151      8154      8155      8156
      8157      8161      8157      8158      8157      8159      8157      8160
      8161      8162      8163      8167      8163      8164      8163      8165
      8163      8166      8167      8168      8169      8173      8169      8170
      8169      8171      8169      8172      8173      8174      8175      8179
      8175      8176      8175      8177      8175      8178      8179      8180
      8181      8185      8181      8182      8181      8183      8181      8184
      8185      8186      8187      8191      8187      8188      8187      8189
      8187      8190      8191      8192      8193      8197      8193      8194
      8193      8195      8193      8196      8197      8198      8199      8203
      8199      8200      8199      8201      8199      8202      8203      8204
      8205      8209      8205      8206      8205      8207      8205      8208
      8209      8210      8211      8215      8211      8212      8211      8213
      8211      8214      8215      8216      8217      8221      8217      8218
      8217      8219      8217      8220      8221      8222      8223      8227
      8223      8224      8223      8225      8223      8226      8227      8228
      8229      8233      8229      8230      8229      8231      8229      8232
      8233      8234      8235      8239      8235      8236      8235      8237
      8235      8238      8239      8240      8241      8245      8241      8242
      8241      8243      8241      8244      8245      8246      8247      8251
      8247      8248      8247      8249      8247      8250      8251      8252
      8253      8257      8253      8254      8253      8255      8253      8256
      8257      8258      8259      8263      8259      8260      8259      8261
      8259      8262      8263      8264      8265      8269      8265      8266
      8265      8267      8265      8268      8269      8270      8271      8275
      8271      8272      8271      8273      8271      8274      8275      8276
      8277      8281      8277      8278      8277      8279      8277      8280
      8281      8282      8283      8287      8283      8284      8283      8285
      8283      8286      8287      8288      8289      8293      8289      8290
      8289      8291      8289      8292      8293      8294      8295      8299
      8295      8296      8295      8297      8295      8298      8299      8300
      8301      8305      8301      8302      8301      8303      8301      8304
      8305      8306      8307      8311      8307      8308      8307      8309
      8307      8310      8311      8312      8313      8317      8313      8314
      8313      8315      8313      8316      8317      8318      8319      8323
      8319      8320      8319      8321      8319      8322      8323      8324
      8325      8329      8325      8326      8325      8327      8325      8328
      8329      8330      8331      8335      8331      8332      8331      8333
      8331      8334      8335      8336      8337      8341      8337      8338
      8337      8339      8337      8340      8341      8342      8343      8347
      8343      8344      8343      8345      8343      8346      8347      8348
      8349      8353      8349      8350      8349      8351      8349      8352
      8353      8354      8355      8359      8355      8356      8355      8357
      8355      8358      8359      8360      8361      8365      8361      8362
      8361      8363      8361      8364      8365      8366      8367      8371
      8367      8368      8367      8369      8367      8370      8371      8372
      8373      8377      8373      8374      8373      8375      8373      8376
      8377      8378      8379      8383      8379      8380      8379      8381
      8379      8382      8383      8384      8385      8389      8385      8386
      8385      8387      8385      8388      8389      8390      8391      8395
      8391      8392      8391      8393      8391      8394      8395      8396
      8397      8401      8397      8398      8397      8399      8397      8400
      8401      8402      8403      8407      8403      8404      8403      8405
      8403      8406      8407      8408      8409      8413      8409      8410
      8409      8411      8409      8412      8413      8414      8415      8419
      8415      8416      8415      8417      8415      8418      8419      8420
      8421      8425      8421      8422      8421      8423      8421      8424
      8425      8426      8427      8431      8427      8428      8427      8429
      8427      8430      8431      8432      8433      8437      8433      8434
      8433      8435      8433      8436      8437      8438      8439      8443
      8439      8440      8439      8441      8439      8442      8443      8444
      8445      8449      8445      8446      8445      8447      8445      8448
      8449      8450      8451      8455      8451      8452      8451      8453
      8451      8454      8455      8456      8457      8461      8457      8458
      8457      8459      8457      8460      8461      8462      8463      8467
      8463      8464      8463      8465      8463      8466      8467      8468
      8469      8473      8469      8470      8469      8471      8469      8472
      8473      8474      8475      8479      8475      8476      8475      8477
      8475      8478      8479      8480      8481      8485      8481      8482
      8481      8483      8481      8484      8485      8486      8487      8491
      8487      8488      8487      8489      8487      8490      8491      8492
      8493      8497      8493      8494      8493      8495      8493      8496
      8497      8498      8499      8503      8499      8500      8499      8501
      8499      8502      8503      8504      8505      8509      8505      8506
      8505      8507      8505      8508      8509      8510      8511      8515
      8511      8512      8511      8513      8511      8514      8515      8516
      8517      8521      8517      8518      8517      8519      8517      8520
      8521      8522      8523      8527      8523      8524      8523      8525
      8523      8526      8527      8528      8529      8533      8529      8530
      8529      8531      8529      8532      8533      8534      8535      8539
      8535      8536      8535      8537      8535      8538      8539      8540
      8541      8545      8541      8542      8541      8543      8541      8544
      8545      8546      8547      8551      8547      8548      8547      8549
      8547      8550      8551      8552      8553      8557      8553      8554
      8553      8555      8553      8556      8557      8558      8559      8563
      8559      8560      8559      8561      8559      8562      8563      8564
      8565      8569      8565      8566      8565      8567      8565      8568
      8569      8570      8571      8575      8571      8572      8571      8573
      8571      8574      8575      8576      8577      8581      8577      8578
      8577      8579      8577      8580      8581      8582      8583      8587
      8583      8584      8583      8585      8583      8586      8587      8588
      8589      8593      8589      8590      8589      8591      8589      8592
      8593      8594      8595      8599      8595      8596      8595      8597
      8595      8598      8599      8600      8601      8605      8601      8602
      8601      8603      8601      8604      8605      8606      8607      8611
      8607      8608      8607      8609      8607      8610      8611      8612
      8613      8617      8613      8614      8613      8615      8613      8616
      8617      8618      8619      8623      8619      8620      8619      8621
      8619      8622      8623      8624      8625      8629      8625      8626
      8625      8627      8625      8628      8629      8630      8631      8635
      8631      8632      8631      8633      8631      8634      8635      8636
      8637      8641      8637      8638      8637      8639      8637      8640
      8641      8642      8643      8647      8643      8644      8643      8645
      8643      8646      8647      8648      8649      8653      8649      8650
      8649      8651      8649      8652      8653      8654      8655      8659
      8655      8656      8655      8657      8655      8658      8659      8660
      8661      8665      8661      8662      8661      8663      8661      8664
      8665      8666      8667      8671      8667      8668      8667      8669
      8667      8670      8671      8672      8673      8677      8673      8674
      8673      8675      8673      8676      8677      8678      8679      8683
      8679      8680      8679      8681      8679      8682      8683      8684
      8685      8689      8685      8686      8685      8687      8685      8688
      8689      8690      8691      8695      8691      8692      8691      8693
      8691      8694      8695      8696      8697      8701      8697      8698
      8697      8699      8697      8700      8701      8702      8703      8707
      8703      8704      8703      8705      8703      8706      8707      8708
      8709      8713      8709      8710      8709      8711      8709      8712
      8713      8714      8715      8719      8715      8716      8715      8717
      8715      8718      8719      8720      8721      8725      8721      8722
      8721      8723      8721      8724      8725      8726      8727      8731
      8727      8728      8727      8729      8727      8730      8731      8732
      8733      8737      8733      8734      8733      8735      8733      8736
      8737      8738      8739      8743      8739      8740      8739      8741
      8739      8742      8743      8744      8745      8749      8745      8746
      8745      8747      8745      8748      8749      8750      8751      8755
      8751      8752      8751      8753      8751      8754      8755      8756
      8757      8761      8757      8758      8757      8759      8757      8760
      8761      8762      8763      8767      8763      8764      8763      8765
      8763      8766      8767      8768      8769      8773      8769      8770
      8769      8771      8769      8772      8773      8774      8775      8779
      8775      8776      8775      8777      8775      8778      8779      8780
      8781      8785      8781      8782      8781      8783      8781      8784
      8785      8786      8787      8791      8787      8788      8787      8789
      8787      8790      8791      8792      8793      8797      8793      8794
      8793      8795      8793      8796      8797      8798      8799      8803
      8799      8800      8799      8801      8799      8802      8803      8804
      8805      8809      8805      8806      8805      8807      8805      8808
      8809      8810      8811      8815      8811      8812      8811      8813
      8811      8814      8815      8816      8817      8821      8817      8818
      8817      8819      8817      8820      8821      8822      8823      8827
      8823      8824      8823      8825      8823      8826      8827      8828
      8829      8833      8829      8830      8829      8831      8829      8832
      8833      8834      8835      8839      8835      8836      8835      8837
      8835      8838      8839      8840      8841      8845      8841      8842
      8841      8843      8841      8844      8845      8846      8847      8851
      8847      8848      8847      8849      8847      8850      8851      8852
      8853      8857      8853      8854      8853      8855      8853      8856
      8857      8858      8859      8863      8859      8860      8859      8861
      8859      8862      8863      8864      8865      8869      8865      8866
      8865      8867      8865      8868      8869      8870      8871      8875
      8871      8872      8871      8873      8871      8874      8875      8876
      8877      8881      8877      8878      8877      8879      8877      8880
      8881      8882      8883      8887      8883      8884      8883      8885
      8883      8886      8887      8888      8889      8893      8889      8890
      8889      8891      8889      8892      8893      8894      8895      8899
      8895      8896      8895      8897      8895      8898      8899      8900
      8901      8905      8901      8902      8901      8903      8901      8904
      8905      8906      8907      8911      8907      8908      8907      8909
      8907      8910      8911      8912      8913      8917      8913      8914
      8913      8915      8913      8916      8917      8918      8919      8923
      8919      8920      8919      8921      8919      8922      8923      8924
      8925      8929      8925      8926      8925      8927      8925      8928
      8929      8930      8931      8935      8931      8932      8931      8933
      8931      8934      8935      8936      8937      8941      8937      8938
      8937      8939      8937      8940      8941      8942      8943      8947
      8943      8944      8943      8945      8943      8946      8947      8948
      8949      8953      8949      8950      8949      8951      8949      8952
      8953      8954      8955      8959      8955      8956      8955      8957
      8955      8958      8959      8960      8961      8965      8961      8962
      8961      8963      8961      8964      8965      8966      8967      8971
      8967      8968      8967      8969      8967      8970      8971      8972
      8973      8977      8973      8974      8973      8975      8973      8976
      8977      8978      8979      8983      8979      8980      8979      8981
      8979      8982      8983      8984      8985      8989      8985      8986
      8985      8987      8985      8988      8989      8990      8991      8995
      8991      8992      8991      8993      8991      8994      8995      8996
      8997      9001      8997      8998      8997      8999      8997      9000
      9001      9002      9003      9007      9003      9004      9003      9005
      9003      9006      9007      9008      9009      9013      9009      9010
      9009      9011      9009      9012      9013      9014      9015      9019
      9015      9016      9015      9017      9015      9018      9019      9020
      9021      9025      9021      9022      9021      9023      9021      9024
      9025      9026      9027      9031      9027      9028      9027      9029
      9027      9030      9031      9032      9033      9037      9033      9034
      9033      9035      9033      9036      9037      9038      9039      9043
      9039      9040      9039      9041      9039      9042      9043      9044
      9045      9049      9045      9046      9045      9047      9045      9048
      9049      9050      9051      9055      9051      9052      9051      9053
      9051      9054      9055      9056      9057      9061      9057      9058
      9057      9059      9057      9060      9061      9062      9063      9067
      9063      9064      9063      9065      9063      9066      9067      9068
      9069      9073      9069      9070      9069      9071      9069      9072
      9073      9074      9075      9079      9075      9076      9075      9077
      9075      9078      9079      9080      9081      9085      9081      9082
      9081      9083      9081      9084      9085      9086      9087      9091
      9087      9088      9087      9089      9087      9090      9091      9092
      9093      9097      9093      9094      9093      9095      9093      9096
      9097      9098      9099      9103      9099      9100      9099      9101
      9099      9102      9103      9104      9105      9109      9105      9106
      9105      9107      9105      9108      9109      9110      9111      9115
      9111      9112      9111      9113      9111      9114      9115      9116
      9117      9121      9117      9118      9117      9119      9117      9120
      9121      9122      9123      9127      9123      9124      9123      9125
      9123      9126      9127      9128      9129      9133      9129      9130
      9129      9131      9129      9132      9133      9134      9135      9139
      9135      9136      9135      9137      9135      9138      9139      9140
      9141      9145      9141      9142      9141      9143      9141      9144
      9145      9146      9147      9151      9147      9148      9147      9149
      9147      9150      9151      9152      9153      9157      9153      9154
      9153      9155      9153      9156      9157      9158      9159      9163
      9159      9160      9159      9161      9159      9162      9163      9164
      9165      9169      9165      9166      9165      9167      9165      9168
      9169      9170      9171      9175      9171      9172      9171      9173
      9171      9174      9175      9176      9177      9181      9177      9178
      9177      9179      9177      9180      9181      9182      9183      9187
      9183      9184      9183      9185      9183      9186      9187      9188
      9189      9193      9189      9190      9189      9191      9189      9192
      9193      9194      9195      9199      9195      9196      9195      9197
      9195      9198      9199      9200      9201      9205      9201      9202
      9201      9203      9201      9204      9205      9206      9207      9211
      9207      9208      9207      9209      9207      9210      9211      9212
      9213      9217      9213      9214      9213      9215      9213      9216
      9217      9218      9219      9223      9219      9220      9219      9221
      9219      9222      9223      9224      9225      9229      9225      9226
      9225      9227      9225      9228      9229      9230      9231      9235
      9231      9232      9231      9233      9231      9234      9235      9236
      9237      9241      9237      9238      9237      9239      9237      9240
      9241      9242      9243      9247      9243      9244      9243      9245
      9243      9246      9247      9248      9249      9253      9249      9250
      9249      9251      9249      9252      9253      9254      9255      9259
      9255      9256      9255      9257      9255      9258      9259      9260
      9261      9265      9261      9262      9261      9263      9261      9264
      9265      9266      9267      9271      9267      9268      9267      9269
      9267      9270      9271      9272      9273      9277      9273      9274
      9273      9275      9273      9276      9277      9278      9279      9283
      9279      9280      9279      9281      9279      9282      9283      9284
      9285      9289      9285      9286      9285      9287      9285      9288
      9289      9290      9291      9295      9291      9292      9291      9293
      9291      9294      9295      9296      9297      9301      9297      9298
      9297      9299      9297      9300      9301      9302      9303      9307
      9303      9304      9303      9305      9303      9306      9307      9308
      9309      9313      9309      9310      9309      9311      9309      9312
      9313      9314      9315      9319      9315      9316      9315      9317
      9315      9318      9319      9320      9321      9325      9321      9322
      9321      9323      9321      9324      9325      9326      9327      9331
      9327      9328      9327      9329      9327      9330      9331      9332
      9333      9337      9333      9334      9333      9335      9333      9336
      9337      9338      9339      9343      9339      9340      9339      9341
      9339      9342      9343      9344      9345      9349      9345      9346
      9345      9347      9345      9348      9349      9350      9351      9355
      9351      9352      9351      9353      9351      9354      9355      9356
      9357      9361      9357      9358      9357      9359      9357      9360
      9361      9362      9363      9367      9363      9364      9363      9365
      9363      9366      9367      9368      9369      9373      9369      9370
      9369      9371      9369      9372      9373      9374      9375      9379
      9375      9376      9375      9377      9375      9378      9379      9380
      9381      9385      9381      9382      9381      9383      9381      9384
      9385      9386      9387      9391      9387      9388      9387      9389
      9387      9390      9391      9392      9393      9397      9393      9394
      9393      9395      9393      9396      9397      9398      9399      9403
      9399      9400      9399      9401      9399      9402      9403      9404
      9405      9409      9405      9406      9405      9407      9405      9408
      9409      9410      9411      9415      9411      9412      9411      9413
      9411      9414      9415      9416      9417      9421      9417      9418
      9417      9419      9417      9420      9421      9422      9423      9427
      9423      9424      9423      9425      9423      9426      9427      9428
      9429      9433      9429      9430      9429      9431      9429      9432
      9433      9434      9435      9439      9435      9436      9435      9437
      9435      9438      9439      9440      9441      9445      9441      9442
      9441      9443      9441      9444      9445      9446      9447      9451
      9447      9448      9447      9449      9447      9450      9451      9452
      9453      9457      9453      9454      9453      9455      9453      9456
      9457      9458      9459      9463      9459      9460      9459      9461
      9459      9462      9463      9464      9465      9469      9465      9466
      9465      9467      9465      9468      9469      9470      9471      9475
      9471      9472      9471      9473      9471      9474      9475      9476
      9477      9481      9477      9478      9477      9479      9477      9480
      9481      9482      9483      9487      9483      9484      9483      9485
      9483      9486      9487      9488      9489      9493      9489      9490
      9489      9491      9489      9492      9493      9494      9495      9499
      9495      9496      9495      9497      9495      9498      9499      9500
      9501      9505      9501      9502      9501      9503      9501      9504
      9505      9506      9507      9511      9507      9508      9507      9509
      9507      9510      9511      9512      9513      9517      9513      9514
      9513      9515      9513      9516      9517      9518      9519      9523
      9519      9520      9519      9521      9519      9522      9523      9524
      9525      9529      9525      9526      9525      9527      9525      9528
      9529      9530      9531      9535      9531      9532      9531      9533
      9531      9534      9535      9536      9537      9541      9537      9538
      9537      9539      9537      9540      9541      9542      9543      9547
      9543      9544      9543      9545      9543      9546      9547      9548
      9549      9553      9549      9550      9549      9551      9549      9552
      9553      9554      9555      9559      9555      9556      9555      9557
      9555      9558      9559      9560      9561      9565      9561      9562
      9561      9563      9561      9564      9565      9566      9567      9571
      9567      9568      9567      9569      9567      9570      9571      9572
      9573      9577      9573      9574      9573      9575      9573      9576
      9577      9578      9579      9583      9579      9580      9579      9581
      9579      9582      9583      9584      9585      9589      9585      9586
      9585      9587      9585      9588      9589      9590      9591      9595
      9591      9592      9591      9593      9591      9594      9595      9596
      9597      9601      9597      9598      9597      9599      9597      9600
      9601      9602      9603      9607      9603      9604      9603      9605
      9603      9606      9607      9608      9609      9613      9609      9610
      9609      9611      9609      9612      9613      9614      9615      9619
      9615      9616      9615      9617      9615      9618      9619      9620
      9621      9625      9621      9622      9621      9623      9621      9624
      9625      9626      9627      9631      9627      9628      9627      9629
      9627      9630      9631      9632      9633      9637      9633      9634
      9633      9635      9633      9636      9637      9638      9639      9643
      9639      9640      9639      9641      9639      9642      9643      9644
      9645      9649      9645      9646      9645      9647      9645      9648
      9649      9650      9651      9655      9651      9652      9651      9653
      9651      9654      9655      9656      9657      9661      9657      9658
      9657      9659      9657      9660      9661      9662      9663      9667
      9663      9664      9663      9665      9663      9666      9667      9668
      9669      9673      9669      9670      9669      9671      9669      9672
      9673      9674      9675      9679      9675      9676      9675      9677
      9675      9678      9679      9680      9681      9685      9681      9682
      9681      9683      9681      9684      9685      9686      9687      9691
      9687      9688      9687      9689      9687      9690      9691      9692
      9693      9697      9693      9694      9693      9695      9693      9696
      9697      9698      9699      9703      9699      9700      9699      9701
      9699      9702      9703      9704      9705      9709      9705      9706
      9705      9707      9705      9708      9709      9710      9711      9715
      9711      9712      9711      9713      9711      9714      9715      9716
      9717      9721      9717      9718      9717      9719      9717      9720
      9721      9722      9723      9727      9723      9724      9723      9725
      9723      9726      9727      9728      9729      9733      9729      9730
      9729      9731      9729      9732      9733      9734      9735      9739
      9735      9736      9735      9737      9735      9738      9739      9740
      9741      9745      9741      9742      9741      9743      9741      9744
      9745      9746      9747      9751      9747      9748      9747      9749
      9747      9750      9751      9752      9753      9757      9753      9754
      9753      9755      9753      9756      9757      9758      9759      9763
      9759      9760      9759      9761      9759      9762      9763      9764
      9765      9769      9765      9766      9765      9767      9765      9768
      9769      9770      9771      9775      9771      9772      9771      9773
      9771      9774      9775      9776      9777      9781      9777      9778
      9777      9779      9777      9780      9781      9782      9783      9787
      9783      9784      9783      9785      9783      9786      9787      9788
      9789      9793      9789      9790      9789      9791      9789      9792
      9793      9794      9795      9799      9795      9796      9795      9797
      9795      9798      9799      9800      9801      9805      9801      9802
      9801      9803      9801      9804      9805      9806      9807      9811
      9807      9808      9807      9809      9807      9810      9811      9812
      9813      9817      9813      9814      9813      9815      9813      9816
      9817      9818      9819      9823      9819      9820      9819      9821
      9819      9822      9823      9824      9825      9829      9825      9826
      9825      9827      9825      9828      9829      9830      9831      9835
      9831      9832      9831      9833      9831      9834      9835      9836
      9837      9841      9837      9838      9837      9839      9837      9840
      9841      9842      9843      9847      9843      9844      9843      9845
      9843      9846      9847      9848      9849      9853      9849      9850
      9849      9851      9849      9852      9853      9854      9855      9859
      9855      9856      9855      9857      9855      9858      9859      9860
      9861      9865      9861      9862      9861      9863      9861      9864
      9865      9866      9867      9871      9867      9868      9867      9869
      9867      9870      9871      9872      9873      9877      9873      9874
      9873      9875      9873      9876      9877      9878      9879      9883
      9879      9880      9879      9881      9879      9882      9883      9884
      9885      9889      9885      9886      9885      9887      9885      9888
      9889      9890      9891      9895      9891      9892      9891      9893
      9891      9894      9895      9896      9897      9901      9897      9898
      9897      9899      9897      9900      9901      9902      9903      9907
      9903      9904      9903      9905      9903      9906      9907      9908
      9909      9913      9909      9910      9909      9911      9909      9912
      9913      9914      9915      9919      9915      9916      9915      9917
      9915      9918      9919      9920      9921      9925      9921      9922
      9921      9923      9921      9924      9925      9926      9927      9931
      9927      9928      9927      9929      9927      9930      9931      9932
      9933      9937      9933      9934      9933      9935      9933      9936
      9937      9938      9939      9943      9939      9940      9939      9941
      9939      9942      9943      9944      9945      9949      9945      9946
      9945      9947      9945      9948      9949      9950      9951      9955
      9951      9952      9951      9953      9951      9954      9955      9956
      9957      9961      9957      9958      9957      9959      9957      9960
      9961      9962      9963      9967      9963      9964      9963      9965
      9963      9966      9967      9968      9969      9973      9969      9970
      9969      9971      9969      9972      9973      9974      9975      9979
      9975      9976      9975      9977      9975      9978      9979      9980
      9981      9985      9981      9982      9981      9983      9981      9984
      9985      9986      9987      9991      9987      9988      9987      9989
      9987      9990      9991      9992      9993      9997      9993      9994
      9993      9995      9993      9996      9997      9998      9999     10003
      9999     10000      9999     10001      9999     10002     10003     10004
     10005     10009     10005     10006     10005     10007     10005     10008
     10009     10010     10011     10015     10011     10012     10011     10013
     10011     10014     10015     10016     10017     10021     10017     10018
     10017     10019     10017     10020     10021     10022     10023     10027
     10023     10024     10023     10025     10023     10026     10027     10028
     10029     10033     10029     10030     10029     10031     10029     10032
     10033     10034     10035     10039     10035     10036     10035     10037
     10035     10038     10039     10040     10041     10045     10041     10042
     10041     10043     10041     10044     10045     10046     10047     10051
     10047     10048     10047     10049     10047     10050     10051     10052
     10053     10057     10053     10054     10053     10055     10053     10056
     10057     10058     10059     10063     10059     10060     10059     10061
     10059     10062     10063     10064     10065     10069     10065     10066
     10065     10067     10065     10068     10069     10070     10071     10075
     10071     10072     10071     10073     10071     10074     10075     10076
     10077     10081     10077     10078     10077     10079     10077     10080
     10081     10082     10083     10087     10083     10084     10083     10085
     10083     10086     10087     10088     10089     10093     10089     10090
     10089     10091     10089     10092     10093     10094     10095     10099
     10095     10096     10095     10097     10095     10098     10099     10100
     10101     10105     10101     10102     10101     10103     10101     10104
     10105     10106     10107     10111     10107     10108     10107     10109
     10107     10110     10111     10112     10113     10117     10113     10114
     10113     10115     10113     10116     10117     10118     10119     10123
     10119     10120     10119     10121     10119     10122     10123     10124
     10125     10129     10125     10126     10125     10127     10125     10128
     10129     10130     10131     10135     10131     10132     10131     10133
     10131     10134     10135     10136     10137     10141     10137     10138
     10137     10139     10137     10140     10141     10142     10143     10147
     10143     10144     10143     10145     10143     10146     10147     10148
     10149     10153     10149     10150     10149     10151     10149     10152
     10153     10154     10155     10159     10155     10156     10155     10157
     10155     10158     10159     10160     10161     10165     10161     10162
     10161     10163     10161     10164     10165     10166     10167     10171
     10167     10168     10167     10169     10167     10170     10171     10172
     10173     10177     10173     10174     10173     10175     10173     10176
     10177     10178     10179     10183     10179     10180     10179     10181
     10179     10182     10183     10184     10185     10189     10185     10186
     10185     10187     10185     10188     10189     10190     10191     10195
     10191     10192     10191     10193     10191     10194     10195     10196
     10197     10201     10197     10198     10197     10199     10197     10200
     10201     10202     10203     10207     10203     10204     10203     10205
     10203     10206     10207     10208     10209     10213     10209     10210
     10209     10211     10209     10212     10213     10214     10215     10219
     10215     10216     10215     10217     10215     10218     10219     10220
     10221     10225     10221     10222     10221     10223     10221     10224
     10225     10226     10227     10231     10227     10228     10227     10229
     10227     10230     10231     10232     10233     10237     10233     10234
     10233     10235     10233     10236     10237     10238     10239     10243
     10239     10240     10239     10241     10239     10242     10243     10244
     10245     10249     10245     10246     10245     10247     10245     10248
     10249     10250     10251     10255     10251     10252     10251     10253
     10251     10254     10255     10256     10257     10261     10257     10258
     10257     10259     10257     10260     10261     10262     10263     10267
     10263     10264     10263     10265     10263     10266     10267     10268
     10269     10273     10269     10270     10269     10271     10269     10272
     10273     10274     10275     10279     10275     10276     10275     10277
     10275     10278     10279     10280     10281     10285     10281     10282
     10281     10283     10281     10284     10285     10286     10287     10291
     10287     10288     10287     10289     10287     10290     10291     10292
     10293     10297     10293     10294     10293     10295     10293     10296
     10297     10298     10299     10303     10299     10300     10299     10301
     10299     10302     10303     10304     10305     10309     10305     10306
     10305     10307     10305     10308     10309     10310     10311     10315
     10311     10312     10311     10313     10311     10314     10315     10316
     10317     10321     10317     10318     10317     10319     10317     10320
     10321     10322     10323     10327     10323     10324     10323     10325
     10323     10326     10327     10328     10329     10333     10329     10330
     10329     10331     10329     10332     10333     10334     10335     10339
     10335     10336     10335     10337     10335     10338     10339     10340
     10341     10345     10341     10342     10341     10343     10341     10344
     10345     10346     10347     10351     10347     10348     10347     10349
     10347     10350     10351     10352     10353     10357     10353     10354
     10353     10355     10353     10356     10357     10358     10359     10363
     10359     10360     10359     10361     10359     10362     10363     10364
     10365     10369     10365     10366     10365     10367     10365     10368
     10369     10370     10371     10375     10371     10372     10371     10373
     10371     10374     10375     10376     10377     10381     10377     10378
     10377     10379     10377     10380     10381     10382     10383     10387
     10383     10384     10383     10385     10383     10386     10387     10388
     10389     10393     10389     10390     10389     10391     10389     10392
     10393     10394     10395     10399     10395     10396     10395     10397
     10395     10398     10399     10400     10401     10405     10401     10402
     10401     10403     10401     10404     10405     10406     10407     10411
     10407     10408     10407     10409     10407     10410     10411     10412
     10413     10417     10413     10414     10413     10415     10413     10416
     10417     10418     10419     10423     10419     10420     10419     10421
     10419     10422     10423     10424     10425     10429     10425     10426
     10425     10427     10425     10428     10429     10430     10431     10435
     10431     10432     10431     10433     10431     10434     10435     10436
     10437     10441     10437     10438     10437     10439     10437     10440
     10441     10442     10443     10447     10443     10444     10443     10445
     10443     10446     10447     10448     10449     10453     10449     10450
     10449     10451     10449     10452     10453     10454     10455     10459
     10455     10456     10455     10457     10455     10458     10459     10460
     10461     10465     10461     10462     10461     10463     10461     10464
     10465     10466     10467     10471     10467     10468     10467     10469
     10467     10470     10471     10472     10473     10477     10473     10474
     10473     10475     10473     10476     10477     10478     10479     10483
     10479     10480     10479     10481     10479     10482     10483     10484
     10485     10489     10485     10486     10485     10487     10485     10488
     10489     10490     10491     10495     10491     10492     10491     10493
     10491     10494     10495     10496     10497     10501     10497     10498
     10497     10499     10497     10500     10501     10502     10503     10507
     10503     10504     10503     10505     10503     10506     10507     10508
     10509     10513     10509     10510     10509     10511     10509     10512
     10513     10514     10515     10519     10515     10516     10515     10517
     10515     10518     10519     10520     10521     10525     10521     10522
     10521     10523     10521     10524     10525     10526     10527     10531
     10527     10528     10527     10529     10527     10530     10531     10532
     10533     10537     10533     10534     10533     10535     10533     10536
     10537     10538     10539     10543     10539     10540     10539     10541
     10539     10542     10543     10544     10545     10549     10545     10546
     10545     10547     10545     10548     10549     10550     10551     10555
     10551     10552     10551     10553     10551     10554     10555     10556
     10557     10561     10557     10558     10557     10559     10557     10560
     10561     10562     10563     10567     10563     10564     10563     10565
     10563     10566     10567     10568     10569     10573     10569     10570
     10569     10571     10569     10572     10573     10574     10575     10579
     10575     10576     10575     10577     10575     10578     10579     10580
     10581     10585     10581     10582     10581     10583     10581     10584
     10585     10586     10587     10591     10587     10588     10587     10589
     10587     10590     10591     10592     10593     10597     10593     10594
     10593     10595     10593     10596     10597     10598     10599     10603
     10599     10600     10599     10601     10599     10602     10603     10604
     10605     10609     10605     10606     10605     10607     10605     10608
     10609     10610     10611     10615     10611     10612     10611     10613
     10611     10614     10615     10616     10617     10621     10617     10618
     10617     10619     10617     10620     10621     10622     10623     10627
     10623     10624     10623     10625     10623     10626     10627     10628
     10629     10633     10629     10630     10629     10631     10629     10632
     10633     10634     10635     10639     10635     10636     10635     10637
     10635     10638     10639     10640     10641     10645     10641     10642
     10641     10643     10641     10644     10645     10646     10647     10651
     10647     10648     10647     10649     10647     10650     10651     10652
     10653     10657     10653     10654     10653     10655     10653     10656
     10657     10658     10659     10663     10659     10660     10659     10661
     10659     10662     10663     10664     10665     10669     10665     10666
     10665     10667     10665     10668     10669     10670     10671     10675
     10671     10672     10671     10673     10671     10674     10675     10676
     10677     10681     10677     10678     10677     10679     10677     10680
     10681     10682     10683     10687     10683     10684     10683     10685
     10683     10686     10687     10688     10689     10693     10689     10690
     10689     10691     10689     10692     10693     10694     10695     10699
     10695     10696     10695     10697     10695     10698     10699     10700
     10701     10705     10701     10702     10701     10703     10701     10704
     10705     10706     10707     10711     10707     10708     10707     10709
     10707     10710     10711     10712     10713     10717     10713     10714
     10713     10715     10713     10716     10717     10718     10719     10723
     10719     10720     10719     10721     10719     10722     10723     10724
     10725     10729     10725     10726     10725     10727     10725     10728
     10729     10730     10731     10735     10731     10732     10731     10733
     10731     10734     10735     10736     10737     10741     10737     10738
     10737     10739     10737     10740     10741     10742     10743     10747
     10743     10744     10743     10745     10743     10746     10747     10748
     10749     10753     10749     10750     10749     10751     10749     10752
     10753     10754     10755     10759     10755     10756     10755     10757
     10755     10758     10759     10760     10761     10765     10761     10762
     10761     10763     10761     10764     10765     10766     10767     10771
     10767     10768     10767     10769     10767     10770     10771     10772
     10773     10777     10773     10774     10773     10775     10773     10776
     10777     10778     10779     10783     10779     10780     10779     10781
     10779     10782     10783     10784     10785     10789     10785     10786
     10785     10787     10785     10788     10789     10790     10791     10795
     10791     10792     10791     10793     10791     10794     10795     10796
     10797     10801     10797     10798     10797     10799     10797     10800
     10801     10802     10803     10807     10803     10804     10803     10805
     10803     10806     10807     10808     10809     10813     10809     10810
     10809     10811     10809     10812     10813     10814     10815     10819
     10815     10816     10815     10817     10815     10818     10819     10820
     10821     10825     10821     10822     10821     10823     10821     10824
     10825     10826     10827     10831     10827     10828     10827     10829
     10827     10830     10831     10832     10833     10837     10833     10834
     10833     10835     10833     10836     10837     10838     10839     10843
     10839     10840     10839     10841     10839     10842     10843     10844
     10845     10849     10845     10846     10845     10847     10845     10848
     10849     10850     10851     10855     10851     10852     10851     10853
     10851     10854     10855     10856     10857     10861     10857     10858
     10857     10859     10857     10860     10861     10862     10863     10867
     10863     10864     10863     10865     10863     10866     10867     10868
     10869     10873     10869     10870     10869     10871     10869     10872
     10873     10874     10875     10879     10875     10876     10875     10877
     10875     10878     10879     10880     10881     10885     10881     10882
     10881     10883     10881     10884     10885     10886     10887     10891
     10887     10888     10887     10889     10887     10890     10891     10892
     10893     10897     10893     10894     10893     10895     10893     10896
     10897     10898     10899     10903     10899     10900     10899     10901
     10899     10902     10903     10904     10905     10909     10905     10906
     10905     10907     10905     10908     10909     10910     10911     10915
     10911     10912     10911     10913     10911     10914     10915     10916
     10917     10921     10917     10918     10917     10919     10917     10920
     10921     10922     10923     10927     10923     10924     10923     10925
     10923     10926     10927     10928     10929     10933     10929     10930
     10929     10931     10929     10932     10933     10934     10935     10939
     10935     10936     10935     10937     10935     10938     10939     10940
     10941     10945     10941     10942     10941     10943     10941     10944
     10945     10946     10947     10951     10947     10948     10947     10949
     10947     10950     10951     10952     10953     10957     10953     10954
     10953     10955     10953     10956     10957     10958     10959     10963
     10959     10960     10959     10961     10959     10962     10963     10964
     10965     10969     10965     10966     10965     10967     10965     10968
     10969     10970     10971     10975     10971     10972     10971     10973
     10971     10974     10975     10976     10977     10981     10977     10978
     10977     10979     10977     10980     10981     10982     10983     10987
     10983     10984     10983     10985     10983     10986     10987     10988
     10989     10993     10989     10990     10989     10991     10989     10992
     10993     10994     10995     10999     10995     10996     10995     10997
     10995     10998     10999     11000     11001     11005     11001     11002
     11001     11003     11001     11004     11005     11006     11007     11011
     11007     11008     11007     11009     11007     11010     11011     11012
     11013     11017     11013     11014     11013     11015     11013     11016
     11017     11018     11019     11023     11019     11020     11019     11021
     11019     11022     11023     11024     11025     11029     11025     11026
     11025     11027     11025     11028     11029     11030     11031     11035
     11031     11032     11031     11033     11031     11034     11035     11036
     11037     11041     11037     11038     11037     11039     11037     11040
     11041     11042     11043     11047     11043     11044     11043     11045
     11043     11046     11047     11048     11049     11053     11049     11050
     11049     11051     11049     11052     11053     11054     11055     11059
     11055     11056     11055     11057     11055     11058     11059     11060
     11061     11065     11061     11062     11061     11063     11061     11064
     11065     11066     11067     11071     11067     11068     11067     11069
     11067     11070     11071     11072     11073     11077     11073     11074
     11073     11075     11073     11076     11077     11078     11079     11083
     11079     11080     11079     11081     11079     11082     11083     11084
     11085     11089     11085     11086     11085     11087     11085     11088
     11089     11090     11091     11095     11091     11092     11091     11093
     11091     11094     11095     11096     11097     11101     11097     11098
     11097     11099     11097     11100     11101     11102     11103     11107
     11103     11104     11103     11105     11103     11106     11107     11108
     11109     11113     11109     11110     11109     11111     11109     11112
     11113     11114     11115     11119     11115     11116     11115     11117
     11115     11118     11119     11120     11121     11125     11121     11122
     11121     11123     11121     11124     11125     11126     11127     11131
     11127     11128     11127     11129     11127     11130     11131     11132
     11133     11137     11133     11134     11133     11135     11133     11136
     11137     11138     11139     11143     11139     11140     11139     11141
     11139     11142     11143     11144     11145     11149     11145     11146
     11145     11147     11145     11148     11149     11150     11151     11155
     11151     11152     11151     11153     11151     11154     11155     11156
     11157     11161     11157     11158     11157     11159     11157     11160
     11161     11162     11163     11167     11163     11164     11163     11165
     11163     11166     11167     11168     11169     11173     11169     11170
     11169     11171     11169     11172     11173     11174     11175     11179
     11175     11176     11175     11177     11175     11178     11179     11180
     11181     11185     11181     11182     11181     11183     11181     11184
     11185     11186     11187     11191     11187     11188     11187     11189
     11187     11190     11191     11192     11193     11197     11193     11194
     11193     11195     11193     11196     11197     11198     11199     11203
     11199     11200     11199     11201     11199     11202     11203     11204
     11205     11209     11205     11206     11205     11207     11205     11208
     11209     11210     11211     11215     11211     11212     11211     11213
     11211     11214     11215     11216     11217     11221     11217     11218
     11217     11219     11217     11220     11221     11222     11223     11227
     11223     11224     11223     11225     11223     11226     11227     11228
     11229     11233     11229     11230     11229     11231     11229     11232
     11233     11234     11235     11239     11235     11236     11235     11237
     11235     11238     11239     11240     11241     11245     11241     11242
     11241     11243     11241     11244     11245     11246     11247     11251
     11247     11248     11247     11249     11247     11250     11251     11252
     11253     11257     11253     11254     11253     11255     11253     11256
     11257     11258     11259     11263     11259     11260     11259     11261
     11259     11262     11263     11264     11265     11269     11265     11266
     11265     11267     11265     11268     11269     11270     11271     11275
     11271     11272     11271     11273     11271     11274     11275     11276
     11277     11281     11277     11278     11277     11279     11277     11280
     11281     11282     11283     11287     11283     11284     11283     11285
     11283     11286     11287     11288     11289     11293     11289     11290
     11289     11291     11289     11292     11293     11294     11295     11299
     11295     11296     11295     11297     11295     11298     11299     11300
     11301     11305     11301     11302     11301     11303     11301     11304
     11305     11306     11307     11311     11307     11308     11307     11309
     11307     11310     11311     11312     11313     11317     11313     11314
     11313     11315     11313     11316     11317     11318     11319     11323
     11319     11320     11319     11321     11319     11322     11323     11324
     11325     11329     11325     11326     11325     11327     11325     11328
     11329     11330     11331     11335     11331     11332     11331     11333
     11331     11334     11335     11336     11337     11341     11337     11338
     11337     11339     11337     11340     11341     11342     11343     11347
     11343     11344     11343     11345     11343     11346     11347     11348
     11349     11353     11349     11350     11349     11351     11349     11352
     11353     11354     11355     11359     11355     11356     11355     11357
     11355     11358     11359     11360     11361     11365     11361     11362
     11361     11363     11361     11364     11365     11366     11367     11371
     11367     11368     11367     11369     11367     11370     11371     11372
     11373     11377     11373     11374     11373     11375     11373     11376
     11377     11378     11379     11383     11379     11380     11379     11381
     11379     11382     11383     11384     11385     11389     11385     11386
     11385     11387     11385     11388     11389     11390     11391     11395
     11391     11392     11391     11393     11391     11394     11395     11396
     11397     11401     11397     11398     11397     11399     11397     11400
     11401     11402     11403     11407     11403     11404     11403     11405
     11403     11406     11407     11408     11409     11413     11409     11410
     11409     11411     11409     11412     11413     11414     11415     11419
     11415     11416     11415     11417     11415     11418     11419     11420
     11421     11425     11421     11422     11421     11423     11421     11424
     11425     11426     11427     11431     11427     11428     11427     11429
     11427     11430     11431     11432     11433     11437     11433     11434
     11433     11435     11433     11436     11437     11438     11439     11443
     11439     11440     11439     11441     11439     11442     11443     11444
     11445     11449     11445     11446     11445     11447     11445     11448
     11449     11450     11451     11455     11451     11452     11451     11453
     11451     11454     11455     11456     11457     11461     11457     11458
     11457     11459     11457     11460     11461     11462     11463     11467
     11463     11464     11463     11465     11463     11466     11467     11468
     11469     11473     11469     11470     11469     11471     11469     11472
     11473     11474     11475     11479     11475     11476     11475     11477
     11475     11478     11479     11480     11481     11485     11481     11482
     11481     11483     11481     11484     11485     11486     11487     11491
     11487     11488     11487     11489     11487     11490     11491     11492
     11493     11497     11493     11494     11493     11495     11493     11496
     11497     11498     11499     11503     11499     11500     11499     11501
     11499     11502     11503     11504     11505     11509     11505     11506
     11505     11507     11505     11508     11509     11510     11511     11515
     11511     11512     11511     11513     11511     11514     11515     11516
     11517     11521     11517     11518     11517     11519     11517     11520
     11521     11522     11523     11527     11523     11524     11523     11525
     11523     11526     11527     11528     11529     11533     11529     11530
     11529     11531     11529     11532     11533     11534     11535     11539
     11535     11536     11535     11537     11535     11538     11539     11540
     11541     11545     11541     11542     11541     11543     11541     11544
     11545     11546     11547     11551     11547     11548     11547     11549
     11547     11550     11551     11552     11553     11557     11553     11554
     11553     11555     11553     11556     11557     11558     11559     11563
     11559     11560     11559     11561     11559     11562     11563     11564
     11565     11569     11565     11566     11565     11567     11565     11568
     11569     11570     11571     11575     11571     11572     11571     11573
     11571     11574     11575     11576     11577     11581     11577     11578
     11577     11579     11577     11580     11581     11582     11583     11587
     11583     11584     11583     11585     11583     11586     11587     11588
     11589     11593     11589     11590     11589     11591     11589     11592
     11593     11594     11595     11599     11595     11596     11595     11597
     11595     11598     11599     11600     11601     11605     11601     11602
     11601     11603     11601     11604     11605     11606     11607     11611
     11607     11608     11607     11609     11607     11610     11611     11612
     11613     11617     11613     11614     11613     11615     11613     11616
     11617     11618     11619     11623     11619     11620     11619     11621
     11619     11622     11623     11624     11625     11629     11625     11626
     11625     11627     11625     11628     11629     11630     11631     11635
     11631     11632     11631     11633     11631     11634     11635     11636
     11637     11641     11637     11638     11637     11639     11637     11640
     11641     11642     11643     11647     11643     11644     11643     11645
     11643     11646     11647     11648     11649     11653     11649     11650
     11649     11651     11649     11652     11653     11654     11655     11659
     11655     11656     11655     11657     11655     11658     11659     11660
     11661     11665     11661     11662     11661     11663     11661     11664
     11665     11666     11667     11671     11667     11668     11667     11669
     11667     11670     11671     11672     11673     11677     11673     11674
     11673     11675     11673     11676     11677     11678     11679     11683
     11679     11680     11679     11681     11679     11682     11683     11684
     11685     11689     11685     11686     11685     11687     11685     11688
     11689     11690     11691     11695     11691     11692     11691     11693
     11691     11694     11695     11696     11697     11701     11697     11698
     11697     11699     11697     11700     11701     11702     11703     11707
     11703     11704     11703     11705     11703     11706     11707     11708
     11709     11713     11709     11710     11709     11711     11709     11712
     11713     11714     11715     11719     11715     11716     11715     11717
     11715     11718     11719     11720     11721     11725     11721     11722
     11721     11723     11721     11724     11725     11726     11727     11731
     11727     11728     11727     11729     11727     11730     11731     11732
     11733     11737     11733     11734     11733     11735     11733     11736
     11737     11738     11739     11743     11739     11740     11739     11741
     11739     11742     11743     11744     11745     11749     11745     11746
     11745     11747     11745     11748     11749     11750     11751     11755
     11751     11752     11751     11753     11751     11754     11755     11756
     11757     11761     11757     11758     11757     11759     11757     11760
     11761     11762     11763     11767     11763     11764     11763     11765
     11763     11766     11767     11768     11769     11773     11769     11770
     11769     11771     11769     11772     11773     11774     11775     11779
     11775     11776     11775     11777     11775     11778     11779     11780
     11781     11785     11781     11782     11781     11783     11781     11784
     11785     11786     11787     11791     11787     11788     11787     11789
     11787     11790     11791     11792     11793     11797     11793     11794
     11793     11795     11793     11796     11797     11798     11799     11803
     11799     11800     11799     11801     11799     11802     11803     11804
     11805     11809     11805     11806     11805     11807     11805     11808
     11809     11810     11811     11815     11811     11812     11811     11813
     11811     11814     11815     11816     11817     11821     11817     11818
     11817     11819     11817     11820     11821     11822     11823     11827
     11823     11824     11823     11825     11823     11826     11827     11828
     11829     11833     11829     11830     11829     11831     11829     11832
     11833     11834     11835     11839     11835     11836     11835     11837
     11835     11838     11839     11840     11841     11845     11841     11842
     11841     11843     11841     11844     11845     11846     11847     11851
     11847     11848     11847     11849     11847     11850     11851     11852
     11853     11857     11853     11854     11853     11855     11853     11856
     11857     11858     11859     11863     11859     11860     11859     11861
     11859     11862     11863     11864     11865     11869     11865     11866
     11865     11867     11865     11868     11869     11870     11871     11875
     11871     11872     11871     11873     11871     11874     11875     11876
     11877     11881     11877     11878     11877     11879     11877     11880
     11881     11882     11883     11887     11883     11884     11883     11885
     11883     11886     11887     11888     11889     11893     11889     11890
     11889     11891     11889     11892     11893     11894     11895     11899
     11895     11896     11895     11897     11895     11898     11899     11900
     11901     11905     11901     11902     11901     11903     11901     11904
     11905     11906     11907     11911     11907     11908     11907     11909
     11907     11910     11911     11912     11913     11917     11913     11914
     11913     11915     11913     11916     11917     11918     11919     11923
     11919     11920     11919     11921     11919     11922     11923     11924
     11925     11929     11925     11926     11925     11927     11925     11928
     11929     11930     11931     11935     11931     11932     11931     11933
     11931     11934     11935     11936     11937     11941     11937     11938
     11937     11939     11937     11940     11941     11942     11943     11947
     11943     11944     11943     11945     11943     11946     11947     11948
     11949     11953     11949     11950     11949     11951     11949     11952
     11953     11954     11955     11959     11955     11956     11955     11957
     11955     11958     11959     11960     11961     11965     11961     11962
     11961     11963     11961     11964     11965     11966     11967     11971
     11967     11968     11967     11969     11967     11970     11971     11972
     11973     11977     11973     11974     11973     11975     11973     11976
     11977     11978     11979     11983     11979     11980     11979     11981
     11979     11982     11983     11984     11985     11989     11985     11986
     11985     11987     11985     11988     11989     11990     11991     11995
     11991     11992     11991     11993     11991     11994     11995     11996
     11997     12001     11997     11998     11997     11999     11997     12000
     12001     12002     12003     12007     12003     12004     12003     12005
     12003     12006     12007     12008     12009     12013     12009     12010
     12009     12011     12009     12012     12013     12014     12015     12019
     12015     12016     12015     12017     12015     12018     12019     12020
     12021     12025     12021     12022     12021     12023     12021     12024
     12025     12026     12027     12031     12027     12028     12027     12029
     12027     12030     12031     12032     12033     12037     12033     12034
     12033     12035     12033     12036     12037     12038     12039     12043
     12039     12040     12039     12041     12039     12042     12043     12044
     12045     12049     12045     12046     12045     12047     12045     12048
     12049     12050     12051     12055     12051     12052     12051     12053
     12051     12054     12055     12056     12057     12061     12057     12058
     12057     12059     12057     12060     12061     12062     12063     12067
     12063     12064     12063     12065     12063     12066     12067     12068
     12069     12073     12069     12070     12069     12071     12069     12072
     12073     12074     12075     12079     12075     12076     12075     12077
     12075     12078     12079     12080     12081     12085     12081     12082
     12081     12083     12081     12084     12085     12086     12087     12091
     12087     12088     12087     12089     12087     12090     12091     12092
     12093     12097     12093     12094     12093     12095     12093     12096
     12097     12098     12099     12103     12099     12100     12099     12101
     12099     12102     12103     12104     12105     12109     12105     12106
     12105     12107     12105     12108     12109     12110     12111     12115
     12111     12112     12111     12113     12111     12114     12115     12116
     12117     12121     12117     12118     12117     12119     12117     12120
     12121     12122     12123     12127     12123     12124     12123     12125
     12123     12126     12127     12128     12129     12133     12129     12130
     12129     12131     12129     12132     12133     12134     12135     12139
     12135     12136     12135     12137     12135     12138     12139     12140
     12141     12145     12141     12142     12141     12143     12141     12144
     12145     12146     12147     12151     12147     12148     12147     12149
     12147     12150     12151     12152     12153     12157     12153     12154
     12153     12155     12153     12156     12157     12158     12159     12163
     12159     12160     12159     12161     12159     12162     12163     12164
     12165     12169     12165     12166     12165     12167     12165     12168
     12169     12170     12171     12175     12171     12172     12171     12173
     12171     12174     12175     12176     12177     12181     12177     12178
     12177     12179     12177     12180     12181     12182     12183     12187
     12183     12184     12183     12185     12183     12186     12187     12188
     12189     12193     12189     12190     12189     12191     12189     12192
     12193     12194     12195     12199     12195     12196     12195     12197
     12195     12198     12199     12200     12201     12205     12201     12202
     12201     12203     12201     12204     12205     12206     12207     12211
     12207     12208     12207     12209     12207     12210     12211     12212
     12213     12217     12213     12214     12213     12215     12213     12216
     12217     12218     12219     12223     12219     12220     12219     12221
     12219     12222     12223     12224     12225     12229     12225     12226
     12225     12227     12225     12228     12229     12230     12231     12235
     12231     12232     12231     12233     12231     12234     12235     12236
     12237     12241     12237     12238     12237     12239     12237     12240
     12241     12242     12243     12247     12243     12244     12243     12245
     12243     12246     12247     12248     12249     12253     12249     12250
     12249     12251     12249     12252     12253     12254     12255     12259
     12255     12256     12255     12257     12255     12258     12259     12260
     12261     12265     12261     12262     12261     12263     12261     12264
     12265     12266     12267     12271     12267     12268     12267     12269
     12267     12270     12271     12272     12273     12277     12273     12274
     12273     12275     12273     12276     12277     12278     12279     12283
     12279     12280     12279     12281     12279     12282     12283     12284
     12285     12289     12285     12286     12285     12287     12285     12288
     12289     12290     12291     12295     12291     12292     12291     12293
     12291     12294     12295     12296     12297     12301     12297     12298
     12297     12299     12297     12300     12301     12302     12303     12307
     12303     12304     12303     12305     12303     12306     12307     12308
     12309     12313     12309     12310     12309     12311     12309     12312
     12313     12314     12315     12319     12315     12316     12315     12317
     12315     12318     12319     12320     12321     12325     12321     12322
     12321     12323     12321     12324     12325     12326     12327     12331
     12327     12328     12327     12329     12327     12330     12331     12332
     12333     12337     12333     12334     12333     12335     12333     12336
     12337     12338     12339     12343     12339     12340     12339     12341
     12339     12342     12343     12344     12345     12349     12345     12346
     12345     12347     12345     12348     12349     12350     12351     12355
     12351     12352     12351     12353     12351     12354     12355     12356
     12357     12361     12357     12358     12357     12359     12357     12360
     12361     12362     12363     12367     12363     12364     12363     12365
     12363     12366     12367     12368     12369     12373     12369     12370
     12369     12371     12369     12372     12373     12374     12375     12379
     12375     12376     12375     12377     12375     12378     12379     12380
     12381     12385     12381     12382     12381     12383     12381     12384
     12385     12386     12387     12391     12387     12388     12387     12389
     12387     12390     12391     12392     12393     12397     12393     12394
     12393     12395     12393     12396     12397     12398     12399     12403
     12399     12400     12399     12401     12399     12402     12403     12404
     12405     12409     12405     12406     12405     12407     12405     12408
     12409     12410     12411     12415     12411     12412     12411     12413
     12411     12414     12415     12416     12417     12421     12417     12418
     12417     12419     12417     12420     12421     12422     12423     12427
     12423     12424     12423     12425     12423     12426     12427     12428
     12429     12433     12429     12430     12429     12431     12429     12432
     12433     12434     12435     12439     12435     12436     12435     12437
     12435     12438     12439     12440     12441     12445     12441     12442
     12441     12443     12441     12444     12445     12446     12447     12451
     12447     12448     12447     12449     12447     12450     12451     12452
     12453     12457     12453     12454     12453     12455     12453     12456
     12457     12458     12459     12463     12459     12460     12459     12461
     12459     12462     12463     12464     12465     12469     12465     12466
     12465     12467     12465     12468     12469     12470     12471     12475
     12471     12472     12471     12473     12471     12474     12475     12476
     12477     12481     12477     12478     12477     12479     12477     12480
     12481     12482     12483     12487     12483     12484     12483     12485
     12483     12486     12487     12488     12489     12493     12489     12490
     12489     12491     12489     12492     12493     12494     12495     12499
     12495     12496     12495     12497     12495     12498     12499     12500
     12501     12505     12501     12502     12501     12503     12501     12504
     12505     12506     12507     12511     12507     12508     12507     12509
     12507     12510     12511     12512     12513     12517     12513     12514
     12513     12515     12513     12516     12517     12518     12519     12523
     12519     12520     12519     12521     12519     12522     12523     12524
     12525     12529     12525     12526     12525     12527     12525     12528
     12529     12530     12531     12535     12531     12532     12531     12533
     12531     12534     12535     12536     12537     12541     12537     12538
     12537     12539     12537     12540     12541     12542     12543     12547
     12543     12544     12543     12545     12543     12546     12547     12548
     12549     12553     12549     12550     12549     12551     12549     12552
     12553     12554     12555     12559     12555     12556     12555     12557
     12555     12558     12559     12560     12561     12565     12561     12562
     12561     12563     12561     12564     12565     12566     12567     12571
     12567     12568     12567     12569     12567     12570     12571     12572
     12573     12577     12573     12574     12573     12575     12573     12576
     12577     12578     12579     12583     12579     12580     12579     12581
     12579     12582     12583     12584     12585     12589     12585     12586
     12585     12587     12585     12588     12589     12590     12591     12595
     12591     12592     12591     12593     12591     12594     12595     12596
     12597     12601     12597     12598     12597     12599     12597     12600
     12601     12602     12603     12607     12603     12604     12603     12605
     12603     12606     12607     12608     12609     12613     12609     12610
     12609     12611     12609     12612     12613     12614     12615     12619
     12615     12616     12615     12617     12615     12618     12619     12620
     12621     12625     12621     12622     12621     12623     12621     12624
     12625     12626     12627     12631     12627     12628     12627     12629
     12627     12630     12631     12632     12633     12637     12633     12634
     12633     12635     12633     12636     12637     12638     12639     12643
     12639     12640     12639     12641     12639     12642     12643     12644
     12645     12649     12645     12646     12645     12647     12645     12648
     12649     12650     12651     12655     12651     12652     12651     12653
     12651     12654     12655     12656     12657     12661     12657     12658
     12657     12659     12657     12660     12661     12662     12663     12667
     12663     12664     12663     12665     12663     12666     12667     12668
     12669     12673     12669     12670     12669     12671     12669     12672
     12673     12674     12675     12679     12675     12676     12675     12677
     12675     12678     12679     12680     12681     12685     12681     12682
     12681     12683     12681     12684     12685     12686     12687     12691
     12687     12688     12687     12689     12687     12690     12691     12692
     12693     12697     12693     12694     12693     12695     12693     12696
     12697     12698     12699     12703     12699     12700     12699     12701
     12699     12702     12703     12704     12705     12709     12705     12706
     12705     12707     12705     12708     12709     12710     12711     12715
     12711     12712     12711     12713     12711     12714     12715     12716
     12717     12721     12717     12718     12717     12719     12717     12720
     12721     12722     12723     12727     12723     12724     12723     12725
     12723     12726     12727     12728     12729     12733     12729     12730
     12729     12731     12729     12732     12733     12734     12735     12739
     12735     12736     12735     12737     12735     12738     12739     12740
     12741     12745     12741     12742     12741     12743     12741     12744
     12745     12746     12747     12751     12747     12748     12747     12749
     12747     12750     12751     12752     12753     12757     12753     12754
     12753     12755     12753     12756     12757     12758     12759     12763
     12759     12760     12759     12761     12759     12762     12763     12764
     12765     12769     12765     12766     12765     12767     12765     12768
     12769     12770     12771     12775     12771     12772     12771     12773
     12771     12774     12775     12776     12777     12781     12777     12778
     12777     12779     12777     12780     12781     12782     12783     12787
     12783     12784     12783     12785     12783     12786     12787     12788
     12789     12793     12789     12790     12789     12791     12789     12792
     12793     12794     12795     12799     12795     12796     12795     12797
     12795     12798     12799     12800     12801     12805     12801     12802
     12801     12803     12801     12804     12805     12806     12807     12811
     12807     12808     12807     12809     12807     12810     12811     12812
     12813     12817     12813     12814     12813     12815     12813     12816
     12817     12818     12819     12823     12819     12820     12819     12821
     12819     12822     12823     12824     12825     12829     12825     12826
     12825     12827     12825     12828     12829     12830     12831     12835
     12831     12832     12831     12833     12831     12834     12835     12836
     12837     12841     12837     12838     12837     12839     12837     12840
     12841     12842     12843     12847     12843     12844     12843     12845
     12843     12846     12847     12848     12849     12853     12849     12850
     12849     12851     12849     12852     12853     12854     12855     12859
     12855     12856     12855     12857     12855     12858     12859     12860
     12861     12865     12861     12862     12861     12863     12861     12864
     12865     12866     12867     12871     12867     12868     12867     12869
     12867     12870     12871     12872     12873     12877     12873     12874
     12873     12875     12873     12876     12877     12878     12879     12883
     12879     12880     12879     12881     12879     12882     12883     12884
     12885     12889     12885     12886     12885     12887     12885     12888
     12889     12890     12891     12895     12891     12892     12891     12893
     12891     12894     12895     12896     12897     12901     12897     12898
     12897     12899     12897     12900     12901     12902     12903     12907
     12903     12904     12903     12905     12903     12906     12907     12908
     12909     12913     12909     12910     12909     12911     12909     12912
     12913     12914     12915     12919     12915     12916     12915     12917
     12915     12918     12919     12920     12921     12925     12921     12922
     12921     12923     12921     12924     12925     12926     12927     12931
     12927     12928     12927     12929     12927     12930     12931     12932
     12933     12937     12933     12934     12933     12935     12933     12936
     12937     12938     12939     12943     12939     12940     12939     12941
     12939     12942     12943     12944     12945     12949     12945     12946
     12945     12947     12945     12948     12949     12950     12951     12955
     12951     12952     12951     12953     12951     12954     12955     12956
     12957     12961     12957     12958     12957     12959     12957     12960
     12961     12962     12963     12967     12963     12964     12963     12965
     12963     12966     12967     12968     12969     12973     12969     12970
     12969     12971     12969     12972     12973     12974     12975     12979
     12975     12976     12975     12977     12975     12978     12979     12980
     12981     12985     12981     12982     12981     12983     12981     12984
     12985     12986     12987     12991     12987     12988     12987     12989
     12987     12990     12991     12992     12993     12997     12993     12994
     12993     12995     12993     12996     12997     12998     12999     13003
     12999     13000     12999     13001     12999     13002     13003     13004
     13005     13009     13005     13006     13005     13007     13005     13008
     13009     13010     13011     13015     13011     13012     13011     13013
     13011     13014     13015     13016     13017     13021     13017     13018
     13017     13019     13017     13020     13021     13022     13023     13027
     13023     13024     13023     13025     13023     13026     13027     13028
     13029     13033     13029     13030     13029     13031     13029     13032
     13033     13034     13035     13039     13035     13036     13035     13037
     13035     13038     13039     13040     13041     13045     13041     13042
     13041     13043     13041     13044     13045     13046     13047     13051
     13047     13048     13047     13049     13047     13050     13051     13052
     13053     13057     13053     13054     13053     13055     13053     13056
     13057     13058     13059     13063     13059     13060     13059     13061
     13059     13062     13063     13064     13065     13069     13065     13066
     13065     13067     13065     13068     13069     13070     13071     13075
     13071     13072     13071     13073     13071     13074     13075     13076
     13077     13081     13077     13078     13077     13079     13077     13080
     13081     13082     13083     13087     13083     13084     13083     13085
     13083     13086     13087     13088     13089     13093     13089     13090
     13089     13091     13089     13092     13093     13094     13095     13099
     13095     13096     13095     13097     13095     13098     13099     13100
     13101     13105     13101     13102     13101     13103     13101     13104
     13105     13106     13107     13111     13107     13108     13107     13109
     13107     13110     13111     13112     13113     13117     13113     13114
     13113     13115     13113     13116     13117     13118     13119     13123
     13119     13120     13119     13121     13119     13122     13123     13124
     13125     13129     13125     13126     13125     13127     13125     13128
     13129     13130     13131     13135     13131     13132     13131     13133
     13131     13134     13135     13136     13137     13141     13137     13138
     13137     13139     13137     13140     13141     13142     13143     13147
     13143     13144     13143     13145     13143     13146     13147     13148
     13149     13153     13149     13150     13149     13151     13149     13152
     13153     13154     13155     13159     13155     13156     13155     13157
     13155     13158     13159     13160     13161     13165     13161     13162
     13161     13163     13161     13164     13165     13166     13167     13171
     13167     13168     13167     13169     13167     13170     13171     13172
     13173     13177     13173     13174     13173     13175     13173     13176
     13177     13178     13179     13183     13179     13180     13179     13181
     13179     13182     13183     13184     13185     13189     13185     13186
     13185     13187     13185     13188     13189     13190     13191     13195
     13191     13192     13191     13193     13191     13194     13195     13196
     13197     13201     13197     13198     13197     13199     13197     13200
     13201     13202     13203     13207     13203     13204     13203     13205
     13203     13206     13207     13208     13209     13213     13209     13210
     13209     13211     13209     13212     13213     13214     13215     13219
     13215     13216     13215     13217     13215     13218     13219     13220
     13221     13225     13221     13222     13221     13223     13221     13224
     13225     13226     13227     13231     13227     13228     13227     13229
     13227     13230     13231     13232     13233     13237     13233     13234
     13233     13235     13233     13236     13237     13238     13239     13243
     13239     13240     13239     13241     13239     13242     13243     13244
     13245     13249     13245     13246     13245     13247     13245     13248
     13249     13250     13251     13255     13251     13252     13251     13253
     13251     13254     13255     13256     13257     13261     13257     13258
     13257     13259     13257     13260     13261     13262     13263     13267
     13263     13264     13263     13265     13263     13266     13267     13268
     13269     13273     13269     13270     13269     13271     13269     13272
     13273     13274     13275     13279     13275     13276     13275     13277
     13275     13278     13279     13280     13281     13285     13281     13282
     13281     13283     13281     13284     13285     13286     13287     13291
     13287     13288     13287     13289     13287     13290     13291     13292
     13293     13297     13293     13294     13293     13295     13293     13296
     13297     13298     13299     13303     13299     13300     13299     13301
     13299     13302     13303     13304     13305     13309     13305     13306
     13305     13307     13305     13308     13309     13310     13311     13315
     13311     13312     13311     13313     13311     13314     13315     13316
     13317     13321     13317     13318     13317     13319     13317     13320
     13321     13322     13323     13327     13323     13324     13323     13325
     13323     13326     13327     13328     13329     13333     13329     13330
     13329     13331     13329     13332     13333     13334     13335     13339
     13335     13336     13335     13337     13335     13338     13339     13340
     13341     13345     13341     13342     13341     13343     13341     13344
     13345     13346     13347     13351     13347     13348     13347     13349
     13347     13350     13351     13352     13353     13357     13353     13354
     13353     13355     13353     13356     13357     13358     13359     13363
     13359     13360     13359     13361     13359     13362     13363     13364
     13365     13369     13365     13366     13365     13367     13365     13368
     13369     13370     13371     13375     13371     13372     13371     13373
     13371     13374     13375     13376     13377     13381     13377     13378
     13377     13379     13377     13380     13381     13382     13383     13387
     13383     13384     13383     13385     13383     13386     13387     13388
     13389     13393     13389     13390     13389     13391     13389     13392
     13393     13394     13395     13399     13395     13396     13395     13397
     13395     13398     13399     13400     13401     13405     13401     13402
     13401     13403     13401     13404     13405     13406     13407     13411
     13407     13408     13407     13409     13407     13410     13411     13412
     13413     13417     13413     13414     13413     13415     13413     13416
     13417     13418     13419     13423     13419     13420     13419     13421
     13419     13422     13423     13424     13425     13429     13425     13426
     13425     13427     13425     13428     13429     13430     13431     13435
     13431     13432     13431     13433     13431     13434     13435     13436
     13437     13441     13437     13438     13437     13439     13437     13440
     13441     13442     13443     13447     13443     13444     13443     13445
     13443     13446     13447     13448     13449     13453     13449     13450
     13449     13451     13449     13452     13453     13454     13455     13459
     13455     13456     13455     13457     13455     13458     13459     13460
     13461     13465     13461     13462     13461     13463     13461     13464
     13465     13466     13467     13471     13467     13468     13467     13469
     13467     13470     13471     13472     13473     13477     13473     13474
     13473     13475     13473     13476     13477     13478     13479     13483
     13479     13480     13479     13481     13479     13482     13483     13484
     13485     13489     13485     13486     13485     13487     13485     13488
     13489     13490     13491     13495     13491     13492     13491     13493
     13491     13494     13495     13496     13497     13501     13497     13498
     13497     13499     13497     13500     13501     13502     13503     13507
     13503     13504     13503     13505     13503     13506     13507     13508
     13509     13513     13509     13510     13509     13511     13509     13512
     13513     13514     13515     13519     13515     13516     13515     13517
     13515     13518     13519     13520     13521     13525     13521     13522
     13521     13523     13521     13524     13525     13526     13527     13531
     13527     13528     13527     13529     13527     13530     13531     13532
     13533     13537     13533     13534     13533     13535     13533     13536
     13537     13538     13539     13543     13539     13540     13539     13541
     13539     13542     13543     13544     13545     13549     13545     13546
     13545     13547     13545     13548     13549     13550     13551     13555
     13551     13552     13551     13553     13551     13554     13555     13556
     13557     13561     13557     13558     13557     13559     13557     13560
     13561     13562     13563     13567     13563     13564     13563     13565
     13563     13566     13567     13568     13569     13573     13569     13570
     13569     13571     13569     13572     13573     13574     13575     13579
     13575     13576     13575     13577     13575     13578     13579     13580
     13581     13585     13581     13582     13581     13583     13581     13584
     13585     13586     13587     13591     13587     13588     13587     13589
     13587     13590     13591     13592     13593     13597     13593     13594
     13593     13595     13593     13596     13597     13598     13599     13603
     13599     13600     13599     13601     13599     13602     13603     13604
     13605     13609     13605     13606     13605     13607     13605     13608
     13609     13610     13611     13615     13611     13612     13611     13613
     13611     13614     13615     13616     13617     13621     13617     13618
     13617     13619     13617     13620     13621     13622     13623     13627
     13623     13624     13623     13625     13623     13626     13627     13628
     13629     13633     13629     13630     13629     13631     13629     13632
     13633     13634     13635     13639     13635     13636     13635     13637
     13635     13638     13639     13640     13641     13645     13641     13642
     13641     13643     13641     13644     13645     13646     13647     13651
     13647     13648     13647     13649     13647     13650     13651     13652
     13653     13657     13653     13654     13653     13655     13653     13656
     13657     13658     13659     13663     13659     13660     13659     13661
     13659     13662     13663     13664     13665     13669     13665     13666
     13665     13667     13665     13668     13669     13670     13671     13675
     13671     13672     13671     13673     13671     13674     13675     13676
     13677     13681     13677     13678     13677     13679     13677     13680
     13681     13682     13683     13687     13683     13684     13683     13685
     13683     13686     13687     13688     13689     13693     13689     13690
     13689     13691     13689     13692     13693     13694     13695     13699
     13695     13696     13695     13697     13695     13698     13699     13700
     13701     13705     13701     13702     13701     13703     13701     13704
     13705     13706     13707     13711     13707     13708     13707     13709
     13707     13710     13711     13712     13713     13717     13713     13714
     13713     13715     13713     13716     13717     13718     13719     13723
     13719     13720     13719     13721     13719     13722     13723     13724
     13725     13729     13725     13726     13725     13727     13725     13728
     13729     13730     13731     13735     13731     13732     13731     13733
     13731     13734     13735     13736     13737     13741     13737     13738
     13737     13739     13737     13740     13741     13742     13743     13747
     13743     13744     13743     13745     13743     13746     13747     13748
     13749     13753     13749     13750     13749     13751     13749     13752
     13753     13754     13755     13759     13755     13756     13755     13757
     13755     13758     13759     13760     13761     13765     13761     13762
     13761     13763     13761     13764     13765     13766     13767     13771
     13767     13768     13767     13769     13767     13770     13771     13772
     13773     13777     13773     13774     13773     13775     13773     13776
     13777     13778     13779     13783     13779     13780     13779     13781
     13779     13782     13783     13784     13785     13789     13785     13786
     13785     13787     13785     13788     13789     13790     13791     13795
     13791     13792     13791     13793     13791     13794     13795     13796
     13797     13801     13797     13798     13797     13799     13797     13800
     13801     13802     13803     13807     13803     13804     13803     13805
     13803     13806     13807     13808     13809     13813     13809     13810
     13809     13811     13809     13812     13813     13814     13815     13819
     13815     13816     13815     13817     13815     13818     13819     13820
     13821     13825     13821     13822     13821     13823     13821     13824
     13825     13826     13827     13831     13827     13828     13827     13829
     13827     13830     13831     13832     13833     13837     13833     13834
     13833     13835     13833     13836     13837     13838     13839     13843
     13839     13840     13839     13841     13839     13842     13843     13844
     13845     13849     13845     13846     13845     13847     13845     13848
     13849     13850     13851     13855     13851     13852     13851     13853
     13851     13854     13855     13856     13857     13861     13857     13858
     13857     13859     13857     13860     13861     13862     13863     13867
     13863     13864     13863     13865     13863     13866     13867     13868
     13869     13873     13869     13870     13869     13871     13869     13872
     13873     13874     13875     13879     13875     13876     13875     13877
     13875     13878     13879     13880     13881     13885     13881     13882
     13881     13883     13881     13884     13885     13886     13887     13891
     13887     13888     13887     13889     13887     13890     13891     13892
     13893     13897     13893     13894     13893     13895     13893     13896
     13897     13898     13899     13903     13899     13900     13899     13901
     13899     13902     13903     13904     13905     13909     13905     13906
     13905     13907     13905     13908     13909     13910     13911     13915
     13911     13912     13911     13913     13911     13914     13915     13916
     13917     13921     13917     13918     13917     13919     13917     13920
     13921     13922     13923     13927     13923     13924     13923     13925
     13923     13926     13927     13928     13929     13933     13929     13930
     13929     13931     13929     13932     13933     13934     13935     13939
     13935     13936     13935     13937     13935     13938     13939     13940
     13941     13945     13941     13942     13941     13943     13941     13944
     13945     13946     13947     13951     13947     13948     13947     13949
     13947     13950     13951     13952     13953     13957     13953     13954
     13953     13955     13953     13956     13957     13958     13959     13963
     13959     13960     13959     13961     13959     13962     13963     13964
     13965     13969     13965     13966     13965     13967     13965     13968
     13969     13970     13971     13975     13971     13972     13971     13973
     13971     13974     13975     13976     13977     13981     13977     13978
     13977     13979     13977     13980     13981     13982     13983     13987
     13983     13984     13983     13985     13983     13986     13987     13988
     13989     13993     13989     13990     13989     13991     13989     13992
     13993     13994     13995     13999     13995     13996     13995     13997
     13995     13998     13999     14000     14001     14005     14001     14002
     14001     14003     14001     14004     14005     14006     14007     14011
     14007     14008     14007     14009     14007     14010     14011     14012
     14013     14017     14013     14014     14013     14015     14013     14016
     14017     14018     14019     14023     14019     14020     14019     14021
     14019     14022     14023     14024     14025     14029     14025     14026
     14025     14027     14025     14028     14029     14030     14031     14035
     14031     14032     14031     14033     14031     14034     14035     14036
     14037     14041     14037     14038     14037     14039     14037     14040
     14041     14042     14043     14047     14043     14044     14043     14045
     14043     14046     14047     14048     14049     14053     14049     14050
     14049     14051     14049     14052     14053     14054     14055     14059
     14055     14056     14055     14057     14055     14058     14059     14060
     14061     14065     14061     14062     14061     14063     14061     14064
     14065     14066     14067     14071     14067     14068     14067     14069
     14067     14070     14071     14072     14073     14077     14073     14074
     14073     14075     14073     14076     14077     14078     14079     14083
     14079     14080     14079     14081     14079     14082     14083     14084
     14085     14089     14085     14086     14085     14087     14085     14088
     14089     14090     14091     14095     14091     14092     14091     14093
     14091     14094     14095     14096     14097     14101     14097     14098
     14097     14099     14097     14100     14101     14102     14103     14107
     14103     14104     14103     14105     14103     14106     14107     14108
     14109     14113     14109     14110     14109     14111     14109     14112
     14113     14114     14115     14119     14115     14116     14115     14117
     14115     14118     14119     14120     14121     14125     14121     14122
     14121     14123     14121     14124     14125     14126     14127     14131
     14127     14128     14127     14129     14127     14130     14131     14132
     14133     14137     14133     14134     14133     14135     14133     14136
     14137     14138     14139     14143     14139     14140     14139     14141
     14139     14142     14143     14144     14145     14149     14145     14146
     14145     14147     14145     14148     14149     14150     14151     14155
     14151     14152     14151     14153     14151     14154     14155     14156
     14157     14161     14157     14158     14157     14159     14157     14160
     14161     14162     14163     14167     14163     14164     14163     14165
     14163     14166     14167     14168     14169     14173     14169     14170
     14169     14171     14169     14172     14173     14174     14175     14179
     14175     14176     14175     14177     14175     14178     14179     14180
     14181     14185     14181     14182     14181     14183     14181     14184
     14185     14186     14187     14191     14187     14188     14187     14189
     14187     14190     14191     14192     14193     14197     14193     14194
     14193     14195     14193     14196     14197     14198     14199     14203
     14199     14200     14199     14201     14199     14202     14203     14204
     14205     14209     14205     14206     14205     14207     14205     14208
     14209     14210     14211     14215     14211     14212     14211     14213
     14211     14214     14215     14216     14217     14221     14217     14218
     14217     14219     14217     14220     14221     14222     14223     14227
     14223     14224     14223     14225     14223     14226     14227     14228
     14229     14233     14229     14230     14229     14231     14229     14232
     14233     14234     14235     14239     14235     14236     14235     14237
     14235     14238     14239     14240     14241     14245     14241     14242
     14241     14243     14241     14244     14245     14246     14247     14251
     14247     14248     14247     14249     14247     14250     14251     14252
     14253     14257     14253     14254     14253     14255     14253     14256
     14257     14258     14259     14263     14259     14260     14259     14261
     14259     14262     14263     14264     14265     14269     14265     14266
     14265     14267     14265     14268     14269     14270     14271     14275
     14271     14272     14271     14273     14271     14274     14275     14276
     14277     14281     14277     14278     14277     14279     14277     14280
     14281     14282     14283     14287     14283     14284     14283     14285
     14283     14286     14287     14288     14289     14293     14289     14290
     14289     14291     14289     14292     14293     14294     14295     14299
     14295     14296     14295     14297     14295     14298     14299     14300
     14301     14305     14301     14302     14301     14303     14301     14304
     14305     14306     14307     14311     14307     14308     14307     14309
     14307     14310     14311     14312     14313     14317     14313     14314
     14313     14315     14313     14316     14317     14318     14319     14323
     14319     14320     14319     14321     14319     14322     14323     14324
     14325     14329     14325     14326     14325     14327     14325     14328
     14329     14330     14331     14335     14331     14332     14331     14333
     14331     14334     14335     14336     14337     14341     14337     14338
     14337     14339     14337     14340     14341     14342     14343     14347
     14343     14344     14343     14345     14343     14346     14347     14348
     14349     14353     14349     14350     14349     14351     14349     14352
     14353     14354     14355     14359     14355     14356     14355     14357
     14355     14358     14359     14360     14361     14365     14361     14362
     14361     14363     14361     14364     14365     14366     14367     14371
     14367     14368     14367     14369     14367     14370     14371     14372
     14373     14377     14373     14374     14373     14375     14373     14376
     14377     14378     14379     14383     14379     14380     14379     14381
     14379     14382     14383     14384     14385     14389     14385     14386
     14385     14387     14385     14388     14389     14390     14391     14395
     14391     14392     14391     14393     14391     14394     14395     14396
     14397     14401     14397     14398     14397     14399     14397     14400
     14401     14402     14403     14407     14403     14404     14403     14405
     14403     14406     14407     14408     14409     14413     14409     14410
     14409     14411     14409     14412     14413     14414     14415     14419
     14415     14416     14415     14417     14415     14418     14419     14420
     14421     14425     14421     14422     14421     14423     14421     14424
     14425     14426     14427     14431     14427     14428     14427     14429
     14427     14430     14431     14432     14433     14437     14433     14434
     14433     14435     14433     14436     14437     14438     14439     14443
     14439     14440     14439     14441     14439     14442     14443     14444
     14445     14449     14445     14446     14445     14447     14445     14448
     14449     14450     14451     14455     14451     14452     14451     14453
     14451     14454     14455     14456     14457     14461     14457     14458
     14457     14459     14457     14460     14461     14462     14463     14467
     14463     14464     14463     14465     14463     14466     14467     14468
     14469     14473     14469     14470     14469     14471     14469     14472
     14473     14474     14475     14479     14475     14476     14475     14477
     14475     14478     14479     14480     14481     14485     14481     14482
     14481     14483     14481     14484     14485     14486     14487     14491
     14487     14488     14487     14489     14487     14490     14491     14492
     14493     14497     14493     14494     14493     14495     14493     14496
     14497     14498     14499     14503     14499     14500     14499     14501
     14499     14502     14503     14504     14505     14509     14505     14506
     14505     14507     14505     14508     14509     14510     14511     14515
     14511     14512     14511     14513     14511     14514     14515     14516
     14517     14521     14517     14518     14517     14519     14517     14520
     14521     14522     14523     14527     14523     14524     14523     14525
     14523     14526     14527     14528     14529     14533     14529     14530
     14529     14531     14529     14532     14533     14534     14535     14539
     14535     14536     14535     14537     14535     14538     14539     14540
     14541     14545     14541     14542     14541     14543     14541     14544
     14545     14546     14547     14551     14547     14548     14547     14549
     14547     14550     14551     14552     14553     14557     14553     14554
     14553     14555     14553     14556     14557     14558     14559     14563
     14559     14560     14559     14561     14559     14562     14563     14564
     14565     14569     14565     14566     14565     14567     14565     14568
     14569     14570     14571     14575     14571     14572     14571     14573
     14571     14574     14575     14576     14577     14581     14577     14578
     14577     14579     14577     14580     14581     14582     14583     14587
     14583     14584     14583     14585     14583     14586     14587     14588
     14589     14593     14589     14590     14589     14591     14589     14592
     14593     14594     14595     14599     14595     14596     14595     14597
     14595     14598     14599     14600     14601     14605     14601     14602
     14601     14603     14601     14604     14605     14606     14607     14611
     14607     14608     14607     14609     14607     14610     14611     14612
     14613     14617     14613     14614     14613     14615     14613     14616
     14617     14618     14619     14623     14619     14620     14619     14621
     14619     14622     14623     14624     14625     14629     14625     14626
     14625     14627     14625     14628     14629     14630     14631     14635
     14631     14632     14631     14633     14631     14634     14635     14636
     14637     14641     14637     14638     14637     14639     14637     14640
     14641     14642     14643     14647     14643     14644     14643     14645
     14643     14646     14647     14648     14649     14653     14649     14650
     14649     14651     14649     14652     14653     14654     14655     14659
     14655     14656     14655     14657     14655     14658     14659     14660
     14661     14665     14661     14662     14661     14663     14661     14664
     14665     14666     14667     14671     14667     14668     14667     14669
     14667     14670     14671     14672     14673     14677     14673     14674
     14673     14675     14673     14676     14677     14678     14679     14683
     14679     14680     14679     14681     14679     14682     14683     14684
     14685     14689     14685     14686     14685     14687     14685     14688
     14689     14690     14691     14695     14691     14692     14691     14693
     14691     14694     14695     14696     14697     14701     14697     14698
     14697     14699     14697     14700     14701     14702     14703     14707
     14703     14704     14703     14705     14703     14706     14707     14708
     14709     14713     14709     14710     14709     14711     14709     14712
     14713     14714     14715     14719     14715     14716     14715     14717
     14715     14718     14719     14720     14721     14725     14721     14722
     14721     14723     14721     14724     14725     14726     14727     14731
     14727     14728     14727     14729     14727     14730     14731     14732
     14733     14737     14733     14734     14733     14735     14733     14736
     14737     14738     14739     14743     14739     14740     14739     14741
     14739     14742     14743     14744     14745     14749     14745     14746
     14745     14747     14745     14748     14749     14750     14751     14755
     14751     14752     14751     14753     14751     14754     14755     14756
     14757     14761     14757     14758     14757     14759     14757     14760
     14761     14762     14763     14767     14763     14764     14763     14765
     14763     14766     14767     14768     14769     14773     14769     14770
     14769     14771     14769     14772     14773     14774     14775     14779
     14775     14776     14775     14777     14775     14778     14779     14780
     14781     14785     14781     14782     14781     14783     14781     14784
     14785     14786     14787     14791     14787     14788     14787     14789
     14787     14790     14791     14792     14793     14797     14793     14794
     14793     14795     14793     14796     14797     14798     14799     14803
     14799     14800     14799     14801     14799     14802     14803     14804
     14805     14809     14805     14806     14805     14807     14805     14808
     14809     14810     14811     14815     14811     14812     14811     14813
     14811     14814     14815     14816     14817     14821     14817     14818
     14817     14819     14817     14820     14821     14822     14823     14827
     14823     14824     14823     14825     14823     14826     14827     14828
     14829     14833     14829     14830     14829     14831     14829     14832
     14833     14834     14835     14839     14835     14836     14835     14837
     14835     14838     14839     14840     14841     14845     14841     14842
     14841     14843     14841     14844     14845     14846     14847     14851
     14847     14848     14847     14849     14847     14850     14851     14852
     14853     14857     14853     14854     14853     14855     14853     14856
     14857     14858     14859     14863     14859     14860     14859     14861
     14859     14862     14863     14864     14865     14869     14865     14866
     14865     14867     14865     14868     14869     14870     14871     14875
     14871     14872     14871     14873     14871     14874     14875     14876
     14877     14881     14877     14878     14877     14879     14877     14880
     14881     14882     14883     14887     14883     14884     14883     14885
     14883     14886     14887     14888     14889     14893     14889     14890
     14889     14891     14889     14892     14893     14894     14895     14899
     14895     14896     14895     14897     14895     14898     14899     14900
     14901     14905     14901     14902     14901     14903     14901     14904
     14905     14906     14907     14911     14907     14908     14907     14909
     14907     14910     14911     14912     14913     14917     14913     14914
     14913     14915     14913     14916     14917     14918     14919     14923
     14919     14920     14919     14921     14919     14922     14923     14924
     14925     14929     14925     14926     14925     14927     14925     14928
     14929     14930     14931     14935     14931     14932     14931     14933
     14931     14934     14935     14936     14937     14941     14937     14938
     14937     14939     14937     14940     14941     14942     14943     14947
     14943     14944     14943     14945     14943     14946     14947     14948
     14949     14953     14949     14950     14949     14951     14949     14952
     14953     14954     14955     14959     14955     14956     14955     14957
     14955     14958     14959     14960     14961     14965     14961     14962
     14961     14963     14961     14964     14965     14966     14967     14971
     14967     14968     14967     14969     14967     14970     14971     14972
     14973     14977     14973     14974     14973     14975     14973     14976
     14977     14978     14979     14983     14979     14980     14979     14981
     14979     14982     14983     14984     14985     14989     14985     14986
     14985     14987     14985     14988     14989     14990     14991     14995
     14991     14992     14991     14993     14991     14994     14995     14996
     14997     15001     14997     14998     14997     14999     14997     15000
     15001     15002     15003     15007     15003     15004     15003     15005
     15003     15006     15007     15008     15009     15013     15009     15010
     15009     15011     15009     15012     15013     15014     15015     15019
     15015     15016     15015     15017     15015     15018     15019     15020
     15021     15025     15021     15022     15021     15023     15021     15024
     15025     15026     15027     15031     15027     15028     15027     15029
     15027     15030     15031     15032     15033     15037     15033     15034
     15033     15035     15033     15036     15037     15038     15039     15043
     15039     15040     15039     15041     15039     15042     15043     15044
     15045     15049     15045     15046     15045     15047     15045     15048
     15049     15050     15051     15055     15051     15052     15051     15053
     15051     15054     15055     15056     15057     15061     15057     15058
     15057     15059     15057     15060     15061     15062     15063     15067
     15063     15064     15063     15065     15063     15066     15067     15068
     15069     15073     15069     15070     15069     15071     15069     15072
     15073     15074     15075     15079     15075     15076     15075     15077
     15075     15078     15079     15080     15081     15085     15081     15082
     15081     15083     15081     15084     15085     15086     15087     15091
     15087     15088     15087     15089     15087     15090     15091     15092
     15093     15097     15093     15094     15093     15095     15093     15096
     15097     15098     15099     15103     15099     15100     15099     15101
     15099     15102     15103     15104     15105     15109     15105     15106
     15105     15107     15105     15108     15109     15110     15111     15115
     15111     15112     15111     15113     15111     15114     15115     15116
     15117     15121     15117     15118     15117     15119     15117     15120
     15121     15122     15123     15127     15123     15124     15123     15125
     15123     15126     15127     15128     15129     15133     15129     15130
     15129     15131     15129     15132     15133     15134     15135     15139
     15135     15136     15135     15137     15135     15138     15139     15140
     15141     15145     15141     15142     15141     15143     15141     15144
     15145     15146     15147     15151     15147     15148     15147     15149
     15147     15150     15151     15152     15153     15157     15153     15154
     15153     15155     15153     15156     15157     15158     15159     15163
     15159     15160     15159     15161     15159     15162     15163     15164
     15165     15169     15165     15166     15165     15167     15165     15168
     15169     15170     15171     15175     15171     15172     15171     15173
     15171     15174     15175     15176     15177     15181     15177     15178
     15177     15179     15177     15180     15181     15182     15183     15187
     15183     15184     15183     15185     15183     15186     15187     15188
     15189     15193     15189     15190     15189     15191     15189     15192
     15193     15194     15195     15199     15195     15196     15195     15197
     15195     15198     15199     15200     15201     15205     15201     15202
     15201     15203     15201     15204     15205     15206     15207     15211
     15207     15208     15207     15209     15207     15210     15211     15212
     15213     15217     15213     15214     15213     15215     15213     15216
     15217     15218     15219     15223     15219     15220     15219     15221
     15219     15222     15223     15224     15225     15229     15225     15226
     15225     15227     15225     15228     15229     15230     15231     15235
     15231     15232     15231     15233     15231     15234     15235     15236
     15237     15241     15237     15238     15237     15239     15237     15240
     15241     15242     15243     15247     15243     15244     15243     15245
     15243     15246     15247     15248     15249     15253     15249     15250
     15249     15251     15249     15252     15253     15254     15255     15259
     15255     15256     15255     15257     15255     15258     15259     15260
     15261     15265     15261     15262     15261     15263     15261     15264
     15265     15266     15267     15271     15267     15268     15267     15269
     15267     15270     15271     15272     15273     15277     15273     15274
     15273     15275     15273     15276     15277     15278     15279     15283
     15279     15280     15279     15281     15279     15282     15283     15284
     15285     15289     15285     15286     15285     15287     15285     15288
     15289     15290     15291     15295     15291     15292     15291     15293
     15291     15294     15295     15296     15297     15301     15297     15298
     15297     15299     15297     15300     15301     15302     15303     15307
     15303     15304     15303     15305     15303     15306     15307     15308
     15309     15313     15309     15310     15309     15311     15309     15312
     15313     15314     15315     15319     15315     15316     15315     15317
     15315     15318     15319     15320     15321     15325     15321     15322
     15321     15323     15321     15324     15325     15326     15327     15331
     15327     15328     15327     15329     15327     15330     15331     15332
     15333     15337     15333     15334     15333     15335     15333     15336
     15337     15338     15339     15343     15339     15340     15339     15341
     15339     15342     15343     15344     15345     15349     15345     15346
     15345     15347     15345     15348     15349     15350     15351     15355
     15351     15352     15351     15353     15351     15354     15355     15356
     15357     15361     15357     15358     15357     15359     15357     15360
     15361     15362     15363     15367     15363     15364     15363     15365
     15363     15366     15367     15368     15369     15373     15369     15370
     15369     15371     15369     15372     15373     15374     15375     15379
     15375     15376     15375     15377     15375     15378     15379     15380
     15381     15385     15381     15382     15381     15383     15381     15384
     15385     15386     15387     15391     15387     15388     15387     15389
     15387     15390     15391     15392     15393     15397     15393     15394
     15393     15395     15393     15396     15397     15398     15399     15403
     15399     15400     15399     15401     15399     15402     15403     15404
     15405     15409     15405     15406     15405     15407     15405     15408
     15409     15410     15411     15415     15411     15412     15411     15413
     15411     15414     15415     15416     15417     15421     15417     15418
     15417     15419     15417     15420     15421     15422     15423     15427
     15423     15424     15423     15425     15423     15426     15427     15428
     15429     15433     15429     15430     15429     15431     15429     15432
     15433     15434     15435     15439     15435     15436     15435     15437
     15435     15438     15439     15440     15441     15445     15441     15442
     15441     15443     15441     15444     15445     15446     15447     15451
     15447     15448     15447     15449     15447     15450     15451     15452
     15453     15457     15453     15454     15453     15455     15453     15456
     15457     15458     15459     15463     15459     15460     15459     15461
     15459     15462     15463     15464     15465     15469     15465     15466
     15465     15467     15465     15468     15469     15470     15471     15475
     15471     15472     15471     15473     15471     15474     15475     15476
     15477     15481     15477     15478     15477     15479     15477     15480
     15481     15482     15483     15487     15483     15484     15483     15485
     15483     15486     15487     15488     15489     15493     15489     15490
     15489     15491     15489     15492     15493     15494     15495     15499
     15495     15496     15495     15497     15495     15498     15499     15500
     15501     15505     15501     15502     15501     15503     15501     15504
     15505     15506     15507     15511     15507     15508     15507     15509
     15507     15510     15511     15512     15513     15517     15513     15514
     15513     15515     15513     15516     15517     15518     15519     15523
     15519     15520     15519     15521     15519     15522     15523     15524
     15525     15529     15525     15526     15525     15527     15525     15528
     15529     15530     15531     15535     15531     15532     15531     15533
     15531     15534     15535     15536     15537     15541     15537     15538
     15537     15539     15537     15540     15541     15542     15543     15547
     15543     15544     15543     15545     15543     15546     15547     15548
     15549     15553     15549     15550     15549     15551     15549     15552
     15553     15554     15555     15559     15555     15556     15555     15557
     15555     15558     15559     15560     15561     15565     15561     15562
     15561     15563     15561     15564     15565     15566     15567     15571
     15567     15568     15567     15569     15567     15570     15571     15572
     15573     15577     15573     15574     15573     15575     15573     15576
     15577     15578     15579     15583     15579     15580     15579     15581
     15579     15582     15583     15584     15585     15589     15585     15586
     15585     15587     15585     15588     15589     15590     15591     15595
     15591     15592     15591     15593     15591     15594     15595     15596
     15597     15601     15597     15598     15597     15599     15597     15600
     15601     15602     15603     15607     15603     15604     15603     15605
     15603     15606     15607     15608     15609     15613     15609     15610
     15609     15611     15609     15612     15613     15614     15615     15619
     15615     15616     15615     15617     15615     15618     15619     15620
     15621     15625     15621     15622     15621     15623     15621     15624
     15625     15626     15627     15631     15627     15628     15627     15629
     15627     15630     15631     15632     15633     15637     15633     15634
     15633     15635     15633     15636     15637     15638     15639     15643
     15639     15640     15639     15641     15639     15642     15643     15644
     15645     15649     15645     15646     15645     15647     15645     15648
     15649     15650     15651     15655     15651     15652     15651     15653
     15651     15654     15655     15656     15657     15661     15657     15658
     15657     15659     15657     15660     15661     15662     15663     15667
     15663     15664     15663     15665     15663     15666     15667     15668
     15669     15673     15669     15670     15669     15671     15669     15672
     15673     15674     15675     15679     15675     15676     15675     15677
     15675     15678     15679     15680     15681     15685     15681     15682
     15681     15683     15681     15684     15685     15686     15687     15691
     15687     15688     15687     15689     15687     15690     15691     15692
     15693     15697     15693     15694     15693     15695     15693     15696
     15697     15698     15699     15703     15699     15700     15699     15701
     15699     15702     15703     15704     15705     15709     15705     15706
     15705     15707     15705     15708     15709     15710     15711     15715
     15711     15712     15711     15713     15711     15714     15715     15716
     15717     15721     15717     15718     15717     15719     15717     15720
     15721     15722     15723     15727     15723     15724     15723     15725
     15723     15726     15727     15728     15729     15733     15729     15730
     15729     15731     15729     15732     15733     15734     15735     15739
     15735     15736     15735     15737     15735     15738     15739     15740
     15741     15745     15741     15742     15741     15743     15741     15744
     15745     15746     15747     15751     15747     15748     15747     15749
     15747     15750     15751     15752     15753     15757     15753     15754
     15753     15755     15753     15756     15757     15758     15759     15763
     15759     15760     15759     15761     15759     15762     15763     15764
     15765     15769     15765     15766     15765     15767     15765     15768
     15769     15770     15771     15775     15771     15772     15771     15773
     15771     15774     15775     15776     15777     15781     15777     15778
     15777     15779     15777     15780     15781     15782     15783     15787
     15783     15784     15783     15785     15783     15786     15787     15788
     15789     15793     15789     15790     15789     15791     15789     15792
     15793     15794     15795     15799     15795     15796     15795     15797
     15795     15798     15799     15800     15801     15805     15801     15802
     15801     15803     15801     15804     15805     15806     15807     15811
     15807     15808     15807     15809     15807     15810     15811     15812
     15813     15817     15813     15814     15813     15815     15813     15816
     15817     15818     15819     15823     15819     15820     15819     15821
     15819     15822     15823     15824     15825     15829     15825     15826
     15825     15827     15825     15828     15829     15830     15831     15835
     15831     15832     15831     15833     15831     15834     15835     15836
     15837     15841     15837     15838     15837     15839     15837     15840
     15841     15842     15843     15847     15843     15844     15843     15845
     15843     15846     15847     15848     15849     15853     15849     15850
     15849     15851     15849     15852     15853     15854     15855     15859
     15855     15856     15855     15857     15855     15858     15859     15860
     15861     15865     15861     15862     15861     15863     15861     15864
     15865     15866     15867     15871     15867     15868     15867     15869
     15867     15870     15871     15872     15873     15877     15873     15874
     15873     15875     15873     15876     15877     15878     15879     15883
     15879     15880     15879     15881     15879     15882     15883     15884
     15885     15889     15885     15886     15885     15887     15885     15888
     15889     15890     15891     15895     15891     15892     15891     15893
     15891     15894     15895     15896     15897     15901     15897     15898
     15897     15899     15897     15900     15901     15902     15903     15907
     15903     15904     15903     15905     15903     15906     15907     15908
     15909     15913     15909     15910     15909     15911     15909     15912
     15913     15914     15915     15919     15915     15916     15915     15917
     15915     15918     15919     15920     15921     15925     15921     15922
     15921     15923     15921     15924     15925     15926     15927     15931
     15927     15928     15927     15929     15927     15930     15931     15932
     15933     15937     15933     15934     15933     15935     15933     15936
     15937     15938     15939     15943     15939     15940     15939     15941
     15939     15942     15943     15944     15945     15949     15945     15946
     15945     15947     15945     15948     15949     15950     15951     15955
     15951     15952     15951     15953     15951     15954     15955     15956
     15957     15961     15957     15958     15957     15959     15957     15960
     15961     15962     15963     15967     15963     15964     15963     15965
     15963     15966     15967     15968     15969     15973     15969     15970
     15969     15971     15969     15972     15973     15974     15975     15979
     15975     15976     15975     15977     15975     15978     15979     15980
     15981     15985     15981     15982     15981     15983     15981     15984
     15985     15986     15987     15991     15987     15988     15987     15989
     15987     15990     15991     15992     15993     15997     15993     15994
     15993     15995     15993     15996     15997     15998     15999     16003
     15999     16000     15999     16001     15999     16002     16003     16004
     16005     16009     16005     16006     16005     16007     16005     16008
     16009     16010     16011     16015     16011     16012     16011     16013
     16011     16014     16015     16016     16017     16021     16017     16018
     16017     16019     16017     16020     16021     16022     16023     16027
     16023     16024     16023     16025     16023     16026     16027     16028
     16029     16033     16029     16030     16029     16031     16029     16032
     16033     16034     16035     16039     16035     16036     16035     16037
     16035     16038     16039     16040     16041     16045     16041     16042
     16041     16043     16041     16044     16045     16046     16047     16051
     16047     16048     16047     16049     16047     16050     16051     16052
     16053     16057     16053     16054     16053     16055     16053     16056
     16057     16058     16059     16063     16059     16060     16059     16061
     16059     16062     16063     16064     16065     16069     16065     16066
     16065     16067     16065     16068     16069     16070     16071     16075
     16071     16072     16071     16073     16071     16074     16075     16076
     16077     16081     16077     16078     16077     16079     16077     16080
     16081     16082     16083     16087     16083     16084     16083     16085
     16083     16086     16087     16088     16089     16093     16089     16090
     16089     16091     16089     16092     16093     16094     16095     16099
     16095     16096     16095     16097     16095     16098     16099     16100
     16101     16105     16101     16102     16101     16103     16101     16104
     16105     16106     16107     16111     16107     16108     16107     16109
     16107     16110     16111     16112     16113     16117     16113     16114
     16113     16115     16113     16116     16117     16118     16119     16123
     16119     16120     16119     16121     16119     16122     16123     16124
     16125     16129     16125     16126     16125     16127     16125     16128
     16129     16130     16131     16135     16131     16132     16131     16133
     16131     16134     16135     16136     16137     16141     16137     16138
     16137     16139     16137     16140     16141     16142     16143     16147
     16143     16144     16143     16145     16143     16146     16147     16148
     16149     16153     16149     16150     16149     16151     16149     16152
     16153     16154     16155     16159     16155     16156     16155     16157
     16155     16158     16159     16160     16161     16165     16161     16162
     16161     16163     16161     16164     16165     16166     16167     16171
     16167     16168     16167     16169     16167     16170     16171     16172
     16173     16177     16173     16174     16173     16175     16173     16176
     16177     16178     16179     16183     16179     16180     16179     16181
     16179     16182     16183     16184     16185     16189     16185     16186
     16185     16187     16185     16188     16189     16190     16191     16195
     16191     16192     16191     16193     16191     16194     16195     16196
     16197     16201     16197     16198     16197     16199     16197     16200
     16201     16202     16203     16207     16203     16204     16203     16205
     16203     16206     16207     16208     16209     16213     16209     16210
     16209     16211     16209     16212     16213     16214     16215     16219
     16215     16216     16215     16217     16215     16218     16219     16220
     16221     16225     16221     16222     16221     16223     16221     16224
     16225     16226     16227     16231     16227     16228     16227     16229
     16227     16230     16231     16232     16233     16237     16233     16234
     16233     16235     16233     16236     16237     16238     16239     16243
     16239     16240     16239     16241     16239     16242     16243     16244
     16245     16249     16245     16246     16245     16247     16245     16248
     16249     16250     16251     16255     16251     16252     16251     16253
     16251     16254     16255     16256     16257     16261     16257     16258
     16257     16259     16257     16260     16261     16262     16263     16267
     16263     16264     16263     16265     16263     16266     16267     16268
     16269     16273     16269     16270     16269     16271     16269     16272
     16273     16274     16275     16279     16275     16276     16275     16277
     16275     16278     16279     16280     16281     16285     16281     16282
     16281     16283     16281     16284     16285     16286     16287     16291
     16287     16288     16287     16289     16287     16290     16291     16292
     16293     16297     16293     16294     16293     16295     16293     16296
     16297     16298     16299     16303     16299     16300     16299     16301
     16299     16302     16303     16304     16305     16309     16305     16306
     16305     16307     16305     16308     16309     16310     16311     16315
     16311     16312     16311     16313     16311     16314     16315     16316
     16317     16321     16317     16318     16317     16319     16317     16320
     16321     16322     16323     16327     16323     16324     16323     16325
     16323     16326     16327     16328     16329     16333     16329     16330
     16329     16331     16329     16332     16333     16334     16335     16339
     16335     16336     16335     16337     16335     16338     16339     16340
     16341     16345     16341     16342     16341     16343     16341     16344
     16345     16346     16347     16351     16347     16348     16347     16349
     16347     16350     16351     16352     16353     16357     16353     16354
     16353     16355     16353     16356     16357     16358     16359     16363
     16359     16360     16359     16361     16359     16362     16363     16364
     16365     16369     16365     16366     16365     16367     16365     16368
     16369     16370     16371     16375     16371     16372     16371     16373
     16371     16374     16375     16376     16377     16381     16377     16378
     16377     16379     16377     16380     16381     16382     16383     16387
     16383     16384     16383     16385     16383     16386     16387     16388
     16389     16393     16389     16390     16389     16391     16389     16392
     16393     16394     16395     16399     16395     16396     16395     16397
     16395     16398     16399     16400     16401     16405     16401     16402
     16401     16403     16401     16404     16405     16406     16407     16411
     16407     16408     16407     16409     16407     16410     16411     16412
     16413     16417     16413     16414     16413     16415     16413     16416
     16417     16418     16419     16423     16419     16420     16419     16421
     16419     16422     16423     16424     16425     16429     16425     16426
     16425     16427     16425     16428     16429     16430     16431     16435
     16431     16432     16431     16433     16431     16434     16435     16436
     16437     16441     16437     16438     16437     16439     16437     16440
     16441     16442     16443     16447     16443     16444     16443     16445
     16443     16446     16447     16448     16449     16453     16449     16450
     16449     16451     16449     16452     16453     16454     16455     16459
     16455     16456     16455     16457     16455     16458     16459     16460
     16461     16465     16461     16462     16461     16463     16461     16464
     16465     16466     16467     16471     16467     16468     16467     16469
     16467     16470     16471     16472     16473     16477     16473     16474
     16473     16475     16473     16476     16477     16478     16479     16483
     16479     16480     16479     16481     16479     16482     16483     16484
     16485     16489     16485     16486     16485     16487     16485     16488
     16489     16490     16491     16495     16491     16492     16491     16493
     16491     16494     16495     16496     16497     16501     16497     16498
     16497     16499     16497     16500     16501     16502     16503     16507
     16503     16504     16503     16505     16503     16506     16507     16508
     16509     16513     16509     16510     16509     16511     16509     16512
     16513     16514     16515     16519     16515     16516     16515     16517
     16515     16518     16519     16520     16521     16525     16521     16522
     16521     16523     16521     16524     16525     16526     16527     16531
     16527     16528     16527     16529     16527     16530     16531     16532
     16533     16537     16533     16534     16533     16535     16533     16536
     16537     16538     16539     16543     16539     16540     16539     16541
     16539     16542     16543     16544     16545     16549     16545     16546
     16545     16547     16545     16548     16549     16550     16551     16555
     16551     16552     16551     16553     16551     16554     16555     16556
     16557     16561     16557     16558     16557     16559     16557     16560
     16561     16562     16563     16567     16563     16564     16563     16565
     16563     16566     16567     16568     16569     16573     16569     16570
     16569     16571     16569     16572     16573     16574     16575     16579
     16575     16576     16575     16577     16575     16578     16579     16580
     16581     16585     16581     16582     16581     16583     16581     16584
     16585     16586     16587     16591     16587     16588     16587     16589
     16587     16590     16591     16592     16593     16597     16593     16594
     16593     16595     16593     16596     16597     16598     16599     16603
     16599     16600     16599     16601     16599     16602     16603     16604
     16605     16609     16605     16606     16605     16607     16605     16608
     16609     16610     16611     16615     16611     16612     16611     16613
     16611     16614     16615     16616     16617     16621     16617     16618
     16617     16619     16617     16620     16621     16622     16623     16627
     16623     16624     16623     16625     16623     16626     16627     16628
     16629     16633     16629     16630     16629     16631     16629     16632
     16633     16634     16635     16639     16635     16636     16635     16637
     16635     16638     16639     16640     16641     16645     16641     16642
     16641     16643     16641     16644     16645     16646     16647     16651
     16647     16648     16647     16649     16647     16650     16651     16652
     16653     16657     16653     16654     16653     16655     16653     16656
     16657     16658     16659     16663     16659     16660     16659     16661
     16659     16662     16663     16664     16665     16669     16665     16666
     16665     16667     16665     16668     16669     16670     16671     16675
     16671     16672     16671     16673     16671     16674     16675     16676
     16677     16681     16677     16678     16677     16679     16677     16680
     16681     16682     16683     16687     16683     16684     16683     16685
     16683     16686     16687     16688     16689     16693     16689     16690
     16689     16691     16689     16692     16693     16694     16695     16699
     16695     16696     16695     16697     16695     16698     16699     16700
     16701     16705     16701     16702     16701     16703     16701     16704
     16705     16706     16707     16711     16707     16708     16707     16709
     16707     16710     16711     16712     16713     16717     16713     16714
     16713     16715     16713     16716     16717     16718     16719     16723
     16719     16720     16719     16721     16719     16722     16723     16724
     16725     16729     16725     16726     16725     16727     16725     16728
     16729     16730     16731     16735     16731     16732     16731     16733
     16731     16734     16735     16736     16737     16741     16737     16738
     16737     16739     16737     16740     16741     16742     16743     16747
     16743     16744     16743     16745     16743     16746     16747     16748
     16749     16753     16749     16750     16749     16751     16749     16752
     16753     16754     16755     16759     16755     16756     16755     16757
     16755     16758     16759     16760     16761     16765     16761     16762
     16761     16763     16761     16764     16765     16766     16767     16771
     16767     16768     16767     16769     16767     16770     16771     16772
     16773     16777     16773     16774     16773     16775     16773     16776
     16777     16778     16779     16783     16779     16780     16779     16781
     16779     16782     16783     16784     16785     16789     16785     16786
     16785     16787     16785     16788     16789     16790     16791     16795
     16791     16792     16791     16793     16791     16794     16795     16796
     16797     16801     16797     16798     16797     16799     16797     16800
     16801     16802     16803     16807     16803     16804     16803     16805
     16803     16806     16807     16808     16809     16813     16809     16810
     16809     16811     16809     16812     16813     16814     16815     16819
     16815     16816     16815     16817     16815     16818     16819     16820
     16821     16825     16821     16822     16821     16823     16821     16824
     16825     16826     16827     16831     16827     16828     16827     16829
     16827     16830     16831     16832     16833     16837     16833     16834
     16833     16835     16833     16836     16837     16838     16839     16843
     16839     16840     16839     16841     16839     16842     16843     16844
     16845     16849     16845     16846     16845     16847     16845     16848
     16849     16850     16851     16855     16851     16852     16851     16853
     16851     16854     16855     16856     16857     16861     16857     16858
     16857     16859     16857     16860     16861     16862     16863     16867
     16863     16864     16863     16865     16863     16866     16867     16868
     16869     16873     16869     16870     16869     16871     16869     16872
     16873     16874     16875     16879     16875     16876     16875     16877
     16875     16878     16879     16880     16881     16885     16881     16882
     16881     16883     16881     16884     16885     16886     16887     16891
     16887     16888     16887     16889     16887     16890     16891     16892
     16893     16897     16893     16894     16893     16895     16893     16896
     16897     16898     16899     16903     16899     16900     16899     16901
     16899     16902     16903     16904     16905     16909     16905     16906
     16905     16907     16905     16908     16909     16910     16911     16915
     16911     16912     16911     16913     16911     16914     16915     16916
     16917     16921     16917     16918     16917     16919     16917     16920
     16921     16922     16923     16927     16923     16924     16923     16925
     16923     16926     16927     16928     16929     16933     16929     16930
     16929     16931     16929     16932     16933     16934     16935     16939
     16935     16936     16935     16937     16935     16938     16939     16940
     16941     16945     16941     16942     16941     16943     16941     16944
     16945     16946     16947     16951     16947     16948     16947     16949
     16947     16950     16951     16952     16953     16957     16953     16954
     16953     16955     16953     16956     16957     16958     16959     16963
     16959     16960     16959     16961     16959     16962     16963     16964
     16965     16969     16965     16966     16965     16967     16965     16968
     16969     16970     16971     16975     16971     16972     16971     16973
     16971     16974     16975     16976     16977     16981     16977     16978
     16977     16979     16977     16980     16981     16982     16983     16987
     16983     16984     16983     16985     16983     16986     16987     16988
     16989     16993     16989     16990     16989     16991     16989     16992
     16993     16994     16995     16999     16995     16996     16995     16997
     16995     16998     16999     17000     17001     17005     17001     17002
     17001     17003     17001     17004     17005     17006     17007     17011
     17007     17008     17007     17009     17007     17010     17011     17012
     17013     17017     17013     17014     17013     17015     17013     17016
     17017     17018     17019     17023     17019     17020     17019     17021
     17019     17022     17023     17024     17025     17029     17025     17026
     17025     17027     17025     17028     17029     17030     17031     17035
     17031     17032     17031     17033     17031     17034     17035     17036
     17037     17041     17037     17038     17037     17039     17037     17040
     17041     17042     17043     17047     17043     17044     17043     17045
     17043     17046     17047     17048     17049     17053     17049     17050
     17049     17051     17049     17052     17053     17054     17055     17059
     17055     17056     17055     17057     17055     17058     17059     17060
     17061     17065     17061     17062     17061     17063     17061     17064
     17065     17066     17067     17071     17067     17068     17067     17069
     17067     17070     17071     17072     17073     17077     17073     17074
     17073     17075     17073     17076     17077     17078     17079     17083
     17079     17080     17079     17081     17079     17082     17083     17084
     17085     17089     17085     17086     17085     17087     17085     17088
     17089     17090     17091     17095     17091     17092     17091     17093
     17091     17094     17095     17096     17097     17101     17097     17098
     17097     17099     17097     17100     17101     17102     17103     17107
     17103     17104     17103     17105     17103     17106     17107     17108
     17109     17113     17109     17110     17109     17111     17109     17112
     17113     17114     17115     17119     17115     17116     17115     17117
     17115     17118     17119     17120     17121     17125     17121     17122
     17121     17123     17121     17124     17125     17126     17127     17131
     17127     17128     17127     17129     17127     17130     17131     17132
     17133     17137     17133     17134     17133     17135     17133     17136
     17137     17138     17139     17143     17139     17140     17139     17141
     17139     17142     17143     17144     17145     17149     17145     17146
     17145     17147     17145     17148     17149     17150     17151     17155
     17151     17152     17151     17153     17151     17154     17155     17156
     17157     17161     17157     17158     17157     17159     17157     17160
     17161     17162     17163     17167     17163     17164     17163     17165
     17163     17166     17167     17168     17169     17173     17169     17170
     17169     17171     17169     17172     17173     17174     17175     17179
     17175     17176     17175     17177     17175     17178     17179     17180
     17181     17185     17181     17182     17181     17183     17181     17184
     17185     17186     17187     17191     17187     17188     17187     17189
     17187     17190     17191     17192     17193     17197     17193     17194
     17193     17195     17193     17196     17197     17198     17199     17203
     17199     17200     17199     17201     17199     17202     17203     17204
     17205     17209     17205     17206     17205     17207     17205     17208
     17209     17210     17211     17215     17211     17212     17211     17213
     17211     17214     17215     17216     17217     17221     17217     17218
     17217     17219     17217     17220     17221     17222     17223     17227
     17223     17224     17223     17225     17223     17226     17227     17228
     17229     17233     17229     17230     17229     17231     17229     17232
     17233     17234     17235     17239     17235     17236     17235     17237
     17235     17238     17239     17240     17241     17245     17241     17242
     17241     17243     17241     17244     17245     17246     17247     17251
     17247     17248     17247     17249     17247     17250     17251     17252
     17253     17257     17253     17254     17253     17255     17253     17256
     17257     17258     17259     17263     17259     17260     17259     17261
     17259     17262     17263     17264     17265     17269     17265     17266
     17265     17267     17265     17268     17269     17270     17271     17275
     17271     17272     17271     17273     17271     17274     17275     17276
     17277     17281     17277     17278     17277     17279     17277     17280
     17281     17282     17283     17287     17283     17284     17283     17285
     17283     17286     17287     17288     17289     17293     17289     17290
     17289     17291     17289     17292     17293     17294     17295     17299
     17295     17296     17295     17297     17295     17298     17299     17300
     17301     17305     17301     17302     17301     17303     17301     17304
     17305     17306     17307     17311     17307     17308     17307     17309
     17307     17310     17311     17312     17313     17317     17313     17314
     17313     17315     17313     17316     17317     17318     17319     17323
     17319     17320     17319     17321     17319     17322     17323     17324
     17325     17329     17325     17326     17325     17327     17325     17328
     17329     17330     17331     17335     17331     17332     17331     17333
     17331     17334     17335     17336     17337     17341     17337     17338
     17337     17339     17337     17340     17341     17342     17343     17347
     17343     17344     17343     17345     17343     17346     17347     17348
     17349     17353     17349     17350     17349     17351     17349     17352
     17353     17354     17355     17359     17355     17356     17355     17357
     17355     17358     17359     17360     17361     17365     17361     17362
     17361     17363     17361     17364     17365     17366     17367     17371
     17367     17368     17367     17369     17367     17370     17371     17372
     17373     17377     17373     17374     17373     17375     17373     17376
     17377     17378     17379     17383     17379     17380     17379     17381
     17379     17382     17383     17384     17385     17389     17385     17386
     17385     17387     17385     17388     17389     17390     17391     17395
     17391     17392     17391     17393     17391     17394     17395     17396
     17397     17401     17397     17398     17397     17399     17397     17400
     17401     17402     17403     17407     17403     17404     17403     17405
     17403     17406     17407     17408     17409     17413     17409     17410
     17409     17411     17409     17412     17413     17414     17415     17419
     17415     17416     17415     17417     17415     17418     17419     17420
     17421     17425     17421     17422     17421     17423     17421     17424
     17425     17426     17427     17431     17427     17428     17427     17429
     17427     17430     17431     17432     17433     17437     17433     17434
     17433     17435     17433     17436     17437     17438     17439     17443
     17439     17440     17439     17441     17439     17442     17443     17444
     17445     17449     17445     17446     17445     17447     17445     17448
     17449     17450     17451     17455     17451     17452     17451     17453
     17451     17454     17455     17456     17457     17461     17457     17458
     17457     17459     17457     17460     17461     17462     17463     17467
     17463     17464     17463     17465     17463     17466     17467     17468
     17469     17473     17469     17470     17469     17471     17469     17472
     17473     17474     17475     17479     17475     17476     17475     17477
     17475     17478     17479     17480     17481     17485     17481     17482
     17481     17483     17481     17484     17485     17486     17487     17491
     17487     17488     17487     17489     17487     17490     17491     17492
     17493     17497     17493     17494     17493     17495     17493     17496
     17497     17498     17499     17503     17499     17500     17499     17501
     17499     17502     17503     17504     17505     17509     17505     17506
     17505     17507     17505     17508     17509     17510     17511     17515
     17511     17512     17511     17513     17511     17514     17515     17516
     17517     17521     17517     17518     17517     17519     17517     17520
     17521     17522     17523     17527     17523     17524     17523     17525
     17523     17526     17527     17528     17529     17533     17529     17530
     17529     17531     17529     17532     17533     17534     17535     17539
     17535     17536     17535     17537     17535     17538     17539     17540
     17541     17545     17541     17542     17541     17543     17541     17544
     17545     17546     17547     17551     17547     17548     17547     17549
     17547     17550     17551     17552     17553     17557     17553     17554
     17553     17555     17553     17556     17557     17558     17559     17563
     17559     17560     17559     17561     17559     17562     17563     17564
     17565     17569     17565     17566     17565     17567     17565     17568
     17569     17570     17571     17575     17571     17572     17571     17573
     17571     17574     17575     17576     17577     17581     17577     17578
     17577     17579     17577     17580     17581     17582     17583     17587
     17583     17584     17583     17585     17583     17586     17587     17588
     17589     17593     17589     17590     17589     17591     17589     17592
     17593     17594     17595     17599     17595     17596     17595     17597
     17595     17598     17599     17600     17601     17605     17601     17602
     17601     17603     17601     17604     17605     17606     17607     17611
     17607     17608     17607     17609     17607     17610     17611     17612
     17613     17617     17613     17614     17613     17615     17613     17616
     17617     17618     17619     17623     17619     17620     17619     17621
     17619     17622     17623     17624     17625     17629     17625     17626
     17625     17627     17625     17628     17629     17630     17631     17635
     17631     17632     17631     17633     17631     17634     17635     17636
     17637     17641     17637     17638     17637     17639     17637     17640
     17641     17642     17643     17647     17643     17644     17643     17645
     17643     17646     17647     17648     17649     17653     17649     17650
     17649     17651     17649     17652     17653     17654     17655     17659
     17655     17656     17655     17657     17655     17658     17659     17660
     17661     17665     17661     17662     17661     17663     17661     17664
     17665     17666     17667     17671     17667     17668     17667     17669
     17667     17670     17671     17672     17673     17677     17673     17674
     17673     17675     17673     17676     17677     17678     17679     17683
     17679     17680     17679     17681     17679     17682     17683     17684
     17685     17689     17685     17686     17685     17687     17685     17688
     17689     17690     17691     17695     17691     17692     17691     17693
     17691     17694     17695     17696     17697     17701     17697     17698
     17697     17699     17697     17700     17701     17702     17703     17707
     17703     17704     17703     17705     17703     17706     17707     17708
     17709     17713     17709     17710     17709     17711     17709     17712
     17713     17714     17715     17719     17715     17716     17715     17717
     17715     17718     17719     17720     17721     17725     17721     17722
     17721     17723     17721     17724     17725     17726     17727     17731
     17727     17728     17727     17729     17727     17730     17731     17732
     17733     17737     17733     17734     17733     17735     17733     17736
     17737     17738     17739     17743     17739     17740     17739     17741
     17739     17742     17743     17744     17745     17749     17745     17746
     17745     17747     17745     17748     17749     17750     17751     17755
     17751     17752     17751     17753     17751     17754     17755     17756
     17757     17761     17757     17758     17757     17759     17757     17760
     17761     17762     17763     17767     17763     17764     17763     17765
     17763     17766     17767     17768     17769     17773     17769     17770
     17769     17771     17769     17772     17773     17774     17775     17779
     17775     17776     17775     17777     17775     17778     17779     17780
     17781     17785     17781     17782     17781     17783     17781     17784
     17785     17786     17787     17791     17787     17788     17787     17789
     17787     17790     17791     17792     17793     17797     17793     17794
     17793     17795     17793     17796     17797     17798     17799     17803
     17799     17800     17799     17801     17799     17802     17803     17804
     17805     17809     17805     17806     17805     17807     17805     17808
     17809     17810     17811     17815     17811     17812     17811     17813
     17811     17814     17815     17816     17817     17821     17817     17818
     17817     17819     17817     17820     17821     17822     17823     17827
     17823     17824     17823     17825     17823     17826     17827     17828
     17829     17833     17829     17830     17829     17831     17829     17832
     17833     17834     17835     17839     17835     17836     17835     17837
     17835     17838     17839     17840     17841     17845     17841     17842
     17841     17843     17841     17844     17845     17846     17847     17851
     17847     17848     17847     17849     17847     17850     17851     17852
     17853     17857     17853     17854     17853     17855     17853     17856
     17857     17858     17859     17863     17859     17860     17859     17861
     17859     17862     17863     17864     17865     17869     17865     17866
     17865     17867     17865     17868     17869     17870     17871     17875
     17871     17872     17871     17873     17871     17874     17875     17876
     17877     17881     17877     17878     17877     17879     17877     17880
     17881     17882     17883     17887     17883     17884     17883     17885
     17883     17886     17887     17888     17889     17893     17889     17890
     17889     17891     17889     17892     17893     17894     17895     17899
     17895     17896     17895     17897     17895     17898     17899     17900
     17901     17905     17901     17902     17901     17903     17901     17904
     17905     17906     17907     17911     17907     17908     17907     17909
     17907     17910     17911     17912     17913     17917     17913     17914
     17913     17915     17913     17916     17917     17918     17919     17923
     17919     17920     17919     17921     17919     17922     17923     17924
     17925     17929     17925     17926     17925     17927     17925     17928
     17929     17930     17931     17935     17931     17932     17931     17933
     17931     17934     17935     17936     17937     17941     17937     17938
     17937     17939     17937     17940     17941     17942     17943     17947
     17943     17944     17943     17945     17943     17946     17947     17948
     17949     17953     17949     17950     17949     17951     17949     17952
     17953     17954     17955     17959     17955     17956     17955     17957
     17955     17958     17959     17960     17961     17965     17961     17962
     17961     17963     17961     17964     17965     17966     17967     17971
     17967     17968     17967     17969     17967     17970     17971     17972
     17973     17977     17973     17974     17973     17975     17973     17976
     17977     17978     17979     17983     17979     17980     17979     17981
     17979     17982     17983     17984     17985     17989     17985     17986
     17985     17987     17985     17988     17989     17990     17991     17995
     17991     17992     17991     17993     17991     17994     17995     17996
     17997     18001     17997     17998     17997     17999     17997     18000
     18001     18002     18003     18007     18003     18004     18003     18005
     18003     18006     18007     18008     18009     18013     18009     18010
     18009     18011     18009     18012     18013     18014     18015     18019
     18015     18016     18015     18017     18015     18018     18019     18020
     18021     18025     18021     18022     18021     18023     18021     18024
     18025     18026     18027     18031     18027     18028     18027     18029
     18027     18030     18031     18032     18033     18037     18033     18034
     18033     18035     18033     18036     18037     18038     18039     18043
     18039     18040     18039     18041     18039     18042     18043     18044
     18045     18049     18045     18046     18045     18047     18045     18048
     18049     18050     18051     18055     18051     18052     18051     18053
     18051     18054     18055     18056     18057     18061     18057     18058
     18057     18059     18057     18060     18061     18062     18063     18067
     18063     18064     18063     18065     18063     18066     18067     18068
     18069     18073     18069     18070     18069     18071     18069     18072
     18073     18074     18075     18079     18075     18076     18075     18077
     18075     18078     18079     18080     18081     18085     18081     18082
     18081     18083     18081     18084     18085     18086     18087     18091
     18087     18088     18087     18089     18087     18090     18091     18092
     18093     18097     18093     18094     18093     18095     18093     18096
     18097     18098     18099     18103     18099     18100     18099     18101
     18099     18102     18103     18104     18105     18109     18105     18106
     18105     18107     18105     18108     18109     18110     18111     18115
     18111     18112     18111     18113     18111     18114     18115     18116
     18117     18121     18117     18118     18117     18119     18117     18120
     18121     18122     18123     18127     18123     18124     18123     18125
     18123     18126     18127     18128     18129     18133     18129     18130
     18129     18131     18129     18132     18133     18134     18135     18139
     18135     18136     18135     18137     18135     18138     18139     18140
     18141     18145     18141     18142     18141     18143     18141     18144
     18145     18146     18147     18151     18147     18148     18147     18149
     18147     18150     18151     18152     18153     18157     18153     18154
     18153     18155     18153     18156     18157     18158     18159     18163
     18159     18160     18159     18161     18159     18162     18163     18164
     18165     18169     18165     18166     18165     18167     18165     18168
     18169     18170     18171     18175     18171     18172     18171     18173
     18171     18174     18175     18176     18177     18181     18177     18178
     18177     18179     18177     18180     18181     18182     18183     18187
     18183     18184     18183     18185     18183     18186     18187     18188
     18189     18193     18189     18190     18189     18191     18189     18192
     18193     18194     18195     18199     18195     18196     18195     18197
     18195     18198     18199     18200     18201     18205     18201     18202
     18201     18203     18201     18204     18205     18206     18207     18211
     18207     18208     18207     18209     18207     18210     18211     18212
     18213     18217     18213     18214     18213     18215     18213     18216
     18217     18218     18219     18223     18219     18220     18219     18221
     18219     18222     18223     18224     18225     18229     18225     18226
     18225     18227     18225     18228     18229     18230     18231     18235
     18231     18232     18231     18233     18231     18234     18235     18236
     18237     18241     18237     18238     18237     18239     18237     18240
     18241     18242     18243     18247     18243     18244     18243     18245
     18243     18246     18247     18248     18249     18253     18249     18250
     18249     18251     18249     18252     18253     18254     18255     18259
     18255     18256     18255     18257     18255     18258     18259     18260
     18261     18265     18261     18262     18261     18263     18261     18264
     18265     18266     18267     18271     18267     18268     18267     18269
     18267     18270     18271     18272     18273     18277     18273     18274
     18273     18275     18273     18276     18277     18278     18279     18283
     18279     18280     18279     18281     18279     18282     18283     18284
     18285     18289     18285     18286     18285     18287     18285     18288
     18289     18290     18291     18295     18291     18292     18291     18293
     18291     18294     18295     18296     18297     18301     18297     18298
     18297     18299     18297     18300     18301     18302     18303     18307
     18303     18304     18303     18305     18303     18306     18307     18308
     18309     18313     18309     18310     18309     18311     18309     18312
     18313     18314     18315     18319     18315     18316     18315     18317
     18315     18318     18319     18320     18321     18325     18321     18322
     18321     18323     18321     18324     18325     18326     18327     18331
     18327     18328     18327     18329     18327     18330     18331     18332
     18333     18337     18333     18334     18333     18335     18333     18336
     18337     18338     18339     18343     18339     18340     18339     18341
     18339     18342     18343     18344     18345     18349     18345     18346
     18345     18347     18345     18348     18349     18350     18351     18355
     18351     18352     18351     18353     18351     18354     18355     18356
     18357     18361     18357     18358     18357     18359     18357     18360
     18361     18362     18363     18367     18363     18364     18363     18365
     18363     18366     18367     18368     18369     18373     18369     18370
     18369     18371     18369     18372     18373     18374     18375     18379
     18375     18376     18375     18377     18375     18378     18379     18380
     18381     18385     18381     18382     18381     18383     18381     18384
     18385     18386     18387     18391     18387     18388     18387     18389
     18387     18390     18391     18392     18393     18397     18393     18394
     18393     18395     18393     18396     18397     18398     18399     18403
     18399     18400     18399     18401     18399     18402     18403     18404
     18405     18409     18405     18406     18405     18407     18405     18408
     18409     18410     18411     18415     18411     18412     18411     18413
     18411     18414     18415     18416     18417     18421     18417     18418
     18417     18419     18417     18420     18421     18422     18423     18427
     18423     18424     18423     18425     18423     18426     18427     18428
     18429     18433     18429     18430     18429     18431     18429     18432
     18433     18434     18435     18439     18435     18436     18435     18437
     18435     18438     18439     18440     18441     18445     18441     18442
     18441     18443     18441     18444     18445     18446     18447     18451
     18447     18448     18447     18449     18447     18450     18451     18452
     18453     18457     18453     18454     18453     18455     18453     18456
     18457     18458     18459     18463     18459     18460     18459     18461
     18459     18462     18463     18464     18465     18469     18465     18466
     18465     18467     18465     18468     18469     18470     18471     18475
     18471     18472     18471     18473     18471     18474     18475     18476
     18477     18481     18477     18478     18477     18479     18477     18480
     18481     18482     18483     18487     18483     18484     18483     18485
     18483     18486     18487     18488     18489     18493     18489     18490
     18489     18491     18489     18492     18493     18494     18495     18499
     18495     18496     18495     18497     18495     18498     18499     18500
     18501     18505     18501     18502     18501     18503     18501     18504
     18505     18506     18507     18511     18507     18508     18507     18509
     18507     18510     18511     18512     18513     18517     18513     18514
     18513     18515     18513     18516     18517     18518     18519     18523
     18519     18520     18519     18521     18519     18522     18523     18524
     18525     18529     18525     18526     18525     18527     18525     18528
     18529     18530     18531     18535     18531     18532     18531     18533
     18531     18534     18535     18536     18537     18541     18537     18538
     18537     18539     18537     18540     18541     18542     18543     18547
     18543     18544     18543     18545     18543     18546     18547     18548
     18549     18553     18549     18550     18549     18551     18549     18552
     18553     18554     18555     18559     18555     18556     18555     18557
     18555     18558     18559     18560     18561     18565     18561     18562
     18561     18563     18561     18564     18565     18566     18567     18571
     18567     18568     18567     18569     18567     18570     18571     18572
     18573     18577     18573     18574     18573     18575     18573     18576
     18577     18578     18579     18583     18579     18580     18579     18581
     18579     18582     18583     18584     18585     18589     18585     18586
     18585     18587     18585     18588     18589     18590     18591     18595
     18591     18592     18591     18593     18591     18594     18595     18596
     18597     18601     18597     18598     18597     18599     18597     18600
     18601     18602     18603     18607     18603     18604     18603     18605
     18603     18606     18607     18608     18609     18613     18609     18610
     18609     18611     18609     18612     18613     18614     18615     18619
     18615     18616     18615     18617     18615     18618     18619     18620
     18621     18625     18621     18622     18621     18623     18621     18624
     18625     18626     18627     18631     18627     18628     18627     18629
     18627     18630     18631     18632     18633     18637     18633     18634
     18633     18635     18633     18636     18637     18638     18639     18643
     18639     18640     18639     18641     18639     18642     18643     18644
     18645     18649     18645     18646     18645     18647     18645     18648
     18649     18650     18651     18655     18651     18652     18651     18653
     18651     18654     18655     18656     18657     18661     18657     18658
     18657     18659     18657     18660     18661     18662     18663     18667
     18663     18664     18663     18665     18663     18666     18667     18668
     18669     18673     18669     18670     18669     18671     18669     18672
     18673     18674     18675     18679     18675     18676     18675     18677
     18675     18678     18679     18680     18681     18685     18681     18682
     18681     18683     18681     18684     18685     18686     18687     18691
     18687     18688     18687     18689     18687     18690     18691     18692
     18693     18697     18693     18694     18693     18695     18693     18696
     18697     18698     18699     18703     18699     18700     18699     18701
     18699     18702     18703     18704     18705     18709     18705     18706
     18705     18707     18705     18708     18709     18710     18711     18715
     18711     18712     18711     18713     18711     18714     18715     18716
     18717     18721     18717     18718     18717     18719     18717     18720
     18721     18722     18723     18727     18723     18724     18723     18725
     18723     18726     18727     18728     18729     18733     18729     18730
     18729     18731     18729     18732     18733     18734     18735     18739
     18735     18736     18735     18737     18735     18738     18739     18740
     18741     18745     18741     18742     18741     18743     18741     18744
     18745     18746     18747     18751     18747     18748     18747     18749
     18747     18750     18751     18752     18753     18757     18753     18754
     18753     18755     18753     18756     18757     18758     18759     18763
     18759     18760     18759     18761     18759     18762     18763     18764
     18765     18769     18765     18766     18765     18767     18765     18768
     18769     18770     18771     18775     18771     18772     18771     18773
     18771     18774     18775     18776     18777     18781     18777     18778
     18777     18779     18777     18780     18781     18782     18783     18787
     18783     18784     18783     18785     18783     18786     18787     18788
     18789     18793     18789     18790     18789     18791     18789     18792
     18793     18794     18795     18799     18795     18796     18795     18797
     18795     18798     18799     18800     18801     18805     18801     18802
     18801     18803     18801     18804     18805     18806     18807     18811
     18807     18808     18807     18809     18807     18810     18811     18812
     18813     18817     18813     18814     18813     18815     18813     18816
     18817     18818     18819     18823     18819     18820     18819     18821
     18819     18822     18823     18824     18825     18829     18825     18826
     18825     18827     18825     18828     18829     18830     18831     18835
     18831     18832     18831     18833     18831     18834     18835     18836
     18837     18841     18837     18838     18837     18839     18837     18840
     18841     18842     18843     18847     18843     18844     18843     18845
     18843     18846     18847     18848     18849     18853     18849     18850
     18849     18851     18849     18852     18853     18854     18855     18859
     18855     18856     18855     18857     18855     18858     18859     18860
     18861     18865     18861     18862     18861     18863     18861     18864
     18865     18866     18867     18871     18867     18868     18867     18869
     18867     18870     18871     18872     18873     18877     18873     18874
     18873     18875     18873     18876     18877     18878     18879     18883
     18879     18880     18879     18881     18879     18882     18883     18884
     18885     18889     18885     18886     18885     18887     18885     18888
     18889     18890     18891     18895     18891     18892     18891     18893
     18891     18894     18895     18896     18897     18901     18897     18898
     18897     18899     18897     18900     18901     18902     18903     18907
     18903     18904     18903     18905     18903     18906     18907     18908
     18909     18913     18909     18910     18909     18911     18909     18912
     18913     18914     18915     18919     18915     18916     18915     18917
     18915     18918     18919     18920     18921     18925     18921     18922
     18921     18923     18921     18924     18925     18926     18927     18931
     18927     18928     18927     18929     18927     18930     18931     18932
     18933     18937     18933     18934     18933     18935     18933     18936
     18937     18938     18939     18943     18939     18940     18939     18941
     18939     18942     18943     18944     18945     18949     18945     18946
     18945     18947     18945     18948     18949     18950     18951     18955
     18951     18952     18951     18953     18951     18954     18955     18956
     18957     18961     18957     18958     18957     18959     18957     18960
     18961     18962     18963     18967     18963     18964     18963     18965
     18963     18966     18967     18968     18969     18973     18969     18970
     18969     18971     18969     18972     18973     18974     18975     18979
     18975     18976     18975     18977     18975     18978     18979     18980
     18981     18985     18981     18982     18981     18983     18981     18984
     18985     18986     18987     18991     18987     18988     18987     18989
     18987     18990     18991     18992     18993     18997     18993     18994
     18993     18995     18993     18996     18997     18998     18999     19003
     18999     19000     18999     19001     18999     19002     19003     19004
     19005     19009     19005     19006     19005     19007     19005     19008
     19009     19010     19011     19015     19011     19012     19011     19013
     19011     19014     19015     19016     19017     19021     19017     19018
     19017     19019     19017     19020     19021     19022     19023     19027
     19023     19024     19023     19025     19023     19026     19027     19028
     19029     19033     19029     19030     19029     19031     19029     19032
     19033     19034     19035     19039     19035     19036     19035     19037
     19035     19038     19039     19040     19041     19045     19041     19042
     19041     19043     19041     19044     19045     19046     19047     19051
     19047     19048     19047     19049     19047     19050     19051     19052
     19053     19057     19053     19054     19053     19055     19053     19056
     19057     19058     19059     19063     19059     19060     19059     19061
     19059     19062     19063     19064     19065     19069     19065     19066
     19065     19067     19065     19068     19069     19070     19071     19075
     19071     19072     19071     19073     19071     19074     19075     19076
     19077     19081     19077     19078     19077     19079     19077     19080
     19081     19082     19083     19087     19083     19084     19083     19085
     19083     19086     19087     19088     19089     19093     19089     19090
     19089     19091     19089     19092     19093     19094     19095     19099
     19095     19096     19095     19097     19095     19098     19099     19100
     19101     19105     19101     19102     19101     19103     19101     19104
     19105     19106     19107     19111     19107     19108     19107     19109
     19107     19110     19111     19112     19113     19117     19113     19114
     19113     19115     19113     19116     19117     19118     19119     19123
     19119     19120     19119     19121     19119     19122     19123     19124
     19125     19129     19125     19126     19125     19127     19125     19128
     19129     19130     19131     19135     19131     19132     19131     19133
     19131     19134     19135     19136     19137     19141     19137     19138
     19137     19139     19137     19140     19141     19142     19143     19147
     19143     19144     19143     19145     19143     19146     19147     19148
     19149     19153     19149     19150     19149     19151     19149     19152
     19153     19154     19155     19159     19155     19156     19155     19157
     19155     19158     19159     19160     19161     19165     19161     19162
     19161     19163     19161     19164     19165     19166     19167     19171
     19167     19168     19167     19169     19167     19170     19171     19172
     19173     19177     19173     19174     19173     19175     19173     19176
     19177     19178     19179     19183     19179     19180     19179     19181
     19179     19182     19183     19184     19185     19189     19185     19186
     19185     19187     19185     19188     19189     19190     19191     19195
     19191     19192     19191     19193     19191     19194     19195     19196
     19197     19201     19197     19198     19197     19199     19197     19200
     19201     19202     19203     19207     19203     19204     19203     19205
     19203     19206     19207     19208     19209     19213     19209     19210
     19209     19211     19209     19212     19213     19214     19215     19219
     19215     19216     19215     19217     19215     19218     19219     19220
     19221     19225     19221     19222     19221     19223     19221     19224
     19225     19226     19227     19231     19227     19228     19227     19229
     19227     19230     19231     19232     19233     19237     19233     19234
     19233     19235     19233     19236     19237     19238     19239     19243
     19239     19240     19239     19241     19239     19242     19243     19244
     19245     19249     19245     19246     19245     19247     19245     19248
     19249     19250     19251     19255     19251     19252     19251     19253
     19251     19254     19255     19256     19257     19261     19257     19258
     19257     19259     19257     19260     19261     19262     19263     19267
     19263     19264     19263     19265     19263     19266     19267     19268
     19269     19273     19269     19270     19269     19271     19269     19272
     19273     19274     19275     19279     19275     19276     19275     19277
     19275     19278     19279     19280     19281     19285     19281     19282
     19281     19283     19281     19284     19285     19286     19287     19291
     19287     19288     19287     19289     19287     19290     19291     19292
     19293     19297     19293     19294     19293     19295     19293     19296
     19297     19298     19299     19303     19299     19300     19299     19301
     19299     19302     19303     19304     19305     19309     19305     19306
     19305     19307     19305     19308     19309     19310     19311     19315
     19311     19312     19311     19313     19311     19314     19315     19316
     19317     19321     19317     19318     19317     19319     19317     19320
     19321     19322     19323     19327     19323     19324     19323     19325
     19323     19326     19327     19328     19329     19333     19329     19330
     19329     19331     19329     19332     19333     19334     19335     19339
     19335     19336     19335     19337     19335     19338     19339     19340
     19341     19345     19341     19342     19341     19343     19341     19344
     19345     19346     19347     19351     19347     19348     19347     19349
     19347     19350     19351     19352     19353     19357     19353     19354
     19353     19355     19353     19356     19357     19358     19359     19363
     19359     19360     19359     19361     19359     19362     19363     19364
     19365     19369     19365     19366     19365     19367     19365     19368
     19369     19370     19371     19375     19371     19372     19371     19373
     19371     19374     19375     19376     19377     19381     19377     19378
     19377     19379     19377     19380     19381     19382     19383     19387
     19383     19384     19383     19385     19383     19386     19387     19388
     19389     19393     19389     19390     19389     19391     19389     19392
     19393     19394     19395     19399     19395     19396     19395     19397
     19395     19398     19399     19400     19401     19405     19401     19402
     19401     19403     19401     19404     19405     19406     19407     19411
     19407     19408     19407     19409     19407     19410     19411     19412
     19413     19417     19413     19414     19413     19415     19413     19416
     19417     19418     19419     19423     19419     19420     19419     19421
     19419     19422     19423     19424     19425     19429     19425     19426
     19425     19427     19425     19428     19429     19430     19431     19435
     19431     19432     19431     19433     19431     19434     19435     19436
     19437     19441     19437     19438     19437     19439     19437     19440
     19441     19442     19443     19447     19443     19444     19443     19445
     19443     19446     19447     19448     19449     19453     19449     19450
     19449     19451     19449     19452     19453     19454     19455     19459
     19455     19456     19455     19457     19455     19458     19459     19460
     19461     19465     19461     19462     19461     19463     19461     19464
     19465     19466     19467     19471     19467     19468     19467     19469
     19467     19470     19471     19472     19473     19477     19473     19474
     19473     19475     19473     19476     19477     19478     19479     19483
     19479     19480     19479     19481     19479     19482     19483     19484
     19485     19489     19485     19486     19485     19487     19485     19488
     19489     19490     19491     19495     19491     19492     19491     19493
     19491     19494     19495     19496     19497     19501     19497     19498
     19497     19499     19497     19500     19501     19502     19503     19507
     19503     19504     19503     19505     19503     19506     19507     19508
     19509     19513     19509     19510     19509     19511     19509     19512
     19513     19514     19515     19519     19515     19516     19515     19517
     19515     19518     19519     19520     19521     19525     19521     19522
     19521     19523     19521     19524     19525     19526     19527     19531
     19527     19528     19527     19529     19527     19530     19531     19532
     19533     19537     19533     19534     19533     19535     19533     19536
     19537     19538     19539     19543     19539     19540     19539     19541
     19539     19542     19543     19544     19545     19549     19545     19546
     19545     19547     19545     19548     19549     19550     19551     19555
     19551     19552     19551     19553     19551     19554     19555     19556
     19557     19561     19557     19558     19557     19559     19557     19560
     19561     19562     19563     19567     19563     19564     19563     19565
     19563     19566     19567     19568     19569     19573     19569     19570
     19569     19571     19569     19572     19573     19574     19575     19579
     19575     19576     19575     19577     19575     19578     19579     19580
     19581     19585     19581     19582     19581     19583     19581     19584
     19585     19586     19587     19591     19587     19588     19587     19589
     19587     19590     19591     19592     19593     19597     19593     19594
     19593     19595     19593     19596     19597     19598     19599     19603
     19599     19600     19599     19601     19599     19602     19603     19604
     19605     19609     19605     19606     19605     19607     19605     19608
     19609     19610     19611     19615     19611     19612     19611     19613
     19611     19614     19615     19616     19617     19621     19617     19618
     19617     19619     19617     19620     19621     19622     19623     19627
     19623     19624     19623     19625     19623     19626     19627     19628
     19629     19633     19629     19630     19629     19631     19629     19632
     19633     19634     19635     19639     19635     19636     19635     19637
     19635     19638     19639     19640     19641     19645     19641     19642
     19641     19643     19641     19644     19645     19646     19647     19651
     19647     19648     19647     19649     19647     19650     19651     19652
     19653     19657     19653     19654     19653     19655     19653     19656
     19657     19658     19659     19663     19659     19660     19659     19661
     19659     19662     19663     19664     19665     19669     19665     19666
     19665     19667     19665     19668     19669     19670     19671     19675
     19671     19672     19671     19673     19671     19674     19675     19676
     19677     19681     19677     19678     19677     19679     19677     19680
     19681     19682     19683     19687     19683     19684     19683     19685
     19683     19686     19687     19688     19689     19693     19689     19690
     19689     19691     19689     19692     19693     19694     19695     19699
     19695     19696     19695     19697     19695     19698     19699     19700
     19701     19705     19701     19702     19701     19703     19701     19704
     19705     19706     19707     19711     19707     19708     19707     19709
     19707     19710     19711     19712     19713     19717     19713     19714
     19713     19715     19713     19716     19717     19718     19719     19723
     19719     19720     19719     19721     19719     19722     19723     19724
     19725     19729     19725     19726     19725     19727     19725     19728
     19729     19730     19731     19735     19731     19732     19731     19733
     19731     19734     19735     19736     19737     19741     19737     19738
     19737     19739     19737     19740     19741     19742     19743     19747
     19743     19744     19743     19745     19743     19746     19747     19748
     19749     19753     19749     19750     19749     19751     19749     19752
     19753     19754     19755     19759     19755     19756     19755     19757
     19755     19758     19759     19760     19761     19765     19761     19762
     19761     19763     19761     19764     19765     19766     19767     19771
     19767     19768     19767     19769     19767     19770     19771     19772
     19773     19777     19773     19774     19773     19775     19773     19776
     19777     19778     19779     19783     19779     19780     19779     19781
     19779     19782     19783     19784     19785     19789     19785     19786
     19785     19787     19785     19788     19789     19790     19791     19795
     19791     19792     19791     19793     19791     19794     19795     19796
     19797     19801     19797     19798     19797     19799     19797     19800
     19801     19802     19803     19807     19803     19804     19803     19805
     19803     19806     19807     19808     19809     19813     19809     19810
     19809     19811     19809     19812     19813     19814     19815     19819
     19815     19816     19815     19817     19815     19818     19819     19820
     19821     19825     19821     19822     19821     19823     19821     19824
     19825     19826     19827     19831     19827     19828     19827     19829
     19827     19830     19831     19832     19833     19837     19833     19834
     19833     19835     19833     19836     19837     19838     19839     19843
     19839     19840     19839     19841     19839     19842     19843     19844
     19845     19849     19845     19846     19845     19847     19845     19848
     19849     19850     19851     19855     19851     19852     19851     19853
     19851     19854     19855     19856     19857     19861     19857     19858
     19857     19859     19857     19860     19861     19862     19863     19867
     19863     19864     19863     19865     19863     19866     19867     19868
     19869     19873     19869     19870     19869     19871     19869     19872
     19873     19874     19875     19879     19875     19876     19875     19877
     19875     19878     19879     19880     19881     19885     19881     19882
     19881     19883     19881     19884     19885     19886     19887     19891
     19887     19888     19887     19889     19887     19890     19891     19892
     19893     19897     19893     19894     19893     19895     19893     19896
     19897     19898     19899     19903     19899     19900     19899     19901
     19899     19902     19903     19904     19905     19909     19905     19906
     19905     19907     19905     19908     19909     19910     19911     19915
     19911     19912     19911     19913     19911     19914     19915     19916
     19917     19921     19917     19918     19917     19919     19917     19920
     19921     19922     19923     19927     19923     19924     19923     19925
     19923     19926     19927     19928     19929     19933     19929     19930
     19929     19931     19929     19932     19933     19934     19935     19939
     19935     19936     19935     19937     19935     19938     19939     19940
     19941     19945     19941     19942     19941     19943     19941     19944
     19945     19946     19947     19951     19947     19948     19947     19949
     19947     19950     19951     19952     19953     19957     19953     19954
     19953     19955     19953     19956     19957     19958     19959     19963
     19959     19960     19959     19961     19959     19962     19963     19964
     19965     19969     19965     19966     19965     19967     19965     19968
     19969     19970     19971     19975     19971     19972     19971     19973
     19971     19974     19975     19976     19977     19981     19977     19978
     19977     19979     19977     19980     19981     19982     19983     19987
     19983     19984     19983     19985     19983     19986     19987     19988
     19989     19993     19989     19990     19989     19991     19989     19992
     19993     19994     19995     19999     19995     19996     19995     19997
     19995     19998     19999     20000     20001     20005     20001     20002
     20001     20003     20001     20004     20005     20006     20007     20011
     20007     20008     20007     20009     20007     20010     20011     20012
     20013     20017     20013     20014     20013     20015     20013     20016
     20017     20018     20019     20023     20019     20020     20019     20021
     20019     20022     20023     20024     20025     20029     20025     20026
     20025     20027     20025     20028     20029     20030     20031     20035
     20031     20032     20031     20033     20031     20034     20035     20036
     20037     20041     20037     20038     20037     20039     20037     20040
     20041     20042     20043     20047     20043     20044     20043     20045
     20043     20046     20047     20048     20049     20053     20049     20050
     20049     20051     20049     20052     20053     20054     20055     20059
     20055     20056     20055     20057     20055     20058     20059     20060
     20061     20065     20061     20062     20061     20063     20061     20064
     20065     20066     20067     20071     20067     20068     20067     20069
     20067     20070     20071     20072     20073     20077     20073     20074
     20073     20075     20073     20076     20077     20078     20079     20083
     20079     20080     20079     20081     20079     20082     20083     20084
     20085     20089     20085     20086     20085     20087     20085     20088
     20089     20090     20091     20095     20091     20092     20091     20093
     20091     20094     20095     20096     20097     20101     20097     20098
     20097     20099     20097     20100     20101     20102     20103     20107
     20103     20104     20103     20105     20103     20106     20107     20108
     20109     20113     20109     20110     20109     20111     20109     20112
     20113     20114     20115     20119     20115     20116     20115     20117
     20115     20118     20119     20120     20121     20125     20121     20122
     20121     20123     20121     20124     20125     20126     20127     20131
     20127     20128     20127     20129     20127     20130     20131     20132
     20133     20137     20133     20134     20133     20135     20133     20136
     20137     20138     20139     20143     20139     20140     20139     20141
     20139     20142     20143     20144     20145     20149     20145     20146
     20145     20147     20145     20148     20149     20150     20151     20155
     20151     20152     20151     20153     20151     20154     20155     20156
     20157     20161     20157     20158     20157     20159     20157     20160
     20161     20162     20163     20167     20163     20164     20163     20165
     20163     20166     20167     20168     20169     20173     20169     20170
     20169     20171     20169     20172     20173     20174     20175     20179
     20175     20176     20175     20177     20175     20178     20179     20180
     20181     20185     20181     20182     20181     20183     20181     20184
     20185     20186     20187     20191     20187     20188     20187     20189
     20187     20190     20191     20192     20193     20197     20193     20194
     20193     20195     20193     20196     20197     20198     20199     20203
     20199     20200     20199     20201     20199     20202     20203     20204
     20205     20209     20205     20206     20205     20207     20205     20208
     20209     20210     20211     20215     20211     20212     20211     20213
     20211     20214     20215     20216     20217     20221     20217     20218
     20217     20219     20217     20220     20221     20222     20223     20227
     20223     20224     20223     20225     20223     20226     20227     20228
     20229     20233     20229     20230     20229     20231     20229     20232
     20233     20234     20235     20239     20235     20236     20235     20237
     20235     20238     20239     20240     20241     20245     20241     20242
     20241     20243     20241     20244     20245     20246     20247     20251
     20247     20248     20247     20249     20247     20250     20251     20252
     20253     20257     20253     20254     20253     20255     20253     20256
     20257     20258     20259     20263     20259     20260     20259     20261
     20259     20262     20263     20264     20265     20269     20265     20266
     20265     20267     20265     20268     20269     20270     20271     20275
     20271     20272     20271     20273     20271     20274     20275     20276
     20277     20281     20277     20278     20277     20279     20277     20280
     20281     20282     20283     20287     20283     20284     20283     20285
     20283     20286     20287     20288     20289     20293     20289     20290
     20289     20291     20289     20292     20293     20294     20295     20299
     20295     20296     20295     20297     20295     20298     20299     20300
     20301     20305     20301     20302     20301     20303     20301     20304
     20305     20306     20307     20311     20307     20308     20307     20309
     20307     20310     20311     20312     20313     20317     20313     20314
     20313     20315     20313     20316     20317     20318     20319     20323
     20319     20320     20319     20321     20319     20322     20323     20324
     20325     20329     20325     20326     20325     20327     20325     20328
     20329     20330     20331     20335     20331     20332     20331     20333
     20331     20334     20335     20336     20337     20341     20337     20338
     20337     20339     20337     20340     20341     20342     20343     20347
     20343     20344     20343     20345     20343     20346     20347     20348
     20349     20353     20349     20350     20349     20351     20349     20352
     20353     20354     20355     20359     20355     20356     20355     20357
     20355     20358     20359     20360     20361     20365     20361     20362
     20361     20363     20361     20364     20365     20366     20367     20371
     20367     20368     20367     20369     20367     20370     20371     20372
     20373     20377     20373     20374     20373     20375     20373     20376
     20377     20378     20379     20383     20379     20380     20379     20381
     20379     20382     20383     20384     20385     20389     20385     20386
     20385     20387     20385     20388     20389     20390     20391     20395
     20391     20392     20391     20393     20391     20394     20395     20396
     20397     20401     20397     20398     20397     20399     20397     20400
     20401     20402     20403     20407     20403     20404     20403     20405
     20403     20406     20407     20408     20409     20413     20409     20410
     20409     20411     20409     20412     20413     20414     20415     20419
     20415     20416     20415     20417     20415     20418     20419     20420
     20421     20425     20421     20422     20421     20423     20421     20424
     20425     20426     20427     20431     20427     20428     20427     20429
     20427     20430     20431     20432     20433     20437     20433     20434
     20433     20435     20433     20436     20437     20438     20439     20443
     20439     20440     20439     20441     20439     20442     20443     20444
     20445     20449     20445     20446     20445     20447     20445     20448
     20449     20450     20451     20455     20451     20452     20451     20453
     20451     20454     20455     20456     20457     20461     20457     20458
     20457     20459     20457     20460     20461     20462     20463     20467
     20463     20464     20463     20465     20463     20466     20467     20468
     20469     20473     20469     20470     20469     20471     20469     20472
     20473     20474     20475     20479     20475     20476     20475     20477
     20475     20478     20479     20480     20481     20485     20481     20482
     20481     20483     20481     20484     20485     20486     20487     20491
     20487     20488     20487     20489     20487     20490     20491     20492
     20493     20497     20493     20494     20493     20495     20493     20496
     20497     20498     20499     20503     20499     20500     20499     20501
     20499     20502     20503     20504     20505     20509     20505     20506
     20505     20507     20505     20508     20509     20510     20511     20515
     20511     20512     20511     20513     20511     20514     20515     20516
     20517     20521     20517     20518     20517     20519     20517     20520
     20521     20522     20523     20527     20523     20524     20523     20525
     20523     20526     20527     20528     20529     20533     20529     20530
     20529     20531     20529     20532     20533     20534     20535     20539
     20535     20536     20535     20537     20535     20538     20539     20540
     20541     20545     20541     20542     20541     20543     20541     20544
     20545     20546     20547     20551     20547     20548     20547     20549
     20547     20550     20551     20552     20553     20557     20553     20554
     20553     20555     20553     20556     20557     20558     20559     20563
     20559     20560     20559     20561     20559     20562     20563     20564
     20565     20569     20565     20566     20565     20567     20565     20568
     20569     20570     20571     20575     20571     20572     20571     20573
     20571     20574     20575     20576     20577     20581     20577     20578
     20577     20579     20577     20580     20581     20582     20583     20587
     20583     20584     20583     20585     20583     20586     20587     20588
     20589     20593     20589     20590     20589     20591     20589     20592
     20593     20594     20595     20599     20595     20596     20595     20597
     20595     20598     20599     20600     20601     20605     20601     20602
     20601     20603     20601     20604     20605     20606     20607     20611
     20607     20608     20607     20609     20607     20610     20611     20612
     20613     20617     20613     20614     20613     20615     20613     20616
     20617     20618     20619     20623     20619     20620     20619     20621
     20619     20622     20623     20624     20625     20629     20625     20626
     20625     20627     20625     20628     20629     20630     20631     20635
     20631     20632     20631     20633     20631     20634     20635     20636
     20637     20641     20637     20638     20637     20639     20637     20640
     20641     20642     20643     20647     20643     20644     20643     20645
     20643     20646     20647     20648     20649     20653     20649     20650
     20649     20651     20649     20652     20653     20654     20655     20659
     20655     20656     20655     20657     20655     20658     20659     20660
     20661     20665     20661     20662     20661     20663     20661     20664
     20665     20666     20667     20671     20667     20668     20667     20669
     20667     20670     20671     20672     20673     20677     20673     20674
     20673     20675     20673     20676     20677     20678     20679     20683
     20679     20680     20679     20681     20679     20682     20683     20684
     20685     20689     20685     20686     20685     20687     20685     20688
     20689     20690     20691     20695     20691     20692     20691     20693
     20691     20694     20695     20696     20697     20701     20697     20698
     20697     20699     20697     20700     20701     20702     20703     20707
     20703     20704     20703     20705     20703     20706     20707     20708
     20709     20713     20709     20710     20709     20711     20709     20712
     20713     20714     20715     20719     20715     20716     20715     20717
     20715     20718     20719     20720     20721     20725     20721     20722
     20721     20723     20721     20724     20725     20726     20727     20731
     20727     20728     20727     20729     20727     20730     20731     20732
     20733     20737     20733     20734     20733     20735     20733     20736
     20737     20738     20739     20743     20739     20740     20739     20741
     20739     20742     20743     20744     20745     20749     20745     20746
     20745     20747     20745     20748     20749     20750     20751     20755
     20751     20752     20751     20753     20751     20754     20755     20756
     20757     20761     20757     20758     20757     20759     20757     20760
     20761     20762     20763     20767     20763     20764     20763     20765
     20763     20766     20767     20768     20769     20773     20769     20770
     20769     20771     20769     20772     20773     20774     20775     20779
     20775     20776     20775     20777     20775     20778     20779     20780
     20781     20785     20781     20782     20781     20783     20781     20784
     20785     20786     20787     20791     20787     20788     20787     20789
     20787     20790     20791     20792     20793     20797     20793     20794
     20793     20795     20793     20796     20797     20798     20799     20803
     20799     20800     20799     20801     20799     20802     20803     20804
     20805     20809     20805     20806     20805     20807     20805     20808
     20809     20810     20811     20815     20811     20812     20811     20813
     20811     20814     20815     20816     20817     20821     20817     20818
     20817     20819     20817     20820     20821     20822     20823     20827
     20823     20824     20823     20825     20823     20826     20827     20828
     20829     20833     20829     20830     20829     20831     20829     20832
     20833     20834     20835     20839     20835     20836     20835     20837
     20835     20838     20839     20840     20841     20845     20841     20842
     20841     20843     20841     20844     20845     20846     20847     20851
     20847     20848     20847     20849     20847     20850     20851     20852
     20853     20857     20853     20854     20853     20855     20853     20856
     20857     20858     20859     20863     20859     20860     20859     20861
     20859     20862     20863     20864     20865     20869     20865     20866
     20865     20867     20865     20868     20869     20870     20871     20875
     20871     20872     20871     20873     20871     20874     20875     20876
     20877     20881     20877     20878     20877     20879     20877     20880
     20881     20882     20883     20887     20883     20884     20883     20885
     20883     20886     20887     20888     20889     20893     20889     20890
     20889     20891     20889     20892     20893     20894     20895     20899
     20895     20896     20895     20897     20895     20898     20899     20900
     20901     20905     20901     20902     20901     20903     20901     20904
     20905     20906     20907     20911     20907     20908     20907     20909
     20907     20910     20911     20912     20913     20917     20913     20914
     20913     20915     20913     20916     20917     20918     20919     20923
     20919     20920     20919     20921     20919     20922     20923     20924
     20925     20929     20925     20926     20925     20927     20925     20928
     20929     20930     20931     20935     20931     20932     20931     20933
     20931     20934     20935     20936     20937     20941     20937     20938
     20937     20939     20937     20940     20941     20942     20943     20947
     20943     20944     20943     20945     20943     20946     20947     20948
     20949     20953     20949     20950     20949     20951     20949     20952
     20953     20954     20955     20959     20955     20956     20955     20957
     20955     20958     20959     20960     20961     20965     20961     20962
     20961     20963     20961     20964     20965     20966     20967     20971
     20967     20968     20967     20969     20967     20970     20971     20972
     20973     20977     20973     20974     20973     20975     20973     20976
     20977     20978     20979     20983     20979     20980     20979     20981
     20979     20982     20983     20984     20985     20989     20985     20986
     20985     20987     20985     20988     20989     20990     20991     20995
     20991     20992     20991     20993     20991     20994     20995     20996
     20997     21001     20997     20998     20997     20999     20997     21000
     21001     21002     21003     21007     21003     21004     21003     21005
     21003     21006     21007     21008     21009     21013     21009     21010
     21009     21011     21009     21012     21013     21014     21015     21019
     21015     21016     21015     21017     21015     21018     21019     21020
     21021     21025     21021     21022     21021     21023     21021     21024
     21025     21026     21027     21031     21027     21028     21027     21029
     21027     21030     21031     21032     21033     21037     21033     21034
     21033     21035     21033     21036     21037     21038     21039     21043
     21039     21040     21039     21041     21039     21042     21043     21044
     21045     21049     21045     21046     21045     21047     21045     21048
     21049     21050     21051     21055     21051     21052     21051     21053
     21051     21054     21055     21056     21057     21061     21057     21058
     21057     21059     21057     21060     21061     21062     21063     21067
     21063     21064     21063     21065     21063     21066     21067     21068
     21069     21073     21069     21070     21069     21071     21069     21072
     21073     21074     21075     21079     21075     21076     21075     21077
     21075     21078     21079     21080     21081     21085     21081     21082
     21081     21083     21081     21084     21085     21086     21087     21091
     21087     21088     21087     21089     21087     21090     21091     21092
     21093     21097     21093     21094     21093     21095     21093     21096
     21097     21098     21099     21103     21099     21100     21099     21101
     21099     21102     21103     21104     21105     21109     21105     21106
     21105     21107     21105     21108     21109     21110     21111     21115
     21111     21112     21111     21113     21111     21114     21115     21116
     21117     21121     21117     21118     21117     21119     21117     21120
     21121     21122     21123     21127     21123     21124     21123     21125
     21123     21126     21127     21128     21129     21133     21129     21130
     21129     21131     21129     21132     21133     21134     21135     21139
     21135     21136     21135     21137     21135     21138     21139     21140
     21141     21145     21141     21142     21141     21143     21141     21144
     21145     21146     21147     21151     21147     21148     21147     21149
     21147     21150     21151     21152     21153     21157     21153     21154
     21153     21155     21153     21156     21157     21158     21159     21163
     21159     21160     21159     21161     21159     21162     21163     21164
     21165     21169     21165     21166     21165     21167     21165     21168
     21169     21170     21171     21175     21171     21172     21171     21173
     21171     21174     21175     21176     21177     21181     21177     21178
     21177     21179     21177     21180     21181     21182     21183     21187
     21183     21184     21183     21185     21183     21186     21187     21188
     21189     21193     21189     21190     21189     21191     21189     21192
     21193     21194     21195     21199     21195     21196     21195     21197
     21195     21198     21199     21200     21201     21205     21201     21202
     21201     21203     21201     21204     21205     21206     21207     21211
     21207     21208     21207     21209     21207     21210     21211     21212
     21213     21217     21213     21214     21213     21215     21213     21216
     21217     21218     21219     21223     21219     21220     21219     21221
     21219     21222     21223     21224     21225     21229     21225     21226
     21225     21227     21225     21228     21229     21230     21231     21235
     21231     21232     21231     21233     21231     21234     21235     21236
     21237     21241     21237     21238     21237     21239     21237     21240
     21241     21242     21243     21247     21243     21244     21243     21245
     21243     21246     21247     21248     21249     21253     21249     21250
     21249     21251     21249     21252     21253     21254     21255     21259
     21255     21256     21255     21257     21255     21258     21259     21260
     21261     21265     21261     21262     21261     21263     21261     21264
     21265     21266     21267     21271     21267     21268     21267     21269
     21267     21270     21271     21272     21273     21277     21273     21274
     21273     21275     21273     21276     21277     21278     21279     21283
     21279     21280     21279     21281     21279     21282     21283     21284
     21285     21289     21285     21286     21285     21287     21285     21288
     21289     21290     21291     21295     21291     21292     21291     21293
     21291     21294     21295     21296     21297     21301     21297     21298
     21297     21299     21297     21300     21301     21302     21303     21307
     21303     21304     21303     21305     21303     21306     21307     21308
     21309     21313     21309     21310     21309     21311     21309     21312
     21313     21314     21315     21319     21315     21316     21315     21317
     21315     21318     21319     21320     21321     21325     21321     21322
     21321     21323     21321     21324     21325     21326     21327     21331
     21327     21328     21327     21329     21327     21330     21331     21332
     21333     21337     21333     21334     21333     21335     21333     21336
     21337     21338     21339     21343     21339     21340     21339     21341
     21339     21342     21343     21344     21345     21349     21345     21346
     21345     21347     21345     21348     21349     21350     21351     21355
     21351     21352     21351     21353     21351     21354     21355     21356
     21357     21361     21357     21358     21357     21359     21357     21360
     21361     21362     21363     21367     21363     21364     21363     21365
     21363     21366     21367     21368     21369     21373     21369     21370
     21369     21371     21369     21372     21373     21374     21375     21379
     21375     21376     21375     21377     21375     21378     21379     21380
     21381     21385     21381     21382     21381     21383     21381     21384
     21385     21386     21387     21391     21387     21388     21387     21389
     21387     21390     21391     21392     21393     21397     21393     21394
     21393     21395     21393     21396     21397     21398     21399     21403
     21399     21400     21399     21401     21399     21402     21403     21404
     21405     21409     21405     21406     21405     21407     21405     21408
     21409     21410     21411     21415     21411     21412     21411     21413
     21411     21414     21415     21416     21417     21421     21417     21418
     21417     21419     21417     21420     21421     21422     21423     21427
     21423     21424     21423     21425     21423     21426     21427     21428
     21429     21433     21429     21430     21429     21431     21429     21432
     21433     21434     21435     21439     21435     21436     21435     21437
     21435     21438     21439     21440     21441     21445     21441     21442
     21441     21443     21441     21444     21445     21446     21447     21451
     21447     21448     21447     21449     21447     21450     21451     21452
     21453     21457     21453     21454     21453     21455     21453     21456
     21457     21458     21459     21463     21459     21460     21459     21461
     21459     21462     21463     21464     21465     21469     21465     21466
     21465     21467     21465     21468     21469     21470     21471     21475
     21471     21472     21471     21473     21471     21474     21475     21476
     21477     21481     21477     21478     21477     21479     21477     21480
     21481     21482     21483     21487     21483     21484     21483     21485
     21483     21486     21487     21488     21489     21493     21489     21490
     21489     21491     21489     21492     21493     21494     21495     21499
     21495     21496     21495     21497     21495     21498     21499     21500
     21501     21505     21501     21502     21501     21503     21501     21504
     21505     21506     21507     21511     21507     21508     21507     21509
     21507     21510     21511     21512     21513     21517     21513     21514
     21513     21515     21513     21516     21517     21518     21519     21523
     21519     21520     21519     21521     21519     21522     21523     21524
     21525     21529     21525     21526     21525     21527     21525     21528
     21529     21530     21531     21535     21531     21532     21531     21533
     21531     21534     21535     21536     21537     21541     21537     21538
     21537     21539     21537     21540     21541     21542     21543     21547
     21543     21544     21543     21545     21543     21546     21547     21548
     21549     21553     21549     21550     21549     21551     21549     21552
     21553     21554     21555     21559     21555     21556     21555     21557
     21555     21558     21559     21560     21561     21565     21561     21562
     21561     21563     21561     21564     21565     21566     21567     21571
     21567     21568     21567     21569     21567     21570     21571     21572
     21573     21577     21573     21574     21573     21575     21573     21576
     21577     21578     21579     21583     21579     21580     21579     21581
     21579     21582     21583     21584     21585     21589     21585     21586
     21585     21587     21585     21588     21589     21590     21591     21595
     21591     21592     21591     21593     21591     21594     21595     21596
     21597     21601     21597     21598     21597     21599     21597     21600
     21601     21602     21603     21607     21603     21604     21603     21605
     21603     21606     21607     21608     21609     21613     21609     21610
     21609     21611     21609     21612     21613     21614     21615     21619
     21615     21616     21615     21617     21615     21618     21619     21620
     21621     21625     21621     21622     21621     21623     21621     21624
     21625     21626     21627     21631     21627     21628     21627     21629
     21627     21630     21631     21632     21633     21637     21633     21634
     21633     21635     21633     21636     21637     21638     21639     21643
     21639     21640     21639     21641     21639     21642     21643     21644
     21645     21649     21645     21646     21645     21647     21645     21648
     21649     21650     21651     21655     21651     21652     21651     21653
     21651     21654     21655     21656     21657     21661     21657     21658
     21657     21659     21657     21660     21661     21662     21663     21667
     21663     21664     21663     21665     21663     21666     21667     21668
     21669     21673     21669     21670     21669     21671     21669     21672
     21673     21674     21675     21679     21675     21676     21675     21677
     21675     21678     21679     21680     21681     21685     21681     21682
     21681     21683     21681     21684     21685     21686     21687     21691
     21687     21688     21687     21689     21687     21690     21691     21692
     21693     21697     21693     21694     21693     21695     21693     21696
     21697     21698     21699     21703     21699     21700     21699     21701
     21699     21702     21703     21704     21705     21709     21705     21706
     21705     21707     21705     21708     21709     21710     21711     21715
     21711     21712     21711     21713     21711     21714     21715     21716
     21717     21721     21717     21718     21717     21719     21717     21720
     21721     21722     21723     21727     21723     21724     21723     21725
     21723     21726     21727     21728     21729     21733     21729     21730
     21729     21731     21729     21732     21733     21734     21735     21739
     21735     21736     21735     21737     21735     21738     21739     21740
     21741     21745     21741     21742     21741     21743     21741     21744
     21745     21746     21747     21751     21747     21748     21747     21749
     21747     21750     21751     21752     21753     21757     21753     21754
     21753     21755     21753     21756     21757     21758     21759     21763
     21759     21760     21759     21761     21759     21762     21763     21764
     21765     21769     21765     21766     21765     21767     21765     21768
     21769     21770     21771     21775     21771     21772     21771     21773
     21771     21774     21775     21776     21777     21781     21777     21778
     21777     21779     21777     21780     21781     21782     21783     21787
     21783     21784     21783     21785     21783     21786     21787     21788
     21789     21793     21789     21790     21789     21791     21789     21792
     21793     21794     21795     21799     21795     21796     21795     21797
     21795     21798     21799     21800     21801     21805     21801     21802
     21801     21803     21801     21804     21805     21806     21807     21811
     21807     21808     21807     21809     21807     21810     21811     21812
     21813     21817     21813     21814     21813     21815     21813     21816
     21817     21818     21819     21823     21819     21820     21819     21821
     21819     21822     21823     21824     21825     21829     21825     21826
     21825     21827     21825     21828     21829     21830     21831     21835
     21831     21832     21831     21833     21831     21834     21835     21836
     21837     21841     21837     21838     21837     21839     21837     21840
     21841     21842     21843     21847     21843     21844     21843     21845
     21843     21846     21847     21848     21849     21853     21849     21850
     21849     21851     21849     21852     21853     21854     21855     21859
     21855     21856     21855     21857     21855     21858     21859     21860
     21861     21865     21861     21862     21861     21863     21861     21864
     21865     21866     21867     21871     21867     21868     21867     21869
     21867     21870     21871     21872     21873     21877     21873     21874
     21873     21875     21873     21876     21877     21878     21879     21883
     21879     21880     21879     21881     21879     21882     21883     21884
     21885     21889     21885     21886     21885     21887     21885     21888
     21889     21890     21891     21895     21891     21892     21891     21893
     21891     21894     21895     21896     21897     21901     21897     21898
     21897     21899     21897     21900     21901     21902     21903     21907
     21903     21904     21903     21905     21903     21906     21907     21908
     21909     21913     21909     21910     21909     21911     21909     21912
     21913     21914     21915     21919     21915     21916     21915     21917
     21915     21918     21919     21920     21921     21925     21921     21922
     21921     21923     21921     21924     21925     21926     21927     21931
     21927     21928     21927     21929     21927     21930     21931     21932
     21933     21937     21933     21934     21933     21935     21933     21936
     21937     21938     21939     21943     21939     21940     21939     21941
     21939     21942     21943     21944     21945     21949     21945     21946
     21945     21947     21945     21948     21949     21950     21951     21955
     21951     21952     21951     21953     21951     21954     21955     21956
     21957     21961     21957     21958     21957     21959     21957     21960
     21961     21962     21963     21967     21963     21964     21963     21965
     21963     21966     21967     21968     21969     21973     21969     21970
     21969     21971     21969     21972     21973     21974     21975     21979
     21975     21976     21975     21977     21975     21978     21979     21980
     21981     21985     21981     21982     21981     21983     21981     21984
     21985     21986     21987     21991     21987     21988     21987     21989
     21987     21990     21991     21992     21993     21997     21993     21994
     21993     21995     21993     21996     21997     21998     21999     22003
     21999     22000     21999     22001     21999     22002     22003     22004
     22005     22009     22005     22006     22005     22007     22005     22008
     22009     22010     22011     22015     22011     22012     22011     22013
     22011     22014     22015     22016     22017     22021     22017     22018
     22017     22019     22017     22020     22021     22022     22023     22027
     22023     22024     22023     22025     22023     22026     22027     22028
     22029     22033     22029     22030     22029     22031     22029     22032
     22033     22034     22035     22039     22035     22036     22035     22037
     22035     22038     22039     22040     22041     22045     22041     22042
     22041     22043     22041     22044     22045     22046     22047     22051
     22047     22048     22047     22049     22047     22050     22051     22052
     22053     22057     22053     22054     22053     22055     22053     22056
     22057     22058     22059     22063     22059     22060     22059     22061
     22059     22062     22063     22064     22065     22069     22065     22066
     22065     22067     22065     22068     22069     22070     22071     22075
     22071     22072     22071     22073     22071     22074     22075     22076
     22077     22081     22077     22078     22077     22079     22077     22080
     22081     22082     22083     22087     22083     22084     22083     22085
     22083     22086     22087     22088     22089     22093     22089     22090
     22089     22091     22089     22092     22093     22094     22095     22099
     22095     22096     22095     22097     22095     22098     22099     22100
     22101     22105     22101     22102     22101     22103     22101     22104
     22105     22106     22107     22111     22107     22108     22107     22109
     22107     22110     22111     22112     22113     22117     22113     22114
     22113     22115     22113     22116     22117     22118     22119     22123
     22119     22120     22119     22121     22119     22122     22123     22124
     22125     22129     22125     22126     22125     22127     22125     22128
     22129     22130     22131     22135     22131     22132     22131     22133
     22131     22134     22135     22136     22137     22141     22137     22138
     22137     22139     22137     22140     22141     22142     22143     22147
     22143     22144     22143     22145     22143     22146     22147     22148
     22149     22153     22149     22150     22149     22151     22149     22152
     22153     22154     22155     22159     22155     22156     22155     22157
     22155     22158     22159     22160     22161     22165     22161     22162
     22161     22163     22161     22164     22165     22166     22167     22171
     22167     22168     22167     22169     22167     22170     22171     22172
     22173     22177     22173     22174     22173     22175     22173     22176
     22177     22178     22179     22183     22179     22180     22179     22181
     22179     22182     22183     22184     22185     22189     22185     22186
     22185     22187     22185     22188     22189     22190     22191     22195
     22191     22192     22191     22193     22191     22194     22195     22196
     22197     22201     22197     22198     22197     22199     22197     22200
     22201     22202     22203     22207     22203     22204     22203     22205
     22203     22206     22207     22208     22209     22213     22209     22210
     22209     22211     22209     22212     22213     22214     22215     22219
     22215     22216     22215     22217     22215     22218     22219     22220
     22221     22225     22221     22222     22221     22223     22221     22224
     22225     22226     22227     22231     22227     22228     22227     22229
     22227     22230     22231     22232     22233     22237     22233     22234
     22233     22235     22233     22236     22237     22238     22239     22243
     22239     22240     22239     22241     22239     22242     22243     22244
     22245     22249     22245     22246     22245     22247     22245     22248
     22249     22250     22251     22255     22251     22252     22251     22253
     22251     22254     22255     22256     22257     22261     22257     22258
     22257     22259     22257     22260     22261     22262     22263     22267
     22263     22264     22263     22265     22263     22266     22267     22268
     22269     22273     22269     22270     22269     22271     22269     22272
     22273     22274     22275     22279     22275     22276     22275     22277
     22275     22278     22279     22280     22281     22285     22281     22282
     22281     22283     22281     22284     22285     22286     22287     22291
     22287     22288     22287     22289     22287     22290     22291     22292
     22293     22297     22293     22294     22293     22295     22293     22296
     22297     22298     22299     22303     22299     22300     22299     22301
     22299     22302     22303     22304     22305     22309     22305     22306
     22305     22307     22305     22308     22309     22310     22311     22315
     22311     22312     22311     22313     22311     22314     22315     22316
     22317     22321     22317     22318     22317     22319     22317     22320
     22321     22322     22323     22327     22323     22324     22323     22325
     22323     22326     22327     22328     22329     22333     22329     22330
     22329     22331     22329     22332     22333     22334     22335     22339
     22335     22336     22335     22337     22335     22338     22339     22340
     22341     22345     22341     22342     22341     22343     22341     22344
     22345     22346     22347     22351     22347     22348     22347     22349
     22347     22350     22351     22352     22353     22357     22353     22354
     22353     22355     22353     22356     22357     22358     22359     22363
     22359     22360     22359     22361     22359     22362     22363     22364
     22365     22369     22365     22366     22365     22367     22365     22368
     22369     22370     22371     22375     22371     22372     22371     22373
     22371     22374     22375     22376     22377     22381     22377     22378
     22377     22379     22377     22380     22381     22382     22383     22387
     22383     22384     22383     22385     22383     22386     22387     22388
     22389     22393     22389     22390     22389     22391     22389     22392
     22393     22394     22395     22399     22395     22396     22395     22397
     22395     22398     22399     22400     22401     22405     22401     22402
     22401     22403     22401     22404     22405     22406     22407     22411
     22407     22408     22407     22409     22407     22410     22411     22412
     22413     22417     22413     22414     22413     22415     22413     22416
     22417     22418     22419     22423     22419     22420     22419     22421
     22419     22422     22423     22424     22425     22429     22425     22426
     22425     22427     22425     22428     22429     22430     22431     22435
     22431     22432     22431     22433     22431     22434     22435     22436
     22437     22441     22437     22438     22437     22439     22437     22440
     22441     22442     22443     22447     22443     22444     22443     22445
     22443     22446     22447     22448     22449     22453     22449     22450
     22449     22451     22449     22452     22453     22454     22455     22459
     22455     22456     22455     22457     22455     22458     22459     22460
     22461     22465     22461     22462     22461     22463     22461     22464
     22465     22466     22467     22471     22467     22468     22467     22469
     22467     22470     22471     22472     22473     22477     22473     22474
     22473     22475     22473     22476     22477     22478     22479     22483
     22479     22480     22479     22481     22479     22482     22483     22484
     22485     22489     22485     22486     22485     22487     22485     22488
     22489     22490     22491     22495     22491     22492     22491     22493
     22491     22494     22495     22496     22497     22501     22497     22498
     22497     22499     22497     22500     22501     22502     22503     22507
     22503     22504     22503     22505     22503     22506     22507     22508
     22509     22513     22509     22510     22509     22511     22509     22512
     22513     22514     22515     22519     22515     22516     22515     22517
     22515     22518     22519     22520     22521     22525     22521     22522
     22521     22523     22521     22524     22525     22526     22527     22531
     22527     22528     22527     22529     22527     22530     22531     22532
     22533     22537     22533     22534     22533     22535     22533     22536
     22537     22538     22539     22543     22539     22540     22539     22541
     22539     22542     22543     22544     22545     22549     22545     22546
     22545     22547     22545     22548     22549     22550     22551     22555
     22551     22552     22551     22553     22551     22554     22555     22556
     22557     22561     22557     22558     22557     22559     22557     22560
     22561     22562     22563     22567     22563     22564     22563     22565
     22563     22566     22567     22568     22569     22573     22569     22570
     22569     22571     22569     22572     22573     22574     22575     22579
     22575     22576     22575     22577     22575     22578     22579     22580
     22581     22585     22581     22582     22581     22583     22581     22584
     22585     22586     22587     22591     22587     22588     22587     22589
     22587     22590     22591     22592     22593     22597     22593     22594
     22593     22595     22593     22596     22597     22598     22599     22603
     22599     22600     22599     22601     22599     22602     22603     22604
     22605     22609     22605     22606     22605     22607     22605     22608
     22609     22610     22611     22615     22611     22612     22611     22613
     22611     22614     22615     22616     22617     22621     22617     22618
     22617     22619     22617     22620     22621     22622     22623     22627
     22623     22624     22623     22625     22623     22626     22627     22628
     22629     22633     22629     22630     22629     22631     22629     22632
     22633     22634     22635     22639     22635     22636     22635     22637
     22635     22638     22639     22640     22641     22645     22641     22642
     22641     22643     22641     22644     22645     22646     22647     22651
     22647     22648     22647     22649     22647     22650     22651     22652
     22653     22657     22653     22654     22653     22655     22653     22656
     22657     22658     22659     22663     22659     22660     22659     22661
     22659     22662     22663     22664     22665     22669     22665     22666
     22665     22667     22665     22668     22669     22670     22671     22675
     22671     22672     22671     22673     22671     22674     22675     22676
     22677     22681     22677     22678     22677     22679     22677     22680
     22681     22682     22683     22687     22683     22684     22683     22685
     22683     22686     22687     22688     22689     22693     22689     22690
     22689     22691     22689     22692     22693     22694     22695     22699
     22695     22696     22695     22697     22695     22698     22699     22700
     22701     22705     22701     22702     22701     22703     22701     22704
     22705     22706     22707     22711     22707     22708     22707     22709
     22707     22710     22711     22712     22713     22717     22713     22714
     22713     22715     22713     22716     22717     22718     22719     22723
     22719     22720     22719     22721     22719     22722     22723     22724
     22725     22729     22725     22726     22725     22727     22725     22728
     22729     22730     22731     22735     22731     22732     22731     22733
     22731     22734     22735     22736     22737     22741     22737     22738
     22737     22739     22737     22740     22741     22742     22743     22747
     22743     22744     22743     22745     22743     22746     22747     22748
     22749     22753     22749     22750     22749     22751     22749     22752
     22753     22754     22755     22759     22755     22756     22755     22757
     22755     22758     22759     22760     22761     22765     22761     22762
     22761     22763     22761     22764     22765     22766     22767     22771
     22767     22768     22767     22769     22767     22770     22771     22772
     22773     22777     22773     22774     22773     22775     22773     22776
     22777     22778     22779     22783     22779     22780     22779     22781
     22779     22782     22783     22784     22785     22789     22785     22786
     22785     22787     22785     22788     22789     22790     22791     22795
     22791     22792     22791     22793     22791     22794     22795     22796
     22797     22801     22797     22798     22797     22799     22797     22800
     22801     22802     22803     22807     22803     22804     22803     22805
     22803     22806     22807     22808     22809     22813     22809     22810
     22809     22811     22809     22812     22813     22814     22815     22819
     22815     22816     22815     22817     22815     22818     22819     22820
     22821     22825     22821     22822     22821     22823     22821     22824
     22825     22826     22827     22831     22827     22828     22827     22829
     22827     22830     22831     22832     22833     22837     22833     22834
     22833     22835     22833     22836     22837     22838     22839     22843
     22839     22840     22839     22841     22839     22842     22843     22844
     22845     22849     22845     22846     22845     22847     22845     22848
     22849     22850     22851     22855     22851     22852     22851     22853
     22851     22854     22855     22856     22857     22861     22857     22858
     22857     22859     22857     22860     22861     22862     22863     22867
     22863     22864     22863     22865     22863     22866     22867     22868
     22869     22873     22869     22870     22869     22871     22869     22872
     22873     22874     22875     22879     22875     22876     22875     22877
     22875     22878     22879     22880     22881     22885     22881     22882
     22881     22883     22881     22884     22885     22886     22887     22891
     22887     22888     22887     22889     22887     22890     22891     22892
     22893     22897     22893     22894     22893     22895     22893     22896
     22897     22898     22899     22903     22899     22900     22899     22901
     22899     22902     22903     22904     22905     22909     22905     22906
     22905     22907     22905     22908     22909     22910     22911     22915
     22911     22912     22911     22913     22911     22914     22915     22916
     22917     22921     22917     22918     22917     22919     22917     22920
     22921     22922     22923     22927     22923     22924     22923     22925
     22923     22926     22927     22928     22929     22933     22929     22930
     22929     22931     22929     22932     22933     22934     22935     22939
     22935     22936     22935     22937     22935     22938     22939     22940
     22941     22945     22941     22942     22941     22943     22941     22944
     22945     22946     22947     22951     22947     22948     22947     22949
     22947     22950     22951     22952     22953     22957     22953     22954
     22953     22955     22953     22956     22957     22958     22959     22963
     22959     22960     22959     22961     22959     22962     22963     22964
     22965     22969     22965     22966     22965     22967     22965     22968
     22969     22970     22971     22975     22971     22972     22971     22973
     22971     22974     22975     22976     22977     22981     22977     22978
     22977     22979     22977     22980     22981     22982     22983     22987
     22983     22984     22983     22985     22983     22986     22987     22988
     22989     22993     22989     22990     22989     22991     22989     22992
     22993     22994     22995     22999     22995     22996     22995     22997
     22995     22998     22999     23000     23001     23005     23001     23002
     23001     23003     23001     23004     23005     23006     23007     23011
     23007     23008     23007     23009     23007     23010     23011     23012
     23013     23017     23013     23014     23013     23015     23013     23016
     23017     23018     23019     23023     23019     23020     23019     23021
     23019     23022     23023     23024     23025     23029     23025     23026
     23025     23027     23025     23028     23029     23030     23031     23035
     23031     23032     23031     23033     23031     23034     23035     23036
     23037     23041     23037     23038     23037     23039     23037     23040
     23041     23042     23043     23047     23043     23044     23043     23045
     23043     23046     23047     23048     23049     23053     23049     23050
     23049     23051     23049     23052     23053     23054     23055     23059
     23055     23056     23055     23057     23055     23058     23059     23060
     23061     23065     23061     23062     23061     23063     23061     23064
     23065     23066     23067     23071     23067     23068     23067     23069
     23067     23070     23071     23072     23073     23077     23073     23074
     23073     23075     23073     23076     23077     23078     23079     23083
     23079     23080     23079     23081     23079     23082     23083     23084
     23085     23089     23085     23086     23085     23087     23085     23088
     23089     23090     23091     23095     23091     23092     23091     23093
     23091     23094     23095     23096     23097     23101     23097     23098
     23097     23099     23097     23100     23101     23102     23103     23107
     23103     23104     23103     23105     23103     23106     23107     23108
     23109     23113     23109     23110     23109     23111     23109     23112
     23113     23114     23115     23119     23115     23116     23115     23117
     23115     23118     23119     23120     23121     23125     23121     23122
     23121     23123     23121     23124     23125     23126     23127     23131
     23127     23128     23127     23129     23127     23130     23131     23132
     23133     23137     23133     23134     23133     23135     23133     23136
     23137     23138     23139     23143     23139     23140     23139     23141
     23139     23142     23143     23144     23145     23149     23145     23146
     23145     23147     23145     23148     23149     23150     23151     23155
     23151     23152     23151     23153     23151     23154     23155     23156
     23157     23161     23157     23158     23157     23159     23157     23160
     23161     23162     23163     23167     23163     23164     23163     23165
     23163     23166     23167     23168     23169     23173     23169     23170
     23169     23171     23169     23172     23173     23174     23175     23179
     23175     23176     23175     23177     23175     23178     23179     23180
     23181     23185     23181     23182     23181     23183     23181     23184
     23185     23186     23187     23191     23187     23188     23187     23189
     23187     23190     23191     23192     23193     23197     23193     23194
     23193     23195     23193     23196     23197     23198     23199     23203
     23199     23200     23199     23201     23199     23202     23203     23204
     23205     23209     23205     23206     23205     23207     23205     23208
     23209     23210     23211     23215     23211     23212     23211     23213
     23211     23214     23215     23216     23217     23221     23217     23218
     23217     23219     23217     23220     23221     23222     23223     23227
     23223     23224     23223     23225     23223     23226     23227     23228
     23229     23233     23229     23230     23229     23231     23229     23232
     23233     23234     23235     23239     23235     23236     23235     23237
     23235     23238     23239     23240     23241     23245     23241     23242
     23241     23243     23241     23244     23245     23246     23247     23251
     23247     23248     23247     23249     23247     23250     23251     23252
     23253     23257     23253     23254     23253     23255     23253     23256
     23257     23258     23259     23263     23259     23260     23259     23261
     23259     23262     23263     23264     23265     23269     23265     23266
     23265     23267     23265     23268     23269     23270     23271     23275
     23271     23272     23271     23273     23271     23274     23275     23276
     23277     23281     23277     23278     23277     23279     23277     23280
     23281     23282     23283     23287     23283     23284     23283     23285
     23283     23286     23287     23288     23289     23293     23289     23290
     23289     23291     23289     23292     23293     23294     23295     23299
     23295     23296     23295     23297     23295     23298     23299     23300
     23301     23305     23301     23302     23301     23303     23301     23304
     23305     23306     23307     23311     23307     23308     23307     23309
     23307     23310     23311     23312     23313     23317     23313     23314
     23313     23315     23313     23316     23317     23318     23319     23323
     23319     23320     23319     23321     23319     23322     23323     23324
     23325     23329     23325     23326     23325     23327     23325     23328
     23329     23330     23331     23335     23331     23332     23331     23333
     23331     23334     23335     23336     23337     23341     23337     23338
     23337     23339     23337     23340     23341     23342     23343     23347
     23343     23344     23343     23345     23343     23346     23347     23348
     23349     23353     23349     23350     23349     23351     23349     23352
     23353     23354     23355     23359     23355     23356     23355     23357
     23355     23358     23359     23360     23361     23365     23361     23362
     23361     23363     23361     23364     23365     23366     23367     23371
     23367     23368     23367     23369     23367     23370     23371     23372
     23373     23377     23373     23374     23373     23375     23373     23376
     23377     23378     23379     23383     23379     23380     23379     23381
     23379     23382     23383     23384     23385     23389     23385     23386
     23385     23387     23385     23388     23389     23390     23391     23395
     23391     23392     23391     23393     23391     23394     23395     23396
     23397     23401     23397     23398     23397     23399     23397     23400
     23401     23402     23403     23407     23403     23404     23403     23405
     23403     23406     23407     23408     23409     23413     23409     23410
     23409     23411     23409     23412     23413     23414     23415     23419
     23415     23416     23415     23417     23415     23418     23419     23420
     23421     23425     23421     23422     23421     23423     23421     23424
     23425     23426     23427     23431     23427     23428     23427     23429
     23427     23430     23431     23432     23433     23437     23433     23434
     23433     23435     23433     23436     23437     23438     23439     23443
     23439     23440     23439     23441     23439     23442     23443     23444
     23445     23449     23445     23446     23445     23447     23445     23448
     23449     23450     23451     23455     23451     23452     23451     23453
     23451     23454     23455     23456     23457     23461     23457     23458
     23457     23459     23457     23460     23461     23462     23463     23467
     23463     23464     23463     23465     23463     23466     23467     23468
     23469     23473     23469     23470     23469     23471     23469     23472
     23473     23474     23475     23479     23475     23476     23475     23477
     23475     23478     23479     23480     23481     23485     23481     23482
     23481     23483     23481     23484     23485     23486     23487     23491
     23487     23488     23487     23489     23487     23490     23491     23492
     23493     23497     23493     23494     23493     23495     23493     23496
     23497     23498     23499     23503     23499     23500     23499     23501
     23499     23502     23503     23504     23505     23509     23505     23506
     23505     23507     23505     23508     23509     23510     23511     23515
     23511     23512     23511     23513     23511     23514     23515     23516
     23517     23521     23517     23518     23517     23519     23517     23520
     23521     23522     23523     23527     23523     23524     23523     23525
     23523     23526     23527     23528     23529     23533     23529     23530
     23529     23531     23529     23532     23533     23534     23535     23539
     23535     23536     23535     23537     23535     23538     23539     23540
     23541     23545     23541     23542     23541     23543     23541     23544
     23545     23546     23547     23551     23547     23548     23547     23549
     23547     23550     23551     23552     23553     23557     23553     23554
     23553     23555     23553     23556     23557     23558     23559     23563
     23559     23560     23559     23561     23559     23562     23563     23564
     23565     23569     23565     23566     23565     23567     23565     23568
     23569     23570     23571     23575     23571     23572     23571     23573
     23571     23574     23575     23576     23577     23581     23577     23578
     23577     23579     23577     23580     23581     23582     23583     23587
     23583     23584     23583     23585     23583     23586     23587     23588
     23589     23593     23589     23590     23589     23591     23589     23592
     23593     23594     23595     23599     23595     23596     23595     23597
     23595     23598     23599     23600     23601     23605     23601     23602
     23601     23603     23601     23604     23605     23606     23607     23611
     23607     23608     23607     23609     23607     23610     23611     23612
     23613     23617     23613     23614     23613     23615     23613     23616
     23617     23618     23619     23623     23619     23620     23619     23621
     23619     23622     23623     23624     23625     23629     23625     23626
     23625     23627     23625     23628     23629     23630     23631     23635
     23631     23632     23631     23633     23631     23634     23635     23636
     23637     23641     23637     23638     23637     23639     23637     23640
     23641     23642     23643     23647     23643     23644     23643     23645
     23643     23646     23647     23648     23649     23653     23649     23650
     23649     23651     23649     23652     23653     23654     23655     23659
     23655     23656     23655     23657     23655     23658     23659     23660
     23661     23665     23661     23662     23661     23663     23661     23664
     23665     23666     23667     23671     23667     23668     23667     23669
     23667     23670     23671     23672     23673     23677     23673     23674
     23673     23675     23673     23676     23677     23678     23679     23683
     23679     23680     23679     23681     23679     23682     23683     23684
     23685     23689     23685     23686     23685     23687     23685     23688
     23689     23690     23691     23695     23691     23692     23691     23693
     23691     23694     23695     23696     23697     23701     23697     23698
     23697     23699     23697     23700     23701     23702     23703     23707
     23703     23704     23703     23705     23703     23706     23707     23708
     23709     23713     23709     23710     23709     23711     23709     23712
     23713     23714     23715     23719     23715     23716     23715     23717
     23715     23718     23719     23720     23721     23725     23721     23722
     23721     23723     23721     23724     23725     23726     23727     23731
     23727     23728     23727     23729     23727     23730     23731     23732
     23733     23737     23733     23734     23733     23735     23733     23736
     23737     23738     23739     23743     23739     23740     23739     23741
     23739     23742     23743     23744     23745     23749     23745     23746
     23745     23747     23745     23748     23749     23750     23751     23755
     23751     23752     23751     23753     23751     23754     23755     23756
     23757     23761     23757     23758     23757     23759     23757     23760
     23761     23762     23763     23767     23763     23764     23763     23765
     23763     23766     23767     23768     23769     23773     23769     23770
     23769     23771     23769     23772     23773     23774     23775     23779
     23775     23776     23775     23777     23775     23778     23779     23780
     23781     23785     23781     23782     23781     23783     23781     23784
     23785     23786     23787     23791     23787     23788     23787     23789
     23787     23790     23791     23792     23793     23797     23793     23794
     23793     23795     23793     23796     23797     23798     23799     23803
     23799     23800     23799     23801     23799     23802     23803     23804
     23805     23809     23805     23806     23805     23807     23805     23808
     23809     23810     23811     23815     23811     23812     23811     23813
     23811     23814     23815     23816     23817     23821     23817     23818
     23817     23819     23817     23820     23821     23822     23823     23827
     23823     23824     23823     23825     23823     23826     23827     23828
     23829     23833     23829     23830     23829     23831     23829     23832
     23833     23834     23835     23839     23835     23836     23835     23837
     23835     23838     23839     23840     23841     23845     23841     23842
     23841     23843     23841     23844     23845     23846     23847     23851
     23847     23848     23847     23849     23847     23850     23851     23852
     23853     23857     23853     23854     23853     23855     23853     23856
     23857     23858     23859     23863     23859     23860     23859     23861
     23859     23862     23863     23864     23865     23869     23865     23866
     23865     23867     23865     23868     23869     23870     23871     23875
     23871     23872     23871     23873     23871     23874     23875     23876
     23877     23881     23877     23878     23877     23879     23877     23880
     23881     23882     23883     23887     23883     23884     23883     23885
     23883     23886     23887     23888     23889     23893     23889     23890
     23889     23891     23889     23892     23893     23894     23895     23899
     23895     23896     23895     23897     23895     23898     23899     23900
     23901     23905     23901     23902     23901     23903     23901     23904
     23905     23906     23907     23911     23907     23908     23907     23909
     23907     23910     23911     23912     23913     23917     23913     23914
     23913     23915     23913     23916     23917     23918     23919     23923
     23919     23920     23919     23921     23919     23922     23923     23924
     23925     23929     23925     23926     23925     23927     23925     23928
     23929     23930     23931     23935     23931     23932     23931     23933
     23931     23934     23935     23936     23937     23941     23937     23938
     23937     23939     23937     23940     23941     23942     23943     23947
     23943     23944     23943     23945     23943     23946     23947     23948
     23949     23953     23949     23950     23949     23951     23949     23952
     23953     23954     23955     23959     23955     23956     23955     23957
     23955     23958     23959     23960     23961     23965     23961     23962
     23961     23963     23961     23964     23965     23966     23967     23971
     23967     23968     23967     23969     23967     23970     23971     23972
     23973     23977     23973     23974     23973     23975     23973     23976
     23977     23978     23979     23983     23979     23980     23979     23981
     23979     23982     23983     23984     23985     23989     23985     23986
     23985     23987     23985     23988     23989     23990     23991     23995
     23991     23992     23991     23993     23991     23994     23995     23996
     23997     24001     23997     23998     23997     23999     23997     24000
     24001     24002     24003     24007     24003     24004     24003     24005
     24003     24006     24007     24008     24009     24013     24009     24010
     24009     24011     24009     24012     24013     24014     24015     24019
     24015     24016     24015     24017     24015     24018     24019     24020
     24021     24025     24021     24022     24021     24023     24021     24024
     24025     24026     24027     24031     24027     24028     24027     24029
     24027     24030     24031     24032     24033     24037     24033     24034
     24033     24035     24033     24036     24037     24038     24039     24043
     24039     24040     24039     24041     24039     24042     24043     24044
     24045     24049     24045     24046     24045     24047     24045     24048
     24049     24050     24051     24055     24051     24052     24051     24053
     24051     24054     24055     24056     24057     24061     24057     24058
     24057     24059     24057     24060     24061     24062     24063     24067
     24063     24064     24063     24065     24063     24066     24067     24068
     24069     24073     24069     24070     24069     24071     24069     24072
     24073     24074     24075     24079     24075     24076     24075     24077
     24075     24078     24079     24080     24081     24085     24081     24082
     24081     24083     24081     24084     24085     24086     24087     24091
     24087     24088     24087     24089     24087     24090     24091     24092
     24093     24097     24093     24094     24093     24095     24093     24096
     24097     24098     24099     24103     24099     24100     24099     24101
     24099     24102     24103     24104     24105     24109     24105     24106
     24105     24107     24105     24108     24109     24110     24111     24115
     24111     24112     24111     24113     24111     24114     24115     24116
     24117     24121     24117     24118     24117     24119     24117     24120
     24121     24122     24123     24127     24123     24124     24123     24125
     24123     24126     24127     24128     24129     24133     24129     24130
     24129     24131     24129     24132     24133     24134     24135     24139
     24135     24136     24135     24137     24135     24138     24139     24140
     24141     24145     24141     24142     24141     24143     24141     24144
     24145     24146     24147     24151     24147     24148     24147     24149
     24147     24150     24151     24152     24153     24157     24153     24154
     24153     24155     24153     24156     24157     24158     24159     24163
     24159     24160     24159     24161     24159     24162     24163     24164
     24165     24169     24165     24166     24165     24167     24165     24168
     24169     24170     24171     24175     24171     24172     24171     24173
     24171     24174     24175     24176     24177     24181     24177     24178
     24177     24179     24177     24180     24181     24182     24183     24187
     24183     24184     24183     24185     24183     24186     24187     24188
     24189     24193     24189     24190     24189     24191     24189     24192
     24193     24194     24195     24199     24195     24196     24195     24197
     24195     24198     24199     24200     24201     24205     24201     24202
     24201     24203     24201     24204     24205     24206     24207     24211
     24207     24208     24207     24209     24207     24210     24211     24212
     24213     24217     24213     24214     24213     24215     24213     24216
     24217     24218     24219     24223     24219     24220     24219     24221
     24219     24222     24223     24224     24225     24229     24225     24226
     24225     24227     24225     24228     24229     24230     24231     24235
     24231     24232     24231     24233     24231     24234     24235     24236
     24237     24241     24237     24238     24237     24239     24237     24240
     24241     24242     24243     24247     24243     24244     24243     24245
     24243     24246     24247     24248     24249     24253     24249     24250
     24249     24251     24249     24252     24253     24254     24255     24259
     24255     24256     24255     24257     24255     24258     24259     24260
     24261     24265     24261     24262     24261     24263     24261     24264
     24265     24266     24267     24271     24267     24268     24267     24269
     24267     24270     24271     24272     24273     24277     24273     24274
     24273     24275     24273     24276     24277     24278     24279     24283
     24279     24280     24279     24281     24279     24282     24283     24284
     24285     24289     24285     24286     24285     24287     24285     24288
     24289     24290     24291     24295     24291     24292     24291     24293
     24291     24294     24295     24296     24297     24301     24297     24298
     24297     24299     24297     24300     24301     24302     24303     24307
     24303     24304     24303     24305     24303     24306     24307     24308
     24309     24313     24309     24310     24309     24311     24309     24312
     24313     24314     24315     24319     24315     24316     24315     24317
     24315     24318     24319     24320     24321     24325     24321     24322
     24321     24323     24321     24324     24325     24326     24327     24331
     24327     24328     24327     24329     24327     24330     24331     24332
     24333     24337     24333     24334     24333     24335     24333     24336
     24337     24338     24339     24343     24339     24340     24339     24341
     24339     24342     24343     24344     24345     24349     24345     24346
     24345     24347     24345     24348     24349     24350     24351     24355
     24351     24352     24351     24353     24351     24354     24355     24356
     24357     24361     24357     24358     24357     24359     24357     24360
     24361     24362     24363     24367     24363     24364     24363     24365
     24363     24366     24367     24368     24369     24373     24369     24370
     24369     24371     24369     24372     24373     24374     24375     24379
     24375     24376     24375     24377     24375     24378     24379     24380
     24381     24385     24381     24382     24381     24383     24381     24384
     24385     24386     24387     24391     24387     24388     24387     24389
     24387     24390     24391     24392     24393     24397     24393     24394
     24393     24395     24393     24396     24397     24398     24399     24403
     24399     24400     24399     24401     24399     24402     24403     24404
     24405     24409     24405     24406     24405     24407     24405     24408
     24409     24410     24411     24415     24411     24412     24411     24413
     24411     24414     24415     24416     24417     24421     24417     24418
     24417     24419     24417     24420     24421     24422     24423     24427
     24423     24424     24423     24425     24423     24426     24427     24428
     24429     24433     24429     24430     24429     24431     24429     24432
     24433     24434     24435     24439     24435     24436     24435     24437
     24435     24438     24439     24440     24441     24445     24441     24442
     24441     24443     24441     24444     24445     24446     24447     24451
     24447     24448     24447     24449     24447     24450     24451     24452
     24453     24457     24453     24454     24453     24455     24453     24456
     24457     24458     24459     24463     24459     24460     24459     24461
     24459     24462     24463     24464     24465     24469     24465     24466
     24465     24467     24465     24468     24469     24470     24471     24475
     24471     24472     24471     24473     24471     24474     24475     24476
     24477     24481     24477     24478     24477     24479     24477     24480
     24481     24482     24483     24487     24483     24484     24483     24485
     24483     24486     24487     24488     24489     24493     24489     24490
     24489     24491     24489     24492     24493     24494     24495     24499
     24495     24496     24495     24497     24495     24498     24499     24500
     24501     24505     24501     24502     24501     24503     24501     24504
     24505     24506     24507     24511     24507     24508     24507     24509
     24507     24510     24511     24512     24513     24517     24513     24514
     24513     24515     24513     24516     24517     24518     24519     24523
     24519     24520     24519     24521     24519     24522     24523     24524
     24525     24529     24525     24526     24525     24527     24525     24528
     24529     24530     24531     24535     24531     24532     24531     24533
     24531     24534     24535     24536     24537     24541     24537     24538
     24537     24539     24537     24540     24541     24542     24543     24547
     24543     24544     24543     24545     24543     24546     24547     24548
     24549     24553     24549     24550     24549     24551     24549     24552
     24553     24554     24555     24559     24555     24556     24555     24557
     24555     24558     24559     24560     24561     24565     24561     24562
     24561     24563     24561     24564     24565     24566     24567     24571
     24567     24568     24567     24569     24567     24570     24571     24572
     24573     24577     24573     24574     24573     24575     24573     24576
     24577     24578     24579     24583     24579     24580     24579     24581
     24579     24582     24583     24584     24585     24589     24585     24586
     24585     24587     24585     24588     24589     24590     24591     24595
     24591     24592     24591     24593     24591     24594     24595     24596
     24597     24601     24597     24598     24597     24599     24597     24600
     24601     24602     24603     24607     24603     24604     24603     24605
     24603     24606     24607     24608     24609     24613     24609     24610
     24609     24611     24609     24612     24613     24614     24615     24619
     24615     24616     24615     24617     24615     24618     24619     24620
     24621     24625     24621     24622     24621     24623     24621     24624
     24625     24626     24627     24631     24627     24628     24627     24629
     24627     24630     24631     24632     24633     24637     24633     24634
     24633     24635     24633     24636     24637     24638     24639     24643
     24639     24640     24639     24641     24639     24642     24643     24644
     24645     24649     24645     24646     24645     24647     24645     24648
     24649     24650     24651     24655     24651     24652     24651     24653
     24651     24654     24655     24656     24657     24661     24657     24658
     24657     24659     24657     24660     24661     24662     24663     24667
     24663     24664     24663     24665     24663     24666     24667     24668
     24669     24673     24669     24670     24669     24671     24669     24672
     24673     24674     24675     24679     24675     24676     24675     24677
     24675     24678     24679     24680     24681     24685     24681     24682
     24681     24683     24681     24684     24685     24686     24687     24691
     24687     24688     24687     24689     24687     24690     24691     24692
     24693     24697     24693     24694     24693     24695     24693     24696
     24697     24698     24699     24703     24699     24700     24699     24701
     24699     24702     24703     24704     24705     24709     24705     24706
     24705     24707     24705     24708     24709     24710     24711     24715
     24711     24712     24711     24713     24711     24714     24715     24716
     24717     24721     24717     24718     24717     24719     24717     24720
     24721     24722     24723     24727     24723     24724     24723     24725
     24723     24726     24727     24728     24729     24733     24729     24730
     24729     24731     24729     24732     24733     24734     24735     24739
     24735     24736     24735     24737     24735     24738     24739     24740
     24741     24745     24741     24742     24741     24743     24741     24744
     24745     24746     24747     24751     24747     24748     24747     24749
     24747     24750     24751     24752     24753     24757     24753     24754
     24753     24755     24753     24756     24757     24758     24759     24763
     24759     24760     24759     24761     24759     24762     24763     24764
     24765     24769     24765     24766     24765     24767     24765     24768
     24769     24770     24771     24775     24771     24772     24771     24773
     24771     24774     24775     24776     24777     24781     24777     24778
     24777     24779     24777     24780     24781     24782     24783     24787
     24783     24784     24783     24785     24783     24786     24787     24788
     24789     24793     24789     24790     24789     24791     24789     24792
     24793     24794     24795     24799     24795     24796     24795     24797
     24795     24798     24799     24800     24801     24805     24801     24802
     24801     24803     24801     24804     24805     24806     24807     24811
     24807     24808     24807     24809     24807     24810     24811     24812
     24813     24817     24813     24814     24813     24815     24813     24816
     24817     24818     24819     24823     24819     24820     24819     24821
     24819     24822     24823     24824     24825     24829     24825     24826
     24825     24827     24825     24828     24829     24830     24831     24835
     24831     24832     24831     24833     24831     24834     24835     24836
     24837     24841     24837     24838     24837     24839     24837     24840
     24841     24842     24843     24847     24843     24844     24843     24845
     24843     24846     24847     24848     24849     24853     24849     24850
     24849     24851     24849     24852     24853     24854     24855     24859
     24855     24856     24855     24857     24855     24858     24859     24860
     24861     24865     24861     24862     24861     24863     24861     24864
     24865     24866     24867     24871     24867     24868     24867     24869
     24867     24870     24871     24872     24873     24877     24873     24874
     24873     24875     24873     24876     24877     24878     24879     24883
     24879     24880     24879     24881     24879     24882     24883     24884
     24885     24889     24885     24886     24885     24887     24885     24888
     24889     24890     24891     24895     24891     24892     24891     24893
     24891     24894     24895     24896     24897     24901     24897     24898
     24897     24899     24897     24900     24901     24902     24903     24907
     24903     24904     24903     24905     24903     24906     24907     24908
     24909     24913     24909     24910     24909     24911     24909     24912
     24913     24914     24915     24919     24915     24916     24915     24917
     24915     24918     24919     24920     24921     24925     24921     24922
     24921     24923     24921     24924     24925     24926     24927     24931
     24927     24928     24927     24929     24927     24930     24931     24932
     24933     24937     24933     24934     24933     24935     24933     24936
     24937     24938     24939     24943     24939     24940     24939     24941
     24939     24942     24943     24944     24945     24949     24945     24946
     24945     24947     24945     24948     24949     24950     24951     24955
     24951     24952     24951     24953     24951     24954     24955     24956
     24957     24961     24957     24958     24957     24959     24957     24960
     24961     24962     24963     24967     24963     24964     24963     24965
     24963     24966     24967     24968     24969     24973     24969     24970
     24969     24971     24969     24972     24973     24974     24975     24979
     24975     24976     24975     24977     24975     24978     24979     24980
     24981     24985     24981     24982     24981     24983     24981     24984
     24985     24986     24987     24991     24987     24988     24987     24989
     24987     24990     24991     24992     24993     24997     24993     24994
     24993     24995     24993     24996     24997     24998     24999     25003
     24999     25000     24999     25001     24999     25002     25003     25004
     25005     25009     25005     25006     25005     25007     25005     25008
     25009     25010     25011     25015     25011     25012     25011     25013
     25011     25014     25015     25016     25017     25021     25017     25018
     25017     25019     25017     25020     25021     25022     25023     25027
     25023     25024     25023     25025     25023     25026     25027     25028
     25029     25033     25029     25030     25029     25031     25029     25032
     25033     25034     25035     25039     25035     25036     25035     25037
     25035     25038     25039     25040     25041     25045     25041     25042
     25041     25043     25041     25044     25045     25046     25047     25051
     25047     25048     25047     25049     25047     25050     25051     25052
     25053     25057     25053     25054     25053     25055     25053     25056
     25057     25058     25059     25063     25059     25060     25059     25061
     25059     25062     25063     25064     25065     25069     25065     25066
     25065     25067     25065     25068     25069     25070     25071     25075
     25071     25072     25071     25073     25071     25074     25075     25076
     25077     25081     25077     25078     25077     25079     25077     25080
     25081     25082     25083     25087     25083     25084     25083     25085
     25083     25086     25087     25088     25089     25093     25089     25090
     25089     25091     25089     25092     25093     25094     25095     25099
     25095     25096     25095     25097     25095     25098     25099     25100
     25101     25105     25101     25102     25101     25103     25101     25104
     25105     25106     25107     25111     25107     25108     25107     25109
     25107     25110     25111     25112     25113     25117     25113     25114
     25113     25115     25113     25116     25117     25118     25119     25123
     25119     25120     25119     25121     25119     25122     25123     25124
     25125     25129     25125     25126     25125     25127     25125     25128
     25129     25130     25131     25135     25131     25132     25131     25133
     25131     25134     25135     25136     25137     25141     25137     25138
     25137     25139     25137     25140     25141     25142     25143     25147
     25143     25144     25143     25145     25143     25146     25147     25148
     25149     25153     25149     25150     25149     25151     25149     25152
     25153     25154     25155     25159     25155     25156     25155     25157
     25155     25158     25159     25160     25161     25165     25161     25162
     25161     25163     25161     25164     25165     25166     25167     25171
     25167     25168     25167     25169     25167     25170     25171     25172
     25173     25177     25173     25174     25173     25175     25173     25176
     25177     25178     25179     25183     25179     25180     25179     25181
     25179     25182     25183     25184     25185     25189     25185     25186
     25185     25187     25185     25188     25189     25190     25191     25195
     25191     25192     25191     25193     25191     25194     25195     25196
     25197     25201     25197     25198     25197     25199     25197     25200
     25201     25202     25203     25207     25203     25204     25203     25205
     25203     25206     25207     25208     25209     25213     25209     25210
     25209     25211     25209     25212     25213     25214     25215     25219
     25215     25216     25215     25217     25215     25218     25219     25220
     25221     25225     25221     25222     25221     25223     25221     25224
     25225     25226     25227     25231     25227     25228     25227     25229
     25227     25230     25231     25232     25233     25237     25233     25234
     25233     25235     25233     25236     25237     25238     25239     25243
     25239     25240     25239     25241     25239     25242     25243     25244
     25245     25249     25245     25246     25245     25247     25245     25248
     25249     25250     25251     25255     25251     25252     25251     25253
     25251     25254     25255     25256     25257     25261     25257     25258
     25257     25259     25257     25260     25261     25262     25263     25267
     25263     25264     25263     25265     25263     25266     25267     25268
     25269     25273     25269     25270     25269     25271     25269     25272
     25273     25274     25275     25279     25275     25276     25275     25277
     25275     25278     25279     25280     25281     25285     25281     25282
     25281     25283     25281     25284     25285     25286     25287     25291
     25287     25288     25287     25289     25287     25290     25291     25292
     25293     25297     25293     25294     25293     25295     25293     25296
     25297     25298     25299     25303     25299     25300     25299     25301
     25299     25302     25303     25304     25305     25309     25305     25306
     25305     25307     25305     25308     25309     25310     25311     25315
     25311     25312     25311     25313     25311     25314     25315     25316
     25317     25321     25317     25318     25317     25319     25317     25320
     25321     25322     25323     25327     25323     25324     25323     25325
     25323     25326     25327     25328     25329     25333     25329     25330
     25329     25331     25329     25332     25333     25334     25335     25339
     25335     25336     25335     25337     25335     25338     25339     25340
     25341     25345     25341     25342     25341     25343     25341     25344
     25345     25346     25347     25351     25347     25348     25347     25349
     25347     25350     25351     25352     25353     25357     25353     25354
     25353     25355     25353     25356     25357     25358     25359     25363
     25359     25360     25359     25361     25359     25362     25363     25364
     25365     25369     25365     25366     25365     25367     25365     25368
     25369     25370     25371     25375     25371     25372     25371     25373
     25371     25374     25375     25376     25377     25381     25377     25378
     25377     25379     25377     25380     25381     25382     25383     25387
     25383     25384     25383     25385     25383     25386     25387     25388
     25389     25393     25389     25390     25389     25391     25389     25392
     25393     25394     25395     25399     25395     25396     25395     25397
     25395     25398     25399     25400     25401     25405     25401     25402
     25401     25403     25401     25404     25405     25406     25407     25411
     25407     25408     25407     25409     25407     25410     25411     25412
     25413     25417     25413     25414     25413     25415     25413     25416
     25417     25418     25419     25423     25419     25420     25419     25421
     25419     25422     25423     25424     25425     25429     25425     25426
     25425     25427     25425     25428     25429     25430     25431     25435
     25431     25432     25431     25433     25431     25434     25435     25436
     25437     25441     25437     25438     25437     25439     25437     25440
     25441     25442     25443     25447     25443     25444     25443     25445
     25443     25446     25447     25448     25449     25453     25449     25450
     25449     25451     25449     25452     25453     25454     25455     25459
     25455     25456     25455     25457     25455     25458     25459     25460
     25461     25465     25461     25462     25461     25463     25461     25464
     25465     25466     25467     25471     25467     25468     25467     25469
     25467     25470     25471     25472     25473     25477     25473     25474
     25473     25475     25473     25476     25477     25478     25479     25483
     25479     25480     25479     25481     25479     25482     25483     25484
     25485     25489     25485     25486     25485     25487     25485     25488
     25489     25490     25491     25495     25491     25492     25491     25493
     25491     25494     25495     25496     25497     25501     25497     25498
     25497     25499     25497     25500     25501     25502     25503     25507
     25503     25504     25503     25505     25503     25506     25507     25508
     25509     25513     25509     25510     25509     25511     25509     25512
     25513     25514     25515     25519     25515     25516     25515     25517
     25515     25518     25519     25520     25521     25525     25521     25522
     25521     25523     25521     25524     25525     25526     25527     25531
     25527     25528     25527     25529     25527     25530     25531     25532
     25533     25537     25533     25534     25533     25535     25533     25536
     25537     25538     25539     25543     25539     25540     25539     25541
     25539     25542     25543     25544     25545     25549     25545     25546
     25545     25547     25545     25548     25549     25550     25551     25555
     25551     25552     25551     25553     25551     25554     25555     25556
     25557     25561     25557     25558     25557     25559     25557     25560
     25561     25562     25563     25567     25563     25564     25563     25565
     25563     25566     25567     25568     25569     25573     25569     25570
     25569     25571     25569     25572     25573     25574     25575     25579
     25575     25576     25575     25577     25575     25578     25579     25580
     25581     25585     25581     25582     25581     25583     25581     25584
     25585     25586     25587     25591     25587     25588     25587     25589
     25587     25590     25591     25592     25593     25597     25593     25594
     25593     25595     25593     25596     25597     25598     25599     25603
     25599     25600     25599     25601     25599     25602     25603     25604
     25605     25609     25605     25606     25605     25607     25605     25608
     25609     25610     25611     25615     25611     25612     25611     25613
     25611     25614     25615     25616     25617     25621     25617     25618
     25617     25619     25617     25620     25621     25622     25623     25627
     25623     25624     25623     25625     25623     25626     25627     25628
     25629     25633     25629     25630     25629     25631     25629     25632
     25633     25634     25635     25639     25635     25636     25635     25637
     25635     25638     25639     25640     25641     25645     25641     25642
     25641     25643     25641     25644     25645     25646     25647     25651
     25647     25648     25647     25649     25647     25650     25651     25652
     25653     25657     25653     25654     25653     25655     25653     25656
     25657     25658     25659     25663     25659     25660     25659     25661
     25659     25662     25663     25664     25665     25669     25665     25666
     25665     25667     25665     25668     25669     25670     25671     25675
     25671     25672     25671     25673     25671     25674     25675     25676
     25677     25681     25677     25678     25677     25679     25677     25680
     25681     25682     25683     25687     25683     25684     25683     25685
     25683     25686     25687     25688     25689     25693     25689     25690
     25689     25691     25689     25692     25693     25694     25695     25699
     25695     25696     25695     25697     25695     25698     25699     25700
     25701     25705     25701     25702     25701     25703     25701     25704
     25705     25706     25707     25711     25707     25708     25707     25709
     25707     25710     25711     25712     25713     25717     25713     25714
     25713     25715     25713     25716     25717     25718     25719     25723
     25719     25720     25719     25721     25719     25722     25723     25724
     25725     25729     25725     25726     25725     25727     25725     25728
     25729     25730     25731     25735     25731     25732     25731     25733
     25731     25734     25735     25736     25737     25741     25737     25738
     25737     25739     25737     25740     25741     25742     25743     25747
     25743     25744     25743     25745     25743     25746     25747     25748
     25749     25753     25749     25750     25749     25751     25749     25752
     25753     25754     25755     25759     25755     25756     25755     25757
     25755     25758     25759     25760     25761     25765     25761     25762
     25761     25763     25761     25764     25765     25766     25767     25771
     25767     25768     25767     25769     25767     25770     25771     25772
     25773     25777     25773     25774     25773     25775     25773     25776
     25777     25778     25779     25783     25779     25780     25779     25781
     25779     25782     25783     25784     25785     25789     25785     25786
     25785     25787     25785     25788     25789     25790     25791     25795
     25791     25792     25791     25793     25791     25794     25795     25796
     25797     25801     25797     25798     25797     25799     25797     25800
     25801     25802     25803     25807     25803     25804     25803     25805
     25803     25806     25807     25808     25809     25813     25809     25810
     25809     25811     25809     25812     25813     25814     25815     25819
     25815     25816     25815     25817     25815     25818     25819     25820
     25821     25825     25821     25822     25821     25823     25821     25824
     25825     25826     25827     25831     25827     25828     25827     25829
     25827     25830     25831     25832     25833     25837     25833     25834
     25833     25835     25833     25836     25837     25838     25839     25843
     25839     25840     25839     25841     25839     25842     25843     25844
     25845     25849     25845     25846     25845     25847     25845     25848
     25849     25850     25851     25855     25851     25852     25851     25853
     25851     25854     25855     25856     25857     25861     25857     25858
     25857     25859     25857     25860     25861     25862     25863     25867
     25863     25864     25863     25865     25863     25866     25867     25868
     25869     25873     25869     25870     25869     25871     25869     25872
     25873     25874     25875     25879     25875     25876     25875     25877
     25875     25878     25879     25880     25881     25885     25881     25882
     25881     25883     25881     25884     25885     25886     25887     25891
     25887     25888     25887     25889     25887     25890     25891     25892
     25893     25897     25893     25894     25893     25895     25893     25896
     25897     25898     25899     25903     25899     25900     25899     25901
     25899     25902     25903     25904     25905     25909     25905     25906
     25905     25907     25905     25908     25909     25910     25911     25915
     25911     25912     25911     25913     25911     25914     25915     25916
     25917     25921     25917     25918     25917     25919     25917     25920
     25921     25922     25923     25927     25923     25924     25923     25925
     25923     25926     25927     25928     25929     25933     25929     25930
     25929     25931     25929     25932     25933     25934     25935     25939
     25935     25936     25935     25937     25935     25938     25939     25940
     25941     25945     25941     25942     25941     25943     25941     25944
     25945     25946     25947     25951     25947     25948     25947     25949
     25947     25950     25951     25952     25953     25957     25953     25954
     25953     25955     25953     25956     25957     25958     25959     25963
     25959     25960     25959     25961     25959     25962     25963     25964
     25965     25969     25965     25966     25965     25967     25965     25968
     25969     25970     25971     25975     25971     25972     25971     25973
     25971     25974     25975     25976     25977     25981     25977     25978
     25977     25979     25977     25980     25981     25982     25983     25987
     25983     25984     25983     25985     25983     25986     25987     25988
     25989     25993     25989     25990     25989     25991     25989     25992
     25993     25994     25995     25999     25995     25996     25995     25997
     25995     25998     25999     26000     26001     26005     26001     26002
     26001     26003     26001     26004     26005     26006     26007     26011
     26007     26008     26007     26009     26007     26010     26011     26012
     26013     26017     26013     26014     26013     26015     26013     26016
     26017     26018     26019     26023     26019     26020     26019     26021
     26019     26022     26023     26024     26025     26029     26025     26026
     26025     26027     26025     26028     26029     26030     26031     26035
     26031     26032     26031     26033     26031     26034     26035     26036
     26037     26041     26037     26038     26037     26039     26037     26040
     26041     26042     26043     26047     26043     26044     26043     26045
     26043     26046     26047     26048     26049     26053     26049     26050
     26049     26051     26049     26052     26053     26054     26055     26059
     26055     26056     26055     26057     26055     26058     26059     26060
     26061     26065     26061     26062     26061     26063     26061     26064
     26065     26066     26067     26071     26067     26068     26067     26069
     26067     26070     26071     26072     26073     26077     26073     26074
     26073     26075     26073     26076     26077     26078     26079     26083
     26079     26080     26079     26081     26079     26082     26083     26084
     26085     26089     26085     26086     26085     26087     26085     26088
     26089     26090     26091     26095     26091     26092     26091     26093
     26091     26094     26095     26096     26097     26101     26097     26098
     26097     26099     26097     26100     26101     26102     26103     26107
     26103     26104     26103     26105     26103     26106     26107     26108
     26109     26113     26109     26110     26109     26111     26109     26112
     26113     26114     26115     26119     26115     26116     26115     26117
     26115     26118     26119     26120     26121     26125     26121     26122
     26121     26123     26121     26124     26125     26126     26127     26131
     26127     26128     26127     26129     26127     26130     26131     26132
     26133     26137     26133     26134     26133     26135     26133     26136
     26137     26138     26139     26143     26139     26140     26139     26141
     26139     26142     26143     26144     26145     26149     26145     26146
     26145     26147     26145     26148     26149     26150     26151     26155
     26151     26152     26151     26153     26151     26154     26155     26156
     26157     26161     26157     26158     26157     26159     26157     26160
     26161     26162     26163     26167     26163     26164     26163     26165
     26163     26166     26167     26168     26169     26173     26169     26170
     26169     26171     26169     26172     26173     26174     26175     26179
     26175     26176     26175     26177     26175     26178     26179     26180
     26181     26185     26181     26182     26181     26183     26181     26184
     26185     26186     26187     26191     26187     26188     26187     26189
     26187     26190     26191     26192     26193     26197     26193     26194
     26193     26195     26193     26196     26197     26198     26199     26203
     26199     26200     26199     26201     26199     26202     26203     26204
     26205     26209     26205     26206     26205     26207     26205     26208
     26209     26210     26211     26215     26211     26212     26211     26213
     26211     26214     26215     26216     26217     26221     26217     26218
     26217     26219     26217     26220     26221     26222     26223     26227
     26223     26224     26223     26225     26223     26226     26227     26228
     26229     26233     26229     26230     26229     26231     26229     26232
     26233     26234     26235     26239     26235     26236     26235     26237
     26235     26238     26239     26240     26241     26245     26241     26242
     26241     26243     26241     26244     26245     26246     26247     26251
     26247     26248     26247     26249     26247     26250     26251     26252
     26253     26257     26253     26254     26253     26255     26253     26256
     26257     26258     26259     26263     26259     26260     26259     26261
     26259     26262     26263     26264     26265     26269     26265     26266
     26265     26267     26265     26268     26269     26270     26271     26275
     26271     26272     26271     26273     26271     26274     26275     26276
     26277     26281     26277     26278     26277     26279     26277     26280
     26281     26282     26283     26287     26283     26284     26283     26285
     26283     26286     26287     26288     26289     26293     26289     26290
     26289     26291     26289     26292     26293     26294     26295     26299
     26295     26296     26295     26297     26295     26298     26299     26300
     26301     26305     26301     26302     26301     26303     26301     26304
     26305     26306     26307     26311     26307     26308     26307     26309
     26307     26310     26311     26312     26313     26317     26313     26314
     26313     26315     26313     26316     26317     26318     26319     26323
     26319     26320     26319     26321     26319     26322     26323     26324
     26325     26329     26325     26326     26325     26327     26325     26328
     26329     26330     26331     26335     26331     26332     26331     26333
     26331     26334     26335     26336     26337     26341     26337     26338
     26337     26339     26337     26340     26341     26342     26343     26347
     26343     26344     26343     26345     26343     26346     26347     26348
     26349     26353     26349     26350     26349     26351     26349     26352
     26353     26354     26355     26359     26355     26356     26355     26357
     26355     26358     26359     26360     26361     26365     26361     26362
     26361     26363     26361     26364     26365     26366     26367     26371
     26367     26368     26367     26369     26367     26370     26371     26372
     26373     26377     26373     26374     26373     26375     26373     26376
     26377     26378     26379     26383     26379     26380     26379     26381
     26379     26382     26383     26384     26385     26389     26385     26386
     26385     26387     26385     26388     26389     26390     26391     26395
     26391     26392     26391     26393     26391     26394     26395     26396
     26397     26401     26397     26398     26397     26399     26397     26400
     26401     26402     26403     26407     26403     26404     26403     26405
     26403     26406     26407     26408     26409     26413     26409     26410
     26409     26411     26409     26412     26413     26414     26415     26419
     26415     26416     26415     26417     26415     26418     26419     26420
     26421     26425     26421     26422     26421     26423     26421     26424
     26425     26426     26427     26431     26427     26428     26427     26429
     26427     26430     26431     26432     26433     26437     26433     26434
     26433     26435     26433     26436     26437     26438     26439     26443
     26439     26440     26439     26441     26439     26442     26443     26444
     26445     26449     26445     26446     26445     26447     26445     26448
     26449     26450     26451     26455     26451     26452     26451     26453
     26451     26454     26455     26456     26457     26461     26457     26458
     26457     26459     26457     26460     26461     26462     26463     26467
     26463     26464     26463     26465     26463     26466     26467     26468
     26469     26473     26469     26470     26469     26471     26469     26472
     26473     26474     26475     26479     26475     26476     26475     26477
     26475     26478     26479     26480     26481     26485     26481     26482
     26481     26483     26481     26484     26485     26486     26487     26491
     26487     26488     26487     26489     26487     26490     26491     26492
     26493     26497     26493     26494     26493     26495     26493     26496
     26497     26498     26499     26503     26499     26500     26499     26501
     26499     26502     26503     26504     26505     26509     26505     26506
     26505     26507     26505     26508     26509     26510     26511     26515
     26511     26512     26511     26513     26511     26514     26515     26516
     26517     26521     26517     26518     26517     26519     26517     26520
     26521     26522     26523     26527     26523     26524     26523     26525
     26523     26526     26527     26528     26529     26533     26529     26530
     26529     26531     26529     26532     26533     26534     26535     26539
     26535     26536     26535     26537     26535     26538     26539     26540
     26541     26545     26541     26542     26541     26543     26541     26544
     26545     26546     26547     26551     26547     26548     26547     26549
     26547     26550     26551     26552     26553     26557     26553     26554
     26553     26555     26553     26556     26557     26558     26559     26563
     26559     26560     26559     26561     26559     26562     26563     26564
     26565     26569     26565     26566     26565     26567     26565     26568
     26569     26570     26571     26575     26571     26572     26571     26573
     26571     26574     26575     26576     26577     26581     26577     26578
     26577     26579     26577     26580     26581     26582     26583     26587
     26583     26584     26583     26585     26583     26586     26587     26588
     26589     26593     26589     26590     26589     26591     26589     26592
     26593     26594     26595     26599     26595     26596     26595     26597
     26595     26598     26599     26600     26601     26605     26601     26602
     26601     26603     26601     26604     26605     26606     26607     26611
     26607     26608     26607     26609     26607     26610     26611     26612
     26613     26617     26613     26614     26613     26615     26613     26616
     26617     26618     26619     26623     26619     26620     26619     26621
     26619     26622     26623     26624     26625     26629     26625     26626
     26625     26627     26625     26628     26629     26630     26631     26635
     26631     26632     26631     26633     26631     26634     26635     26636
     26637     26641     26637     26638     26637     26639     26637     26640
     26641     26642     26643     26647     26643     26644     26643     26645
     26643     26646     26647     26648     26649     26653     26649     26650
     26649     26651     26649     26652     26653     26654     26655     26659
     26655     26656     26655     26657     26655     26658     26659     26660
     26661     26665     26661     26662     26661     26663     26661     26664
     26665     26666     26667     26671     26667     26668     26667     26669
     26667     26670     26671     26672     26673     26677     26673     26674
     26673     26675     26673     26676     26677     26678     26679     26683
     26679     26680     26679     26681     26679     26682     26683     26684
     26685     26689     26685     26686     26685     26687     26685     26688
     26689     26690     26691     26695     26691     26692     26691     26693
     26691     26694     26695     26696     26697     26701     26697     26698
     26697     26699     26697     26700     26701     26702     26703     26707
     26703     26704     26703     26705     26703     26706     26707     26708
     26709     26713     26709     26710     26709     26711     26709     26712
     26713     26714     26715     26719     26715     26716     26715     26717
     26715     26718     26719     26720     26721     26725     26721     26722
     26721     26723     26721     26724     26725     26726     26727     26731
     26727     26728     26727     26729     26727     26730     26731     26732
     26733     26737     26733     26734     26733     26735     26733     26736
     26737     26738     26739     26743     26739     26740     26739     26741
     26739     26742     26743     26744     26745     26749     26745     26746
     26745     26747     26745     26748     26749     26750     26751     26755
     26751     26752     26751     26753     26751     26754     26755     26756
     26757     26761     26757     26758     26757     26759     26757     26760
     26761     26762     26763     26767     26763     26764     26763     26765
     26763     26766     26767     26768     26769     26773     26769     26770
     26769     26771     26769     26772     26773     26774     26775     26779
     26775     26776     26775     26777     26775     26778     26779     26780
     26781     26785     26781     26782     26781     26783     26781     26784
     26785     26786     26787     26791     26787     26788     26787     26789
     26787     26790     26791     26792     26793     26797     26793     26794
     26793     26795     26793     26796     26797     26798     26799     26803
     26799     26800     26799     26801     26799     26802     26803     26804
     26805     26809     26805     26806     26805     26807     26805     26808
     26809     26810     26811     26815     26811     26812     26811     26813
     26811     26814     26815     26816     26817     26821     26817     26818
     26817     26819     26817     26820     26821     26822     26823     26827
     26823     26824     26823     26825     26823     26826     26827     26828
     26829     26833     26829     26830     26829     26831     26829     26832
     26833     26834     26835     26839     26835     26836     26835     26837
     26835     26838     26839     26840     26841     26845     26841     26842
     26841     26843     26841     26844     26845     26846     26847     26851
     26847     26848     26847     26849     26847     26850     26851     26852
     26853     26857     26853     26854     26853     26855     26853     26856
     26857     26858     26859     26863     26859     26860     26859     26861
     26859     26862     26863     26864     26865     26869     26865     26866
     26865     26867     26865     26868     26869     26870     26871     26875
     26871     26872     26871     26873     26871     26874     26875     26876
     26877     26881     26877     26878     26877     26879     26877     26880
     26881     26882     26883     26887     26883     26884     26883     26885
     26883     26886     26887     26888     26889     26893     26889     26890
     26889     26891     26889     26892     26893     26894     26895     26899
     26895     26896     26895     26897     26895     26898     26899     26900
     26901     26905     26901     26902     26901     26903     26901     26904
     26905     26906     26907     26911     26907     26908     26907     26909
     26907     26910     26911     26912     26913     26917     26913     26914
     26913     26915     26913     26916     26917     26918     26919     26923
     26919     26920     26919     26921     26919     26922     26923     26924
     26925     26929     26925     26926     26925     26927     26925     26928
     26929     26930     26931     26935     26931     26932     26931     26933
     26931     26934     26935     26936     26937     26941     26937     26938
     26937     26939     26937     26940     26941     26942     26943     26947
     26943     26944     26943     26945     26943     26946     26947     26948
     26949     26953     26949     26950     26949     26951     26949     26952
     26953     26954     26955     26959     26955     26956     26955     26957
     26955     26958     26959     26960     26961     26965     26961     26962
     26961     26963     26961     26964     26965     26966     26967     26971
     26967     26968     26967     26969     26967     26970     26971     26972
     26973     26977     26973     26974     26973     26975     26973     26976
     26977     26978     26979     26983     26979     26980     26979     26981
     26979     26982     26983     26984     26985     26989     26985     26986
     26985     26987     26985     26988     26989     26990     26991     26995
     26991     26992     26991     26993     26991     26994     26995     26996
     26997     27001     26997     26998     26997     26999     26997     27000
     27001     27002     27003     27007     27003     27004     27003     27005
     27003     27006     27007     27008     27009     27013     27009     27010
     27009     27011     27009     27012     27013     27014     27015     27019
     27015     27016     27015     27017     27015     27018     27019     27020
     27021     27025     27021     27022     27021     27023     27021     27024
     27025     27026     27027     27031     27027     27028     27027     27029
     27027     27030     27031     27032     27033     27037     27033     27034
     27033     27035     27033     27036     27037     27038     27039     27043
     27039     27040     27039     27041     27039     27042     27043     27044
     27045     27049     27045     27046     27045     27047     27045     27048
     27049     27050     27051     27055     27051     27052     27051     27053
     27051     27054     27055     27056     27057     27061     27057     27058
     27057     27059     27057     27060     27061     27062     27063     27067
     27063     27064     27063     27065     27063     27066     27067     27068
     27069     27073     27069     27070     27069     27071     27069     27072
     27073     27074     27075     27079     27075     27076     27075     27077
     27075     27078     27079     27080     27081     27085     27081     27082
     27081     27083     27081     27084     27085     27086     27087     27091
     27087     27088     27087     27089     27087     27090     27091     27092
     27093     27097     27093     27094     27093     27095     27093     27096
     27097     27098     27099     27103     27099     27100     27099     27101
     27099     27102     27103     27104     27105     27109     27105     27106
     27105     27107     27105     27108     27109     27110     27111     27115
     27111     27112     27111     27113     27111     27114     27115     27116
     27117     27121     27117     27118     27117     27119     27117     27120
     27121     27122     27123     27127     27123     27124     27123     27125
     27123     27126     27127     27128     27129     27133     27129     27130
     27129     27131     27129     27132     27133     27134     27135     27139
     27135     27136     27135     27137     27135     27138     27139     27140
     27141     27145     27141     27142     27141     27143     27141     27144
     27145     27146     27147     27151     27147     27148     27147     27149
     27147     27150     27151     27152     27153     27157     27153     27154
     27153     27155     27153     27156     27157     27158     27159     27163
     27159     27160     27159     27161     27159     27162     27163     27164
     27165     27169     27165     27166     27165     27167     27165     27168
     27169     27170     27171     27175     27171     27172     27171     27173
     27171     27174     27175     27176     27177     27181     27177     27178
     27177     27179     27177     27180     27181     27182     27183     27187
     27183     27184     27183     27185     27183     27186     27187     27188
     27189     27193     27189     27190     27189     27191     27189     27192
     27193     27194     27195     27199     27195     27196     27195     27197
     27195     27198     27199     27200     27201     27205     27201     27202
     27201     27203     27201     27204     27205     27206     27207     27211
     27207     27208     27207     27209     27207     27210     27211     27212
     27213     27217     27213     27214     27213     27215     27213     27216
     27217     27218     27219     27223     27219     27220     27219     27221
     27219     27222     27223     27224     27225     27229     27225     27226
     27225     27227     27225     27228     27229     27230     27231     27235
     27231     27232     27231     27233     27231     27234     27235     27236
     27237     27241     27237     27238     27237     27239     27237     27240
     27241     27242     27243     27247     27243     27244     27243     27245
     27243     27246     27247     27248     27249     27253     27249     27250
     27249     27251     27249     27252     27253     27254     27255     27259
     27255     27256     27255     27257     27255     27258     27259     27260
     27261     27265     27261     27262     27261     27263     27261     27264
     27265     27266     27267     27271     27267     27268     27267     27269
     27267     27270     27271     27272     27273     27277     27273     27274
     27273     27275     27273     27276     27277     27278     27279     27283
     27279     27280     27279     27281     27279     27282     27283     27284
     27285     27289     27285     27286     27285     27287     27285     27288
     27289     27290     27291     27295     27291     27292     27291     27293
     27291     27294     27295     27296     27297     27301     27297     27298
     27297     27299     27297     27300     27301     27302     27303     27307
     27303     27304     27303     27305     27303     27306     27307     27308
     27309     27313     27309     27310     27309     27311     27309     27312
     27313     27314     27315     27319     27315     27316     27315     27317
     27315     27318     27319     27320     27321     27325     27321     27322
     27321     27323     27321     27324     27325     27326     27327     27331
     27327     27328     27327     27329     27327     27330     27331     27332
     27333     27337     27333     27334     27333     27335     27333     27336
     27337     27338     27339     27343     27339     27340     27339     27341
     27339     27342     27343     27344     27345     27349     27345     27346
     27345     27347     27345     27348     27349     27350     27351     27355
     27351     27352     27351     27353     27351     27354     27355     27356
     27357     27361     27357     27358     27357     27359     27357     27360
     27361     27362     27363     27367     27363     27364     27363     27365
     27363     27366     27367     27368     27369     27373     27369     27370
     27369     27371     27369     27372     27373     27374     27375     27379
     27375     27376     27375     27377     27375     27378     27379     27380
     27381     27385     27381     27382     27381     27383     27381     27384
     27385     27386     27387     27391     27387     27388     27387     27389
     27387     27390     27391     27392     27393     27397     27393     27394
     27393     27395     27393     27396     27397     27398     27399     27403
     27399     27400     27399     27401     27399     27402     27403     27404
     27405     27409     27405     27406     27405     27407     27405     27408
     27409     27410     27411     27415     27411     27412     27411     27413
     27411     27414     27415     27416     27417     27421     27417     27418
     27417     27419     27417     27420     27421     27422     27423     27427
     27423     27424     27423     27425     27423     27426     27427     27428
     27429     27433     27429     27430     27429     27431     27429     27432
     27433     27434     27435     27439     27435     27436     27435     27437
     27435     27438     27439     27440     27441     27445     27441     27442
     27441     27443     27441     27444     27445     27446     27447     27451
     27447     27448     27447     27449     27447     27450     27451     27452
     27453     27457     27453     27454     27453     27455     27453     27456
     27457     27458     27459     27463     27459     27460     27459     27461
     27459     27462     27463     27464     27465     27469     27465     27466
     27465     27467     27465     27468     27469     27470     27471     27475
     27471     27472     27471     27473     27471     27474     27475     27476
     27477     27481     27477     27478     27477     27479     27477     27480
     27481     27482     27483     27487     27483     27484     27483     27485
     27483     27486     27487     27488     27489     27493     27489     27490
     27489     27491     27489     27492     27493     27494     27495     27499
     27495     27496     27495     27497     27495     27498     27499     27500
     27501     27505     27501     27502     27501     27503     27501     27504
     27505     27506     27507     27511     27507     27508     27507     27509
     27507     27510     27511     27512     27513     27517     27513     27514
     27513     27515     27513     27516     27517     27518     27519     27523
     27519     27520     27519     27521     27519     27522     27523     27524
     27525     27529     27525     27526     27525     27527     27525     27528
     27529     27530     27531     27535     27531     27532     27531     27533
     27531     27534     27535     27536     27537     27541     27537     27538
     27537     27539     27537     27540     27541     27542     27543     27547
     27543     27544     27543     27545     27543     27546     27547     27548
     27549     27553     27549     27550     27549     27551     27549     27552
     27553     27554     27555     27559     27555     27556     27555     27557
     27555     27558     27559     27560     27561     27565     27561     27562
     27561     27563     27561     27564     27565     27566     27567     27571
     27567     27568     27567     27569     27567     27570     27571     27572
     27573     27577     27573     27574     27573     27575     27573     27576
     27577     27578     27579     27583     27579     27580     27579     27581
     27579     27582     27583     27584     27585     27589     27585     27586
     27585     27587     27585     27588     27589     27590     27591     27595
     27591     27592     27591     27593     27591     27594     27595     27596
     27597     27601     27597     27598     27597     27599     27597     27600
     27601     27602     27603     27607     27603     27604     27603     27605
     27603     27606     27607     27608     27609     27613     27609     27610
     27609     27611     27609     27612     27613     27614     27615     27619
     27615     27616     27615     27617     27615     27618     27619     27620
     27621     27625     27621     27622     27621     27623     27621     27624
     27625     27626     27627     27631     27627     27628     27627     27629
     27627     27630     27631     27632     27633     27637     27633     27634
     27633     27635     27633     27636     27637     27638     27639     27643
     27639     27640     27639     27641     27639     27642     27643     27644
     27645     27649     27645     27646     27645     27647     27645     27648
     27649     27650     27651     27655     27651     27652     27651     27653
     27651     27654     27655     27656     27657     27661     27657     27658
     27657     27659     27657     27660     27661     27662     27663     27667
     27663     27664     27663     27665     27663     27666     27667     27668
     27669     27673     27669     27670     27669     27671     27669     27672
     27673     27674     27675     27679     27675     27676     27675     27677
     27675     27678     27679     27680     27681     27685     27681     27682
     27681     27683     27681     27684     27685     27686     27687     27691
     27687     27688     27687     27689     27687     27690     27691     27692
     27693     27697     27693     27694     27693     27695     27693     27696
     27697     27698     27699     27703     27699     27700     27699     27701
     27699     27702     27703     27704     27705     27709     27705     27706
     27705     27707     27705     27708     27709     27710     27711     27715
     27711     27712     27711     27713     27711     27714     27715     27716
     27717     27721     27717     27718     27717     27719     27717     27720
     27721     27722     27723     27727     27723     27724     27723     27725
     27723     27726     27727     27728     27729     27733     27729     27730
     27729     27731     27729     27732     27733     27734     27735     27739
     27735     27736     27735     27737     27735     27738     27739     27740
     27741     27745     27741     27742     27741     27743     27741     27744
     27745     27746     27747     27751     27747     27748     27747     27749
     27747     27750     27751     27752     27753     27757     27753     27754
     27753     27755     27753     27756     27757     27758     27759     27763
     27759     27760     27759     27761     27759     27762     27763     27764
     27765     27769     27765     27766     27765     27767     27765     27768
     27769     27770     27771     27775     27771     27772     27771     27773
     27771     27774     27775     27776     27777     27781     27777     27778
     27777     27779     27777     27780     27781     27782     27783     27787
     27783     27784     27783     27785     27783     27786     27787     27788
     27789     27793     27789     27790     27789     27791     27789     27792
     27793     27794     27795     27799     27795     27796     27795     27797
     27795     27798     27799     27800     27801     27805     27801     27802
     27801     27803     27801     27804     27805     27806     27807     27811
     27807     27808     27807     27809     27807     27810     27811     27812
     27813     27817     27813     27814     27813     27815     27813     27816
     27817     27818     27819     27823     27819     27820     27819     27821
     27819     27822     27823     27824     27825     27829     27825     27826
     27825     27827     27825     27828     27829     27830     27831     27835
     27831     27832     27831     27833     27831     27834     27835     27836
     27837     27841     27837     27838     27837     27839     27837     27840
     27841     27842     27843     27847     27843     27844     27843     27845
     27843     27846     27847     27848     27849     27853     27849     27850
     27849     27851     27849     27852     27853     27854     27855     27859
     27855     27856     27855     27857     27855     27858     27859     27860
     27861     27865     27861     27862     27861     27863     27861     27864
     27865     27866     27867     27871     27867     27868     27867     27869
     27867     27870     27871     27872     27873     27877     27873     27874
     27873     27875     27873     27876     27877     27878     27879     27883
     27879     27880     27879     27881     27879     27882     27883     27884
     27885     27889     27885     27886     27885     27887     27885     27888
     27889     27890     27891     27895     27891     27892     27891     27893
     27891     27894     27895     27896     27897     27901     27897     27898
     27897     27899     27897     27900     27901     27902     27903     27907
     27903     27904     27903     27905     27903     27906     27907     27908
     27909     27913     27909     27910     27909     27911     27909     27912
     27913     27914     27915     27919     27915     27916     27915     27917
     27915     27918     27919     27920     27921     27925     27921     27922
     27921     27923     27921     27924     27925     27926     27927     27931
     27927     27928     27927     27929     27927     27930     27931     27932
     27933     27937     27933     27934     27933     27935     27933     27936
     27937     27938     27939     27943     27939     27940     27939     27941
     27939     27942     27943     27944     27945     27949     27945     27946
     27945     27947     27945     27948     27949     27950     27951     27955
     27951     27952     27951     27953     27951     27954     27955     27956
     27957     27961     27957     27958     27957     27959     27957     27960
     27961     27962     27963     27967     27963     27964     27963     27965
     27963     27966     27967     27968     27969     27973     27969     27970
     27969     27971     27969     27972     27973     27974     27975     27979
     27975     27976     27975     27977     27975     27978     27979     27980
     27981     27985     27981     27982     27981     27983     27981     27984
     27985     27986     27987     27991     27987     27988     27987     27989
     27987     27990     27991     27992     27993     27997     27993     27994
     27993     27995     27993     27996     27997     27998     27999     28003
     27999     28000     27999     28001     27999     28002     28003     28004
     28005     28009     28005     28006     28005     28007     28005     28008
     28009     28010     28011     28015     28011     28012     28011     28013
     28011     28014     28015     28016     28017     28021     28017     28018
     28017     28019     28017     28020     28021     28022     28023     28027
     28023     28024     28023     28025     28023     28026     28027     28028
     28029     28033     28029     28030     28029     28031     28029     28032
     28033     28034     28035     28039     28035     28036     28035     28037
     28035     28038     28039     28040     28041     28045     28041     28042
     28041     28043     28041     28044     28045     28046     28047     28051
     28047     28048     28047     28049     28047     28050     28051     28052
     28053     28057     28053     28054     28053     28055     28053     28056
     28057     28058     28059     28063     28059     28060     28059     28061
     28059     28062     28063     28064     28065     28069     28065     28066
     28065     28067     28065     28068     28069     28070     28071     28075
     28071     28072     28071     28073     28071     28074     28075     28076
     28077     28081     28077     28078     28077     28079     28077     28080
     28081     28082     28083     28087     28083     28084     28083     28085
     28083     28086     28087     28088     28089     28093     28089     28090
     28089     28091     28089     28092     28093     28094     28095     28099
     28095     28096     28095     28097     28095     28098     28099     28100
     28101     28105     28101     28102     28101     28103     28101     28104
     28105     28106     28107     28111     28107     28108     28107     28109
     28107     28110     28111     28112     28113     28117     28113     28114
     28113     28115     28113     28116     28117     28118     28119     28123
     28119     28120     28119     28121     28119     28122     28123     28124
     28125     28129     28125     28126     28125     28127     28125     28128
     28129     28130     28131     28135     28131     28132     28131     28133
     28131     28134     28135     28136     28137     28141     28137     28138
     28137     28139     28137     28140     28141     28142     28143     28147
     28143     28144     28143     28145     28143     28146     28147     28148
     28149     28153     28149     28150     28149     28151     28149     28152
     28153     28154     28155     28159     28155     28156     28155     28157
     28155     28158     28159     28160     28161     28165     28161     28162
     28161     28163     28161     28164     28165     28166     28167     28171
     28167     28168     28167     28169     28167     28170     28171     28172
     28173     28177     28173     28174     28173     28175     28173     28176
     28177     28178     28179     28183     28179     28180     28179     28181
     28179     28182     28183     28184     28185     28189     28185     28186
     28185     28187     28185     28188     28189     28190     28191     28195
     28191     28192     28191     28193     28191     28194     28195     28196
     28197     28201     28197     28198     28197     28199     28197     28200
     28201     28202     28203     28207     28203     28204     28203     28205
     28203     28206     28207     28208     28209     28213     28209     28210
     28209     28211     28209     28212     28213     28214     28215     28219
     28215     28216     28215     28217     28215     28218     28219     28220
     28221     28225     28221     28222     28221     28223     28221     28224
     28225     28226     28227     28231     28227     28228     28227     28229
     28227     28230     28231     28232     28233     28237     28233     28234
     28233     28235     28233     28236     28237     28238     28239     28243
     28239     28240     28239     28241     28239     28242     28243     28244
     28245     28249     28245     28246     28245     28247     28245     28248
     28249     28250     28251     28255     28251     28252     28251     28253
     28251     28254     28255     28256     28257     28261     28257     28258
     28257     28259     28257     28260     28261     28262     28263     28267
     28263     28264     28263     28265     28263     28266     28267     28268
     28269     28273     28269     28270     28269     28271     28269     28272
     28273     28274     28275     28279     28275     28276     28275     28277
     28275     28278     28279     28280     28281     28285     28281     28282
     28281     28283     28281     28284     28285     28286     28287     28291
     28287     28288     28287     28289     28287     28290     28291     28292
     28293     28297     28293     28294     28293     28295     28293     28296
     28297     28298     28299     28303     28299     28300     28299     28301
     28299     28302     28303     28304     28305     28309     28305     28306
     28305     28307     28305     28308     28309     28310     28311     28315
     28311     28312     28311     28313     28311     28314     28315     28316
     28317     28321     28317     28318     28317     28319     28317     28320
     28321     28322     28323     28327     28323     28324     28323     28325
     28323     28326     28327     28328     28329     28333     28329     28330
     28329     28331     28329     28332     28333     28334     28335     28339
     28335     28336     28335     28337     28335     28338     28339     28340
     28341     28345     28341     28342     28341     28343     28341     28344
     28345     28346     28347     28351     28347     28348     28347     28349
     28347     28350     28351     28352     28353     28357     28353     28354
     28353     28355     28353     28356     28357     28358     28359     28363
     28359     28360     28359     28361     28359     28362     28363     28364
     28365     28369     28365     28366     28365     28367     28365     28368
     28369     28370     28371     28375     28371     28372     28371     28373
     28371     28374     28375     28376     28377     28381     28377     28378
     28377     28379     28377     28380     28381     28382     28383     28387
     28383     28384     28383     28385     28383     28386     28387     28388
     28389     28393     28389     28390     28389     28391     28389     28392
     28393     28394     28395     28399     28395     28396     28395     28397
     28395     28398     28399     28400     28401     28405     28401     28402
     28401     28403     28401     28404     28405     28406     28407     28411
     28407     28408     28407     28409     28407     28410     28411     28412
     28413     28417     28413     28414     28413     28415     28413     28416
     28417     28418     28419     28423     28419     28420     28419     28421
     28419     28422     28423     28424     28425     28429     28425     28426
     28425     28427     28425     28428     28429     28430     28431     28435
     28431     28432     28431     28433     28431     28434     28435     28436
     28437     28441     28437     28438     28437     28439     28437     28440
     28441     28442     28443     28447     28443     28444     28443     28445
     28443     28446     28447     28448     28449     28453     28449     28450
     28449     28451     28449     28452     28453     28454     28455     28459
     28455     28456     28455     28457     28455     28458     28459     28460
     28461     28465     28461     28462     28461     28463     28461     28464
     28465     28466     28467     28471     28467     28468     28467     28469
     28467     28470     28471     28472     28473     28477     28473     28474
     28473     28475     28473     28476     28477     28478     28479     28483
     28479     28480     28479     28481     28479     28482     28483     28484
     28485     28489     28485     28486     28485     28487     28485     28488
     28489     28490     28491     28495     28491     28492     28491     28493
     28491     28494     28495     28496     28497     28501     28497     28498
     28497     28499     28497     28500     28501     28502     28503     28507
     28503     28504     28503     28505     28503     28506     28507     28508
     28509     28513     28509     28510     28509     28511     28509     28512
     28513     28514     28515     28519     28515     28516     28515     28517
     28515     28518     28519     28520     28521     28525     28521     28522
     28521     28523     28521     28524     28525     28526     28527     28531
     28527     28528     28527     28529     28527     28530     28531     28532
     28533     28537     28533     28534     28533     28535     28533     28536
     28537     28538     28539     28543     28539     28540     28539     28541
     28539     28542     28543     28544     28545     28549     28545     28546
     28545     28547     28545     28548     28549     28550     28551     28555
     28551     28552     28551     28553     28551     28554     28555     28556
     28557     28561     28557     28558     28557     28559     28557     28560
     28561     28562     28563     28567     28563     28564     28563     28565
     28563     28566     28567     28568     28569     28573     28569     28570
     28569     28571     28569     28572     28573     28574     28575     28579
     28575     28576     28575     28577     28575     28578     28579     28580
     28581     28585     28581     28582     28581     28583     28581     28584
     28585     28586     28587     28591     28587     28588     28587     28589
     28587     28590     28591     28592     28593     28597     28593     28594
     28593     28595     28593     28596     28597     28598     28599     28603
     28599     28600     28599     28601     28599     28602     28603     28604
     28605     28609     28605     28606     28605     28607     28605     28608
     28609     28610     28611     28615     28611     28612     28611     28613
     28611     28614     28615     28616     28617     28621     28617     28618
     28617     28619     28617     28620     28621     28622     28623     28627
     28623     28624     28623     28625     28623     28626     28627     28628
     28629     28633     28629     28630     28629     28631     28629     28632
     28633     28634     28635     28639     28635     28636     28635     28637
     28635     28638     28639     28640     28641     28645     28641     28642
     28641     28643     28641     28644     28645     28646     28647     28651
     28647     28648     28647     28649     28647     28650     28651     28652
     28653     28657     28653     28654     28653     28655     28653     28656
     28657     28658     28659     28663     28659     28660     28659     28661
     28659     28662     28663     28664     28665     28669     28665     28666
     28665     28667     28665     28668     28669     28670     28671     28675
     28671     28672     28671     28673     28671     28674     28675     28676
     28677     28681     28677     28678     28677     28679     28677     28680
     28681     28682     28683     28687     28683     28684     28683     28685
     28683     28686     28687     28688     28689     28693     28689     28690
     28689     28691     28689     28692     28693     28694     28695     28699
     28695     28696     28695     28697     28695     28698     28699     28700
     28701     28705     28701     28702     28701     28703     28701     28704
     28705     28706     28707     28711     28707     28708     28707     28709
     28707     28710     28711     28712     28713     28717     28713     28714
     28713     28715     28713     28716     28717     28718     28719     28723
     28719     28720     28719     28721     28719     28722     28723     28724
     28725     28729     28725     28726     28725     28727     28725     28728
     28729     28730     28731     28735     28731     28732     28731     28733
     28731     28734     28735     28736     28737     28741     28737     28738
     28737     28739     28737     28740     28741     28742     28743     28747
     28743     28744     28743     28745     28743     28746     28747     28748
     28749     28753     28749     28750     28749     28751     28749     28752
     28753     28754     28755     28759     28755     28756     28755     28757
     28755     28758     28759     28760     28761     28765     28761     28762
     28761     28763     28761     28764     28765     28766     28767     28771
     28767     28768     28767     28769     28767     28770     28771     28772
     28773     28777     28773     28774     28773     28775     28773     28776
     28777     28778     28779     28783     28779     28780     28779     28781
     28779     28782     28783     28784     28785     28789     28785     28786
     28785     28787     28785     28788     28789     28790     28791     28795
     28791     28792     28791     28793     28791     28794     28795     28796
     28797     28801     28797     28798     28797     28799     28797     28800
     28801     28802     28803     28807     28803     28804     28803     28805
     28803     28806     28807     28808     28809     28813     28809     28810
     28809     28811     28809     28812     28813     28814     28815     28819
     28815     28816     28815     28817     28815     28818     28819     28820
     28821     28825     28821     28822     28821     28823     28821     28824
     28825     28826     28827     28831     28827     28828     28827     28829
     28827     28830     28831     28832     28833     28837     28833     28834
     28833     28835     28833     28836     28837     28838     28839     28843
     28839     28840     28839     28841     28839     28842     28843     28844
     28845     28849     28845     28846     28845     28847     28845     28848
     28849     28850     28851     28855     28851     28852     28851     28853
     28851     28854     28855     28856     28857     28861     28857     28858
     28857     28859     28857     28860     28861     28862     28863     28867
     28863     28864     28863     28865     28863     28866     28867     28868
     28869     28873     28869     28870     28869     28871     28869     28872
     28873     28874     28875     28879     28875     28876     28875     28877
     28875     28878     28879     28880     28881     28885     28881     28882
     28881     28883     28881     28884     28885     28886     28887     28891
     28887     28888     28887     28889     28887     28890     28891     28892
     28893     28897     28893     28894     28893     28895     28893     28896
     28897     28898     28899     28903     28899     28900     28899     28901
     28899     28902     28903     28904     28905     28909     28905     28906
     28905     28907     28905     28908     28909     28910     28911     28915
     28911     28912     28911     28913     28911     28914     28915     28916
     28917     28921     28917     28918     28917     28919     28917     28920
     28921     28922     28923     28927     28923     28924     28923     28925
     28923     28926     28927     28928     28929     28933     28929     28930
     28929     28931     28929     28932     28933     28934     28935     28939
     28935     28936     28935     28937     28935     28938     28939     28940
     28941     28945     28941     28942     28941     28943     28941     28944
     28945     28946     28947     28951     28947     28948     28947     28949
     28947     28950     28951     28952     28953     28957     28953     28954
     28953     28955     28953     28956     28957     28958     28959     28963
     28959     28960     28959     28961     28959     28962     28963     28964
     28965     28969     28965     28966     28965     28967     28965     28968
     28969     28970     28971     28975     28971     28972     28971     28973
     28971     28974     28975     28976     28977     28981     28977     28978
     28977     28979     28977     28980     28981     28982     28983     28987
     28983     28984     28983     28985     28983     28986     28987     28988
     28989     28993     28989     28990     28989     28991     28989     28992
     28993     28994     28995     28999     28995     28996     28995     28997
     28995     28998     28999     29000     29001     29005     29001     29002
     29001     29003     29001     29004     29005     29006     29007     29011
     29007     29008     29007     29009     29007     29010     29011     29012
     29013     29017     29013     29014     29013     29015     29013     29016
     29017     29018     29019     29023     29019     29020     29019     29021
     29019     29022     29023     29024     29025     29029     29025     29026
     29025     29027     29025     29028     29029     29030     29031     29035
     29031     29032     29031     29033     29031     29034     29035     29036
     29037     29041     29037     29038     29037     29039     29037     29040
     29041     29042     29043     29047     29043     29044     29043     29045
     29043     29046     29047     29048     29049     29053     29049     29050
     29049     29051     29049     29052     29053     29054     29055     29059
     29055     29056     29055     29057     29055     29058     29059     29060
     29061     29065     29061     29062     29061     29063     29061     29064
     29065     29066     29067     29071     29067     29068     29067     29069
     29067     29070     29071     29072     29073     29077     29073     29074
     29073     29075     29073     29076     29077     29078     29079     29083
     29079     29080     29079     29081     29079     29082     29083     29084
     29085     29089     29085     29086     29085     29087     29085     29088
     29089     29090     29091     29095     29091     29092     29091     29093
     29091     29094     29095     29096     29097     29101     29097     29098
     29097     29099     29097     29100     29101     29102     29103     29107
     29103     29104     29103     29105     29103     29106     29107     29108
     29109     29113     29109     29110     29109     29111     29109     29112
     29113     29114     29115     29119     29115     29116     29115     29117
     29115     29118     29119     29120     29121     29125     29121     29122
     29121     29123     29121     29124     29125     29126     29127     29131
     29127     29128     29127     29129     29127     29130     29131     29132
     29133     29137     29133     29134     29133     29135     29133     29136
     29137     29138     29139     29143     29139     29140     29139     29141
     29139     29142     29143     29144     29145     29149     29145     29146
     29145     29147     29145     29148     29149     29150     29151     29155
     29151     29152     29151     29153     29151     29154     29155     29156
     29157     29161     29157     29158     29157     29159     29157     29160
     29161     29162     29163     29167     29163     29164     29163     29165
     29163     29166     29167     29168     29169     29173     29169     29170
     29169     29171     29169     29172     29173     29174     29175     29179
     29175     29176     29175     29177     29175     29178     29179     29180
     29181     29185     29181     29182     29181     29183     29181     29184
     29185     29186     29187     29191     29187     29188     29187     29189
     29187     29190     29191     29192     29193     29197     29193     29194
     29193     29195     29193     29196     29197     29198     29199     29203
     29199     29200     29199     29201     29199     29202     29203     29204
     29205     29209     29205     29206     29205     29207     29205     29208
     29209     29210     29211     29215     29211     29212     29211     29213
     29211     29214     29215     29216     29217     29221     29217     29218
     29217     29219     29217     29220     29221     29222     29223     29227
     29223     29224     29223     29225     29223     29226     29227     29228
     29229     29233     29229     29230     29229     29231     29229     29232
     29233     29234     29235     29239     29235     29236     29235     29237
     29235     29238     29239     29240     29241     29245     29241     29242
     29241     29243     29241     29244     29245     29246     29247     29251
     29247     29248     29247     29249     29247     29250     29251     29252
     29253     29257     29253     29254     29253     29255     29253     29256
     29257     29258     29259     29263     29259     29260     29259     29261
     29259     29262     29263     29264     29265     29269     29265     29266
     29265     29267     29265     29268     29269     29270     29271     29275
     29271     29272     29271     29273     29271     29274     29275     29276
     29277     29281     29277     29278     29277     29279     29277     29280
     29281     29282     29283     29287     29283     29284     29283     29285
     29283     29286     29287     29288     29289     29293     29289     29290
     29289     29291     29289     29292     29293     29294     29295     29299
     29295     29296     29295     29297     29295     29298     29299     29300
     29301     29305     29301     29302     29301     29303     29301     29304
     29305     29306     29307     29311     29307     29308     29307     29309
     29307     29310     29311     29312     29313     29317     29313     29314
     29313     29315     29313     29316     29317     29318     29319     29323
     29319     29320     29319     29321     29319     29322     29323     29324
     29325     29329     29325     29326     29325     29327     29325     29328
     29329     29330     29331     29335     29331     29332     29331     29333
     29331     29334     29335     29336     29337     29341     29337     29338
     29337     29339     29337     29340     29341     29342     29343     29347
     29343     29344     29343     29345     29343     29346     29347     29348
     29349     29353     29349     29350     29349     29351     29349     29352
     29353     29354     29355     29359     29355     29356     29355     29357
     29355     29358     29359     29360     29361     29365     29361     29362
     29361     29363     29361     29364     29365     29366     29367     29371
     29367     29368     29367     29369     29367     29370     29371     29372
     29373     29377     29373     29374     29373     29375     29373     29376
     29377     29378     29379     29383     29379     29380     29379     29381
     29379     29382     29383     29384     29385     29389     29385     29386
     29385     29387     29385     29388     29389     29390     29391     29395
     29391     29392     29391     29393     29391     29394     29395     29396
     29397     29401     29397     29398     29397     29399     29397     29400
     29401     29402     29403     29407     29403     29404     29403     29405
     29403     29406     29407     29408     29409     29413     29409     29410
     29409     29411     29409     29412     29413     29414     29415     29419
     29415     29416     29415     29417     29415     29418     29419     29420
     29421     29425     29421     29422     29421     29423     29421     29424
     29425     29426     29427     29431     29427     29428     29427     29429
     29427     29430     29431     29432     29433     29437     29433     29434
     29433     29435     29433     29436     29437     29438     29439     29443
     29439     29440     29439     29441     29439     29442     29443     29444
     29445     29449     29445     29446     29445     29447     29445     29448
     29449     29450     29451     29455     29451     29452     29451     29453
     29451     29454     29455     29456     29457     29461     29457     29458
     29457     29459     29457     29460     29461     29462     29463     29467
     29463     29464     29463     29465     29463     29466     29467     29468
     29469     29473     29469     29470     29469     29471     29469     29472
     29473     29474     29475     29479     29475     29476     29475     29477
     29475     29478     29479     29480     29481     29485     29481     29482
     29481     29483     29481     29484     29485     29486     29487     29491
     29487     29488     29487     29489     29487     29490     29491     29492
     29493     29497     29493     29494     29493     29495     29493     29496
     29497     29498     29499     29503     29499     29500     29499     29501
     29499     29502     29503     29504     29505     29509     29505     29506
     29505     29507     29505     29508     29509     29510     29511     29515
     29511     29512     29511     29513     29511     29514     29515     29516
     29517     29521     29517     29518     29517     29519     29517     29520
     29521     29522     29523     29527     29523     29524     29523     29525
     29523     29526     29527     29528     29529     29533     29529     29530
     29529     29531     29529     29532     29533     29534     29535     29539
     29535     29536     29535     29537     29535     29538     29539     29540
     29541     29545     29541     29542     29541     29543     29541     29544
     29545     29546     29547     29551     29547     29548     29547     29549
     29547     29550     29551     29552     29553     29557     29553     29554
     29553     29555     29553     29556     29557     29558     29559     29563
     29559     29560     29559     29561     29559     29562     29563     29564
     29565     29569     29565     29566     29565     29567     29565     29568
     29569     29570     29571     29575     29571     29572     29571     29573
     29571     29574     29575     29576     29577     29581     29577     29578
     29577     29579     29577     29580     29581     29582     29583     29587
     29583     29584     29583     29585     29583     29586     29587     29588
     29589     29593     29589     29590     29589     29591     29589     29592
     29593     29594     29595     29599     29595     29596     29595     29597
     29595     29598     29599     29600     29601     29605     29601     29602
     29601     29603     29601     29604     29605     29606     29607     29611
     29607     29608     29607     29609     29607     29610     29611     29612
     29613     29617     29613     29614     29613     29615     29613     29616
     29617     29618     29619     29623     29619     29620     29619     29621
     29619     29622     29623     29624     29625     29629     29625     29626
     29625     29627     29625     29628     29629     29630     29631     29635
     29631     29632     29631     29633     29631     29634     29635     29636
     29637     29641     29637     29638     29637     29639     29637     29640
     29641     29642     29643     29647     29643     29644     29643     29645
     29643     29646     29647     29648     29649     29653     29649     29650
     29649     29651     29649     29652     29653     29654     29655     29659
     29655     29656     29655     29657     29655     29658     29659     29660
     29661     29665     29661     29662     29661     29663     29661     29664
     29665     29666     29667     29671     29667     29668     29667     29669
     29667     29670     29671     29672     29673     29677     29673     29674
     29673     29675     29673     29676     29677     29678     29679     29683
     29679     29680     29679     29681     29679     29682     29683     29684
     29685     29689     29685     29686     29685     29687     29685     29688
     29689     29690     29691     29695     29691     29692     29691     29693
     29691     29694     29695     29696     29697     29701     29697     29698
     29697     29699     29697     29700     29701     29702     29703     29707
     29703     29704     29703     29705     29703     29706     29707     29708
     29709     29713     29709     29710     29709     29711     29709     29712
     29713     29714     29715     29719     29715     29716     29715     29717
     29715     29718     29719     29720     29721     29725     29721     29722
     29721     29723     29721     29724     29725     29726     29727     29731
     29727     29728     29727     29729     29727     29730     29731     29732
     29733     29737     29733     29734     29733     29735     29733     29736
     29737     29738     29739     29743     29739     29740     29739     29741
     29739     29742     29743     29744     29745     29749     29745     29746
     29745     29747     29745     29748     29749     29750     29751     29755
     29751     29752     29751     29753     29751     29754     29755     29756
     29757     29761     29757     29758     29757     29759     29757     29760
     29761     29762     29763     29767     29763     29764     29763     29765
     29763     29766     29767     29768     29769     29773     29769     29770
     29769     29771     29769     29772     29773     29774     29775     29779
     29775     29776     29775     29777     29775     29778     29779     29780
     29781     29785     29781     29782     29781     29783     29781     29784
     29785     29786     29787     29791     29787     29788     29787     29789
     29787     29790     29791     29792     29793     29797     29793     29794
     29793     29795     29793     29796     29797     29798     29799     29803
     29799     29800     29799     29801     29799     29802     29803     29804
     29805     29809     29805     29806     29805     29807     29805     29808
     29809     29810     29811     29815     29811     29812     29811     29813
     29811     29814     29815     29816     29817     29821     29817     29818
     29817     29819     29817     29820     29821     29822     29823     29827
     29823     29824     29823     29825     29823     29826     29827     29828
     29829     29833     29829     29830     29829     29831     29829     29832
     29833     29834     29835     29839     29835     29836     29835     29837
     29835     29838     29839     29840     29841     29845     29841     29842
     29841     29843     29841     29844     29845     29846     29847     29851
     29847     29848     29847     29849     29847     29850     29851     29852
     29853     29857     29853     29854     29853     29855     29853     29856
     29857     29858     29859     29863     29859     29860     29859     29861
     29859     29862     29863     29864     29865     29869     29865     29866
     29865     29867     29865     29868     29869     29870     29871     29875
     29871     29872     29871     29873     29871     29874     29875     29876
     29877     29881     29877     29878     29877     29879     29877     29880
     29881     29882     29883     29887     29883     29884     29883     29885
     29883     29886     29887     29888     29889     29893     29889     29890
     29889     29891     29889     29892     29893     29894     29895     29899
     29895     29896     29895     29897     29895     29898     29899     29900
     29901     29905     29901     29902     29901     29903     29901     29904
     29905     29906     29907     29911     29907     29908     29907     29909
     29907     29910     29911     29912     29913     29917     29913     29914
     29913     29915     29913     29916     29917     29918     29919     29923
     29919     29920     29919     29921     29919     29922     29923     29924
     29925     29929     29925     29926     29925     29927     29925     29928
     29929     29930     29931     29935     29931     29932     29931     29933
     29931     29934     29935     29936     29937     29941     29937     29938
     29937     29939     29937     29940     29941     29942     29943     29947
     29943     29944     29943     29945     29943     29946     29947     29948
     29949     29953     29949     29950     29949     29951     29949     29952
     29953     29954     29955     29959     29955     29956     29955     29957
     29955     29958     29959     29960     29961     29965     29961     29962
     29961     29963     29961     29964     29965     29966     29967     29971
     29967     29968     29967     29969     29967     29970     29971     29972
     29973     29977     29973     29974     29973     29975     29973     29976
     29977     29978     29979     29983     29979     29980     29979     29981
     29979     29982     29983     29984     29985     29989     29985     29986
     29985     29987     29985     29988     29989     29990     29991     29995
     29991     29992     29991     29993     29991     29994     29995     29996
     29997     30001     29997     29998     29997     29999     29997     30000
     30001     30002     30003     30007     30003     30004     30003     30005
     30003     30006     30007     30008     30009     30013     30009     30010
     30009     30011     30009     30012     30013     30014     30015     30019
     30015     30016     30015     30017     30015     30018     30019     30020
     30021     30025     30021     30022     30021     30023     30021     30024
     30025     30026     30027     30031     30027     30028     30027     30029
     30027     30030     30031     30032     30033     30037     30033     30034
     30033     30035     30033     30036     30037     30038     30039     30043
     30039     30040     30039     30041     30039     30042     30043     30044
     30045     30049     30045     30046     30045     30047     30045     30048
     30049     30050     30051     30055     30051     30052     30051     30053
     30051     30054     30055     30056     30057     30061     30057     30058
     30057     30059     30057     30060     30061     30062     30063     30067
     30063     30064     30063     30065     30063     30066     30067     30068
     30069     30073     30069     30070     30069     30071     30069     30072
     30073     30074     30075     30079     30075     30076     30075     30077
     30075     30078     30079     30080     30081     30085     30081     30082
     30081     30083     30081     30084     30085     30086     30087     30091
     30087     30088     30087     30089     30087     30090     30091     30092
     30093     30097     30093     30094     30093     30095     30093     30096
     30097     30098     30099     30103     30099     30100     30099     30101
     30099     30102     30103     30104     30105     30109     30105     30106
     30105     30107     30105     30108     30109     30110     30111     30115
     30111     30112     30111     30113     30111     30114     30115     30116
     30117     30121     30117     30118     30117     30119     30117     30120
     30121     30122     30123     30127     30123     30124     30123     30125
     30123     30126     30127     30128     30129     30133     30129     30130
     30129     30131     30129     30132     30133     30134     30135     30139
     30135     30136     30135     30137     30135     30138     30139     30140
     30141     30145     30141     30142     30141     30143     30141     30144
     30145     30146     30147     30151     30147     30148     30147     30149
     30147     30150     30151     30152     30153     30157     30153     30154
     30153     30155     30153     30156     30157     30158     30159     30163
     30159     30160     30159     30161     30159     30162     30163     30164
     30165     30169     30165     30166     30165     30167     30165     30168
     30169     30170     30171     30175     30171     30172     30171     30173
     30171     30174     30175     30176     30177     30181     30177     30178
     30177     30179     30177     30180     30181     30182     30183     30187
     30183     30184     30183     30185     30183     30186     30187     30188
     30189     30193     30189     30190     30189     30191     30189     30192
     30193     30194     30195     30199     30195     30196     30195     30197
     30195     30198     30199     30200     30201     30205     30201     30202
     30201     30203     30201     30204     30205     30206     30207     30211
     30207     30208     30207     30209     30207     30210     30211     30212
     30213     30217     30213     30214     30213     30215     30213     30216
     30217     30218     30219     30223     30219     30220     30219     30221
     30219     30222     30223     30224     30225     30229     30225     30226
     30225     30227     30225     30228     30229     30230     30231     30235
     30231     30232     30231     30233     30231     30234     30235     30236
     30237     30241     30237     30238     30237     30239     30237     30240
     30241     30242     30243     30247     30243     30244     30243     30245
     30243     30246     30247     30248     30249     30253     30249     30250
     30249     30251     30249     30252     30253     30254     30255     30259
     30255     30256     30255     30257     30255     30258     30259     30260
     30261     30265     30261     30262     30261     30263     30261     30264
     30265     30266     30267     30271     30267     30268     30267     30269
     30267     30270     30271     30272     30273     30277     30273     30274
     30273     30275     30273     30276     30277     30278     30279     30283
     30279     30280     30279     30281     30279     30282     30283     30284
     30285     30289     30285     30286     30285     30287     30285     30288
     30289     30290     30291     30295     30291     30292     30291     30293
     30291     30294     30295     30296     30297     30301     30297     30298
     30297     30299     30297     30300     30301     30302     30303     30307
     30303     30304     30303     30305     30303     30306     30307     30308
     30309     30313     30309     30310     30309     30311     30309     30312
     30313     30314     30315     30319     30315     30316     30315     30317
     30315     30318     30319     30320     30321     30325     30321     30322
     30321     30323     30321     30324     30325     30326     30327     30331
     30327     30328     30327     30329     30327     30330     30331     30332
     30333     30337     30333     30334     30333     30335     30333     30336
     30337     30338     30339     30343     30339     30340     30339     30341
     30339     30342     30343     30344     30345     30349     30345     30346
     30345     30347     30345     30348     30349     30350     30351     30355
     30351     30352     30351     30353     30351     30354     30355     30356
     30357     30361     30357     30358     30357     30359     30357     30360
     30361     30362     30363     30367     30363     30364     30363     30365
     30363     30366     30367     30368     30369     30373     30369     30370
     30369     30371     30369     30372     30373     30374     30375     30379
     30375     30376     30375     30377     30375     30378     30379     30380
     30381     30385     30381     30382     30381     30383     30381     30384
     30385     30386     30387     30391     30387     30388     30387     30389
     30387     30390     30391     30392     30393     30397     30393     30394
     30393     30395     30393     30396     30397     30398     30399     30403
     30399     30400     30399     30401     30399     30402     30403     30404
     30405     30409     30405     30406     30405     30407     30405     30408
     30409     30410     30411     30415     30411     30412     30411     30413
     30411     30414     30415     30416     30417     30421     30417     30418
     30417     30419     30417     30420     30421     30422     30423     30427
     30423     30424     30423     30425     30423     30426     30427     30428
     30429     30433     30429     30430     30429     30431     30429     30432
     30433     30434     30435     30439     30435     30436     30435     30437
     30435     30438     30439     30440     30441     30445     30441     30442
     30441     30443     30441     30444     30445     30446     30447     30451
     30447     30448     30447     30449     30447     30450     30451     30452
     30453     30457     30453     30454     30453     30455     30453     30456
     30457     30458     30459     30463     30459     30460     30459     30461
     30459     30462     30463     30464     30465     30469     30465     30466
     30465     30467     30465     30468     30469     30470     30471     30475
     30471     30472     30471     30473     30471     30474     30475     30476
     30477     30481     30477     30478     30477     30479     30477     30480
     30481     30482     30483     30487     30483     30484     30483     30485
     30483     30486     30487     30488     30489     30493     30489     30490
     30489     30491     30489     30492     30493     30494     30495     30499
     30495     30496     30495     30497     30495     30498     30499     30500
     30501     30505     30501     30502     30501     30503     30501     30504
     30505     30506     30507     30511     30507     30508     30507     30509
     30507     30510     30511     30512     30513     30517     30513     30514
     30513     30515     30513     30516     30517     30518     30519     30523
     30519     30520     30519     30521     30519     30522     30523     30524
     30525     30529     30525     30526     30525     30527     30525     30528
     30529     30530     30531     30535     30531     30532     30531     30533
     30531     30534     30535     30536     30537     30541     30537     30538
     30537     30539     30537     30540     30541     30542     30543     30547
     30543     30544     30543     30545     30543     30546     30547     30548
     30549     30553     30549     30550     30549     30551     30549     30552
     30553     30554     30555     30559     30555     30556     30555     30557
     30555     30558     30559     30560     30561     30565     30561     30562
     30561     30563     30561     30564     30565     30566     30567     30571
     30567     30568     30567     30569     30567     30570     30571     30572
     30573     30577     30573     30574     30573     30575     30573     30576
     30577     30578     30579     30583     30579     30580     30579     30581
     30579     30582     30583     30584     30585     30589     30585     30586
     30585     30587     30585     30588     30589     30590     30591     30595
     30591     30592     30591     30593     30591     30594     30595     30596
     30597     30601     30597     30598     30597     30599     30597     30600
     30601     30602     30603     30607     30603     30604     30603     30605
     30603     30606     30607     30608     30609     30613     30609     30610
     30609     30611     30609     30612     30613     30614     30615     30619
     30615     30616     30615     30617     30615     30618     30619     30620
     30621     30625     30621     30622     30621     30623     30621     30624
     30625     30626     30627     30631     30627     30628     30627     30629
     30627     30630     30631     30632     30633     30637     30633     30634
     30633     30635     30633     30636     30637     30638     30639     30643
     30639     30640     30639     30641     30639     30642     30643     30644
     30645     30649     30645     30646     30645     30647     30645     30648
     30649     30650     30651     30655     30651     30652     30651     30653
     30651     30654     30655     30656     30657     30661     30657     30658
     30657     30659     30657     30660     30661     30662     30663     30667
     30663     30664     30663     30665     30663     30666     30667     30668
     30669     30673     30669     30670     30669     30671     30669     30672
     30673     30674     30675     30679     30675     30676     30675     30677
     30675     30678     30679     30680     30681     30685     30681     30682
     30681     30683     30681     30684     30685     30686     30687     30691
     30687     30688     30687     30689     30687     30690     30691     30692
     30693     30697     30693     30694     30693     30695     30693     30696
     30697     30698     30699     30703     30699     30700     30699     30701
     30699     30702     30703     30704     30705     30709     30705     30706
     30705     30707     30705     30708     30709     30710     30711     30715
     30711     30712     30711     30713     30711     30714     30715     30716
     30717     30721     30717     30718     30717     30719     30717     30720
     30721     30722     30723     30727     30723     30724     30723     30725
     30723     30726     30727     30728     30729     30733     30729     30730
     30729     30731     30729     30732     30733     30734     30735     30739
     30735     30736     30735     30737     30735     30738     30739     30740
     30741     30745     30741     30742     30741     30743     30741     30744
     30745     30746     30747     30751     30747     30748     30747     30749
     30747     30750     30751     30752     30753     30757     30753     30754
     30753     30755     30753     30756     30757     30758     30759     30763
     30759     30760     30759     30761     30759     30762     30763     30764
     30765     30769     30765     30766     30765     30767     30765     30768
     30769     30770     30771     30775     30771     30772     30771     30773
     30771     30774     30775     30776     30777     30781     30777     30778
     30777     30779     30777     30780     30781     30782     30783     30787
     30783     30784     30783     30785     30783     30786     30787     30788
     30789     30793     30789     30790     30789     30791     30789     30792
     30793     30794     30795     30799     30795     30796     30795     30797
     30795     30798     30799     30800     30801     30805     30801     30802
     30801     30803     30801     30804     30805     30806     30807     30811
     30807     30808     30807     30809     30807     30810     30811     30812
     30813     30817     30813     30814     30813     30815     30813     30816
     30817     30818     30819     30823     30819     30820     30819     30821
     30819     30822     30823     30824     30825     30829     30825     30826
     30825     30827     30825     30828     30829     30830     30831     30835
     30831     30832     30831     30833     30831     30834     30835     30836
     30837     30841     30837     30838     30837     30839     30837     30840
     30841     30842     30843     30847     30843     30844     30843     30845
     30843     30846     30847     30848     30849     30853     30849     30850
     30849     30851     30849     30852     30853     30854     30855     30859
     30855     30856     30855     30857     30855     30858     30859     30860
     30861     30865     30861     30862     30861     30863     30861     30864
     30865     30866     30867     30871     30867     30868     30867     30869
     30867     30870     30871     30872     30873     30877     30873     30874
     30873     30875     30873     30876     30877     30878     30879     30883
     30879     30880     30879     30881     30879     30882     30883     30884
     30885     30889     30885     30886     30885     30887     30885     30888
     30889     30890     30891     30895     30891     30892     30891     30893
     30891     30894     30895     30896     30897     30901     30897     30898
     30897     30899     30897     30900     30901     30902     30903     30907
     30903     30904     30903     30905     30903     30906     30907     30908
     30909     30913     30909     30910     30909     30911     30909     30912
     30913     30914     30915     30919     30915     30916     30915     30917
     30915     30918     30919     30920     30921     30925     30921     30922
     30921     30923     30921     30924     30925     30926     30927     30931
     30927     30928     30927     30929     30927     30930     30931     30932
     30933     30937     30933     30934     30933     30935     30933     30936
     30937     30938     30939     30943     30939     30940     30939     30941
     30939     30942     30943     30944     30945     30949     30945     30946
     30945     30947     30945     30948     30949     30950     30951     30955
     30951     30952     30951     30953     30951     30954     30955     30956
     30957     30961     30957     30958     30957     30959     30957     30960
     30961     30962     30963     30967     30963     30964     30963     30965
     30963     30966     30967     30968     30969     30973     30969     30970
     30969     30971     30969     30972     30973     30974     30975     30979
     30975     30976     30975     30977     30975     30978     30979     30980
     30981     30985     30981     30982     30981     30983     30981     30984
     30985     30986     30987     30991     30987     30988     30987     30989
     30987     30990     30991     30992     30993     30997     30993     30994
     30993     30995     30993     30996     30997     30998     30999     31003
     30999     31000     30999     31001     30999     31002     31003     31004
     31005     31009     31005     31006     31005     31007     31005     31008
     31009     31010     31011     31015     31011     31012     31011     31013
     31011     31014     31015     31016     31017     31021     31017     31018
     31017     31019     31017     31020     31021     31022     31023     31027
     31023     31024     31023     31025     31023     31026     31027     31028
     31029     31033     31029     31030     31029     31031     31029     31032
     31033     31034     31035     31039     31035     31036     31035     31037
     31035     31038     31039     31040     31041     31045     31041     31042
     31041     31043     31041     31044     31045     31046     31047     31051
     31047     31048     31047     31049     31047     31050     31051     31052
     31053     31057     31053     31054     31053     31055     31053     31056
     31057     31058     31059     31063     31059     31060     31059     31061
     31059     31062     31063     31064     31065     31069     31065     31066
     31065     31067     31065     31068     31069     31070     31071     31075
     31071     31072     31071     31073     31071     31074     31075     31076
     31077     31081     31077     31078     31077     31079     31077     31080
     31081     31082     31083     31087     31083     31084     31083     31085
     31083     31086     31087     31088     31089     31093     31089     31090
     31089     31091     31089     31092     31093     31094     31095     31099
     31095     31096     31095     31097     31095     31098     31099     31100
     31101     31105     31101     31102     31101     31103     31101     31104
     31105     31106     31107     31111     31107     31108     31107     31109
     31107     31110     31111     31112     31113     31117     31113     31114
     31113     31115     31113     31116     31117     31118     31119     31123
     31119     31120     31119     31121     31119     31122     31123     31124
     31125     31129     31125     31126     31125     31127     31125     31128
     31129     31130     31131     31135     31131     31132     31131     31133
     31131     31134     31135     31136     31137     31141     31137     31138
     31137     31139     31137     31140     31141     31142     31143     31147
     31143     31144     31143     31145     31143     31146     31147     31148
     31149     31153     31149     31150     31149     31151     31149     31152
     31153     31154     31155     31159     31155     31156     31155     31157
     31155     31158     31159     31160     31161     31165     31161     31162
     31161     31163     31161     31164     31165     31166     31167     31171
     31167     31168     31167     31169     31167     31170     31171     31172
     31173     31177     31173     31174     31173     31175     31173     31176
     31177     31178     31179     31183     31179     31180     31179     31181
     31179     31182     31183     31184     31185     31189     31185     31186
     31185     31187     31185     31188     31189     31190     31191     31195
     31191     31192     31191     31193     31191     31194     31195     31196
     31197     31201     31197     31198     31197     31199     31197     31200
     31201     31202     31203     31207     31203     31204     31203     31205
     31203     31206     31207     31208     31209     31213     31209     31210
     31209     31211     31209     31212     31213     31214     31215     31219
     31215     31216     31215     31217     31215     31218     31219     31220
     31221     31225     31221     31222     31221     31223     31221     31224
     31225     31226     31227     31231     31227     31228     31227     31229
     31227     31230     31231     31232     31233     31237     31233     31234
     31233     31235     31233     31236     31237     31238     31239     31243
     31239     31240     31239     31241     31239     31242     31243     31244
     31245     31249     31245     31246     31245     31247     31245     31248
     31249     31250     31251     31255     31251     31252     31251     31253
     31251     31254     31255     31256     31257     31261     31257     31258
     31257     31259     31257     31260     31261     31262     31263     31267
     31263     31264     31263     31265     31263     31266     31267     31268
     31269     31273     31269     31270     31269     31271     31269     31272
     31273     31274     31275     31279     31275     31276     31275     31277
     31275     31278     31279     31280     31281     31285     31281     31282
     31281     31283     31281     31284     31285     31286     31287     31291
     31287     31288     31287     31289     31287     31290     31291     31292
     31293     31297     31293     31294     31293     31295     31293     31296
     31297     31298     31299     31303     31299     31300     31299     31301
     31299     31302     31303     31304     31305     31309     31305     31306
     31305     31307     31305     31308     31309     31310     31311     31315
     31311     31312     31311     31313     31311     31314     31315     31316
     31317     31321     31317     31318     31317     31319     31317     31320
     31321     31322     31323     31327     31323     31324     31323     31325
     31323     31326     31327     31328     31329     31333     31329     31330
     31329     31331     31329     31332     31333     31334     31335     31339
     31335     31336     31335     31337     31335     31338     31339     31340
     31341     31345     31341     31342     31341     31343     31341     31344
     31345     31346     31347     31351     31347     31348     31347     31349
     31347     31350     31351     31352     31353     31357     31353     31354
     31353     31355     31353     31356     31357     31358     31359     31363
     31359     31360     31359     31361     31359     31362     31363     31364
     31365     31369     31365     31366     31365     31367     31365     31368
     31369     31370     31371     31375     31371     31372     31371     31373
     31371     31374     31375     31376     31377     31381     31377     31378
     31377     31379     31377     31380     31381     31382     31383     31387
     31383     31384     31383     31385     31383     31386     31387     31388
     31389     31393     31389     31390     31389     31391     31389     31392
     31393     31394     31395     31399     31395     31396     31395     31397
     31395     31398     31399     31400     31401     31405     31401     31402
     31401     31403     31401     31404     31405     31406     31407     31411
     31407     31408     31407     31409     31407     31410     31411     31412
     31413     31417     31413     31414     31413     31415     31413     31416
     31417     31418     31419     31423     31419     31420     31419     31421
     31419     31422     31423     31424     31425     31429     31425     31426
     31425     31427     31425     31428     31429     31430     31431     31435
     31431     31432     31431     31433     31431     31434     31435     31436
     31437     31441     31437     31438     31437     31439     31437     31440
     31441     31442     31443     31447     31443     31444     31443     31445
     31443     31446     31447     31448     31449     31453     31449     31450
     31449     31451     31449     31452     31453     31454     31455     31459
     31455     31456     31455     31457     31455     31458     31459     31460
     31461     31465     31461     31462     31461     31463     31461     31464
     31465     31466     31467     31471     31467     31468     31467     31469
     31467     31470     31471     31472     31473     31477     31473     31474
     31473     31475     31473     31476     31477     31478     31479     31483
     31479     31480     31479     31481     31479     31482     31483     31484
     31485     31489     31485     31486     31485     31487     31485     31488
     31489     31490     31491     31495     31491     31492     31491     31493
     31491     31494     31495     31496     31497     31501     31497     31498
     31497     31499     31497     31500     31501     31502     31503     31507
     31503     31504     31503     31505     31503     31506     31507     31508
     31509     31513     31509     31510     31509     31511     31509     31512
     31513     31514     31515     31519     31515     31516     31515     31517
     31515     31518     31519     31520     31521     31525     31521     31522
     31521     31523     31521     31524     31525     31526     31527     31531
     31527     31528     31527     31529     31527     31530     31531     31532
     31533     31537     31533     31534     31533     31535     31533     31536
     31537     31538     31539     31543     31539     31540     31539     31541
     31539     31542     31543     31544     31545     31549     31545     31546
     31545     31547     31545     31548     31549     31550     31551     31555
     31551     31552     31551     31553     31551     31554     31555     31556
     31557     31561     31557     31558     31557     31559     31557     31560
     31561     31562     31563     31567     31563     31564     31563     31565
     31563     31566     31567     31568     31569     31573     31569     31570
     31569     31571     31569     31572     31573     31574     31575     31579
     31575     31576     31575     31577     31575     31578     31579     31580
     31581     31585     31581     31582     31581     31583     31581     31584
     31585     31586     31587     31591     31587     31588     31587     31589
     31587     31590     31591     31592     31593     31597     31593     31594
     31593     31595     31593     31596     31597     31598     31599     31603
     31599     31600     31599     31601     31599     31602     31603     31604
     31605     31609     31605     31606     31605     31607     31605     31608
     31609     31610     31611     31615     31611     31612     31611     31613
     31611     31614     31615     31616     31617     31621     31617     31618
     31617     31619     31617     31620     31621     31622     31623     31627
     31623     31624     31623     31625     31623     31626     31627     31628
     31629     31633     31629     31630     31629     31631     31629     31632
     31633     31634     31635     31639     31635     31636     31635     31637
     31635     31638     31639     31640     31641     31645     31641     31642
     31641     31643     31641     31644     31645     31646     31647     31651
     31647     31648     31647     31649     31647     31650     31651     31652
     31653     31657     31653     31654     31653     31655     31653     31656
     31657     31658     31659     31663     31659     31660     31659     31661
     31659     31662     31663     31664     31665     31669     31665     31666
     31665     31667     31665     31668     31669     31670     31671     31675
     31671     31672     31671     31673     31671     31674     31675     31676
     31677     31681     31677     31678     31677     31679     31677     31680
     31681     31682     31683     31687     31683     31684     31683     31685
     31683     31686     31687     31688     31689     31693     31689     31690
     31689     31691     31689     31692     31693     31694     31695     31699
     31695     31696     31695     31697     31695     31698     31699     31700
     31701     31705     31701     31702     31701     31703     31701     31704
     31705     31706     31707     31711     31707     31708     31707     31709
     31707     31710     31711     31712     31713     31717     31713     31714
     31713     31715     31713     31716     31717     31718     31719     31723
     31719     31720     31719     31721     31719     31722     31723     31724
     31725     31729     31725     31726     31725     31727     31725     31728
     31729     31730     31731     31735     31731     31732     31731     31733
     31731     31734     31735     31736     31737     31741     31737     31738
     31737     31739     31737     31740     31741     31742     31743     31747
     31743     31744     31743     31745     31743     31746     31747     31748
     31749     31753     31749     31750     31749     31751     31749     31752
     31753     31754     31755     31759     31755     31756     31755     31757
     31755     31758     31759     31760     31761     31765     31761     31762
     31761     31763     31761     31764     31765     31766     31767     31771
     31767     31768     31767     31769     31767     31770     31771     31772
     31773     31777     31773     31774     31773     31775     31773     31776
     31777     31778     31779     31783     31779     31780     31779     31781
     31779     31782     31783     31784     31785     31789     31785     31786
     31785     31787     31785     31788     31789     31790     31791     31795
     31791     31792     31791     31793     31791     31794     31795     31796
     31797     31801     31797     31798     31797     31799     31797     31800
     31801     31802     31803     31807     31803     31804     31803     31805
     31803     31806     31807     31808     31809     31813     31809     31810
     31809     31811     31809     31812     31813     31814     31815     31819
     31815     31816     31815     31817     31815     31818     31819     31820
     31821     31825     31821     31822     31821     31823     31821     31824
     31825     31826     31827     31831     31827     31828     31827     31829
     31827     31830     31831     31832     31833     31837     31833     31834
     31833     31835     31833     31836     31837     31838     31839     31843
     31839     31840     31839     31841     31839     31842     31843     31844
     31845     31849     31845     31846     31845     31847     31845     31848
     31849     31850     31851     31855     31851     31852     31851     31853
     31851     31854     31855     31856     31857     31861     31857     31858
     31857     31859     31857     31860     31861     31862     31863     31867
     31863     31864     31863     31865     31863     31866     31867     31868
     31869     31873     31869     31870     31869     31871     31869     31872
     31873     31874     31875     31879     31875     31876     31875     31877
     31875     31878     31879     31880     31881     31885     31881     31882
     31881     31883     31881     31884     31885     31886     31887     31891
     31887     31888     31887     31889     31887     31890     31891     31892
     31893     31897     31893     31894     31893     31895     31893     31896
     31897     31898     31899     31903     31899     31900     31899     31901
     31899     31902     31903     31904     31905     31909     31905     31906
     31905     31907     31905     31908     31909     31910     31911     31915
     31911     31912     31911     31913     31911     31914     31915     31916
     31917     31921     31917     31918     31917     31919     31917     31920
     31921     31922     31923     31927     31923     31924     31923     31925
     31923     31926     31927     31928     31929     31933     31929     31930
     31929     31931     31929     31932     31933     31934     31935     31939
     31935     31936     31935     31937     31935     31938     31939     31940
     31941     31945     31941     31942     31941     31943     31941     31944
     31945     31946     31947     31951     31947     31948     31947     31949
     31947     31950     31951     31952     31953     31957     31953     31954
     31953     31955     31953     31956     31957     31958     31959     31963
     31959     31960     31959     31961     31959     31962     31963     31964
     31965     31969     31965     31966     31965     31967     31965     31968
     31969     31970     31971     31975     31971     31972     31971     31973
     31971     31974     31975     31976     31977     31981     31977     31978
     31977     31979     31977     31980     31981     31982     31983     31987
     31983     31984     31983     31985     31983     31986     31987     31988
     31989     31993     31989     31990     31989     31991     31989     31992
     31993     31994     31995     31999     31995     31996     31995     31997
     31995     31998     31999     32000     32001     32005     32001     32002
     32001     32003     32001     32004     32005     32006     32007     32011
     32007     32008     32007     32009     32007     32010     32011     32012
     32013     32017     32013     32014     32013     32015     32013     32016
     32017     32018     32019     32023     32019     32020     32019     32021
     32019     32022     32023     32024     32025     32029     32025     32026
     32025     32027     32025     32028     32029     32030     32031     32035
     32031     32032     32031     32033     32031     32034     32035     32036
     32037     32041     32037     32038     32037     32039     32037     32040
     32041     32042     32043     32047     32043     32044     32043     32045
     32043     32046     32047     32048     32049     32053     32049     32050
     32049     32051     32049     32052     32053     32054     32055     32059
     32055     32056     32055     32057     32055     32058     32059     32060
     32061     32065     32061     32062     32061     32063     32061     32064
     32065     32066     32067     32071     32067     32068     32067     32069
     32067     32070     32071     32072     32073     32077     32073     32074
     32073     32075     32073     32076     32077     32078     32079     32083
     32079     32080     32079     32081     32079     32082     32083     32084
     32085     32089     32085     32086     32085     32087     32085     32088
     32089     32090     32091     32095     32091     32092     32091     32093
     32091     32094     32095     32096     32097     32101     32097     32098
     32097     32099     32097     32100     32101     32102     32103     32107
     32103     32104     32103     32105     32103     32106     32107     32108
     32109     32113     32109     32110     32109     32111     32109     32112
     32113     32114     32115     32119     32115     32116     32115     32117
     32115     32118     32119     32120     32121     32125     32121     32122
     32121     32123     32121     32124     32125     32126     32127     32131
     32127     32128     32127     32129     32127     32130     32131     32132
     32133     32137     32133     32134     32133     32135     32133     32136
     32137     32138     32139     32143     32139     32140     32139     32141
     32139     32142     32143     32144     32145     32149     32145     32146
     32145     32147     32145     32148     32149     32150     32151     32155
     32151     32152     32151     32153     32151     32154     32155     32156
     32157     32161     32157     32158     32157     32159     32157     32160
     32161     32162     32163     32167     32163     32164     32163     32165
     32163     32166     32167     32168     32169     32173     32169     32170
     32169     32171     32169     32172     32173     32174     32175     32179
     32175     32176     32175     32177     32175     32178     32179     32180
     32181     32185     32181     32182     32181     32183     32181     32184
     32185     32186     32187     32191     32187     32188     32187     32189
     32187     32190     32191     32192     32193     32197     32193     32194
     32193     32195     32193     32196     32197     32198     32199     32203
     32199     32200     32199     32201     32199     32202     32203     32204
     32205     32209     32205     32206     32205     32207     32205     32208
     32209     32210     32211     32215     32211     32212     32211     32213
     32211     32214     32215     32216     32217     32221     32217     32218
     32217     32219     32217     32220     32221     32222     32223     32227
     32223     32224     32223     32225     32223     32226     32227     32228
     32229     32233     32229     32230     32229     32231     32229     32232
     32233     32234     32235     32239     32235     32236     32235     32237
     32235     32238     32239     32240     32241     32245     32241     32242
     32241     32243     32241     32244     32245     32246     32247     32251
     32247     32248     32247     32249     32247     32250     32251     32252
     32253     32257     32253     32254     32253     32255     32253     32256
     32257     32258     32259     32263     32259     32260     32259     32261
     32259     32262     32263     32264     32265     32269     32265     32266
     32265     32267     32265     32268     32269     32270     32271     32275
     32271     32272     32271     32273     32271     32274     32275     32276
     32277     32281     32277     32278     32277     32279     32277     32280
     32281     32282     32283     32287     32283     32284     32283     32285
     32283     32286     32287     32288     32289     32293     32289     32290
     32289     32291     32289     32292     32293     32294     32295     32299
     32295     32296     32295     32297     32295     32298     32299     32300
     32301     32305     32301     32302     32301     32303     32301     32304
     32305     32306     32307     32311     32307     32308     32307     32309
     32307     32310     32311     32312     32313     32317     32313     32314
     32313     32315     32313     32316     32317     32318     32319     32323
     32319     32320     32319     32321     32319     32322     32323     32324
     32325     32329     32325     32326     32325     32327     32325     32328
     32329     32330     32331     32335     32331     32332     32331     32333
     32331     32334     32335     32336     32337     32341     32337     32338
     32337     32339     32337     32340     32341     32342     32343     32347
     32343     32344     32343     32345     32343     32346     32347     32348
     32349     32353     32349     32350     32349     32351     32349     32352
     32353     32354     32355     32359     32355     32356     32355     32357
     32355     32358     32359     32360     32361     32365     32361     32362
     32361     32363     32361     32364     32365     32366     32367     32371
     32367     32368     32367     32369     32367     32370     32371     32372
     32373     32377     32373     32374     32373     32375     32373     32376
     32377     32378     32379     32383     32379     32380     32379     32381
     32379     32382     32383     32384     32385     32389     32385     32386
     32385     32387     32385     32388     32389     32390     32391     32395
     32391     32392     32391     32393     32391     32394     32395     32396
     32397     32401     32397     32398     32397     32399     32397     32400
     32401     32402     32403     32407     32403     32404     32403     32405
     32403     32406     32407     32408     32409     32413     32409     32410
     32409     32411     32409     32412     32413     32414     32415     32419
     32415     32416     32415     32417     32415     32418     32419     32420
     32421     32425     32421     32422     32421     32423     32421     32424
     32425     32426     32427     32431     32427     32428     32427     32429
     32427     32430     32431     32432     32433     32437     32433     32434
     32433     32435     32433     32436     32437     32438     32439     32443
     32439     32440     32439     32441     32439     32442     32443     32444
     32445     32449     32445     32446     32445     32447     32445     32448
     32449     32450     32451     32455     32451     32452     32451     32453
     32451     32454     32455     32456     32457     32461     32457     32458
     32457     32459     32457     32460     32461     32462     32463     32467
     32463     32464     32463     32465     32463     32466     32467     32468
     32469     32473     32469     32470     32469     32471     32469     32472
     32473     32474     32475     32479     32475     32476     32475     32477
     32475     32478     32479     32480     32481     32485     32481     32482
     32481     32483     32481     32484     32485     32486     32487     32491
     32487     32488     32487     32489     32487     32490     32491     32492
     32493     32497     32493     32494     32493     32495     32493     32496
     32497     32498     32499     32503     32499     32500     32499     32501
     32499     32502     32503     32504     32505     32509     32505     32506
     32505     32507     32505     32508     32509     32510     32511     32515
     32511     32512     32511     32513     32511     32514     32515     32516
     32517     32521     32517     32518     32517     32519     32517     32520
     32521     32522     32523     32527     32523     32524     32523     32525
     32523     32526     32527     32528     32529     32533     32529     32530
     32529     32531     32529     32532     32533     32534     32535     32539
     32535     32536     32535     32537     32535     32538     32539     32540
     32541     32545     32541     32542     32541     32543     32541     32544
     32545     32546     32547     32551     32547     32548     32547     32549
     32547     32550     32551     32552     32553     32557     32553     32554
     32553     32555     32553     32556     32557     32558     32559     32563
     32559     32560     32559     32561     32559     32562     32563     32564
     32565     32569     32565     32566     32565     32567     32565     32568
     32569     32570     32571     32575     32571     32572     32571     32573
     32571     32574     32575     32576     32577     32581     32577     32578
     32577     32579     32577     32580     32581     32582     32583     32587
     32583     32584     32583     32585     32583     32586     32587     32588
     32589     32593     32589     32590     32589     32591     32589     32592
     32593     32594     32595     32599     32595     32596     32595     32597
     32595     32598     32599     32600     32601     32605     32601     32602
     32601     32603     32601     32604     32605     32606     32607     32611
     32607     32608     32607     32609     32607     32610     32611     32612
     32613     32617     32613     32614     32613     32615     32613     32616
     32617     32618     32619     32623     32619     32620     32619     32621
     32619     32622     32623     32624     32625     32629     32625     32626
     32625     32627     32625     32628     32629     32630     32631     32635
     32631     32632     32631     32633     32631     32634     32635     32636
     32637     32641     32637     32638     32637     32639     32637     32640
     32641     32642     32643     32647     32643     32644     32643     32645
     32643     32646     32647     32648     32649     32653     32649     32650
     32649     32651     32649     32652     32653     32654     32655     32659
     32655     32656     32655     32657     32655     32658     32659     32660
     32661     32665     32661     32662     32661     32663     32661     32664
     32665     32666     32667     32671     32667     32668     32667     32669
     32667     32670     32671     32672     32673     32677     32673     32674
     32673     32675     32673     32676     32677     32678     32679     32683
     32679     32680     32679     32681     32679     32682     32683     32684
     32685     32689     32685     32686     32685     32687     32685     32688
     32689     32690     32691     32695     32691     32692     32691     32693
     32691     32694     32695     32696     32697     32701     32697     32698
     32697     32699     32697     32700     32701     32702     32703     32707
     32703     32704     32703     32705     32703     32706     32707     32708
     32709     32713     32709     32710     32709     32711     32709     32712
     32713     32714     32715     32719     32715     32716     32715     32717
     32715     32718     32719     32720     32721     32725     32721     32722
     32721     32723     32721     32724     32725     32726     32727     32731
     32727     32728     32727     32729     32727     32730     32731     32732
     32733     32737     32733     32734     32733     32735     32733     32736
     32737     32738     32739     32743     32739     32740     32739     32741
     32739     32742     32743     32744     32745     32749     32745     32746
     32745     32747     32745     32748     32749     32750     32751     32755
     32751     32752     32751     32753     32751     32754     32755     32756
     32757     32761     32757     32758     32757     32759     32757     32760
     32761     32762     32763     32767     32763     32764     32763     32765
     32763     32766     32767     32768     32769     32773     32769     32770
     32769     32771     32769     32772     32773     32774     32775     32779
     32775     32776     32775     32777     32775     32778     32779     32780
     32781     32785     32781     32782     32781     32783     32781     32784
     32785     32786     32787     32791     32787     32788     32787     32789
     32787     32790     32791     32792     32793     32797     32793     32794
     32793     32795     32793     32796     32797     32798     32799     32803
     32799     32800     32799     32801     32799     32802     32803     32804
     32805     32809     32805     32806     32805     32807     32805     32808
     32809     32810     32811     32815     32811     32812     32811     32813
     32811     32814     32815     32816     32817     32821     32817     32818
     32817     32819     32817     32820     32821     32822     32823     32827
     32823     32824     32823     32825     32823     32826     32827     32828
     32829     32833     32829     32830     32829     32831     32829     32832
     32833     32834     32835     32839     32835     32836     32835     32837
     32835     32838     32839     32840     32841     32845     32841     32842
     32841     32843     32841     32844     32845     32846     32847     32851
     32847     32848     32847     32849     32847     32850     32851     32852
     32853     32857     32853     32854     32853     32855     32853     32856
     32857     32858     32859     32863     32859     32860     32859     32861
     32859     32862     32863     32864     32865     32869     32865     32866
     32865     32867     32865     32868     32869     32870     32871     32875
     32871     32872     32871     32873     32871     32874     32875     32876
     32877     32881     32877     32878     32877     32879     32877     32880
     32881     32882     32883     32887     32883     32884     32883     32885
     32883     32886     32887     32888     32889     32893     32889     32890
     32889     32891     32889     32892     32893     32894     32895     32899
     32895     32896     32895     32897     32895     32898     32899     32900
     32901     32905     32901     32902     32901     32903     32901     32904
     32905     32906     32907     32911     32907     32908     32907     32909
     32907     32910     32911     32912     32913     32917     32913     32914
     32913     32915     32913     32916     32917     32918     32919     32923
     32919     32920     32919     32921     32919     32922     32923     32924
     32925     32929     32925     32926     32925     32927     32925     32928
     32929     32930     32931     32935     32931     32932     32931     32933
     32931     32934     32935     32936     32937     32941     32937     32938
     32937     32939     32937     32940     32941     32942     32943     32947
     32943     32944     32943     32945     32943     32946     32947     32948
     32949     32953     32949     32950     32949     32951     32949     32952
     32953     32954     32955     32959     32955     32956     32955     32957
     32955     32958     32959     32960     32961     32965     32961     32962
     32961     32963     32961     32964     32965     32966     32967     32971
     32967     32968     32967     32969     32967     32970     32971     32972
     32973     32977     32973     32974     32973     32975     32973     32976
     32977     32978     32979     32983     32979     32980     32979     32981
     32979     32982     32983     32984     32985     32989     32985     32986
     32985     32987     32985     32988     32989     32990     32991     32995
     32991     32992     32991     32993     32991     32994     32995     32996
     32997     33001     32997     32998     32997     32999     32997     33000
     33001     33002     33003     33007     33003     33004     33003     33005
     33003     33006     33007     33008     33009     33013     33009     33010
     33009     33011     33009     33012     33013     33014     33015     33019
     33015     33016     33015     33017     33015     33018     33019     33020
     33021     33025     33021     33022     33021     33023     33021     33024
     33025     33026     33027     33031     33027     33028     33027     33029
     33027     33030     33031     33032     33033     33037     33033     33034
     33033     33035     33033     33036     33037     33038     33039     33043
     33039     33040     33039     33041     33039     33042     33043     33044
     33045     33049     33045     33046     33045     33047     33045     33048
     33049     33050     33051     33055     33051     33052     33051     33053
     33051     33054     33055     33056     33057     33061     33057     33058
     33057     33059     33057     33060     33061     33062     33063     33067
     33063     33064     33063     33065     33063     33066     33067     33068
     33069     33073     33069     33070     33069     33071     33069     33072
     33073     33074     33075     33079     33075     33076     33075     33077
     33075     33078     33079     33080     33081     33085     33081     33082
     33081     33083     33081     33084     33085     33086     33087     33091
     33087     33088     33087     33089     33087     33090     33091     33092
     33093     33097     33093     33094     33093     33095     33093     33096
     33097     33098     33099     33103     33099     33100     33099     33101
     33099     33102     33103     33104     33105     33109     33105     33106
     33105     33107     33105     33108     33109     33110     33111     33115
     33111     33112     33111     33113     33111     33114     33115     33116
     33117     33121     33117     33118     33117     33119     33117     33120
     33121     33122     33123     33127     33123     33124     33123     33125
     33123     33126     33127     33128     33129     33133     33129     33130
     33129     33131     33129     33132     33133     33134     33135     33139
     33135     33136     33135     33137     33135     33138     33139     33140
     33141     33145     33141     33142     33141     33143     33141     33144
     33145     33146     33147     33151     33147     33148     33147     33149
     33147     33150     33151     33152     33153     33157     33153     33154
     33153     33155     33153     33156     33157     33158     33159     33163
     33159     33160     33159     33161     33159     33162     33163     33164
     33165     33169     33165     33166     33165     33167     33165     33168
     33169     33170     33171     33175     33171     33172     33171     33173
     33171     33174     33175     33176     33177     33181     33177     33178
     33177     33179     33177     33180     33181     33182     33183     33187
     33183     33184     33183     33185     33183     33186     33187     33188
     33189     33193     33189     33190     33189     33191     33189     33192
     33193     33194     33195     33199     33195     33196     33195     33197
     33195     33198     33199     33200     33201     33205     33201     33202
     33201     33203     33201     33204     33205     33206     33207     33211
     33207     33208     33207     33209     33207     33210     33211     33212
     33213     33217     33213     33214     33213     33215     33213     33216
     33217     33218     33219     33223     33219     33220     33219     33221
     33219     33222     33223     33224     33225     33229     33225     33226
     33225     33227     33225     33228     33229     33230     33231     33235
     33231     33232     33231     33233     33231     33234     33235     33236
     33237     33241     33237     33238     33237     33239     33237     33240
     33241     33242     33243     33247     33243     33244     33243     33245
     33243     33246     33247     33248     33249     33253     33249     33250
     33249     33251     33249     33252     33253     33254     33255     33259
     33255     33256     33255     33257     33255     33258     33259     33260
     33261     33265     33261     33262     33261     33263     33261     33264
     33265     33266     33267     33271     33267     33268     33267     33269
     33267     33270     33271     33272     33273     33277     33273     33274
     33273     33275     33273     33276     33277     33278     33279     33283
     33279     33280     33279     33281     33279     33282     33283     33284
     33285     33289     33285     33286     33285     33287     33285     33288
     33289     33290     33291     33295     33291     33292     33291     33293
     33291     33294     33295     33296     33297     33301     33297     33298
     33297     33299     33297     33300     33301     33302     33303     33307
     33303     33304     33303     33305     33303     33306     33307     33308
     33309     33313     33309     33310     33309     33311     33309     33312
     33313     33314     33315     33319     33315     33316     33315     33317
     33315     33318     33319     33320     33321     33325     33321     33322
     33321     33323     33321     33324     33325     33326     33327     33331
     33327     33328     33327     33329     33327     33330     33331     33332
     33333     33337     33333     33334     33333     33335     33333     33336
     33337     33338     33339     33343     33339     33340     33339     33341
     33339     33342     33343     33344     33345     33349     33345     33346
     33345     33347     33345     33348     33349     33350     33351     33355
     33351     33352     33351     33353     33351     33354     33355     33356
     33357     33361     33357     33358     33357     33359     33357     33360
     33361     33362     33363     33367     33363     33364     33363     33365
     33363     33366     33367     33368     33369     33373     33369     33370
     33369     33371     33369     33372     33373     33374     33375     33379
     33375     33376     33375     33377     33375     33378     33379     33380
     33381     33385     33381     33382     33381     33383     33381     33384
     33385     33386     33387     33391     33387     33388     33387     33389
     33387     33390     33391     33392     33393     33397     33393     33394
     33393     33395     33393     33396     33397     33398     33399     33403
     33399     33400     33399     33401     33399     33402     33403     33404
     33405     33409     33405     33406     33405     33407     33405     33408
     33409     33410     33411     33415     33411     33412     33411     33413
     33411     33414     33415     33416     33417     33421     33417     33418
     33417     33419     33417     33420     33421     33422     33423     33427
     33423     33424     33423     33425     33423     33426     33427     33428
     33429     33433     33429     33430     33429     33431     33429     33432
     33433     33434     33435     33439     33435     33436     33435     33437
     33435     33438     33439     33440     33441     33445     33441     33442
     33441     33443     33441     33444     33445     33446     33447     33451
     33447     33448     33447     33449     33447     33450     33451     33452
     33453     33457     33453     33454     33453     33455     33453     33456
     33457     33458     33459     33463     33459     33460     33459     33461
     33459     33462     33463     33464     33465     33469     33465     33466
     33465     33467     33465     33468     33469     33470     33471     33475
     33471     33472     33471     33473     33471     33474     33475     33476
     33477     33481     33477     33478     33477     33479     33477     33480
     33481     33482     33483     33487     33483     33484     33483     33485
     33483     33486     33487     33488     33489     33493     33489     33490
     33489     33491     33489     33492     33493     33494     33495     33499
     33495     33496     33495     33497     33495     33498     33499     33500
     33501     33505     33501     33502     33501     33503     33501     33504
     33505     33506     33507     33511     33507     33508     33507     33509
     33507     33510     33511     33512     33513     33517     33513     33514
     33513     33515     33513     33516     33517     33518     33519     33523
     33519     33520     33519     33521     33519     33522     33523     33524
     33525     33529     33525     33526     33525     33527     33525     33528
     33529     33530     33531     33535     33531     33532     33531     33533
     33531     33534     33535     33536     33537     33541     33537     33538
     33537     33539     33537     33540     33541     33542     33543     33547
     33543     33544     33543     33545     33543     33546     33547     33548
     33549     33553     33549     33550     33549     33551     33549     33552
     33553     33554     33555     33559     33555     33556     33555     33557
     33555     33558     33559     33560     33561     33565     33561     33562
     33561     33563     33561     33564     33565     33566     33567     33571
     33567     33568     33567     33569     33567     33570     33571     33572
     33573     33577     33573     33574     33573     33575     33573     33576
     33577     33578     33579     33583     33579     33580     33579     33581
     33579     33582     33583     33584     33585     33589     33585     33586
     33585     33587     33585     33588     33589     33590     33591     33595
     33591     33592     33591     33593     33591     33594     33595     33596
     33597     33601     33597     33598     33597     33599     33597     33600
     33601     33602     33603     33607     33603     33604     33603     33605
     33603     33606     33607     33608     33609     33613     33609     33610
     33609     33611     33609     33612     33613     33614     33615     33619
     33615     33616     33615     33617     33615     33618     33619     33620
     33621     33625     33621     33622     33621     33623     33621     33624
     33625     33626     33627     33631     33627     33628     33627     33629
     33627     33630     33631     33632     33633     33637     33633     33634
     33633     33635     33633     33636     33637     33638     33639     33643
     33639     33640     33639     33641     33639     33642     33643     33644
     33645     33649     33645     33646     33645     33647     33645     33648
     33649     33650     33651     33655     33651     33652     33651     33653
     33651     33654     33655     33656     33657     33661     33657     33658
     33657     33659     33657     33660     33661     33662     33663     33667
     33663     33664     33663     33665     33663     33666     33667     33668
     33669     33673     33669     33670     33669     33671     33669     33672
     33673     33674     33675     33679     33675     33676     33675     33677
     33675     33678     33679     33680     33681     33685     33681     33682
     33681     33683     33681     33684     33685     33686     33687     33691
     33687     33688     33687     33689     33687     33690     33691     33692
     33693     33697     33693     33694     33693     33695     33693     33696
     33697     33698     33699     33703     33699     33700     33699     33701
     33699     33702     33703     33704     33705     33709     33705     33706
     33705     33707     33705     33708     33709     33710     33711     33715
     33711     33712     33711     33713     33711     33714     33715     33716
     33717     33721     33717     33718     33717     33719     33717     33720
     33721     33722     33723     33727     33723     33724     33723     33725
     33723     33726     33727     33728     33729     33733     33729     33730
     33729     33731     33729     33732     33733     33734     33735     33739
     33735     33736     33735     33737     33735     33738     33739     33740
     33741     33745     33741     33742     33741     33743     33741     33744
     33745     33746     33747     33751     33747     33748     33747     33749
     33747     33750     33751     33752     33753     33757     33753     33754
     33753     33755     33753     33756     33757     33758     33759     33763
     33759     33760     33759     33761     33759     33762     33763     33764
     33765     33769     33765     33766     33765     33767     33765     33768
     33769     33770     33771     33775     33771     33772     33771     33773
     33771     33774     33775     33776     33777     33781     33777     33778
     33777     33779     33777     33780     33781     33782     33783     33787
     33783     33784     33783     33785     33783     33786     33787     33788
     33789     33793     33789     33790     33789     33791     33789     33792
     33793     33794     33795     33799     33795     33796     33795     33797
     33795     33798     33799     33800     33801     33805     33801     33802
     33801     33803     33801     33804     33805     33806     33807     33811
     33807     33808     33807     33809     33807     33810     33811     33812
     33813     33817     33813     33814     33813     33815     33813     33816
     33817     33818     33819     33823     33819     33820     33819     33821
     33819     33822     33823     33824     33825     33829     33825     33826
     33825     33827     33825     33828     33829     33830     33831     33835
     33831     33832     33831     33833     33831     33834     33835     33836
     33837     33841     33837     33838     33837     33839     33837     33840
     33841     33842     33843     33847     33843     33844     33843     33845
     33843     33846     33847     33848     33849     33853     33849     33850
     33849     33851     33849     33852     33853     33854     33855     33859
     33855     33856     33855     33857     33855     33858     33859     33860
     33861     33865     33861     33862     33861     33863     33861     33864
     33865     33866     33867     33871     33867     33868     33867     33869
     33867     33870     33871     33872     33873     33877     33873     33874
     33873     33875     33873     33876     33877     33878     33879     33883
     33879     33880     33879     33881     33879     33882     33883     33884
     33885     33889     33885     33886     33885     33887     33885     33888
     33889     33890     33891     33895     33891     33892     33891     33893
     33891     33894     33895     33896     33897     33901     33897     33898
     33897     33899     33897     33900     33901     33902     33903     33907
     33903     33904     33903     33905     33903     33906     33907     33908
     33909     33913     33909     33910     33909     33911     33909     33912
     33913     33914     33915     33919     33915     33916     33915     33917
     33915     33918     33919     33920     33921     33925     33921     33922
     33921     33923     33921     33924     33925     33926     33927     33931
     33927     33928     33927     33929     33927     33930     33931     33932
     33933     33937     33933     33934     33933     33935     33933     33936
     33937     33938     33939     33943     33939     33940     33939     33941
     33939     33942     33943     33944     33945     33949     33945     33946
     33945     33947     33945     33948     33949     33950     33951     33955
     33951     33952     33951     33953     33951     33954     33955     33956
     33957     33961     33957     33958     33957     33959     33957     33960
     33961     33962     33963     33967     33963     33964     33963     33965
     33963     33966     33967     33968     33969     33973     33969     33970
     33969     33971     33969     33972     33973     33974     33975     33979
     33975     33976     33975     33977     33975     33978     33979     33980
     33981     33985     33981     33982     33981     33983     33981     33984
     33985     33986     33987     33991     33987     33988     33987     33989
     33987     33990     33991     33992     33993     33997     33993     33994
     33993     33995     33993     33996     33997     33998     33999     34003
     33999     34000     33999     34001     33999     34002     34003     34004
     34005     34009     34005     34006     34005     34007     34005     34008
     34009     34010     34011     34015     34011     34012     34011     34013
     34011     34014     34015     34016     34017     34021     34017     34018
     34017     34019     34017     34020     34021     34022     34023     34027
     34023     34024     34023     34025     34023     34026     34027     34028
     34029     34033     34029     34030     34029     34031     34029     34032
     34033     34034     34035     34039     34035     34036     34035     34037
     34035     34038     34039     34040     34041     34045     34041     34042
     34041     34043     34041     34044     34045     34046     34047     34051
     34047     34048     34047     34049     34047     34050     34051     34052
     34053     34057     34053     34054     34053     34055     34053     34056
     34057     34058     34059     34063     34059     34060     34059     34061
     34059     34062     34063     34064     34065     34069     34065     34066
     34065     34067     34065     34068     34069     34070     34071     34075
     34071     34072     34071     34073     34071     34074     34075     34076
     34077     34081     34077     34078     34077     34079     34077     34080
     34081     34082     34083     34087     34083     34084     34083     34085
     34083     34086     34087     34088     34089     34093     34089     34090
     34089     34091     34089     34092     34093     34094     34095     34099
     34095     34096     34095     34097     34095     34098     34099     34100
     34101     34105     34101     34102     34101     34103     34101     34104
     34105     34106     34107     34111     34107     34108     34107     34109
     34107     34110     34111     34112     34113     34117     34113     34114
     34113     34115     34113     34116     34117     34118     34119     34123
     34119     34120     34119     34121     34119     34122     34123     34124
     34125     34129     34125     34126     34125     34127     34125     34128
     34129     34130     34131     34135     34131     34132     34131     34133
     34131     34134     34135     34136     34137     34141     34137     34138
     34137     34139     34137     34140     34141     34142     34143     34147
     34143     34144     34143     34145     34143     34146     34147     34148
     34149     34153     34149     34150     34149     34151     34149     34152
     34153     34154     34155     34159     34155     34156     34155     34157
     34155     34158     34159     34160     34161     34165     34161     34162
     34161     34163     34161     34164     34165     34166     34167     34171
     34167     34168     34167     34169     34167     34170     34171     34172
     34173     34177     34173     34174     34173     34175     34173     34176
     34177     34178     34179     34183     34179     34180     34179     34181
     34179     34182     34183     34184     34185     34189     34185     34186
     34185     34187     34185     34188     34189     34190     34191     34195
     34191     34192     34191     34193     34191     34194     34195     34196
     34197     34201     34197     34198     34197     34199     34197     34200
     34201     34202     34203     34207     34203     34204     34203     34205
     34203     34206     34207     34208     34209     34213     34209     34210
     34209     34211     34209     34212     34213     34214     34215     34219
     34215     34216     34215     34217     34215     34218     34219     34220
     34221     34225     34221     34222     34221     34223     34221     34224
     34225     34226     34227     34231     34227     34228     34227     34229
     34227     34230     34231     34232     34233     34237     34233     34234
     34233     34235     34233     34236     34237     34238     34239     34243
     34239     34240     34239     34241     34239     34242     34243     34244
     34245     34249     34245     34246     34245     34247     34245     34248
     34249     34250     34251     34255     34251     34252     34251     34253
     34251     34254     34255     34256     34257     34261     34257     34258
     34257     34259     34257     34260     34261     34262     34263     34267
     34263     34264     34263     34265     34263     34266     34267     34268
     34269     34273     34269     34270     34269     34271     34269     34272
     34273     34274     34275     34279     34275     34276     34275     34277
     34275     34278     34279     34280     34281     34285     34281     34282
     34281     34283     34281     34284     34285     34286     34287     34291
     34287     34288     34287     34289     34287     34290     34291     34292
     34293     34297     34293     34294     34293     34295     34293     34296
     34297     34298     34299     34303     34299     34300     34299     34301
     34299     34302     34303     34304     34305     34309     34305     34306
     34305     34307     34305     34308     34309     34310     34311     34315
     34311     34312     34311     34313     34311     34314     34315     34316
     34317     34321     34317     34318     34317     34319     34317     34320
     34321     34322     34323     34327     34323     34324     34323     34325
     34323     34326     34327     34328     34329     34333     34329     34330
     34329     34331     34329     34332     34333     34334     34335     34339
     34335     34336     34335     34337     34335     34338     34339     34340
     34341     34345     34341     34342     34341     34343     34341     34344
     34345     34346     34347     34351     34347     34348     34347     34349
     34347     34350     34351     34352     34353     34357     34353     34354
     34353     34355     34353     34356     34357     34358     34359     34363
     34359     34360     34359     34361     34359     34362     34363     34364
     34365     34369     34365     34366     34365     34367     34365     34368
     34369     34370     34371     34375     34371     34372     34371     34373
     34371     34374     34375     34376     34377     34381     34377     34378
     34377     34379     34377     34380     34381     34382     34383     34387
     34383     34384     34383     34385     34383     34386     34387     34388
     34389     34393     34389     34390     34389     34391     34389     34392
     34393     34394     34395     34399     34395     34396     34395     34397
     34395     34398     34399     34400     34401     34405     34401     34402
     34401     34403     34401     34404     34405     34406     34407     34411
     34407     34408     34407     34409     34407     34410     34411     34412
     34413     34417     34413     34414     34413     34415     34413     34416
     34417     34418     34419     34423     34419     34420     34419     34421
     34419     34422     34423     34424     34425     34429     34425     34426
     34425     34427     34425     34428     34429     34430     34431     34435
     34431     34432     34431     34433     34431     34434     34435     34436
     34437     34441     34437     34438     34437     34439     34437     34440
     34441     34442     34443     34447     34443     34444     34443     34445
     34443     34446     34447     34448     34449     34453     34449     34450
     34449     34451     34449     34452     34453     34454     34455     34459
     34455     34456     34455     34457     34455     34458     34459     34460
     34461     34465     34461     34462     34461     34463     34461     34464
     34465     34466     34467     34471     34467     34468     34467     34469
     34467     34470     34471     34472     34473     34477     34473     34474
     34473     34475     34473     34476     34477     34478     34479     34483
     34479     34480     34479     34481     34479     34482     34483     34484
     34485     34489     34485     34486     34485     34487     34485     34488
     34489     34490     34491     34495     34491     34492     34491     34493
     34491     34494     34495     34496     34497     34501     34497     34498
     34497     34499     34497     34500     34501     34502     34503     34507
     34503     34504     34503     34505     34503     34506     34507     34508
     34509     34513     34509     34510     34509     34511     34509     34512
     34513     34514     34515     34519     34515     34516     34515     34517
     34515     34518     34519     34520     34521     34525     34521     34522
     34521     34523     34521     34524     34525     34526     34527     34531
     34527     34528     34527     34529     34527     34530     34531     34532
     34533     34537     34533     34534     34533     34535     34533     34536
     34537     34538     34539     34543     34539     34540     34539     34541
     34539     34542     34543     34544     34545     34549     34545     34546
     34545     34547     34545     34548     34549     34550     34551     34555
     34551     34552     34551     34553     34551     34554     34555     34556
     34557     34561     34557     34558     34557     34559     34557     34560
     34561     34562     34563     34567     34563     34564     34563     34565
     34563     34566     34567     34568     34569     34573     34569     34570
     34569     34571     34569     34572     34573     34574     34575     34579
     34575     34576     34575     34577     34575     34578     34579     34580
     34581     34585     34581     34582     34581     34583     34581     34584
     34585     34586     34587     34591     34587     34588     34587     34589
     34587     34590     34591     34592     34593     34597     34593     34594
     34593     34595     34593     34596     34597     34598     34599     34603
     34599     34600     34599     34601     34599     34602     34603     34604
     34605     34609     34605     34606     34605     34607     34605     34608
     34609     34610     34611     34615     34611     34612     34611     34613
     34611     34614     34615     34616     34617     34621     34617     34618
     34617     34619     34617     34620     34621     34622     34623     34627
     34623     34624     34623     34625     34623     34626     34627     34628
     34629     34633     34629     34630     34629     34631     34629     34632
     34633     34634     34635     34639     34635     34636     34635     34637
     34635     34638     34639     34640     34641     34645     34641     34642
     34641     34643     34641     34644     34645     34646     34647     34651
     34647     34648     34647     34649     34647     34650     34651     34652
     34653     34657     34653     34654     34653     34655     34653     34656
     34657     34658     34659     34663     34659     34660     34659     34661
     34659     34662     34663     34664     34665     34669     34665     34666
     34665     34667     34665     34668     34669     34670     34671     34675
     34671     34672     34671     34673     34671     34674     34675     34676
     34677     34681     34677     34678     34677     34679     34677     34680
     34681     34682     34683     34687     34683     34684     34683     34685
     34683     34686     34687     34688     34689     34693     34689     34690
     34689     34691     34689     34692     34693     34694     34695     34699
     34695     34696     34695     34697     34695     34698     34699     34700
     34701     34705     34701     34702     34701     34703     34701     34704
     34705     34706     34707     34711     34707     34708     34707     34709
     34707     34710     34711     34712     34713     34717     34713     34714
     34713     34715     34713     34716     34717     34718     34719     34723
     34719     34720     34719     34721     34719     34722     34723     34724
     34725     34729     34725     34726     34725     34727     34725     34728
     34729     34730     34731     34735     34731     34732     34731     34733
     34731     34734     34735     34736     34737     34741     34737     34738
     34737     34739     34737     34740     34741     34742     34743     34747
     34743     34744     34743     34745     34743     34746     34747     34748
     34749     34753     34749     34750     34749     34751     34749     34752
     34753     34754     34755     34759     34755     34756     34755     34757
     34755     34758     34759     34760     34761     34765     34761     34762
     34761     34763     34761     34764     34765     34766     34767     34771
     34767     34768     34767     34769     34767     34770     34771     34772
     34773     34777     34773     34774     34773     34775     34773     34776
     34777     34778     34779     34783     34779     34780     34779     34781
     34779     34782     34783     34784     34785     34789     34785     34786
     34785     34787     34785     34788     34789     34790     34791     34795
     34791     34792     34791     34793     34791     34794     34795     34796
     34797     34801     34797     34798     34797     34799     34797     34800
     34801     34802     34803     34807     34803     34804     34803     34805
     34803     34806     34807     34808     34809     34813     34809     34810
     34809     34811     34809     34812     34813     34814     34815     34819
     34815     34816     34815     34817     34815     34818     34819     34820
     34821     34825     34821     34822     34821     34823     34821     34824
     34825     34826     34827     34831     34827     34828     34827     34829
     34827     34830     34831     34832     34833     34837     34833     34834
     34833     34835     34833     34836     34837     34838     34839     34843
     34839     34840     34839     34841     34839     34842     34843     34844
     34845     34849     34845     34846     34845     34847     34845     34848
     34849     34850     34851     34855     34851     34852     34851     34853
     34851     34854     34855     34856     34857     34861     34857     34858
     34857     34859     34857     34860     34861     34862     34863     34867
     34863     34864     34863     34865     34863     34866     34867     34868
     34869     34873     34869     34870     34869     34871     34869     34872
     34873     34874     34875     34879     34875     34876     34875     34877
     34875     34878     34879     34880     34881     34885     34881     34882
     34881     34883     34881     34884     34885     34886     34887     34891
     34887     34888     34887     34889     34887     34890     34891     34892
     34893     34897     34893     34894     34893     34895     34893     34896
     34897     34898     34899     34903     34899     34900     34899     34901
     34899     34902     34903     34904     34905     34909     34905     34906
     34905     34907     34905     34908     34909     34910     34911     34915
     34911     34912     34911     34913     34911     34914     34915     34916
     34917     34921     34917     34918     34917     34919     34917     34920
     34921     34922     34923     34927     34923     34924     34923     34925
     34923     34926     34927     34928     34929     34933     34929     34930
     34929     34931     34929     34932     34933     34934     34935     34939
     34935     34936     34935     34937     34935     34938     34939     34940
     34941     34945     34941     34942     34941     34943     34941     34944
     34945     34946     34947     34951     34947     34948     34947     34949
     34947     34950     34951     34952     34953     34957     34953     34954
     34953     34955     34953     34956     34957     34958     34959     34963
     34959     34960     34959     34961     34959     34962     34963     34964
     34965     34969     34965     34966     34965     34967     34965     34968
     34969     34970     34971     34975     34971     34972     34971     34973
     34971     34974     34975     34976     34977     34981     34977     34978
     34977     34979     34977     34980     34981     34982     34983     34987
     34983     34984     34983     34985     34983     34986     34987     34988
     34989     34993     34989     34990     34989     34991     34989     34992
     34993     34994     34995     34999     34995     34996     34995     34997
     34995     34998     34999     35000     35001     35005     35001     35002
     35001     35003     35001     35004     35005     35006     35007     35011
     35007     35008     35007     35009     35007     35010     35011     35012
     35013     35017     35013     35014     35013     35015     35013     35016
     35017     35018     35019     35023     35019     35020     35019     35021
     35019     35022     35023     35024     35025     35029     35025     35026
     35025     35027     35025     35028     35029     35030     35031     35035
     35031     35032     35031     35033     35031     35034     35035     35036
     35037     35041     35037     35038     35037     35039     35037     35040
     35041     35042     35043     35047     35043     35044     35043     35045
     35043     35046     35047     35048     35049     35053     35049     35050
     35049     35051     35049     35052     35053     35054     35055     35059
     35055     35056     35055     35057     35055     35058     35059     35060
     35061     35065     35061     35062     35061     35063     35061     35064
     35065     35066     35067     35071     35067     35068     35067     35069
     35067     35070     35071     35072     35073     35077     35073     35074
     35073     35075     35073     35076     35077     35078     35079     35083
     35079     35080     35079     35081     35079     35082     35083     35084
     35085     35089     35085     35086     35085     35087     35085     35088
     35089     35090     35091     35095     35091     35092     35091     35093
     35091     35094     35095     35096     35097     35101     35097     35098
     35097     35099     35097     35100     35101     35102     35103     35107
     35103     35104     35103     35105     35103     35106     35107     35108
     35109     35113     35109     35110     35109     35111     35109     35112
     35113     35114     35115     35119     35115     35116     35115     35117
     35115     35118     35119     35120     35121     35125     35121     35122
     35121     35123     35121     35124     35125     35126     35127     35131
     35127     35128     35127     35129     35127     35130     35131     35132
     35133     35137     35133     35134     35133     35135     35133     35136
     35137     35138     35139     35143     35139     35140     35139     35141
     35139     35142     35143     35144     35145     35149     35145     35146
     35145     35147     35145     35148     35149     35150     35151     35155
     35151     35152     35151     35153     35151     35154     35155     35156
     35157     35161     35157     35158     35157     35159     35157     35160
     35161     35162     35163     35167     35163     35164     35163     35165
     35163     35166     35167     35168     35169     35173     35169     35170
     35169     35171     35169     35172     35173     35174     35175     35179
     35175     35176     35175     35177     35175     35178     35179     35180
     35181     35185     35181     35182     35181     35183     35181     35184
     35185     35186     35187     35191     35187     35188     35187     35189
     35187     35190     35191     35192     35193     35197     35193     35194
     35193     35195     35193     35196     35197     35198     35199     35203
     35199     35200     35199     35201     35199     35202     35203     35204
     35205     35209     35205     35206     35205     35207     35205     35208
     35209     35210     35211     35215     35211     35212     35211     35213
     35211     35214     35215     35216     35217     35221     35217     35218
     35217     35219     35217     35220     35221     35222     35223     35227
     35223     35224     35223     35225     35223     35226     35227     35228
     35229     35233     35229     35230     35229     35231     35229     35232
     35233     35234     35235     35239     35235     35236     35235     35237
     35235     35238     35239     35240     35241     35245     35241     35242
     35241     35243     35241     35244     35245     35246     35247     35251
     35247     35248     35247     35249     35247     35250     35251     35252
     35253     35257     35253     35254     35253     35255     35253     35256
     35257     35258     35259     35263     35259     35260     35259     35261
     35259     35262     35263     35264     35265     35269     35265     35266
     35265     35267     35265     35268     35269     35270     35271     35275
     35271     35272     35271     35273     35271     35274     35275     35276
     35277     35281     35277     35278     35277     35279     35277     35280
     35281     35282     35283     35287     35283     35284     35283     35285
     35283     35286     35287     35288     35289     35293     35289     35290
     35289     35291     35289     35292     35293     35294     35295     35299
     35295     35296     35295     35297     35295     35298     35299     35300
     35301     35305     35301     35302     35301     35303     35301     35304
     35305     35306     35307     35311     35307     35308     35307     35309
     35307     35310     35311     35312     35313     35317     35313     35314
     35313     35315     35313     35316     35317     35318     35319     35323
     35319     35320     35319     35321     35319     35322     35323     35324
     35325     35329     35325     35326     35325     35327     35325     35328
     35329     35330     35331     35335     35331     35332     35331     35333
     35331     35334     35335     35336     35337     35341     35337     35338
     35337     35339     35337     35340     35341     35342     35343     35347
     35343     35344     35343     35345     35343     35346     35347     35348
     35349     35353     35349     35350     35349     35351     35349     35352
     35353     35354     35355     35359     35355     35356     35355     35357
     35355     35358     35359     35360     35361     35365     35361     35362
     35361     35363     35361     35364     35365     35366     35367     35371
     35367     35368     35367     35369     35367     35370     35371     35372
     35373     35377     35373     35374     35373     35375     35373     35376
     35377     35378     35379     35383     35379     35380     35379     35381
     35379     35382     35383     35384     35385     35389     35385     35386
     35385     35387     35385     35388     35389     35390     35391     35395
     35391     35392     35391     35393     35391     35394     35395     35396
     35397     35401     35397     35398     35397     35399     35397     35400
     35401     35402     35403     35407     35403     35404     35403     35405
     35403     35406     35407     35408     35409     35413     35409     35410
     35409     35411     35409     35412     35413     35414     35415     35419
     35415     35416     35415     35417     35415     35418     35419     35420
     35421     35425     35421     35422     35421     35423     35421     35424
     35425     35426     35427     35431     35427     35428     35427     35429
     35427     35430     35431     35432     35433     35437     35433     35434
     35433     35435     35433     35436     35437     35438     35439     35443
     35439     35440     35439     35441     35439     35442     35443     35444
     35445     35449     35445     35446     35445     35447     35445     35448
     35449     35450     35451     35455     35451     35452     35451     35453
     35451     35454     35455     35456     35457     35461     35457     35458
     35457     35459     35457     35460     35461     35462     35463     35467
     35463     35464     35463     35465     35463     35466     35467     35468
     35469     35473     35469     35470     35469     35471     35469     35472
     35473     35474     35475     35479     35475     35476     35475     35477
     35475     35478     35479     35480     35481     35485     35481     35482
     35481     35483     35481     35484     35485     35486     35487     35491
     35487     35488     35487     35489     35487     35490     35491     35492
     35493     35497     35493     35494     35493     35495     35493     35496
     35497     35498     35499     35503     35499     35500     35499     35501
     35499     35502     35503     35504     35505     35509     35505     35506
     35505     35507     35505     35508     35509     35510     35511     35515
     35511     35512     35511     35513     35511     35514     35515     35516
     35517     35521     35517     35518     35517     35519     35517     35520
     35521     35522     35523     35527     35523     35524     35523     35525
     35523     35526     35527     35528     35529     35533     35529     35530
     35529     35531     35529     35532     35533     35534     35535     35539
     35535     35536     35535     35537     35535     35538     35539     35540
     35541     35545     35541     35542     35541     35543     35541     35544
     35545     35546     35547     35551     35547     35548     35547     35549
     35547     35550     35551     35552     35553     35557     35553     35554
     35553     35555     35553     35556     35557     35558     35559     35563
     35559     35560     35559     35561     35559     35562     35563     35564
     35565     35569     35565     35566     35565     35567     35565     35568
     35569     35570     35571     35575     35571     35572     35571     35573
     35571     35574     35575     35576     35577     35581     35577     35578
     35577     35579     35577     35580     35581     35582     35583     35587
     35583     35584     35583     35585     35583     35586     35587     35588
     35589     35593     35589     35590     35589     35591     35589     35592
     35593     35594     35595     35599     35595     35596     35595     35597
     35595     35598     35599     35600     35601     35605     35601     35602
     35601     35603     35601     35604     35605     35606     35607     35611
     35607     35608     35607     35609     35607     35610     35611     35612
     35613     35617     35613     35614     35613     35615     35613     35616
     35617     35618     35619     35623     35619     35620     35619     35621
     35619     35622     35623     35624     35625     35629     35625     35626
     35625     35627     35625     35628     35629     35630     35631     35635
     35631     35632     35631     35633     35631     35634     35635     35636
     35637     35641     35637     35638     35637     35639     35637     35640
     35641     35642     35643     35647     35643     35644     35643     35645
     35643     35646     35647     35648     35649     35653     35649     35650
     35649     35651     35649     35652     35653     35654     35655     35659
     35655     35656     35655     35657     35655     35658     35659     35660
     35661     35665     35661     35662     35661     35663     35661     35664
     35665     35666     35667     35671     35667     35668     35667     35669
     35667     35670     35671     35672     35673     35677     35673     35674
     35673     35675     35673     35676     35677     35678     35679     35683
     35679     35680     35679     35681     35679     35682     35683     35684
     35685     35689     35685     35686     35685     35687     35685     35688
     35689     35690     35691     35695     35691     35692     35691     35693
     35691     35694     35695     35696     35697     35701     35697     35698
     35697     35699     35697     35700     35701     35702     35703     35707
     35703     35704     35703     35705     35703     35706     35707     35708
     35709     35713     35709     35710     35709     35711     35709     35712
     35713     35714     35715     35719     35715     35716     35715     35717
     35715     35718     35719     35720     35721     35725     35721     35722
     35721     35723     35721     35724     35725     35726     35727     35731
     35727     35728     35727     35729     35727     35730     35731     35732
     35733     35737     35733     35734     35733     35735     35733     35736
     35737     35738     35739     35743     35739     35740     35739     35741
     35739     35742     35743     35744     35745     35749     35745     35746
     35745     35747     35745     35748     35749     35750     35751     35755
     35751     35752     35751     35753     35751     35754     35755     35756
     35757     35761     35757     35758     35757     35759     35757     35760
     35761     35762     35763     35767     35763     35764     35763     35765
     35763     35766     35767     35768     35769     35773     35769     35770
     35769     35771     35769     35772     35773     35774     35775     35779
     35775     35776     35775     35777     35775     35778     35779     35780
     35781     35785     35781     35782     35781     35783     35781     35784
     35785     35786     35787     35791     35787     35788     35787     35789
     35787     35790     35791     35792     35793     35797     35793     35794
     35793     35795     35793     35796     35797     35798     35799     35803
     35799     35800     35799     35801     35799     35802     35803     35804
     35805     35809     35805     35806     35805     35807     35805     35808
     35809     35810     35811     35815     35811     35812     35811     35813
     35811     35814     35815     35816     35817     35821     35817     35818
     35817     35819     35817     35820     35821     35822     35823     35827
     35823     35824     35823     35825     35823     35826     35827     35828
     35829     35833     35829     35830     35829     35831     35829     35832
     35833     35834     35835     35839     35835     35836     35835     35837
     35835     35838     35839     35840     35841     35845     35841     35842
     35841     35843     35841     35844     35845     35846     35847     35851
     35847     35848     35847     35849     35847     35850     35851     35852
     35853     35857     35853     35854     35853     35855     35853     35856
     35857     35858     35859     35863     35859     35860     35859     35861
     35859     35862     35863     35864     35865     35869     35865     35866
     35865     35867     35865     35868     35869     35870     35871     35875
     35871     35872     35871     35873     35871     35874     35875     35876
     35877     35881     35877     35878     35877     35879     35877     35880
     35881     35882     35883     35887     35883     35884     35883     35885
     35883     35886     35887     35888     35889     35893     35889     35890
     35889     35891     35889     35892     35893     35894     35895     35899
     35895     35896     35895     35897     35895     35898     35899     35900
     35901     35905     35901     35902     35901     35903     35901     35904
     35905     35906     35907     35911     35907     35908     35907     35909
     35907     35910     35911     35912     35913     35917     35913     35914
     35913     35915     35913     35916     35917     35918     35919     35923
     35919     35920     35919     35921     35919     35922     35923     35924
     35925     35929     35925     35926     35925     35927     35925     35928
     35929     35930     35931     35935     35931     35932     35931     35933
     35931     35934     35935     35936     35937     35941     35937     35938
     35937     35939     35937     35940     35941     35942     35943     35947
     35943     35944     35943     35945     35943     35946     35947     35948
     35949     35953     35949     35950     35949     35951     35949     35952
     35953     35954     35955     35959     35955     35956     35955     35957
     35955     35958     35959     35960     35961     35965     35961     35962
     35961     35963     35961     35964     35965     35966     35967     35971
     35967     35968     35967     35969     35967     35970     35971     35972
     35973     35977     35973     35974     35973     35975     35973     35976
     35977     35978     35979     35983     35979     35980     35979     35981
     35979     35982     35983     35984     35985     35989     35985     35986
     35985     35987     35985     35988     35989     35990     35991     35995
     35991     35992     35991     35993     35991     35994     35995     35996
     35997     36001     35997     35998     35997     35999     35997     36000
     36001     36002     36003     36007     36003     36004     36003     36005
     36003     36006     36007     36008     36009     36013     36009     36010
     36009     36011     36009     36012     36013     36014     36015     36019
     36015     36016     36015     36017     36015     36018     36019     36020
     36021     36025     36021     36022     36021     36023     36021     36024
     36025     36026     36027     36031     36027     36028     36027     36029
     36027     36030     36031     36032     36033     36037     36033     36034
     36033     36035     36033     36036     36037     36038     36039     36043
     36039     36040     36039     36041     36039     36042     36043     36044
     36045     36049     36045     36046     36045     36047     36045     36048
     36049     36050     36051     36055     36051     36052     36051     36053
     36051     36054     36055     36056     36057     36061     36057     36058
     36057     36059     36057     36060     36061     36062     36063     36067
     36063     36064     36063     36065     36063     36066     36067     36068
     36069     36073     36069     36070     36069     36071     36069     36072
     36073     36074     36075     36079     36075     36076     36075     36077
     36075     36078     36079     36080     36081     36085     36081     36082
     36081     36083     36081     36084     36085     36086     36087     36091
     36087     36088     36087     36089     36087     36090     36091     36092
     36093     36097     36093     36094     36093     36095     36093     36096
     36097     36098     36099     36103     36099     36100     36099     36101
     36099     36102     36103     36104     36105     36109     36105     36106
     36105     36107     36105     36108     36109     36110     36111     36115
     36111     36112     36111     36113     36111     36114     36115     36116
     36117     36121     36117     36118     36117     36119     36117     36120
     36121     36122     36123     36127     36123     36124     36123     36125
     36123     36126     36127     36128     36129     36133     36129     36130
     36129     36131     36129     36132     36133     36134     36135     36139
     36135     36136     36135     36137     36135     36138     36139     36140
     36141     36145     36141     36142     36141     36143     36141     36144
     36145     36146     36147     36151     36147     36148     36147     36149
     36147     36150     36151     36152     36153     36157     36153     36154
     36153     36155     36153     36156     36157     36158     36159     36163
     36159     36160     36159     36161     36159     36162     36163     36164
     36165     36169     36165     36166     36165     36167     36165     36168
     36169     36170     36171     36175     36171     36172     36171     36173
     36171     36174     36175     36176     36177     36181     36177     36178
     36177     36179     36177     36180     36181     36182     36183     36187
     36183     36184     36183     36185     36183     36186     36187     36188
     36189     36193     36189     36190     36189     36191     36189     36192
     36193     36194     36195     36199     36195     36196     36195     36197
     36195     36198     36199     36200     36201     36205     36201     36202
     36201     36203     36201     36204     36205     36206     36207     36211
     36207     36208     36207     36209     36207     36210     36211     36212
     36213     36217     36213     36214     36213     36215     36213     36216
     36217     36218     36219     36223     36219     36220     36219     36221
     36219     36222     36223     36224     36225     36229     36225     36226
     36225     36227     36225     36228     36229     36230     36231     36235
     36231     36232     36231     36233     36231     36234     36235     36236
     36237     36241     36237     36238     36237     36239     36237     36240
     36241     36242     36243     36247     36243     36244     36243     36245
     36243     36246     36247     36248     36249     36253     36249     36250
     36249     36251     36249     36252     36253     36254     36255     36259
     36255     36256     36255     36257     36255     36258     36259     36260
     36261     36265     36261     36262     36261     36263     36261     36264
     36265     36266     36267     36271     36267     36268     36267     36269
     36267     36270     36271     36272     36273     36277     36273     36274
     36273     36275     36273     36276     36277     36278     36279     36283
     36279     36280     36279     36281     36279     36282     36283     36284
     36285     36289     36285     36286     36285     36287     36285     36288
     36289     36290     36291     36295     36291     36292     36291     36293
     36291     36294     36295     36296     36297     36301     36297     36298
     36297     36299     36297     36300     36301     36302     36303     36307
     36303     36304     36303     36305     36303     36306     36307     36308
     36309     36313     36309     36310     36309     36311     36309     36312
     36313     36314     36315     36319     36315     36316     36315     36317
     36315     36318     36319     36320     36321     36325     36321     36322
     36321     36323     36321     36324     36325     36326     36327     36331
     36327     36328     36327     36329     36327     36330     36331     36332
     36333     36337     36333     36334     36333     36335     36333     36336
     36337     36338     36339     36343     36339     36340     36339     36341
     36339     36342     36343     36344     36345     36349     36345     36346
     36345     36347     36345     36348     36349     36350     36351     36355
     36351     36352     36351     36353     36351     36354     36355     36356
     36357     36361     36357     36358     36357     36359     36357     36360
     36361     36362     36363     36367     36363     36364     36363     36365
     36363     36366     36367     36368     36369     36373     36369     36370
     36369     36371     36369     36372     36373     36374     36375     36379
     36375     36376     36375     36377     36375     36378     36379     36380
     36381     36385     36381     36382     36381     36383     36381     36384
     36385     36386     36387     36391     36387     36388     36387     36389
     36387     36390     36391     36392     36393     36397     36393     36394
     36393     36395     36393     36396     36397     36398     36399     36403
     36399     36400     36399     36401     36399     36402     36403     36404
     36405     36409     36405     36406     36405     36407     36405     36408
     36409     36410     36411     36415     36411     36412     36411     36413
     36411     36414     36415     36416     36417     36421     36417     36418
     36417     36419     36417     36420     36421     36422     36423     36427
     36423     36424     36423     36425     36423     36426     36427     36428
     36429     36433     36429     36430     36429     36431     36429     36432
     36433     36434     36435     36439     36435     36436     36435     36437
     36435     36438     36439     36440     36441     36445     36441     36442
     36441     36443     36441     36444     36445     36446     36447     36451
     36447     36448     36447     36449     36447     36450     36451     36452
     36453     36457     36453     36454     36453     36455     36453     36456
     36457     36458     36459     36463     36459     36460     36459     36461
     36459     36462     36463     36464     36465     36469     36465     36466
     36465     36467     36465     36468     36469     36470     36471     36475
     36471     36472     36471     36473     36471     36474     36475     36476
     36477     36481     36477     36478     36477     36479     36477     36480
     36481     36482     36483     36487     36483     36484     36483     36485
     36483     36486     36487     36488     36489     36493     36489     36490
     36489     36491     36489     36492     36493     36494     36495     36499
     36495     36496     36495     36497     36495     36498     36499     36500
     36501     36505     36501     36502     36501     36503     36501     36504
     36505     36506     36507     36511     36507     36508     36507     36509
     36507     36510     36511     36512     36513     36517     36513     36514
     36513     36515     36513     36516     36517     36518     36519     36523
     36519     36520     36519     36521     36519     36522     36523     36524
     36525     36529     36525     36526     36525     36527     36525     36528
     36529     36530     36531     36535     36531     36532     36531     36533
     36531     36534     36535     36536     36537     36541     36537     36538
     36537     36539     36537     36540     36541     36542     36543     36547
     36543     36544     36543     36545     36543     36546     36547     36548
     36549     36553     36549     36550     36549     36551     36549     36552
     36553     36554     36555     36559     36555     36556     36555     36557
     36555     36558     36559     36560     36561     36565     36561     36562
     36561     36563     36561     36564     36565     36566     36567     36571
     36567     36568     36567     36569     36567     36570     36571     36572
     36573     36577     36573     36574     36573     36575     36573     36576
     36577     36578     36579     36583     36579     36580     36579     36581
     36579     36582     36583     36584     36585     36589     36585     36586
     36585     36587     36585     36588     36589     36590     36591     36595
     36591     36592     36591     36593     36591     36594     36595     36596
     36597     36601     36597     36598     36597     36599     36597     36600
     36601     36602     36603     36607     36603     36604     36603     36605
     36603     36606     36607     36608     36609     36613     36609     36610
     36609     36611     36609     36612     36613     36614     36615     36619
     36615     36616     36615     36617     36615     36618     36619     36620
     36621     36625     36621     36622     36621     36623     36621     36624
     36625     36626     36627     36631     36627     36628     36627     36629
     36627     36630     36631     36632     36633     36637     36633     36634
     36633     36635     36633     36636     36637     36638     36639     36643
     36639     36640     36639     36641     36639     36642     36643     36644
     36645     36649     36645     36646     36645     36647     36645     36648
     36649     36650     36651     36655     36651     36652     36651     36653
     36651     36654     36655     36656     36657     36661     36657     36658
     36657     36659     36657     36660     36661     36662     36663     36667
     36663     36664     36663     36665     36663     36666     36667     36668
     36669     36673     36669     36670     36669     36671     36669     36672
     36673     36674     36675     36679     36675     36676     36675     36677
     36675     36678     36679     36680     36681     36685     36681     36682
     36681     36683     36681     36684     36685     36686     36687     36691
     36687     36688     36687     36689     36687     36690     36691     36692
     36693     36697     36693     36694     36693     36695     36693     36696
     36697     36698     36699     36703     36699     36700     36699     36701
     36699     36702     36703     36704     36705     36709     36705     36706
     36705     36707     36705     36708     36709     36710     36711     36715
     36711     36712     36711     36713     36711     36714     36715     36716
     36717     36721     36717     36718     36717     36719     36717     36720
     36721     36722     36723     36727     36723     36724     36723     36725
     36723     36726     36727     36728     36729     36733     36729     36730
     36729     36731     36729     36732     36733     36734     36735     36739
     36735     36736     36735     36737     36735     36738     36739     36740
     36741     36745     36741     36742     36741     36743     36741     36744
     36745     36746     36747     36751     36747     36748     36747     36749
     36747     36750     36751     36752     36753     36757     36753     36754
     36753     36755     36753     36756     36757     36758     36759     36763
     36759     36760     36759     36761     36759     36762     36763     36764
     36765     36769     36765     36766     36765     36767     36765     36768
     36769     36770     36771     36775     36771     36772     36771     36773
     36771     36774     36775     36776     36777     36781     36777     36778
     36777     36779     36777     36780     36781     36782     36783     36787
     36783     36784     36783     36785     36783     36786     36787     36788
     36789     36793     36789     36790     36789     36791     36789     36792
     36793     36794     36795     36799     36795     36796     36795     36797
     36795     36798     36799     36800     36801     36805     36801     36802
     36801     36803     36801     36804     36805     36806     36807     36811
     36807     36808     36807     36809     36807     36810     36811     36812
     36813     36817     36813     36814     36813     36815     36813     36816
     36817     36818     36819     36823     36819     36820     36819     36821
     36819     36822     36823     36824     36825     36829     36825     36826
     36825     36827     36825     36828     36829     36830     36831     36835
     36831     36832     36831     36833     36831     36834     36835     36836
     36837     36841     36837     36838     36837     36839     36837     36840
     36841     36842     36843     36847     36843     36844     36843     36845
     36843     36846     36847     36848     36849     36853     36849     36850
     36849     36851     36849     36852     36853     36854     36855     36859
     36855     36856     36855     36857     36855     36858     36859     36860
     36861     36865     36861     36862     36861     36863     36861     36864
     36865     36866     36867     36871     36867     36868     36867     36869
     36867     36870     36871     36872     36873     36877     36873     36874
     36873     36875     36873     36876     36877     36878     36879     36883
     36879     36880     36879     36881     36879     36882     36883     36884
     36885     36889     36885     36886     36885     36887     36885     36888
     36889     36890     36891     36895     36891     36892     36891     36893
     36891     36894     36895     36896     36897     36901     36897     36898
     36897     36899     36897     36900     36901     36902     36903     36907
     36903     36904     36903     36905     36903     36906     36907     36908
     36909     36913     36909     36910     36909     36911     36909     36912
     36913     36914     36915     36919     36915     36916     36915     36917
     36915     36918     36919     36920     36921     36925     36921     36922
     36921     36923     36921     36924     36925     36926     36927     36931
     36927     36928     36927     36929     36927     36930     36931     36932
     36933     36937     36933     36934     36933     36935     36933     36936
     36937     36938     36939     36943     36939     36940     36939     36941
     36939     36942     36943     36944     36945     36949     36945     36946
     36945     36947     36945     36948     36949     36950     36951     36955
     36951     36952     36951     36953     36951     36954     36955     36956
     36957     36961     36957     36958     36957     36959     36957     36960
     36961     36962     36963     36967     36963     36964     36963     36965
     36963     36966     36967     36968     36969     36973     36969     36970
     36969     36971     36969     36972     36973     36974     36975     36979
     36975     36976     36975     36977     36975     36978     36979     36980
     36981     36985     36981     36982     36981     36983     36981     36984
     36985     36986     36987     36991     36987     36988     36987     36989
     36987     36990     36991     36992     36993     36997     36993     36994
     36993     36995     36993     36996     36997     36998     36999     37003
     36999     37000     36999     37001     36999     37002     37003     37004
     37005     37009     37005     37006     37005     37007     37005     37008
     37009     37010     37011     37015     37011     37012     37011     37013
     37011     37014     37015     37016     37017     37021     37017     37018
     37017     37019     37017     37020     37021     37022     37023     37027
     37023     37024     37023     37025     37023     37026     37027     37028
     37029     37033     37029     37030     37029     37031     37029     37032
     37033     37034     37035     37039     37035     37036     37035     37037
     37035     37038     37039     37040     37041     37045     37041     37042
     37041     37043     37041     37044     37045     37046     37047     37051
     37047     37048     37047     37049     37047     37050     37051     37052
     37053     37057     37053     37054     37053     37055     37053     37056
     37057     37058     37059     37063     37059     37060     37059     37061
     37059     37062     37063     37064     37065     37069     37065     37066
     37065     37067     37065     37068     37069     37070     37071     37075
     37071     37072     37071     37073     37071     37074     37075     37076
     37077     37081     37077     37078     37077     37079     37077     37080
     37081     37082     37083     37087     37083     37084     37083     37085
     37083     37086     37087     37088     37089     37093     37089     37090
     37089     37091     37089     37092     37093     37094     37095     37099
     37095     37096     37095     37097     37095     37098     37099     37100
     37101     37105     37101     37102     37101     37103     37101     37104
     37105     37106     37107     37111     37107     37108     37107     37109
     37107     37110     37111     37112     37113     37117     37113     37114
     37113     37115     37113     37116     37117     37118     37119     37123
     37119     37120     37119     37121     37119     37122     37123     37124
     37125     37129     37125     37126     37125     37127     37125     37128
     37129     37130     37131     37135     37131     37132     37131     37133
     37131     37134     37135     37136     37137     37141     37137     37138
     37137     37139     37137     37140     37141     37142     37143     37147
     37143     37144     37143     37145     37143     37146     37147     37148
     37149     37153     37149     37150     37149     37151     37149     37152
     37153     37154     37155     37159     37155     37156     37155     37157
     37155     37158     37159     37160     37161     37165     37161     37162
     37161     37163     37161     37164     37165     37166     37167     37171
     37167     37168     37167     37169     37167     37170     37171     37172
     37173     37177     37173     37174     37173     37175     37173     37176
     37177     37178     37179     37183     37179     37180     37179     37181
     37179     37182     37183     37184     37185     37189     37185     37186
     37185     37187     37185     37188     37189     37190     37191     37195
     37191     37192     37191     37193     37191     37194     37195     37196
     37197     37201     37197     37198     37197     37199     37197     37200
     37201     37202     37203     37207     37203     37204     37203     37205
     37203     37206     37207     37208     37209     37213     37209     37210
     37209     37211     37209     37212     37213     37214     37215     37219
     37215     37216     37215     37217     37215     37218     37219     37220
     37221     37225     37221     37222     37221     37223     37221     37224
     37225     37226     37227     37231     37227     37228     37227     37229
     37227     37230     37231     37232     37233     37237     37233     37234
     37233     37235     37233     37236     37237     37238     37239     37243
     37239     37240     37239     37241     37239     37242     37243     37244
     37245     37249     37245     37246     37245     37247     37245     37248
     37249     37250     37251     37255     37251     37252     37251     37253
     37251     37254     37255     37256     37257     37261     37257     37258
     37257     37259     37257     37260     37261     37262     37263     37267
     37263     37264     37263     37265     37263     37266     37267     37268
     37269     37273     37269     37270     37269     37271     37269     37272
     37273     37274     37275     37279     37275     37276     37275     37277
     37275     37278     37279     37280     37281     37285     37281     37282
     37281     37283     37281     37284     37285     37286     37287     37291
     37287     37288     37287     37289     37287     37290     37291     37292
     37293     37297     37293     37294     37293     37295     37293     37296
     37297     37298     37299     37303     37299     37300     37299     37301
     37299     37302     37303     37304     37305     37309     37305     37306
     37305     37307     37305     37308     37309     37310     37311     37315
     37311     37312     37311     37313     37311     37314     37315     37316
     37317     37321     37317     37318     37317     37319     37317     37320
     37321     37322     37323     37327     37323     37324     37323     37325
     37323     37326     37327     37328     37329     37333     37329     37330
     37329     37331     37329     37332     37333     37334     37335     37339
     37335     37336     37335     37337     37335     37338     37339     37340
     37341     37345     37341     37342     37341     37343     37341     37344
     37345     37346     37347     37351     37347     37348     37347     37349
     37347     37350     37351     37352     37353     37357     37353     37354
     37353     37355     37353     37356     37357     37358     37359     37363
     37359     37360     37359     37361     37359     37362     37363     37364
     37365     37369     37365     37366     37365     37367     37365     37368
     37369     37370     37371     37375     37371     37372     37371     37373
     37371     37374     37375     37376     37377     37381     37377     37378
     37377     37379     37377     37380     37381     37382     37383     37387
     37383     37384     37383     37385     37383     37386     37387     37388
     37389     37393     37389     37390     37389     37391     37389     37392
     37393     37394     37395     37399     37395     37396     37395     37397
     37395     37398     37399     37400     37401     37405     37401     37402
     37401     37403     37401     37404     37405     37406     37407     37411
     37407     37408     37407     37409     37407     37410     37411     37412
     37413     37417     37413     37414     37413     37415     37413     37416
     37417     37418     37419     37423     37419     37420     37419     37421
     37419     37422     37423     37424     37425     37429     37425     37426
     37425     37427     37425     37428     37429     37430     37431     37435
     37431     37432     37431     37433     37431     37434     37435     37436
     37437     37441     37437     37438     37437     37439     37437     37440
     37441     37442     37443     37447     37443     37444     37443     37445
     37443     37446     37447     37448     37449     37453     37449     37450
     37449     37451     37449     37452     37453     37454     37455     37459
     37455     37456     37455     37457     37455     37458     37459     37460
     37461     37465     37461     37462     37461     37463     37461     37464
     37465     37466     37467     37471     37467     37468     37467     37469
     37467     37470     37471     37472     37473     37477     37473     37474
     37473     37475     37473     37476     37477     37478     37479     37483
     37479     37480     37479     37481     37479     37482     37483     37484
     37485     37489     37485     37486     37485     37487     37485     37488
     37489     37490     37491     37495     37491     37492     37491     37493
     37491     37494     37495     37496     37497     37501     37497     37498
     37497     37499     37497     37500     37501     37502     37503     37507
     37503     37504     37503     37505     37503     37506     37507     37508
     37509     37513     37509     37510     37509     37511     37509     37512
     37513     37514     37515     37519     37515     37516     37515     37517
     37515     37518     37519     37520     37521     37525     37521     37522
     37521     37523     37521     37524     37525     37526     37527     37531
     37527     37528     37527     37529     37527     37530     37531     37532
     37533     37537     37533     37534     37533     37535     37533     37536
     37537     37538     37539     37543     37539     37540     37539     37541
     37539     37542     37543     37544     37545     37549     37545     37546
     37545     37547     37545     37548     37549     37550     37551     37555
     37551     37552     37551     37553     37551     37554     37555     37556
     37557     37561     37557     37558     37557     37559     37557     37560
     37561     37562     37563     37567     37563     37564     37563     37565
     37563     37566     37567     37568     37569     37573     37569     37570
     37569     37571     37569     37572     37573     37574     37575     37579
     37575     37576     37575     37577     37575     37578     37579     37580
     37581     37585     37581     37582     37581     37583     37581     37584
     37585     37586     37587     37591     37587     37588     37587     37589
     37587     37590     37591     37592     37593     37597     37593     37594
     37593     37595     37593     37596     37597     37598     37599     37603
     37599     37600     37599     37601     37599     37602     37603     37604
     37605     37609     37605     37606     37605     37607     37605     37608
     37609     37610     37611     37615     37611     37612     37611     37613
     37611     37614     37615     37616     37617     37621     37617     37618
     37617     37619     37617     37620     37621     37622     37623     37627
     37623     37624     37623     37625     37623     37626     37627     37628
     37629     37633     37629     37630     37629     37631     37629     37632
     37633     37634     37635     37639     37635     37636     37635     37637
     37635     37638     37639     37640     37641     37645     37641     37642
     37641     37643     37641     37644     37645     37646     37647     37651
     37647     37648     37647     37649     37647     37650     37651     37652
     37653     37657     37653     37654     37653     37655     37653     37656
     37657     37658     37659     37663     37659     37660     37659     37661
     37659     37662     37663     37664     37665     37669     37665     37666
     37665     37667     37665     37668     37669     37670     37671     37675
     37671     37672     37671     37673     37671     37674     37675     37676
     37677     37681     37677     37678     37677     37679     37677     37680
     37681     37682     37683     37687     37683     37684     37683     37685
     37683     37686     37687     37688     37689     37693     37689     37690
     37689     37691     37689     37692     37693     37694     37695     37699
     37695     37696     37695     37697     37695     37698     37699     37700
     37701     37705     37701     37702     37701     37703     37701     37704
     37705     37706     37707     37711     37707     37708     37707     37709
     37707     37710     37711     37712     37713     37717     37713     37714
     37713     37715     37713     37716     37717     37718     37719     37723
     37719     37720     37719     37721     37719     37722     37723     37724
     37725     37729     37725     37726     37725     37727     37725     37728
     37729     37730     37731     37735     37731     37732     37731     37733
     37731     37734     37735     37736     37737     37741     37737     37738
     37737     37739     37737     37740     37741     37742     37743     37747
     37743     37744     37743     37745     37743     37746     37747     37748
     37749     37753     37749     37750     37749     37751     37749     37752
     37753     37754     37755     37759     37755     37756     37755     37757
     37755     37758     37759     37760     37761     37765     37761     37762
     37761     37763     37761     37764     37765     37766     37767     37771
     37767     37768     37767     37769     37767     37770     37771     37772
     37773     37777     37773     37774     37773     37775     37773     37776
     37777     37778     37779     37783     37779     37780     37779     37781
     37779     37782     37783     37784     37785     37789     37785     37786
     37785     37787     37785     37788     37789     37790     37791     37795
     37791     37792     37791     37793     37791     37794     37795     37796
     37797     37801     37797     37798     37797     37799     37797     37800
     37801     37802     37803     37807     37803     37804     37803     37805
     37803     37806     37807     37808     37809     37813     37809     37810
     37809     37811     37809     37812     37813     37814     37815     37819
     37815     37816     37815     37817     37815     37818     37819     37820
     37821     37825     37821     37822     37821     37823     37821     37824
     37825     37826     37827     37831     37827     37828     37827     37829
     37827     37830     37831     37832     37833     37837     37833     37834
     37833     37835     37833     37836     37837     37838     37839     37843
     37839     37840     37839     37841     37839     37842     37843     37844
     37845     37849     37845     37846     37845     37847     37845     37848
     37849     37850     37851     37855     37851     37852     37851     37853
     37851     37854     37855     37856     37857     37861     37857     37858
     37857     37859     37857     37860     37861     37862     37863     37867
     37863     37864     37863     37865     37863     37866     37867     37868
     37869     37873     37869     37870     37869     37871     37869     37872
     37873     37874     37875     37879     37875     37876     37875     37877
     37875     37878     37879     37880     37881     37885     37881     37882
     37881     37883     37881     37884     37885     37886     37887     37891
     37887     37888     37887     37889     37887     37890     37891     37892
     37893     37897     37893     37894     37893     37895     37893     37896
     37897     37898     37899     37903     37899     37900     37899     37901
     37899     37902     37903     37904     37905     37909     37905     37906
     37905     37907     37905     37908     37909     37910     37911     37915
     37911     37912     37911     37913     37911     37914     37915     37916
     37917     37921     37917     37918     37917     37919     37917     37920
     37921     37922     37923     37927     37923     37924     37923     37925
     37923     37926     37927     37928     37929     37933     37929     37930
     37929     37931     37929     37932     37933     37934     37935     37939
     37935     37936     37935     37937     37935     37938     37939     37940
     37941     37945     37941     37942     37941     37943     37941     37944
     37945     37946     37947     37951     37947     37948     37947     37949
     37947     37950     37951     37952     37953     37957     37953     37954
     37953     37955     37953     37956     37957     37958     37959     37963
     37959     37960     37959     37961     37959     37962     37963     37964
     37965     37969     37965     37966     37965     37967     37965     37968
     37969     37970     37971     37975     37971     37972     37971     37973
     37971     37974     37975     37976     37977     37981     37977     37978
     37977     37979     37977     37980     37981     37982     37983     37987
     37983     37984     37983     37985     37983     37986     37987     37988
     37989     37993     37989     37990     37989     37991     37989     37992
     37993     37994     37995     37999     37995     37996     37995     37997
     37995     37998     37999     38000     38001     38005     38001     38002
     38001     38003     38001     38004     38005     38006     38007     38011
     38007     38008     38007     38009     38007     38010     38011     38012
     38013     38017     38013     38014     38013     38015     38013     38016
     38017     38018     38019     38023     38019     38020     38019     38021
     38019     38022     38023     38024     38025     38029     38025     38026
     38025     38027     38025     38028     38029     38030     38031     38035
     38031     38032     38031     38033     38031     38034     38035     38036
     38037     38041     38037     38038     38037     38039     38037     38040
     38041     38042     38043     38047     38043     38044     38043     38045
     38043     38046     38047     38048     38049     38053     38049     38050
     38049     38051     38049     38052     38053     38054     38055     38059
     38055     38056     38055     38057     38055     38058     38059     38060
     38061     38065     38061     38062     38061     38063     38061     38064
     38065     38066     38067     38071     38067     38068     38067     38069
     38067     38070     38071     38072     38073     38077     38073     38074
     38073     38075     38073     38076     38077     38078     38079     38083
     38079     38080     38079     38081     38079     38082     38083     38084
     38085     38089     38085     38086     38085     38087     38085     38088
     38089     38090     38091     38095     38091     38092     38091     38093
     38091     38094     38095     38096     38097     38101     38097     38098
     38097     38099     38097     38100     38101     38102     38103     38107
     38103     38104     38103     38105     38103     38106     38107     38108
     38109     38113     38109     38110     38109     38111     38109     38112
     38113     38114     38115     38119     38115     38116     38115     38117
     38115     38118     38119     38120     38121     38125     38121     38122
     38121     38123     38121     38124     38125     38126     38127     38131
     38127     38128     38127     38129     38127     38130     38131     38132
     38133     38137     38133     38134     38133     38135     38133     38136
     38137     38138     38139     38143     38139     38140     38139     38141
     38139     38142     38143     38144     38145     38149     38145     38146
     38145     38147     38145     38148     38149     38150     38151     38155
     38151     38152     38151     38153     38151     38154     38155     38156
     38157     38161     38157     38158     38157     38159     38157     38160
     38161     38162     38163     38167     38163     38164     38163     38165
     38163     38166     38167     38168     38169     38173     38169     38170
     38169     38171     38169     38172     38173     38174     38175     38179
     38175     38176     38175     38177     38175     38178     38179     38180
     38181     38185     38181     38182     38181     38183     38181     38184
     38185     38186     38187     38191     38187     38188     38187     38189
     38187     38190     38191     38192     38193     38197     38193     38194
     38193     38195     38193     38196     38197     38198     38199     38203
     38199     38200     38199     38201     38199     38202     38203     38204
     38205     38209     38205     38206     38205     38207     38205     38208
     38209     38210     38211     38215     38211     38212     38211     38213
     38211     38214     38215     38216     38217     38221     38217     38218
     38217     38219     38217     38220     38221     38222     38223     38227
     38223     38224     38223     38225     38223     38226     38227     38228
     38229     38233     38229     38230     38229     38231     38229     38232
     38233     38234     38235     38239     38235     38236     38235     38237
     38235     38238     38239     38240     38241     38245     38241     38242
     38241     38243     38241     38244     38245     38246     38247     38251
     38247     38248     38247     38249     38247     38250     38251     38252
     38253     38257     38253     38254     38253     38255     38253     38256
     38257     38258     38259     38263     38259     38260     38259     38261
     38259     38262     38263     38264     38265     38269     38265     38266
     38265     38267     38265     38268     38269     38270     38271     38275
     38271     38272     38271     38273     38271     38274     38275     38276
     38277     38281     38277     38278     38277     38279     38277     38280
     38281     38282     38283     38287     38283     38284     38283     38285
     38283     38286     38287     38288     38289     38293     38289     38290
     38289     38291     38289     38292     38293     38294     38295     38299
     38295     38296     38295     38297     38295     38298     38299     38300
     38301     38305     38301     38302     38301     38303     38301     38304
     38305     38306     38307     38311     38307     38308     38307     38309
     38307     38310     38311     38312     38313     38317     38313     38314
     38313     38315     38313     38316     38317     38318     38319     38323
     38319     38320     38319     38321     38319     38322     38323     38324
     38325     38329     38325     38326     38325     38327     38325     38328
     38329     38330     38331     38335     38331     38332     38331     38333
     38331     38334     38335     38336     38337     38341     38337     38338
     38337     38339     38337     38340     38341     38342     38343     38347
     38343     38344     38343     38345     38343     38346     38347     38348
     38349     38353     38349     38350     38349     38351     38349     38352
     38353     38354     38355     38359     38355     38356     38355     38357
     38355     38358     38359     38360     38361     38365     38361     38362
     38361     38363     38361     38364     38365     38366     38367     38371
     38367     38368     38367     38369     38367     38370     38371     38372
     38373     38377     38373     38374     38373     38375     38373     38376
     38377     38378     38379     38383     38379     38380     38379     38381
     38379     38382     38383     38384     38385     38389     38385     38386
     38385     38387     38385     38388     38389     38390     38391     38395
     38391     38392     38391     38393     38391     38394     38395     38396
     38397     38401     38397     38398     38397     38399     38397     38400
     38401     38402     38403     38407     38403     38404     38403     38405
     38403     38406     38407     38408     38409     38413     38409     38410
     38409     38411     38409     38412     38413     38414     38415     38419
     38415     38416     38415     38417     38415     38418     38419     38420
     38421     38425     38421     38422     38421     38423     38421     38424
     38425     38426     38427     38431     38427     38428     38427     38429
     38427     38430     38431     38432     38433     38437     38433     38434
     38433     38435     38433     38436     38437     38438     38439     38443
     38439     38440     38439     38441     38439     38442     38443     38444
     38445     38449     38445     38446     38445     38447     38445     38448
     38449     38450     38451     38455     38451     38452     38451     38453
     38451     38454     38455     38456     38457     38461     38457     38458
     38457     38459     38457     38460     38461     38462     38463     38467
     38463     38464     38463     38465     38463     38466     38467     38468
     38469     38473     38469     38470     38469     38471     38469     38472
     38473     38474     38475     38479     38475     38476     38475     38477
     38475     38478     38479     38480     38481     38485     38481     38482
     38481     38483     38481     38484     38485     38486     38487     38491
     38487     38488     38487     38489     38487     38490     38491     38492
     38493     38497     38493     38494     38493     38495     38493     38496
     38497     38498     38499     38503     38499     38500     38499     38501
     38499     38502     38503     38504     38505     38509     38505     38506
     38505     38507     38505     38508     38509     38510     38511     38515
     38511     38512     38511     38513     38511     38514     38515     38516
     38517     38521     38517     38518     38517     38519     38517     38520
     38521     38522     38523     38527     38523     38524     38523     38525
     38523     38526     38527     38528     38529     38533     38529     38530
     38529     38531     38529     38532     38533     38534     38535     38539
     38535     38536     38535     38537     38535     38538     38539     38540
     38541     38545     38541     38542     38541     38543     38541     38544
     38545     38546     38547     38551     38547     38548     38547     38549
     38547     38550     38551     38552     38553     38557     38553     38554
     38553     38555     38553     38556     38557     38558     38559     38563
     38559     38560     38559     38561     38559     38562     38563     38564
     38565     38569     38565     38566     38565     38567     38565     38568
     38569     38570     38571     38575     38571     38572     38571     38573
     38571     38574     38575     38576     38577     38581     38577     38578
     38577     38579     38577     38580     38581     38582     38583     38587
     38583     38584     38583     38585     38583     38586     38587     38588
     38589     38593     38589     38590     38589     38591     38589     38592
     38593     38594     38595     38599     38595     38596     38595     38597
     38595     38598     38599     38600     38601     38605     38601     38602
     38601     38603     38601     38604     38605     38606     38607     38611
     38607     38608     38607     38609     38607     38610     38611     38612
     38613     38617     38613     38614     38613     38615     38613     38616
     38617     38618     38619     38623     38619     38620     38619     38621
     38619     38622     38623     38624     38625     38629     38625     38626
     38625     38627     38625     38628     38629     38630     38631     38635
     38631     38632     38631     38633     38631     38634     38635     38636
     38637     38641     38637     38638     38637     38639     38637     38640
     38641     38642     38643     38647     38643     38644     38643     38645
     38643     38646     38647     38648     38649     38653     38649     38650
     38649     38651     38649     38652     38653     38654     38655     38659
     38655     38656     38655     38657     38655     38658     38659     38660
     38661     38665     38661     38662     38661     38663     38661     38664
     38665     38666     38667     38671     38667     38668     38667     38669
     38667     38670     38671     38672     38673     38677     38673     38674
     38673     38675     38673     38676     38677     38678     38679     38683
     38679     38680     38679     38681     38679     38682     38683     38684
     38685     38689     38685     38686     38685     38687     38685     38688
     38689     38690     38691     38695     38691     38692     38691     38693
     38691     38694     38695     38696     38697     38701     38697     38698
     38697     38699     38697     38700     38701     38702     38703     38707
     38703     38704     38703     38705     38703     38706     38707     38708
     38709     38713     38709     38710     38709     38711     38709     38712
     38713     38714     38715     38719     38715     38716     38715     38717
     38715     38718     38719     38720     38721     38725     38721     38722
     38721     38723     38721     38724     38725     38726     38727     38731
     38727     38728     38727     38729     38727     38730     38731     38732
     38733     38737     38733     38734     38733     38735     38733     38736
     38737     38738     38739     38743     38739     38740     38739     38741
     38739     38742     38743     38744     38745     38749     38745     38746
     38745     38747     38745     38748     38749     38750     38751     38755
     38751     38752     38751     38753     38751     38754     38755     38756
     38757     38761     38757     38758     38757     38759     38757     38760
     38761     38762     38763     38767     38763     38764     38763     38765
     38763     38766     38767     38768     38769     38773     38769     38770
     38769     38771     38769     38772     38773     38774     38775     38779
     38775     38776     38775     38777     38775     38778     38779     38780
     38781     38785     38781     38782     38781     38783     38781     38784
     38785     38786     38787     38791     38787     38788     38787     38789
     38787     38790     38791     38792     38793     38797     38793     38794
     38793     38795     38793     38796     38797     38798     38799     38803
     38799     38800     38799     38801     38799     38802     38803     38804
     38805     38809     38805     38806     38805     38807     38805     38808
     38809     38810     38811     38815     38811     38812     38811     38813
     38811     38814     38815     38816     38817     38821     38817     38818
     38817     38819     38817     38820     38821     38822     38823     38827
     38823     38824     38823     38825     38823     38826     38827     38828
     38829     38833     38829     38830     38829     38831     38829     38832
     38833     38834     38835     38839     38835     38836     38835     38837
     38835     38838     38839     38840     38841     38845     38841     38842
     38841     38843     38841     38844     38845     38846     38847     38851
     38847     38848     38847     38849     38847     38850     38851     38852
     38853     38857     38853     38854     38853     38855     38853     38856
     38857     38858     38859     38863     38859     38860     38859     38861
     38859     38862     38863     38864     38865     38869     38865     38866
     38865     38867     38865     38868     38869     38870     38871     38875
     38871     38872     38871     38873     38871     38874     38875     38876
     38877     38881     38877     38878     38877     38879     38877     38880
     38881     38882     38883     38887     38883     38884     38883     38885
     38883     38886     38887     38888     38889     38893     38889     38890
     38889     38891     38889     38892     38893     38894     38895     38899
     38895     38896     38895     38897     38895     38898     38899     38900
     38901     38905     38901     38902     38901     38903     38901     38904
     38905     38906     38907     38911     38907     38908     38907     38909
     38907     38910     38911     38912     38913     38917     38913     38914
     38913     38915     38913     38916     38917     38918     38919     38923
     38919     38920     38919     38921     38919     38922     38923     38924
     38925     38929     38925     38926     38925     38927     38925     38928
     38929     38930     38931     38935     38931     38932     38931     38933
     38931     38934     38935     38936     38937     38941     38937     38938
     38937     38939     38937     38940     38941     38942     38943     38947
     38943     38944     38943     38945     38943     38946     38947     38948
     38949     38953     38949     38950     38949     38951     38949     38952
     38953     38954     38955     38959     38955     38956     38955     38957
     38955     38958     38959     38960     38961     38965     38961     38962
     38961     38963     38961     38964     38965     38966     38967     38971
     38967     38968     38967     38969     38967     38970     38971     38972
     38973     38977     38973     38974     38973     38975     38973     38976
     38977     38978     38979     38983     38979     38980     38979     38981
     38979     38982     38983     38984     38985     38989     38985     38986
     38985     38987     38985     38988     38989     38990     38991     38995
     38991     38992     38991     38993     38991     38994     38995     38996
     38997     39001     38997     38998     38997     38999     38997     39000
     39001     39002     39003     39007     39003     39004     39003     39005
     39003     39006     39007     39008     39009     39013     39009     39010
     39009     39011     39009     39012     39013     39014     39015     39019
     39015     39016     39015     39017     39015     39018     39019     39020
     39021     39025     39021     39022     39021     39023     39021     39024
     39025     39026     39027     39031     39027     39028     39027     39029
     39027     39030     39031     39032     39033     39037     39033     39034
     39033     39035     39033     39036     39037     39038     39039     39043
     39039     39040     39039     39041     39039     39042     39043     39044
     39045     39049     39045     39046     39045     39047     39045     39048
     39049     39050     39051     39055     39051     39052     39051     39053
     39051     39054     39055     39056     39057     39061     39057     39058
     39057     39059     39057     39060     39061     39062     39063     39067
     39063     39064     39063     39065     39063     39066     39067     39068
     39069     39073     39069     39070     39069     39071     39069     39072
     39073     39074     39075     39079     39075     39076     39075     39077
     39075     39078     39079     39080     39081     39085     39081     39082
     39081     39083     39081     39084     39085     39086     39087     39091
     39087     39088     39087     39089     39087     39090     39091     39092
     39093     39097     39093     39094     39093     39095     39093     39096
     39097     39098     39099     39103     39099     39100     39099     39101
     39099     39102     39103     39104     39105     39109     39105     39106
     39105     39107     39105     39108     39109     39110     39111     39115
     39111     39112     39111     39113     39111     39114     39115     39116
     39117     39121     39117     39118     39117     39119     39117     39120
     39121     39122     39123     39127     39123     39124     39123     39125
     39123     39126     39127     39128     39129     39133     39129     39130
     39129     39131     39129     39132     39133     39134     39135     39139
     39135     39136     39135     39137     39135     39138     39139     39140
     39141     39145     39141     39142     39141     39143     39141     39144
     39145     39146     39147     39151     39147     39148     39147     39149
     39147     39150     39151     39152     39153     39157     39153     39154
     39153     39155     39153     39156     39157     39158     39159     39163
     39159     39160     39159     39161     39159     39162     39163     39164
     39165     39169     39165     39166     39165     39167     39165     39168
     39169     39170     39171     39175     39171     39172     39171     39173
     39171     39174     39175     39176     39177     39181     39177     39178
     39177     39179     39177     39180     39181     39182     39183     39187
     39183     39184     39183     39185     39183     39186     39187     39188
     39189     39193     39189     39190     39189     39191     39189     39192
     39193     39194     39195     39199     39195     39196     39195     39197
     39195     39198     39199     39200     39201     39205     39201     39202
     39201     39203     39201     39204     39205     39206     39207     39211
     39207     39208     39207     39209     39207     39210     39211     39212
     39213     39217     39213     39214     39213     39215     39213     39216
     39217     39218     39219     39223     39219     39220     39219     39221
     39219     39222     39223     39224     39225     39229     39225     39226
     39225     39227     39225     39228     39229     39230     39231     39235
     39231     39232     39231     39233     39231     39234     39235     39236
     39237     39241     39237     39238     39237     39239     39237     39240
     39241     39242     39243     39247     39243     39244     39243     39245
     39243     39246     39247     39248     39249     39253     39249     39250
     39249     39251     39249     39252     39253     39254     39255     39259
     39255     39256     39255     39257     39255     39258     39259     39260
     39261     39265     39261     39262     39261     39263     39261     39264
     39265     39266     39267     39271     39267     39268     39267     39269
     39267     39270     39271     39272     39273     39277     39273     39274
     39273     39275     39273     39276     39277     39278     39279     39283
     39279     39280     39279     39281     39279     39282     39283     39284
     39285     39289     39285     39286     39285     39287     39285     39288
     39289     39290     39291     39295     39291     39292     39291     39293
     39291     39294     39295     39296     39297     39301     39297     39298
     39297     39299     39297     39300     39301     39302     39303     39307
     39303     39304     39303     39305     39303     39306     39307     39308
     39309     39313     39309     39310     39309     39311     39309     39312
     39313     39314     39315     39319     39315     39316     39315     39317
     39315     39318     39319     39320     39321     39325     39321     39322
     39321     39323     39321     39324     39325     39326     39327     39331
     39327     39328     39327     39329     39327     39330     39331     39332
     39333     39337     39333     39334     39333     39335     39333     39336
     39337     39338     39339     39343     39339     39340     39339     39341
     39339     39342     39343     39344     39345     39349     39345     39346
     39345     39347     39345     39348     39349     39350     39351     39355
     39351     39352     39351     39353     39351     39354     39355     39356
     39357     39361     39357     39358     39357     39359     39357     39360
     39361     39362     39363     39367     39363     39364     39363     39365
     39363     39366     39367     39368     39369     39373     39369     39370
     39369     39371     39369     39372     39373     39374     39375     39379
     39375     39376     39375     39377     39375     39378     39379     39380
     39381     39385     39381     39382     39381     39383     39381     39384
     39385     39386     39387     39391     39387     39388     39387     39389
     39387     39390     39391     39392     39393     39397     39393     39394
     39393     39395     39393     39396     39397     39398     39399     39403
     39399     39400     39399     39401     39399     39402     39403     39404
     39405     39409     39405     39406     39405     39407     39405     39408
     39409     39410     39411     39415     39411     39412     39411     39413
     39411     39414     39415     39416     39417     39421     39417     39418
     39417     39419     39417     39420     39421     39422     39423     39427
     39423     39424     39423     39425     39423     39426     39427     39428
     39429     39433     39429     39430     39429     39431     39429     39432
     39433     39434     39435     39439     39435     39436     39435     39437
     39435     39438     39439     39440     39441     39445     39441     39442
     39441     39443     39441     39444     39445     39446     39447     39451
     39447     39448     39447     39449     39447     39450     39451     39452
     39453     39457     39453     39454     39453     39455     39453     39456
     39457     39458     39459     39463     39459     39460     39459     39461
     39459     39462     39463     39464     39465     39469     39465     39466
     39465     39467     39465     39468     39469     39470     39471     39475
     39471     39472     39471     39473     39471     39474     39475     39476
     39477     39481     39477     39478     39477     39479     39477     39480
     39481     39482     39483     39487     39483     39484     39483     39485
     39483     39486     39487     39488     39489     39493     39489     39490
     39489     39491     39489     39492     39493     39494     39495     39499
     39495     39496     39495     39497     39495     39498     39499     39500
     39501     39505     39501     39502     39501     39503     39501     39504
     39505     39506     39507     39511     39507     39508     39507     39509
     39507     39510     39511     39512     39513     39517     39513     39514
     39513     39515     39513     39516     39517     39518     39519     39523
     39519     39520     39519     39521     39519     39522     39523     39524
     39525     39529     39525     39526     39525     39527     39525     39528
     39529     39530     39531     39535     39531     39532     39531     39533
     39531     39534     39535     39536     39537     39541     39537     39538
     39537     39539     39537     39540     39541     39542     39543     39547
     39543     39544     39543     39545     39543     39546     39547     39548
     39549     39553     39549     39550     39549     39551     39549     39552
     39553     39554     39555     39559     39555     39556     39555     39557
     39555     39558     39559     39560     39561     39565     39561     39562
     39561     39563     39561     39564     39565     39566     39567     39571
     39567     39568     39567     39569     39567     39570     39571     39572
     39573     39577     39573     39574     39573     39575     39573     39576
     39577     39578     39579     39583     39579     39580     39579     39581
     39579     39582     39583     39584     39585     39589     39585     39586
     39585     39587     39585     39588     39589     39590     39591     39595
     39591     39592     39591     39593     39591     39594     39595     39596
     39597     39601     39597     39598     39597     39599     39597     39600
     39601     39602     39603     39607     39603     39604     39603     39605
     39603     39606     39607     39608     39609     39613     39609     39610
     39609     39611     39609     39612     39613     39614     39615     39619
     39615     39616     39615     39617     39615     39618     39619     39620
     39621     39625     39621     39622     39621     39623     39621     39624
     39625     39626     39627     39631     39627     39628     39627     39629
     39627     39630     39631     39632     39633     39637     39633     39634
     39633     39635     39633     39636     39637     39638     39639     39643
     39639     39640     39639     39641     39639     39642     39643     39644
     39645     39649     39645     39646     39645     39647     39645     39648
     39649     39650     39651     39655     39651     39652     39651     39653
     39651     39654     39655     39656     39657     39661     39657     39658
     39657     39659     39657     39660     39661     39662     39663     39667
     39663     39664     39663     39665     39663     39666     39667     39668
     39669     39673     39669     39670     39669     39671     39669     39672
     39673     39674     39675     39679     39675     39676     39675     39677
     39675     39678     39679     39680     39681     39685     39681     39682
     39681     39683     39681     39684     39685     39686     39687     39691
     39687     39688     39687     39689     39687     39690     39691     39692
     39693     39697     39693     39694     39693     39695     39693     39696
     39697     39698     39699     39703     39699     39700     39699     39701
     39699     39702     39703     39704     39705     39709     39705     39706
     39705     39707     39705     39708     39709     39710     39711     39715
     39711     39712     39711     39713     39711     39714     39715     39716
     39717     39721     39717     39718     39717     39719     39717     39720
     39721     39722     39723     39727     39723     39724     39723     39725
     39723     39726     39727     39728     39729     39733     39729     39730
     39729     39731     39729     39732     39733     39734     39735     39739
     39735     39736     39735     39737     39735     39738     39739     39740
     39741     39745     39741     39742     39741     39743     39741     39744
     39745     39746     39747     39751     39747     39748     39747     39749
     39747     39750     39751     39752     39753     39757     39753     39754
     39753     39755     39753     39756     39757     39758     39759     39763
     39759     39760     39759     39761     39759     39762     39763     39764
     39765     39769     39765     39766     39765     39767     39765     39768
     39769     39770     39771     39775     39771     39772     39771     39773
     39771     39774     39775     39776     39777     39781     39777     39778
     39777     39779     39777     39780     39781     39782     39783     39787
     39783     39784     39783     39785     39783     39786     39787     39788
     39789     39793     39789     39790     39789     39791     39789     39792
     39793     39794     39795     39799     39795     39796     39795     39797
     39795     39798     39799     39800     39801     39805     39801     39802
     39801     39803     39801     39804     39805     39806     39807     39811
     39807     39808     39807     39809     39807     39810     39811     39812
     39813     39817     39813     39814     39813     39815     39813     39816
     39817     39818     39819     39823     39819     39820     39819     39821
     39819     39822     39823     39824     39825     39829     39825     39826
     39825     39827     39825     39828     39829     39830     39831     39835
     39831     39832     39831     39833     39831     39834     39835     39836
     39837     39841     39837     39838     39837     39839     39837     39840
     39841     39842     39843     39847     39843     39844     39843     39845
     39843     39846     39847     39848     39849     39853     39849     39850
     39849     39851     39849     39852     39853     39854     39855     39859
     39855     39856     39855     39857     39855     39858     39859     39860
     39861     39865     39861     39862     39861     39863     39861     39864
     39865     39866     39867     39871     39867     39868     39867     39869
     39867     39870     39871     39872     39873     39877     39873     39874
     39873     39875     39873     39876     39877     39878     39879     39883
     39879     39880     39879     39881     39879     39882     39883     39884
     39885     39889     39885     39886     39885     39887     39885     39888
     39889     39890     39891     39895     39891     39892     39891     39893
     39891     39894     39895     39896     39897     39901     39897     39898
     39897     39899     39897     39900     39901     39902     39903     39907
     39903     39904     39903     39905     39903     39906     39907     39908
     39909     39913     39909     39910     39909     39911     39909     39912
     39913     39914     39915     39919     39915     39916     39915     39917
     39915     39918     39919     39920     39921     39925     39921     39922
     39921     39923     39921     39924     39925     39926     39927     39931
     39927     39928     39927     39929     39927     39930     39931     39932
     39933     39937     39933     39934     39933     39935     39933     39936
     39937     39938     39939     39943     39939     39940     39939     39941
     39939     39942     39943     39944     39945     39949     39945     39946
     39945     39947     39945     39948     39949     39950     39951     39955
     39951     39952     39951     39953     39951     39954     39955     39956
     39957     39961     39957     39958     39957     39959     39957     39960
     39961     39962     39963     39967     39963     39964     39963     39965
     39963     39966     39967     39968     39969     39973     39969     39970
     39969     39971     39969     39972     39973     39974     39975     39979
     39975     39976     39975     39977     39975     39978     39979     39980
     39981     39985     39981     39982     39981     39983     39981     39984
     39985     39986     39987     39991     39987     39988     39987     39989
     39987     39990     39991     39992     39993     39997     39993     39994
     39993     39995     39993     39996     39997     39998     39999     40003
     39999     40000     39999     40001     39999     40002     40003     40004
     40005     40009     40005     40006     40005     40007     40005     40008
     40009     40010     40011     40015     40011     40012     40011     40013
     40011     40014     40015     40016     40017     40021     40017     40018
     40017     40019     40017     40020     40021     40022     40023     40027
     40023     40024     40023     40025     40023     40026     40027     40028
     40029     40033     40029     40030     40029     40031     40029     40032
     40033     40034     40035     40039     40035     40036     40035     40037
     40035     40038     40039     40040     40041     40045     40041     40042
     40041     40043     40041     40044     40045     40046     40047     40051
     40047     40048     40047     40049     40047     40050     40051     40052
     40053     40057     40053     40054     40053     40055     40053     40056
     40057     40058     40059     40063     40059     40060     40059     40061
     40059     40062     40063     40064     40065     40069     40065     40066
     40065     40067     40065     40068     40069     40070     40071     40075
     40071     40072     40071     40073     40071     40074     40075     40076
     40077     40081     40077     40078     40077     40079     40077     40080
     40081     40082     40083     40087     40083     40084     40083     40085
     40083     40086     40087     40088     40089     40093     40089     40090
     40089     40091     40089     40092     40093     40094     40095     40099
     40095     40096     40095     40097     40095     40098     40099     40100
     40101     40105     40101     40102     40101     40103     40101     40104
     40105     40106     40107     40111     40107     40108     40107     40109
     40107     40110     40111     40112     40113     40117     40113     40114
     40113     40115     40113     40116     40117     40118     40119     40123
     40119     40120     40119     40121     40119     40122     40123     40124
     40125     40129     40125     40126     40125     40127     40125     40128
     40129     40130     40131     40135     40131     40132     40131     40133
     40131     40134     40135     40136     40137     40141     40137     40138
     40137     40139     40137     40140     40141     40142     40143     40147
     40143     40144     40143     40145     40143     40146     40147     40148
     40149     40153     40149     40150     40149     40151     40149     40152
     40153     40154     40155     40159     40155     40156     40155     40157
     40155     40158     40159     40160     40161     40165     40161     40162
     40161     40163     40161     40164     40165     40166     40167     40171
     40167     40168     40167     40169     40167     40170     40171     40172
     40173     40177     40173     40174     40173     40175     40173     40176
     40177     40178     40179     40183     40179     40180     40179     40181
     40179     40182     40183     40184     40185     40189     40185     40186
     40185     40187     40185     40188     40189     40190     40191     40195
     40191     40192     40191     40193     40191     40194     40195     40196
     40197     40201     40197     40198     40197     40199     40197     40200
     40201     40202     40203     40207     40203     40204     40203     40205
     40203     40206     40207     40208     40209     40213     40209     40210
     40209     40211     40209     40212     40213     40214     40215     40219
     40215     40216     40215     40217     40215     40218     40219     40220
     40221     40225     40221     40222     40221     40223     40221     40224
     40225     40226     40227     40231     40227     40228     40227     40229
     40227     40230     40231     40232     40233     40237     40233     40234
     40233     40235     40233     40236     40237     40238     40239     40243
     40239     40240     40239     40241     40239     40242     40243     40244
     40245     40249     40245     40246     40245     40247     40245     40248
     40249     40250     40251     40255     40251     40252     40251     40253
     40251     40254     40255     40256     40257     40261     40257     40258
     40257     40259     40257     40260     40261     40262     40263     40267
     40263     40264     40263     40265     40263     40266     40267     40268
     40269     40273     40269     40270     40269     40271     40269     40272
     40273     40274     40275     40279     40275     40276     40275     40277
     40275     40278     40279     40280     40281     40285     40281     40282
     40281     40283     40281     40284     40285     40286     40287     40291
     40287     40288     40287     40289     40287     40290     40291     40292
     40293     40297     40293     40294     40293     40295     40293     40296
     40297     40298     40299     40303     40299     40300     40299     40301
     40299     40302     40303     40304     40305     40309     40305     40306
     40305     40307     40305     40308     40309     40310     40311     40315
     40311     40312     40311     40313     40311     40314     40315     40316
     40317     40321     40317     40318     40317     40319     40317     40320
     40321     40322     40323     40327     40323     40324     40323     40325
     40323     40326     40327     40328     40329     40333     40329     40330
     40329     40331     40329     40332     40333     40334     40335     40339
     40335     40336     40335     40337     40335     40338     40339     40340
     40341     40345     40341     40342     40341     40343     40341     40344
     40345     40346     40347     40351     40347     40348     40347     40349
     40347     40350     40351     40352     40353     40357     40353     40354
     40353     40355     40353     40356     40357     40358     40359     40363
     40359     40360     40359     40361     40359     40362     40363     40364
     40365     40369     40365     40366     40365     40367     40365     40368
     40369     40370     40371     40375     40371     40372     40371     40373
     40371     40374     40375     40376     40377     40381     40377     40378
     40377     40379     40377     40380     40381     40382     40383     40387
     40383     40384     40383     40385     40383     40386     40387     40388
     40389     40393     40389     40390     40389     40391     40389     40392
     40393     40394     40395     40399     40395     40396     40395     40397
     40395     40398     40399     40400     40401     40405     40401     40402
     40401     40403     40401     40404     40405     40406     40407     40411
     40407     40408     40407     40409     40407     40410     40411     40412
     40413     40417     40413     40414     40413     40415     40413     40416
     40417     40418     40419     40423     40419     40420     40419     40421
     40419     40422     40423     40424     40425     40429     40425     40426
     40425     40427     40425     40428     40429     40430     40431     40435
     40431     40432     40431     40433     40431     40434     40435     40436
     40437     40441     40437     40438     40437     40439     40437     40440
     40441     40442     40443     40447     40443     40444     40443     40445
     40443     40446     40447     40448     40449     40453     40449     40450
     40449     40451     40449     40452     40453     40454     40455     40459
     40455     40456     40455     40457     40455     40458     40459     40460
     40461     40465     40461     40462     40461     40463     40461     40464
     40465     40466     40467     40471     40467     40468     40467     40469
     40467     40470     40471     40472     40473     40477     40473     40474
     40473     40475     40473     40476     40477     40478     40479     40483
     40479     40480     40479     40481     40479     40482     40483     40484
     40485     40489     40485     40486     40485     40487     40485     40488
     40489     40490     40491     40495     40491     40492     40491     40493
     40491     40494     40495     40496     40497     40501     40497     40498
     40497     40499     40497     40500     40501     40502     40503     40507
     40503     40504     40503     40505     40503     40506     40507     40508
     40509     40513     40509     40510     40509     40511     40509     40512
     40513     40514     40515     40519     40515     40516     40515     40517
     40515     40518     40519     40520     40521     40525     40521     40522
     40521     40523     40521     40524     40525     40526     40527     40531
     40527     40528     40527     40529     40527     40530     40531     40532
     40533     40537     40533     40534     40533     40535     40533     40536
     40537     40538     40539     40543     40539     40540     40539     40541
     40539     40542     40543     40544     40545     40549     40545     40546
     40545     40547     40545     40548     40549     40550     40551     40555
     40551     40552     40551     40553     40551     40554     40555     40556
     40557     40561     40557     40558     40557     40559     40557     40560
     40561     40562     40563     40567     40563     40564     40563     40565
     40563     40566     40567     40568     40569     40573     40569     40570
     40569     40571     40569     40572     40573     40574     40575     40579
     40575     40576     40575     40577     40575     40578     40579     40580
     40581     40585     40581     40582     40581     40583     40581     40584
     40585     40586     40587     40591     40587     40588     40587     40589
     40587     40590     40591     40592     40593     40597     40593     40594
     40593     40595     40593     40596     40597     40598     40599     40603
     40599     40600     40599     40601     40599     40602     40603     40604
     40605     40609     40605     40606     40605     40607     40605     40608
     40609     40610     40611     40615     40611     40612     40611     40613
     40611     40614     40615     40616     40617     40621     40617     40618
     40617     40619     40617     40620     40621     40622     40623     40627
     40623     40624     40623     40625     40623     40626     40627     40628
     40629     40633     40629     40630     40629     40631     40629     40632
     40633     40634     40635     40639     40635     40636     40635     40637
     40635     40638     40639     40640     40641     40645     40641     40642
     40641     40643     40641     40644     40645     40646     40647     40651
     40647     40648     40647     40649     40647     40650     40651     40652
     40653     40657     40653     40654     40653     40655     40653     40656
     40657     40658     40659     40663     40659     40660     40659     40661
     40659     40662     40663     40664     40665     40669     40665     40666
     40665     40667     40665     40668     40669     40670     40671     40675
     40671     40672     40671     40673     40671     40674     40675     40676
     40677     40681     40677     40678     40677     40679     40677     40680
     40681     40682     40683     40687     40683     40684     40683     40685
     40683     40686     40687     40688     40689     40693     40689     40690
     40689     40691     40689     40692     40693     40694     40695     40699
     40695     40696     40695     40697     40695     40698     40699     40700
     40701     40705     40701     40702     40701     40703     40701     40704
     40705     40706     40707     40711     40707     40708     40707     40709
     40707     40710     40711     40712     40713     40717     40713     40714
     40713     40715     40713     40716     40717     40718     40719     40723
     40719     40720     40719     40721     40719     40722     40723     40724
     40725     40729     40725     40726     40725     40727     40725     40728
     40729     40730     40731     40735     40731     40732     40731     40733
     40731     40734     40735     40736     40737     40741     40737     40738
     40737     40739     40737     40740     40741     40742     40743     40747
     40743     40744     40743     40745     40743     40746     40747     40748
     40749     40753     40749     40750     40749     40751     40749     40752
     40753     40754     40755     40759     40755     40756     40755     40757
     40755     40758     40759     40760     40761     40765     40761     40762
     40761     40763     40761     40764     40765     40766     40767     40771
     40767     40768     40767     40769     40767     40770     40771     40772
     40773     40777     40773     40774     40773     40775     40773     40776
     40777     40778     40779     40783     40779     40780     40779     40781
     40779     40782     40783     40784     40785     40789     40785     40786
     40785     40787     40785     40788     40789     40790     40791     40795
     40791     40792     40791     40793     40791     40794     40795     40796
     40797     40801     40797     40798     40797     40799     40797     40800
     40801     40802     40803     40807     40803     40804     40803     40805
     40803     40806     40807     40808     40809     40813     40809     40810
     40809     40811     40809     40812     40813     40814     40815     40819
     40815     40816     40815     40817     40815     40818     40819     40820
     40821     40825     40821     40822     40821     40823     40821     40824
     40825     40826     40827     40831     40827     40828     40827     40829
     40827     40830     40831     40832     40833     40837     40833     40834
     40833     40835     40833     40836     40837     40838     40839     40843
     40839     40840     40839     40841     40839     40842     40843     40844
     40845     40849     40845     40846     40845     40847     40845     40848
     40849     40850     40851     40855     40851     40852     40851     40853
     40851     40854     40855     40856     40857     40861     40857     40858
     40857     40859     40857     40860     40861     40862     40863     40867
     40863     40864     40863     40865     40863     40866     40867     40868
     40869     40873     40869     40870     40869     40871     40869     40872
     40873     40874     40875     40879     40875     40876     40875     40877
     40875     40878     40879     40880     40881     40885     40881     40882
     40881     40883     40881     40884     40885     40886     40887     40891
     40887     40888     40887     40889     40887     40890     40891     40892
     40893     40897     40893     40894     40893     40895     40893     40896
     40897     40898     40899     40903     40899     40900     40899     40901
     40899     40902     40903     40904     40905     40909     40905     40906
     40905     40907     40905     40908     40909     40910     40911     40915
     40911     40912     40911     40913     40911     40914     40915     40916
     40917     40921     40917     40918     40917     40919     40917     40920
     40921     40922     40923     40927     40923     40924     40923     40925
     40923     40926     40927     40928     40929     40933     40929     40930
     40929     40931     40929     40932     40933     40934     40935     40939
     40935     40936     40935     40937     40935     40938     40939     40940
     40941     40945     40941     40942     40941     40943     40941     40944
     40945     40946     40947     40951     40947     40948     40947     40949
     40947     40950     40951     40952     40953     40957     40953     40954
     40953     40955     40953     40956     40957     40958     40959     40963
     40959     40960     40959     40961     40959     40962     40963     40964
     40965     40969     40965     40966     40965     40967     40965     40968
     40969     40970     40971     40975     40971     40972     40971     40973
     40971     40974     40975     40976     40977     40981     40977     40978
     40977     40979     40977     40980     40981     40982     40983     40987
     40983     40984     40983     40985     40983     40986     40987     40988
     40989     40993     40989     40990     40989     40991     40989     40992
     40993     40994     40995     40999     40995     40996     40995     40997
     40995     40998     40999     41000     41001     41005     41001     41002
     41001     41003     41001     41004     41005     41006     41007     41011
     41007     41008     41007     41009     41007     41010     41011     41012
     41013     41017     41013     41014     41013     41015     41013     41016
     41017     41018     41019     41023     41019     41020     41019     41021
     41019     41022     41023     41024     41025     41029     41025     41026
     41025     41027     41025     41028     41029     41030     41031     41035
     41031     41032     41031     41033     41031     41034     41035     41036
     41037     41041     41037     41038     41037     41039     41037     41040
     41041     41042     41043     41047     41043     41044     41043     41045
     41043     41046     41047     41048     41049     41053     41049     41050
     41049     41051     41049     41052     41053     41054     41055     41059
     41055     41056     41055     41057     41055     41058     41059     41060
     41061     41065     41061     41062     41061     41063     41061     41064
     41065     41066     41067     41071     41067     41068     41067     41069
     41067     41070     41071     41072     41073     41077     41073     41074
     41073     41075     41073     41076     41077     41078     41079     41083
     41079     41080     41079     41081     41079     41082     41083     41084
     41085     41089     41085     41086     41085     41087     41085     41088
     41089     41090     41091     41095     41091     41092     41091     41093
     41091     41094     41095     41096     41097     41101     41097     41098
     41097     41099     41097     41100     41101     41102     41103     41107
     41103     41104     41103     41105     41103     41106     41107     41108
     41109     41113     41109     41110     41109     41111     41109     41112
     41113     41114     41115     41119     41115     41116     41115     41117
     41115     41118     41119     41120     41121     41125     41121     41122
     41121     41123     41121     41124     41125     41126     41127     41131
     41127     41128     41127     41129     41127     41130     41131     41132
     41133     41137     41133     41134     41133     41135     41133     41136
     41137     41138     41139     41143     41139     41140     41139     41141
     41139     41142     41143     41144     41145     41149     41145     41146
     41145     41147     41145     41148     41149     41150     41151     41155
     41151     41152     41151     41153     41151     41154     41155     41156
     41157     41161     41157     41158     41157     41159     41157     41160
     41161     41162     41163     41167     41163     41164     41163     41165
     41163     41166     41167     41168     41169     41173     41169     41170
     41169     41171     41169     41172     41173     41174     41175     41179
     41175     41176     41175     41177     41175     41178     41179     41180
     41181     41185     41181     41182     41181     41183     41181     41184
     41185     41186     41187     41191     41187     41188     41187     41189
     41187     41190     41191     41192     41193     41197     41193     41194
     41193     41195     41193     41196     41197     41198     41199     41203
     41199     41200     41199     41201     41199     41202     41203     41204
     41205     41209     41205     41206     41205     41207     41205     41208
     41209     41210     41211     41215     41211     41212     41211     41213
     41211     41214     41215     41216     41217     41221     41217     41218
     41217     41219     41217     41220     41221     41222     41223     41227
     41223     41224     41223     41225     41223     41226     41227     41228
     41229     41233     41229     41230     41229     41231     41229     41232
     41233     41234     41235     41239     41235     41236     41235     41237
     41235     41238     41239     41240     41241     41245     41241     41242
     41241     41243     41241     41244     41245     41246     41247     41251
     41247     41248     41247     41249     41247     41250     41251     41252
     41253     41257     41253     41254     41253     41255     41253     41256
     41257     41258     41259     41263     41259     41260     41259     41261
     41259     41262     41263     41264     41265     41269     41265     41266
     41265     41267     41265     41268     41269     41270     41271     41275
     41271     41272     41271     41273     41271     41274     41275     41276
     41277     41281     41277     41278     41277     41279     41277     41280
     41281     41282     41283     41287     41283     41284     41283     41285
     41283     41286     41287     41288     41289     41293     41289     41290
     41289     41291     41289     41292     41293     41294     41295     41299
     41295     41296     41295     41297     41295     41298     41299     41300
     41301     41305     41301     41302     41301     41303     41301     41304
     41305     41306     41307     41311     41307     41308     41307     41309
     41307     41310     41311     41312     41313     41317     41313     41314
     41313     41315     41313     41316     41317     41318     41319     41323
     41319     41320     41319     41321     41319     41322     41323     41324
     41325     41329     41325     41326     41325     41327     41325     41328
     41329     41330     41331     41335     41331     41332     41331     41333
     41331     41334     41335     41336     41337     41341     41337     41338
     41337     41339     41337     41340     41341     41342     41343     41347
     41343     41344     41343     41345     41343     41346     41347     41348
     41349     41353     41349     41350     41349     41351     41349     41352
     41353     41354     41355     41359     41355     41356     41355     41357
     41355     41358     41359     41360     41361     41365     41361     41362
     41361     41363     41361     41364     41365     41366     41367     41371
     41367     41368     41367     41369     41367     41370     41371     41372
     41373     41377     41373     41374     41373     41375     41373     41376
     41377     41378     41379     41383     41379     41380     41379     41381
     41379     41382     41383     41384     41385     41389     41385     41386
     41385     41387     41385     41388     41389     41390     41391     41395
     41391     41392     41391     41393     41391     41394     41395     41396
     41397     41401     41397     41398     41397     41399     41397     41400
     41401     41402     41403     41407     41403     41404     41403     41405
     41403     41406     41407     41408     41409     41413     41409     41410
     41409     41411     41409     41412     41413     41414     41415     41419
     41415     41416     41415     41417     41415     41418     41419     41420
     41421     41425     41421     41422     41421     41423     41421     41424
     41425     41426     41427     41431     41427     41428     41427     41429
     41427     41430     41431     41432     41433     41437     41433     41434
     41433     41435     41433     41436     41437     41438     41439     41443
     41439     41440     41439     41441     41439     41442     41443     41444
     41445     41449     41445     41446     41445     41447     41445     41448
     41449     41450     41451     41455     41451     41452     41451     41453
     41451     41454     41455     41456     41457     41461     41457     41458
     41457     41459     41457     41460     41461     41462     41463     41467
     41463     41464     41463     41465     41463     41466     41467     41468
     41469     41473     41469     41470     41469     41471     41469     41472
     41473     41474     41475     41479     41475     41476     41475     41477
     41475     41478     41479     41480     41481     41485     41481     41482
     41481     41483     41481     41484     41485     41486     41487     41491
     41487     41488     41487     41489     41487     41490     41491     41492
     41493     41497     41493     41494     41493     41495     41493     41496
     41497     41498     41499     41503     41499     41500     41499     41501
     41499     41502     41503     41504     41505     41509     41505     41506
     41505     41507     41505     41508     41509     41510     41511     41515
     41511     41512     41511     41513     41511     41514     41515     41516
     41517     41521     41517     41518     41517     41519     41517     41520
     41521     41522     41523     41527     41523     41524     41523     41525
     41523     41526     41527     41528     41529     41533     41529     41530
     41529     41531     41529     41532     41533     41534     41535     41539
     41535     41536     41535     41537     41535     41538     41539     41540
     41541     41545     41541     41542     41541     41543     41541     41544
     41545     41546     41547     41551     41547     41548     41547     41549
     41547     41550     41551     41552     41553     41557     41553     41554
     41553     41555     41553     41556     41557     41558     41559     41563
     41559     41560     41559     41561     41559     41562     41563     41564
     41565     41569     41565     41566     41565     41567     41565     41568
     41569     41570     41571     41575     41571     41572     41571     41573
     41571     41574     41575     41576     41577     41581     41577     41578
     41577     41579     41577     41580     41581     41582     41583     41587
     41583     41584     41583     41585     41583     41586     41587     41588
     41589     41593     41589     41590     41589     41591     41589     41592
     41593     41594     41595     41599     41595     41596     41595     41597
     41595     41598     41599     41600     41601     41605     41601     41602
     41601     41603     41601     41604     41605     41606     41607     41611
     41607     41608     41607     41609     41607     41610     41611     41612
     41613     41617     41613     41614     41613     41615     41613     41616
     41617     41618     41619     41623     41619     41620     41619     41621
     41619     41622     41623     41624     41625     41629     41625     41626
     41625     41627     41625     41628     41629     41630     41631     41635
     41631     41632     41631     41633     41631     41634     41635     41636
     41637     41641     41637     41638     41637     41639     41637     41640
     41641     41642     41643     41647     41643     41644     41643     41645
     41643     41646     41647     41648     41649     41653     41649     41650
     41649     41651     41649     41652     41653     41654     41655     41659
     41655     41656     41655     41657     41655     41658     41659     41660
     41661     41665     41661     41662     41661     41663     41661     41664
     41665     41666     41667     41671     41667     41668     41667     41669
     41667     41670     41671     41672     41673     41677     41673     41674
     41673     41675     41673     41676     41677     41678     41679     41683
     41679     41680     41679     41681     41679     41682     41683     41684
     41685     41689     41685     41686     41685     41687     41685     41688
     41689     41690     41691     41695     41691     41692     41691     41693
     41691     41694     41695     41696     41697     41701     41697     41698
     41697     41699     41697     41700     41701     41702     41703     41707
     41703     41704     41703     41705     41703     41706     41707     41708
     41709     41713     41709     41710     41709     41711     41709     41712
     41713     41714     41715     41719     41715     41716     41715     41717
     41715     41718     41719     41720     41721     41725     41721     41722
     41721     41723     41721     41724     41725     41726     41727     41731
     41727     41728     41727     41729     41727     41730     41731     41732
     41733     41737     41733     41734     41733     41735     41733     41736
     41737     41738     41739     41743     41739     41740     41739     41741
     41739     41742     41743     41744     41745     41749     41745     41746
     41745     41747     41745     41748     41749     41750     41751     41755
     41751     41752     41751     41753     41751     41754     41755     41756
     41757     41761     41757     41758     41757     41759     41757     41760
     41761     41762     41763     41767     41763     41764     41763     41765
     41763     41766     41767     41768     41769     41773     41769     41770
     41769     41771     41769     41772     41773     41774     41775     41779
     41775     41776     41775     41777     41775     41778     41779     41780
     41781     41785     41781     41782     41781     41783     41781     41784
     41785     41786     41787     41791     41787     41788     41787     41789
     41787     41790     41791     41792     41793     41797     41793     41794
     41793     41795     41793     41796     41797     41798     41799     41803
     41799     41800     41799     41801     41799     41802     41803     41804
     41805     41809     41805     41806     41805     41807     41805     41808
     41809     41810     41811     41815     41811     41812     41811     41813
     41811     41814     41815     41816     41817     41821     41817     41818
     41817     41819     41817     41820     41821     41822     41823     41827
     41823     41824     41823     41825     41823     41826     41827     41828
     41829     41833     41829     41830     41829     41831     41829     41832
     41833     41834     41835     41839     41835     41836     41835     41837
     41835     41838     41839     41840     41841     41845     41841     41842
     41841     41843     41841     41844     41845     41846     41847     41851
     41847     41848     41847     41849     41847     41850     41851     41852
     41853     41857     41853     41854     41853     41855     41853     41856
     41857     41858     41859     41863     41859     41860     41859     41861
     41859     41862     41863     41864     41865     41869     41865     41866
     41865     41867     41865     41868     41869     41870     41871     41875
     41871     41872     41871     41873     41871     41874     41875     41876
     41877     41881     41877     41878     41877     41879     41877     41880
     41881     41882     41883     41887     41883     41884     41883     41885
     41883     41886     41887     41888     41889     41893     41889     41890
     41889     41891     41889     41892     41893     41894     41895     41899
     41895     41896     41895     41897     41895     41898     41899     41900
     41901     41905     41901     41902     41901     41903     41901     41904
     41905     41906     41907     41911     41907     41908     41907     41909
     41907     41910     41911     41912     41913     41917     41913     41914
     41913     41915     41913     41916     41917     41918     41919     41923
     41919     41920     41919     41921     41919     41922     41923     41924
     41925     41929     41925     41926     41925     41927     41925     41928
     41929     41930     41931     41935     41931     41932     41931     41933
     41931     41934     41935     41936     41937     41941     41937     41938
     41937     41939     41937     41940     41941     41942     41943     41947
     41943     41944     41943     41945     41943     41946     41947     41948
     41949     41953     41949     41950     41949     41951     41949     41952
     41953     41954     41955     41959     41955     41956     41955     41957
     41955     41958     41959     41960     41961     41965     41961     41962
     41961     41963     41961     41964     41965     41966     41967     41971
     41967     41968     41967     41969     41967     41970     41971     41972
     41973     41977     41973     41974     41973     41975     41973     41976
     41977     41978     41979     41983     41979     41980     41979     41981
     41979     41982     41983     41984     41985     41989     41985     41986
     41985     41987     41985     41988     41989     41990     41991     41995
     41991     41992     41991     41993     41991     41994     41995     41996
     41997     42001     41997     41998     41997     41999     41997     42000
     42001     42002     42003     42007     42003     42004     42003     42005
     42003     42006     42007     42008     42009     42013     42009     42010
     42009     42011     42009     42012     42013     42014     42015     42019
     42015     42016     42015     42017     42015     42018     42019     42020
     42021     42025     42021     42022     42021     42023     42021     42024
     42025     42026     42027     42031     42027     42028     42027     42029
     42027     42030     42031     42032     42033     42037     42033     42034
     42033     42035     42033     42036     42037     42038     42039     42043
     42039     42040     42039     42041     42039     42042     42043     42044
     42045     42049     42045     42046     42045     42047     42045     42048
     42049     42050     42051     42055     42051     42052     42051     42053
     42051     42054     42055     42056     42057     42061     42057     42058
     42057     42059     42057     42060     42061     42062     42063     42067
     42063     42064     42063     42065     42063     42066     42067     42068
     42069     42073     42069     42070     42069     42071     42069     42072
     42073     42074     42075     42079     42075     42076     42075     42077
     42075     42078     42079     42080     42081     42085     42081     42082
     42081     42083     42081     42084     42085     42086     42087     42091
     42087     42088     42087     42089     42087     42090     42091     42092
     42093     42097     42093     42094     42093     42095     42093     42096
     42097     42098     42099     42103     42099     42100     42099     42101
     42099     42102     42103     42104     42105     42109     42105     42106
     42105     42107     42105     42108     42109     42110     42111     42115
     42111     42112     42111     42113     42111     42114     42115     42116
     42117     42121     42117     42118     42117     42119     42117     42120
     42121     42122     42123     42127     42123     42124     42123     42125
     42123     42126     42127     42128     42129     42133     42129     42130
     42129     42131     42129     42132     42133     42134     42135     42139
     42135     42136     42135     42137     42135     42138     42139     42140
     42141     42145     42141     42142     42141     42143     42141     42144
     42145     42146     42147     42151     42147     42148     42147     42149
     42147     42150     42151     42152     42153     42157     42153     42154
     42153     42155     42153     42156     42157     42158     42159     42163
     42159     42160     42159     42161     42159     42162     42163     42164
     42165     42169     42165     42166     42165     42167     42165     42168
     42169     42170     42171     42175     42171     42172     42171     42173
     42171     42174     42175     42176     42177     42181     42177     42178
     42177     42179     42177     42180     42181     42182     42183     42187
     42183     42184     42183     42185     42183     42186     42187     42188
     42189     42193     42189     42190     42189     42191     42189     42192
     42193     42194     42195     42199     42195     42196     42195     42197
     42195     42198     42199     42200     42201     42205     42201     42202
     42201     42203     42201     42204     42205     42206     42207     42211
     42207     42208     42207     42209     42207     42210     42211     42212
     42213     42217     42213     42214     42213     42215     42213     42216
     42217     42218     42219     42223     42219     42220     42219     42221
     42219     42222     42223     42224     42225     42229     42225     42226
     42225     42227     42225     42228     42229     42230     42231     42235
     42231     42232     42231     42233     42231     42234     42235     42236
     42237     42241     42237     42238     42237     42239     42237     42240
     42241     42242     42243     42247     42243     42244     42243     42245
     42243     42246     42247     42248     42249     42253     42249     42250
     42249     42251     42249     42252     42253     42254     42255     42259
     42255     42256     42255     42257     42255     42258     42259     42260
     42261     42265     42261     42262     42261     42263     42261     42264
     42265     42266     42267     42271     42267     42268     42267     42269
     42267     42270     42271     42272     42273     42277     42273     42274
     42273     42275     42273     42276     42277     42278     42279     42283
     42279     42280     42279     42281     42279     42282     42283     42284
     42285     42289     42285     42286     42285     42287     42285     42288
     42289     42290     42291     42295     42291     42292     42291     42293
     42291     42294     42295     42296     42297     42301     42297     42298
     42297     42299     42297     42300     42301     42302     42303     42307
     42303     42304     42303     42305     42303     42306     42307     42308
     42309     42313     42309     42310     42309     42311     42309     42312
     42313     42314     42315     42319     42315     42316     42315     42317
     42315     42318     42319     42320     42321     42325     42321     42322
     42321     42323     42321     42324     42325     42326     42327     42331
     42327     42328     42327     42329     42327     42330     42331     42332
     42333     42337     42333     42334     42333     42335     42333     42336
     42337     42338     42339     42343     42339     42340     42339     42341
     42339     42342     42343     42344     42345     42349     42345     42346
     42345     42347     42345     42348     42349     42350     42351     42355
     42351     42352     42351     42353     42351     42354     42355     42356
     42357     42361     42357     42358     42357     42359     42357     42360
     42361     42362     42363     42367     42363     42364     42363     42365
     42363     42366     42367     42368     42369     42373     42369     42370
     42369     42371     42369     42372     42373     42374     42375     42379
     42375     42376     42375     42377     42375     42378     42379     42380
     42381     42385     42381     42382     42381     42383     42381     42384
     42385     42386     42387     42391     42387     42388     42387     42389
     42387     42390     42391     42392     42393     42397     42393     42394
     42393     42395     42393     42396     42397     42398     42399     42403
     42399     42400     42399     42401     42399     42402     42403     42404
     42405     42409     42405     42406     42405     42407     42405     42408
     42409     42410     42411     42415     42411     42412     42411     42413
     42411     42414     42415     42416     42417     42421     42417     42418
     42417     42419     42417     42420     42421     42422     42423     42427
     42423     42424     42423     42425     42423     42426     42427     42428
     42429     42433     42429     42430     42429     42431     42429     42432
     42433     42434     42435     42439     42435     42436     42435     42437
     42435     42438     42439     42440     42441     42445     42441     42442
     42441     42443     42441     42444     42445     42446     42447     42451
     42447     42448     42447     42449     42447     42450     42451     42452
     42453     42457     42453     42454     42453     42455     42453     42456
     42457     42458     42459     42463     42459     42460     42459     42461
     42459     42462     42463     42464     42465     42469     42465     42466
     42465     42467     42465     42468     42469     42470     42471     42475
     42471     42472     42471     42473     42471     42474     42475     42476
     42477     42481     42477     42478     42477     42479     42477     42480
     42481     42482     42483     42487     42483     42484     42483     42485
     42483     42486     42487     42488     42489     42493     42489     42490
     42489     42491     42489     42492     42493     42494     42495     42499
     42495     42496     42495     42497     42495     42498     42499     42500
     42501     42505     42501     42502     42501     42503     42501     42504
     42505     42506     42507     42511     42507     42508     42507     42509
     42507     42510     42511     42512     42513     42517     42513     42514
     42513     42515     42513     42516     42517     42518     42519     42523
     42519     42520     42519     42521     42519     42522     42523     42524
     42525     42529     42525     42526     42525     42527     42525     42528
     42529     42530     42531     42535     42531     42532     42531     42533
     42531     42534     42535     42536     42537     42541     42537     42538
     42537     42539     42537     42540     42541     42542     42543     42547
     42543     42544     42543     42545     42543     42546     42547     42548
     42549     42553     42549     42550     42549     42551     42549     42552
     42553     42554     42555     42559     42555     42556     42555     42557
     42555     42558     42559     42560     42561     42565     42561     42562
     42561     42563     42561     42564     42565     42566     42567     42571
     42567     42568     42567     42569     42567     42570     42571     42572
     42573     42577     42573     42574     42573     42575     42573     42576
     42577     42578     42579     42583     42579     42580     42579     42581
     42579     42582     42583     42584     42585     42589     42585     42586
     42585     42587     42585     42588     42589     42590     42591     42595
     42591     42592     42591     42593     42591     42594     42595     42596
     42597     42601     42597     42598     42597     42599     42597     42600
     42601     42602     42603     42607     42603     42604     42603     42605
     42603     42606     42607     42608     42609     42613     42609     42610
     42609     42611     42609     42612     42613     42614     42615     42619
     42615     42616     42615     42617     42615     42618     42619     42620
     42621     42625     42621     42622     42621     42623     42621     42624
     42625     42626     42627     42631     42627     42628     42627     42629
     42627     42630     42631     42632     42633     42637     42633     42634
     42633     42635     42633     42636     42637     42638     42639     42643
     42639     42640     42639     42641     42639     42642     42643     42644
     42645     42649     42645     42646     42645     42647     42645     42648
     42649     42650     42651     42655     42651     42652     42651     42653
     42651     42654     42655     42656     42657     42661     42657     42658
     42657     42659     42657     42660     42661     42662     42663     42667
     42663     42664     42663     42665     42663     42666     42667     42668
     42669     42673     42669     42670     42669     42671     42669     42672
     42673     42674     42675     42679     42675     42676     42675     42677
     42675     42678     42679     42680     42681     42685     42681     42682
     42681     42683     42681     42684     42685     42686     42687     42691
     42687     42688     42687     42689     42687     42690     42691     42692
     42693     42697     42693     42694     42693     42695     42693     42696
     42697     42698     42699     42703     42699     42700     42699     42701
     42699     42702     42703     42704     42705     42709     42705     42706
     42705     42707     42705     42708     42709     42710     42711     42715
     42711     42712     42711     42713     42711     42714     42715     42716
     42717     42721     42717     42718     42717     42719     42717     42720
     42721     42722     42723     42727     42723     42724     42723     42725
     42723     42726     42727     42728     42729     42733     42729     42730
     42729     42731     42729     42732     42733     42734     42735     42739
     42735     42736     42735     42737     42735     42738     42739     42740
     42741     42745     42741     42742     42741     42743     42741     42744
     42745     42746     42747     42751     42747     42748     42747     42749
     42747     42750     42751     42752     42753     42757     42753     42754
     42753     42755     42753     42756     42757     42758     42759     42763
     42759     42760     42759     42761     42759     42762     42763     42764
     42765     42769     42765     42766     42765     42767     42765     42768
     42769     42770     42771     42775     42771     42772     42771     42773
     42771     42774     42775     42776     42777     42781     42777     42778
     42777     42779     42777     42780     42781     42782     42783     42787
     42783     42784     42783     42785     42783     42786     42787     42788
     42789     42793     42789     42790     42789     42791     42789     42792
     42793     42794     42795     42799     42795     42796     42795     42797
     42795     42798     42799     42800     42801     42805     42801     42802
     42801     42803     42801     42804     42805     42806     42807     42811
     42807     42808     42807     42809     42807     42810     42811     42812
     42813     42817     42813     42814     42813     42815     42813     42816
     42817     42818     42819     42823     42819     42820     42819     42821
     42819     42822     42823     42824     42825     42829     42825     42826
     42825     42827     42825     42828     42829     42830     42831     42835
     42831     42832     42831     42833     42831     42834     42835     42836
     42837     42841     42837     42838     42837     42839     42837     42840
     42841     42842     42843     42847     42843     42844     42843     42845
     42843     42846     42847     42848     42849     42853     42849     42850
     42849     42851     42849     42852     42853     42854     42855     42859
     42855     42856     42855     42857     42855     42858     42859     42860
     42861     42865     42861     42862     42861     42863     42861     42864
     42865     42866     42867     42871     42867     42868     42867     42869
     42867     42870     42871     42872     42873     42877     42873     42874
     42873     42875     42873     42876     42877     42878     42879     42883
     42879     42880     42879     42881     42879     42882     42883     42884
     42885     42889     42885     42886     42885     42887     42885     42888
     42889     42890     42891     42895     42891     42892     42891     42893
     42891     42894     42895     42896     42897     42901     42897     42898
     42897     42899     42897     42900     42901     42902     42903     42907
     42903     42904     42903     42905     42903     42906     42907     42908
     42909     42913     42909     42910     42909     42911     42909     42912
     42913     42914     42915     42919     42915     42916     42915     42917
     42915     42918     42919     42920     42921     42925     42921     42922
     42921     42923     42921     42924     42925     42926     42927     42931
     42927     42928     42927     42929     42927     42930     42931     42932
     42933     42937     42933     42934     42933     42935     42933     42936
     42937     42938     42939     42943     42939     42940     42939     42941
     42939     42942     42943     42944     42945     42949     42945     42946
     42945     42947     42945     42948     42949     42950     42951     42955
     42951     42952     42951     42953     42951     42954     42955     42956
     42957     42961     42957     42958     42957     42959     42957     42960
     42961     42962     42963     42967     42963     42964     42963     42965
     42963     42966     42967     42968     42969     42973     42969     42970
     42969     42971     42969     42972     42973     42974     42975     42979
     42975     42976     42975     42977     42975     42978     42979     42980
     42981     42985     42981     42982     42981     42983     42981     42984
     42985     42986     42987     42991     42987     42988     42987     42989
     42987     42990     42991     42992     42993     42997     42993     42994
     42993     42995     42993     42996     42997     42998     42999     43003
     42999     43000     42999     43001     42999     43002     43003     43004
     43005     43009     43005     43006     43005     43007     43005     43008
     43009     43010     43011     43015     43011     43012     43011     43013
     43011     43014     43015     43016     43017     43021     43017     43018
     43017     43019     43017     43020     43021     43022     43023     43027
     43023     43024     43023     43025     43023     43026     43027     43028
     43029     43033     43029     43030     43029     43031     43029     43032
     43033     43034     43035     43039     43035     43036     43035     43037
     43035     43038     43039     43040     43041     43045     43041     43042
     43041     43043     43041     43044     43045     43046     43047     43051
     43047     43048     43047     43049     43047     43050     43051     43052
     43053     43057     43053     43054     43053     43055     43053     43056
     43057     43058     43059     43063     43059     43060     43059     43061
     43059     43062     43063     43064     43065     43069     43065     43066
     43065     43067     43065     43068     43069     43070     43071     43075
     43071     43072     43071     43073     43071     43074     43075     43076
     43077     43081     43077     43078     43077     43079     43077     43080
     43081     43082     43083     43087     43083     43084     43083     43085
     43083     43086     43087     43088     43089     43093     43089     43090
     43089     43091     43089     43092     43093     43094     43095     43099
     43095     43096     43095     43097     43095     43098     43099     43100
     43101     43105     43101     43102     43101     43103     43101     43104
     43105     43106     43107     43111     43107     43108     43107     43109
     43107     43110     43111     43112     43113     43117     43113     43114
     43113     43115     43113     43116     43117     43118     43119     43123
     43119     43120     43119     43121     43119     43122     43123     43124
     43125     43129     43125     43126     43125     43127     43125     43128
     43129     43130     43131     43135     43131     43132     43131     43133
     43131     43134     43135     43136     43137     43141     43137     43138
     43137     43139     43137     43140     43141     43142     43143     43147
     43143     43144     43143     43145     43143     43146     43147     43148
     43149     43153     43149     43150     43149     43151     43149     43152
     43153     43154     43155     43159     43155     43156     43155     43157
     43155     43158     43159     43160     43161     43165     43161     43162
     43161     43163     43161     43164     43165     43166     43167     43171
     43167     43168     43167     43169     43167     43170     43171     43172
     43173     43177     43173     43174     43173     43175     43173     43176
     43177     43178     43179     43183     43179     43180     43179     43181
     43179     43182     43183     43184     43185     43189     43185     43186
     43185     43187     43185     43188     43189     43190     43191     43195
     43191     43192     43191     43193     43191     43194     43195     43196
     43197     43201     43197     43198     43197     43199     43197     43200
     43201     43202     43203     43207     43203     43204     43203     43205
     43203     43206     43207     43208     43209     43213     43209     43210
     43209     43211     43209     43212     43213     43214     43215     43219
     43215     43216     43215     43217     43215     43218     43219     43220
     43221     43225     43221     43222     43221     43223     43221     43224
     43225     43226     43227     43231     43227     43228     43227     43229
     43227     43230     43231     43232     43233     43237     43233     43234
     43233     43235     43233     43236     43237     43238     43239     43243
     43239     43240     43239     43241     43239     43242     43243     43244
     43245     43249     43245     43246     43245     43247     43245     43248
     43249     43250     43251     43255     43251     43252     43251     43253
     43251     43254     43255     43256     43257     43261     43257     43258
     43257     43259     43257     43260     43261     43262     43263     43267
     43263     43264     43263     43265     43263     43266     43267     43268
     43269     43273     43269     43270     43269     43271     43269     43272
     43273     43274     43275     43279     43275     43276     43275     43277
     43275     43278     43279     43280     43281     43285     43281     43282
     43281     43283     43281     43284     43285     43286     43287     43291
     43287     43288     43287     43289     43287     43290     43291     43292
     43293     43297     43293     43294     43293     43295     43293     43296
     43297     43298     43299     43303     43299     43300     43299     43301
     43299     43302     43303     43304     43305     43309     43305     43306
     43305     43307     43305     43308     43309     43310     43311     43315
     43311     43312     43311     43313     43311     43314     43315     43316
     43317     43321     43317     43318     43317     43319     43317     43320
     43321     43322     43323     43327     43323     43324     43323     43325
     43323     43326     43327     43328     43329     43333     43329     43330
     43329     43331     43329     43332     43333     43334     43335     43339
     43335     43336     43335     43337     43335     43338     43339     43340
     43341     43345     43341     43342     43341     43343     43341     43344
     43345     43346     43347     43351     43347     43348     43347     43349
     43347     43350     43351     43352     43353     43357     43353     43354
     43353     43355     43353     43356     43357     43358     43359     43363
     43359     43360     43359     43361     43359     43362     43363     43364
     43365     43369     43365     43366     43365     43367     43365     43368
     43369     43370     43371     43375     43371     43372     43371     43373
     43371     43374     43375     43376     43377     43381     43377     43378
     43377     43379     43377     43380     43381     43382     43383     43387
     43383     43384     43383     43385     43383     43386     43387     43388
     43389     43393     43389     43390     43389     43391     43389     43392
     43393     43394     43395     43399     43395     43396     43395     43397
     43395     43398     43399     43400     43401     43405     43401     43402
     43401     43403     43401     43404     43405     43406     43407     43411
     43407     43408     43407     43409     43407     43410     43411     43412
     43413     43417     43413     43414     43413     43415     43413     43416
     43417     43418     43419     43423     43419     43420     43419     43421
     43419     43422     43423     43424     43425     43429     43425     43426
     43425     43427     43425     43428     43429     43430     43431     43435
     43431     43432     43431     43433     43431     43434     43435     43436
     43437     43441     43437     43438     43437     43439     43437     43440
     43441     43442     43443     43447     43443     43444     43443     43445
     43443     43446     43447     43448     43449     43453     43449     43450
     43449     43451     43449     43452     43453     43454     43455     43459
     43455     43456     43455     43457     43455     43458     43459     43460
     43461     43465     43461     43462     43461     43463     43461     43464
     43465     43466     43467     43471     43467     43468     43467     43469
     43467     43470     43471     43472     43473     43477     43473     43474
     43473     43475     43473     43476     43477     43478     43479     43483
     43479     43480     43479     43481     43479     43482     43483     43484
     43485     43489     43485     43486     43485     43487     43485     43488
     43489     43490     43491     43495     43491     43492     43491     43493
     43491     43494     43495     43496     43497     43501     43497     43498
     43497     43499     43497     43500     43501     43502     43503     43507
     43503     43504     43503     43505     43503     43506     43507     43508
     43509     43513     43509     43510     43509     43511     43509     43512
     43513     43514     43515     43519     43515     43516     43515     43517
     43515     43518     43519     43520     43521     43525     43521     43522
     43521     43523     43521     43524     43525     43526     43527     43531
     43527     43528     43527     43529     43527     43530     43531     43532
     43533     43537     43533     43534     43533     43535     43533     43536
     43537     43538     43539     43543     43539     43540     43539     43541
     43539     43542     43543     43544     43545     43549     43545     43546
     43545     43547     43545     43548     43549     43550     43551     43555
     43551     43552     43551     43553     43551     43554     43555     43556
     43557     43561     43557     43558     43557     43559     43557     43560
     43561     43562     43563     43567     43563     43564     43563     43565
     43563     43566     43567     43568     43569     43573     43569     43570
     43569     43571     43569     43572     43573     43574     43575     43579
     43575     43576     43575     43577     43575     43578     43579     43580
     43581     43585     43581     43582     43581     43583     43581     43584
     43585     43586     43587     43591     43587     43588     43587     43589
     43587     43590     43591     43592     43593     43597     43593     43594
     43593     43595     43593     43596     43597     43598     43599     43603
     43599     43600     43599     43601     43599     43602     43603     43604
     43605     43609     43605     43606     43605     43607     43605     43608
     43609     43610     43611     43615     43611     43612     43611     43613
     43611     43614     43615     43616     43617     43621     43617     43618
     43617     43619     43617     43620     43621     43622     43623     43627
     43623     43624     43623     43625     43623     43626     43627     43628
     43629     43633     43629     43630     43629     43631     43629     43632
     43633     43634     43635     43639     43635     43636     43635     43637
     43635     43638     43639     43640     43641     43645     43641     43642
     43641     43643     43641     43644     43645     43646     43647     43651
     43647     43648     43647     43649     43647     43650     43651     43652
     43653     43657     43653     43654     43653     43655     43653     43656
     43657     43658     43659     43663     43659     43660     43659     43661
     43659     43662     43663     43664     43665     43669     43665     43666
     43665     43667     43665     43668     43669     43670     43671     43675
     43671     43672     43671     43673     43671     43674     43675     43676
     43677     43681     43677     43678     43677     43679     43677     43680
     43681     43682     43683     43687     43683     43684     43683     43685
     43683     43686     43687     43688     43689     43693     43689     43690
     43689     43691     43689     43692     43693     43694     43695     43699
     43695     43696     43695     43697     43695     43698     43699     43700
     43701     43705     43701     43702     43701     43703     43701     43704
     43705     43706     43707     43711     43707     43708     43707     43709
     43707     43710     43711     43712     43713     43717     43713     43714
     43713     43715     43713     43716     43717     43718     43719     43723
     43719     43720     43719     43721     43719     43722     43723     43724
     43725     43729     43725     43726     43725     43727     43725     43728
     43729     43730     43731     43735     43731     43732     43731     43733
     43731     43734     43735     43736     43737     43741     43737     43738
     43737     43739     43737     43740     43741     43742     43743     43747
     43743     43744     43743     43745     43743     43746     43747     43748
     43749     43753     43749     43750     43749     43751     43749     43752
     43753     43754     43755     43759     43755     43756     43755     43757
     43755     43758     43759     43760     43761     43765     43761     43762
     43761     43763     43761     43764     43765     43766     43767     43771
     43767     43768     43767     43769     43767     43770     43771     43772
     43773     43777     43773     43774     43773     43775     43773     43776
     43777     43778     43779     43783     43779     43780     43779     43781
     43779     43782     43783     43784     43785     43789     43785     43786
     43785     43787     43785     43788     43789     43790     43791     43795
     43791     43792     43791     43793     43791     43794     43795     43796
     43797     43801     43797     43798     43797     43799     43797     43800
     43801     43802     43803     43807     43803     43804     43803     43805
     43803     43806     43807     43808     43809     43813     43809     43810
     43809     43811     43809     43812     43813     43814     43815     43819
     43815     43816     43815     43817     43815     43818     43819     43820
     43821     43825     43821     43822     43821     43823     43821     43824
     43825     43826     43827     43831     43827     43828     43827     43829
     43827     43830     43831     43832     43833     43837     43833     43834
     43833     43835     43833     43836     43837     43838     43839     43843
     43839     43840     43839     43841     43839     43842     43843     43844
     43845     43849     43845     43846     43845     43847     43845     43848
     43849     43850     43851     43855     43851     43852     43851     43853
     43851     43854     43855     43856     43857     43861     43857     43858
     43857     43859     43857     43860     43861     43862     43863     43867
     43863     43864     43863     43865     43863     43866     43867     43868
     43869     43873     43869     43870     43869     43871     43869     43872
     43873     43874     43875     43879     43875     43876     43875     43877
     43875     43878     43879     43880     43881     43885     43881     43882
     43881     43883     43881     43884     43885     43886     43887     43891
     43887     43888     43887     43889     43887     43890     43891     43892
     43893     43897     43893     43894     43893     43895     43893     43896
     43897     43898     43899     43903     43899     43900     43899     43901
     43899     43902     43903     43904     43905     43909     43905     43906
     43905     43907     43905     43908     43909     43910     43911     43915
     43911     43912     43911     43913     43911     43914     43915     43916
     43917     43921     43917     43918     43917     43919     43917     43920
     43921     43922     43923     43927     43923     43924     43923     43925
     43923     43926     43927     43928     43929     43933     43929     43930
     43929     43931     43929     43932     43933     43934     43935     43939
     43935     43936     43935     43937     43935     43938     43939     43940
     43941     43945     43941     43942     43941     43943     43941     43944
     43945     43946     43947     43951     43947     43948     43947     43949
     43947     43950     43951     43952     43953     43957     43953     43954
     43953     43955     43953     43956     43957     43958     43959     43963
     43959     43960     43959     43961     43959     43962     43963     43964
     43965     43969     43965     43966     43965     43967     43965     43968
     43969     43970     43971     43975     43971     43972     43971     43973
     43971     43974     43975     43976     43977     43981     43977     43978
     43977     43979     43977     43980     43981     43982     43983     43987
     43983     43984     43983     43985     43983     43986     43987     43988
     43989     43993     43989     43990     43989     43991     43989     43992
     43993     43994     43995     43999     43995     43996     43995     43997
     43995     43998     43999     44000     44001     44005     44001     44002
     44001     44003     44001     44004     44005     44006     44007     44011
     44007     44008     44007     44009     44007     44010     44011     44012
     44013     44017     44013     44014     44013     44015     44013     44016
     44017     44018     44019     44023     44019     44020     44019     44021
     44019     44022     44023     44024     44025     44029     44025     44026
     44025     44027     44025     44028     44029     44030     44031     44035
     44031     44032     44031     44033     44031     44034     44035     44036
     44037     44041     44037     44038     44037     44039     44037     44040
     44041     44042     44043     44047     44043     44044     44043     44045
     44043     44046     44047     44048     44049     44053     44049     44050
     44049     44051     44049     44052     44053     44054     44055     44059
     44055     44056     44055     44057     44055     44058     44059     44060
     44061     44065     44061     44062     44061     44063     44061     44064
     44065     44066     44067     44071     44067     44068     44067     44069
     44067     44070     44071     44072     44073     44077     44073     44074
     44073     44075     44073     44076     44077     44078     44079     44083
     44079     44080     44079     44081     44079     44082     44083     44084
     44085     44089     44085     44086     44085     44087     44085     44088
     44089     44090     44091     44095     44091     44092     44091     44093
     44091     44094     44095     44096     44097     44101     44097     44098
     44097     44099     44097     44100     44101     44102     44103     44107
     44103     44104     44103     44105     44103     44106     44107     44108
     44109     44113     44109     44110     44109     44111     44109     44112
     44113     44114     44115     44119     44115     44116     44115     44117
     44115     44118     44119     44120     44121     44125     44121     44122
     44121     44123     44121     44124     44125     44126     44127     44131
     44127     44128     44127     44129     44127     44130     44131     44132
     44133     44137     44133     44134     44133     44135     44133     44136
     44137     44138     44139     44143     44139     44140     44139     44141
     44139     44142     44143     44144     44145     44149     44145     44146
     44145     44147     44145     44148     44149     44150     44151     44155
     44151     44152     44151     44153     44151     44154     44155     44156
     44157     44161     44157     44158     44157     44159     44157     44160
     44161     44162     44163     44167     44163     44164     44163     44165
     44163     44166     44167     44168     44169     44173     44169     44170
     44169     44171     44169     44172     44173     44174     44175     44179
     44175     44176     44175     44177     44175     44178     44179     44180
     44181     44185     44181     44182     44181     44183     44181     44184
     44185     44186     44187     44191     44187     44188     44187     44189
     44187     44190     44191     44192     44193     44197     44193     44194
     44193     44195     44193     44196     44197     44198     44199     44203
     44199     44200     44199     44201     44199     44202     44203     44204
     44205     44209     44205     44206     44205     44207     44205     44208
     44209     44210     44211     44215     44211     44212     44211     44213
     44211     44214     44215     44216     44217     44221     44217     44218
     44217     44219     44217     44220     44221     44222     44223     44227
     44223     44224     44223     44225     44223     44226     44227     44228
     44229     44233     44229     44230     44229     44231     44229     44232
     44233     44234     44235     44239     44235     44236     44235     44237
     44235     44238     44239     44240     44241     44245     44241     44242
     44241     44243     44241     44244     44245     44246     44247     44251
     44247     44248     44247     44249     44247     44250     44251     44252
     44253     44257     44253     44254     44253     44255     44253     44256
     44257     44258     44259     44263     44259     44260     44259     44261
     44259     44262     44263     44264     44265     44269     44265     44266
     44265     44267     44265     44268     44269     44270     44271     44275
     44271     44272     44271     44273     44271     44274     44275     44276
     44277     44281     44277     44278     44277     44279     44277     44280
     44281     44282     44283     44287     44283     44284     44283     44285
     44283     44286     44287     44288     44289     44293     44289     44290
     44289     44291     44289     44292     44293     44294     44295     44299
     44295     44296     44295     44297     44295     44298     44299     44300
     44301     44305     44301     44302     44301     44303     44301     44304
     44305     44306     44307     44311     44307     44308     44307     44309
     44307     44310     44311     44312     44313     44317     44313     44314
     44313     44315     44313     44316     44317     44318     44319     44323
     44319     44320     44319     44321     44319     44322     44323     44324
     44325     44329     44325     44326     44325     44327     44325     44328
     44329     44330     44331     44335     44331     44332     44331     44333
     44331     44334     44335     44336     44337     44341     44337     44338
     44337     44339     44337     44340     44341     44342     44343     44347
     44343     44344     44343     44345     44343     44346     44347     44348
     44349     44353     44349     44350     44349     44351     44349     44352
     44353     44354     44355     44359     44355     44356     44355     44357
     44355     44358     44359     44360     44361     44365     44361     44362
     44361     44363     44361     44364     44365     44366     44367     44371
     44367     44368     44367     44369     44367     44370     44371     44372
     44373     44377     44373     44374     44373     44375     44373     44376
     44377     44378     44379     44383     44379     44380     44379     44381
     44379     44382     44383     44384     44385     44389     44385     44386
     44385     44387     44385     44388     44389     44390     44391     44395
     44391     44392     44391     44393     44391     44394     44395     44396
     44397     44401     44397     44398     44397     44399     44397     44400
     44401     44402     44403     44407     44403     44404     44403     44405
     44403     44406     44407     44408     44409     44413     44409     44410
     44409     44411     44409     44412     44413     44414     44415     44419
     44415     44416     44415     44417     44415     44418     44419     44420
     44421     44425     44421     44422     44421     44423     44421     44424
     44425     44426     44427     44431     44427     44428     44427     44429
     44427     44430     44431     44432     44433     44437     44433     44434
     44433     44435     44433     44436     44437     44438     44439     44443
     44439     44440     44439     44441     44439     44442     44443     44444
     44445     44449     44445     44446     44445     44447     44445     44448
     44449     44450     44451     44455     44451     44452     44451     44453
     44451     44454     44455     44456     44457     44461     44457     44458
     44457     44459     44457     44460     44461     44462     44463     44467
     44463     44464     44463     44465     44463     44466     44467     44468
     44469     44473     44469     44470     44469     44471     44469     44472
     44473     44474     44475     44479     44475     44476     44475     44477
     44475     44478     44479     44480     44481     44485     44481     44482
     44481     44483     44481     44484     44485     44486     44487     44491
     44487     44488     44487     44489     44487     44490     44491     44492
     44493     44497     44493     44494     44493     44495     44493     44496
     44497     44498     44499     44503     44499     44500     44499     44501
     44499     44502     44503     44504     44505     44509     44505     44506
     44505     44507     44505     44508     44509     44510     44511     44515
     44511     44512     44511     44513     44511     44514     44515     44516
     44517     44521     44517     44518     44517     44519     44517     44520
     44521     44522     44523     44527     44523     44524     44523     44525
     44523     44526     44527     44528     44529     44533     44529     44530
     44529     44531     44529     44532     44533     44534     44535     44539
     44535     44536     44535     44537     44535     44538     44539     44540
     44541     44545     44541     44542     44541     44543     44541     44544
     44545     44546     44547     44551     44547     44548     44547     44549
     44547     44550     44551     44552     44553     44557     44553     44554
     44553     44555     44553     44556     44557     44558     44559     44563
     44559     44560     44559     44561     44559     44562     44563     44564
     44565     44569     44565     44566     44565     44567     44565     44568
     44569     44570     44571     44575     44571     44572     44571     44573
     44571     44574     44575     44576     44577     44581     44577     44578
     44577     44579     44577     44580     44581     44582     44583     44587
     44583     44584     44583     44585     44583     44586     44587     44588
     44589     44593     44589     44590     44589     44591     44589     44592
     44593     44594     44595     44599     44595     44596     44595     44597
     44595     44598     44599     44600     44601     44605     44601     44602
     44601     44603     44601     44604     44605     44606     44607     44611
     44607     44608     44607     44609     44607     44610     44611     44612
     44613     44617     44613     44614     44613     44615     44613     44616
     44617     44618     44619     44623     44619     44620     44619     44621
     44619     44622     44623     44624     44625     44629     44625     44626
     44625     44627     44625     44628     44629     44630     44631     44635
     44631     44632     44631     44633     44631     44634     44635     44636
     44637     44641     44637     44638     44637     44639     44637     44640
     44641     44642     44643     44647     44643     44644     44643     44645
     44643     44646     44647     44648     44649     44653     44649     44650
     44649     44651     44649     44652     44653     44654     44655     44659
     44655     44656     44655     44657     44655     44658     44659     44660
     44661     44665     44661     44662     44661     44663     44661     44664
     44665     44666     44667     44671     44667     44668     44667     44669
     44667     44670     44671     44672     44673     44677     44673     44674
     44673     44675     44673     44676     44677     44678     44679     44683
     44679     44680     44679     44681     44679     44682     44683     44684
     44685     44689     44685     44686     44685     44687     44685     44688
     44689     44690     44691     44695     44691     44692     44691     44693
     44691     44694     44695     44696     44697     44701     44697     44698
     44697     44699     44697     44700     44701     44702     44703     44707
     44703     44704     44703     44705     44703     44706     44707     44708
     44709     44713     44709     44710     44709     44711     44709     44712
     44713     44714     44715     44719     44715     44716     44715     44717
     44715     44718     44719     44720     44721     44725     44721     44722
     44721     44723     44721     44724     44725     44726     44727     44731
     44727     44728     44727     44729     44727     44730     44731     44732
     44733     44737     44733     44734     44733     44735     44733     44736
     44737     44738     44739     44743     44739     44740     44739     44741
     44739     44742     44743     44744     44745     44749     44745     44746
     44745     44747     44745     44748     44749     44750     44751     44755
     44751     44752     44751     44753     44751     44754     44755     44756
     44757     44761     44757     44758     44757     44759     44757     44760
     44761     44762     44763     44767     44763     44764     44763     44765
     44763     44766     44767     44768     44769     44773     44769     44770
     44769     44771     44769     44772     44773     44774     44775     44779
     44775     44776     44775     44777     44775     44778     44779     44780
     44781     44785     44781     44782     44781     44783     44781     44784
     44785     44786     44787     44791     44787     44788     44787     44789
     44787     44790     44791     44792     44793     44797     44793     44794
     44793     44795     44793     44796     44797     44798     44799     44803
     44799     44800     44799     44801     44799     44802     44803     44804
     44805     44809     44805     44806     44805     44807     44805     44808
     44809     44810     44811     44815     44811     44812     44811     44813
     44811     44814     44815     44816     44817     44821     44817     44818
     44817     44819     44817     44820     44821     44822     44823     44827
     44823     44824     44823     44825     44823     44826     44827     44828
     44829     44833     44829     44830     44829     44831     44829     44832
     44833     44834     44835     44839     44835     44836     44835     44837
     44835     44838     44839     44840     44841     44845     44841     44842
     44841     44843     44841     44844     44845     44846     44847     44851
     44847     44848     44847     44849     44847     44850     44851     44852
     44853     44857     44853     44854     44853     44855     44853     44856
     44857     44858     44859     44863     44859     44860     44859     44861
     44859     44862     44863     44864     44865     44869     44865     44866
     44865     44867     44865     44868     44869     44870     44871     44875
     44871     44872     44871     44873     44871     44874     44875     44876
     44877     44881     44877     44878     44877     44879     44877     44880
     44881     44882     44883     44887     44883     44884     44883     44885
     44883     44886     44887     44888     44889     44893     44889     44890
     44889     44891     44889     44892     44893     44894     44895     44899
     44895     44896     44895     44897     44895     44898     44899     44900
     44901     44905     44901     44902     44901     44903     44901     44904
     44905     44906     44907     44911     44907     44908     44907     44909
     44907     44910     44911     44912     44913     44917     44913     44914
     44913     44915     44913     44916     44917     44918     44919     44923
     44919     44920     44919     44921     44919     44922     44923     44924
     44925     44929     44925     44926     44925     44927     44925     44928
     44929     44930     44931     44935     44931     44932     44931     44933
     44931     44934     44935     44936     44937     44941     44937     44938
     44937     44939     44937     44940     44941     44942     44943     44947
     44943     44944     44943     44945     44943     44946     44947     44948
     44949     44953     44949     44950     44949     44951     44949     44952
     44953     44954     44955     44959     44955     44956     44955     44957
     44955     44958     44959     44960     44961     44965     44961     44962
     44961     44963     44961     44964     44965     44966     44967     44971
     44967     44968     44967     44969     44967     44970     44971     44972
     44973     44977     44973     44974     44973     44975     44973     44976
     44977     44978     44979     44983     44979     44980     44979     44981
     44979     44982     44983     44984     44985     44989     44985     44986
     44985     44987     44985     44988     44989     44990     44991     44995
     44991     44992     44991     44993     44991     44994     44995     44996
     44997     45001     44997     44998     44997     44999     44997     45000
     45001     45002     45003     45007     45003     45004     45003     45005
     45003     45006     45007     45008     45009     45013     45009     45010
     45009     45011     45009     45012     45013     45014     45015     45019
     45015     45016     45015     45017     45015     45018     45019     45020
     45021     45025     45021     45022     45021     45023     45021     45024
     45025     45026     45027     45031     45027     45028     45027     45029
     45027     45030     45031     45032     45033     45037     45033     45034
     45033     45035     45033     45036     45037     45038     45039     45043
     45039     45040     45039     45041     45039     45042     45043     45044
     45045     45049     45045     45046     45045     45047     45045     45048
     45049     45050     45051     45055     45051     45052     45051     45053
     45051     45054     45055     45056     45057     45061     45057     45058
     45057     45059     45057     45060     45061     45062     45063     45067
     45063     45064     45063     45065     45063     45066     45067     45068
     45069     45073     45069     45070     45069     45071     45069     45072
     45073     45074     45075     45079     45075     45076     45075     45077
     45075     45078     45079     45080     45081     45085     45081     45082
     45081     45083     45081     45084     45085     45086     45087     45091
     45087     45088     45087     45089     45087     45090     45091     45092
     45093     45097     45093     45094     45093     45095     45093     45096
     45097     45098     45099     45103     45099     45100     45099     45101
     45099     45102     45103     45104     45105     45109     45105     45106
     45105     45107     45105     45108     45109     45110     45111     45115
     45111     45112     45111     45113     45111     45114     45115     45116
     45117     45121     45117     45118     45117     45119     45117     45120
     45121     45122     45123     45127     45123     45124     45123     45125
     45123     45126     45127     45128     45129     45133     45129     45130
     45129     45131     45129     45132     45133     45134     45135     45139
     45135     45136     45135     45137     45135     45138     45139     45140
     45141     45145     45141     45142     45141     45143     45141     45144
     45145     45146     45147     45151     45147     45148     45147     45149
     45147     45150     45151     45152     45153     45157     45153     45154
     45153     45155     45153     45156     45157     45158     45159     45163
     45159     45160     45159     45161     45159     45162     45163     45164
     45165     45169     45165     45166     45165     45167     45165     45168
     45169     45170     45171     45175     45171     45172     45171     45173
     45171     45174     45175     45176     45177     45181     45177     45178
     45177     45179     45177     45180     45181     45182     45183     45187
     45183     45184     45183     45185     45183     45186     45187     45188
     45189     45193     45189     45190     45189     45191     45189     45192
     45193     45194     45195     45199     45195     45196     45195     45197
     45195     45198     45199     45200     45201     45205     45201     45202
     45201     45203     45201     45204     45205     45206     45207     45211
     45207     45208     45207     45209     45207     45210     45211     45212
     45213     45217     45213     45214     45213     45215     45213     45216
     45217     45218     45219     45223     45219     45220     45219     45221
     45219     45222     45223     45224     45225     45229     45225     45226
     45225     45227     45225     45228     45229     45230     45231     45235
     45231     45232     45231     45233     45231     45234     45235     45236
     45237     45241     45237     45238     45237     45239     45237     45240
     45241     45242     45243     45247     45243     45244     45243     45245
     45243     45246     45247     45248     45249     45253     45249     45250
     45249     45251     45249     45252     45253     45254     45255     45259
     45255     45256     45255     45257     45255     45258     45259     45260
     45261     45265     45261     45262     45261     45263     45261     45264
     45265     45266     45267     45271     45267     45268     45267     45269
     45267     45270     45271     45272     45273     45277     45273     45274
     45273     45275     45273     45276     45277     45278     45279     45283
     45279     45280     45279     45281     45279     45282     45283     45284
     45285     45289     45285     45286     45285     45287     45285     45288
     45289     45290     45291     45295     45291     45292     45291     45293
     45291     45294     45295     45296     45297     45301     45297     45298
     45297     45299     45297     45300     45301     45302     45303     45307
     45303     45304     45303     45305     45303     45306     45307     45308
     45309     45313     45309     45310     45309     45311     45309     45312
     45313     45314     45315     45319     45315     45316     45315     45317
     45315     45318     45319     45320     45321     45325     45321     45322
     45321     45323     45321     45324     45325     45326     45327     45331
     45327     45328     45327     45329     45327     45330     45331     45332
     45333     45337     45333     45334     45333     45335     45333     45336
     45337     45338     45339     45343     45339     45340     45339     45341
     45339     45342     45343     45344     45345     45349     45345     45346
     45345     45347     45345     45348     45349     45350     45351     45355
     45351     45352     45351     45353     45351     45354     45355     45356
     45357     45361     45357     45358     45357     45359     45357     45360
     45361     45362     45363     45367     45363     45364     45363     45365
     45363     45366     45367     45368     45369     45373     45369     45370
     45369     45371     45369     45372     45373     45374     45375     45379
     45375     45376     45375     45377     45375     45378     45379     45380
     45381     45385     45381     45382     45381     45383     45381     45384
     45385     45386     45387     45391     45387     45388     45387     45389
     45387     45390     45391     45392     45393     45397     45393     45394
     45393     45395     45393     45396     45397     45398     45399     45403
     45399     45400     45399     45401     45399     45402     45403     45404
     45405     45409     45405     45406     45405     45407     45405     45408
     45409     45410     45411     45415     45411     45412     45411     45413
     45411     45414     45415     45416     45417     45421     45417     45418
     45417     45419     45417     45420     45421     45422     45423     45427
     45423     45424     45423     45425     45423     45426     45427     45428
     45429     45433     45429     45430     45429     45431     45429     45432
     45433     45434     45435     45439     45435     45436     45435     45437
     45435     45438     45439     45440     45441     45445     45441     45442
     45441     45443     45441     45444     45445     45446     45447     45451
     45447     45448     45447     45449     45447     45450     45451     45452
     45453     45457     45453     45454     45453     45455     45453     45456
     45457     45458     45459     45463     45459     45460     45459     45461
     45459     45462     45463     45464     45465     45469     45465     45466
     45465     45467     45465     45468     45469     45470     45471     45475
     45471     45472     45471     45473     45471     45474     45475     45476
     45477     45481     45477     45478     45477     45479     45477     45480
     45481     45482     45483     45487     45483     45484     45483     45485
     45483     45486     45487     45488     45489     45493     45489     45490
     45489     45491     45489     45492     45493     45494     45495     45499
     45495     45496     45495     45497     45495     45498     45499     45500
     45501     45505     45501     45502     45501     45503     45501     45504
     45505     45506     45507     45511     45507     45508     45507     45509
     45507     45510     45511     45512     45513     45517     45513     45514
     45513     45515     45513     45516     45517     45518     45519     45523
     45519     45520     45519     45521     45519     45522     45523     45524
     45525     45529     45525     45526     45525     45527     45525     45528
     45529     45530     45531     45535     45531     45532     45531     45533
     45531     45534     45535     45536     45537     45541     45537     45538
     45537     45539     45537     45540     45541     45542     45543     45547
     45543     45544     45543     45545     45543     45546     45547     45548
     45549     45553     45549     45550     45549     45551     45549     45552
     45553     45554     45555     45559     45555     45556     45555     45557
     45555     45558     45559     45560     45561     45565     45561     45562
     45561     45563     45561     45564     45565     45566     45567     45571
     45567     45568     45567     45569     45567     45570     45571     45572
     45573     45577     45573     45574     45573     45575     45573     45576
     45577     45578     45579     45583     45579     45580     45579     45581
     45579     45582     45583     45584     45585     45589     45585     45586
     45585     45587     45585     45588     45589     45590     45591     45595
     45591     45592     45591     45593     45591     45594     45595     45596
     45597     45601     45597     45598     45597     45599     45597     45600
     45601     45602     45603     45607     45603     45604     45603     45605
     45603     45606     45607     45608     45609     45613     45609     45610
     45609     45611     45609     45612     45613     45614     45615     45619
     45615     45616     45615     45617     45615     45618     45619     45620
     45621     45625     45621     45622     45621     45623     45621     45624
     45625     45626     45627     45631     45627     45628     45627     45629
     45627     45630     45631     45632     45633     45637     45633     45634
     45633     45635     45633     45636     45637     45638     45639     45643
     45639     45640     45639     45641     45639     45642     45643     45644
     45645     45649     45645     45646     45645     45647     45645     45648
     45649     45650     45651     45655     45651     45652     45651     45653
     45651     45654     45655     45656     45657     45661     45657     45658
     45657     45659     45657     45660     45661     45662     45663     45667
     45663     45664     45663     45665     45663     45666     45667     45668
     45669     45673     45669     45670     45669     45671     45669     45672
     45673     45674     45675     45679     45675     45676     45675     45677
     45675     45678     45679     45680     45681     45685     45681     45682
     45681     45683     45681     45684     45685     45686     45687     45691
     45687     45688     45687     45689     45687     45690     45691     45692
     45693     45697     45693     45694     45693     45695     45693     45696
     45697     45698     45699     45703     45699     45700     45699     45701
     45699     45702     45703     45704     45705     45709     45705     45706
     45705     45707     45705     45708     45709     45710     45711     45715
     45711     45712     45711     45713     45711     45714     45715     45716
     45717     45721     45717     45718     45717     45719     45717     45720
     45721     45722     45723     45727     45723     45724     45723     45725
     45723     45726     45727     45728     45729     45733     45729     45730
     45729     45731     45729     45732     45733     45734     45735     45739
     45735     45736     45735     45737     45735     45738     45739     45740
     45741     45745     45741     45742     45741     45743     45741     45744
     45745     45746     45747     45751     45747     45748     45747     45749
     45747     45750     45751     45752     45753     45757     45753     45754
     45753     45755     45753     45756     45757     45758     45759     45763
     45759     45760     45759     45761     45759     45762     45763     45764
     45765     45769     45765     45766     45765     45767     45765     45768
     45769     45770     45771     45775     45771     45772     45771     45773
     45771     45774     45775     45776     45777     45781     45777     45778
     45777     45779     45777     45780     45781     45782     45783     45787
     45783     45784     45783     45785     45783     45786     45787     45788
     45789     45793     45789     45790     45789     45791     45789     45792
     45793     45794     45795     45799     45795     45796     45795     45797
     45795     45798     45799     45800     45801     45805     45801     45802
     45801     45803     45801     45804     45805     45806     45807     45811
     45807     45808     45807     45809     45807     45810     45811     45812
     45813     45817     45813     45814     45813     45815     45813     45816
     45817     45818     45819     45823     45819     45820     45819     45821
     45819     45822     45823     45824     45825     45829     45825     45826
     45825     45827     45825     45828     45829     45830     45831     45835
     45831     45832     45831     45833     45831     45834     45835     45836
     45837     45841     45837     45838     45837     45839     45837     45840
     45841     45842     45843     45847     45843     45844     45843     45845
     45843     45846     45847     45848     45849     45853     45849     45850
     45849     45851     45849     45852     45853     45854     45855     45859
     45855     45856     45855     45857     45855     45858     45859     45860
     45861     45865     45861     45862     45861     45863     45861     45864
     45865     45866     45867     45871     45867     45868     45867     45869
     45867     45870     45871     45872     45873     45877     45873     45874
     45873     45875     45873     45876     45877     45878     45879     45883
     45879     45880     45879     45881     45879     45882     45883     45884
     45885     45889     45885     45886     45885     45887     45885     45888
     45889     45890     45891     45895     45891     45892     45891     45893
     45891     45894     45895     45896     45897     45901     45897     45898
     45897     45899     45897     45900     45901     45902     45903     45907
     45903     45904     45903     45905     45903     45906     45907     45908
     45909     45913     45909     45910     45909     45911     45909     45912
     45913     45914     45915     45919     45915     45916     45915     45917
     45915     45918     45919     45920     45921     45925     45921     45922
     45921     45923     45921     45924     45925     45926     45927     45931
     45927     45928     45927     45929     45927     45930     45931     45932
     45933     45937     45933     45934     45933     45935     45933     45936
     45937     45938     45939     45943     45939     45940     45939     45941
     45939     45942     45943     45944     45945     45949     45945     45946
     45945     45947     45945     45948     45949     45950     45951     45955
     45951     45952     45951     45953     45951     45954     45955     45956
     45957     45961     45957     45958     45957     45959     45957     45960
     45961     45962     45963     45967     45963     45964     45963     45965
     45963     45966     45967     45968     45969     45973     45969     45970
     45969     45971     45969     45972     45973     45974     45975     45979
     45975     45976     45975     45977     45975     45978     45979     45980
     45981     45985     45981     45982     45981     45983     45981     45984
     45985     45986     45987     45991     45987     45988     45987     45989
     45987     45990     45991     45992     45993     45997     45993     45994
     45993     45995     45993     45996     45997     45998     45999     46003
     45999     46000     45999     46001     45999     46002     46003     46004
     46005     46009     46005     46006     46005     46007     46005     46008
     46009     46010     46011     46015     46011     46012     46011     46013
     46011     46014     46015     46016     46017     46021     46017     46018
     46017     46019     46017     46020     46021     46022     46023     46027
     46023     46024     46023     46025     46023     46026     46027     46028
     46029     46033     46029     46030     46029     46031     46029     46032
     46033     46034     46035     46039     46035     46036     46035     46037
     46035     46038     46039     46040     46041     46045     46041     46042
     46041     46043     46041     46044     46045     46046     46047     46051
     46047     46048     46047     46049     46047     46050     46051     46052
     46053     46057     46053     46054     46053     46055     46053     46056
     46057     46058     46059     46063     46059     46060     46059     46061
     46059     46062     46063     46064     46065     46069     46065     46066
     46065     46067     46065     46068     46069     46070     46071     46075
     46071     46072     46071     46073     46071     46074     46075     46076
     46077     46081     46077     46078     46077     46079     46077     46080
     46081     46082     46083     46087     46083     46084     46083     46085
     46083     46086     46087     46088     46089     46093     46089     46090
     46089     46091     46089     46092     46093     46094     46095     46099
     46095     46096     46095     46097     46095     46098     46099     46100
     46101     46105     46101     46102     46101     46103     46101     46104
     46105     46106     46107     46111     46107     46108     46107     46109
     46107     46110     46111     46112     46113     46117     46113     46114
     46113     46115     46113     46116     46117     46118     46119     46123
     46119     46120     46119     46121     46119     46122     46123     46124
     46125     46129     46125     46126     46125     46127     46125     46128
     46129     46130     46131     46135     46131     46132     46131     46133
     46131     46134     46135     46136     46137     46141     46137     46138
     46137     46139     46137     46140     46141     46142     46143     46147
     46143     46144     46143     46145     46143     46146     46147     46148
     46149     46153     46149     46150     46149     46151     46149     46152
     46153     46154     46155     46159     46155     46156     46155     46157
     46155     46158     46159     46160     46161     46165     46161     46162
     46161     46163     46161     46164     46165     46166     46167     46171
     46167     46168     46167     46169     46167     46170     46171     46172
     46173     46177     46173     46174     46173     46175     46173     46176
     46177     46178     46179     46183     46179     46180     46179     46181
     46179     46182     46183     46184     46185     46189     46185     46186
     46185     46187     46185     46188     46189     46190     46191     46195
     46191     46192     46191     46193     46191     46194     46195     46196
     46197     46201     46197     46198     46197     46199     46197     46200
     46201     46202     46203     46207     46203     46204     46203     46205
     46203     46206     46207     46208     46209     46213     46209     46210
     46209     46211     46209     46212     46213     46214     46215     46219
     46215     46216     46215     46217     46215     46218     46219     46220
     46221     46225     46221     46222     46221     46223     46221     46224
     46225     46226     46227     46231     46227     46228     46227     46229
     46227     46230     46231     46232     46233     46237     46233     46234
     46233     46235     46233     46236     46237     46238     46239     46243
     46239     46240     46239     46241     46239     46242     46243     46244
     46245     46249     46245     46246     46245     46247     46245     46248
     46249     46250     46251     46255     46251     46252     46251     46253
     46251     46254     46255     46256     46257     46261     46257     46258
     46257     46259     46257     46260     46261     46262     46263     46267
     46263     46264     46263     46265     46263     46266     46267     46268
     46269     46273     46269     46270     46269     46271     46269     46272
     46273     46274     46275     46279     46275     46276     46275     46277
     46275     46278     46279     46280     46281     46285     46281     46282
     46281     46283     46281     46284     46285     46286     46287     46291
     46287     46288     46287     46289     46287     46290     46291     46292
     46293     46297     46293     46294     46293     46295     46293     46296
     46297     46298     46299     46303     46299     46300     46299     46301
     46299     46302     46303     46304     46305     46309     46305     46306
     46305     46307     46305     46308     46309     46310     46311     46315
     46311     46312     46311     46313     46311     46314     46315     46316
     46317     46321     46317     46318     46317     46319     46317     46320
     46321     46322     46323     46327     46323     46324     46323     46325
     46323     46326     46327     46328     46329     46333     46329     46330
     46329     46331     46329     46332     46333     46334     46335     46339
     46335     46336     46335     46337     46335     46338     46339     46340
     46341     46345     46341     46342     46341     46343     46341     46344
     46345     46346     46347     46351     46347     46348     46347     46349
     46347     46350     46351     46352     46353     46357     46353     46354
     46353     46355     46353     46356     46357     46358     46359     46363
     46359     46360     46359     46361     46359     46362     46363     46364
     46365     46369     46365     46366     46365     46367     46365     46368
     46369     46370     46371     46375     46371     46372     46371     46373
     46371     46374     46375     46376     46377     46381     46377     46378
     46377     46379     46377     46380     46381     46382     46383     46387
     46383     46384     46383     46385     46383     46386     46387     46388
     46389     46393     46389     46390     46389     46391     46389     46392
     46393     46394     46395     46399     46395     46396     46395     46397
     46395     46398     46399     46400     46401     46405     46401     46402
     46401     46403     46401     46404     46405     46406     46407     46411
     46407     46408     46407     46409     46407     46410     46411     46412
     46413     46417     46413     46414     46413     46415     46413     46416
     46417     46418     46419     46423     46419     46420     46419     46421
     46419     46422     46423     46424     46425     46429     46425     46426
     46425     46427     46425     46428     46429     46430     46431     46435
     46431     46432     46431     46433     46431     46434     46435     46436
     46437     46441     46437     46438     46437     46439     46437     46440
     46441     46442     46443     46447     46443     46444     46443     46445
     46443     46446     46447     46448     46449     46453     46449     46450
     46449     46451     46449     46452     46453     46454     46455     46459
     46455     46456     46455     46457     46455     46458     46459     46460
     46461     46465     46461     46462     46461     46463     46461     46464
     46465     46466     46467     46471     46467     46468     46467     46469
     46467     46470     46471     46472     46473     46477     46473     46474
     46473     46475     46473     46476     46477     46478     46479     46483
     46479     46480     46479     46481     46479     46482     46483     46484
     46485     46489     46485     46486     46485     46487     46485     46488
     46489     46490     46491     46495     46491     46492     46491     46493
     46491     46494     46495     46496     46497     46501     46497     46498
     46497     46499     46497     46500     46501     46502     46503     46507
     46503     46504     46503     46505     46503     46506     46507     46508
     46509     46513     46509     46510     46509     46511     46509     46512
     46513     46514     46515     46519     46515     46516     46515     46517
     46515     46518     46519     46520     46521     46525     46521     46522
     46521     46523     46521     46524     46525     46526     46527     46531
     46527     46528     46527     46529     46527     46530     46531     46532
     46533     46537     46533     46534     46533     46535     46533     46536
     46537     46538     46539     46543     46539     46540     46539     46541
     46539     46542     46543     46544     46545     46549     46545     46546
     46545     46547     46545     46548     46549     46550     46551     46555
     46551     46552     46551     46553     46551     46554     46555     46556
     46557     46561     46557     46558     46557     46559     46557     46560
     46561     46562     46563     46567     46563     46564     46563     46565
     46563     46566     46567     46568     46569     46573     46569     46570
     46569     46571     46569     46572     46573     46574     46575     46579
     46575     46576     46575     46577     46575     46578     46579     46580
     46581     46585     46581     46582     46581     46583     46581     46584
     46585     46586     46587     46591     46587     46588     46587     46589
     46587     46590     46591     46592     46593     46597     46593     46594
     46593     46595     46593     46596     46597     46598     46599     46603
     46599     46600     46599     46601     46599     46602     46603     46604
     46605     46609     46605     46606     46605     46607     46605     46608
     46609     46610     46611     46615     46611     46612     46611     46613
     46611     46614     46615     46616     46617     46621     46617     46618
     46617     46619     46617     46620     46621     46622     46623     46627
     46623     46624     46623     46625     46623     46626     46627     46628
     46629     46633     46629     46630     46629     46631     46629     46632
     46633     46634     46635     46639     46635     46636     46635     46637
     46635     46638     46639     46640     46641     46645     46641     46642
     46641     46643     46641     46644     46645     46646     46647     46651
     46647     46648     46647     46649     46647     46650     46651     46652
     46653     46657     46653     46654     46653     46655     46653     46656
     46657     46658     46659     46663     46659     46660     46659     46661
     46659     46662     46663     46664     46665     46669     46665     46666
     46665     46667     46665     46668     46669     46670     46671     46675
     46671     46672     46671     46673     46671     46674     46675     46676
     46677     46681     46677     46678     46677     46679     46677     46680
     46681     46682     46683     46687     46683     46684     46683     46685
     46683     46686     46687     46688     46689     46693     46689     46690
     46689     46691     46689     46692     46693     46694     46695     46699
     46695     46696     46695     46697     46695     46698     46699     46700
     46701     46705     46701     46702     46701     46703     46701     46704
     46705     46706     46707     46711     46707     46708     46707     46709
     46707     46710     46711     46712     46713     46717     46713     46714
     46713     46715     46713     46716     46717     46718     46719     46723
     46719     46720     46719     46721     46719     46722     46723     46724
     46725     46729     46725     46726     46725     46727     46725     46728
     46729     46730     46731     46735     46731     46732     46731     46733
     46731     46734     46735     46736     46737     46741     46737     46738
     46737     46739     46737     46740     46741     46742     46743     46747
     46743     46744     46743     46745     46743     46746     46747     46748
     46749     46753     46749     46750     46749     46751     46749     46752
     46753     46754     46755     46759     46755     46756     46755     46757
     46755     46758     46759     46760     46761     46765     46761     46762
     46761     46763     46761     46764     46765     46766     46767     46771
     46767     46768     46767     46769     46767     46770     46771     46772
     46773     46777     46773     46774     46773     46775     46773     46776
     46777     46778     46779     46783     46779     46780     46779     46781
     46779     46782     46783     46784     46785     46789     46785     46786
     46785     46787     46785     46788     46789     46790     46791     46795
     46791     46792     46791     46793     46791     46794     46795     46796
     46797     46801     46797     46798     46797     46799     46797     46800
     46801     46802     46803     46807     46803     46804     46803     46805
     46803     46806     46807     46808     46809     46813     46809     46810
     46809     46811     46809     46812     46813     46814     46815     46819
     46815     46816     46815     46817     46815     46818     46819     46820
     46821     46825     46821     46822     46821     46823     46821     46824
     46825     46826     46827     46831     46827     46828     46827     46829
     46827     46830     46831     46832     46833     46837     46833     46834
     46833     46835     46833     46836     46837     46838     46839     46843
     46839     46840     46839     46841     46839     46842     46843     46844
     46845     46849     46845     46846     46845     46847     46845     46848
     46849     46850     46851     46855     46851     46852     46851     46853
     46851     46854     46855     46856     46857     46861     46857     46858
     46857     46859     46857     46860     46861     46862     46863     46867
     46863     46864     46863     46865     46863     46866     46867     46868
     46869     46873     46869     46870     46869     46871     46869     46872
     46873     46874     46875     46879     46875     46876     46875     46877
     46875     46878     46879     46880     46881     46885     46881     46882
     46881     46883     46881     46884     46885     46886     46887     46891
     46887     46888     46887     46889     46887     46890     46891     46892
     46893     46897     46893     46894     46893     46895     46893     46896
     46897     46898     46899     46903     46899     46900     46899     46901
     46899     46902     46903     46904     46905     46909     46905     46906
     46905     46907     46905     46908     46909     46910     46911     46915
     46911     46912     46911     46913     46911     46914     46915     46916
     46917     46921     46917     46918     46917     46919     46917     46920
     46921     46922     46923     46927     46923     46924     46923     46925
     46923     46926     46927     46928     46929     46933     46929     46930
     46929     46931     46929     46932     46933     46934     46935     46939
     46935     46936     46935     46937     46935     46938     46939     46940
     46941     46945     46941     46942     46941     46943     46941     46944
     46945     46946     46947     46951     46947     46948     46947     46949
     46947     46950     46951     46952     46953     46957     46953     46954
     46953     46955     46953     46956     46957     46958     46959     46963
     46959     46960     46959     46961     46959     46962     46963     46964
     46965     46969     46965     46966     46965     46967     46965     46968
     46969     46970     46971     46975     46971     46972     46971     46973
     46971     46974     46975     46976     46977     46981     46977     46978
     46977     46979     46977     46980     46981     46982     46983     46987
     46983     46984     46983     46985     46983     46986     46987     46988
     46989     46993     46989     46990     46989     46991     46989     46992
     46993     46994     46995     46999     46995     46996     46995     46997
     46995     46998     46999     47000     47001     47005     47001     47002
     47001     47003     47001     47004     47005     47006     47007     47011
     47007     47008     47007     47009     47007     47010     47011     47012
     47013     47017     47013     47014     47013     47015     47013     47016
     47017     47018     47019     47023     47019     47020     47019     47021
     47019     47022     47023     47024     47025     47029     47025     47026
     47025     47027     47025     47028     47029     47030     47031     47035
     47031     47032     47031     47033     47031     47034     47035     47036
     47037     47041     47037     47038     47037     47039     47037     47040
     47041     47042     47043     47047     47043     47044     47043     47045
     47043     47046     47047     47048     47049     47053     47049     47050
     47049     47051     47049     47052     47053     47054     47055     47059
     47055     47056     47055     47057     47055     47058     47059     47060
     47061     47065     47061     47062     47061     47063     47061     47064
     47065     47066     47067     47071     47067     47068     47067     47069
     47067     47070     47071     47072     47073     47077     47073     47074
     47073     47075     47073     47076     47077     47078     47079     47083
     47079     47080     47079     47081     47079     47082     47083     47084
     47085     47089     47085     47086     47085     47087     47085     47088
     47089     47090     47091     47095     47091     47092     47091     47093
     47091     47094     47095     47096     47097     47101     47097     47098
     47097     47099     47097     47100     47101     47102     47103     47107
     47103     47104     47103     47105     47103     47106     47107     47108
     47109     47113     47109     47110     47109     47111     47109     47112
     47113     47114     47115     47119     47115     47116     47115     47117
     47115     47118     47119     47120     47121     47125     47121     47122
     47121     47123     47121     47124     47125     47126     47127     47131
     47127     47128     47127     47129     47127     47130     47131     47132
     47133     47137     47133     47134     47133     47135     47133     47136
     47137     47138     47139     47143     47139     47140     47139     47141
     47139     47142     47143     47144     47145     47149     47145     47146
     47145     47147     47145     47148     47149     47150     47151     47155
     47151     47152     47151     47153     47151     47154     47155     47156
     47157     47161     47157     47158     47157     47159     47157     47160
     47161     47162     47163     47167     47163     47164     47163     47165
     47163     47166     47167     47168     47169     47173     47169     47170
     47169     47171     47169     47172     47173     47174     47175     47179
     47175     47176     47175     47177     47175     47178     47179     47180
     47181     47185     47181     47182     47181     47183     47181     47184
     47185     47186     47187     47191     47187     47188     47187     47189
     47187     47190     47191     47192     47193     47197     47193     47194
     47193     47195     47193     47196     47197     47198     47199     47203
     47199     47200     47199     47201     47199     47202     47203     47204
     47205     47209     47205     47206     47205     47207     47205     47208
     47209     47210     47211     47215     47211     47212     47211     47213
     47211     47214     47215     47216     47217     47221     47217     47218
     47217     47219     47217     47220     47221     47222     47223     47227
     47223     47224     47223     47225     47223     47226     47227     47228
     47229     47233     47229     47230     47229     47231     47229     47232
     47233     47234     47235     47239     47235     47236     47235     47237
     47235     47238     47239     47240     47241     47245     47241     47242
     47241     47243     47241     47244     47245     47246     47247     47251
     47247     47248     47247     47249     47247     47250     47251     47252
     47253     47257     47253     47254     47253     47255     47253     47256
     47257     47258     47259     47263     47259     47260     47259     47261
     47259     47262     47263     47264     47265     47269     47265     47266
     47265     47267     47265     47268     47269     47270     47271     47275
     47271     47272     47271     47273     47271     47274     47275     47276
     47277     47281     47277     47278     47277     47279     47277     47280
     47281     47282     47283     47287     47283     47284     47283     47285
     47283     47286     47287     47288     47289     47293     47289     47290
     47289     47291     47289     47292     47293     47294     47295     47299
     47295     47296     47295     47297     47295     47298     47299     47300
     47301     47305     47301     47302     47301     47303     47301     47304
     47305     47306     47307     47311     47307     47308     47307     47309
     47307     47310     47311     47312     47313     47317     47313     47314
     47313     47315     47313     47316     47317     47318     47319     47323
     47319     47320     47319     47321     47319     47322     47323     47324
     47325     47329     47325     47326     47325     47327     47325     47328
     47329     47330     47331     47335     47331     47332     47331     47333
     47331     47334     47335     47336     47337     47341     47337     47338
     47337     47339     47337     47340     47341     47342     47343     47347
     47343     47344     47343     47345     47343     47346     47347     47348
     47349     47353     47349     47350     47349     47351     47349     47352
     47353     47354     47355     47359     47355     47356     47355     47357
     47355     47358     47359     47360     47361     47365     47361     47362
     47361     47363     47361     47364     47365     47366     47367     47371
     47367     47368     47367     47369     47367     47370     47371     47372
     47373     47377     47373     47374     47373     47375     47373     47376
     47377     47378     47379     47383     47379     47380     47379     47381
     47379     47382     47383     47384     47385     47389     47385     47386
     47385     47387     47385     47388     47389     47390     47391     47395
     47391     47392     47391     47393     47391     47394     47395     47396
     47397     47401     47397     47398     47397     47399     47397     47400
     47401     47402     47403     47407     47403     47404     47403     47405
     47403     47406     47407     47408     47409     47413     47409     47410
     47409     47411     47409     47412     47413     47414     47415     47419
     47415     47416     47415     47417     47415     47418     47419     47420
     47421     47425     47421     47422     47421     47423     47421     47424
     47425     47426     47427     47431     47427     47428     47427     47429
     47427     47430     47431     47432     47433     47437     47433     47434
     47433     47435     47433     47436     47437     47438     47439     47443
     47439     47440     47439     47441     47439     47442     47443     47444
     47445     47449     47445     47446     47445     47447     47445     47448
     47449     47450     47451     47455     47451     47452     47451     47453
     47451     47454     47455     47456     47457     47461     47457     47458
     47457     47459     47457     47460     47461     47462     47463     47467
     47463     47464     47463     47465     47463     47466     47467     47468
     47469     47473     47469     47470     47469     47471     47469     47472
     47473     47474     47475     47479     47475     47476     47475     47477
     47475     47478     47479     47480     47481     47485     47481     47482
     47481     47483     47481     47484     47485     47486     47487     47491
     47487     47488     47487     47489     47487     47490     47491     47492
     47493     47497     47493     47494     47493     47495     47493     47496
     47497     47498     47499     47503     47499     47500     47499     47501
     47499     47502     47503     47504     47505     47509     47505     47506
     47505     47507     47505     47508     47509     47510     47511     47515
     47511     47512     47511     47513     47511     47514     47515     47516
     47517     47521     47517     47518     47517     47519     47517     47520
     47521     47522     47523     47527     47523     47524     47523     47525
     47523     47526     47527     47528     47529     47533     47529     47530
     47529     47531     47529     47532     47533     47534     47535     47539
     47535     47536     47535     47537     47535     47538     47539     47540
     47541     47545     47541     47542     47541     47543     47541     47544
     47545     47546     47547     47551     47547     47548     47547     47549
     47547     47550     47551     47552     47553     47557     47553     47554
     47553     47555     47553     47556     47557     47558     47559     47563
     47559     47560     47559     47561     47559     47562     47563     47564
     47565     47569     47565     47566     47565     47567     47565     47568
     47569     47570     47571     47575     47571     47572     47571     47573
     47571     47574     47575     47576     47577     47581     47577     47578
     47577     47579     47577     47580     47581     47582     47583     47587
     47583     47584     47583     47585     47583     47586     47587     47588
     47589     47593     47589     47590     47589     47591     47589     47592
     47593     47594     47595     47599     47595     47596     47595     47597
     47595     47598     47599     47600     47601     47605     47601     47602
     47601     47603     47601     47604     47605     47606     47607     47611
     47607     47608     47607     47609     47607     47610     47611     47612
     47613     47617     47613     47614     47613     47615     47613     47616
     47617     47618     47619     47623     47619     47620     47619     47621
     47619     47622     47623     47624     47625     47629     47625     47626
     47625     47627     47625     47628     47629     47630     47631     47635
     47631     47632     47631     47633     47631     47634     47635     47636
     47637     47641     47637     47638     47637     47639     47637     47640
     47641     47642     47643     47647     47643     47644     47643     47645
     47643     47646     47647     47648     47649     47653     47649     47650
     47649     47651     47649     47652     47653     47654     47655     47659
     47655     47656     47655     47657     47655     47658     47659     47660
     47661     47665     47661     47662     47661     47663     47661     47664
     47665     47666     47667     47671     47667     47668     47667     47669
     47667     47670     47671     47672     47673     47677     47673     47674
     47673     47675     47673     47676     47677     47678     47679     47683
     47679     47680     47679     47681     47679     47682     47683     47684
     47685     47689     47685     47686     47685     47687     47685     47688
     47689     47690     47691     47695     47691     47692     47691     47693
     47691     47694     47695     47696     47697     47701     47697     47698
     47697     47699     47697     47700     47701     47702     47703     47707
     47703     47704     47703     47705     47703     47706     47707     47708
     47709     47713     47709     47710     47709     47711     47709     47712
     47713     47714     47715     47719     47715     47716     47715     47717
     47715     47718     47719     47720     47721     47725     47721     47722
     47721     47723     47721     47724     47725     47726     47727     47731
     47727     47728     47727     47729     47727     47730     47731     47732
     47733     47737     47733     47734     47733     47735     47733     47736
     47737     47738     47739     47743     47739     47740     47739     47741
     47739     47742     47743     47744     47745     47749     47745     47746
     47745     47747     47745     47748     47749     47750     47751     47755
     47751     47752     47751     47753     47751     47754     47755     47756
     47757     47761     47757     47758     47757     47759     47757     47760
     47761     47762     47763     47767     47763     47764     47763     47765
     47763     47766     47767     47768     47769     47773     47769     47770
     47769     47771     47769     47772     47773     47774     47775     47779
     47775     47776     47775     47777     47775     47778     47779     47780
     47781     47785     47781     47782     47781     47783     47781     47784
     47785     47786     47787     47791     47787     47788     47787     47789
     47787     47790     47791     47792     47793     47797     47793     47794
     47793     47795     47793     47796     47797     47798     47799     47803
     47799     47800     47799     47801     47799     47802     47803     47804
     47805     47809     47805     47806     47805     47807     47805     47808
     47809     47810     47811     47815     47811     47812     47811     47813
     47811     47814     47815     47816     47817     47821     47817     47818
     47817     47819     47817     47820     47821     47822     47823     47827
     47823     47824     47823     47825     47823     47826     47827     47828
     47829     47833     47829     47830     47829     47831     47829     47832
     47833     47834     47835     47839     47835     47836     47835     47837
     47835     47838     47839     47840     47841     47845     47841     47842
     47841     47843     47841     47844     47845     47846     47847     47851
     47847     47848     47847     47849     47847     47850     47851     47852
     47853     47857     47853     47854     47853     47855     47853     47856
     47857     47858     47859     47863     47859     47860     47859     47861
     47859     47862     47863     47864     47865     47869     47865     47866
     47865     47867     47865     47868     47869     47870     47871     47875
     47871     47872     47871     47873     47871     47874     47875     47876
     47877     47881     47877     47878     47877     47879     47877     47880
     47881     47882     47883     47887     47883     47884     47883     47885
     47883     47886     47887     47888     47889     47893     47889     47890
     47889     47891     47889     47892     47893     47894     47895     47899
     47895     47896     47895     47897     47895     47898     47899     47900
     47901     47905     47901     47902     47901     47903     47901     47904
     47905     47906     47907     47911     47907     47908     47907     47909
     47907     47910     47911     47912     47913     47917     47913     47914
     47913     47915     47913     47916     47917     47918     47919     47923
     47919     47920     47919     47921     47919     47922     47923     47924
     47925     47929     47925     47926     47925     47927     47925     47928
     47929     47930     47931     47935     47931     47932     47931     47933
     47931     47934     47935     47936     47937     47941     47937     47938
     47937     47939     47937     47940     47941     47942     47943     47947
     47943     47944     47943     47945     47943     47946     47947     47948
     47949     47953     47949     47950     47949     47951     47949     47952
     47953     47954     47955     47959     47955     47956     47955     47957
     47955     47958     47959     47960     47961     47965     47961     47962
     47961     47963     47961     47964     47965     47966     47967     47971
     47967     47968     47967     47969     47967     47970     47971     47972
     47973     47977     47973     47974     47973     47975     47973     47976
     47977     47978     47979     47983     47979     47980     47979     47981
     47979     47982     47983     47984     47985     47989     47985     47986
     47985     47987     47985     47988     47989     47990     47991     47995
     47991     47992     47991     47993     47991     47994     47995     47996
     47997     48001     47997     47998     47997     47999     47997     48000
     48001     48002     48003     48007     48003     48004     48003     48005
     48003     48006     48007     48008     48009     48013     48009     48010
     48009     48011     48009     48012     48013     48014     48015     48019
     48015     48016     48015     48017     48015     48018     48019     48020
     48021     48025     48021     48022     48021     48023     48021     48024
     48025     48026     48027     48031     48027     48028     48027     48029
     48027     48030     48031     48032     48033     48037     48033     48034
     48033     48035     48033     48036     48037     48038     48039     48043
     48039     48040     48039     48041     48039     48042     48043     48044
     48045     48049     48045     48046     48045     48047     48045     48048
     48049     48050     48051     48055     48051     48052     48051     48053
     48051     48054     48055     48056     48057     48061     48057     48058
     48057     48059     48057     48060     48061     48062     48063     48067
     48063     48064     48063     48065     48063     48066     48067     48068
     48069     48073     48069     48070     48069     48071     48069     48072
     48073     48074     48075     48079     48075     48076     48075     48077
     48075     48078     48079     48080     48081     48085     48081     48082
     48081     48083     48081     48084     48085     48086     48087     48091
     48087     48088     48087     48089     48087     48090     48091     48092
     48093     48097     48093     48094     48093     48095     48093     48096
     48097     48098     48099     48103     48099     48100     48099     48101
     48099     48102     48103     48104     48105     48109     48105     48106
     48105     48107     48105     48108     48109     48110     48111     48115
     48111     48112     48111     48113     48111     48114     48115     48116
     48117     48121     48117     48118     48117     48119     48117     48120
     48121     48122     48123     48127     48123     48124     48123     48125
     48123     48126     48127     48128     48129     48133     48129     48130
     48129     48131     48129     48132     48133     48134     48135     48139
     48135     48136     48135     48137     48135     48138     48139     48140
     48141     48145     48141     48142     48141     48143     48141     48144
     48145     48146     48147     48151     48147     48148     48147     48149
     48147     48150     48151     48152     48153     48157     48153     48154
     48153     48155     48153     48156     48157     48158     48159     48163
     48159     48160     48159     48161     48159     48162     48163     48164
     48165     48169     48165     48166     48165     48167     48165     48168
     48169     48170     48171     48175     48171     48172     48171     48173
     48171     48174     48175     48176     48177     48181     48177     48178
     48177     48179     48177     48180     48181     48182     48183     48187
     48183     48184     48183     48185     48183     48186     48187     48188
     48189     48193     48189     48190     48189     48191     48189     48192
     48193     48194     48195     48199     48195     48196     48195     48197
     48195     48198     48199     48200     48201     48205     48201     48202
     48201     48203     48201     48204     48205     48206     48207     48211
     48207     48208     48207     48209     48207     48210     48211     48212
     48213     48217     48213     48214     48213     48215     48213     48216
     48217     48218     48219     48223     48219     48220     48219     48221
     48219     48222     48223     48224     48225     48229     48225     48226
     48225     48227     48225     48228     48229     48230     48231     48235
     48231     48232     48231     48233     48231     48234     48235     48236
     48237     48241     48237     48238     48237     48239     48237     48240
     48241     48242     48243     48247     48243     48244     48243     48245
     48243     48246     48247     48248     48249     48253     48249     48250
     48249     48251     48249     48252     48253     48254     48255     48259
     48255     48256     48255     48257     48255     48258     48259     48260
     48261     48265     48261     48262     48261     48263     48261     48264
     48265     48266     48267     48271     48267     48268     48267     48269
     48267     48270     48271     48272     48273     48277     48273     48274
     48273     48275     48273     48276     48277     48278     48279     48283
     48279     48280     48279     48281     48279     48282     48283     48284
     48285     48289     48285     48286     48285     48287     48285     48288
     48289     48290     48291     48295     48291     48292     48291     48293
     48291     48294     48295     48296     48297     48301     48297     48298
     48297     48299     48297     48300     48301     48302     48303     48307
     48303     48304     48303     48305     48303     48306     48307     48308
     48309     48313     48309     48310     48309     48311     48309     48312
     48313     48314     48315     48319     48315     48316     48315     48317
     48315     48318     48319     48320     48321     48325     48321     48322
     48321     48323     48321     48324     48325     48326     48327     48331
     48327     48328     48327     48329     48327     48330     48331     48332
     48333     48337     48333     48334     48333     48335     48333     48336
     48337     48338     48339     48343     48339     48340     48339     48341
     48339     48342     48343     48344     48345     48349     48345     48346
     48345     48347     48345     48348     48349     48350     48351     48355
     48351     48352     48351     48353     48351     48354     48355     48356
     48357     48361     48357     48358     48357     48359     48357     48360
     48361     48362     48363     48367     48363     48364     48363     48365
     48363     48366     48367     48368     48369     48373     48369     48370
     48369     48371     48369     48372     48373     48374     48375     48379
     48375     48376     48375     48377     48375     48378     48379     48380
     48381     48385     48381     48382     48381     48383     48381     48384
     48385     48386     48387     48391     48387     48388     48387     48389
     48387     48390     48391     48392     48393     48397     48393     48394
     48393     48395     48393     48396     48397     48398     48399     48403
     48399     48400     48399     48401     48399     48402     48403     48404
     48405     48409     48405     48406     48405     48407     48405     48408
     48409     48410     48411     48415     48411     48412     48411     48413
     48411     48414     48415     48416     48417     48421     48417     48418
     48417     48419     48417     48420     48421     48422     48423     48427
     48423     48424     48423     48425     48423     48426     48427     48428
     48429     48433     48429     48430     48429     48431     48429     48432
     48433     48434     48435     48439     48435     48436     48435     48437
     48435     48438     48439     48440     48441     48445     48441     48442
     48441     48443     48441     48444     48445     48446     48447     48451
     48447     48448     48447     48449     48447     48450     48451     48452
     48453     48457     48453     48454     48453     48455     48453     48456
     48457     48458     48459     48463     48459     48460     48459     48461
     48459     48462     48463     48464     48465     48469     48465     48466
     48465     48467     48465     48468     48469     48470     48471     48475
     48471     48472     48471     48473     48471     48474     48475     48476
     48477     48481     48477     48478     48477     48479     48477     48480
     48481     48482     48483     48487     48483     48484     48483     48485
     48483     48486     48487     48488     48489     48493     48489     48490
     48489     48491     48489     48492     48493     48494     48495     48499
     48495     48496     48495     48497     48495     48498     48499     48500
     48501     48505     48501     48502     48501     48503     48501     48504
     48505     48506     48507     48511     48507     48508     48507     48509
     48507     48510     48511     48512     48513     48517     48513     48514
     48513     48515     48513     48516     48517     48518     48519     48523
     48519     48520     48519     48521     48519     48522     48523     48524
     48525     48529     48525     48526     48525     48527     48525     48528
     48529     48530     48531     48535     48531     48532     48531     48533
     48531     48534     48535     48536     48537     48541     48537     48538
     48537     48539     48537     48540     48541     48542     48543     48547
     48543     48544     48543     48545     48543     48546     48547     48548
     48549     48553     48549     48550     48549     48551     48549     48552
     48553     48554     48555     48559     48555     48556     48555     48557
     48555     48558     48559     48560     48561     48565     48561     48562
     48561     48563     48561     48564     48565     48566     48567     48571
     48567     48568     48567     48569     48567     48570     48571     48572
     48573     48577     48573     48574     48573     48575     48573     48576
     48577     48578     48579     48583     48579     48580     48579     48581
     48579     48582     48583     48584     48585     48589     48585     48586
     48585     48587     48585     48588     48589     48590     48591     48595
     48591     48592     48591     48593     48591     48594     48595     48596
     48597     48601     48597     48598     48597     48599     48597     48600
     48601     48602     48603     48607     48603     48604     48603     48605
     48603     48606     48607     48608     48609     48613     48609     48610
     48609     48611     48609     48612     48613     48614     48615     48619
     48615     48616     48615     48617     48615     48618     48619     48620
     48621     48625     48621     48622     48621     48623     48621     48624
     48625     48626     48627     48631     48627     48628     48627     48629
     48627     48630     48631     48632     48633     48637     48633     48634
     48633     48635     48633     48636     48637     48638     48639     48643
     48639     48640     48639     48641     48639     48642     48643     48644
     48645     48649     48645     48646     48645     48647     48645     48648
     48649     48650     48651     48655     48651     48652     48651     48653
     48651     48654     48655     48656     48657     48661     48657     48658
     48657     48659     48657     48660     48661     48662     48663     48667
     48663     48664     48663     48665     48663     48666     48667     48668
     48669     48673     48669     48670     48669     48671     48669     48672
     48673     48674     48675     48679     48675     48676     48675     48677
     48675     48678     48679     48680     48681     48685     48681     48682
     48681     48683     48681     48684     48685     48686     48687     48691
     48687     48688     48687     48689     48687     48690     48691     48692
     48693     48697     48693     48694     48693     48695     48693     48696
     48697     48698     48699     48703     48699     48700     48699     48701
     48699     48702     48703     48704     48705     48709     48705     48706
     48705     48707     48705     48708     48709     48710     48711     48715
     48711     48712     48711     48713     48711     48714     48715     48716
     48717     48721     48717     48718     48717     48719     48717     48720
     48721     48722     48723     48727     48723     48724     48723     48725
     48723     48726     48727     48728     48729     48733     48729     48730
     48729     48731     48729     48732     48733     48734     48735     48739
     48735     48736     48735     48737     48735     48738     48739     48740
     48741     48745     48741     48742     48741     48743     48741     48744
     48745     48746     48747     48751     48747     48748     48747     48749
     48747     48750     48751     48752     48753     48757     48753     48754
     48753     48755     48753     48756     48757     48758     48759     48763
     48759     48760     48759     48761     48759     48762     48763     48764
     48765     48769     48765     48766     48765     48767     48765     48768
     48769     48770     48771     48775     48771     48772     48771     48773
     48771     48774     48775     48776     48777     48781     48777     48778
     48777     48779     48777     48780     48781     48782     48783     48787
     48783     48784     48783     48785     48783     48786     48787     48788
     48789     48793     48789     48790     48789     48791     48789     48792
     48793     48794     48795     48799     48795     48796     48795     48797
     48795     48798     48799     48800     48801     48805     48801     48802
     48801     48803     48801     48804     48805     48806     48807     48811
     48807     48808     48807     48809     48807     48810     48811     48812
     48813     48817     48813     48814     48813     48815     48813     48816
     48817     48818     48819     48823     48819     48820     48819     48821
     48819     48822     48823     48824     48825     48829     48825     48826
     48825     48827     48825     48828     48829     48830     48831     48835
     48831     48832     48831     48833     48831     48834     48835     48836
     48837     48841     48837     48838     48837     48839     48837     48840
     48841     48842     48843     48847     48843     48844     48843     48845
     48843     48846     48847     48848     48849     48853     48849     48850
     48849     48851     48849     48852     48853     48854     48855     48859
     48855     48856     48855     48857     48855     48858     48859     48860
     48861     48865     48861     48862     48861     48863     48861     48864
     48865     48866     48867     48871     48867     48868     48867     48869
     48867     48870     48871     48872     48873     48877     48873     48874
     48873     48875     48873     48876     48877     48878     48879     48883
     48879     48880     48879     48881     48879     48882     48883     48884
     48885     48889     48885     48886     48885     48887     48885     48888
     48889     48890     48891     48895     48891     48892     48891     48893
     48891     48894     48895     48896     48897     48901     48897     48898
     48897     48899     48897     48900     48901     48902     48903     48907
     48903     48904     48903     48905     48903     48906     48907     48908
     48909     48913     48909     48910     48909     48911     48909     48912
     48913     48914     48915     48919     48915     48916     48915     48917
     48915     48918     48919     48920     48921     48925     48921     48922
     48921     48923     48921     48924     48925     48926     48927     48931
     48927     48928     48927     48929     48927     48930     48931     48932
     48933     48937     48933     48934     48933     48935     48933     48936
     48937     48938     48939     48943     48939     48940     48939     48941
     48939     48942     48943     48944     48945     48949     48945     48946
     48945     48947     48945     48948     48949     48950     48951     48955
     48951     48952     48951     48953     48951     48954     48955     48956
     48957     48961     48957     48958     48957     48959     48957     48960
     48961     48962     48963     48967     48963     48964     48963     48965
     48963     48966     48967     48968     48969     48973     48969     48970
     48969     48971     48969     48972     48973     48974     48975     48979
     48975     48976     48975     48977     48975     48978     48979     48980
     48981     48985     48981     48982     48981     48983     48981     48984
     48985     48986     48987     48991     48987     48988     48987     48989
     48987     48990     48991     48992     48993     48997     48993     48994
     48993     48995     48993     48996     48997     48998     48999     49003
     48999     49000     48999     49001     48999     49002     49003     49004
     49005     49009     49005     49006     49005     49007     49005     49008
     49009     49010     49011     49015     49011     49012     49011     49013
     49011     49014     49015     49016     49017     49021     49017     49018
     49017     49019     49017     49020     49021     49022     49023     49027
     49023     49024     49023     49025     49023     49026     49027     49028
     49029     49033     49029     49030     49029     49031     49029     49032
     49033     49034     49035     49039     49035     49036     49035     49037
     49035     49038     49039     49040     49041     49045     49041     49042
     49041     49043     49041     49044     49045     49046     49047     49051
     49047     49048     49047     49049     49047     49050     49051     49052
     49053     49057     49053     49054     49053     49055     49053     49056
     49057     49058     49059     49063     49059     49060     49059     49061
     49059     49062     49063     49064     49065     49069     49065     49066
     49065     49067     49065     49068     49069     49070     49071     49075
     49071     49072     49071     49073     49071     49074     49075     49076
     49077     49081     49077     49078     49077     49079     49077     49080
     49081     49082     49083     49087     49083     49084     49083     49085
     49083     49086     49087     49088     49089     49093     49089     49090
     49089     49091     49089     49092     49093     49094     49095     49099
     49095     49096     49095     49097     49095     49098     49099     49100
     49101     49105     49101     49102     49101     49103     49101     49104
     49105     49106     49107     49111     49107     49108     49107     49109
     49107     49110     49111     49112     49113     49117     49113     49114
     49113     49115     49113     49116     49117     49118     49119     49123
     49119     49120     49119     49121     49119     49122     49123     49124
     49125     49129     49125     49126     49125     49127     49125     49128
     49129     49130     49131     49135     49131     49132     49131     49133
     49131     49134     49135     49136     49137     49141     49137     49138
     49137     49139     49137     49140     49141     49142     49143     49147
     49143     49144     49143     49145     49143     49146     49147     49148
     49149     49153     49149     49150     49149     49151     49149     49152
     49153     49154     49155     49159     49155     49156     49155     49157
     49155     49158     49159     49160     49161     49165     49161     49162
     49161     49163     49161     49164     49165     49166     49167     49171
     49167     49168     49167     49169     49167     49170     49171     49172
     49173     49177     49173     49174     49173     49175     49173     49176
     49177     49178     49179     49183     49179     49180     49179     49181
     49179     49182     49183     49184     49185     49189     49185     49186
     49185     49187     49185     49188     49189     49190     49191     49195
     49191     49192     49191     49193     49191     49194     49195     49196
     49197     49201     49197     49198     49197     49199     49197     49200
     49201     49202     49203     49207     49203     49204     49203     49205
     49203     49206     49207     49208     49209     49213     49209     49210
     49209     49211     49209     49212     49213     49214     49215     49219
     49215     49216     49215     49217     49215     49218     49219     49220
     49221     49225     49221     49222     49221     49223     49221     49224
     49225     49226     49227     49231     49227     49228     49227     49229
     49227     49230     49231     49232     49233     49237     49233     49234
     49233     49235     49233     49236     49237     49238     49239     49243
     49239     49240     49239     49241     49239     49242     49243     49244
     49245     49249     49245     49246     49245     49247     49245     49248
     49249     49250     49251     49255     49251     49252     49251     49253
     49251     49254     49255     49256     49257     49261     49257     49258
     49257     49259     49257     49260     49261     49262     49263     49267
     49263     49264     49263     49265     49263     49266     49267     49268
     49269     49273     49269     49270     49269     49271     49269     49272
     49273     49274     49275     49279     49275     49276     49275     49277
     49275     49278     49279     49280     49281     49285     49281     49282
     49281     49283     49281     49284     49285     49286     49287     49291
     49287     49288     49287     49289     49287     49290     49291     49292
     49293     49297     49293     49294     49293     49295     49293     49296
     49297     49298     49299     49303     49299     49300     49299     49301
     49299     49302     49303     49304     49305     49309     49305     49306
     49305     49307     49305     49308     49309     49310     49311     49315
     49311     49312     49311     49313     49311     49314     49315     49316
     49317     49321     49317     49318     49317     49319     49317     49320
     49321     49322     49323     49327     49323     49324     49323     49325
     49323     49326     49327     49328     49329     49333     49329     49330
     49329     49331     49329     49332     49333     49334     49335     49339
     49335     49336     49335     49337     49335     49338     49339     49340
     49341     49345     49341     49342     49341     49343     49341     49344
     49345     49346     49347     49351     49347     49348     49347     49349
     49347     49350     49351     49352     49353     49357     49353     49354
     49353     49355     49353     49356     49357     49358     49359     49363
     49359     49360     49359     49361     49359     49362     49363     49364
     49365     49369     49365     49366     49365     49367     49365     49368
     49369     49370     49371     49375     49371     49372     49371     49373
     49371     49374     49375     49376     49377     49381     49377     49378
     49377     49379     49377     49380     49381     49382     49383     49387
     49383     49384     49383     49385     49383     49386     49387     49388
     49389     49393     49389     49390     49389     49391     49389     49392
     49393     49394     49395     49399     49395     49396     49395     49397
     49395     49398     49399     49400     49401     49405     49401     49402
     49401     49403     49401     49404     49405     49406     49407     49411
     49407     49408     49407     49409     49407     49410     49411     49412
     49413     49417     49413     49414     49413     49415     49413     49416
     49417     49418     49419     49423     49419     49420     49419     49421
     49419     49422     49423     49424     49425     49429     49425     49426
     49425     49427     49425     49428     49429     49430     49431     49435
     49431     49432     49431     49433     49431     49434     49435     49436
     49437     49441     49437     49438     49437     49439     49437     49440
     49441     49442     49443     49447     49443     49444     49443     49445
     49443     49446     49447     49448     49449     49453     49449     49450
     49449     49451     49449     49452     49453     49454     49455     49459
     49455     49456     49455     49457     49455     49458     49459     49460
     49461     49465     49461     49462     49461     49463     49461     49464
     49465     49466     49467     49471     49467     49468     49467     49469
     49467     49470     49471     49472     49473     49477     49473     49474
     49473     49475     49473     49476     49477     49478     49479     49483
     49479     49480     49479     49481     49479     49482     49483     49484
     49485     49489     49485     49486     49485     49487     49485     49488
     49489     49490     49491     49495     49491     49492     49491     49493
     49491     49494     49495     49496     49497     49501     49497     49498
     49497     49499     49497     49500     49501     49502     49503     49507
     49503     49504     49503     49505     49503     49506     49507     49508
     49509     49513     49509     49510     49509     49511     49509     49512
     49513     49514     49515     49519     49515     49516     49515     49517
     49515     49518     49519     49520     49521     49525     49521     49522
     49521     49523     49521     49524     49525     49526     49527     49531
     49527     49528     49527     49529     49527     49530     49531     49532
     49533     49537     49533     49534     49533     49535     49533     49536
     49537     49538     49539     49543     49539     49540     49539     49541
     49539     49542     49543     49544     49545     49549     49545     49546
     49545     49547     49545     49548     49549     49550     49551     49555
     49551     49552     49551     49553     49551     49554     49555     49556
     49557     49561     49557     49558     49557     49559     49557     49560
     49561     49562     49563     49567     49563     49564     49563     49565
     49563     49566     49567     49568     49569     49573     49569     49570
     49569     49571     49569     49572     49573     49574     49575     49579
     49575     49576     49575     49577     49575     49578     49579     49580
     49581     49585     49581     49582     49581     49583     49581     49584
     49585     49586     49587     49591     49587     49588     49587     49589
     49587     49590     49591     49592     49593     49597     49593     49594
     49593     49595     49593     49596     49597     49598     49599     49603
     49599     49600     49599     49601     49599     49602     49603     49604
     49605     49609     49605     49606     49605     49607     49605     49608
     49609     49610     49611     49615     49611     49612     49611     49613
     49611     49614     49615     49616     49617     49621     49617     49618
     49617     49619     49617     49620     49621     49622     49623     49627
     49623     49624     49623     49625     49623     49626     49627     49628
     49629     49633     49629     49630     49629     49631     49629     49632
     49633     49634     49635     49639     49635     49636     49635     49637
     49635     49638     49639     49640     49641     49645     49641     49642
     49641     49643     49641     49644     49645     49646     49647     49651
     49647     49648     49647     49649     49647     49650     49651     49652
     49653     49657     49653     49654     49653     49655     49653     49656
     49657     49658     49659     49663     49659     49660     49659     49661
     49659     49662     49663     49664     49665     49669     49665     49666
     49665     49667     49665     49668     49669     49670     49671     49675
     49671     49672     49671     49673     49671     49674     49675     49676
     49677     49681     49677     49678     49677     49679     49677     49680
     49681     49682     49683     49687     49683     49684     49683     49685
     49683     49686     49687     49688     49689     49693     49689     49690
     49689     49691     49689     49692     49693     49694     49695     49699
     49695     49696     49695     49697     49695     49698     49699     49700
     49701     49705     49701     49702     49701     49703     49701     49704
     49705     49706     49707     49711     49707     49708     49707     49709
     49707     49710     49711     49712     49713     49717     49713     49714
     49713     49715     49713     49716     49717     49718     49719     49723
     49719     49720     49719     49721     49719     49722     49723     49724
     49725     49729     49725     49726     49725     49727     49725     49728
     49729     49730     49731     49735     49731     49732     49731     49733
     49731     49734     49735     49736     49737     49741     49737     49738
     49737     49739     49737     49740     49741     49742     49743     49747
     49743     49744     49743     49745     49743     49746     49747     49748
     49749     49753     49749     49750     49749     49751     49749     49752
     49753     49754     49755     49759     49755     49756     49755     49757
     49755     49758     49759     49760     49761     49765     49761     49762
     49761     49763     49761     49764     49765     49766     49767     49771
     49767     49768     49767     49769     49767     49770     49771     49772
     49773     49777     49773     49774     49773     49775     49773     49776
     49777     49778     49779     49783     49779     49780     49779     49781
     49779     49782     49783     49784     49785     49789     49785     49786
     49785     49787     49785     49788     49789     49790     49791     49795
     49791     49792     49791     49793     49791     49794     49795     49796
     49797     49801     49797     49798     49797     49799     49797     49800
     49801     49802     49803     49807     49803     49804     49803     49805
     49803     49806     49807     49808     49809     49813     49809     49810
     49809     49811     49809     49812     49813     49814     49815     49819
     49815     49816     49815     49817     49815     49818     49819     49820
     49821     49825     49821     49822     49821     49823     49821     49824
     49825     49826     49827     49831     49827     49828     49827     49829
     49827     49830     49831     49832     49833     49837     49833     49834
     49833     49835     49833     49836     49837     49838     49839     49843
     49839     49840     49839     49841     49839     49842     49843     49844
     49845     49849     49845     49846     49845     49847     49845     49848
     49849     49850     49851     49855     49851     49852     49851     49853
     49851     49854     49855     49856     49857     49861     49857     49858
     49857     49859     49857     49860     49861     49862     49863     49867
     49863     49864     49863     49865     49863     49866     49867     49868
     49869     49873     49869     49870     49869     49871     49869     49872
     49873     49874     49875     49879     49875     49876     49875     49877
     49875     49878     49879     49880     49881     49885     49881     49882
     49881     49883     49881     49884     49885     49886     49887     49891
     49887     49888     49887     49889     49887     49890     49891     49892
     49893     49897     49893     49894     49893     49895     49893     49896
     49897     49898     49899     49903     49899     49900     49899     49901
     49899     49902     49903     49904     49905     49909     49905     49906
     49905     49907     49905     49908     49909     49910     49911     49915
     49911     49912     49911     49913     49911     49914     49915     49916
     49917     49921     49917     49918     49917     49919     49917     49920
     49921     49922     49923     49927     49923     49924     49923     49925
     49923     49926     49927     49928     49929     49933     49929     49930
     49929     49931     49929     49932     49933     49934     49935     49939
     49935     49936     49935     49937     49935     49938     49939     49940
     49941     49945     49941     49942     49941     49943     49941     49944
     49945     49946     49947     49951     49947     49948     49947     49949
     49947     49950     49951     49952     49953     49957     49953     49954
     49953     49955     49953     49956     49957     49958     49959     49963
     49959     49960     49959     49961     49959     49962     49963     49964
     49965     49969     49965     49966     49965     49967     49965     49968
     49969     49970     49971     49975     49971     49972     49971     49973
     49971     49974     49975     49976     49977     49981     49977     49978
     49977     49979     49977     49980     49981     49982     49983     49987
     49983     49984     49983     49985     49983     49986     49987     49988
     49989     49993     49989     49990     49989     49991     49989     49992
     49993     49994     49995     49999     49995     49996     49995     49997
     49995     49998     49999     50000     50001     50005     50001     50002
     50001     50003     50001     50004     50005     50006     50007     50011
     50007     50008     50007     50009     50007     50010     50011     50012
     50013     50017     50013     50014     50013     50015     50013     50016
     50017     50018     50019     50023     50019     50020     50019     50021
     50019     50022     50023     50024     50025     50029     50025     50026
     50025     50027     50025     50028     50029     50030     50031     50035
     50031     50032     50031     50033     50031     50034     50035     50036
     50037     50041     50037     50038     50037     50039     50037     50040
     50041     50042     50043     50047     50043     50044     50043     50045
     50043     50046     50047     50048     50049     50053     50049     50050
     50049     50051     50049     50052     50053     50054     50055     50059
     50055     50056     50055     50057     50055     50058     50059     50060
     50061     50065     50061     50062     50061     50063     50061     50064
     50065     50066     50067     50071     50067     50068     50067     50069
     50067     50070     50071     50072     50073     50077     50073     50074
     50073     50075     50073     50076     50077     50078     50079     50083
     50079     50080     50079     50081     50079     50082     50083     50084
     50085     50089     50085     50086     50085     50087     50085     50088
     50089     50090     50091     50095     50091     50092     50091     50093
     50091     50094     50095     50096     50097     50101     50097     50098
     50097     50099     50097     50100     50101     50102     50103     50107
     50103     50104     50103     50105     50103     50106     50107     50108
     50109     50113     50109     50110     50109     50111     50109     50112
     50113     50114     50115     50119     50115     50116     50115     50117
     50115     50118     50119     50120     50121     50125     50121     50122
     50121     50123     50121     50124     50125     50126     50127     50131
     50127     50128     50127     50129     50127     50130     50131     50132
     50133     50137     50133     50134     50133     50135     50133     50136
     50137     50138     50139     50143     50139     50140     50139     50141
     50139     50142     50143     50144     50145     50149     50145     50146
     50145     50147     50145     50148     50149     50150     50151     50155
     50151     50152     50151     50153     50151     50154     50155     50156
     50157     50161     50157     50158     50157     50159     50157     50160
     50161     50162     50163     50167     50163     50164     50163     50165
     50163     50166     50167     50168     50169     50173     50169     50170
     50169     50171     50169     50172     50173     50174     50175     50179
     50175     50176     50175     50177     50175     50178     50179     50180
     50181     50185     50181     50182     50181     50183     50181     50184
     50185     50186     50187     50191     50187     50188     50187     50189
     50187     50190     50191     50192     50193     50197     50193     50194
     50193     50195     50193     50196     50197     50198     50199     50203
     50199     50200     50199     50201     50199     50202     50203     50204
     50205     50209     50205     50206     50205     50207     50205     50208
     50209     50210     50211     50215     50211     50212     50211     50213
     50211     50214     50215     50216     50217     50221     50217     50218
     50217     50219     50217     50220     50221     50222     50223     50227
     50223     50224     50223     50225     50223     50226     50227     50228
     50229     50233     50229     50230     50229     50231     50229     50232
     50233     50234     50235     50239     50235     50236     50235     50237
     50235     50238     50239     50240     50241     50245     50241     50242
     50241     50243     50241     50244     50245     50246     50247     50251
     50247     50248     50247     50249     50247     50250     50251     50252
     50253     50257     50253     50254     50253     50255     50253     50256
     50257     50258     50259     50263     50259     50260     50259     50261
     50259     50262     50263     50264     50265     50269     50265     50266
     50265     50267     50265     50268     50269     50270     50271     50275
     50271     50272     50271     50273     50271     50274     50275     50276
     50277     50281     50277     50278     50277     50279     50277     50280
     50281     50282     50283     50287     50283     50284     50283     50285
     50283     50286     50287     50288     50289     50293     50289     50290
     50289     50291     50289     50292     50293     50294     50295     50299
     50295     50296     50295     50297     50295     50298     50299     50300
     50301     50305     50301     50302     50301     50303     50301     50304
     50305     50306     50307     50311     50307     50308     50307     50309
     50307     50310     50311     50312     50313     50317     50313     50314
     50313     50315     50313     50316     50317     50318     50319     50323
     50319     50320     50319     50321     50319     50322     50323     50324
     50325     50329     50325     50326     50325     50327     50325     50328
     50329     50330     50331     50335     50331     50332     50331     50333
     50331     50334     50335     50336     50337     50341     50337     50338
     50337     50339     50337     50340     50341     50342     50343     50347
     50343     50344     50343     50345     50343     50346     50347     50348
     50349     50353     50349     50350     50349     50351     50349     50352
     50353     50354     50355     50359     50355     50356     50355     50357
     50355     50358     50359     50360     50361     50365     50361     50362
     50361     50363     50361     50364     50365     50366     50367     50371
     50367     50368     50367     50369     50367     50370     50371     50372
     50373     50377     50373     50374     50373     50375     50373     50376
     50377     50378     50379     50383     50379     50380     50379     50381
     50379     50382     50383     50384     50385     50389     50385     50386
     50385     50387     50385     50388     50389     50390     50391     50395
     50391     50392     50391     50393     50391     50394     50395     50396
     50397     50401     50397     50398     50397     50399     50397     50400
     50401     50402     50403     50407     50403     50404     50403     50405
     50403     50406     50407     50408     50409     50413     50409     50410
     50409     50411     50409     50412     50413     50414     50415     50419
     50415     50416     50415     50417     50415     50418     50419     50420
     50421     50425     50421     50422     50421     50423     50421     50424
     50425     50426     50427     50431     50427     50428     50427     50429
     50427     50430     50431     50432     50433     50437     50433     50434
     50433     50435     50433     50436     50437     50438     50439     50443
     50439     50440     50439     50441     50439     50442     50443     50444
     50445     50449     50445     50446     50445     50447     50445     50448
     50449     50450     50451     50455     50451     50452     50451     50453
     50451     50454     50455     50456     50457     50461     50457     50458
     50457     50459     50457     50460     50461     50462     50463     50467
     50463     50464     50463     50465     50463     50466     50467     50468
     50469     50473     50469     50470     50469     50471     50469     50472
     50473     50474     50475     50479     50475     50476     50475     50477
     50475     50478     50479     50480     50481     50485     50481     50482
     50481     50483     50481     50484     50485     50486     50487     50491
     50487     50488     50487     50489     50487     50490     50491     50492
     50493     50497     50493     50494     50493     50495     50493     50496
     50497     50498     50499     50503     50499     50500     50499     50501
     50499     50502     50503     50504     50505     50509     50505     50506
     50505     50507     50505     50508     50509     50510     50511     50515
     50511     50512     50511     50513     50511     50514     50515     50516
     50517     50521     50517     50518     50517     50519     50517     50520
     50521     50522     50523     50527     50523     50524     50523     50525
     50523     50526     50527     50528     50529     50533     50529     50530
     50529     50531     50529     50532     50533     50534     50535     50539
     50535     50536     50535     50537     50535     50538     50539     50540
     50541     50545     50541     50542     50541     50543     50541     50544
     50545     50546     50547     50551     50547     50548     50547     50549
     50547     50550     50551     50552     50553     50557     50553     50554
     50553     50555     50553     50556     50557     50558     50559     50563
     50559     50560     50559     50561     50559     50562     50563     50564
     50565     50569     50565     50566     50565     50567     50565     50568
     50569     50570     50571     50575     50571     50572     50571     50573
     50571     50574     50575     50576     50577     50581     50577     50578
     50577     50579     50577     50580     50581     50582     50583     50587
     50583     50584     50583     50585     50583     50586     50587     50588
     50589     50593     50589     50590     50589     50591     50589     50592
     50593     50594     50595     50599     50595     50596     50595     50597
     50595     50598     50599     50600     50601     50605     50601     50602
     50601     50603     50601     50604     50605     50606     50607     50611
     50607     50608     50607     50609     50607     50610     50611     50612
     50613     50617     50613     50614     50613     50615     50613     50616
     50617     50618     50619     50623     50619     50620     50619     50621
     50619     50622     50623     50624     50625     50629     50625     50626
     50625     50627     50625     50628     50629     50630     50631     50635
     50631     50632     50631     50633     50631     50634     50635     50636
     50637     50641     50637     50638     50637     50639     50637     50640
     50641     50642     50643     50647     50643     50644     50643     50645
     50643     50646     50647     50648     50649     50653     50649     50650
     50649     50651     50649     50652     50653     50654     50655     50659
     50655     50656     50655     50657     50655     50658     50659     50660
     50661     50665     50661     50662     50661     50663     50661     50664
     50665     50666     50667     50671     50667     50668     50667     50669
     50667     50670     50671     50672     50673     50677     50673     50674
     50673     50675     50673     50676     50677     50678     50679     50683
     50679     50680     50679     50681     50679     50682     50683     50684
     50685     50689     50685     50686     50685     50687     50685     50688
     50689     50690     50691     50695     50691     50692     50691     50693
     50691     50694     50695     50696     50697     50701     50697     50698
     50697     50699     50697     50700     50701     50702     50703     50707
     50703     50704     50703     50705     50703     50706     50707     50708
     50709     50713     50709     50710     50709     50711     50709     50712
     50713     50714     50715     50719     50715     50716     50715     50717
     50715     50718     50719     50720     50721     50725     50721     50722
     50721     50723     50721     50724     50725     50726     50727     50731
     50727     50728     50727     50729     50727     50730     50731     50732
     50733     50737     50733     50734     50733     50735     50733     50736
     50737     50738     50739     50743     50739     50740     50739     50741
     50739     50742     50743     50744     50745     50749     50745     50746
     50745     50747     50745     50748     50749     50750     50751     50755
     50751     50752     50751     50753     50751     50754     50755     50756
     50757     50761     50757     50758     50757     50759     50757     50760
     50761     50762     50763     50767     50763     50764     50763     50765
     50763     50766     50767     50768     50769     50773     50769     50770
     50769     50771     50769     50772     50773     50774     50775     50779
     50775     50776     50775     50777     50775     50778     50779     50780
     50781     50785     50781     50782     50781     50783     50781     50784
     50785     50786     50787     50791     50787     50788     50787     50789
     50787     50790     50791     50792     50793     50797     50793     50794
     50793     50795     50793     50796     50797     50798     50799     50803
     50799     50800     50799     50801     50799     50802     50803     50804
     50805     50809     50805     50806     50805     50807     50805     50808
     50809     50810     50811     50815     50811     50812     50811     50813
     50811     50814     50815     50816     50817     50821     50817     50818
     50817     50819     50817     50820     50821     50822     50823     50827
     50823     50824     50823     50825     50823     50826     50827     50828
     50829     50833     50829     50830     50829     50831     50829     50832
     50833     50834     50835     50839     50835     50836     50835     50837
     50835     50838     50839     50840     50841     50845     50841     50842
     50841     50843     50841     50844     50845     50846     50847     50851
     50847     50848     50847     50849     50847     50850     50851     50852
     50853     50857     50853     50854     50853     50855     50853     50856
     50857     50858     50859     50863     50859     50860     50859     50861
     50859     50862     50863     50864     50865     50869     50865     50866
     50865     50867     50865     50868     50869     50870     50871     50875
     50871     50872     50871     50873     50871     50874     50875     50876
     50877     50881     50877     50878     50877     50879     50877     50880
     50881     50882     50883     50887     50883     50884     50883     50885
     50883     50886     50887     50888     50889     50893     50889     50890
     50889     50891     50889     50892     50893     50894     50895     50899
     50895     50896     50895     50897     50895     50898     50899     50900
     50901     50905     50901     50902     50901     50903     50901     50904
     50905     50906     50907     50911     50907     50908     50907     50909
     50907     50910     50911     50912     50913     50917     50913     50914
     50913     50915     50913     50916     50917     50918     50919     50923
     50919     50920     50919     50921     50919     50922     50923     50924
     50925     50929     50925     50926     50925     50927     50925     50928
     50929     50930     50931     50935     50931     50932     50931     50933
     50931     50934     50935     50936     50937     50941     50937     50938
     50937     50939     50937     50940     50941     50942     50943     50947
     50943     50944     50943     50945     50943     50946     50947     50948
     50949     50953     50949     50950     50949     50951     50949     50952
     50953     50954     50955     50959     50955     50956     50955     50957
     50955     50958     50959     50960     50961     50965     50961     50962
     50961     50963     50961     50964     50965     50966     50967     50971
     50967     50968     50967     50969     50967     50970     50971     50972
     50973     50977     50973     50974     50973     50975     50973     50976
     50977     50978     50979     50983     50979     50980     50979     50981
     50979     50982     50983     50984     50985     50989     50985     50986
     50985     50987     50985     50988     50989     50990     50991     50995
     50991     50992     50991     50993     50991     50994     50995     50996
     50997     51001     50997     50998     50997     50999     50997     51000
     51001     51002     51003     51007     51003     51004     51003     51005
     51003     51006     51007     51008     51009     51013     51009     51010
     51009     51011     51009     51012     51013     51014     51015     51019
     51015     51016     51015     51017     51015     51018     51019     51020
     51021     51025     51021     51022     51021     51023     51021     51024
     51025     51026     51027     51031     51027     51028     51027     51029
     51027     51030     51031     51032     51033     51037     51033     51034
     51033     51035     51033     51036     51037     51038     51039     51043
     51039     51040     51039     51041     51039     51042     51043     51044
     51045     51049     51045     51046     51045     51047     51045     51048
     51049     51050     51051     51055     51051     51052     51051     51053
     51051     51054     51055     51056     51057     51061     51057     51058
     51057     51059     51057     51060     51061     51062     51063     51067
     51063     51064     51063     51065     51063     51066     51067     51068
     51069     51073     51069     51070     51069     51071     51069     51072
     51073     51074     51075     51079     51075     51076     51075     51077
     51075     51078     51079     51080     51081     51085     51081     51082
     51081     51083     51081     51084     51085     51086     51087     51091
     51087     51088     51087     51089     51087     51090     51091     51092
     51093     51097     51093     51094     51093     51095     51093     51096
     51097     51098     51099     51103     51099     51100     51099     51101
     51099     51102     51103     51104     51105     51109     51105     51106
     51105     51107     51105     51108     51109     51110     51111     51115
     51111     51112     51111     51113     51111     51114     51115     51116
     51117     51121     51117     51118     51117     51119     51117     51120
     51121     51122     51123     51127     51123     51124     51123     51125
     51123     51126     51127     51128     51129     51133     51129     51130
     51129     51131     51129     51132     51133     51134     51135     51139
     51135     51136     51135     51137     51135     51138     51139     51140
     51141     51145     51141     51142     51141     51143     51141     51144
     51145     51146     51147     51151     51147     51148     51147     51149
     51147     51150     51151     51152     51153     51157     51153     51154
     51153     51155     51153     51156     51157     51158     51159     51163
     51159     51160     51159     51161     51159     51162     51163     51164
     51165     51169     51165     51166     51165     51167     51165     51168
     51169     51170     51171     51175     51171     51172     51171     51173
     51171     51174     51175     51176     51177     51181     51177     51178
     51177     51179     51177     51180     51181     51182     51183     51187
     51183     51184     51183     51185     51183     51186     51187     51188
     51189     51193     51189     51190     51189     51191     51189     51192
     51193     51194     51195     51199     51195     51196     51195     51197
     51195     51198     51199     51200     51201     51205     51201     51202
     51201     51203     51201     51204     51205     51206     51207     51211
     51207     51208     51207     51209     51207     51210     51211     51212
     51213     51217     51213     51214     51213     51215     51213     51216
     51217     51218     51219     51223     51219     51220     51219     51221
     51219     51222     51223     51224     51225     51229     51225     51226
     51225     51227     51225     51228     51229     51230     51231     51235
     51231     51232     51231     51233     51231     51234     51235     51236
     51237     51241     51237     51238     51237     51239     51237     51240
     51241     51242     51243     51247     51243     51244     51243     51245
     51243     51246     51247     51248     51249     51253     51249     51250
     51249     51251     51249     51252     51253     51254     51255     51259
     51255     51256     51255     51257     51255     51258     51259     51260
     51261     51265     51261     51262     51261     51263     51261     51264
     51265     51266     51267     51271     51267     51268     51267     51269
     51267     51270     51271     51272     51273     51277     51273     51274
     51273     51275     51273     51276     51277     51278     51279     51283
     51279     51280     51279     51281     51279     51282     51283     51284
     51285     51289     51285     51286     51285     51287     51285     51288
     51289     51290     51291     51295     51291     51292     51291     51293
     51291     51294     51295     51296     51297     51301     51297     51298
     51297     51299     51297     51300     51301     51302     51303     51307
     51303     51304     51303     51305     51303     51306     51307     51308
     51309     51313     51309     51310     51309     51311     51309     51312
     51313     51314     51315     51319     51315     51316     51315     51317
     51315     51318     51319     51320     51321     51325     51321     51322
     51321     51323     51321     51324     51325     51326     51327     51331
     51327     51328     51327     51329     51327     51330     51331     51332
     51333     51337     51333     51334     51333     51335     51333     51336
     51337     51338     51339     51343     51339     51340     51339     51341
     51339     51342     51343     51344     51345     51349     51345     51346
     51345     51347     51345     51348     51349     51350     51351     51355
     51351     51352     51351     51353     51351     51354     51355     51356
     51357     51361     51357     51358     51357     51359     51357     51360
     51361     51362     51363     51367     51363     51364     51363     51365
     51363     51366     51367     51368     51369     51373     51369     51370
     51369     51371     51369     51372     51373     51374     51375     51379
     51375     51376     51375     51377     51375     51378     51379     51380
     51381     51385     51381     51382     51381     51383     51381     51384
     51385     51386     51387     51391     51387     51388     51387     51389
     51387     51390     51391     51392     51393     51397     51393     51394
     51393     51395     51393     51396     51397     51398     51399     51403
     51399     51400     51399     51401     51399     51402     51403     51404
     51405     51409     51405     51406     51405     51407     51405     51408
     51409     51410     51411     51415     51411     51412     51411     51413
     51411     51414     51415     51416     51417     51421     51417     51418
     51417     51419     51417     51420     51421     51422     51423     51427
     51423     51424     51423     51425     51423     51426     51427     51428
     51429     51433     51429     51430     51429     51431     51429     51432
     51433     51434     51435     51439     51435     51436     51435     51437
     51435     51438     51439     51440     51441     51445     51441     51442
     51441     51443     51441     51444     51445     51446     51447     51451
     51447     51448     51447     51449     51447     51450     51451     51452
     51453     51457     51453     51454     51453     51455     51453     51456
     51457     51458     51459     51463     51459     51460     51459     51461
     51459     51462     51463     51464     51465     51469     51465     51466
     51465     51467     51465     51468     51469     51470     51471     51475
     51471     51472     51471     51473     51471     51474     51475     51476
     51477     51481     51477     51478     51477     51479     51477     51480
     51481     51482     51483     51487     51483     51484     51483     51485
     51483     51486     51487     51488     51489     51493     51489     51490
     51489     51491     51489     51492     51493     51494     51495     51499
     51495     51496     51495     51497     51495     51498     51499     51500
     51501     51505     51501     51502     51501     51503     51501     51504
     51505     51506     51507     51511     51507     51508     51507     51509
     51507     51510     51511     51512     51513     51517     51513     51514
     51513     51515     51513     51516     51517     51518     51519     51523
     51519     51520     51519     51521     51519     51522     51523     51524
     51525     51529     51525     51526     51525     51527     51525     51528
     51529     51530     51531     51535     51531     51532     51531     51533
     51531     51534     51535     51536     51537     51541     51537     51538
     51537     51539     51537     51540     51541     51542     51543     51547
     51543     51544     51543     51545     51543     51546     51547     51548
     51549     51553     51549     51550     51549     51551     51549     51552
     51553     51554     51555     51559     51555     51556     51555     51557
     51555     51558     51559     51560     51561     51565     51561     51562
     51561     51563     51561     51564     51565     51566     51567     51571
     51567     51568     51567     51569     51567     51570     51571     51572
     51573     51577     51573     51574     51573     51575     51573     51576
     51577     51578     51579     51583     51579     51580     51579     51581
     51579     51582     51583     51584     51585     51589     51585     51586
     51585     51587     51585     51588     51589     51590     51591     51595
     51591     51592     51591     51593     51591     51594     51595     51596
     51597     51601     51597     51598     51597     51599     51597     51600
     51601     51602     51603     51607     51603     51604     51603     51605
     51603     51606     51607     51608     51609     51613     51609     51610
     51609     51611     51609     51612     51613     51614     51615     51619
     51615     51616     51615     51617     51615     51618     51619     51620
     51621     51625     51621     51622     51621     51623     51621     51624
     51625     51626     51627     51631     51627     51628     51627     51629
     51627     51630     51631     51632     51633     51637     51633     51634
     51633     51635     51633     51636     51637     51638     51639     51643
     51639     51640     51639     51641     51639     51642     51643     51644
     51645     51649     51645     51646     51645     51647     51645     51648
     51649     51650     51651     51655     51651     51652     51651     51653
     51651     51654     51655     51656     51657     51661     51657     51658
     51657     51659     51657     51660     51661     51662     51663     51667
     51663     51664     51663     51665     51663     51666     51667     51668
     51669     51673     51669     51670     51669     51671     51669     51672
     51673     51674     51675     51679     51675     51676     51675     51677
     51675     51678     51679     51680     51681     51685     51681     51682
     51681     51683     51681     51684     51685     51686     51687     51691
     51687     51688     51687     51689     51687     51690     51691     51692
     51693     51697     51693     51694     51693     51695     51693     51696
     51697     51698     51699     51703     51699     51700     51699     51701
     51699     51702     51703     51704     51705     51709     51705     51706
     51705     51707     51705     51708     51709     51710     51711     51715
     51711     51712     51711     51713     51711     51714     51715     51716
     51717     51721     51717     51718     51717     51719     51717     51720
     51721     51722     51723     51727     51723     51724     51723     51725
     51723     51726     51727     51728     51729     51733     51729     51730
     51729     51731     51729     51732     51733     51734     51735     51739
     51735     51736     51735     51737     51735     51738     51739     51740
     51741     51745     51741     51742     51741     51743     51741     51744
     51745     51746     51747     51751     51747     51748     51747     51749
     51747     51750     51751     51752     51753     51757     51753     51754
     51753     51755     51753     51756     51757     51758     51759     51763
     51759     51760     51759     51761     51759     51762     51763     51764
     51765     51769     51765     51766     51765     51767     51765     51768
     51769     51770     51771     51775     51771     51772     51771     51773
     51771     51774     51775     51776     51777     51781     51777     51778
     51777     51779     51777     51780     51781     51782     51783     51787
     51783     51784     51783     51785     51783     51786     51787     51788
     51789     51793     51789     51790     51789     51791     51789     51792
     51793     51794     51795     51799     51795     51796     51795     51797
     51795     51798     51799     51800     51801     51805     51801     51802
     51801     51803     51801     51804     51805     51806     51807     51811
     51807     51808     51807     51809     51807     51810     51811     51812
     51813     51817     51813     51814     51813     51815     51813     51816
     51817     51818     51819     51823     51819     51820     51819     51821
     51819     51822     51823     51824     51825     51829     51825     51826
     51825     51827     51825     51828     51829     51830     51831     51835
     51831     51832     51831     51833     51831     51834     51835     51836
     51837     51841     51837     51838     51837     51839     51837     51840
     51841     51842     51843     51847     51843     51844     51843     51845
     51843     51846     51847     51848     51849     51853     51849     51850
     51849     51851     51849     51852     51853     51854     51855     51859
     51855     51856     51855     51857     51855     51858     51859     51860
     51861     51865     51861     51862     51861     51863     51861     51864
     51865     51866     51867     51871     51867     51868     51867     51869
     51867     51870     51871     51872     51873     51877     51873     51874
     51873     51875     51873     51876     51877     51878     51879     51883
     51879     51880     51879     51881     51879     51882     51883     51884
     51885     51889     51885     51886     51885     51887     51885     51888
     51889     51890     51891     51895     51891     51892     51891     51893
     51891     51894     51895     51896     51897     51901     51897     51898
     51897     51899     51897     51900     51901     51902     51903     51907
     51903     51904     51903     51905     51903     51906     51907     51908
     51909     51913     51909     51910     51909     51911     51909     51912
     51913     51914     51915     51919     51915     51916     51915     51917
     51915     51918     51919     51920     51921     51925     51921     51922
     51921     51923     51921     51924     51925     51926     51927     51931
     51927     51928     51927     51929     51927     51930     51931     51932
     51933     51937     51933     51934     51933     51935     51933     51936
     51937     51938     51939     51943     51939     51940     51939     51941
     51939     51942     51943     51944     51945     51949     51945     51946
     51945     51947     51945     51948     51949     51950     51951     51955
     51951     51952     51951     51953     51951     51954     51955     51956
     51957     51961     51957     51958     51957     51959     51957     51960
     51961     51962     51963     51967     51963     51964     51963     51965
     51963     51966     51967     51968     51969     51973     51969     51970
     51969     51971     51969     51972     51973     51974     51975     51979
     51975     51976     51975     51977     51975     51978     51979     51980
     51981     51985     51981     51982     51981     51983     51981     51984
     51985     51986     51987     51991     51987     51988     51987     51989
     51987     51990     51991     51992     51993     51997     51993     51994
     51993     51995     51993     51996     51997     51998     51999     52003
     51999     52000     51999     52001     51999     52002     52003     52004
     52005     52009     52005     52006     52005     52007     52005     52008
     52009     52010     52011     52015     52011     52012     52011     52013
     52011     52014     52015     52016     52017     52021     52017     52018
     52017     52019     52017     52020     52021     52022     52023     52027
     52023     52024     52023     52025     52023     52026     52027     52028
     52029     52033     52029     52030     52029     52031     52029     52032
     52033     52034     52035     52039     52035     52036     52035     52037
     52035     52038     52039     52040     52041     52045     52041     52042
     52041     52043     52041     52044     52045     52046     52047     52051
     52047     52048     52047     52049     52047     52050     52051     52052
     52053     52057     52053     52054     52053     52055     52053     52056
     52057     52058     52059     52063     52059     52060     52059     52061
     52059     52062     52063     52064     52065     52069     52065     52066
     52065     52067     52065     52068     52069     52070     52071     52075
     52071     52072     52071     52073     52071     52074     52075     52076
     52077     52081     52077     52078     52077     52079     52077     52080
     52081     52082     52083     52087     52083     52084     52083     52085
     52083     52086     52087     52088     52089     52093     52089     52090
     52089     52091     52089     52092     52093     52094     52095     52099
     52095     52096     52095     52097     52095     52098     52099     52100
     52101     52105     52101     52102     52101     52103     52101     52104
     52105     52106     52107     52111     52107     52108     52107     52109
     52107     52110     52111     52112     52113     52117     52113     52114
     52113     52115     52113     52116     52117     52118     52119     52123
     52119     52120     52119     52121     52119     52122     52123     52124
     52125     52129     52125     52126     52125     52127     52125     52128
     52129     52130     52131     52135     52131     52132     52131     52133
     52131     52134     52135     52136     52137     52141     52137     52138
     52137     52139     52137     52140     52141     52142     52143     52147
     52143     52144     52143     52145     52143     52146     52147     52148
     52149     52153     52149     52150     52149     52151     52149     52152
     52153     52154     52155     52159     52155     52156     52155     52157
     52155     52158     52159     52160     52161     52165     52161     52162
     52161     52163     52161     52164     52165     52166     52167     52171
     52167     52168     52167     52169     52167     52170     52171     52172
     52173     52177     52173     52174     52173     52175     52173     52176
     52177     52178     52179     52183     52179     52180     52179     52181
     52179     52182     52183     52184     52185     52189     52185     52186
     52185     52187     52185     52188     52189     52190     52191     52195
     52191     52192     52191     52193     52191     52194     52195     52196
     52197     52201     52197     52198     52197     52199     52197     52200
     52201     52202     52203     52207     52203     52204     52203     52205
     52203     52206     52207     52208     52209     52213     52209     52210
     52209     52211     52209     52212     52213     52214     52215     52219
     52215     52216     52215     52217     52215     52218     52219     52220
     52221     52225     52221     52222     52221     52223     52221     52224
     52225     52226     52227     52231     52227     52228     52227     52229
     52227     52230     52231     52232     52233     52237     52233     52234
     52233     52235     52233     52236     52237     52238     52239     52243
     52239     52240     52239     52241     52239     52242     52243     52244
     52245     52249     52245     52246     52245     52247     52245     52248
     52249     52250     52251     52255     52251     52252     52251     52253
     52251     52254     52255     52256     52257     52261     52257     52258
     52257     52259     52257     52260     52261     52262     52263     52267
     52263     52264     52263     52265     52263     52266     52267     52268
     52269     52273     52269     52270     52269     52271     52269     52272
     52273     52274     52275     52279     52275     52276     52275     52277
     52275     52278     52279     52280     52281     52285     52281     52282
     52281     52283     52281     52284     52285     52286     52287     52291
     52287     52288     52287     52289     52287     52290     52291     52292
     52293     52297     52293     52294     52293     52295     52293     52296
     52297     52298     52299     52303     52299     52300     52299     52301
     52299     52302     52303     52304     52305     52309     52305     52306
     52305     52307     52305     52308     52309     52310     52311     52315
     52311     52312     52311     52313     52311     52314     52315     52316
     52317     52321     52317     52318     52317     52319     52317     52320
     52321     52322     52323     52327     52323     52324     52323     52325
     52323     52326     52327     52328     52329     52333     52329     52330
     52329     52331     52329     52332     52333     52334     52335     52339
     52335     52336     52335     52337     52335     52338     52339     52340
     52341     52345     52341     52342     52341     52343     52341     52344
     52345     52346     52347     52351     52347     52348     52347     52349
     52347     52350     52351     52352     52353     52357     52353     52354
     52353     52355     52353     52356     52357     52358     52359     52363
     52359     52360     52359     52361     52359     52362     52363     52364
     52365     52369     52365     52366     52365     52367     52365     52368
     52369     52370     52371     52375     52371     52372     52371     52373
     52371     52374     52375     52376     52377     52381     52377     52378
     52377     52379     52377     52380     52381     52382     52383     52387
     52383     52384     52383     52385     52383     52386     52387     52388
     52389     52393     52389     52390     52389     52391     52389     52392
     52393     52394     52395     52399     52395     52396     52395     52397
     52395     52398     52399     52400     52401     52405     52401     52402
     52401     52403     52401     52404     52405     52406     52407     52411
     52407     52408     52407     52409     52407     52410     52411     52412
     52413     52417     52413     52414     52413     52415     52413     52416
     52417     52418     52419     52423     52419     52420     52419     52421
     52419     52422     52423     52424     52425     52429     52425     52426
     52425     52427     52425     52428     52429     52430     52431     52435
     52431     52432     52431     52433     52431     52434     52435     52436
     52437     52441     52437     52438     52437     52439     52437     52440
     52441     52442     52443     52447     52443     52444     52443     52445
     52443     52446     52447     52448     52449     52453     52449     52450
     52449     52451     52449     52452     52453     52454     52455     52459
     52455     52456     52455     52457     52455     52458     52459     52460
     52461     52465     52461     52462     52461     52463     52461     52464
     52465     52466     52467     52471     52467     52468     52467     52469
     52467     52470     52471     52472     52473     52477     52473     52474
     52473     52475     52473     52476     52477     52478     52479     52483
     52479     52480     52479     52481     52479     52482     52483     52484
     52485     52489     52485     52486     52485     52487     52485     52488
     52489     52490     52491     52495     52491     52492     52491     52493
     52491     52494     52495     52496     52497     52501     52497     52498
     52497     52499     52497     52500     52501     52502     52503     52507
     52503     52504     52503     52505     52503     52506     52507     52508
     52509     52513     52509     52510     52509     52511     52509     52512
     52513     52514     52515     52519     52515     52516     52515     52517
     52515     52518     52519     52520     52521     52525     52521     52522
     52521     52523     52521     52524     52525     52526     52527     52531
     52527     52528     52527     52529     52527     52530     52531     52532
     52533     52537     52533     52534     52533     52535     52533     52536
     52537     52538     52539     52543     52539     52540     52539     52541
     52539     52542     52543     52544     52545     52549     52545     52546
     52545     52547     52545     52548     52549     52550     52551     52555
     52551     52552     52551     52553     52551     52554     52555     52556
     52557     52561     52557     52558     52557     52559     52557     52560
     52561     52562     52563     52567     52563     52564     52563     52565
     52563     52566     52567     52568     52569     52573     52569     52570
     52569     52571     52569     52572     52573     52574     52575     52579
     52575     52576     52575     52577     52575     52578     52579     52580
     52581     52585     52581     52582     52581     52583     52581     52584
     52585     52586     52587     52591     52587     52588     52587     52589
     52587     52590     52591     52592     52593     52597     52593     52594
     52593     52595     52593     52596     52597     52598     52599     52603
     52599     52600     52599     52601     52599     52602     52603     52604
     52605     52609     52605     52606     52605     52607     52605     52608
     52609     52610     52611     52615     52611     52612     52611     52613
     52611     52614     52615     52616     52617     52621     52617     52618
     52617     52619     52617     52620     52621     52622     52623     52627
     52623     52624     52623     52625     52623     52626     52627     52628
     52629     52633     52629     52630     52629     52631     52629     52632
     52633     52634     52635     52639     52635     52636     52635     52637
     52635     52638     52639     52640     52641     52645     52641     52642
     52641     52643     52641     52644     52645     52646     52647     52651
     52647     52648     52647     52649     52647     52650     52651     52652
     52653     52657     52653     52654     52653     52655     52653     52656
     52657     52658     52659     52663     52659     52660     52659     52661
     52659     52662     52663     52664     52665     52669     52665     52666
     52665     52667     52665     52668     52669     52670     52671     52675
     52671     52672     52671     52673     52671     52674     52675     52676
     52677     52681     52677     52678     52677     52679     52677     52680
     52681     52682     52683     52687     52683     52684     52683     52685
     52683     52686     52687     52688     52689     52693     52689     52690
     52689     52691     52689     52692     52693     52694     52695     52699
     52695     52696     52695     52697     52695     52698     52699     52700
     52701     52705     52701     52702     52701     52703     52701     52704
     52705     52706     52707     52711     52707     52708     52707     52709
     52707     52710     52711     52712     52713     52717     52713     52714
     52713     52715     52713     52716     52717     52718     52719     52723
     52719     52720     52719     52721     52719     52722     52723     52724
     52725     52729     52725     52726     52725     52727     52725     52728
     52729     52730     52731     52735     52731     52732     52731     52733
     52731     52734     52735     52736     52737     52741     52737     52738
     52737     52739     52737     52740     52741     52742     52743     52747
     52743     52744     52743     52745     52743     52746     52747     52748
     52749     52753     52749     52750     52749     52751     52749     52752
     52753     52754     52755     52759     52755     52756     52755     52757
     52755     52758     52759     52760     52761     52765     52761     52762
     52761     52763     52761     52764     52765     52766     52767     52771
     52767     52768     52767     52769     52767     52770     52771     52772
     52773     52777     52773     52774     52773     52775     52773     52776
     52777     52778     52779     52783     52779     52780     52779     52781
     52779     52782     52783     52784     52785     52789     52785     52786
     52785     52787     52785     52788     52789     52790     52791     52795
     52791     52792     52791     52793     52791     52794     52795     52796
     52797     52801     52797     52798     52797     52799     52797     52800
     52801     52802     52803     52807     52803     52804     52803     52805
     52803     52806     52807     52808     52809     52813     52809     52810
     52809     52811     52809     52812     52813     52814     52815     52819
     52815     52816     52815     52817     52815     52818     52819     52820
     52821     52825     52821     52822     52821     52823     52821     52824
     52825     52826     52827     52831     52827     52828     52827     52829
     52827     52830     52831     52832     52833     52837     52833     52834
     52833     52835     52833     52836     52837     52838     52839     52843
     52839     52840     52839     52841     52839     52842     52843     52844
     52845     52849     52845     52846     52845     52847     52845     52848
     52849     52850     52851     52855     52851     52852     52851     52853
     52851     52854     52855     52856     52857     52861     52857     52858
     52857     52859     52857     52860     52861     52862     52863     52867
     52863     52864     52863     52865     52863     52866     52867     52868
     52869     52873     52869     52870     52869     52871     52869     52872
     52873     52874     52875     52879     52875     52876     52875     52877
     52875     52878     52879     52880     52881     52885     52881     52882
     52881     52883     52881     52884     52885     52886     52887     52891
     52887     52888     52887     52889     52887     52890     52891     52892
     52893     52897     52893     52894     52893     52895     52893     52896
     52897     52898     52899     52903     52899     52900     52899     52901
     52899     52902     52903     52904     52905     52909     52905     52906
     52905     52907     52905     52908     52909     52910     52911     52915
     52911     52912     52911     52913     52911     52914     52915     52916
     52917     52921     52917     52918     52917     52919     52917     52920
     52921     52922     52923     52927     52923     52924     52923     52925
     52923     52926     52927     52928     52929     52933     52929     52930
     52929     52931     52929     52932     52933     52934     52935     52939
     52935     52936     52935     52937     52935     52938     52939     52940
     52941     52945     52941     52942     52941     52943     52941     52944
     52945     52946     52947     52951     52947     52948     52947     52949
     52947     52950     52951     52952     52953     52957     52953     52954
     52953     52955     52953     52956     52957     52958     52959     52963
     52959     52960     52959     52961     52959     52962     52963     52964
     52965     52969     52965     52966     52965     52967     52965     52968
     52969     52970     52971     52975     52971     52972     52971     52973
     52971     52974     52975     52976     52977     52981     52977     52978
     52977     52979     52977     52980     52981     52982     52983     52987
     52983     52984     52983     52985     52983     52986     52987     52988
     52989     52993     52989     52990     52989     52991     52989     52992
     52993     52994     52995     52999     52995     52996     52995     52997
     52995     52998     52999     53000     53001     53005     53001     53002
     53001     53003     53001     53004     53005     53006     53007     53011
     53007     53008     53007     53009     53007     53010     53011     53012
     53013     53017     53013     53014     53013     53015     53013     53016
     53017     53018     53019     53023     53019     53020     53019     53021
     53019     53022     53023     53024     53025     53029     53025     53026
     53025     53027     53025     53028     53029     53030     53031     53035
     53031     53032     53031     53033     53031     53034     53035     53036
     53037     53041     53037     53038     53037     53039     53037     53040
     53041     53042     53043     53047     53043     53044     53043     53045
     53043     53046     53047     53048     53049     53053     53049     53050
     53049     53051     53049     53052     53053     53054     53055     53059
     53055     53056     53055     53057     53055     53058     53059     53060
     53061     53065     53061     53062     53061     53063     53061     53064
     53065     53066     53067     53071     53067     53068     53067     53069
     53067     53070     53071     53072     53073     53077     53073     53074
     53073     53075     53073     53076     53077     53078     53079     53083
     53079     53080     53079     53081     53079     53082     53083     53084
     53085     53089     53085     53086     53085     53087     53085     53088
     53089     53090     53091     53095     53091     53092     53091     53093
     53091     53094     53095     53096     53097     53101     53097     53098
     53097     53099     53097     53100     53101     53102     53103     53107
     53103     53104     53103     53105     53103     53106     53107     53108
     53109     53113     53109     53110     53109     53111     53109     53112
     53113     53114     53115     53119     53115     53116     53115     53117
     53115     53118     53119     53120     53121     53125     53121     53122
     53121     53123     53121     53124     53125     53126     53127     53131
     53127     53128     53127     53129     53127     53130     53131     53132
     53133     53137     53133     53134     53133     53135     53133     53136
     53137     53138     53139     53143     53139     53140     53139     53141
     53139     53142     53143     53144     53145     53149     53145     53146
     53145     53147     53145     53148     53149     53150     53151     53155
     53151     53152     53151     53153     53151     53154     53155     53156
     53157     53161     53157     53158     53157     53159     53157     53160
     53161     53162     53163     53167     53163     53164     53163     53165
     53163     53166     53167     53168     53169     53173     53169     53170
     53169     53171     53169     53172     53173     53174     53175     53179
     53175     53176     53175     53177     53175     53178     53179     53180
     53181     53185     53181     53182     53181     53183     53181     53184
     53185     53186     53187     53191     53187     53188     53187     53189
     53187     53190     53191     53192     53193     53197     53193     53194
     53193     53195     53193     53196     53197     53198     53199     53203
     53199     53200     53199     53201     53199     53202     53203     53204
     53205     53209     53205     53206     53205     53207     53205     53208
     53209     53210     53211     53215     53211     53212     53211     53213
     53211     53214     53215     53216     53217     53221     53217     53218
     53217     53219     53217     53220     53221     53222     53223     53227
     53223     53224     53223     53225     53223     53226     53227     53228
     53229     53233     53229     53230     53229     53231     53229     53232
     53233     53234     53235     53239     53235     53236     53235     53237
     53235     53238     53239     53240     53241     53245     53241     53242
     53241     53243     53241     53244     53245     53246     53247     53251
     53247     53248     53247     53249     53247     53250     53251     53252
     53253     53257     53253     53254     53253     53255     53253     53256
     53257     53258     53259     53263     53259     53260     53259     53261
     53259     53262     53263     53264     53265     53269     53265     53266
     53265     53267     53265     53268     53269     53270     53271     53275
     53271     53272     53271     53273     53271     53274     53275     53276
     53277     53281     53277     53278     53277     53279     53277     53280
     53281     53282     53283     53287     53283     53284     53283     53285
     53283     53286     53287     53288     53289     53293     53289     53290
     53289     53291     53289     53292     53293     53294     53295     53299
     53295     53296     53295     53297     53295     53298     53299     53300
     53301     53305     53301     53302     53301     53303     53301     53304
     53305     53306     53307     53311     53307     53308     53307     53309
     53307     53310     53311     53312     53313     53317     53313     53314
     53313     53315     53313     53316     53317     53318     53319     53323
     53319     53320     53319     53321     53319     53322     53323     53324
     53325     53329     53325     53326     53325     53327     53325     53328
     53329     53330     53331     53335     53331     53332     53331     53333
     53331     53334     53335     53336     53337     53341     53337     53338
     53337     53339     53337     53340     53341     53342     53343     53347
     53343     53344     53343     53345     53343     53346     53347     53348
     53349     53353     53349     53350     53349     53351     53349     53352
     53353     53354     53355     53359     53355     53356     53355     53357
     53355     53358     53359     53360     53361     53365     53361     53362
     53361     53363     53361     53364     53365     53366     53367     53371
     53367     53368     53367     53369     53367     53370     53371     53372
     53373     53377     53373     53374     53373     53375     53373     53376
     53377     53378     53379     53383     53379     53380     53379     53381
     53379     53382     53383     53384     53385     53389     53385     53386
     53385     53387     53385     53388     53389     53390     53391     53395
     53391     53392     53391     53393     53391     53394     53395     53396
     53397     53401     53397     53398     53397     53399     53397     53400
     53401     53402     53403     53407     53403     53404     53403     53405
     53403     53406     53407     53408     53409     53413     53409     53410
     53409     53411     53409     53412     53413     53414     53415     53419
     53415     53416     53415     53417     53415     53418     53419     53420
     53421     53425     53421     53422     53421     53423     53421     53424
     53425     53426     53427     53431     53427     53428     53427     53429
     53427     53430     53431     53432     53433     53437     53433     53434
     53433     53435     53433     53436     53437     53438     53439     53443
     53439     53440     53439     53441     53439     53442     53443     53444
     53445     53449     53445     53446     53445     53447     53445     53448
     53449     53450     53451     53455     53451     53452     53451     53453
     53451     53454     53455     53456     53457     53461     53457     53458
     53457     53459     53457     53460     53461     53462     53463     53467
     53463     53464     53463     53465     53463     53466     53467     53468
     53469     53473     53469     53470     53469     53471     53469     53472
     53473     53474     53475     53479     53475     53476     53475     53477
     53475     53478     53479     53480     53481     53485     53481     53482
     53481     53483     53481     53484     53485     53486     53487     53491
     53487     53488     53487     53489     53487     53490     53491     53492
     53493     53497     53493     53494     53493     53495     53493     53496
     53497     53498     53499     53503     53499     53500     53499     53501
     53499     53502     53503     53504     53505     53509     53505     53506
     53505     53507     53505     53508     53509     53510     53511     53515
     53511     53512     53511     53513     53511     53514     53515     53516
     53517     53521     53517     53518     53517     53519     53517     53520
     53521     53522     53523     53527     53523     53524     53523     53525
     53523     53526     53527     53528     53529     53533     53529     53530
     53529     53531     53529     53532     53533     53534     53535     53539
     53535     53536     53535     53537     53535     53538     53539     53540
     53541     53545     53541     53542     53541     53543     53541     53544
     53545     53546     53547     53551     53547     53548     53547     53549
     53547     53550     53551     53552     53553     53557     53553     53554
     53553     53555     53553     53556     53557     53558     53559     53563
     53559     53560     53559     53561     53559     53562     53563     53564
     53565     53569     53565     53566     53565     53567     53565     53568
     53569     53570     53571     53575     53571     53572     53571     53573
     53571     53574     53575     53576     53577     53581     53577     53578
     53577     53579     53577     53580     53581     53582     53583     53587
     53583     53584     53583     53585     53583     53586     53587     53588
     53589     53593     53589     53590     53589     53591     53589     53592
     53593     53594     53595     53599     53595     53596     53595     53597
     53595     53598     53599     53600     53601     53605     53601     53602
     53601     53603     53601     53604     53605     53606     53607     53611
     53607     53608     53607     53609     53607     53610     53611     53612
     53613     53617     53613     53614     53613     53615     53613     53616
     53617     53618     53619     53623     53619     53620     53619     53621
     53619     53622     53623     53624     53625     53629     53625     53626
     53625     53627     53625     53628     53629     53630     53631     53635
     53631     53632     53631     53633     53631     53634     53635     53636
     53637     53641     53637     53638     53637     53639     53637     53640
     53641     53642     53643     53647     53643     53644     53643     53645
     53643     53646     53647     53648     53649     53653     53649     53650
     53649     53651     53649     53652     53653     53654     53655     53659
     53655     53656     53655     53657     53655     53658     53659     53660
     53661     53665     53661     53662     53661     53663     53661     53664
     53665     53666     53667     53671     53667     53668     53667     53669
     53667     53670     53671     53672     53673     53677     53673     53674
     53673     53675     53673     53676     53677     53678     53679     53683
     53679     53680     53679     53681     53679     53682     53683     53684
     53685     53689     53685     53686     53685     53687     53685     53688
     53689     53690     53691     53695     53691     53692     53691     53693
     53691     53694     53695     53696     53697     53701     53697     53698
     53697     53699     53697     53700     53701     53702     53703     53707
     53703     53704     53703     53705     53703     53706     53707     53708
     53709     53713     53709     53710     53709     53711     53709     53712
     53713     53714     53715     53719     53715     53716     53715     53717
     53715     53718     53719     53720     53721     53725     53721     53722
     53721     53723     53721     53724     53725     53726     53727     53731
     53727     53728     53727     53729     53727     53730     53731     53732
     53733     53737     53733     53734     53733     53735     53733     53736
     53737     53738     53739     53743     53739     53740     53739     53741
     53739     53742     53743     53744     53745     53749     53745     53746
     53745     53747     53745     53748     53749     53750     53751     53755
     53751     53752     53751     53753     53751     53754     53755     53756
     53757     53761     53757     53758     53757     53759     53757     53760
     53761     53762     53763     53767     53763     53764     53763     53765
     53763     53766     53767     53768     53769     53773     53769     53770
     53769     53771     53769     53772     53773     53774     53775     53779
     53775     53776     53775     53777     53775     53778     53779     53780
     53781     53785     53781     53782     53781     53783     53781     53784
     53785     53786     53787     53791     53787     53788     53787     53789
     53787     53790     53791     53792     53793     53797     53793     53794
     53793     53795     53793     53796     53797     53798     53799     53803
     53799     53800     53799     53801     53799     53802     53803     53804
     53805     53809     53805     53806     53805     53807     53805     53808
     53809     53810     53811     53815     53811     53812     53811     53813
     53811     53814     53815     53816     53817     53821     53817     53818
     53817     53819     53817     53820     53821     53822     53823     53827
     53823     53824     53823     53825     53823     53826     53827     53828
     53829     53833     53829     53830     53829     53831     53829     53832
     53833     53834     53835     53839     53835     53836     53835     53837
     53835     53838     53839     53840     53841     53845     53841     53842
     53841     53843     53841     53844     53845     53846     53847     53851
     53847     53848     53847     53849     53847     53850     53851     53852
     53853     53857     53853     53854     53853     53855     53853     53856
     53857     53858     53859     53863     53859     53860     53859     53861
     53859     53862     53863     53864     53865     53869     53865     53866
     53865     53867     53865     53868     53869     53870     53871     53875
     53871     53872     53871     53873     53871     53874     53875     53876
     53877     53881     53877     53878     53877     53879     53877     53880
     53881     53882     53883     53887     53883     53884     53883     53885
     53883     53886     53887     53888     53889     53893     53889     53890
     53889     53891     53889     53892     53893     53894     53895     53899
     53895     53896     53895     53897     53895     53898     53899     53900
     53901     53905     53901     53902     53901     53903     53901     53904
     53905     53906     53907     53911     53907     53908     53907     53909
     53907     53910     53911     53912     53913     53917     53913     53914
     53913     53915     53913     53916     53917     53918     53919     53923
     53919     53920     53919     53921     53919     53922     53923     53924
     53925     53929     53925     53926     53925     53927     53925     53928
     53929     53930     53931     53935     53931     53932     53931     53933
     53931     53934     53935     53936     53937     53941     53937     53938
     53937     53939     53937     53940     53941     53942     53943     53947
     53943     53944     53943     53945     53943     53946     53947     53948
     53949     53953     53949     53950     53949     53951     53949     53952
     53953     53954     53955     53959     53955     53956     53955     53957
     53955     53958     53959     53960     53961     53965     53961     53962
     53961     53963     53961     53964     53965     53966     53967     53971
     53967     53968     53967     53969     53967     53970     53971     53972
     53973     53977     53973     53974     53973     53975     53973     53976
     53977     53978     53979     53983     53979     53980     53979     53981
     53979     53982     53983     53984     53985     53989     53985     53986
     53985     53987     53985     53988     53989     53990     53991     53995
     53991     53992     53991     53993     53991     53994     53995     53996
     53997     54001     53997     53998     53997     53999     53997     54000
     54001     54002     54003     54007     54003     54004     54003     54005
     54003     54006     54007     54008     54009     54013     54009     54010
     54009     54011     54009     54012     54013     54014     54015     54019
     54015     54016     54015     54017     54015     54018     54019     54020
     54021     54025     54021     54022     54021     54023     54021     54024
     54025     54026     54027     54031     54027     54028     54027     54029
     54027     54030     54031     54032     54033     54037     54033     54034
     54033     54035     54033     54036     54037     54038     54039     54043
     54039     54040     54039     54041     54039     54042     54043     54044
     54045     54049     54045     54046     54045     54047     54045     54048
     54049     54050     54051     54055     54051     54052     54051     54053
     54051     54054     54055     54056     54057     54061     54057     54058
     54057     54059     54057     54060     54061     54062     54063     54067
     54063     54064     54063     54065     54063     54066     54067     54068
     54069     54073     54069     54070     54069     54071     54069     54072
     54073     54074     54075     54079     54075     54076     54075     54077
     54075     54078     54079     54080     54081     54085     54081     54082
     54081     54083     54081     54084     54085     54086     54087     54091
     54087     54088     54087     54089     54087     54090     54091     54092
     54093     54097     54093     54094     54093     54095     54093     54096
     54097     54098     54099     54103     54099     54100     54099     54101
     54099     54102     54103     54104     54105     54109     54105     54106
     54105     54107     54105     54108     54109     54110     54111     54115
     54111     54112     54111     54113     54111     54114     54115     54116
     54117     54121     54117     54118     54117     54119     54117     54120
     54121     54122     54123     54127     54123     54124     54123     54125
     54123     54126     54127     54128     54129     54133     54129     54130
     54129     54131     54129     54132     54133     54134     54135     54139
     54135     54136     54135     54137     54135     54138     54139     54140
     54141     54145     54141     54142     54141     54143     54141     54144
     54145     54146     54147     54151     54147     54148     54147     54149
     54147     54150     54151     54152     54153     54157     54153     54154
     54153     54155     54153     54156     54157     54158     54159     54163
     54159     54160     54159     54161     54159     54162     54163     54164
     54165     54169     54165     54166     54165     54167     54165     54168
     54169     54170     54171     54175     54171     54172     54171     54173
     54171     54174     54175     54176     54177     54181     54177     54178
     54177     54179     54177     54180     54181     54182     54183     54187
     54183     54184     54183     54185     54183     54186     54187     54188
     54189     54193     54189     54190     54189     54191     54189     54192
     54193     54194     54195     54199     54195     54196     54195     54197
     54195     54198     54199     54200     54201     54205     54201     54202
     54201     54203     54201     54204     54205     54206     54207     54211
     54207     54208     54207     54209     54207     54210     54211     54212
     54213     54217     54213     54214     54213     54215     54213     54216
     54217     54218     54219     54223     54219     54220     54219     54221
     54219     54222     54223     54224     54225     54229     54225     54226
     54225     54227     54225     54228     54229     54230     54231     54235
     54231     54232     54231     54233     54231     54234     54235     54236
     54237     54241     54237     54238     54237     54239     54237     54240
     54241     54242     54243     54247     54243     54244     54243     54245
     54243     54246     54247     54248     54249     54253     54249     54250
     54249     54251     54249     54252     54253     54254     54255     54259
     54255     54256     54255     54257     54255     54258     54259     54260
     54261     54265     54261     54262     54261     54263     54261     54264
     54265     54266     54267     54271     54267     54268     54267     54269
     54267     54270     54271     54272     54273     54277     54273     54274
     54273     54275     54273     54276     54277     54278     54279     54283
     54279     54280     54279     54281     54279     54282     54283     54284
     54285     54289     54285     54286     54285     54287     54285     54288
     54289     54290     54291     54295     54291     54292     54291     54293
     54291     54294     54295     54296     54297     54301     54297     54298
     54297     54299     54297     54300     54301     54302     54303     54307
     54303     54304     54303     54305     54303     54306     54307     54308
     54309     54313     54309     54310     54309     54311     54309     54312
     54313     54314     54315     54319     54315     54316     54315     54317
     54315     54318     54319     54320     54321     54325     54321     54322
     54321     54323     54321     54324     54325     54326     54327     54331
     54327     54328     54327     54329     54327     54330     54331     54332
     54333     54337     54333     54334     54333     54335     54333     54336
     54337     54338     54339     54343     54339     54340     54339     54341
     54339     54342     54343     54344     54345     54349     54345     54346
     54345     54347     54345     54348     54349     54350     54351     54355
     54351     54352     54351     54353     54351     54354     54355     54356
     54357     54361     54357     54358     54357     54359     54357     54360
     54361     54362     54363     54367     54363     54364     54363     54365
     54363     54366     54367     54368     54369     54373     54369     54370
     54369     54371     54369     54372     54373     54374     54375     54379
     54375     54376     54375     54377     54375     54378     54379     54380
     54381     54385     54381     54382     54381     54383     54381     54384
     54385     54386     54387     54391     54387     54388     54387     54389
     54387     54390     54391     54392     54393     54397     54393     54394
     54393     54395     54393     54396     54397     54398     54399     54403
     54399     54400     54399     54401     54399     54402     54403     54404
     54405     54409     54405     54406     54405     54407     54405     54408
     54409     54410     54411     54415     54411     54412     54411     54413
     54411     54414     54415     54416     54417     54421     54417     54418
     54417     54419     54417     54420     54421     54422     54423     54427
     54423     54424     54423     54425     54423     54426     54427     54428
     54429     54433     54429     54430     54429     54431     54429     54432
     54433     54434     54435     54439     54435     54436     54435     54437
     54435     54438     54439     54440     54441     54445     54441     54442
     54441     54443     54441     54444     54445     54446     54447     54451
     54447     54448     54447     54449     54447     54450     54451     54452
     54453     54457     54453     54454     54453     54455     54453     54456
     54457     54458     54459     54463     54459     54460     54459     54461
     54459     54462     54463     54464     54465     54469     54465     54466
     54465     54467     54465     54468     54469     54470     54471     54475
     54471     54472     54471     54473     54471     54474     54475     54476
     54477     54481     54477     54478     54477     54479     54477     54480
     54481     54482     54483     54487     54483     54484     54483     54485
     54483     54486     54487     54488     54489     54493     54489     54490
     54489     54491     54489     54492     54493     54494     54495     54499
     54495     54496     54495     54497     54495     54498     54499     54500
     54501     54505     54501     54502     54501     54503     54501     54504
     54505     54506     54507     54511     54507     54508     54507     54509
     54507     54510     54511     54512     54513     54517     54513     54514
     54513     54515     54513     54516     54517     54518     54519     54523
     54519     54520     54519     54521     54519     54522     54523     54524
     54525     54529     54525     54526     54525     54527     54525     54528
     54529     54530     54531     54535     54531     54532     54531     54533
     54531     54534     54535     54536     54537     54541     54537     54538
     54537     54539     54537     54540     54541     54542     54543     54547
     54543     54544     54543     54545     54543     54546     54547     54548
     54549     54553     54549     54550     54549     54551     54549     54552
     54553     54554     54555     54559     54555     54556     54555     54557
     54555     54558     54559     54560     54561     54565     54561     54562
     54561     54563     54561     54564     54565     54566     54567     54571
     54567     54568     54567     54569     54567     54570     54571     54572
     54573     54577     54573     54574     54573     54575     54573     54576
     54577     54578     54579     54583     54579     54580     54579     54581
     54579     54582     54583     54584     54585     54589     54585     54586
     54585     54587     54585     54588     54589     54590     54591     54595
     54591     54592     54591     54593     54591     54594     54595     54596
     54597     54601     54597     54598     54597     54599     54597     54600
     54601     54602     54603     54607     54603     54604     54603     54605
     54603     54606     54607     54608     54609     54613     54609     54610
     54609     54611     54609     54612     54613     54614     54615     54619
     54615     54616     54615     54617     54615     54618     54619     54620
     54621     54625     54621     54622     54621     54623     54621     54624
     54625     54626     54627     54631     54627     54628     54627     54629
     54627     54630     54631     54632     54633     54637     54633     54634
     54633     54635     54633     54636     54637     54638     54639     54643
     54639     54640     54639     54641     54639     54642     54643     54644
     54645     54649     54645     54646     54645     54647     54645     54648
     54649     54650     54651     54655     54651     54652     54651     54653
     54651     54654     54655     54656     54657     54661     54657     54658
     54657     54659     54657     54660     54661     54662     54663     54667
     54663     54664     54663     54665     54663     54666     54667     54668
     54669     54673     54669     54670     54669     54671     54669     54672
     54673     54674     54675     54679     54675     54676     54675     54677
     54675     54678     54679     54680     54681     54685     54681     54682
     54681     54683     54681     54684     54685     54686     54687     54691
     54687     54688     54687     54689     54687     54690     54691     54692
     54693     54697     54693     54694     54693     54695     54693     54696
     54697     54698     54699     54703     54699     54700     54699     54701
     54699     54702     54703     54704     54705     54709     54705     54706
     54705     54707     54705     54708     54709     54710     54711     54715
     54711     54712     54711     54713     54711     54714     54715     54716
     54717     54721     54717     54718     54717     54719     54717     54720
     54721     54722     54723     54727     54723     54724     54723     54725
     54723     54726     54727     54728     54729     54733     54729     54730
     54729     54731     54729     54732     54733     54734     54735     54739
     54735     54736     54735     54737     54735     54738     54739     54740
     54741     54745     54741     54742     54741     54743     54741     54744
     54745     54746     54747     54751     54747     54748     54747     54749
     54747     54750     54751     54752     54753     54757     54753     54754
     54753     54755     54753     54756     54757     54758     54759     54763
     54759     54760     54759     54761     54759     54762     54763     54764
     54765     54769     54765     54766     54765     54767     54765     54768
     54769     54770     54771     54775     54771     54772     54771     54773
     54771     54774     54775     54776     54777     54781     54777     54778
     54777     54779     54777     54780     54781     54782     54783     54787
     54783     54784     54783     54785     54783     54786     54787     54788
     54789     54793     54789     54790     54789     54791     54789     54792
     54793     54794     54795     54799     54795     54796     54795     54797
     54795     54798     54799     54800     54801     54805     54801     54802
     54801     54803     54801     54804     54805     54806     54807     54811
     54807     54808     54807     54809     54807     54810     54811     54812
     54813     54817     54813     54814     54813     54815     54813     54816
     54817     54818     54819     54823     54819     54820     54819     54821
     54819     54822     54823     54824     54825     54829     54825     54826
     54825     54827     54825     54828     54829     54830     54831     54835
     54831     54832     54831     54833     54831     54834     54835     54836
     54837     54841     54837     54838     54837     54839     54837     54840
     54841     54842     54843     54847     54843     54844     54843     54845
     54843     54846     54847     54848     54849     54853     54849     54850
     54849     54851     54849     54852     54853     54854     54855     54859
     54855     54856     54855     54857     54855     54858     54859     54860
     54861     54865     54861     54862     54861     54863     54861     54864
     54865     54866     54867     54871     54867     54868     54867     54869
     54867     54870     54871     54872     54873     54877     54873     54874
     54873     54875     54873     54876     54877     54878     54879     54883
     54879     54880     54879     54881     54879     54882     54883     54884
     54885     54889     54885     54886     54885     54887     54885     54888
     54889     54890     54891     54895     54891     54892     54891     54893
     54891     54894     54895     54896     54897     54901     54897     54898
     54897     54899     54897     54900     54901     54902     54903     54907
     54903     54904     54903     54905     54903     54906     54907     54908
     54909     54913     54909     54910     54909     54911     54909     54912
     54913     54914     54915     54919     54915     54916     54915     54917
     54915     54918     54919     54920     54921     54925     54921     54922
     54921     54923     54921     54924     54925     54926     54927     54931
     54927     54928     54927     54929     54927     54930     54931     54932
     54933     54937     54933     54934     54933     54935     54933     54936
     54937     54938     54939     54943     54939     54940     54939     54941
     54939     54942     54943     54944     54945     54949     54945     54946
     54945     54947     54945     54948     54949     54950     54951     54955
     54951     54952     54951     54953     54951     54954     54955     54956
     54957     54961     54957     54958     54957     54959     54957     54960
     54961     54962     54963     54967     54963     54964     54963     54965
     54963     54966     54967     54968     54969     54973     54969     54970
     54969     54971     54969     54972     54973     54974     54975     54979
     54975     54976     54975     54977     54975     54978     54979     54980
     54981     54985     54981     54982     54981     54983     54981     54984
     54985     54986     54987     54991     54987     54988     54987     54989
     54987     54990     54991     54992     54993     54997     54993     54994
     54993     54995     54993     54996     54997     54998     54999     55003
     54999     55000     54999     55001     54999     55002     55003     55004
     55005     55009     55005     55006     55005     55007     55005     55008
     55009     55010     55011     55015     55011     55012     55011     55013
     55011     55014     55015     55016     55017     55021     55017     55018
     55017     55019     55017     55020     55021     55022     55023     55027
     55023     55024     55023     55025     55023     55026     55027     55028
     55029     55033     55029     55030     55029     55031     55029     55032
     55033     55034     55035     55039     55035     55036     55035     55037
     55035     55038     55039     55040     55041     55045     55041     55042
     55041     55043     55041     55044     55045     55046     55047     55051
     55047     55048     55047     55049     55047     55050     55051     55052
     55053     55057     55053     55054     55053     55055     55053     55056
     55057     55058     55059     55063     55059     55060     55059     55061
     55059     55062     55063     55064     55065     55069     55065     55066
     55065     55067     55065     55068     55069     55070     55071     55075
     55071     55072     55071     55073     55071     55074     55075     55076
     55077     55081     55077     55078     55077     55079     55077     55080
     55081     55082     55083     55087     55083     55084     55083     55085
     55083     55086     55087     55088     55089     55093     55089     55090
     55089     55091     55089     55092     55093     55094     55095     55099
     55095     55096     55095     55097     55095     55098     55099     55100
     55101     55105     55101     55102     55101     55103     55101     55104
     55105     55106     55107     55111     55107     55108     55107     55109
     55107     55110     55111     55112     55113     55117     55113     55114
     55113     55115     55113     55116     55117     55118     55119     55123
     55119     55120     55119     55121     55119     55122     55123     55124
     55125     55129     55125     55126     55125     55127     55125     55128
     55129     55130     55131     55135     55131     55132     55131     55133
     55131     55134     55135     55136     55137     55141     55137     55138
     55137     55139     55137     55140     55141     55142     55143     55147
     55143     55144     55143     55145     55143     55146     55147     55148
     55149     55153     55149     55150     55149     55151     55149     55152
     55153     55154     55155     55159     55155     55156     55155     55157
     55155     55158     55159     55160     55161     55165     55161     55162
     55161     55163     55161     55164     55165     55166     55167     55171
     55167     55168     55167     55169     55167     55170     55171     55172
     55173     55177     55173     55174     55173     55175     55173     55176
     55177     55178     55179     55183     55179     55180     55179     55181
     55179     55182     55183     55184     55185     55189     55185     55186
     55185     55187     55185     55188     55189     55190     55191     55195
     55191     55192     55191     55193     55191     55194     55195     55196
     55197     55201     55197     55198     55197     55199     55197     55200
     55201     55202     55203     55207     55203     55204     55203     55205
     55203     55206     55207     55208     55209     55213     55209     55210
     55209     55211     55209     55212     55213     55214     55215     55219
     55215     55216     55215     55217     55215     55218     55219     55220
     55221     55225     55221     55222     55221     55223     55221     55224
     55225     55226     55227     55231     55227     55228     55227     55229
     55227     55230     55231     55232     55233     55237     55233     55234
     55233     55235     55233     55236     55237     55238     55239     55243
     55239     55240     55239     55241     55239     55242     55243     55244
     55245     55249     55245     55246     55245     55247     55245     55248
     55249     55250     55251     55255     55251     55252     55251     55253
     55251     55254     55255     55256     55257     55261     55257     55258
     55257     55259     55257     55260     55261     55262     55263     55267
     55263     55264     55263     55265     55263     55266     55267     55268
     55269     55273     55269     55270     55269     55271     55269     55272
     55273     55274     55275     55279     55275     55276     55275     55277
     55275     55278     55279     55280     55281     55285     55281     55282
     55281     55283     55281     55284     55285     55286     55287     55291
     55287     55288     55287     55289     55287     55290     55291     55292
     55293     55297     55293     55294     55293     55295     55293     55296
     55297     55298     55299     55303     55299     55300     55299     55301
     55299     55302     55303     55304     55305     55309     55305     55306
     55305     55307     55305     55308     55309     55310     55311     55315
     55311     55312     55311     55313     55311     55314     55315     55316
     55317     55321     55317     55318     55317     55319     55317     55320
     55321     55322     55323     55327     55323     55324     55323     55325
     55323     55326     55327     55328     55329     55333     55329     55330
     55329     55331     55329     55332     55333     55334     55335     55339
     55335     55336     55335     55337     55335     55338     55339     55340
     55341     55345     55341     55342     55341     55343     55341     55344
     55345     55346     55347     55351     55347     55348     55347     55349
     55347     55350     55351     55352     55353     55357     55353     55354
     55353     55355     55353     55356     55357     55358     55359     55363
     55359     55360     55359     55361     55359     55362     55363     55364
     55365     55369     55365     55366     55365     55367     55365     55368
     55369     55370     55371     55375     55371     55372     55371     55373
     55371     55374     55375     55376     55377     55381     55377     55378
     55377     55379     55377     55380     55381     55382     55383     55387
     55383     55384     55383     55385     55383     55386     55387     55388
     55389     55393     55389     55390     55389     55391     55389     55392
     55393     55394     55395     55399     55395     55396     55395     55397
     55395     55398     55399     55400     55401     55405     55401     55402
     55401     55403     55401     55404     55405     55406     55407     55411
     55407     55408     55407     55409     55407     55410     55411     55412
     55413     55417     55413     55414     55413     55415     55413     55416
     55417     55418     55419     55423     55419     55420     55419     55421
     55419     55422     55423     55424     55425     55429     55425     55426
     55425     55427     55425     55428     55429     55430     55431     55435
     55431     55432     55431     55433     55431     55434     55435     55436
     55437     55441     55437     55438     55437     55439     55437     55440
     55441     55442     55443     55447     55443     55444     55443     55445
     55443     55446     55447     55448     55449     55453     55449     55450
     55449     55451     55449     55452     55453     55454     55455     55459
     55455     55456     55455     55457     55455     55458     55459     55460
     55461     55465     55461     55462     55461     55463     55461     55464
     55465     55466     55467     55471     55467     55468     55467     55469
     55467     55470     55471     55472     55473     55477     55473     55474
     55473     55475     55473     55476     55477     55478     55479     55483
     55479     55480     55479     55481     55479     55482     55483     55484
     55485     55489     55485     55486     55485     55487     55485     55488
     55489     55490     55491     55495     55491     55492     55491     55493
     55491     55494     55495     55496     55497     55501     55497     55498
     55497     55499     55497     55500     55501     55502     55503     55507
     55503     55504     55503     55505     55503     55506     55507     55508
     55509     55513     55509     55510     55509     55511     55509     55512
     55513     55514     55515     55519     55515     55516     55515     55517
     55515     55518     55519     55520     55521     55525     55521     55522
     55521     55523     55521     55524     55525     55526     55527     55531
     55527     55528     55527     55529     55527     55530     55531     55532
     55533     55537     55533     55534     55533     55535     55533     55536
     55537     55538     55539     55543     55539     55540     55539     55541
     55539     55542     55543     55544     55545     55549     55545     55546
     55545     55547     55545     55548     55549     55550     55551     55555
     55551     55552     55551     55553     55551     55554     55555     55556
     55557     55561     55557     55558     55557     55559     55557     55560
     55561     55562     55563     55567     55563     55564     55563     55565
     55563     55566     55567     55568     55569     55573     55569     55570
     55569     55571     55569     55572     55573     55574     55575     55579
     55575     55576     55575     55577     55575     55578     55579     55580
     55581     55585     55581     55582     55581     55583     55581     55584
     55585     55586     55587     55591     55587     55588     55587     55589
     55587     55590     55591     55592     55593     55597     55593     55594
     55593     55595     55593     55596     55597     55598     55599     55603
     55599     55600     55599     55601     55599     55602     55603     55604
     55605     55609     55605     55606     55605     55607     55605     55608
     55609     55610     55611     55615     55611     55612     55611     55613
     55611     55614     55615     55616     55617     55621     55617     55618
     55617     55619     55617     55620     55621     55622     55623     55627
     55623     55624     55623     55625     55623     55626     55627     55628
     55629     55633     55629     55630     55629     55631     55629     55632
     55633     55634     55635     55639     55635     55636     55635     55637
     55635     55638     55639     55640     55641     55645     55641     55642
     55641     55643     55641     55644     55645     55646     55647     55651
     55647     55648     55647     55649     55647     55650     55651     55652
     55653     55657     55653     55654     55653     55655     55653     55656
     55657     55658     55659     55663     55659     55660     55659     55661
     55659     55662     55663     55664     55665     55669     55665     55666
     55665     55667     55665     55668     55669     55670     55671     55675
     55671     55672     55671     55673     55671     55674     55675     55676
     55677     55681     55677     55678     55677     55679     55677     55680
     55681     55682     55683     55687     55683     55684     55683     55685
     55683     55686     55687     55688     55689     55693     55689     55690
     55689     55691     55689     55692     55693     55694     55695     55699
     55695     55696     55695     55697     55695     55698     55699     55700
     55701     55705     55701     55702     55701     55703     55701     55704
     55705     55706     55707     55711     55707     55708     55707     55709
     55707     55710     55711     55712     55713     55717     55713     55714
     55713     55715     55713     55716     55717     55718     55719     55723
     55719     55720     55719     55721     55719     55722     55723     55724
     55725     55729     55725     55726     55725     55727     55725     55728
     55729     55730     55731     55735     55731     55732     55731     55733
     55731     55734     55735     55736     55737     55741     55737     55738
     55737     55739     55737     55740     55741     55742     55743     55747
     55743     55744     55743     55745     55743     55746     55747     55748
     55749     55753     55749     55750     55749     55751     55749     55752
     55753     55754     55755     55759     55755     55756     55755     55757
     55755     55758     55759     55760     55761     55765     55761     55762
     55761     55763     55761     55764     55765     55766     55767     55771
     55767     55768     55767     55769     55767     55770     55771     55772
     55773     55777     55773     55774     55773     55775     55773     55776
     55777     55778     55779     55783     55779     55780     55779     55781
     55779     55782     55783     55784     55785     55789     55785     55786
     55785     55787     55785     55788     55789     55790     55791     55795
     55791     55792     55791     55793     55791     55794     55795     55796
     55797     55801     55797     55798     55797     55799     55797     55800
     55801     55802     55803     55807     55803     55804     55803     55805
     55803     55806     55807     55808     55809     55813     55809     55810
     55809     55811     55809     55812     55813     55814     55815     55819
     55815     55816     55815     55817     55815     55818     55819     55820
     55821     55825     55821     55822     55821     55823     55821     55824
     55825     55826     55827     55831     55827     55828     55827     55829
     55827     55830     55831     55832     55833     55837     55833     55834
     55833     55835     55833     55836     55837     55838     55839     55843
     55839     55840     55839     55841     55839     55842     55843     55844
     55845     55849     55845     55846     55845     55847     55845     55848
     55849     55850     55851     55855     55851     55852     55851     55853
     55851     55854     55855     55856     55857     55861     55857     55858
     55857     55859     55857     55860     55861     55862     55863     55867
     55863     55864     55863     55865     55863     55866     55867     55868
     55869     55873     55869     55870     55869     55871     55869     55872
     55873     55874     55875     55879     55875     55876     55875     55877
     55875     55878     55879     55880     55881     55885     55881     55882
     55881     55883     55881     55884     55885     55886     55887     55891
     55887     55888     55887     55889     55887     55890     55891     55892
     55893     55897     55893     55894     55893     55895     55893     55896
     55897     55898     55899     55903     55899     55900     55899     55901
     55899     55902     55903     55904     55905     55909     55905     55906
     55905     55907     55905     55908     55909     55910     55911     55915
     55911     55912     55911     55913     55911     55914     55915     55916
     55917     55921     55917     55918     55917     55919     55917     55920
     55921     55922     55923     55927     55923     55924     55923     55925
     55923     55926     55927     55928     55929     55933     55929     55930
     55929     55931     55929     55932     55933     55934     55935     55939
     55935     55936     55935     55937     55935     55938     55939     55940
     55941     55945     55941     55942     55941     55943     55941     55944
     55945     55946     55947     55951     55947     55948     55947     55949
     55947     55950     55951     55952     55953     55957     55953     55954
     55953     55955     55953     55956     55957     55958     55959     55963
     55959     55960     55959     55961     55959     55962     55963     55964
     55965     55969     55965     55966     55965     55967     55965     55968
     55969     55970     55971     55975     55971     55972     55971     55973
     55971     55974     55975     55976     55977     55981     55977     55978
     55977     55979     55977     55980     55981     55982     55983     55987
     55983     55984     55983     55985     55983     55986     55987     55988
     55989     55993     55989     55990     55989     55991     55989     55992
     55993     55994     55995     55999     55995     55996     55995     55997
     55995     55998     55999     56000     56001     56005     56001     56002
     56001     56003     56001     56004     56005     56006     56007     56011
     56007     56008     56007     56009     56007     56010     56011     56012
     56013     56017     56013     56014     56013     56015     56013     56016
     56017     56018     56019     56023     56019     56020     56019     56021
     56019     56022     56023     56024     56025     56029     56025     56026
     56025     56027     56025     56028     56029     56030     56031     56035
     56031     56032     56031     56033     56031     56034     56035     56036
     56037     56041     56037     56038     56037     56039     56037     56040
     56041     56042     56043     56047     56043     56044     56043     56045
     56043     56046     56047     56048     56049     56053     56049     56050
     56049     56051     56049     56052     56053     56054     56055     56059
     56055     56056     56055     56057     56055     56058     56059     56060
     56061     56065     56061     56062     56061     56063     56061     56064
     56065     56066     56067     56071     56067     56068     56067     56069
     56067     56070     56071     56072     56073     56077     56073     56074
     56073     56075     56073     56076     56077     56078     56079     56083
     56079     56080     56079     56081     56079     56082     56083     56084
     56085     56089     56085     56086     56085     56087     56085     56088
     56089     56090     56091     56095     56091     56092     56091     56093
     56091     56094     56095     56096     56097     56101     56097     56098
     56097     56099     56097     56100     56101     56102     56103     56107
     56103     56104     56103     56105     56103     56106     56107     56108
     56109     56113     56109     56110     56109     56111     56109     56112
     56113     56114     56115     56119     56115     56116     56115     56117
     56115     56118     56119     56120     56121     56125     56121     56122
     56121     56123     56121     56124     56125     56126     56127     56131
     56127     56128     56127     56129     56127     56130     56131     56132
     56133     56137     56133     56134     56133     56135     56133     56136
     56137     56138     56139     56143     56139     56140     56139     56141
     56139     56142     56143     56144     56145     56149     56145     56146
     56145     56147     56145     56148     56149     56150     56151     56155
     56151     56152     56151     56153     56151     56154     56155     56156
     56157     56161     56157     56158     56157     56159     56157     56160
     56161     56162     56163     56167     56163     56164     56163     56165
     56163     56166     56167     56168     56169     56173     56169     56170
     56169     56171     56169     56172     56173     56174     56175     56179
     56175     56176     56175     56177     56175     56178     56179     56180
     56181     56185     56181     56182     56181     56183     56181     56184
     56185     56186     56187     56191     56187     56188     56187     56189
     56187     56190     56191     56192     56193     56197     56193     56194
     56193     56195     56193     56196     56197     56198     56199     56203
     56199     56200     56199     56201     56199     56202     56203     56204
     56205     56209     56205     56206     56205     56207     56205     56208
     56209     56210     56211     56215     56211     56212     56211     56213
     56211     56214     56215     56216     56217     56221     56217     56218
     56217     56219     56217     56220     56221     56222     56223     56227
     56223     56224     56223     56225     56223     56226     56227     56228
     56229     56233     56229     56230     56229     56231     56229     56232
     56233     56234     56235     56239     56235     56236     56235     56237
     56235     56238     56239     56240     56241     56245     56241     56242
     56241     56243     56241     56244     56245     56246     56247     56251
     56247     56248     56247     56249     56247     56250     56251     56252
     56253     56257     56253     56254     56253     56255     56253     56256
     56257     56258     56259     56263     56259     56260     56259     56261
     56259     56262     56263     56264     56265     56269     56265     56266
     56265     56267     56265     56268     56269     56270     56271     56275
     56271     56272     56271     56273     56271     56274     56275     56276
     56277     56281     56277     56278     56277     56279     56277     56280
     56281     56282     56283     56287     56283     56284     56283     56285
     56283     56286     56287     56288     56289     56293     56289     56290
     56289     56291     56289     56292     56293     56294     56295     56299
     56295     56296     56295     56297     56295     56298     56299     56300
     56301     56305     56301     56302     56301     56303     56301     56304
     56305     56306     56307     56311     56307     56308     56307     56309
     56307     56310     56311     56312     56313     56317     56313     56314
     56313     56315     56313     56316     56317     56318     56319     56323
     56319     56320     56319     56321     56319     56322     56323     56324
     56325     56329     56325     56326     56325     56327     56325     56328
     56329     56330     56331     56335     56331     56332     56331     56333
     56331     56334     56335     56336     56337     56341     56337     56338
     56337     56339     56337     56340     56341     56342     56343     56347
     56343     56344     56343     56345     56343     56346     56347     56348
     56349     56353     56349     56350     56349     56351     56349     56352
     56353     56354     56355     56359     56355     56356     56355     56357
     56355     56358     56359     56360     56361     56365     56361     56362
     56361     56363     56361     56364     56365     56366     56367     56371
     56367     56368     56367     56369     56367     56370     56371     56372
     56373     56377     56373     56374     56373     56375     56373     56376
     56377     56378     56379     56383     56379     56380     56379     56381
     56379     56382     56383     56384     56385     56389     56385     56386
     56385     56387     56385     56388     56389     56390     56391     56395
     56391     56392     56391     56393     56391     56394     56395     56396
     56397     56401     56397     56398     56397     56399     56397     56400
     56401     56402     56403     56407     56403     56404     56403     56405
     56403     56406     56407     56408     56409     56413     56409     56410
     56409     56411     56409     56412     56413     56414     56415     56419
     56415     56416     56415     56417     56415     56418     56419     56420
     56421     56425     56421     56422     56421     56423     56421     56424
     56425     56426     56427     56431     56427     56428     56427     56429
     56427     56430     56431     56432     56433     56437     56433     56434
     56433     56435     56433     56436     56437     56438     56439     56443
     56439     56440     56439     56441     56439     56442     56443     56444
     56445     56449     56445     56446     56445     56447     56445     56448
     56449     56450     56451     56455     56451     56452     56451     56453
     56451     56454     56455     56456     56457     56461     56457     56458
     56457     56459     56457     56460     56461     56462     56463     56467
     56463     56464     56463     56465     56463     56466     56467     56468
     56469     56473     56469     56470     56469     56471     56469     56472
     56473     56474     56475     56479     56475     56476     56475     56477
     56475     56478     56479     56480     56481     56485     56481     56482
     56481     56483     56481     56484     56485     56486     56487     56491
     56487     56488     56487     56489     56487     56490     56491     56492
     56493     56497     56493     56494     56493     56495     56493     56496
     56497     56498     56499     56503     56499     56500     56499     56501
     56499     56502     56503     56504     56505     56509     56505     56506
     56505     56507     56505     56508     56509     56510     56511     56515
     56511     56512     56511     56513     56511     56514     56515     56516
     56517     56521     56517     56518     56517     56519     56517     56520
     56521     56522     56523     56527     56523     56524     56523     56525
     56523     56526     56527     56528     56529     56533     56529     56530
     56529     56531     56529     56532     56533     56534     56535     56539
     56535     56536     56535     56537     56535     56538     56539     56540
     56541     56545     56541     56542     56541     56543     56541     56544
     56545     56546     56547     56551     56547     56548     56547     56549
     56547     56550     56551     56552     56553     56557     56553     56554
     56553     56555     56553     56556     56557     56558     56559     56563
     56559     56560     56559     56561     56559     56562     56563     56564
     56565     56569     56565     56566     56565     56567     56565     56568
     56569     56570     56571     56575     56571     56572     56571     56573
     56571     56574     56575     56576     56577     56581     56577     56578
     56577     56579     56577     56580     56581     56582     56583     56587
     56583     56584     56583     56585     56583     56586     56587     56588
     56589     56593     56589     56590     56589     56591     56589     56592
     56593     56594     56595     56599     56595     56596     56595     56597
     56595     56598     56599     56600     56601     56605     56601     56602
     56601     56603     56601     56604     56605     56606     56607     56611
     56607     56608     56607     56609     56607     56610     56611     56612
     56613     56617     56613     56614     56613     56615     56613     56616
     56617     56618     56619     56623     56619     56620     56619     56621
     56619     56622     56623     56624     56625     56629     56625     56626
     56625     56627     56625     56628     56629     56630     56631     56635
     56631     56632     56631     56633     56631     56634     56635     56636
     56637     56641     56637     56638     56637     56639     56637     56640
     56641     56642     56643     56647     56643     56644     56643     56645
     56643     56646     56647     56648     56649     56653     56649     56650
     56649     56651     56649     56652     56653     56654     56655     56659
     56655     56656     56655     56657     56655     56658     56659     56660
     56661     56665     56661     56662     56661     56663     56661     56664
     56665     56666     56667     56671     56667     56668     56667     56669
     56667     56670     56671     56672     56673     56677     56673     56674
     56673     56675     56673     56676     56677     56678     56679     56683
     56679     56680     56679     56681     56679     56682     56683     56684
     56685     56689     56685     56686     56685     56687     56685     56688
     56689     56690     56691     56695     56691     56692     56691     56693
     56691     56694     56695     56696     56697     56701     56697     56698
     56697     56699     56697     56700     56701     56702     56703     56707
     56703     56704     56703     56705     56703     56706     56707     56708
     56709     56713     56709     56710     56709     56711     56709     56712
     56713     56714     56715     56719     56715     56716     56715     56717
     56715     56718     56719     56720     56721     56725     56721     56722
     56721     56723     56721     56724     56725     56726     56727     56731
     56727     56728     56727     56729     56727     56730     56731     56732
     56733     56737     56733     56734     56733     56735     56733     56736
     56737     56738     56739     56743     56739     56740     56739     56741
     56739     56742     56743     56744     56745     56749     56745     56746
     56745     56747     56745     56748     56749     56750     56751     56755
     56751     56752     56751     56753     56751     56754     56755     56756
     56757     56761     56757     56758     56757     56759     56757     56760
     56761     56762     56763     56767     56763     56764     56763     56765
     56763     56766     56767     56768     56769     56773     56769     56770
     56769     56771     56769     56772     56773     56774     56775     56779
     56775     56776     56775     56777     56775     56778     56779     56780
     56781     56785     56781     56782     56781     56783     56781     56784
     56785     56786     56787     56791     56787     56788     56787     56789
     56787     56790     56791     56792     56793     56797     56793     56794
     56793     56795     56793     56796     56797     56798     56799     56803
     56799     56800     56799     56801     56799     56802     56803     56804
     56805     56809     56805     56806     56805     56807     56805     56808
     56809     56810     56811     56815     56811     56812     56811     56813
     56811     56814     56815     56816     56817     56821     56817     56818
     56817     56819     56817     56820     56821     56822     56823     56827
     56823     56824     56823     56825     56823     56826     56827     56828
     56829     56833     56829     56830     56829     56831     56829     56832
     56833     56834     56835     56839     56835     56836     56835     56837
     56835     56838     56839     56840     56841     56845     56841     56842
     56841     56843     56841     56844     56845     56846     56847     56851
     56847     56848     56847     56849     56847     56850     56851     56852
     56853     56857     56853     56854     56853     56855     56853     56856
     56857     56858     56859     56863     56859     56860     56859     56861
     56859     56862     56863     56864     56865     56869     56865     56866
     56865     56867     56865     56868     56869     56870     56871     56875
     56871     56872     56871     56873     56871     56874     56875     56876
     56877     56881     56877     56878     56877     56879     56877     56880
     56881     56882     56883     56887     56883     56884     56883     56885
     56883     56886     56887     56888     56889     56893     56889     56890
     56889     56891     56889     56892     56893     56894     56895     56899
     56895     56896     56895     56897     56895     56898     56899     56900
     56901     56905     56901     56902     56901     56903     56901     56904
     56905     56906     56907     56911     56907     56908     56907     56909
     56907     56910     56911     56912     56913     56917     56913     56914
     56913     56915     56913     56916     56917     56918     56919     56923
     56919     56920     56919     56921     56919     56922     56923     56924
     56925     56929     56925     56926     56925     56927     56925     56928
     56929     56930     56931     56935     56931     56932     56931     56933
     56931     56934     56935     56936     56937     56941     56937     56938
     56937     56939     56937     56940     56941     56942     56943     56947
     56943     56944     56943     56945     56943     56946     56947     56948
     56949     56953     56949     56950     56949     56951     56949     56952
     56953     56954     56955     56959     56955     56956     56955     56957
     56955     56958     56959     56960     56961     56965     56961     56962
     56961     56963     56961     56964     56965     56966     56967     56971
     56967     56968     56967     56969     56967     56970     56971     56972
     56973     56977     56973     56974     56973     56975     56973     56976
     56977     56978     56979     56983     56979     56980     56979     56981
     56979     56982     56983     56984     56985     56989     56985     56986
     56985     56987     56985     56988     56989     56990     56991     56995
     56991     56992     56991     56993     56991     56994     56995     56996
     56997     57001     56997     56998     56997     56999     56997     57000
     57001     57002     57003     57007     57003     57004     57003     57005
     57003     57006     57007     57008     57009     57013     57009     57010
     57009     57011     57009     57012     57013     57014     57015     57019
     57015     57016     57015     57017     57015     57018     57019     57020
     57021     57025     57021     57022     57021     57023     57021     57024
     57025     57026     57027     57031     57027     57028     57027     57029
     57027     57030     57031     57032     57033     57037     57033     57034
     57033     57035     57033     57036     57037     57038     57039     57043
     57039     57040     57039     57041     57039     57042     57043     57044
     57045     57049     57045     57046     57045     57047     57045     57048
     57049     57050     57051     57055     57051     57052     57051     57053
     57051     57054     57055     57056     57057     57061     57057     57058
     57057     57059     57057     57060     57061     57062     57063     57067
     57063     57064     57063     57065     57063     57066     57067     57068
     57069     57073     57069     57070     57069     57071     57069     57072
     57073     57074     57075     57079     57075     57076     57075     57077
     57075     57078     57079     57080     57081     57085     57081     57082
     57081     57083     57081     57084     57085     57086     57087     57091
     57087     57088     57087     57089     57087     57090     57091     57092
     57093     57097     57093     57094     57093     57095     57093     57096
     57097     57098     57099     57103     57099     57100     57099     57101
     57099     57102     57103     57104     57105     57109     57105     57106
     57105     57107     57105     57108     57109     57110     57111     57115
     57111     57112     57111     57113     57111     57114     57115     57116
     57117     57121     57117     57118     57117     57119     57117     57120
     57121     57122     57123     57127     57123     57124     57123     57125
     57123     57126     57127     57128     57129     57133     57129     57130
     57129     57131     57129     57132     57133     57134     57135     57139
     57135     57136     57135     57137     57135     57138     57139     57140
     57141     57145     57141     57142     57141     57143     57141     57144
     57145     57146     57147     57151     57147     57148     57147     57149
     57147     57150     57151     57152     57153     57157     57153     57154
     57153     57155     57153     57156     57157     57158     57159     57163
     57159     57160     57159     57161     57159     57162     57163     57164
     57165     57169     57165     57166     57165     57167     57165     57168
     57169     57170     57171     57175     57171     57172     57171     57173
     57171     57174     57175     57176     57177     57181     57177     57178
     57177     57179     57177     57180     57181     57182     57183     57187
     57183     57184     57183     57185     57183     57186     57187     57188
     57189     57193     57189     57190     57189     57191     57189     57192
     57193     57194     57195     57199     57195     57196     57195     57197
     57195     57198     57199     57200     57201     57205     57201     57202
     57201     57203     57201     57204     57205     57206     57207     57211
     57207     57208     57207     57209     57207     57210     57211     57212
     57213     57217     57213     57214     57213     57215     57213     57216
     57217     57218     57219     57223     57219     57220     57219     57221
     57219     57222     57223     57224     57225     57229     57225     57226
     57225     57227     57225     57228     57229     57230     57231     57235
     57231     57232     57231     57233     57231     57234     57235     57236
     57237     57241     57237     57238     57237     57239     57237     57240
     57241     57242     57243     57247     57243     57244     57243     57245
     57243     57246     57247     57248     57249     57253     57249     57250
     57249     57251     57249     57252     57253     57254     57255     57259
     57255     57256     57255     57257     57255     57258     57259     57260
     57261     57265     57261     57262     57261     57263     57261     57264
     57265     57266     57267     57271     57267     57268     57267     57269
     57267     57270     57271     57272     57273     57277     57273     57274
     57273     57275     57273     57276     57277     57278     57279     57283
     57279     57280     57279     57281     57279     57282     57283     57284
     57285     57289     57285     57286     57285     57287     57285     57288
     57289     57290     57291     57295     57291     57292     57291     57293
     57291     57294     57295     57296     57297     57301     57297     57298
     57297     57299     57297     57300     57301     57302     57303     57307
     57303     57304     57303     57305     57303     57306     57307     57308
     57309     57313     57309     57310     57309     57311     57309     57312
     57313     57314     57315     57319     57315     57316     57315     57317
     57315     57318     57319     57320     57321     57325     57321     57322
     57321     57323     57321     57324     57325     57326     57327     57331
     57327     57328     57327     57329     57327     57330     57331     57332
     57333     57337     57333     57334     57333     57335     57333     57336
     57337     57338     57339     57343     57339     57340     57339     57341
     57339     57342     57343     57344     57345     57349     57345     57346
     57345     57347     57345     57348     57349     57350     57351     57355
     57351     57352     57351     57353     57351     57354     57355     57356
     57357     57361     57357     57358     57357     57359     57357     57360
     57361     57362     57363     57367     57363     57364     57363     57365
     57363     57366     57367     57368     57369     57373     57369     57370
     57369     57371     57369     57372     57373     57374     57375     57379
     57375     57376     57375     57377     57375     57378     57379     57380
     57381     57385     57381     57382     57381     57383     57381     57384
     57385     57386     57387     57391     57387     57388     57387     57389
     57387     57390     57391     57392     57393     57397     57393     57394
     57393     57395     57393     57396     57397     57398     57399     57403
     57399     57400     57399     57401     57399     57402     57403     57404
     57405     57409     57405     57406     57405     57407     57405     57408
     57409     57410     57411     57415     57411     57412     57411     57413
     57411     57414     57415     57416     57417     57421     57417     57418
     57417     57419     57417     57420     57421     57422     57423     57427
     57423     57424     57423     57425     57423     57426     57427     57428
     57429     57433     57429     57430     57429     57431     57429     57432
     57433     57434     57435     57439     57435     57436     57435     57437
     57435     57438     57439     57440     57441     57445     57441     57442
     57441     57443     57441     57444     57445     57446     57447     57451
     57447     57448     57447     57449     57447     57450     57451     57452
     57453     57457     57453     57454     57453     57455     57453     57456
     57457     57458     57459     57463     57459     57460     57459     57461
     57459     57462     57463     57464     57465     57469     57465     57466
     57465     57467     57465     57468     57469     57470     57471     57475
     57471     57472     57471     57473     57471     57474     57475     57476
     57477     57481     57477     57478     57477     57479     57477     57480
     57481     57482     57483     57487     57483     57484     57483     57485
     57483     57486     57487     57488     57489     57493     57489     57490
     57489     57491     57489     57492     57493     57494     57495     57499
     57495     57496     57495     57497     57495     57498     57499     57500
     57501     57505     57501     57502     57501     57503     57501     57504
     57505     57506     57507     57511     57507     57508     57507     57509
     57507     57510     57511     57512     57513     57517     57513     57514
     57513     57515     57513     57516     57517     57518     57519     57523
     57519     57520     57519     57521     57519     57522     57523     57524
     57525     57529     57525     57526     57525     57527     57525     57528
     57529     57530     57531     57535     57531     57532     57531     57533
     57531     57534     57535     57536     57537     57541     57537     57538
     57537     57539     57537     57540     57541     57542     57543     57547
     57543     57544     57543     57545     57543     57546     57547     57548
     57549     57553     57549     57550     57549     57551     57549     57552
     57553     57554     57555     57559     57555     57556     57555     57557
     57555     57558     57559     57560     57561     57565     57561     57562
     57561     57563     57561     57564     57565     57566     57567     57571
     57567     57568     57567     57569     57567     57570     57571     57572
     57573     57577     57573     57574     57573     57575     57573     57576
     57577     57578     57579     57583     57579     57580     57579     57581
     57579     57582     57583     57584     57585     57589     57585     57586
     57585     57587     57585     57588     57589     57590     57591     57595
     57591     57592     57591     57593     57591     57594     57595     57596
     57597     57601     57597     57598     57597     57599     57597     57600
     57601     57602     57603     57607     57603     57604     57603     57605
     57603     57606     57607     57608     57609     57613     57609     57610
     57609     57611     57609     57612     57613     57614     57615     57619
     57615     57616     57615     57617     57615     57618     57619     57620
     57621     57625     57621     57622     57621     57623     57621     57624
     57625     57626     57627     57631     57627     57628     57627     57629
     57627     57630     57631     57632     57633     57637     57633     57634
     57633     57635     57633     57636     57637     57638     57639     57643
     57639     57640     57639     57641     57639     57642     57643     57644
     57645     57649     57645     57646     57645     57647     57645     57648
     57649     57650     57651     57655     57651     57652     57651     57653
     57651     57654     57655     57656     57657     57661     57657     57658
     57657     57659     57657     57660     57661     57662     57663     57667
     57663     57664     57663     57665     57663     57666     57667     57668
     57669     57673     57669     57670     57669     57671     57669     57672
     57673     57674     57675     57679     57675     57676     57675     57677
     57675     57678     57679     57680     57681     57685     57681     57682
     57681     57683     57681     57684     57685     57686     57687     57691
     57687     57688     57687     57689     57687     57690     57691     57692
     57693     57697     57693     57694     57693     57695     57693     57696
     57697     57698     57699     57703     57699     57700     57699     57701
     57699     57702     57703     57704     57705     57709     57705     57706
     57705     57707     57705     57708     57709     57710     57711     57715
     57711     57712     57711     57713     57711     57714     57715     57716
     57717     57721     57717     57718     57717     57719     57717     57720
     57721     57722     57723     57727     57723     57724     57723     57725
     57723     57726     57727     57728     57729     57733     57729     57730
     57729     57731     57729     57732     57733     57734     57735     57739
     57735     57736     57735     57737     57735     57738     57739     57740
     57741     57745     57741     57742     57741     57743     57741     57744
     57745     57746     57747     57751     57747     57748     57747     57749
     57747     57750     57751     57752     57753     57757     57753     57754
     57753     57755     57753     57756     57757     57758     57759     57763
     57759     57760     57759     57761     57759     57762     57763     57764
     57765     57769     57765     57766     57765     57767     57765     57768
     57769     57770     57771     57775     57771     57772     57771     57773
     57771     57774     57775     57776     57777     57781     57777     57778
     57777     57779     57777     57780     57781     57782     57783     57787
     57783     57784     57783     57785     57783     57786     57787     57788
     57789     57793     57789     57790     57789     57791     57789     57792
     57793     57794     57795     57799     57795     57796     57795     57797
     57795     57798     57799     57800     57801     57805     57801     57802
     57801     57803     57801     57804     57805     57806     57807     57811
     57807     57808     57807     57809     57807     57810     57811     57812
     57813     57817     57813     57814     57813     57815     57813     57816
     57817     57818     57819     57823     57819     57820     57819     57821
     57819     57822     57823     57824     57825     57829     57825     57826
     57825     57827     57825     57828     57829     57830     57831     57835
     57831     57832     57831     57833     57831     57834     57835     57836
     57837     57841     57837     57838     57837     57839     57837     57840
     57841     57842     57843     57847     57843     57844     57843     57845
     57843     57846     57847     57848     57849     57853     57849     57850
     57849     57851     57849     57852     57853     57854     57855     57859
     57855     57856     57855     57857     57855     57858     57859     57860
     57861     57865     57861     57862     57861     57863     57861     57864
     57865     57866     57867     57871     57867     57868     57867     57869
     57867     57870     57871     57872     57873     57877     57873     57874
     57873     57875     57873     57876     57877     57878     57879     57883
     57879     57880     57879     57881     57879     57882     57883     57884
     57885     57889     57885     57886     57885     57887     57885     57888
     57889     57890     57891     57895     57891     57892     57891     57893
     57891     57894     57895     57896     57897     57901     57897     57898
     57897     57899     57897     57900     57901     57902     57903     57907
     57903     57904     57903     57905     57903     57906     57907     57908
     57909     57913     57909     57910     57909     57911     57909     57912
     57913     57914     57915     57919     57915     57916     57915     57917
     57915     57918     57919     57920     57921     57925     57921     57922
     57921     57923     57921     57924     57925     57926     57927     57931
     57927     57928     57927     57929     57927     57930     57931     57932
     57933     57937     57933     57934     57933     57935     57933     57936
     57937     57938     57939     57943     57939     57940     57939     57941
     57939     57942     57943     57944     57945     57949     57945     57946
     57945     57947     57945     57948     57949     57950     57951     57955
     57951     57952     57951     57953     57951     57954     57955     57956
     57957     57961     57957     57958     57957     57959     57957     57960
     57961     57962     57963     57967     57963     57964     57963     57965
     57963     57966     57967     57968     57969     57973     57969     57970
     57969     57971     57969     57972     57973     57974     57975     57979
     57975     57976     57975     57977     57975     57978     57979     57980
     57981     57985     57981     57982     57981     57983     57981     57984
     57985     57986     57987     57991     57987     57988     57987     57989
     57987     57990     57991     57992     57993     57997     57993     57994
     57993     57995     57993     57996     57997     57998     57999     58003
     57999     58000     57999     58001     57999     58002     58003     58004
     58005     58009     58005     58006     58005     58007     58005     58008
     58009     58010     58011     58015     58011     58012     58011     58013
     58011     58014     58015     58016     58017     58021     58017     58018
     58017     58019     58017     58020     58021     58022     58023     58027
     58023     58024     58023     58025     58023     58026     58027     58028
     58029     58033     58029     58030     58029     58031     58029     58032
     58033     58034     58035     58039     58035     58036     58035     58037
     58035     58038     58039     58040     58041     58045     58041     58042
     58041     58043     58041     58044     58045     58046     58047     58051
     58047     58048     58047     58049     58047     58050     58051     58052
     58053     58057     58053     58054     58053     58055     58053     58056
     58057     58058     58059     58063     58059     58060     58059     58061
     58059     58062     58063     58064     58065     58069     58065     58066
     58065     58067     58065     58068     58069     58070     58071     58075
     58071     58072     58071     58073     58071     58074     58075     58076
     58077     58081     58077     58078     58077     58079     58077     58080
     58081     58082     58083     58087     58083     58084     58083     58085
     58083     58086     58087     58088     58089     58093     58089     58090
     58089     58091     58089     58092     58093     58094     58095     58099
     58095     58096     58095     58097     58095     58098     58099     58100
     58101     58105     58101     58102     58101     58103     58101     58104
     58105     58106     58107     58111     58107     58108     58107     58109
     58107     58110     58111     58112     58113     58117     58113     58114
     58113     58115     58113     58116     58117     58118     58119     58123
     58119     58120     58119     58121     58119     58122     58123     58124
     58125     58129     58125     58126     58125     58127     58125     58128
     58129     58130     58131     58135     58131     58132     58131     58133
     58131     58134     58135     58136     58137     58141     58137     58138
     58137     58139     58137     58140     58141     58142     58143     58147
     58143     58144     58143     58145     58143     58146     58147     58148
     58149     58153     58149     58150     58149     58151     58149     58152
     58153     58154     58155     58159     58155     58156     58155     58157
     58155     58158     58159     58160     58161     58165     58161     58162
     58161     58163     58161     58164     58165     58166     58167     58171
     58167     58168     58167     58169     58167     58170     58171     58172
     58173     58177     58173     58174     58173     58175     58173     58176
     58177     58178     58179     58183     58179     58180     58179     58181
     58179     58182     58183     58184     58185     58189     58185     58186
     58185     58187     58185     58188     58189     58190     58191     58195
     58191     58192     58191     58193     58191     58194     58195     58196
     58197     58201     58197     58198     58197     58199     58197     58200
     58201     58202     58203     58207     58203     58204     58203     58205
     58203     58206     58207     58208     58209     58213     58209     58210
     58209     58211     58209     58212     58213     58214     58215     58219
     58215     58216     58215     58217     58215     58218     58219     58220
     58221     58225     58221     58222     58221     58223     58221     58224
     58225     58226     58227     58231     58227     58228     58227     58229
     58227     58230     58231     58232     58233     58237     58233     58234
     58233     58235     58233     58236     58237     58238     58239     58243
     58239     58240     58239     58241     58239     58242     58243     58244
     58245     58249     58245     58246     58245     58247     58245     58248
     58249     58250     58251     58255     58251     58252     58251     58253
     58251     58254     58255     58256     58257     58261     58257     58258
     58257     58259     58257     58260     58261     58262     58263     58267
     58263     58264     58263     58265     58263     58266     58267     58268
     58269     58273     58269     58270     58269     58271     58269     58272
     58273     58274     58275     58279     58275     58276     58275     58277
     58275     58278     58279     58280     58281     58285     58281     58282
     58281     58283     58281     58284     58285     58286     58287     58291
     58287     58288     58287     58289     58287     58290     58291     58292
     58293     58297     58293     58294     58293     58295     58293     58296
     58297     58298     58299     58303     58299     58300     58299     58301
     58299     58302     58303     58304     58305     58309     58305     58306
     58305     58307     58305     58308     58309     58310     58311     58315
     58311     58312     58311     58313     58311     58314     58315     58316
     58317     58321     58317     58318     58317     58319     58317     58320
     58321     58322     58323     58327     58323     58324     58323     58325
     58323     58326     58327     58328     58329     58333     58329     58330
     58329     58331     58329     58332     58333     58334     58335     58339
     58335     58336     58335     58337     58335     58338     58339     58340
     58341     58345     58341     58342     58341     58343     58341     58344
     58345     58346     58347     58351     58347     58348     58347     58349
     58347     58350     58351     58352     58353     58357     58353     58354
     58353     58355     58353     58356     58357     58358     58359     58363
     58359     58360     58359     58361     58359     58362     58363     58364
     58365     58369     58365     58366     58365     58367     58365     58368
     58369     58370     58371     58375     58371     58372     58371     58373
     58371     58374     58375     58376     58377     58381     58377     58378
     58377     58379     58377     58380     58381     58382     58383     58387
     58383     58384     58383     58385     58383     58386     58387     58388
     58389     58393     58389     58390     58389     58391     58389     58392
     58393     58394     58395     58399     58395     58396     58395     58397
     58395     58398     58399     58400     58401     58405     58401     58402
     58401     58403     58401     58404     58405     58406     58407     58411
     58407     58408     58407     58409     58407     58410     58411     58412
     58413     58417     58413     58414     58413     58415     58413     58416
     58417     58418     58419     58423     58419     58420     58419     58421
     58419     58422     58423     58424     58425     58429     58425     58426
     58425     58427     58425     58428     58429     58430     58431     58435
     58431     58432     58431     58433     58431     58434     58435     58436
     58437     58441     58437     58438     58437     58439     58437     58440
     58441     58442     58443     58447     58443     58444     58443     58445
     58443     58446     58447     58448     58449     58453     58449     58450
     58449     58451     58449     58452     58453     58454     58455     58459
     58455     58456     58455     58457     58455     58458     58459     58460
     58461     58465     58461     58462     58461     58463     58461     58464
     58465     58466     58467     58471     58467     58468     58467     58469
     58467     58470     58471     58472     58473     58477     58473     58474
     58473     58475     58473     58476     58477     58478     58479     58483
     58479     58480     58479     58481     58479     58482     58483     58484
     58485     58489     58485     58486     58485     58487     58485     58488
     58489     58490     58491     58495     58491     58492     58491     58493
     58491     58494     58495     58496     58497     58501     58497     58498
     58497     58499     58497     58500     58501     58502     58503     58507
     58503     58504     58503     58505     58503     58506     58507     58508
     58509     58513     58509     58510     58509     58511     58509     58512
     58513     58514     58515     58519     58515     58516     58515     58517
     58515     58518     58519     58520     58521     58525     58521     58522
     58521     58523     58521     58524     58525     58526     58527     58531
     58527     58528     58527     58529     58527     58530     58531     58532
     58533     58537     58533     58534     58533     58535     58533     58536
     58537     58538     58539     58543     58539     58540     58539     58541
     58539     58542     58543     58544     58545     58549     58545     58546
     58545     58547     58545     58548     58549     58550     58551     58555
     58551     58552     58551     58553     58551     58554     58555     58556
     58557     58561     58557     58558     58557     58559     58557     58560
     58561     58562     58563     58567     58563     58564     58563     58565
     58563     58566     58567     58568     58569     58573     58569     58570
     58569     58571     58569     58572     58573     58574     58575     58579
     58575     58576     58575     58577     58575     58578     58579     58580
     58581     58585     58581     58582     58581     58583     58581     58584
     58585     58586     58587     58591     58587     58588     58587     58589
     58587     58590     58591     58592     58593     58597     58593     58594
     58593     58595     58593     58596     58597     58598     58599     58603
     58599     58600     58599     58601     58599     58602     58603     58604
     58605     58609     58605     58606     58605     58607     58605     58608
     58609     58610     58611     58615     58611     58612     58611     58613
     58611     58614     58615     58616     58617     58621     58617     58618
     58617     58619     58617     58620     58621     58622     58623     58627
     58623     58624     58623     58625     58623     58626     58627     58628
     58629     58633     58629     58630     58629     58631     58629     58632
     58633     58634     58635     58639     58635     58636     58635     58637
     58635     58638     58639     58640     58641     58645     58641     58642
     58641     58643     58641     58644     58645     58646     58647     58651
     58647     58648     58647     58649     58647     58650     58651     58652
     58653     58657     58653     58654     58653     58655     58653     58656
     58657     58658     58659     58663     58659     58660     58659     58661
     58659     58662     58663     58664     58665     58669     58665     58666
     58665     58667     58665     58668     58669     58670     58671     58675
     58671     58672     58671     58673     58671     58674     58675     58676
     58677     58681     58677     58678     58677     58679     58677     58680
     58681     58682     58683     58687     58683     58684     58683     58685
     58683     58686     58687     58688     58689     58693     58689     58690
     58689     58691     58689     58692     58693     58694     58695     58699
     58695     58696     58695     58697     58695     58698     58699     58700
     58701     58705     58701     58702     58701     58703     58701     58704
     58705     58706     58707     58711     58707     58708     58707     58709
     58707     58710     58711     58712     58713     58717     58713     58714
     58713     58715     58713     58716     58717     58718     58719     58723
     58719     58720     58719     58721     58719     58722     58723     58724
     58725     58729     58725     58726     58725     58727     58725     58728
     58729     58730     58731     58735     58731     58732     58731     58733
     58731     58734     58735     58736     58737     58741     58737     58738
     58737     58739     58737     58740     58741     58742     58743     58747
     58743     58744     58743     58745     58743     58746     58747     58748
     58749     58753     58749     58750     58749     58751     58749     58752
     58753     58754     58755     58759     58755     58756     58755     58757
     58755     58758     58759     58760     58761     58765     58761     58762
     58761     58763     58761     58764     58765     58766     58767     58771
     58767     58768     58767     58769     58767     58770     58771     58772
     58773     58777     58773     58774     58773     58775     58773     58776
     58777     58778     58779     58783     58779     58780     58779     58781
     58779     58782     58783     58784     58785     58789     58785     58786
     58785     58787     58785     58788     58789     58790     58791     58795
     58791     58792     58791     58793     58791     58794     58795     58796
     58797     58801     58797     58798     58797     58799     58797     58800
     58801     58802     58803     58807     58803     58804     58803     58805
     58803     58806     58807     58808     58809     58813     58809     58810
     58809     58811     58809     58812     58813     58814     58815     58819
     58815     58816     58815     58817     58815     58818     58819     58820
     58821     58825     58821     58822     58821     58823     58821     58824
     58825     58826     58827     58831     58827     58828     58827     58829
     58827     58830     58831     58832     58833     58837     58833     58834
     58833     58835     58833     58836     58837     58838     58839     58843
     58839     58840     58839     58841     58839     58842     58843     58844
     58845     58849     58845     58846     58845     58847     58845     58848
     58849     58850     58851     58855     58851     58852     58851     58853
     58851     58854     58855     58856     58857     58861     58857     58858
     58857     58859     58857     58860     58861     58862     58863     58867
     58863     58864     58863     58865     58863     58866     58867     58868
     58869     58873     58869     58870     58869     58871     58869     58872
     58873     58874     58875     58879     58875     58876     58875     58877
     58875     58878     58879     58880     58881     58885     58881     58882
     58881     58883     58881     58884     58885     58886     58887     58891
     58887     58888     58887     58889     58887     58890     58891     58892
     58893     58897     58893     58894     58893     58895     58893     58896
     58897     58898     58899     58903     58899     58900     58899     58901
     58899     58902     58903     58904     58905     58909     58905     58906
     58905     58907     58905     58908     58909     58910     58911     58915
     58911     58912     58911     58913     58911     58914     58915     58916
     58917     58921     58917     58918     58917     58919     58917     58920
     58921     58922     58923     58927     58923     58924     58923     58925
     58923     58926     58927     58928     58929     58933     58929     58930
     58929     58931     58929     58932     58933     58934     58935     58939
     58935     58936     58935     58937     58935     58938     58939     58940
     58941     58945     58941     58942     58941     58943     58941     58944
     58945     58946     58947     58951     58947     58948     58947     58949
     58947     58950     58951     58952     58953     58957     58953     58954
     58953     58955     58953     58956     58957     58958     58959     58963
     58959     58960     58959     58961     58959     58962     58963     58964
     58965     58969     58965     58966     58965     58967     58965     58968
     58969     58970     58971     58975     58971     58972     58971     58973
     58971     58974     58975     58976     58977     58981     58977     58978
     58977     58979     58977     58980     58981     58982     58983     58987
     58983     58984     58983     58985     58983     58986     58987     58988
     58989     58993     58989     58990     58989     58991     58989     58992
     58993     58994     58995     58999     58995     58996     58995     58997
     58995     58998     58999     59000     59001     59005     59001     59002
     59001     59003     59001     59004     59005     59006     59007     59011
     59007     59008     59007     59009     59007     59010     59011     59012
     59013     59017     59013     59014     59013     59015     59013     59016
     59017     59018     59019     59023     59019     59020     59019     59021
     59019     59022     59023     59024     59025     59029     59025     59026
     59025     59027     59025     59028     59029     59030     59031     59035
     59031     59032     59031     59033     59031     59034     59035     59036
     59037     59041     59037     59038     59037     59039     59037     59040
     59041     59042     59043     59047     59043     59044     59043     59045
     59043     59046     59047     59048     59049     59053     59049     59050
     59049     59051     59049     59052     59053     59054     59055     59059
     59055     59056     59055     59057     59055     59058     59059     59060
     59061     59065     59061     59062     59061     59063     59061     59064
     59065     59066     59067     59071     59067     59068     59067     59069
     59067     59070     59071     59072     59073     59077     59073     59074
     59073     59075     59073     59076     59077     59078     59079     59083
     59079     59080     59079     59081     59079     59082     59083     59084
     59085     59089     59085     59086     59085     59087     59085     59088
     59089     59090     59091     59095     59091     59092     59091     59093
     59091     59094     59095     59096     59097     59101     59097     59098
     59097     59099     59097     59100     59101     59102     59103     59107
     59103     59104     59103     59105     59103     59106     59107     59108
     59109     59113     59109     59110     59109     59111     59109     59112
     59113     59114     59115     59119     59115     59116     59115     59117
     59115     59118     59119     59120     59121     59125     59121     59122
     59121     59123     59121     59124     59125     59126     59127     59131
     59127     59128     59127     59129     59127     59130     59131     59132
     59133     59137     59133     59134     59133     59135     59133     59136
     59137     59138     59139     59143     59139     59140     59139     59141
     59139     59142     59143     59144     59145     59149     59145     59146
     59145     59147     59145     59148     59149     59150     59151     59155
     59151     59152     59151     59153     59151     59154     59155     59156
     59157     59161     59157     59158     59157     59159     59157     59160
     59161     59162     59163     59167     59163     59164     59163     59165
     59163     59166     59167     59168     59169     59173     59169     59170
     59169     59171     59169     59172     59173     59174     59175     59179
     59175     59176     59175     59177     59175     59178     59179     59180
     59181     59185     59181     59182     59181     59183     59181     59184
     59185     59186     59187     59191     59187     59188     59187     59189
     59187     59190     59191     59192     59193     59197     59193     59194
     59193     59195     59193     59196     59197     59198     59199     59203
     59199     59200     59199     59201     59199     59202     59203     59204
     59205     59209     59205     59206     59205     59207     59205     59208
     59209     59210     59211     59215     59211     59212     59211     59213
     59211     59214     59215     59216     59217     59221     59217     59218
     59217     59219     59217     59220     59221     59222     59223     59227
     59223     59224     59223     59225     59223     59226     59227     59228
     59229     59233     59229     59230     59229     59231     59229     59232
     59233     59234     59235     59239     59235     59236     59235     59237
     59235     59238     59239     59240     59241     59245     59241     59242
     59241     59243     59241     59244     59245     59246     59247     59251
     59247     59248     59247     59249     59247     59250     59251     59252
     59253     59257     59253     59254     59253     59255     59253     59256
     59257     59258     59259     59263     59259     59260     59259     59261
     59259     59262     59263     59264     59265     59269     59265     59266
     59265     59267     59265     59268     59269     59270     59271     59275
     59271     59272     59271     59273     59271     59274     59275     59276
     59277     59281     59277     59278     59277     59279     59277     59280
     59281     59282     59283     59287     59283     59284     59283     59285
     59283     59286     59287     59288     59289     59293     59289     59290
     59289     59291     59289     59292     59293     59294     59295     59299
     59295     59296     59295     59297     59295     59298     59299     59300
     59301     59305     59301     59302     59301     59303     59301     59304
     59305     59306     59307     59311     59307     59308     59307     59309
     59307     59310     59311     59312     59313     59317     59313     59314
     59313     59315     59313     59316     59317     59318     59319     59323
     59319     59320     59319     59321     59319     59322     59323     59324
     59325     59329     59325     59326     59325     59327     59325     59328
     59329     59330     59331     59335     59331     59332     59331     59333
     59331     59334     59335     59336     59337     59341     59337     59338
     59337     59339     59337     59340     59341     59342     59343     59347
     59343     59344     59343     59345     59343     59346     59347     59348
     59349     59353     59349     59350     59349     59351     59349     59352
     59353     59354     59355     59359     59355     59356     59355     59357
     59355     59358     59359     59360     59361     59365     59361     59362
     59361     59363     59361     59364     59365     59366     59367     59371
     59367     59368     59367     59369     59367     59370     59371     59372
     59373     59377     59373     59374     59373     59375     59373     59376
     59377     59378     59379     59383     59379     59380     59379     59381
     59379     59382     59383     59384     59385     59389     59385     59386
     59385     59387     59385     59388     59389     59390     59391     59395
     59391     59392     59391     59393     59391     59394     59395     59396
     59397     59401     59397     59398     59397     59399     59397     59400
     59401     59402     59403     59407     59403     59404     59403     59405
     59403     59406     59407     59408     59409     59413     59409     59410
     59409     59411     59409     59412     59413     59414     59415     59419
     59415     59416     59415     59417     59415     59418     59419     59420
     59421     59425     59421     59422     59421     59423     59421     59424
     59425     59426     59427     59431     59427     59428     59427     59429
     59427     59430     59431     59432     59433     59437     59433     59434
     59433     59435     59433     59436     59437     59438     59439     59443
     59439     59440     59439     59441     59439     59442     59443     59444
     59445     59449     59445     59446     59445     59447     59445     59448
     59449     59450     59451     59455     59451     59452     59451     59453
     59451     59454     59455     59456     59457     59461     59457     59458
     59457     59459     59457     59460     59461     59462     59463     59467
     59463     59464     59463     59465     59463     59466     59467     59468
     59469     59473     59469     59470     59469     59471     59469     59472
     59473     59474     59475     59479     59475     59476     59475     59477
     59475     59478     59479     59480     59481     59485     59481     59482
     59481     59483     59481     59484     59485     59486     59487     59491
     59487     59488     59487     59489     59487     59490     59491     59492
     59493     59497     59493     59494     59493     59495     59493     59496
     59497     59498     59499     59503     59499     59500     59499     59501
     59499     59502     59503     59504     59505     59509     59505     59506
     59505     59507     59505     59508     59509     59510     59511     59515
     59511     59512     59511     59513     59511     59514     59515     59516
     59517     59521     59517     59518     59517     59519     59517     59520
     59521     59522     59523     59527     59523     59524     59523     59525
     59523     59526     59527     59528     59529     59533     59529     59530
     59529     59531     59529     59532     59533     59534     59535     59539
     59535     59536     59535     59537     59535     59538     59539     59540
     59541     59545     59541     59542     59541     59543     59541     59544
     59545     59546     59547     59551     59547     59548     59547     59549
     59547     59550     59551     59552     59553     59557     59553     59554
     59553     59555     59553     59556     59557     59558     59559     59563
     59559     59560     59559     59561     59559     59562     59563     59564
     59565     59569     59565     59566     59565     59567     59565     59568
     59569     59570     59571     59575     59571     59572     59571     59573
     59571     59574     59575     59576     59577     59581     59577     59578
     59577     59579     59577     59580     59581     59582     59583     59587
     59583     59584     59583     59585     59583     59586     59587     59588
     59589     59593     59589     59590     59589     59591     59589     59592
     59593     59594     59595     59599     59595     59596     59595     59597
     59595     59598     59599     59600     59601     59605     59601     59602
     59601     59603     59601     59604     59605     59606     59607     59611
     59607     59608     59607     59609     59607     59610     59611     59612
     59613     59617     59613     59614     59613     59615     59613     59616
     59617     59618     59619     59623     59619     59620     59619     59621
     59619     59622     59623     59624     59625     59629     59625     59626
     59625     59627     59625     59628     59629     59630     59631     59635
     59631     59632     59631     59633     59631     59634     59635     59636
     59637     59641     59637     59638     59637     59639     59637     59640
     59641     59642     59643     59647     59643     59644     59643     59645
     59643     59646     59647     59648     59649     59653     59649     59650
     59649     59651     59649     59652     59653     59654     59655     59659
     59655     59656     59655     59657     59655     59658     59659     59660
     59661     59665     59661     59662     59661     59663     59661     59664
     59665     59666     59667     59671     59667     59668     59667     59669
     59667     59670     59671     59672     59673     59677     59673     59674
     59673     59675     59673     59676     59677     59678     59679     59683
     59679     59680     59679     59681     59679     59682     59683     59684
     59685     59689     59685     59686     59685     59687     59685     59688
     59689     59690     59691     59695     59691     59692     59691     59693
     59691     59694     59695     59696     59697     59701     59697     59698
     59697     59699     59697     59700     59701     59702     59703     59707
     59703     59704     59703     59705     59703     59706     59707     59708
     59709     59713     59709     59710     59709     59711     59709     59712
     59713     59714     59715     59719     59715     59716     59715     59717
     59715     59718     59719     59720     59721     59725     59721     59722
     59721     59723     59721     59724     59725     59726     59727     59731
     59727     59728     59727     59729     59727     59730     59731     59732
     59733     59737     59733     59734     59733     59735     59733     59736
     59737     59738     59739     59743     59739     59740     59739     59741
     59739     59742     59743     59744     59745     59749     59745     59746
     59745     59747     59745     59748     59749     59750     59751     59755
     59751     59752     59751     59753     59751     59754     59755     59756
     59757     59761     59757     59758     59757     59759     59757     59760
     59761     59762     59763     59767     59763     59764     59763     59765
     59763     59766     59767     59768     59769     59773     59769     59770
     59769     59771     59769     59772     59773     59774     59775     59779
     59775     59776     59775     59777     59775     59778     59779     59780
     59781     59785     59781     59782     59781     59783     59781     59784
     59785     59786     59787     59791     59787     59788     59787     59789
     59787     59790     59791     59792     59793     59797     59793     59794
     59793     59795     59793     59796     59797     59798     59799     59803
     59799     59800     59799     59801     59799     59802     59803     59804
     59805     59809     59805     59806     59805     59807     59805     59808
     59809     59810     59811     59815     59811     59812     59811     59813
     59811     59814     59815     59816     59817     59821     59817     59818
     59817     59819     59817     59820     59821     59822     59823     59827
     59823     59824     59823     59825     59823     59826     59827     59828
     59829     59833     59829     59830     59829     59831     59829     59832
     59833     59834     59835     59839     59835     59836     59835     59837
     59835     59838     59839     59840     59841     59845     59841     59842
     59841     59843     59841     59844     59845     59846     59847     59851
     59847     59848     59847     59849     59847     59850     59851     59852
     59853     59857     59853     59854     59853     59855     59853     59856
     59857     59858     59859     59863     59859     59860     59859     59861
     59859     59862     59863     59864     59865     59869     59865     59866
     59865     59867     59865     59868     59869     59870     59871     59875
     59871     59872     59871     59873     59871     59874     59875     59876
     59877     59881     59877     59878     59877     59879     59877     59880
     59881     59882     59883     59887     59883     59884     59883     59885
     59883     59886     59887     59888     59889     59893     59889     59890
     59889     59891     59889     59892     59893     59894     59895     59899
     59895     59896     59895     59897     59895     59898     59899     59900
     59901     59905     59901     59902     59901     59903     59901     59904
     59905     59906     59907     59911     59907     59908     59907     59909
     59907     59910     59911     59912     59913     59917     59913     59914
     59913     59915     59913     59916     59917     59918     59919     59923
     59919     59920     59919     59921     59919     59922     59923     59924
     59925     59929     59925     59926     59925     59927     59925     59928
     59929     59930     59931     59935     59931     59932     59931     59933
     59931     59934     59935     59936     59937     59941     59937     59938
     59937     59939     59937     59940     59941     59942     59943     59947
     59943     59944     59943     59945     59943     59946     59947     59948
     59949     59953     59949     59950     59949     59951     59949     59952
     59953     59954     59955     59959     59955     59956     59955     59957
     59955     59958     59959     59960     59961     59965     59961     59962
     59961     59963     59961     59964     59965     59966     59967     59971
     59967     59968     59967     59969     59967     59970     59971     59972
     59973     59977     59973     59974     59973     59975     59973     59976
     59977     59978     59979     59983     59979     59980     59979     59981
     59979     59982     59983     59984     59985     59989     59985     59986
     59985     59987     59985     59988     59989     59990     59991     59995
     59991     59992     59991     59993     59991     59994     59995     59996
     59997     60001     59997     59998     59997     59999     59997     60000
     60001     60002     60003     60007     60003     60004     60003     60005
     60003     60006     60007     60008     60009     60013     60009     60010
     60009     60011     60009     60012     60013     60014     60015     60019
     60015     60016     60015     60017     60015     60018     60019     60020
     60021     60025     60021     60022     60021     60023     60021     60024
     60025     60026     60027     60031     60027     60028     60027     60029
     60027     60030     60031     60032     60033     60037     60033     60034
     60033     60035     60033     60036     60037     60038     60039     60043
     60039     60040     60039     60041     60039     60042     60043     60044
     60045     60049     60045     60046     60045     60047     60045     60048
     60049     60050     60051     60055     60051     60052     60051     60053
     60051     60054     60055     60056     60057     60061     60057     60058
     60057     60059     60057     60060     60061     60062     60063     60067
     60063     60064     60063     60065     60063     60066     60067     60068
     60069     60073     60069     60070     60069     60071     60069     60072
     60073     60074     60075     60079     60075     60076     60075     60077
     60075     60078     60079     60080     60081     60085     60081     60082
     60081     60083     60081     60084     60085     60086     60087     60091
     60087     60088     60087     60089     60087     60090     60091     60092
     60093     60097     60093     60094     60093     60095     60093     60096
     60097     60098     60099     60103     60099     60100     60099     60101
     60099     60102     60103     60104     60105     60109     60105     60106
     60105     60107     60105     60108     60109     60110     60111     60115
     60111     60112     60111     60113     60111     60114     60115     60116
     60117     60121     60117     60118     60117     60119     60117     60120
     60121     60122     60123     60127     60123     60124     60123     60125
     60123     60126     60127     60128     60129     60133     60129     60130
     60129     60131     60129     60132     60133     60134     60135     60139
     60135     60136     60135     60137     60135     60138     60139     60140
     60141     60145     60141     60142     60141     60143     60141     60144
     60145     60146     60147     60151     60147     60148     60147     60149
     60147     60150     60151     60152     60153     60157     60153     60154
     60153     60155     60153     60156     60157     60158     60159     60163
     60159     60160     60159     60161     60159     60162     60163     60164
     60165     60169     60165     60166     60165     60167     60165     60168
     60169     60170     60171     60175     60171     60172     60171     60173
     60171     60174     60175     60176     60177     60181     60177     60178
     60177     60179     60177     60180     60181     60182     60183     60187
     60183     60184     60183     60185     60183     60186     60187     60188
     60189     60193     60189     60190     60189     60191     60189     60192
     60193     60194     60195     60199     60195     60196     60195     60197
     60195     60198     60199     60200     60201     60205     60201     60202
     60201     60203     60201     60204     60205     60206     60207     60211
     60207     60208     60207     60209     60207     60210     60211     60212
     60213     60217     60213     60214     60213     60215     60213     60216
     60217     60218     60219     60223     60219     60220     60219     60221
     60219     60222     60223     60224     60225     60229     60225     60226
     60225     60227     60225     60228     60229     60230     60231     60235
     60231     60232     60231     60233     60231     60234     60235     60236
     60237     60241     60237     60238     60237     60239     60237     60240
     60241     60242     60243     60247     60243     60244     60243     60245
     60243     60246     60247     60248     60249     60253     60249     60250
     60249     60251     60249     60252     60253     60254     60255     60259
     60255     60256     60255     60257     60255     60258     60259     60260
     60261     60265     60261     60262     60261     60263     60261     60264
     60265     60266     60267     60271     60267     60268     60267     60269
     60267     60270     60271     60272     60273     60277     60273     60274
     60273     60275     60273     60276     60277     60278     60279     60283
     60279     60280     60279     60281     60279     60282     60283     60284
     60285     60289     60285     60286     60285     60287     60285     60288
     60289     60290     60291     60295     60291     60292     60291     60293
     60291     60294     60295     60296     60297     60301     60297     60298
     60297     60299     60297     60300     60301     60302     60303     60307
     60303     60304     60303     60305     60303     60306     60307     60308
     60309     60313     60309     60310     60309     60311     60309     60312
     60313     60314     60315     60319     60315     60316     60315     60317
     60315     60318     60319     60320     60321     60325     60321     60322
     60321     60323     60321     60324     60325     60326     60327     60331
     60327     60328     60327     60329     60327     60330     60331     60332
     60333     60337     60333     60334     60333     60335     60333     60336
     60337     60338     60339     60343     60339     60340     60339     60341
     60339     60342     60343     60344     60345     60349     60345     60346
     60345     60347     60345     60348     60349     60350     60351     60355
     60351     60352     60351     60353     60351     60354     60355     60356
     60357     60361     60357     60358     60357     60359     60357     60360
     60361     60362     60363     60367     60363     60364     60363     60365
     60363     60366     60367     60368     60369     60373     60369     60370
     60369     60371     60369     60372     60373     60374     60375     60379
     60375     60376     60375     60377     60375     60378     60379     60380
     60381     60385     60381     60382     60381     60383     60381     60384
     60385     60386     60387     60391     60387     60388     60387     60389
     60387     60390     60391     60392     60393     60397     60393     60394
     60393     60395     60393     60396     60397     60398     60399     60403
     60399     60400     60399     60401     60399     60402     60403     60404
     60405     60409     60405     60406     60405     60407     60405     60408
     60409     60410     60411     60415     60411     60412     60411     60413
     60411     60414     60415     60416     60417     60421     60417     60418
     60417     60419     60417     60420     60421     60422     60423     60427
     60423     60424     60423     60425     60423     60426     60427     60428
     60429     60433     60429     60430     60429     60431     60429     60432
     60433     60434     60435     60439     60435     60436     60435     60437
     60435     60438     60439     60440     60441     60445     60441     60442
     60441     60443     60441     60444     60445     60446     60447     60451
     60447     60448     60447     60449     60447     60450     60451     60452
     60453     60457     60453     60454     60453     60455     60453     60456
     60457     60458     60459     60463     60459     60460     60459     60461
     60459     60462     60463     60464     60465     60469     60465     60466
     60465     60467     60465     60468     60469     60470     60471     60475
     60471     60472     60471     60473     60471     60474     60475     60476
     60477     60481     60477     60478     60477     60479     60477     60480
     60481     60482     60483     60487     60483     60484     60483     60485
     60483     60486     60487     60488     60489     60493     60489     60490
     60489     60491     60489     60492     60493     60494     60495     60499
     60495     60496     60495     60497     60495     60498     60499     60500
     60501     60505     60501     60502     60501     60503     60501     60504
     60505     60506     60507     60511     60507     60508     60507     60509
     60507     60510     60511     60512     60513     60517     60513     60514
     60513     60515     60513     60516     60517     60518     60519     60523
     60519     60520     60519     60521     60519     60522     60523     60524
     60525     60529     60525     60526     60525     60527     60525     60528
     60529     60530     60531     60535     60531     60532     60531     60533
     60531     60534     60535     60536     60537     60541     60537     60538
     60537     60539     60537     60540     60541     60542     60543     60547
     60543     60544     60543     60545     60543     60546     60547     60548
     60549     60553     60549     60550     60549     60551     60549     60552
     60553     60554     60555     60559     60555     60556     60555     60557
     60555     60558     60559     60560     60561     60565     60561     60562
     60561     60563     60561     60564     60565     60566     60567     60571
     60567     60568     60567     60569     60567     60570     60571     60572
     60573     60577     60573     60574     60573     60575     60573     60576
     60577     60578     60579     60583     60579     60580     60579     60581
     60579     60582     60583     60584     60585     60589     60585     60586
     60585     60587     60585     60588     60589     60590     60591     60595
     60591     60592     60591     60593     60591     60594     60595     60596
     60597     60601     60597     60598     60597     60599     60597     60600
     60601     60602     60603     60607     60603     60604     60603     60605
     60603     60606     60607     60608     60609     60613     60609     60610
     60609     60611     60609     60612     60613     60614     60615     60619
     60615     60616     60615     60617     60615     60618     60619     60620
     60621     60625     60621     60622     60621     60623     60621     60624
     60625     60626     60627     60631     60627     60628     60627     60629
     60627     60630     60631     60632     60633     60637     60633     60634
     60633     60635     60633     60636     60637     60638     60639     60643
     60639     60640     60639     60641     60639     60642     60643     60644
     60645     60649     60645     60646     60645     60647     60645     60648
     60649     60650     60651     60655     60651     60652     60651     60653
     60651     60654     60655     60656     60657     60661     60657     60658
     60657     60659     60657     60660     60661     60662     60663     60667
     60663     60664     60663     60665     60663     60666     60667     60668
     60669     60673     60669     60670     60669     60671     60669     60672
     60673     60674     60675     60679     60675     60676     60675     60677
     60675     60678     60679     60680     60681     60685     60681     60682
     60681     60683     60681     60684     60685     60686     60687     60691
     60687     60688     60687     60689     60687     60690     60691     60692
     60693     60697     60693     60694     60693     60695     60693     60696
     60697     60698     60699     60703     60699     60700     60699     60701
     60699     60702     60703     60704     60705     60709     60705     60706
     60705     60707     60705     60708     60709     60710     60711     60715
     60711     60712     60711     60713     60711     60714     60715     60716
     60717     60721     60717     60718     60717     60719     60717     60720
     60721     60722     60723     60727     60723     60724     60723     60725
     60723     60726     60727     60728     60729     60733     60729     60730
     60729     60731     60729     60732     60733     60734     60735     60739
     60735     60736     60735     60737     60735     60738     60739     60740
     60741     60745     60741     60742     60741     60743     60741     60744
     60745     60746     60747     60751     60747     60748     60747     60749
     60747     60750     60751     60752     60753     60757     60753     60754
     60753     60755     60753     60756     60757     60758     60759     60763
     60759     60760     60759     60761     60759     60762     60763     60764
     60765     60769     60765     60766     60765     60767     60765     60768
     60769     60770     60771     60775     60771     60772     60771     60773
     60771     60774     60775     60776     60777     60781     60777     60778
     60777     60779     60777     60780     60781     60782     60783     60787
     60783     60784     60783     60785     60783     60786     60787     60788
     60789     60793     60789     60790     60789     60791     60789     60792
     60793     60794     60795     60799     60795     60796     60795     60797
     60795     60798     60799     60800     60801     60805     60801     60802
     60801     60803     60801     60804     60805     60806     60807     60811
     60807     60808     60807     60809     60807     60810     60811     60812
     60813     60817     60813     60814     60813     60815     60813     60816
     60817     60818     60819     60823     60819     60820     60819     60821
     60819     60822     60823     60824     60825     60829     60825     60826
     60825     60827     60825     60828     60829     60830     60831     60835
     60831     60832     60831     60833     60831     60834     60835     60836
     60837     60841     60837     60838     60837     60839     60837     60840
     60841     60842     60843     60847     60843     60844     60843     60845
     60843     60846     60847     60848     60849     60853     60849     60850
     60849     60851     60849     60852     60853     60854     60855     60859
     60855     60856     60855     60857     60855     60858     60859     60860
     60861     60865     60861     60862     60861     60863     60861     60864
     60865     60866     60867     60871     60867     60868     60867     60869
     60867     60870     60871     60872     60873     60877     60873     60874
     60873     60875     60873     60876     60877     60878     60879     60883
     60879     60880     60879     60881     60879     60882     60883     60884
     60885     60889     60885     60886     60885     60887     60885     60888
     60889     60890     60891     60895     60891     60892     60891     60893
     60891     60894     60895     60896     60897     60901     60897     60898
     60897     60899     60897     60900     60901     60902     60903     60907
     60903     60904     60903     60905     60903     60906     60907     60908
     60909     60913     60909     60910     60909     60911     60909     60912
     60913     60914     60915     60919     60915     60916     60915     60917
     60915     60918     60919     60920     60921     60925     60921     60922
     60921     60923     60921     60924     60925     60926     60927     60931
     60927     60928     60927     60929     60927     60930     60931     60932
     60933     60937     60933     60934     60933     60935     60933     60936
     60937     60938     60939     60943     60939     60940     60939     60941
     60939     60942     60943     60944     60945     60949     60945     60946
     60945     60947     60945     60948     60949     60950     60951     60955
     60951     60952     60951     60953     60951     60954     60955     60956
     60957     60961     60957     60958     60957     60959     60957     60960
     60961     60962     60963     60967     60963     60964     60963     60965
     60963     60966     60967     60968     60969     60973     60969     60970
     60969     60971     60969     60972     60973     60974     60975     60979
     60975     60976     60975     60977     60975     60978     60979     60980
     60981     60985     60981     60982     60981     60983     60981     60984
     60985     60986     60987     60991     60987     60988     60987     60989
     60987     60990     60991     60992     60993     60997     60993     60994
     60993     60995     60993     60996     60997     60998     60999     61003
     60999     61000     60999     61001     60999     61002     61003     61004
     61005     61009     61005     61006     61005     61007     61005     61008
     61009     61010     61011     61015     61011     61012     61011     61013
     61011     61014     61015     61016     61017     61021     61017     61018
     61017     61019     61017     61020     61021     61022     61023     61027
     61023     61024     61023     61025     61023     61026     61027     61028
     61029     61033     61029     61030     61029     61031     61029     61032
     61033     61034     61035     61039     61035     61036     61035     61037
     61035     61038     61039     61040     61041     61045     61041     61042
     61041     61043     61041     61044     61045     61046     61047     61051
     61047     61048     61047     61049     61047     61050     61051     61052
     61053     61057     61053     61054     61053     61055     61053     61056
     61057     61058     61059     61063     61059     61060     61059     61061
     61059     61062     61063     61064     61065     61069     61065     61066
     61065     61067     61065     61068     61069     61070     61071     61075
     61071     61072     61071     61073     61071     61074     61075     61076
     61077     61081     61077     61078     61077     61079     61077     61080
     61081     61082     61083     61087     61083     61084     61083     61085
     61083     61086     61087     61088     61089     61093     61089     61090
     61089     61091     61089     61092     61093     61094     61095     61099
     61095     61096     61095     61097     61095     61098     61099     61100
     61101     61105     61101     61102     61101     61103     61101     61104
     61105     61106     61107     61111     61107     61108     61107     61109
     61107     61110     61111     61112     61113     61117     61113     61114
     61113     61115     61113     61116     61117     61118     61119     61123
     61119     61120     61119     61121     61119     61122     61123     61124
     61125     61129     61125     61126     61125     61127     61125     61128
     61129     61130     61131     61135     61131     61132     61131     61133
     61131     61134     61135     61136     61137     61141     61137     61138
     61137     61139     61137     61140     61141     61142     61143     61147
     61143     61144     61143     61145     61143     61146     61147     61148
     61149     61153     61149     61150     61149     61151     61149     61152
     61153     61154     61155     61159     61155     61156     61155     61157
     61155     61158     61159     61160     61161     61165     61161     61162
     61161     61163     61161     61164     61165     61166     61167     61171
     61167     61168     61167     61169     61167     61170     61171     61172
     61173     61177     61173     61174     61173     61175     61173     61176
     61177     61178     61179     61183     61179     61180     61179     61181
     61179     61182     61183     61184     61185     61189     61185     61186
     61185     61187     61185     61188     61189     61190     61191     61195
     61191     61192     61191     61193     61191     61194     61195     61196
     61197     61201     61197     61198     61197     61199     61197     61200
     61201     61202     61203     61207     61203     61204     61203     61205
     61203     61206     61207     61208     61209     61213     61209     61210
     61209     61211     61209     61212     61213     61214     61215     61219
     61215     61216     61215     61217     61215     61218     61219     61220
     61221     61225     61221     61222     61221     61223     61221     61224
     61225     61226     61227     61231     61227     61228     61227     61229
     61227     61230     61231     61232     61233     61237     61233     61234
     61233     61235     61233     61236     61237     61238     61239     61243
     61239     61240     61239     61241     61239     61242     61243     61244
     61245     61249     61245     61246     61245     61247     61245     61248
     61249     61250     61251     61255     61251     61252     61251     61253
     61251     61254     61255     61256     61257     61261     61257     61258
     61257     61259     61257     61260     61261     61262     61263     61267
     61263     61264     61263     61265     61263     61266     61267     61268
     61269     61273     61269     61270     61269     61271     61269     61272
     61273     61274     61275     61279     61275     61276     61275     61277
     61275     61278     61279     61280     61281     61285     61281     61282
     61281     61283     61281     61284     61285     61286     61287     61291
     61287     61288     61287     61289     61287     61290     61291     61292
     61293     61297     61293     61294     61293     61295     61293     61296
     61297     61298     61299     61303     61299     61300     61299     61301
     61299     61302     61303     61304     61305     61309     61305     61306
     61305     61307     61305     61308     61309     61310     61311     61315
     61311     61312     61311     61313     61311     61314     61315     61316
     61317     61321     61317     61318     61317     61319     61317     61320
     61321     61322     61323     61327     61323     61324     61323     61325
     61323     61326     61327     61328     61329     61333     61329     61330
     61329     61331     61329     61332     61333     61334     61335     61339
     61335     61336     61335     61337     61335     61338     61339     61340
     61341     61345     61341     61342     61341     61343     61341     61344
     61345     61346     61347     61351     61347     61348     61347     61349
     61347     61350     61351     61352     61353     61357     61353     61354
     61353     61355     61353     61356     61357     61358     61359     61363
     61359     61360     61359     61361     61359     61362     61363     61364
     61365     61369     61365     61366     61365     61367     61365     61368
     61369     61370     61371     61375     61371     61372     61371     61373
     61371     61374     61375     61376     61377     61381     61377     61378
     61377     61379     61377     61380     61381     61382     61383     61387
     61383     61384     61383     61385     61383     61386     61387     61388
     61389     61393     61389     61390     61389     61391     61389     61392
     61393     61394     61395     61399     61395     61396     61395     61397
     61395     61398     61399     61400     61401     61405     61401     61402
     61401     61403     61401     61404     61405     61406     61407     61411
     61407     61408     61407     61409     61407     61410     61411     61412
     61413     61417     61413     61414     61413     61415     61413     61416
     61417     61418     61419     61423     61419     61420     61419     61421
     61419     61422     61423     61424     61425     61429     61425     61426
     61425     61427     61425     61428     61429     61430     61431     61435
     61431     61432     61431     61433     61431     61434     61435     61436
     61437     61441     61437     61438     61437     61439     61437     61440
     61441     61442     61443     61447     61443     61444     61443     61445
     61443     61446     61447     61448     61449     61453     61449     61450
     61449     61451     61449     61452     61453     61454     61455     61459
     61455     61456     61455     61457     61455     61458     61459     61460
     61461     61465     61461     61462     61461     61463     61461     61464
     61465     61466     61467     61471     61467     61468     61467     61469
     61467     61470     61471     61472     61473     61477     61473     61474
     61473     61475     61473     61476     61477     61478     61479     61483
     61479     61480     61479     61481     61479     61482     61483     61484
     61485     61489     61485     61486     61485     61487     61485     61488
     61489     61490     61491     61495     61491     61492     61491     61493
     61491     61494     61495     61496     61497     61501     61497     61498
     61497     61499     61497     61500     61501     61502     61503     61507
     61503     61504     61503     61505     61503     61506     61507     61508
     61509     61513     61509     61510     61509     61511     61509     61512
     61513     61514     61515     61519     61515     61516     61515     61517
     61515     61518     61519     61520     61521     61525     61521     61522
     61521     61523     61521     61524     61525     61526     61527     61531
     61527     61528     61527     61529     61527     61530     61531     61532
     61533     61537     61533     61534     61533     61535     61533     61536
     61537     61538     61539     61543     61539     61540     61539     61541
     61539     61542     61543     61544     61545     61549     61545     61546
     61545     61547     61545     61548     61549     61550     61551     61555
     61551     61552     61551     61553     61551     61554     61555     61556
     61557     61561     61557     61558     61557     61559     61557     61560
     61561     61562     61563     61567     61563     61564     61563     61565
     61563     61566     61567     61568     61569     61573     61569     61570
     61569     61571     61569     61572     61573     61574     61575     61579
     61575     61576     61575     61577     61575     61578     61579     61580
     61581     61585     61581     61582     61581     61583     61581     61584
     61585     61586     61587     61591     61587     61588     61587     61589
     61587     61590     61591     61592     61593     61597     61593     61594
     61593     61595     61593     61596     61597     61598     61599     61603
     61599     61600     61599     61601     61599     61602     61603     61604
     61605     61609     61605     61606     61605     61607     61605     61608
     61609     61610     61611     61615     61611     61612     61611     61613
     61611     61614     61615     61616     61617     61621     61617     61618
     61617     61619     61617     61620     61621     61622     61623     61627
     61623     61624     61623     61625     61623     61626     61627     61628
     61629     61633     61629     61630     61629     61631     61629     61632
     61633     61634     61635     61639     61635     61636     61635     61637
     61635     61638     61639     61640     61641     61645     61641     61642
     61641     61643     61641     61644     61645     61646     61647     61651
     61647     61648     61647     61649     61647     61650     61651     61652
     61653     61657     61653     61654     61653     61655     61653     61656
     61657     61658     61659     61663     61659     61660     61659     61661
     61659     61662     61663     61664     61665     61669     61665     61666
     61665     61667     61665     61668     61669     61670     61671     61675
     61671     61672     61671     61673     61671     61674     61675     61676
     61677     61681     61677     61678     61677     61679     61677     61680
     61681     61682     61683     61687     61683     61684     61683     61685
     61683     61686     61687     61688     61689     61693     61689     61690
     61689     61691     61689     61692     61693     61694     61695     61699
     61695     61696     61695     61697     61695     61698     61699     61700
     61701     61705     61701     61702     61701     61703     61701     61704
     61705     61706     61707     61711     61707     61708     61707     61709
     61707     61710     61711     61712     61713     61717     61713     61714
     61713     61715     61713     61716     61717     61718     61719     61723
     61719     61720     61719     61721     61719     61722     61723     61724
     61725     61729     61725     61726     61725     61727     61725     61728
     61729     61730     61731     61735     61731     61732     61731     61733
     61731     61734     61735     61736     61737     61741     61737     61738
     61737     61739     61737     61740     61741     61742     61743     61747
     61743     61744     61743     61745     61743     61746     61747     61748
     61749     61753     61749     61750     61749     61751     61749     61752
     61753     61754     61755     61759     61755     61756     61755     61757
     61755     61758     61759     61760     61761     61765     61761     61762
     61761     61763     61761     61764     61765     61766     61767     61771
     61767     61768     61767     61769     61767     61770     61771     61772
     61773     61777     61773     61774     61773     61775     61773     61776
     61777     61778     61779     61783     61779     61780     61779     61781
     61779     61782     61783     61784     61785     61789     61785     61786
     61785     61787     61785     61788     61789     61790     61791     61795
     61791     61792     61791     61793     61791     61794     61795     61796
     61797     61801     61797     61798     61797     61799     61797     61800
     61801     61802     61803     61807     61803     61804     61803     61805
     61803     61806     61807     61808     61809     61813     61809     61810
     61809     61811     61809     61812     61813     61814     61815     61819
     61815     61816     61815     61817     61815     61818     61819     61820
     61821     61825     61821     61822     61821     61823     61821     61824
     61825     61826     61827     61831     61827     61828     61827     61829
     61827     61830     61831     61832     61833     61837     61833     61834
     61833     61835     61833     61836     61837     61838     61839     61843
     61839     61840     61839     61841     61839     61842     61843     61844
     61845     61849     61845     61846     61845     61847     61845     61848
     61849     61850     61851     61855     61851     61852     61851     61853
     61851     61854     61855     61856     61857     61861     61857     61858
     61857     61859     61857     61860     61861     61862     61863     61867
     61863     61864     61863     61865     61863     61866     61867     61868
     61869     61873     61869     61870     61869     61871     61869     61872
     61873     61874     61875     61879     61875     61876     61875     61877
     61875     61878     61879     61880     61881     61885     61881     61882
     61881     61883     61881     61884     61885     61886     61887     61891
     61887     61888     61887     61889     61887     61890     61891     61892
     61893     61897     61893     61894     61893     61895     61893     61896
     61897     61898     61899     61903     61899     61900     61899     61901
     61899     61902     61903     61904     61905     61909     61905     61906
     61905     61907     61905     61908     61909     61910     61911     61915
     61911     61912     61911     61913     61911     61914     61915     61916
     61917     61921     61917     61918     61917     61919     61917     61920
     61921     61922     61923     61927     61923     61924     61923     61925
     61923     61926     61927     61928     61929     61933     61929     61930
     61929     61931     61929     61932     61933     61934     61935     61939
     61935     61936     61935     61937     61935     61938     61939     61940
     61941     61945     61941     61942     61941     61943     61941     61944
     61945     61946     61947     61951     61947     61948     61947     61949
     61947     61950     61951     61952     61953     61957     61953     61954
     61953     61955     61953     61956     61957     61958     61959     61963
     61959     61960     61959     61961     61959     61962     61963     61964
     61965     61969     61965     61966     61965     61967     61965     61968
     61969     61970     61971     61975     61971     61972     61971     61973
     61971     61974     61975     61976     61977     61981     61977     61978
     61977     61979     61977     61980     61981     61982     61983     61987
     61983     61984     61983     61985     61983     61986     61987     61988
     61989     61993     61989     61990     61989     61991     61989     61992
     61993     61994     61995     61999     61995     61996     61995     61997
     61995     61998     61999     62000     62001     62005     62001     62002
     62001     62003     62001     62004     62005     62006     62007     62011
     62007     62008     62007     62009     62007     62010     62011     62012
     62013     62017     62013     62014     62013     62015     62013     62016
     62017     62018     62019     62023     62019     62020     62019     62021
     62019     62022     62023     62024     62025     62029     62025     62026
     62025     62027     62025     62028     62029     62030     62031     62035
     62031     62032     62031     62033     62031     62034     62035     62036
     62037     62041     62037     62038     62037     62039     62037     62040
     62041     62042     62043     62047     62043     62044     62043     62045
     62043     62046     62047     62048     62049     62053     62049     62050
     62049     62051     62049     62052     62053     62054     62055     62059
     62055     62056     62055     62057     62055     62058     62059     62060
     62061     62065     62061     62062     62061     62063     62061     62064
     62065     62066     62067     62071     62067     62068     62067     62069
     62067     62070     62071     62072     62073     62077     62073     62074
     62073     62075     62073     62076     62077     62078     62079     62083
     62079     62080     62079     62081     62079     62082     62083     62084
     62085     62089     62085     62086     62085     62087     62085     62088
     62089     62090     62091     62095     62091     62092     62091     62093
     62091     62094     62095     62096     62097     62101     62097     62098
     62097     62099     62097     62100     62101     62102     62103     62107
     62103     62104     62103     62105     62103     62106     62107     62108
     62109     62113     62109     62110     62109     62111     62109     62112
     62113     62114     62115     62119     62115     62116     62115     62117
     62115     62118     62119     62120     62121     62125     62121     62122
     62121     62123     62121     62124     62125     62126     62127     62131
     62127     62128     62127     62129     62127     62130     62131     62132
     62133     62137     62133     62134     62133     62135     62133     62136
     62137     62138     62139     62143     62139     62140     62139     62141
     62139     62142     62143     62144     62145     62149     62145     62146
     62145     62147     62145     62148     62149     62150     62151     62155
     62151     62152     62151     62153     62151     62154     62155     62156
     62157     62161     62157     62158     62157     62159     62157     62160
     62161     62162     62163     62167     62163     62164     62163     62165
     62163     62166     62167     62168     62169     62173     62169     62170
     62169     62171     62169     62172     62173     62174     62175     62179
     62175     62176     62175     62177     62175     62178     62179     62180
     62181     62185     62181     62182     62181     62183     62181     62184
     62185     62186     62187     62191     62187     62188     62187     62189
     62187     62190     62191     62192     62193     62197     62193     62194
     62193     62195     62193     62196     62197     62198     62199     62203
     62199     62200     62199     62201     62199     62202     62203     62204
     62205     62209     62205     62206     62205     62207     62205     62208
     62209     62210     62211     62215     62211     62212     62211     62213
     62211     62214     62215     62216     62217     62221     62217     62218
     62217     62219     62217     62220     62221     62222     62223     62227
     62223     62224     62223     62225     62223     62226     62227     62228
     62229     62233     62229     62230     62229     62231     62229     62232
     62233     62234     62235     62239     62235     62236     62235     62237
     62235     62238     62239     62240     62241     62245     62241     62242
     62241     62243     62241     62244     62245     62246     62247     62251
     62247     62248     62247     62249     62247     62250     62251     62252
     62253     62257     62253     62254     62253     62255     62253     62256
     62257     62258     62259     62263     62259     62260     62259     62261
     62259     62262     62263     62264     62265     62269     62265     62266
     62265     62267     62265     62268     62269     62270     62271     62275
     62271     62272     62271     62273     62271     62274     62275     62276
     62277     62281     62277     62278     62277     62279     62277     62280
     62281     62282     62283     62287     62283     62284     62283     62285
     62283     62286     62287     62288     62289     62293     62289     62290
     62289     62291     62289     62292     62293     62294     62295     62299
     62295     62296     62295     62297     62295     62298     62299     62300
     62301     62305     62301     62302     62301     62303     62301     62304
     62305     62306     62307     62311     62307     62308     62307     62309
     62307     62310     62311     62312     62313     62317     62313     62314
     62313     62315     62313     62316     62317     62318     62319     62323
     62319     62320     62319     62321     62319     62322     62323     62324
     62325     62329     62325     62326     62325     62327     62325     62328
     62329     62330     62331     62335     62331     62332     62331     62333
     62331     62334     62335     62336     62337     62341     62337     62338
     62337     62339     62337     62340     62341     62342     62343     62347
     62343     62344     62343     62345     62343     62346     62347     62348
     62349     62353     62349     62350     62349     62351     62349     62352
     62353     62354     62355     62359     62355     62356     62355     62357
     62355     62358     62359     62360     62361     62365     62361     62362
     62361     62363     62361     62364     62365     62366     62367     62371
     62367     62368     62367     62369     62367     62370     62371     62372
     62373     62377     62373     62374     62373     62375     62373     62376
     62377     62378     62379     62383     62379     62380     62379     62381
     62379     62382     62383     62384     62385     62389     62385     62386
     62385     62387     62385     62388     62389     62390     62391     62395
     62391     62392     62391     62393     62391     62394     62395     62396
     62397     62401     62397     62398     62397     62399     62397     62400
     62401     62402     62403     62407     62403     62404     62403     62405
     62403     62406     62407     62408     62409     62413     62409     62410
     62409     62411     62409     62412     62413     62414     62415     62419
     62415     62416     62415     62417     62415     62418     62419     62420
     62421     62425     62421     62422     62421     62423     62421     62424
     62425     62426     62427     62431     62427     62428     62427     62429
     62427     62430     62431     62432     62433     62437     62433     62434
     62433     62435     62433     62436     62437     62438     62439     62443
     62439     62440     62439     62441     62439     62442     62443     62444
     62445     62449     62445     62446     62445     62447     62445     62448
     62449     62450     62451     62455     62451     62452     62451     62453
     62451     62454     62455     62456     62457     62461     62457     62458
     62457     62459     62457     62460     62461     62462     62463     62467
     62463     62464     62463     62465     62463     62466     62467     62468
     62469     62473     62469     62470     62469     62471     62469     62472
     62473     62474     62475     62479     62475     62476     62475     62477
     62475     62478     62479     62480     62481     62485     62481     62482
     62481     62483     62481     62484     62485     62486     62487     62491
     62487     62488     62487     62489     62487     62490     62491     62492
     62493     62497     62493     62494     62493     62495     62493     62496
     62497     62498     62499     62503     62499     62500     62499     62501
     62499     62502     62503     62504     62505     62509     62505     62506
     62505     62507     62505     62508     62509     62510     62511     62515
     62511     62512     62511     62513     62511     62514     62515     62516
     62517     62521     62517     62518     62517     62519     62517     62520
     62521     62522     62523     62527     62523     62524     62523     62525
     62523     62526     62527     62528     62529     62533     62529     62530
     62529     62531     62529     62532     62533     62534     62535     62539
     62535     62536     62535     62537     62535     62538     62539     62540
     62541     62545     62541     62542     62541     62543     62541     62544
     62545     62546     62547     62551     62547     62548     62547     62549
     62547     62550     62551     62552     62553     62557     62553     62554
     62553     62555     62553     62556     62557     62558     62559     62563
     62559     62560     62559     62561     62559     62562     62563     62564
     62565     62569     62565     62566     62565     62567     62565     62568
     62569     62570     62571     62575     62571     62572     62571     62573
     62571     62574     62575     62576     62577     62581     62577     62578
     62577     62579     62577     62580     62581     62582     62583     62587
     62583     62584     62583     62585     62583     62586     62587     62588
     62589     62593     62589     62590     62589     62591     62589     62592
     62593     62594     62595     62599     62595     62596     62595     62597
     62595     62598     62599     62600     62601     62605     62601     62602
     62601     62603     62601     62604     62605     62606     62607     62611
     62607     62608     62607     62609     62607     62610     62611     62612
     62613     62617     62613     62614     62613     62615     62613     62616
     62617     62618     62619     62623     62619     62620     62619     62621
     62619     62622     62623     62624     62625     62629     62625     62626
     62625     62627     62625     62628     62629     62630     62631     62635
     62631     62632     62631     62633     62631     62634     62635     62636
     62637     62641     62637     62638     62637     62639     62637     62640
     62641     62642     62643     62647     62643     62644     62643     62645
     62643     62646     62647     62648     62649     62653     62649     62650
     62649     62651     62649     62652     62653     62654     62655     62659
     62655     62656     62655     62657     62655     62658     62659     62660
     62661     62665     62661     62662     62661     62663     62661     62664
     62665     62666     62667     62671     62667     62668     62667     62669
     62667     62670     62671     62672     62673     62677     62673     62674
     62673     62675     62673     62676     62677     62678     62679     62683
     62679     62680     62679     62681     62679     62682     62683     62684
     62685     62689     62685     62686     62685     62687     62685     62688
     62689     62690     62691     62695     62691     62692     62691     62693
     62691     62694     62695     62696     62697     62701     62697     62698
     62697     62699     62697     62700     62701     62702     62703     62707
     62703     62704     62703     62705     62703     62706     62707     62708
     62709     62713     62709     62710     62709     62711     62709     62712
     62713     62714     62715     62719     62715     62716     62715     62717
     62715     62718     62719     62720     62721     62725     62721     62722
     62721     62723     62721     62724     62725     62726     62727     62731
     62727     62728     62727     62729     62727     62730     62731     62732
     62733     62737     62733     62734     62733     62735     62733     62736
     62737     62738     62739     62743     62739     62740     62739     62741
     62739     62742     62743     62744     62745     62749     62745     62746
     62745     62747     62745     62748     62749     62750     62751     62755
     62751     62752     62751     62753     62751     62754     62755     62756
     62757     62761     62757     62758     62757     62759     62757     62760
     62761     62762     62763     62767     62763     62764     62763     62765
     62763     62766     62767     62768     62769     62773     62769     62770
     62769     62771     62769     62772     62773     62774     62775     62779
     62775     62776     62775     62777     62775     62778     62779     62780
     62781     62785     62781     62782     62781     62783     62781     62784
     62785     62786     62787     62791     62787     62788     62787     62789
     62787     62790     62791     62792     62793     62797     62793     62794
     62793     62795     62793     62796     62797     62798     62799     62803
     62799     62800     62799     62801     62799     62802     62803     62804
     62805     62809     62805     62806     62805     62807     62805     62808
     62809     62810     62811     62815     62811     62812     62811     62813
     62811     62814     62815     62816     62817     62821     62817     62818
     62817     62819     62817     62820     62821     62822     62823     62827
     62823     62824     62823     62825     62823     62826     62827     62828
     62829     62833     62829     62830     62829     62831     62829     62832
     62833     62834     62835     62839     62835     62836     62835     62837
     62835     62838     62839     62840     62841     62845     62841     62842
     62841     62843     62841     62844     62845     62846     62847     62851
     62847     62848     62847     62849     62847     62850     62851     62852
     62853     62857     62853     62854     62853     62855     62853     62856
     62857     62858     62859     62863     62859     62860     62859     62861
     62859     62862     62863     62864     62865     62869     62865     62866
     62865     62867     62865     62868     62869     62870     62871     62875
     62871     62872     62871     62873     62871     62874     62875     62876
     62877     62881     62877     62878     62877     62879     62877     62880
     62881     62882     62883     62887     62883     62884     62883     62885
     62883     62886     62887     62888     62889     62893     62889     62890
     62889     62891     62889     62892     62893     62894     62895     62899
     62895     62896     62895     62897     62895     62898     62899     62900
     62901     62905     62901     62902     62901     62903     62901     62904
     62905     62906     62907     62911     62907     62908     62907     62909
     62907     62910     62911     62912     62913     62917     62913     62914
     62913     62915     62913     62916     62917     62918     62919     62923
     62919     62920     62919     62921     62919     62922     62923     62924
     62925     62929     62925     62926     62925     62927     62925     62928
     62929     62930     62931     62935     62931     62932     62931     62933
     62931     62934     62935     62936     62937     62941     62937     62938
     62937     62939     62937     62940     62941     62942     62943     62947
     62943     62944     62943     62945     62943     62946     62947     62948
     62949     62953     62949     62950     62949     62951     62949     62952
     62953     62954     62955     62959     62955     62956     62955     62957
     62955     62958     62959     62960     62961     62965     62961     62962
     62961     62963     62961     62964     62965     62966     62967     62971
     62967     62968     62967     62969     62967     62970     62971     62972
     62973     62977     62973     62974     62973     62975     62973     62976
     62977     62978     62979     62983     62979     62980     62979     62981
     62979     62982     62983     62984     62985     62989     62985     62986
     62985     62987     62985     62988     62989     62990     62991     62995
     62991     62992     62991     62993     62991     62994     62995     62996
     62997     63001     62997     62998     62997     62999     62997     63000
     63001     63002     63003     63007     63003     63004     63003     63005
     63003     63006     63007     63008     63009     63013     63009     63010
     63009     63011     63009     63012     63013     63014     63015     63019
     63015     63016     63015     63017     63015     63018     63019     63020
     63021     63025     63021     63022     63021     63023     63021     63024
     63025     63026     63027     63031     63027     63028     63027     63029
     63027     63030     63031     63032     63033     63037     63033     63034
     63033     63035     63033     63036     63037     63038     63039     63043
     63039     63040     63039     63041     63039     63042     63043     63044
     63045     63049     63045     63046     63045     63047     63045     63048
     63049     63050     63051     63055     63051     63052     63051     63053
     63051     63054     63055     63056     63057     63061     63057     63058
     63057     63059     63057     63060     63061     63062     63063     63067
     63063     63064     63063     63065     63063     63066     63067     63068
     63069     63073     63069     63070     63069     63071     63069     63072
     63073     63074     63075     63079     63075     63076     63075     63077
     63075     63078     63079     63080     63081     63085     63081     63082
     63081     63083     63081     63084     63085     63086     63087     63091
     63087     63088     63087     63089     63087     63090     63091     63092
     63093     63097     63093     63094     63093     63095     63093     63096
     63097     63098     63099     63103     63099     63100     63099     63101
     63099     63102     63103     63104     63105     63109     63105     63106
     63105     63107     63105     63108     63109     63110     63111     63115
     63111     63112     63111     63113     63111     63114     63115     63116
     63117     63121     63117     63118     63117     63119     63117     63120
     63121     63122     63123     63127     63123     63124     63123     63125
     63123     63126     63127     63128     63129     63133     63129     63130
     63129     63131     63129     63132     63133     63134     63135     63139
     63135     63136     63135     63137     63135     63138     63139     63140
     63141     63145     63141     63142     63141     63143     63141     63144
     63145     63146     63147     63151     63147     63148     63147     63149
     63147     63150     63151     63152     63153     63157     63153     63154
     63153     63155     63153     63156     63157     63158     63159     63163
     63159     63160     63159     63161     63159     63162     63163     63164
     63165     63169     63165     63166     63165     63167     63165     63168
     63169     63170     63171     63175     63171     63172     63171     63173
     63171     63174     63175     63176     63177     63181     63177     63178
     63177     63179     63177     63180     63181     63182     63183     63187
     63183     63184     63183     63185     63183     63186     63187     63188
     63189     63193     63189     63190     63189     63191     63189     63192
     63193     63194     63195     63199     63195     63196     63195     63197
     63195     63198     63199     63200     63201     63205     63201     63202
     63201     63203     63201     63204     63205     63206     63207     63211
     63207     63208     63207     63209     63207     63210     63211     63212
     63213     63217     63213     63214     63213     63215     63213     63216
     63217     63218     63219     63223     63219     63220     63219     63221
     63219     63222     63223     63224     63225     63229     63225     63226
     63225     63227     63225     63228     63229     63230     63231     63235
     63231     63232     63231     63233     63231     63234     63235     63236
     63237     63241     63237     63238     63237     63239     63237     63240
     63241     63242     63243     63247     63243     63244     63243     63245
     63243     63246     63247     63248     63249     63253     63249     63250
     63249     63251     63249     63252     63253     63254     63255     63259
     63255     63256     63255     63257     63255     63258     63259     63260
     63261     63265     63261     63262     63261     63263     63261     63264
     63265     63266     63267     63271     63267     63268     63267     63269
     63267     63270     63271     63272     63273     63277     63273     63274
     63273     63275     63273     63276     63277     63278     63279     63283
     63279     63280     63279     63281     63279     63282     63283     63284
     63285     63289     63285     63286     63285     63287     63285     63288
     63289     63290     63291     63295     63291     63292     63291     63293
     63291     63294     63295     63296     63297     63301     63297     63298
     63297     63299     63297     63300     63301     63302     63303     63307
     63303     63304     63303     63305     63303     63306     63307     63308
     63309     63313     63309     63310     63309     63311     63309     63312
     63313     63314     63315     63319     63315     63316     63315     63317
     63315     63318     63319     63320     63321     63325     63321     63322
     63321     63323     63321     63324     63325     63326     63327     63331
     63327     63328     63327     63329     63327     63330     63331     63332
     63333     63337     63333     63334     63333     63335     63333     63336
     63337     63338     63339     63343     63339     63340     63339     63341
     63339     63342     63343     63344     63345     63349     63345     63346
     63345     63347     63345     63348     63349     63350     63351     63355
     63351     63352     63351     63353     63351     63354     63355     63356
     63357     63361     63357     63358     63357     63359     63357     63360
     63361     63362     63363     63367     63363     63364     63363     63365
     63363     63366     63367     63368     63369     63373     63369     63370
     63369     63371     63369     63372     63373     63374     63375     63379
     63375     63376     63375     63377     63375     63378     63379     63380
     63381     63385     63381     63382     63381     63383     63381     63384
     63385     63386     63387     63391     63387     63388     63387     63389
     63387     63390     63391     63392     63393     63397     63393     63394
     63393     63395     63393     63396     63397     63398     63399     63403
     63399     63400     63399     63401     63399     63402     63403     63404
     63405     63409     63405     63406     63405     63407     63405     63408
     63409     63410     63411     63415     63411     63412     63411     63413
     63411     63414     63415     63416     63417     63421     63417     63418
     63417     63419     63417     63420     63421     63422     63423     63427
     63423     63424     63423     63425     63423     63426     63427     63428
     63429     63433     63429     63430     63429     63431     63429     63432
     63433     63434     63435     63439     63435     63436     63435     63437
     63435     63438     63439     63440     63441     63445     63441     63442
     63441     63443     63441     63444     63445     63446     63447     63451
     63447     63448     63447     63449     63447     63450     63451     63452
     63453     63457     63453     63454     63453     63455     63453     63456
     63457     63458     63459     63463     63459     63460     63459     63461
     63459     63462     63463     63464     63465     63469     63465     63466
     63465     63467     63465     63468     63469     63470     63471     63475
     63471     63472     63471     63473     63471     63474     63475     63476
     63477     63481     63477     63478     63477     63479     63477     63480
     63481     63482     63483     63487     63483     63484     63483     63485
     63483     63486     63487     63488     63489     63493     63489     63490
     63489     63491     63489     63492     63493     63494     63495     63499
     63495     63496     63495     63497     63495     63498     63499     63500
     63501     63505     63501     63502     63501     63503     63501     63504
     63505     63506     63507     63511     63507     63508     63507     63509
     63507     63510     63511     63512     63513     63517     63513     63514
     63513     63515     63513     63516     63517     63518     63519     63523
     63519     63520     63519     63521     63519     63522     63523     63524
     63525     63529     63525     63526     63525     63527     63525     63528
     63529     63530     63531     63535     63531     63532     63531     63533
     63531     63534     63535     63536     63537     63541     63537     63538
     63537     63539     63537     63540     63541     63542     63543     63547
     63543     63544     63543     63545     63543     63546     63547     63548
     63549     63553     63549     63550     63549     63551     63549     63552
     63553     63554     63555     63559     63555     63556     63555     63557
     63555     63558     63559     63560     63561     63565     63561     63562
     63561     63563     63561     63564     63565     63566     63567     63571
     63567     63568     63567     63569     63567     63570     63571     63572
     63573     63577     63573     63574     63573     63575     63573     63576
     63577     63578     63579     63583     63579     63580     63579     63581
     63579     63582     63583     63584     63585     63589     63585     63586
     63585     63587     63585     63588     63589     63590     63591     63595
     63591     63592     63591     63593     63591     63594     63595     63596
     63597     63601     63597     63598     63597     63599     63597     63600
     63601     63602     63603     63607     63603     63604     63603     63605
     63603     63606     63607     63608     63609     63613     63609     63610
     63609     63611     63609     63612     63613     63614     63615     63619
     63615     63616     63615     63617     63615     63618     63619     63620
     63621     63625     63621     63622     63621     63623     63621     63624
     63625     63626     63627     63631     63627     63628     63627     63629
     63627     63630     63631     63632     63633     63637     63633     63634
     63633     63635     63633     63636     63637     63638     63639     63643
     63639     63640     63639     63641     63639     63642     63643     63644
     63645     63649     63645     63646     63645     63647     63645     63648
     63649     63650     63651     63655     63651     63652     63651     63653
     63651     63654     63655     63656     63657     63661     63657     63658
     63657     63659     63657     63660     63661     63662     63663     63667
     63663     63664     63663     63665     63663     63666     63667     63668
     63669     63673     63669     63670     63669     63671     63669     63672
     63673     63674     63675     63679     63675     63676     63675     63677
     63675     63678     63679     63680     63681     63685     63681     63682
     63681     63683     63681     63684     63685     63686     63687     63691
     63687     63688     63687     63689     63687     63690     63691     63692
     63693     63697     63693     63694     63693     63695     63693     63696
     63697     63698     63699     63703     63699     63700     63699     63701
     63699     63702     63703     63704     63705     63709     63705     63706
     63705     63707     63705     63708     63709     63710     63711     63715
     63711     63712     63711     63713     63711     63714     63715     63716
     63717     63721     63717     63718     63717     63719     63717     63720
     63721     63722     63723     63727     63723     63724     63723     63725
     63723     63726     63727     63728     63729     63733     63729     63730
     63729     63731     63729     63732     63733     63734     63735     63739
     63735     63736     63735     63737     63735     63738     63739     63740
     63741     63745     63741     63742     63741     63743     63741     63744
     63745     63746     63747     63751     63747     63748     63747     63749
     63747     63750     63751     63752     63753     63757     63753     63754
     63753     63755     63753     63756     63757     63758     63759     63763
     63759     63760     63759     63761     63759     63762     63763     63764
     63765     63769     63765     63766     63765     63767     63765     63768
     63769     63770     63771     63775     63771     63772     63771     63773
     63771     63774     63775     63776     63777     63781     63777     63778
     63777     63779     63777     63780     63781     63782     63783     63787
     63783     63784     63783     63785     63783     63786     63787     63788
     63789     63793     63789     63790     63789     63791     63789     63792
     63793     63794     63795     63799     63795     63796     63795     63797
     63795     63798     63799     63800     63801     63805     63801     63802
     63801     63803     63801     63804     63805     63806     63807     63811
     63807     63808     63807     63809     63807     63810     63811     63812
     63813     63817     63813     63814     63813     63815     63813     63816
     63817     63818     63819     63823     63819     63820     63819     63821
     63819     63822     63823     63824     63825     63829     63825     63826
     63825     63827     63825     63828     63829     63830     63831     63835
     63831     63832     63831     63833     63831     63834     63835     63836
     63837     63841     63837     63838     63837     63839     63837     63840
     63841     63842     63843     63847     63843     63844     63843     63845
     63843     63846     63847     63848     63849     63853     63849     63850
     63849     63851     63849     63852     63853     63854     63855     63859
     63855     63856     63855     63857     63855     63858     63859     63860
     63861     63865     63861     63862     63861     63863     63861     63864
     63865     63866     63867     63871     63867     63868     63867     63869
     63867     63870     63871     63872     63873     63877     63873     63874
     63873     63875     63873     63876     63877     63878     63879     63883
     63879     63880     63879     63881     63879     63882     63883     63884
     63885     63889     63885     63886     63885     63887     63885     63888
     63889     63890     63891     63895     63891     63892     63891     63893
     63891     63894     63895     63896     63897     63901     63897     63898
     63897     63899     63897     63900     63901     63902     63903     63907
     63903     63904     63903     63905     63903     63906     63907     63908
     63909     63913     63909     63910     63909     63911     63909     63912
     63913     63914     63915     63919     63915     63916     63915     63917
     63915     63918     63919     63920     63921     63925     63921     63922
     63921     63923     63921     63924     63925     63926     63927     63931
     63927     63928     63927     63929     63927     63930     63931     63932
     63933     63937     63933     63934     63933     63935     63933     63936
     63937     63938     63939     63943     63939     63940     63939     63941
     63939     63942     63943     63944     63945     63949     63945     63946
     63945     63947     63945     63948     63949     63950     63951     63955
     63951     63952     63951     63953     63951     63954     63955     63956
     63957     63961     63957     63958     63957     63959     63957     63960
     63961     63962     63963     63967     63963     63964     63963     63965
     63963     63966     63967     63968     63969     63973     63969     63970
     63969     63971     63969     63972     63973     63974     63975     63979
     63975     63976     63975     63977     63975     63978     63979     63980
     63981     63985     63981     63982     63981     63983     63981     63984
     63985     63986     63987     63991     63987     63988     63987     63989
     63987     63990     63991     63992     63993     63997     63993     63994
     63993     63995     63993     63996     63997     63998     63999     64003
     63999     64000     63999     64001     63999     64002     64003     64004
     64005     64009     64005     64006     64005     64007     64005     64008
     64009     64010     64011     64015     64011     64012     64011     64013
     64011     64014     64015     64016     64017     64021     64017     64018
     64017     64019     64017     64020     64021     64022     64023     64027
     64023     64024     64023     64025     64023     64026     64027     64028
     64029     64033     64029     64030     64029     64031     64029     64032
     64033     64034     64035     64039     64035     64036     64035     64037
     64035     64038     64039     64040     64041     64045     64041     64042
     64041     64043     64041     64044     64045     64046     64047     64051
     64047     64048     64047     64049     64047     64050     64051     64052
     64053     64057     64053     64054     64053     64055     64053     64056
     64057     64058     64059     64063     64059     64060     64059     64061
     64059     64062     64063     64064     64065     64069     64065     64066
     64065     64067     64065     64068     64069     64070     64071     64075
     64071     64072     64071     64073     64071     64074     64075     64076
     64077     64081     64077     64078     64077     64079     64077     64080
     64081     64082     64083     64087     64083     64084     64083     64085
     64083     64086     64087     64088     64089     64093     64089     64090
     64089     64091     64089     64092     64093     64094     64095     64099
     64095     64096     64095     64097     64095     64098     64099     64100
     64101     64105     64101     64102     64101     64103     64101     64104
     64105     64106     64107     64111     64107     64108     64107     64109
     64107     64110     64111     64112     64113     64117     64113     64114
     64113     64115     64113     64116     64117     64118     64119     64123
     64119     64120     64119     64121     64119     64122     64123     64124
     64125     64129     64125     64126     64125     64127     64125     64128
     64129     64130     64131     64135     64131     64132     64131     64133
     64131     64134     64135     64136     64137     64141     64137     64138
     64137     64139     64137     64140     64141     64142     64143     64147
     64143     64144     64143     64145     64143     64146     64147     64148
     64149     64153     64149     64150     64149     64151     64149     64152
     64153     64154     64155     64159     64155     64156     64155     64157
     64155     64158     64159     64160     64161     64165     64161     64162
     64161     64163     64161     64164     64165     64166     64167     64171
     64167     64168     64167     64169     64167     64170     64171     64172
     64173     64177     64173     64174     64173     64175     64173     64176
     64177     64178     64179     64183     64179     64180     64179     64181
     64179     64182     64183     64184     64185     64189     64185     64186
     64185     64187     64185     64188     64189     64190     64191     64195
     64191     64192     64191     64193     64191     64194     64195     64196
     64197     64201     64197     64198     64197     64199     64197     64200
     64201     64202     64203     64207     64203     64204     64203     64205
     64203     64206     64207     64208     64209     64213     64209     64210
     64209     64211     64209     64212     64213     64214     64215     64219
     64215     64216     64215     64217     64215     64218     64219     64220
     64221     64225     64221     64222     64221     64223     64221     64224
     64225     64226     64227     64231     64227     64228     64227     64229
     64227     64230     64231     64232     64233     64237     64233     64234
     64233     64235     64233     64236     64237     64238     64239     64243
     64239     64240     64239     64241     64239     64242     64243     64244
     64245     64249     64245     64246     64245     64247     64245     64248
     64249     64250     64251     64255     64251     64252     64251     64253
     64251     64254     64255     64256     64257     64261     64257     64258
     64257     64259     64257     64260     64261     64262     64263     64267
     64263     64264     64263     64265     64263     64266     64267     64268
     64269     64273     64269     64270     64269     64271     64269     64272
     64273     64274     64275     64279     64275     64276     64275     64277
     64275     64278     64279     64280     64281     64285     64281     64282
     64281     64283     64281     64284     64285     64286     64287     64291
     64287     64288     64287     64289     64287     64290     64291     64292
     64293     64297     64293     64294     64293     64295     64293     64296
     64297     64298     64299     64303     64299     64300     64299     64301
     64299     64302     64303     64304     64305     64309     64305     64306
     64305     64307     64305     64308     64309     64310     64311     64315
     64311     64312     64311     64313     64311     64314     64315     64316
     64317     64321     64317     64318     64317     64319     64317     64320
     64321     64322     64323     64327     64323     64324     64323     64325
     64323     64326     64327     64328     64329     64333     64329     64330
     64329     64331     64329     64332     64333     64334     64335     64339
     64335     64336     64335     64337     64335     64338     64339     64340
     64341     64345     64341     64342     64341     64343     64341     64344
     64345     64346     64347     64351     64347     64348     64347     64349
     64347     64350     64351     64352     64353     64357     64353     64354
     64353     64355     64353     64356     64357     64358     64359     64363
     64359     64360     64359     64361     64359     64362     64363     64364
     64365     64369     64365     64366     64365     64367     64365     64368
     64369     64370     64371     64375     64371     64372     64371     64373
     64371     64374     64375     64376     64377     64381     64377     64378
     64377     64379     64377     64380     64381     64382     64383     64387
     64383     64384     64383     64385     64383     64386     64387     64388
     64389     64393     64389     64390     64389     64391     64389     64392
     64393     64394     64395     64399     64395     64396     64395     64397
     64395     64398     64399     64400     64401     64405     64401     64402
     64401     64403     64401     64404     64405     64406     64407     64411
     64407     64408     64407     64409     64407     64410     64411     64412
     64413     64417     64413     64414     64413     64415     64413     64416
     64417     64418     64419     64423     64419     64420     64419     64421
     64419     64422     64423     64424     64425     64429     64425     64426
     64425     64427     64425     64428     64429     64430     64431     64435
     64431     64432     64431     64433     64431     64434     64435     64436
     64437     64441     64437     64438     64437     64439     64437     64440
     64441     64442     64443     64447     64443     64444     64443     64445
     64443     64446     64447     64448     64449     64453     64449     64450
     64449     64451     64449     64452     64453     64454     64455     64459
     64455     64456     64455     64457     64455     64458     64459     64460
     64461     64465     64461     64462     64461     64463     64461     64464
     64465     64466     64467     64471     64467     64468     64467     64469
     64467     64470     64471     64472     64473     64477     64473     64474
     64473     64475     64473     64476     64477     64478     64479     64483
     64479     64480     64479     64481     64479     64482     64483     64484
     64485     64489     64485     64486     64485     64487     64485     64488
     64489     64490     64491     64495     64491     64492     64491     64493
     64491     64494     64495     64496     64497     64501     64497     64498
     64497     64499     64497     64500     64501     64502     64503     64507
     64503     64504     64503     64505     64503     64506     64507     64508
     64509     64513     64509     64510     64509     64511     64509     64512
     64513     64514     64515     64519     64515     64516     64515     64517
     64515     64518     64519     64520     64521     64525     64521     64522
     64521     64523     64521     64524     64525     64526     64527     64531
     64527     64528     64527     64529     64527     64530     64531     64532
     64533     64537     64533     64534     64533     64535     64533     64536
     64537     64538     64539     64543     64539     64540     64539     64541
     64539     64542     64543     64544     64545     64549     64545     64546
     64545     64547     64545     64548     64549     64550     64551     64555
     64551     64552     64551     64553     64551     64554     64555     64556
     64557     64561     64557     64558     64557     64559     64557     64560
     64561     64562     64563     64567     64563     64564     64563     64565
     64563     64566     64567     64568     64569     64573     64569     64570
     64569     64571     64569     64572     64573     64574     64575     64579
     64575     64576     64575     64577     64575     64578     64579     64580
     64581     64585     64581     64582     64581     64583     64581     64584
     64585     64586     64587     64591     64587     64588     64587     64589
     64587     64590     64591     64592     64593     64597     64593     64594
     64593     64595     64593     64596     64597     64598     64599     64603
     64599     64600     64599     64601     64599     64602     64603     64604
     64605     64609     64605     64606     64605     64607     64605     64608
     64609     64610     64611     64615     64611     64612     64611     64613
     64611     64614     64615     64616     64617     64621     64617     64618
     64617     64619     64617     64620     64621     64622     64623     64627
     64623     64624     64623     64625     64623     64626     64627     64628
     64629     64633     64629     64630     64629     64631     64629     64632
     64633     64634     64635     64639     64635     64636     64635     64637
     64635     64638     64639     64640     64641     64645     64641     64642
     64641     64643     64641     64644     64645     64646     64647     64651
     64647     64648     64647     64649     64647     64650     64651     64652
     64653     64657     64653     64654     64653     64655     64653     64656
     64657     64658     64659     64663     64659     64660     64659     64661
     64659     64662     64663     64664     64665     64669     64665     64666
     64665     64667     64665     64668     64669     64670     64671     64675
     64671     64672     64671     64673     64671     64674     64675     64676
     64677     64681     64677     64678     64677     64679     64677     64680
     64681     64682     64683     64687     64683     64684     64683     64685
     64683     64686     64687     64688     64689     64693     64689     64690
     64689     64691     64689     64692     64693     64694     64695     64699
     64695     64696     64695     64697     64695     64698     64699     64700
     64701     64705     64701     64702     64701     64703     64701     64704
     64705     64706     64707     64711     64707     64708     64707     64709
     64707     64710     64711     64712     64713     64717     64713     64714
     64713     64715     64713     64716     64717     64718     64719     64723
     64719     64720     64719     64721     64719     64722     64723     64724
     64725     64729     64725     64726     64725     64727     64725     64728
     64729     64730     64731     64735     64731     64732     64731     64733
     64731     64734     64735     64736     64737     64741     64737     64738
     64737     64739     64737     64740     64741     64742     64743     64747
     64743     64744     64743     64745     64743     64746     64747     64748
     64749     64753     64749     64750     64749     64751     64749     64752
     64753     64754     64755     64759     64755     64756     64755     64757
     64755     64758     64759     64760     64761     64765     64761     64762
     64761     64763     64761     64764     64765     64766     64767     64771
     64767     64768     64767     64769     64767     64770     64771     64772
     64773     64777     64773     64774     64773     64775     64773     64776
     64777     64778     64779     64783     64779     64780     64779     64781
     64779     64782     64783     64784     64785     64789     64785     64786
     64785     64787     64785     64788     64789     64790     64791     64795
     64791     64792     64791     64793     64791     64794     64795     64796
     64797     64801     64797     64798     64797     64799     64797     64800
     64801     64802     64803     64807     64803     64804     64803     64805
     64803     64806     64807     64808     64809     64813     64809     64810
     64809     64811     64809     64812     64813     64814     64815     64819
     64815     64816     64815     64817     64815     64818     64819     64820
     64821     64825     64821     64822     64821     64823     64821     64824
     64825     64826     64827     64831     64827     64828     64827     64829
     64827     64830     64831     64832     64833     64837     64833     64834
     64833     64835     64833     64836     64837     64838     64839     64843
     64839     64840     64839     64841     64839     64842     64843     64844
     64845     64849     64845     64846     64845     64847     64845     64848
     64849     64850     64851     64855     64851     64852     64851     64853
     64851     64854     64855     64856     64857     64861     64857     64858
     64857     64859     64857     64860     64861     64862     64863     64867
     64863     64864     64863     64865     64863     64866     64867     64868
     64869     64873     64869     64870     64869     64871     64869     64872
     64873     64874     64875     64879     64875     64876     64875     64877
     64875     64878     64879     64880     64881     64885     64881     64882
     64881     64883     64881     64884     64885     64886     64887     64891
     64887     64888     64887     64889     64887     64890     64891     64892
     64893     64897     64893     64894     64893     64895     64893     64896
     64897     64898     64899     64903     64899     64900     64899     64901
     64899     64902     64903     64904     64905     64909     64905     64906
     64905     64907     64905     64908     64909     64910     64911     64915
     64911     64912     64911     64913     64911     64914     64915     64916
     64917     64921     64917     64918     64917     64919     64917     64920
     64921     64922     64923     64927     64923     64924     64923     64925
     64923     64926     64927     64928     64929     64933     64929     64930
     64929     64931     64929     64932     64933     64934     64935     64939
     64935     64936     64935     64937     64935     64938     64939     64940
     64941     64945     64941     64942     64941     64943     64941     64944
     64945     64946     64947     64951     64947     64948     64947     64949
     64947     64950     64951     64952     64953     64957     64953     64954
     64953     64955     64953     64956     64957     64958     64959     64963
     64959     64960     64959     64961     64959     64962     64963     64964
     64965     64969     64965     64966     64965     64967     64965     64968
     64969     64970     64971     64975     64971     64972     64971     64973
     64971     64974     64975     64976     64977     64981     64977     64978
     64977     64979     64977     64980     64981     64982     64983     64987
     64983     64984     64983     64985     64983     64986     64987     64988
     64989     64993     64989     64990     64989     64991     64989     64992
     64993     64994     64995     64999     64995     64996     64995     64997
     64995     64998     64999     65000     65001     65005     65001     65002
     65001     65003     65001     65004     65005     65006     65007     65011
     65007     65008     65007     65009     65007     65010     65011     65012
     65013     65017     65013     65014     65013     65015     65013     65016
     65017     65018     65019     65023     65019     65020     65019     65021
     65019     65022     65023     65024     65025     65029     65025     65026
     65025     65027     65025     65028     65029     65030     65031     65035
     65031     65032     65031     65033     65031     65034     65035     65036
     65037     65041     65037     65038     65037     65039     65037     65040
     65041     65042     65043     65047     65043     65044     65043     65045
     65043     65046     65047     65048     65049     65053     65049     65050
     65049     65051     65049     65052     65053     65054     65055     65059
     65055     65056     65055     65057     65055     65058     65059     65060
     65061     65065     65061     65062     65061     65063     65061     65064
     65065     65066     65067     65071     65067     65068     65067     65069
     65067     65070     65071     65072     65073     65077     65073     65074
     65073     65075     65073     65076     65077     65078     65079     65083
     65079     65080     65079     65081     65079     65082     65083     65084
     65085     65089     65085     65086     65085     65087     65085     65088
     65089     65090     65091     65095     65091     65092     65091     65093
     65091     65094     65095     65096     65097     65101     65097     65098
     65097     65099     65097     65100     65101     65102     65103     65107
     65103     65104     65103     65105     65103     65106     65107     65108
     65109     65113     65109     65110     65109     65111     65109     65112
     65113     65114     65115     65119     65115     65116     65115     65117
     65115     65118     65119     65120     65121     65125     65121     65122
     65121     65123     65121     65124     65125     65126     65127     65131
     65127     65128     65127     65129     65127     65130     65131     65132
     65133     65137     65133     65134     65133     65135     65133     65136
     65137     65138     65139     65143     65139     65140     65139     65141
     65139     65142     65143     65144     65145     65149     65145     65146
     65145     65147     65145     65148     65149     65150     65151     65155
     65151     65152     65151     65153     65151     65154     65155     65156
     65157     65161     65157     65158     65157     65159     65157     65160
     65161     65162     65163     65167     65163     65164     65163     65165
     65163     65166     65167     65168     65169     65173     65169     65170
     65169     65171     65169     65172     65173     65174     65175     65179
     65175     65176     65175     65177     65175     65178     65179     65180
     65181     65185     65181     65182     65181     65183     65181     65184
     65185     65186     65187     65191     65187     65188     65187     65189
     65187     65190     65191     65192     65193     65197     65193     65194
     65193     65195     65193     65196     65197     65198     65199     65203
     65199     65200     65199     65201     65199     65202     65203     65204
     65205     65209     65205     65206     65205     65207     65205     65208
     65209     65210     65211     65215     65211     65212     65211     65213
     65211     65214     65215     65216     65217     65221     65217     65218
     65217     65219     65217     65220     65221     65222     65223     65227
     65223     65224     65223     65225     65223     65226     65227     65228
     65229     65233     65229     65230     65229     65231     65229     65232
     65233     65234     65235     65239     65235     65236     65235     65237
     65235     65238     65239     65240     65241     65245     65241     65242
     65241     65243     65241     65244     65245     65246     65247     65251
     65247     65248     65247     65249     65247     65250     65251     65252
     65253     65257     65253     65254     65253     65255     65253     65256
     65257     65258     65259     65263     65259     65260     65259     65261
     65259     65262     65263     65264     65265     65269     65265     65266
     65265     65267     65265     65268     65269     65270     65271     65275
     65271     65272     65271     65273     65271     65274     65275     65276
     65277     65281     65277     65278     65277     65279     65277     65280
     65281     65282     65283     65287     65283     65284     65283     65285
     65283     65286     65287     65288     65289     65293     65289     65290
     65289     65291     65289     65292     65293     65294     65295     65299
     65295     65296     65295     65297     65295     65298     65299     65300
     65301     65305     65301     65302     65301     65303     65301     65304
     65305     65306     65307     65311     65307     65308     65307     65309
     65307     65310     65311     65312     65313     65317     65313     65314
     65313     65315     65313     65316     65317     65318     65319     65323
     65319     65320     65319     65321     65319     65322     65323     65324
     65325     65329     65325     65326     65325     65327     65325     65328
     65329     65330     65331     65335     65331     65332     65331     65333
     65331     65334     65335     65336     65337     65341     65337     65338
     65337     65339     65337     65340     65341     65342     65343     65347
     65343     65344     65343     65345     65343     65346     65347     65348
     65349     65353     65349     65350     65349     65351     65349     65352
     65353     65354     65355     65359     65355     65356     65355     65357
     65355     65358     65359     65360     65361     65365     65361     65362
     65361     65363     65361     65364     65365     65366     65367     65371
     65367     65368     65367     65369     65367     65370     65371     65372
     65373     65377     65373     65374     65373     65375     65373     65376
     65377     65378     65379     65383     65379     65380     65379     65381
     65379     65382     65383     65384     65385     65389     65385     65386
     65385     65387     65385     65388     65389     65390     65391     65395
     65391     65392     65391     65393     65391     65394     65395     65396
     65397     65401     65397     65398     65397     65399     65397     65400
     65401     65402     65403     65407     65403     65404     65403     65405
     65403     65406     65407     65408     65409     65413     65409     65410
     65409     65411     65409     65412     65413     65414     65415     65419
     65415     65416     65415     65417     65415     65418     65419     65420
     65421     65425     65421     65422     65421     65423     65421     65424
     65425     65426     65427     65431     65427     65428     65427     65429
     65427     65430     65431     65432     65433     65437     65433     65434
     65433     65435     65433     65436     65437     65438     65439     65443
     65439     65440     65439     65441     65439     65442     65443     65444
     65445     65449     65445     65446     65445     65447     65445     65448
     65449     65450     65451     65455     65451     65452     65451     65453
     65451     65454     65455     65456     65457     65461     65457     65458
     65457     65459     65457     65460     65461     65462     65463     65467
     65463     65464     65463     65465     65463     65466     65467     65468
     65469     65473     65469     65470     65469     65471     65469     65472
     65473     65474     65475     65479     65475     65476     65475     65477
     65475     65478     65479     65480     65481     65485     65481     65482
     65481     65483     65481     65484     65485     65486     65487     65491
     65487     65488     65487     65489     65487     65490     65491     65492
     65493     65497     65493     65494     65493     65495     65493     65496
     65497     65498     65499     65503     65499     65500     65499     65501
     65499     65502     65503     65504     65505     65509     65505     65506
     65505     65507     65505     65508     65509     65510     65511     65515
     65511     65512     65511     65513     65511     65514     65515     65516
     65517     65521     65517     65518     65517     65519     65517     65520
     65521     65522     65523     65527     65523     65524     65523     65525
     65523     65526     65527     65528     65529     65533     65529     65530
     65529     65531     65529     65532     65533     65534     65535     65539
     65535     65536     65535     65537     65535     65538     65539     65540
     65541     65545     65541     65542     65541     65543     65541     65544
     65545     65546     65547     65551     65547     65548     65547     65549
     65547     65550     65551     65552     65553     65557     65553     65554
     65553     65555     65553     65556     65557     65558     65559     65563
     65559     65560     65559     65561     65559     65562     65563     65564
     65565     65569     65565     65566     65565     65567     65565     65568
     65569     65570     65571     65575     65571     65572     65571     65573
     65571     65574     65575     65576     65577     65581     65577     65578
     65577     65579     65577     65580     65581     65582     65583     65587
     65583     65584     65583     65585     65583     65586     65587     65588
     65589     65593     65589     65590     65589     65591     65589     65592
     65593     65594     65595     65599     65595     65596     65595     65597
     65595     65598     65599     65600     65601     65605     65601     65602
     65601     65603     65601     65604     65605     65606     65607     65611
     65607     65608     65607     65609     65607     65610     65611     65612
     65613     65617     65613     65614     65613     65615     65613     65616
     65617     65618     65619     65623     65619     65620     65619     65621
     65619     65622     65623     65624     65625     65629     65625     65626
     65625     65627     65625     65628     65629     65630     65631     65635
     65631     65632     65631     65633     65631     65634     65635     65636
     65637     65641     65637     65638     65637     65639     65637     65640
     65641     65642     65643     65647     65643     65644     65643     65645
     65643     65646     65647     65648     65649     65653     65649     65650
     65649     65651     65649     65652     65653     65654     65655     65659
     65655     65656     65655     65657     65655     65658     65659     65660
     65661     65665     65661     65662     65661     65663     65661     65664
     65665     65666     65667     65671     65667     65668     65667     65669
     65667     65670     65671     65672     65673     65677     65673     65674
     65673     65675     65673     65676     65677     65678     65679     65683
     65679     65680     65679     65681     65679     65682     65683     65684
     65685     65689     65685     65686     65685     65687     65685     65688
     65689     65690     65691     65695     65691     65692     65691     65693
     65691     65694     65695     65696     65697     65701     65697     65698
     65697     65699     65697     65700     65701     65702     65703     65707
     65703     65704     65703     65705     65703     65706     65707     65708
     65709     65713     65709     65710     65709     65711     65709     65712
     65713     65714     65715     65719     65715     65716     65715     65717
     65715     65718     65719     65720     65721     65725     65721     65722
     65721     65723     65721     65724     65725     65726     65727     65731
     65727     65728     65727     65729     65727     65730     65731     65732
     65733     65737     65733     65734     65733     65735     65733     65736
     65737     65738     65739     65743     65739     65740     65739     65741
     65739     65742     65743     65744     65745     65749     65745     65746
     65745     65747     65745     65748     65749     65750     65751     65755
     65751     65752     65751     65753     65751     65754     65755     65756
     65757     65761     65757     65758     65757     65759     65757     65760
     65761     65762     65763     65767     65763     65764     65763     65765
     65763     65766     65767     65768     65769     65773     65769     65770
     65769     65771     65769     65772     65773     65774     65775     65779
     65775     65776     65775     65777     65775     65778     65779     65780
     65781     65785     65781     65782     65781     65783     65781     65784
     65785     65786     65787     65791     65787     65788     65787     65789
     65787     65790     65791     65792     65793     65797     65793     65794
     65793     65795     65793     65796     65797     65798     65799     65803
     65799     65800     65799     65801     65799     65802     65803     65804
     65805     65809     65805     65806     65805     65807     65805     65808
     65809     65810     65811     65815     65811     65812     65811     65813
     65811     65814     65815     65816     65817     65821     65817     65818
     65817     65819     65817     65820     65821     65822     65823     65827
     65823     65824     65823     65825     65823     65826     65827     65828
     65829     65833     65829     65830     65829     65831     65829     65832
     65833     65834     65835     65839     65835     65836     65835     65837
     65835     65838     65839     65840     65841     65845     65841     65842
     65841     65843     65841     65844     65845     65846     65847     65851
     65847     65848     65847     65849     65847     65850     65851     65852
     65853     65857     65853     65854     65853     65855     65853     65856
     65857     65858     65859     65863     65859     65860     65859     65861
     65859     65862     65863     65864     65865     65869     65865     65866
     65865     65867     65865     65868     65869     65870     65871     65875
     65871     65872     65871     65873     65871     65874     65875     65876
     65877     65881     65877     65878     65877     65879     65877     65880
     65881     65882     65883     65887     65883     65884     65883     65885
     65883     65886     65887     65888     65889     65893     65889     65890
     65889     65891     65889     65892     65893     65894     65895     65899
     65895     65896     65895     65897     65895     65898     65899     65900
     65901     65905     65901     65902     65901     65903     65901     65904
     65905     65906     65907     65911     65907     65908     65907     65909
     65907     65910     65911     65912     65913     65917     65913     65914
     65913     65915     65913     65916     65917     65918     65919     65923
     65919     65920     65919     65921     65919     65922     65923     65924
     65925     65929     65925     65926     65925     65927     65925     65928
     65929     65930     65931     65935     65931     65932     65931     65933
     65931     65934     65935     65936     65937     65941     65937     65938
     65937     65939     65937     65940     65941     65942     65943     65947
     65943     65944     65943     65945     65943     65946     65947     65948
     65949     65953     65949     65950     65949     65951     65949     65952
     65953     65954     65955     65959     65955     65956     65955     65957
     65955     65958     65959     65960     65961     65965     65961     65962
     65961     65963     65961     65964     65965     65966     65967     65971
     65967     65968     65967     65969     65967     65970     65971     65972
     65973     65977     65973     65974     65973     65975     65973     65976
     65977     65978     65979     65983     65979     65980     65979     65981
     65979     65982     65983     65984     65985     65989     65985     65986
     65985     65987     65985     65988     65989     65990     65991     65995
     65991     65992     65991     65993     65991     65994     65995     65996
     65997     66001     65997     65998     65997     65999     65997     66000
     66001     66002     66003     66007     66003     66004     66003     66005
     66003     66006     66007     66008     66009     66013     66009     66010
     66009     66011     66009     66012     66013     66014     66015     66019
     66015     66016     66015     66017     66015     66018     66019     66020
     66021     66025     66021     66022     66021     66023     66021     66024
     66025     66026     66027     66031     66027     66028     66027     66029
     66027     66030     66031     66032     66033     66037     66033     66034
     66033     66035     66033     66036     66037     66038     66039     66043
     66039     66040     66039     66041     66039     66042     66043     66044
     66045     66049     66045     66046     66045     66047     66045     66048
     66049     66050     66051     66055     66051     66052     66051     66053
     66051     66054     66055     66056     66057     66061     66057     66058
     66057     66059     66057     66060     66061     66062     66063     66067
     66063     66064     66063     66065     66063     66066     66067     66068
     66069     66073     66069     66070     66069     66071     66069     66072
     66073     66074     66075     66079     66075     66076     66075     66077
     66075     66078     66079     66080     66081     66085     66081     66082
     66081     66083     66081     66084     66085     66086     66087     66091
     66087     66088     66087     66089     66087     66090     66091     66092
     66093     66097     66093     66094     66093     66095     66093     66096
     66097     66098     66099     66103     66099     66100     66099     66101
     66099     66102     66103     66104     66105     66109     66105     66106
     66105     66107     66105     66108     66109     66110     66111     66115
     66111     66112     66111     66113     66111     66114     66115     66116
     66117     66121     66117     66118     66117     66119     66117     66120
     66121     66122     66123     66127     66123     66124     66123     66125
     66123     66126     66127     66128     66129     66133     66129     66130
     66129     66131     66129     66132     66133     66134     66135     66139
     66135     66136     66135     66137     66135     66138     66139     66140
     66141     66145     66141     66142     66141     66143     66141     66144
     66145     66146     66147     66151     66147     66148     66147     66149
     66147     66150     66151     66152     66153     66157     66153     66154
     66153     66155     66153     66156     66157     66158     66159     66163
     66159     66160     66159     66161     66159     66162     66163     66164
     66165     66169     66165     66166     66165     66167     66165     66168
     66169     66170     66171     66175     66171     66172     66171     66173
     66171     66174     66175     66176     66177     66181     66177     66178
     66177     66179     66177     66180     66181     66182     66183     66187
     66183     66184     66183     66185     66183     66186     66187     66188
     66189     66193     66189     66190     66189     66191     66189     66192
     66193     66194     66195     66199     66195     66196     66195     66197
     66195     66198     66199     66200     66201     66205     66201     66202
     66201     66203     66201     66204     66205     66206     66207     66211
     66207     66208     66207     66209     66207     66210     66211     66212
     66213     66217     66213     66214     66213     66215     66213     66216
     66217     66218     66219     66223     66219     66220     66219     66221
     66219     66222     66223     66224     66225     66229     66225     66226
     66225     66227     66225     66228     66229     66230     66231     66235
     66231     66232     66231     66233     66231     66234     66235     66236
     66237     66241     66237     66238     66237     66239     66237     66240
     66241     66242     66243     66247     66243     66244     66243     66245
     66243     66246     66247     66248     66249     66253     66249     66250
     66249     66251     66249     66252     66253     66254     66255     66259
     66255     66256     66255     66257     66255     66258     66259     66260
     66261     66265     66261     66262     66261     66263     66261     66264
     66265     66266     66267     66271     66267     66268     66267     66269
     66267     66270     66271     66272     66273     66277     66273     66274
     66273     66275     66273     66276     66277     66278     66279     66283
     66279     66280     66279     66281     66279     66282     66283     66284
     66285     66289     66285     66286     66285     66287     66285     66288
     66289     66290     66291     66295     66291     66292     66291     66293
     66291     66294     66295     66296     66297     66301     66297     66298
     66297     66299     66297     66300     66301     66302     66303     66307
     66303     66304     66303     66305     66303     66306     66307     66308
     66309     66313     66309     66310     66309     66311     66309     66312
     66313     66314     66315     66319     66315     66316     66315     66317
     66315     66318     66319     66320     66321     66325     66321     66322
     66321     66323     66321     66324     66325     66326     66327     66331
     66327     66328     66327     66329     66327     66330     66331     66332
     66333     66337     66333     66334     66333     66335     66333     66336
     66337     66338     66339     66343     66339     66340     66339     66341
     66339     66342     66343     66344     66345     66349     66345     66346
     66345     66347     66345     66348     66349     66350     66351     66355
     66351     66352     66351     66353     66351     66354     66355     66356
     66357     66361     66357     66358     66357     66359     66357     66360
     66361     66362     66363     66367     66363     66364     66363     66365
     66363     66366     66367     66368     66369     66373     66369     66370
     66369     66371     66369     66372     66373     66374     66375     66379
     66375     66376     66375     66377     66375     66378     66379     66380
     66381     66385     66381     66382     66381     66383     66381     66384
     66385     66386     66387     66391     66387     66388     66387     66389
     66387     66390     66391     66392     66393     66397     66393     66394
     66393     66395     66393     66396     66397     66398     66399     66403
     66399     66400     66399     66401     66399     66402     66403     66404
     66405     66409     66405     66406     66405     66407     66405     66408
     66409     66410     66411     66415     66411     66412     66411     66413
     66411     66414     66415     66416     66417     66421     66417     66418
     66417     66419     66417     66420     66421     66422     66423     66427
     66423     66424     66423     66425     66423     66426     66427     66428
     66429     66433     66429     66430     66429     66431     66429     66432
     66433     66434     66435     66439     66435     66436     66435     66437
     66435     66438     66439     66440     66441     66445     66441     66442
     66441     66443     66441     66444     66445     66446     66447     66451
     66447     66448     66447     66449     66447     66450     66451     66452
     66453     66457     66453     66454     66453     66455     66453     66456
     66457     66458     66459     66463     66459     66460     66459     66461
     66459     66462     66463     66464     66465     66469     66465     66466
     66465     66467     66465     66468     66469     66470     66471     66475
     66471     66472     66471     66473     66471     66474     66475     66476
     66477     66481     66477     66478     66477     66479     66477     66480
     66481     66482     66483     66487     66483     66484     66483     66485
     66483     66486     66487     66488     66489     66493     66489     66490
     66489     66491     66489     66492     66493     66494     66495     66499
     66495     66496     66495     66497     66495     66498     66499     66500
     66501     66505     66501     66502     66501     66503     66501     66504
     66505     66506     66507     66511     66507     66508     66507     66509
     66507     66510     66511     66512     66513     66517     66513     66514
     66513     66515     66513     66516     66517     66518     66519     66523
     66519     66520     66519     66521     66519     66522     66523     66524
     66525     66529     66525     66526     66525     66527     66525     66528
     66529     66530     66531     66535     66531     66532     66531     66533
     66531     66534     66535     66536     66537     66541     66537     66538
     66537     66539     66537     66540     66541     66542     66543     66547
     66543     66544     66543     66545     66543     66546     66547     66548
     66549     66553     66549     66550     66549     66551     66549     66552
     66553     66554     66555     66559     66555     66556     66555     66557
     66555     66558     66559     66560     66561     66565     66561     66562
     66561     66563     66561     66564     66565     66566     66567     66571
     66567     66568     66567     66569     66567     66570     66571     66572
     66573     66577     66573     66574     66573     66575     66573     66576
     66577     66578     66579     66583     66579     66580     66579     66581
     66579     66582     66583     66584     66585     66589     66585     66586
     66585     66587     66585     66588     66589     66590     66591     66595
     66591     66592     66591     66593     66591     66594     66595     66596
     66597     66601     66597     66598     66597     66599     66597     66600
     66601     66602     66603     66607     66603     66604     66603     66605
     66603     66606     66607     66608     66609     66613     66609     66610
     66609     66611     66609     66612     66613     66614     66615     66619
     66615     66616     66615     66617     66615     66618     66619     66620
     66621     66625     66621     66622     66621     66623     66621     66624
     66625     66626     66627     66631     66627     66628     66627     66629
     66627     66630     66631     66632     66633     66637     66633     66634
     66633     66635     66633     66636     66637     66638     66639     66643
     66639     66640     66639     66641     66639     66642     66643     66644
     66645     66649     66645     66646     66645     66647     66645     66648
     66649     66650     66651     66655     66651     66652     66651     66653
     66651     66654     66655     66656     66657     66661     66657     66658
     66657     66659     66657     66660     66661     66662     66663     66667
     66663     66664     66663     66665     66663     66666     66667     66668
     66669     66673     66669     66670     66669     66671     66669     66672
     66673     66674     66675     66679     66675     66676     66675     66677
     66675     66678     66679     66680     66681     66685     66681     66682
     66681     66683     66681     66684     66685     66686     66687     66691
     66687     66688     66687     66689     66687     66690     66691     66692
     66693     66697     66693     66694     66693     66695     66693     66696
     66697     66698     66699     66703     66699     66700     66699     66701
     66699     66702     66703     66704     66705     66709     66705     66706
     66705     66707     66705     66708     66709     66710     66711     66715
     66711     66712     66711     66713     66711     66714     66715     66716
     66717     66721     66717     66718     66717     66719     66717     66720
     66721     66722     66723     66727     66723     66724     66723     66725
     66723     66726     66727     66728     66729     66733     66729     66730
     66729     66731     66729     66732     66733     66734     66735     66739
     66735     66736     66735     66737     66735     66738     66739     66740
     66741     66745     66741     66742     66741     66743     66741     66744
     66745     66746     66747     66751     66747     66748     66747     66749
     66747     66750     66751     66752     66753     66757     66753     66754
     66753     66755     66753     66756     66757     66758     66759     66763
     66759     66760     66759     66761     66759     66762     66763     66764
     66765     66769     66765     66766     66765     66767     66765     66768
     66769     66770     66771     66775     66771     66772     66771     66773
     66771     66774     66775     66776     66777     66781     66777     66778
     66777     66779     66777     66780     66781     66782     66783     66787
     66783     66784     66783     66785     66783     66786     66787     66788
     66789     66793     66789     66790     66789     66791     66789     66792
     66793     66794     66795     66799     66795     66796     66795     66797
     66795     66798     66799     66800     66801     66805     66801     66802
     66801     66803     66801     66804     66805     66806     66807     66811
     66807     66808     66807     66809     66807     66810     66811     66812
     66813     66817     66813     66814     66813     66815     66813     66816
     66817     66818     66819     66823     66819     66820     66819     66821
     66819     66822     66823     66824     66825     66829     66825     66826
     66825     66827     66825     66828     66829     66830     66831     66835
     66831     66832     66831     66833     66831     66834     66835     66836
     66837     66841     66837     66838     66837     66839     66837     66840
     66841     66842     66843     66847     66843     66844     66843     66845
     66843     66846     66847     66848     66849     66853     66849     66850
     66849     66851     66849     66852     66853     66854     66855     66859
     66855     66856     66855     66857     66855     66858     66859     66860
     66861     66865     66861     66862     66861     66863     66861     66864
     66865     66866     66867     66871     66867     66868     66867     66869
     66867     66870     66871     66872     66873     66877     66873     66874
     66873     66875     66873     66876     66877     66878     66879     66883
     66879     66880     66879     66881     66879     66882     66883     66884
     66885     66889     66885     66886     66885     66887     66885     66888
     66889     66890     66891     66895     66891     66892     66891     66893
     66891     66894     66895     66896     66897     66901     66897     66898
     66897     66899     66897     66900     66901     66902     66903     66907
     66903     66904     66903     66905     66903     66906     66907     66908
     66909     66913     66909     66910     66909     66911     66909     66912
     66913     66914     66915     66919     66915     66916     66915     66917
     66915     66918     66919     66920     66921     66925     66921     66922
     66921     66923     66921     66924     66925     66926     66927     66931
     66927     66928     66927     66929     66927     66930     66931     66932
     66933     66937     66933     66934     66933     66935     66933     66936
     66937     66938     66939     66943     66939     66940     66939     66941
     66939     66942     66943     66944     66945     66949     66945     66946
     66945     66947     66945     66948     66949     66950     66951     66955
     66951     66952     66951     66953     66951     66954     66955     66956
     66957     66961     66957     66958     66957     66959     66957     66960
     66961     66962     66963     66967     66963     66964     66963     66965
     66963     66966     66967     66968     66969     66973     66969     66970
     66969     66971     66969     66972     66973     66974     66975     66979
     66975     66976     66975     66977     66975     66978     66979     66980
     66981     66985     66981     66982     66981     66983     66981     66984
     66985     66986     66987     66991     66987     66988     66987     66989
     66987     66990     66991     66992     66993     66997     66993     66994
     66993     66995     66993     66996     66997     66998     66999     67003
     66999     67000     66999     67001     66999     67002     67003     67004
     67005     67009     67005     67006     67005     67007     67005     67008
     67009     67010     67011     67015     67011     67012     67011     67013
     67011     67014     67015     67016     67017     67021     67017     67018
     67017     67019     67017     67020     67021     67022     67023     67027
     67023     67024     67023     67025     67023     67026     67027     67028
     67029     67033     67029     67030     67029     67031     67029     67032
     67033     67034     67035     67039     67035     67036     67035     67037
     67035     67038     67039     67040     67041     67045     67041     67042
     67041     67043     67041     67044     67045     67046     67047     67051
     67047     67048     67047     67049     67047     67050     67051     67052
     67053     67057     67053     67054     67053     67055     67053     67056
     67057     67058     67059     67063     67059     67060     67059     67061
     67059     67062     67063     67064     67065     67069     67065     67066
     67065     67067     67065     67068     67069     67070     67071     67075
     67071     67072     67071     67073     67071     67074     67075     67076
     67077     67081     67077     67078     67077     67079     67077     67080
     67081     67082     67083     67087     67083     67084     67083     67085
     67083     67086     67087     67088     67089     67093     67089     67090
     67089     67091     67089     67092     67093     67094     67095     67099
     67095     67096     67095     67097     67095     67098     67099     67100
     67101     67105     67101     67102     67101     67103     67101     67104
     67105     67106     67107     67111     67107     67108     67107     67109
     67107     67110     67111     67112     67113     67117     67113     67114
     67113     67115     67113     67116     67117     67118     67119     67123
     67119     67120     67119     67121     67119     67122     67123     67124
     67125     67129     67125     67126     67125     67127     67125     67128
     67129     67130     67131     67135     67131     67132     67131     67133
     67131     67134     67135     67136     67137     67141     67137     67138
     67137     67139     67137     67140     67141     67142     67143     67147
     67143     67144     67143     67145     67143     67146     67147     67148
     67149     67153     67149     67150     67149     67151     67149     67152
     67153     67154     67155     67159     67155     67156     67155     67157
     67155     67158     67159     67160     67161     67165     67161     67162
     67161     67163     67161     67164     67165     67166     67167     67171
     67167     67168     67167     67169     67167     67170     67171     67172
     67173     67177     67173     67174     67173     67175     67173     67176
     67177     67178     67179     67183     67179     67180     67179     67181
     67179     67182     67183     67184     67185     67189     67185     67186
     67185     67187     67185     67188     67189     67190     67191     67195
     67191     67192     67191     67193     67191     67194     67195     67196
     67197     67201     67197     67198     67197     67199     67197     67200
     67201     67202     67203     67207     67203     67204     67203     67205
     67203     67206     67207     67208     67209     67213     67209     67210
     67209     67211     67209     67212     67213     67214     67215     67219
     67215     67216     67215     67217     67215     67218     67219     67220
     67221     67225     67221     67222     67221     67223     67221     67224
     67225     67226     67227     67231     67227     67228     67227     67229
     67227     67230     67231     67232     67233     67237     67233     67234
     67233     67235     67233     67236     67237     67238     67239     67243
     67239     67240     67239     67241     67239     67242     67243     67244
     67245     67249     67245     67246     67245     67247     67245     67248
     67249     67250     67251     67255     67251     67252     67251     67253
     67251     67254     67255     67256     67257     67261     67257     67258
     67257     67259     67257     67260     67261     67262     67263     67267
     67263     67264     67263     67265     67263     67266     67267     67268
     67269     67273     67269     67270     67269     67271     67269     67272
     67273     67274     67275     67279     67275     67276     67275     67277
     67275     67278     67279     67280     67281     67285     67281     67282
     67281     67283     67281     67284     67285     67286     67287     67291
     67287     67288     67287     67289     67287     67290     67291     67292
     67293     67297     67293     67294     67293     67295     67293     67296
     67297     67298     67299     67303     67299     67300     67299     67301
     67299     67302     67303     67304     67305     67309     67305     67306
     67305     67307     67305     67308     67309     67310     67311     67315
     67311     67312     67311     67313     67311     67314     67315     67316
     67317     67321     67317     67318     67317     67319     67317     67320
     67321     67322     67323     67327     67323     67324     67323     67325
     67323     67326     67327     67328     67329     67333     67329     67330
     67329     67331     67329     67332     67333     67334     67335     67339
     67335     67336     67335     67337     67335     67338     67339     67340
     67341     67345     67341     67342     67341     67343     67341     67344
     67345     67346     67347     67351     67347     67348     67347     67349
     67347     67350     67351     67352     67353     67357     67353     67354
     67353     67355     67353     67356     67357     67358     67359     67363
     67359     67360     67359     67361     67359     67362     67363     67364
     67365     67369     67365     67366     67365     67367     67365     67368
     67369     67370     67371     67375     67371     67372     67371     67373
     67371     67374     67375     67376     67377     67381     67377     67378
     67377     67379     67377     67380     67381     67382     67383     67387
     67383     67384     67383     67385     67383     67386     67387     67388
     67389     67393     67389     67390     67389     67391     67389     67392
     67393     67394     67395     67399     67395     67396     67395     67397
     67395     67398     67399     67400     67401     67405     67401     67402
     67401     67403     67401     67404     67405     67406     67407     67411
     67407     67408     67407     67409     67407     67410     67411     67412
     67413     67417     67413     67414     67413     67415     67413     67416
     67417     67418     67419     67423     67419     67420     67419     67421
     67419     67422     67423     67424     67425     67429     67425     67426
     67425     67427     67425     67428     67429     67430     67431     67435
     67431     67432     67431     67433     67431     67434     67435     67436
     67437     67441     67437     67438     67437     67439     67437     67440
     67441     67442     67443     67447     67443     67444     67443     67445
     67443     67446     67447     67448     67449     67453     67449     67450
     67449     67451     67449     67452     67453     67454     67455     67459
     67455     67456     67455     67457     67455     67458     67459     67460
     67461     67465     67461     67462     67461     67463     67461     67464
     67465     67466     67467     67471     67467     67468     67467     67469
     67467     67470     67471     67472     67473     67477     67473     67474
     67473     67475     67473     67476     67477     67478     67479     67483
     67479     67480     67479     67481     67479     67482     67483     67484
     67485     67489     67485     67486     67485     67487     67485     67488
     67489     67490     67491     67495     67491     67492     67491     67493
     67491     67494     67495     67496     67497     67501     67497     67498
     67497     67499     67497     67500     67501     67502     67503     67507
     67503     67504     67503     67505     67503     67506     67507     67508
     67509     67513     67509     67510     67509     67511     67509     67512
     67513     67514     67515     67519     67515     67516     67515     67517
     67515     67518     67519     67520     67521     67525     67521     67522
     67521     67523     67521     67524     67525     67526     67527     67531
     67527     67528     67527     67529     67527     67530     67531     67532
     67533     67537     67533     67534     67533     67535     67533     67536
     67537     67538     67539     67543     67539     67540     67539     67541
     67539     67542     67543     67544     67545     67549     67545     67546
     67545     67547     67545     67548     67549     67550     67551     67555
     67551     67552     67551     67553     67551     67554     67555     67556
     67557     67561     67557     67558     67557     67559     67557     67560
     67561     67562     67563     67567     67563     67564     67563     67565
     67563     67566     67567     67568     67569     67573     67569     67570
     67569     67571     67569     67572     67573     67574     67575     67579
     67575     67576     67575     67577     67575     67578     67579     67580
     67581     67585     67581     67582     67581     67583     67581     67584
     67585     67586     67587     67591     67587     67588     67587     67589
     67587     67590     67591     67592     67593     67597     67593     67594
     67593     67595     67593     67596     67597     67598     67599     67603
     67599     67600     67599     67601     67599     67602     67603     67604
     67605     67609     67605     67606     67605     67607     67605     67608
     67609     67610     67611     67615     67611     67612     67611     67613
     67611     67614     67615     67616     67617     67621     67617     67618
     67617     67619     67617     67620     67621     67622     67623     67627
     67623     67624     67623     67625     67623     67626     67627     67628
     67629     67633     67629     67630     67629     67631     67629     67632
     67633     67634     67635     67639     67635     67636     67635     67637
     67635     67638     67639     67640     67641     67645     67641     67642
     67641     67643     67641     67644     67645     67646     67647     67651
     67647     67648     67647     67649     67647     67650     67651     67652
     67653     67657     67653     67654     67653     67655     67653     67656
     67657     67658     67659     67663     67659     67660     67659     67661
     67659     67662     67663     67664     67665     67669     67665     67666
     67665     67667     67665     67668     67669     67670     67671     67675
     67671     67672     67671     67673     67671     67674     67675     67676
     67677     67681     67677     67678     67677     67679     67677     67680
     67681     67682     67683     67687     67683     67684     67683     67685
     67683     67686     67687     67688     67689     67693     67689     67690
     67689     67691     67689     67692     67693     67694     67695     67699
     67695     67696     67695     67697     67695     67698     67699     67700
     67701     67705     67701     67702     67701     67703     67701     67704
     67705     67706     67707     67711     67707     67708     67707     67709
     67707     67710     67711     67712     67713     67717     67713     67714
     67713     67715     67713     67716     67717     67718     67719     67723
     67719     67720     67719     67721     67719     67722     67723     67724
     67725     67729     67725     67726     67725     67727     67725     67728
     67729     67730     67731     67735     67731     67732     67731     67733
     67731     67734     67735     67736     67737     67741     67737     67738
     67737     67739     67737     67740     67741     67742     67743     67747
     67743     67744     67743     67745     67743     67746     67747     67748
     67749     67753     67749     67750     67749     67751     67749     67752
     67753     67754     67755     67759     67755     67756     67755     67757
     67755     67758     67759     67760     67761     67765     67761     67762
     67761     67763     67761     67764     67765     67766     67767     67771
     67767     67768     67767     67769     67767     67770     67771     67772
     67773     67777     67773     67774     67773     67775     67773     67776
     67777     67778     67779     67783     67779     67780     67779     67781
     67779     67782     67783     67784     67785     67789     67785     67786
     67785     67787     67785     67788     67789     67790     67791     67795
     67791     67792     67791     67793     67791     67794     67795     67796
     67797     67801     67797     67798     67797     67799     67797     67800
     67801     67802     67803     67807     67803     67804     67803     67805
     67803     67806     67807     67808     67809     67813     67809     67810
     67809     67811     67809     67812     67813     67814     67815     67819
     67815     67816     67815     67817     67815     67818     67819     67820
     67821     67825     67821     67822     67821     67823     67821     67824
     67825     67826     67827     67831     67827     67828     67827     67829
     67827     67830     67831     67832     67833     67837     67833     67834
     67833     67835     67833     67836     67837     67838     67839     67843
     67839     67840     67839     67841     67839     67842     67843     67844
     67845     67849     67845     67846     67845     67847     67845     67848
     67849     67850     67851     67855     67851     67852     67851     67853
     67851     67854     67855     67856     67857     67861     67857     67858
     67857     67859     67857     67860     67861     67862     67863     67867
     67863     67864     67863     67865     67863     67866     67867     67868
     67869     67873     67869     67870     67869     67871     67869     67872
     67873     67874     67875     67879     67875     67876     67875     67877
     67875     67878     67879     67880     67881     67885     67881     67882
     67881     67883     67881     67884     67885     67886     67887     67891
     67887     67888     67887     67889     67887     67890     67891     67892
     67893     67897     67893     67894     67893     67895     67893     67896
     67897     67898     67899     67903     67899     67900     67899     67901
     67899     67902     67903     67904     67905     67909     67905     67906
     67905     67907     67905     67908     67909     67910     67911     67915
     67911     67912     67911     67913     67911     67914     67915     67916
     67917     67921     67917     67918     67917     67919     67917     67920
     67921     67922     67923     67927     67923     67924     67923     67925
     67923     67926     67927     67928     67929     67933     67929     67930
     67929     67931     67929     67932     67933     67934     67935     67939
     67935     67936     67935     67937     67935     67938     67939     67940
     67941     67945     67941     67942     67941     67943     67941     67944
     67945     67946     67947     67951     67947     67948     67947     67949
     67947     67950     67951     67952     67953     67957     67953     67954
     67953     67955     67953     67956     67957     67958     67959     67963
     67959     67960     67959     67961     67959     67962     67963     67964
     67965     67969     67965     67966     67965     67967     67965     67968
     67969     67970     67971     67975     67971     67972     67971     67973
     67971     67974     67975     67976     67977     67981     67977     67978
     67977     67979     67977     67980     67981     67982     67983     67987
     67983     67984     67983     67985     67983     67986     67987     67988
     67989     67993     67989     67990     67989     67991     67989     67992
     67993     67994     67995     67999     67995     67996     67995     67997
     67995     67998     67999     68000     68001     68005     68001     68002
     68001     68003     68001     68004     68005     68006     68007     68011
     68007     68008     68007     68009     68007     68010     68011     68012
     68013     68017     68013     68014     68013     68015     68013     68016
     68017     68018     68019     68023     68019     68020     68019     68021
     68019     68022     68023     68024     68025     68029     68025     68026
     68025     68027     68025     68028     68029     68030     68031     68035
     68031     68032     68031     68033     68031     68034     68035     68036
     68037     68041     68037     68038     68037     68039     68037     68040
     68041     68042     68043     68047     68043     68044     68043     68045
     68043     68046     68047     68048     68049     68053     68049     68050
     68049     68051     68049     68052     68053     68054     68055     68059
     68055     68056     68055     68057     68055     68058     68059     68060
     68061     68065     68061     68062     68061     68063     68061     68064
     68065     68066     68067     68071     68067     68068     68067     68069
     68067     68070     68071     68072     68073     68077     68073     68074
     68073     68075     68073     68076     68077     68078     68079     68083
     68079     68080     68079     68081     68079     68082     68083     68084
     68085     68089     68085     68086     68085     68087     68085     68088
     68089     68090     68091     68095     68091     68092     68091     68093
     68091     68094     68095     68096     68097     68101     68097     68098
     68097     68099     68097     68100     68101     68102     68103     68107
     68103     68104     68103     68105     68103     68106     68107     68108
     68109     68113     68109     68110     68109     68111     68109     68112
     68113     68114     68115     68119     68115     68116     68115     68117
     68115     68118     68119     68120     68121     68125     68121     68122
     68121     68123     68121     68124     68125     68126     68127     68131
     68127     68128     68127     68129     68127     68130     68131     68132
     68133     68137     68133     68134     68133     68135     68133     68136
     68137     68138     68139     68143     68139     68140     68139     68141
     68139     68142     68143     68144     68145     68149     68145     68146
     68145     68147     68145     68148     68149     68150     68151     68155
     68151     68152     68151     68153     68151     68154     68155     68156
     68157     68161     68157     68158     68157     68159     68157     68160
     68161     68162     68163     68167     68163     68164     68163     68165
     68163     68166     68167     68168     68169     68173     68169     68170
     68169     68171     68169     68172     68173     68174     68175     68179
     68175     68176     68175     68177     68175     68178     68179     68180
     68181     68185     68181     68182     68181     68183     68181     68184
     68185     68186     68187     68191     68187     68188     68187     68189
     68187     68190     68191     68192     68193     68197     68193     68194
     68193     68195     68193     68196     68197     68198     68199     68203
     68199     68200     68199     68201     68199     68202     68203     68204
     68205     68209     68205     68206     68205     68207     68205     68208
     68209     68210     68211     68215     68211     68212     68211     68213
     68211     68214     68215     68216     68217     68221     68217     68218
     68217     68219     68217     68220     68221     68222     68223     68227
     68223     68224     68223     68225     68223     68226     68227     68228
     68229     68233     68229     68230     68229     68231     68229     68232
     68233     68234     68235     68239     68235     68236     68235     68237
     68235     68238     68239     68240     68241     68245     68241     68242
     68241     68243     68241     68244     68245     68246     68247     68251
     68247     68248     68247     68249     68247     68250     68251     68252
     68253     68257     68253     68254     68253     68255     68253     68256
     68257     68258     68259     68263     68259     68260     68259     68261
     68259     68262     68263     68264     68265     68269     68265     68266
     68265     68267     68265     68268     68269     68270     68271     68275
     68271     68272     68271     68273     68271     68274     68275     68276
     68277     68281     68277     68278     68277     68279     68277     68280
     68281     68282     68283     68287     68283     68284     68283     68285
     68283     68286     68287     68288     68289     68293     68289     68290
     68289     68291     68289     68292     68293     68294     68295     68299
     68295     68296     68295     68297     68295     68298     68299     68300
     68301     68305     68301     68302     68301     68303     68301     68304
     68305     68306     68307     68311     68307     68308     68307     68309
     68307     68310     68311     68312     68313     68317     68313     68314
     68313     68315     68313     68316     68317     68318     68319     68323
     68319     68320     68319     68321     68319     68322     68323     68324
     68325     68329     68325     68326     68325     68327     68325     68328
     68329     68330     68331     68335     68331     68332     68331     68333
     68331     68334     68335     68336     68337     68341     68337     68338
     68337     68339     68337     68340     68341     68342     68343     68347
     68343     68344     68343     68345     68343     68346     68347     68348
     68349     68353     68349     68350     68349     68351     68349     68352
     68353     68354     68355     68359     68355     68356     68355     68357
     68355     68358     68359     68360     68361     68365     68361     68362
     68361     68363     68361     68364     68365     68366     68367     68371
     68367     68368     68367     68369     68367     68370     68371     68372
     68373     68377     68373     68374     68373     68375     68373     68376
     68377     68378     68379     68383     68379     68380     68379     68381
     68379     68382     68383     68384     68385     68389     68385     68386
     68385     68387     68385     68388     68389     68390     68391     68395
     68391     68392     68391     68393     68391     68394     68395     68396
     68397     68401     68397     68398     68397     68399     68397     68400
     68401     68402     68403     68407     68403     68404     68403     68405
     68403     68406     68407     68408     68409     68413     68409     68410
     68409     68411     68409     68412     68413     68414     68415     68419
     68415     68416     68415     68417     68415     68418     68419     68420
     68421     68425     68421     68422     68421     68423     68421     68424
     68425     68426     68427     68431     68427     68428     68427     68429
     68427     68430     68431     68432     68433     68437     68433     68434
     68433     68435     68433     68436     68437     68438     68439     68443
     68439     68440     68439     68441     68439     68442     68443     68444
     68445     68449     68445     68446     68445     68447     68445     68448
     68449     68450     68451     68455     68451     68452     68451     68453
     68451     68454     68455     68456     68457     68461     68457     68458
     68457     68459     68457     68460     68461     68462     68463     68467
     68463     68464     68463     68465     68463     68466     68467     68468
     68469     68473     68469     68470     68469     68471     68469     68472
     68473     68474     68475     68479     68475     68476     68475     68477
     68475     68478     68479     68480     68481     68485     68481     68482
     68481     68483     68481     68484     68485     68486     68487     68491
     68487     68488     68487     68489     68487     68490     68491     68492
     68493     68497     68493     68494     68493     68495     68493     68496
     68497     68498     68499     68503     68499     68500     68499     68501
     68499     68502     68503     68504     68505     68509     68505     68506
     68505     68507     68505     68508     68509     68510     68511     68515
     68511     68512     68511     68513     68511     68514     68515     68516
     68517     68521     68517     68518     68517     68519     68517     68520
     68521     68522     68523     68527     68523     68524     68523     68525
     68523     68526     68527     68528     68529     68533     68529     68530
     68529     68531     68529     68532     68533     68534     68535     68539
     68535     68536     68535     68537     68535     68538     68539     68540
     68541     68545     68541     68542     68541     68543     68541     68544
     68545     68546     68547     68551     68547     68548     68547     68549
     68547     68550     68551     68552     68553     68557     68553     68554
     68553     68555     68553     68556     68557     68558     68559     68563
     68559     68560     68559     68561     68559     68562     68563     68564
     68565     68569     68565     68566     68565     68567     68565     68568
     68569     68570     68571     68575     68571     68572     68571     68573
     68571     68574     68575     68576     68577     68581     68577     68578
     68577     68579     68577     68580     68581     68582     68583     68587
     68583     68584     68583     68585     68583     68586     68587     68588
     68589     68593     68589     68590     68589     68591     68589     68592
     68593     68594     68595     68599     68595     68596     68595     68597
     68595     68598     68599     68600     68601     68605     68601     68602
     68601     68603     68601     68604     68605     68606     68607     68611
     68607     68608     68607     68609     68607     68610     68611     68612
     68613     68617     68613     68614     68613     68615     68613     68616
     68617     68618     68619     68623     68619     68620     68619     68621
     68619     68622     68623     68624     68625     68629     68625     68626
     68625     68627     68625     68628     68629     68630     68631     68635
     68631     68632     68631     68633     68631     68634     68635     68636
     68637     68641     68637     68638     68637     68639     68637     68640
     68641     68642     68643     68647     68643     68644     68643     68645
     68643     68646     68647     68648     68649     68653     68649     68650
     68649     68651     68649     68652     68653     68654     68655     68659
     68655     68656     68655     68657     68655     68658     68659     68660
     68661     68665     68661     68662     68661     68663     68661     68664
     68665     68666     68667     68671     68667     68668     68667     68669
     68667     68670     68671     68672     68673     68677     68673     68674
     68673     68675     68673     68676     68677     68678     68679     68683
     68679     68680     68679     68681     68679     68682     68683     68684
     68685     68689     68685     68686     68685     68687     68685     68688
     68689     68690     68691     68695     68691     68692     68691     68693
     68691     68694     68695     68696     68697     68701     68697     68698
     68697     68699     68697     68700     68701     68702     68703     68707
     68703     68704     68703     68705     68703     68706     68707     68708
     68709     68713     68709     68710     68709     68711     68709     68712
     68713     68714     68715     68719     68715     68716     68715     68717
     68715     68718     68719     68720     68721     68725     68721     68722
     68721     68723     68721     68724     68725     68726     68727     68731
     68727     68728     68727     68729     68727     68730     68731     68732
     68733     68737     68733     68734     68733     68735     68733     68736
     68737     68738     68739     68743     68739     68740     68739     68741
     68739     68742     68743     68744     68745     68749     68745     68746
     68745     68747     68745     68748     68749     68750     68751     68755
     68751     68752     68751     68753     68751     68754     68755     68756
     68757     68761     68757     68758     68757     68759     68757     68760
     68761     68762     68763     68767     68763     68764     68763     68765
     68763     68766     68767     68768     68769     68773     68769     68770
     68769     68771     68769     68772     68773     68774     68775     68779
     68775     68776     68775     68777     68775     68778     68779     68780
     68781     68785     68781     68782     68781     68783     68781     68784
     68785     68786     68787     68791     68787     68788     68787     68789
     68787     68790     68791     68792     68793     68797     68793     68794
     68793     68795     68793     68796     68797     68798     68799     68803
     68799     68800     68799     68801     68799     68802     68803     68804
     68805     68809     68805     68806     68805     68807     68805     68808
     68809     68810     68811     68815     68811     68812     68811     68813
     68811     68814     68815     68816     68817     68821     68817     68818
     68817     68819     68817     68820     68821     68822     68823     68827
     68823     68824     68823     68825     68823     68826     68827     68828
     68829     68833     68829     68830     68829     68831     68829     68832
     68833     68834     68835     68839     68835     68836     68835     68837
     68835     68838     68839     68840     68841     68845     68841     68842
     68841     68843     68841     68844     68845     68846     68847     68851
     68847     68848     68847     68849     68847     68850     68851     68852
     68853     68857     68853     68854     68853     68855     68853     68856
     68857     68858     68859     68863     68859     68860     68859     68861
     68859     68862     68863     68864     68865     68869     68865     68866
     68865     68867     68865     68868     68869     68870     68871     68875
     68871     68872     68871     68873     68871     68874     68875     68876
     68877     68881     68877     68878     68877     68879     68877     68880
     68881     68882     68883     68887     68883     68884     68883     68885
     68883     68886     68887     68888     68889     68893     68889     68890
     68889     68891     68889     68892     68893     68894     68895     68899
     68895     68896     68895     68897     68895     68898     68899     68900
     68901     68905     68901     68902     68901     68903     68901     68904
     68905     68906     68907     68911     68907     68908     68907     68909
     68907     68910     68911     68912     68913     68917     68913     68914
     68913     68915     68913     68916     68917     68918     68919     68923
     68919     68920     68919     68921     68919     68922     68923     68924
     68925     68929     68925     68926     68925     68927     68925     68928
     68929     68930     68931     68935     68931     68932     68931     68933
     68931     68934     68935     68936     68937     68941     68937     68938
     68937     68939     68937     68940     68941     68942     68943     68947
     68943     68944     68943     68945     68943     68946     68947     68948
     68949     68953     68949     68950     68949     68951     68949     68952
     68953     68954     68955     68959     68955     68956     68955     68957
     68955     68958     68959     68960     68961     68965     68961     68962
     68961     68963     68961     68964     68965     68966     68967     68971
     68967     68968     68967     68969     68967     68970     68971     68972
     68973     68977     68973     68974     68973     68975     68973     68976
     68977     68978     68979     68983     68979     68980     68979     68981
     68979     68982     68983     68984     68985     68989     68985     68986
     68985     68987     68985     68988     68989     68990     68991     68995
     68991     68992     68991     68993     68991     68994     68995     68996
     68997     69001     68997     68998     68997     68999     68997     69000
     69001     69002     69003     69007     69003     69004     69003     69005
     69003     69006     69007     69008     69009     69013     69009     69010
     69009     69011     69009     69012     69013     69014     69015     69019
     69015     69016     69015     69017     69015     69018     69019     69020
     69021     69025     69021     69022     69021     69023     69021     69024
     69025     69026     69027     69031     69027     69028     69027     69029
     69027     69030     69031     69032     69033     69037     69033     69034
     69033     69035     69033     69036     69037     69038     69039     69043
     69039     69040     69039     69041     69039     69042     69043     69044
     69045     69049     69045     69046     69045     69047     69045     69048
     69049     69050     69051     69055     69051     69052     69051     69053
     69051     69054     69055     69056     69057     69061     69057     69058
     69057     69059     69057     69060     69061     69062     69063     69067
     69063     69064     69063     69065     69063     69066     69067     69068
     69069     69073     69069     69070     69069     69071     69069     69072
     69073     69074     69075     69079     69075     69076     69075     69077
     69075     69078     69079     69080     69081     69085     69081     69082
     69081     69083     69081     69084     69085     69086     69087     69091
     69087     69088     69087     69089     69087     69090     69091     69092
     69093     69097     69093     69094     69093     69095     69093     69096
     69097     69098     69099     69103     69099     69100     69099     69101
     69099     69102     69103     69104     69105     69109     69105     69106
     69105     69107     69105     69108     69109     69110     69111     69115
     69111     69112     69111     69113     69111     69114     69115     69116
     69117     69121     69117     69118     69117     69119     69117     69120
     69121     69122     69123     69127     69123     69124     69123     69125
     69123     69126     69127     69128     69129     69133     69129     69130
     69129     69131     69129     69132     69133     69134     69135     69139
     69135     69136     69135     69137     69135     69138     69139     69140
     69141     69145     69141     69142     69141     69143     69141     69144
     69145     69146     69147     69151     69147     69148     69147     69149
     69147     69150     69151     69152     69153     69157     69153     69154
     69153     69155     69153     69156     69157     69158     69159     69163
     69159     69160     69159     69161     69159     69162     69163     69164
     69165     69169     69165     69166     69165     69167     69165     69168
     69169     69170     69171     69175     69171     69172     69171     69173
     69171     69174     69175     69176     69177     69181     69177     69178
     69177     69179     69177     69180     69181     69182     69183     69187
     69183     69184     69183     69185     69183     69186     69187     69188
     69189     69193     69189     69190     69189     69191     69189     69192
     69193     69194     69195     69199     69195     69196     69195     69197
     69195     69198     69199     69200     69201     69205     69201     69202
     69201     69203     69201     69204     69205     69206     69207     69211
     69207     69208     69207     69209     69207     69210     69211     69212
     69213     69217     69213     69214     69213     69215     69213     69216
     69217     69218     69219     69223     69219     69220     69219     69221
     69219     69222     69223     69224     69225     69229     69225     69226
     69225     69227     69225     69228     69229     69230     69231     69235
     69231     69232     69231     69233     69231     69234     69235     69236
     69237     69241     69237     69238     69237     69239     69237     69240
     69241     69242     69243     69247     69243     69244     69243     69245
     69243     69246     69247     69248     69249     69253     69249     69250
     69249     69251     69249     69252     69253     69254     69255     69259
     69255     69256     69255     69257     69255     69258     69259     69260
     69261     69265     69261     69262     69261     69263     69261     69264
     69265     69266     69267     69271     69267     69268     69267     69269
     69267     69270     69271     69272     69273     69277     69273     69274
     69273     69275     69273     69276     69277     69278     69279     69283
     69279     69280     69279     69281     69279     69282     69283     69284
     69285     69289     69285     69286     69285     69287     69285     69288
     69289     69290     69291     69295     69291     69292     69291     69293
     69291     69294     69295     69296     69297     69301     69297     69298
     69297     69299     69297     69300     69301     69302     69303     69307
     69303     69304     69303     69305     69303     69306     69307     69308
     69309     69313     69309     69310     69309     69311     69309     69312
     69313     69314     69315     69319     69315     69316     69315     69317
     69315     69318     69319     69320     69321     69325     69321     69322
     69321     69323     69321     69324     69325     69326     69327     69331
     69327     69328     69327     69329     69327     69330     69331     69332
     69333     69337     69333     69334     69333     69335     69333     69336
     69337     69338     69339     69343     69339     69340     69339     69341
     69339     69342     69343     69344     69345     69349     69345     69346
     69345     69347     69345     69348     69349     69350     69351     69355
     69351     69352     69351     69353     69351     69354     69355     69356
     69357     69361     69357     69358     69357     69359     69357     69360
     69361     69362     69363     69367     69363     69364     69363     69365
     69363     69366     69367     69368     69369     69373     69369     69370
     69369     69371     69369     69372     69373     69374     69375     69379
     69375     69376     69375     69377     69375     69378     69379     69380
     69381     69385     69381     69382     69381     69383     69381     69384
     69385     69386     69387     69391     69387     69388     69387     69389
     69387     69390     69391     69392     69393     69397     69393     69394
     69393     69395     69393     69396     69397     69398     69399     69403
     69399     69400     69399     69401     69399     69402     69403     69404
     69405     69409     69405     69406     69405     69407     69405     69408
     69409     69410     69411     69415     69411     69412     69411     69413
     69411     69414     69415     69416     69417     69421     69417     69418
     69417     69419     69417     69420     69421     69422     69423     69427
     69423     69424     69423     69425     69423     69426     69427     69428
     69429     69433     69429     69430     69429     69431     69429     69432
     69433     69434     69435     69439     69435     69436     69435     69437
     69435     69438     69439     69440     69441     69445     69441     69442
     69441     69443     69441     69444     69445     69446     69447     69451
     69447     69448     69447     69449     69447     69450     69451     69452
     69453     69457     69453     69454     69453     69455     69453     69456
     69457     69458     69459     69463     69459     69460     69459     69461
     69459     69462     69463     69464     69465     69469     69465     69466
     69465     69467     69465     69468     69469     69470     69471     69475
     69471     69472     69471     69473     69471     69474     69475     69476
     69477     69481     69477     69478     69477     69479     69477     69480
     69481     69482     69483     69487     69483     69484     69483     69485
     69483     69486     69487     69488     69489     69493     69489     69490
     69489     69491     69489     69492     69493     69494     69495     69499
     69495     69496     69495     69497     69495     69498     69499     69500
     69501     69505     69501     69502     69501     69503     69501     69504
     69505     69506     69507     69511     69507     69508     69507     69509
     69507     69510     69511     69512     69513     69517     69513     69514
     69513     69515     69513     69516     69517     69518     69519     69523
     69519     69520     69519     69521     69519     69522     69523     69524
     69525     69529     69525     69526     69525     69527     69525     69528
     69529     69530     69531     69535     69531     69532     69531     69533
     69531     69534     69535     69536     69537     69541     69537     69538
     69537     69539     69537     69540     69541     69542     69543     69547
     69543     69544     69543     69545     69543     69546     69547     69548
     69549     69553     69549     69550     69549     69551     69549     69552
     69553     69554     69555     69559     69555     69556     69555     69557
     69555     69558     69559     69560     69561     69565     69561     69562
     69561     69563     69561     69564     69565     69566     69567     69571
     69567     69568     69567     69569     69567     69570     69571     69572
     69573     69577     69573     69574     69573     69575     69573     69576
     69577     69578     69579     69583     69579     69580     69579     69581
     69579     69582     69583     69584     69585     69589     69585     69586
     69585     69587     69585     69588     69589     69590     69591     69595
     69591     69592     69591     69593     69591     69594     69595     69596
     69597     69601     69597     69598     69597     69599     69597     69600
     69601     69602     69603     69607     69603     69604     69603     69605
     69603     69606     69607     69608     69609     69613     69609     69610
     69609     69611     69609     69612     69613     69614     69615     69619
     69615     69616     69615     69617     69615     69618     69619     69620
     69621     69625     69621     69622     69621     69623     69621     69624
     69625     69626     69627     69631     69627     69628     69627     69629
     69627     69630     69631     69632     69633     69637     69633     69634
     69633     69635     69633     69636     69637     69638     69639     69643
     69639     69640     69639     69641     69639     69642     69643     69644
     69645     69649     69645     69646     69645     69647     69645     69648
     69649     69650     69651     69655     69651     69652     69651     69653
     69651     69654     69655     69656     69657     69661     69657     69658
     69657     69659     69657     69660     69661     69662     69663     69667
     69663     69664     69663     69665     69663     69666     69667     69668
     69669     69673     69669     69670     69669     69671     69669     69672
     69673     69674     69675     69679     69675     69676     69675     69677
     69675     69678     69679     69680     69681     69685     69681     69682
     69681     69683     69681     69684     69685     69686     69687     69691
     69687     69688     69687     69689     69687     69690     69691     69692
     69693     69697     69693     69694     69693     69695     69693     69696
     69697     69698     69699     69703     69699     69700     69699     69701
     69699     69702     69703     69704     69705     69709     69705     69706
     69705     69707     69705     69708     69709     69710     69711     69715
     69711     69712     69711     69713     69711     69714     69715     69716
     69717     69721     69717     69718     69717     69719     69717     69720
     69721     69722     69723     69727     69723     69724     69723     69725
     69723     69726     69727     69728     69729     69733     69729     69730
     69729     69731     69729     69732     69733     69734     69735     69739
     69735     69736     69735     69737     69735     69738     69739     69740
     69741     69745     69741     69742     69741     69743     69741     69744
     69745     69746     69747     69751     69747     69748     69747     69749
     69747     69750     69751     69752     69753     69757     69753     69754
     69753     69755     69753     69756     69757     69758     69759     69763
     69759     69760     69759     69761     69759     69762     69763     69764
     69765     69769     69765     69766     69765     69767     69765     69768
     69769     69770     69771     69775     69771     69772     69771     69773
     69771     69774     69775     69776     69777     69781     69777     69778
     69777     69779     69777     69780     69781     69782     69783     69787
     69783     69784     69783     69785     69783     69786     69787     69788
     69789     69793     69789     69790     69789     69791     69789     69792
     69793     69794     69795     69799     69795     69796     69795     69797
     69795     69798     69799     69800     69801     69805     69801     69802
     69801     69803     69801     69804     69805     69806     69807     69811
     69807     69808     69807     69809     69807     69810     69811     69812
     69813     69817     69813     69814     69813     69815     69813     69816
     69817     69818     69819     69823     69819     69820     69819     69821
     69819     69822     69823     69824     69825     69829     69825     69826
     69825     69827     69825     69828     69829     69830     69831     69835
     69831     69832     69831     69833     69831     69834     69835     69836
     69837     69841     69837     69838     69837     69839     69837     69840
     69841     69842     69843     69847     69843     69844     69843     69845
     69843     69846     69847     69848     69849     69853     69849     69850
     69849     69851     69849     69852     69853     69854     69855     69859
     69855     69856     69855     69857     69855     69858     69859     69860
     69861     69865     69861     69862     69861     69863     69861     69864
     69865     69866     69867     69871     69867     69868     69867     69869
     69867     69870     69871     69872     69873     69877     69873     69874
     69873     69875     69873     69876     69877     69878     69879     69883
     69879     69880     69879     69881     69879     69882     69883     69884
     69885     69889     69885     69886     69885     69887     69885     69888
     69889     69890     69891     69895     69891     69892     69891     69893
     69891     69894     69895     69896     69897     69901     69897     69898
     69897     69899     69897     69900     69901     69902     69903     69907
     69903     69904     69903     69905     69903     69906     69907     69908
     69909     69913     69909     69910     69909     69911     69909     69912
     69913     69914     69915     69919     69915     69916     69915     69917
     69915     69918     69919     69920     69921     69925     69921     69922
     69921     69923     69921     69924     69925     69926     69927     69931
     69927     69928     69927     69929     69927     69930     69931     69932
     69933     69937     69933     69934     69933     69935     69933     69936
     69937     69938     69939     69943     69939     69940     69939     69941
     69939     69942     69943     69944     69945     69949     69945     69946
     69945     69947     69945     69948     69949     69950     69951     69955
     69951     69952     69951     69953     69951     69954     69955     69956
     69957     69961     69957     69958     69957     69959     69957     69960
     69961     69962     69963     69967     69963     69964     69963     69965
     69963     69966     69967     69968     69969     69973     69969     69970
     69969     69971     69969     69972     69973     69974     69975     69979
     69975     69976     69975     69977     69975     69978     69979     69980
     69981     69985     69981     69982     69981     69983     69981     69984
     69985     69986     69987     69991     69987     69988     69987     69989
     69987     69990     69991     69992     69993     69997     69993     69994
     69993     69995     69993     69996     69997     69998     69999     70003
     69999     70000     69999     70001     69999     70002     70003     70004
     70005     70009     70005     70006     70005     70007     70005     70008
     70009     70010     70011     70015     70011     70012     70011     70013
     70011     70014     70015     70016     70017     70021     70017     70018
     70017     70019     70017     70020     70021     70022     70023     70027
     70023     70024     70023     70025     70023     70026     70027     70028
     70029     70033     70029     70030     70029     70031     70029     70032
     70033     70034     70035     70039     70035     70036     70035     70037
     70035     70038     70039     70040     70041     70045     70041     70042
     70041     70043     70041     70044     70045     70046     70047     70051
     70047     70048     70047     70049     70047     70050     70051     70052
     70053     70057     70053     70054     70053     70055     70053     70056
     70057     70058     70059     70063     70059     70060     70059     70061
     70059     70062     70063     70064     70065     70069     70065     70066
     70065     70067     70065     70068     70069     70070     70071     70075
     70071     70072     70071     70073     70071     70074     70075     70076
     70077     70081     70077     70078     70077     70079     70077     70080
     70081     70082     70083     70087     70083     70084     70083     70085
     70083     70086     70087     70088     70089     70093     70089     70090
     70089     70091     70089     70092     70093     70094     70095     70099
     70095     70096     70095     70097     70095     70098     70099     70100
     70101     70105     70101     70102     70101     70103     70101     70104
     70105     70106     70107     70111     70107     70108     70107     70109
     70107     70110     70111     70112     70113     70117     70113     70114
     70113     70115     70113     70116     70117     70118     70119     70123
     70119     70120     70119     70121     70119     70122     70123     70124
     70125     70129     70125     70126     70125     70127     70125     70128
     70129     70130     70131     70135     70131     70132     70131     70133
     70131     70134     70135     70136     70137     70141     70137     70138
     70137     70139     70137     70140     70141     70142     70143     70147
     70143     70144     70143     70145     70143     70146     70147     70148
     70149     70153     70149     70150     70149     70151     70149     70152
     70153     70154     70155     70159     70155     70156     70155     70157
     70155     70158     70159     70160     70161     70165     70161     70162
     70161     70163     70161     70164     70165     70166     70167     70171
     70167     70168     70167     70169     70167     70170     70171     70172
     70173     70177     70173     70174     70173     70175     70173     70176
     70177     70178     70179     70183     70179     70180     70179     70181
     70179     70182     70183     70184     70185     70189     70185     70186
     70185     70187     70185     70188     70189     70190     70191     70195
     70191     70192     70191     70193     70191     70194     70195     70196
     70197     70201     70197     70198     70197     70199     70197     70200
     70201     70202     70203     70207     70203     70204     70203     70205
     70203     70206     70207     70208     70209     70213     70209     70210
     70209     70211     70209     70212     70213     70214     70215     70219
     70215     70216     70215     70217     70215     70218     70219     70220
     70221     70225     70221     70222     70221     70223     70221     70224
     70225     70226     70227     70231     70227     70228     70227     70229
     70227     70230     70231     70232     70233     70237     70233     70234
     70233     70235     70233     70236     70237     70238     70239     70243
     70239     70240     70239     70241     70239     70242     70243     70244
     70245     70249     70245     70246     70245     70247     70245     70248
     70249     70250     70251     70255     70251     70252     70251     70253
     70251     70254     70255     70256     70257     70261     70257     70258
     70257     70259     70257     70260     70261     70262     70263     70267
     70263     70264     70263     70265     70263     70266     70267     70268
     70269     70273     70269     70270     70269     70271     70269     70272
     70273     70274     70275     70279     70275     70276     70275     70277
     70275     70278     70279     70280     70281     70285     70281     70282
     70281     70283     70281     70284     70285     70286     70287     70291
     70287     70288     70287     70289     70287     70290     70291     70292
     70293     70297     70293     70294     70293     70295     70293     70296
     70297     70298     70299     70303     70299     70300     70299     70301
     70299     70302     70303     70304     70305     70309     70305     70306
     70305     70307     70305     70308     70309     70310     70311     70315
     70311     70312     70311     70313     70311     70314     70315     70316
     70317     70321     70317     70318     70317     70319     70317     70320
     70321     70322     70323     70327     70323     70324     70323     70325
     70323     70326     70327     70328     70329     70333     70329     70330
     70329     70331     70329     70332     70333     70334     70335     70339
     70335     70336     70335     70337     70335     70338     70339     70340
     70341     70345     70341     70342     70341     70343     70341     70344
     70345     70346     70347     70351     70347     70348     70347     70349
     70347     70350     70351     70352     70353     70357     70353     70354
     70353     70355     70353     70356     70357     70358     70359     70363
     70359     70360     70359     70361     70359     70362     70363     70364
     70365     70369     70365     70366     70365     70367     70365     70368
     70369     70370     70371     70375     70371     70372     70371     70373
     70371     70374     70375     70376     70377     70381     70377     70378
     70377     70379     70377     70380     70381     70382     70383     70387
     70383     70384     70383     70385     70383     70386     70387     70388
     70389     70393     70389     70390     70389     70391     70389     70392
     70393     70394     70395     70399     70395     70396     70395     70397
     70395     70398     70399     70400     70401     70405     70401     70402
     70401     70403     70401     70404     70405     70406     70407     70411
     70407     70408     70407     70409     70407     70410     70411     70412
     70413     70417     70413     70414     70413     70415     70413     70416
     70417     70418     70419     70423     70419     70420     70419     70421
     70419     70422     70423     70424     70425     70429     70425     70426
     70425     70427     70425     70428     70429     70430     70431     70435
     70431     70432     70431     70433     70431     70434     70435     70436
     70437     70441     70437     70438     70437     70439     70437     70440
     70441     70442     70443     70447     70443     70444     70443     70445
     70443     70446     70447     70448     70449     70453     70449     70450
     70449     70451     70449     70452     70453     70454     70455     70459
     70455     70456     70455     70457     70455     70458     70459     70460
     70461     70465     70461     70462     70461     70463     70461     70464
     70465     70466     70467     70471     70467     70468     70467     70469
     70467     70470     70471     70472     70473     70477     70473     70474
     70473     70475     70473     70476     70477     70478     70479     70483
     70479     70480     70479     70481     70479     70482     70483     70484
     70485     70489     70485     70486     70485     70487     70485     70488
     70489     70490     70491     70495     70491     70492     70491     70493
     70491     70494     70495     70496     70497     70501     70497     70498
     70497     70499     70497     70500     70501     70502     70503     70507
     70503     70504     70503     70505     70503     70506     70507     70508
     70509     70513     70509     70510     70509     70511     70509     70512
     70513     70514     70515     70519     70515     70516     70515     70517
     70515     70518     70519     70520     70521     70525     70521     70522
     70521     70523     70521     70524     70525     70526     70527     70531
     70527     70528     70527     70529     70527     70530     70531     70532
     70533     70537     70533     70534     70533     70535     70533     70536
     70537     70538     70539     70543     70539     70540     70539     70541
     70539     70542     70543     70544     70545     70549     70545     70546
     70545     70547     70545     70548     70549     70550     70551     70555
     70551     70552     70551     70553     70551     70554     70555     70556
     70557     70561     70557     70558     70557     70559     70557     70560
     70561     70562     70563     70567     70563     70564     70563     70565
     70563     70566     70567     70568     70569     70573     70569     70570
     70569     70571     70569     70572     70573     70574     70575     70579
     70575     70576     70575     70577     70575     70578     70579     70580
     70581     70585     70581     70582     70581     70583     70581     70584
     70585     70586     70587     70591     70587     70588     70587     70589
     70587     70590     70591     70592     70593     70597     70593     70594
     70593     70595     70593     70596     70597     70598     70599     70603
     70599     70600     70599     70601     70599     70602     70603     70604
     70605     70609     70605     70606     70605     70607     70605     70608
     70609     70610     70611     70615     70611     70612     70611     70613
     70611     70614     70615     70616     70617     70621     70617     70618
     70617     70619     70617     70620     70621     70622     70623     70627
     70623     70624     70623     70625     70623     70626     70627     70628
     70629     70633     70629     70630     70629     70631     70629     70632
     70633     70634     70635     70639     70635     70636     70635     70637
     70635     70638     70639     70640     70641     70645     70641     70642
     70641     70643     70641     70644     70645     70646     70647     70651
     70647     70648     70647     70649     70647     70650     70651     70652
     70653     70657     70653     70654     70653     70655     70653     70656
     70657     70658     70659     70663     70659     70660     70659     70661
     70659     70662     70663     70664     70665     70669     70665     70666
     70665     70667     70665     70668     70669     70670     70671     70675
     70671     70672     70671     70673     70671     70674     70675     70676
     70677     70681     70677     70678     70677     70679     70677     70680
     70681     70682     70683     70687     70683     70684     70683     70685
     70683     70686     70687     70688     70689     70693     70689     70690
     70689     70691     70689     70692     70693     70694     70695     70699
     70695     70696     70695     70697     70695     70698     70699     70700
     70701     70705     70701     70702     70701     70703     70701     70704
     70705     70706     70707     70711     70707     70708     70707     70709
     70707     70710     70711     70712     70713     70717     70713     70714
     70713     70715     70713     70716     70717     70718     70719     70723
     70719     70720     70719     70721     70719     70722     70723     70724
     70725     70729     70725     70726     70725     70727     70725     70728
     70729     70730     70731     70735     70731     70732     70731     70733
     70731     70734     70735     70736     70737     70741     70737     70738
     70737     70739     70737     70740     70741     70742     70743     70747
     70743     70744     70743     70745     70743     70746     70747     70748
     70749     70753     70749     70750     70749     70751     70749     70752
     70753     70754     70755     70759     70755     70756     70755     70757
     70755     70758     70759     70760     70761     70765     70761     70762
     70761     70763     70761     70764     70765     70766     70767     70771
     70767     70768     70767     70769     70767     70770     70771     70772
     70773     70777     70773     70774     70773     70775     70773     70776
     70777     70778     70779     70783     70779     70780     70779     70781
     70779     70782     70783     70784     70785     70789     70785     70786
     70785     70787     70785     70788     70789     70790     70791     70795
     70791     70792     70791     70793     70791     70794     70795     70796
     70797     70801     70797     70798     70797     70799     70797     70800
     70801     70802     70803     70807     70803     70804     70803     70805
     70803     70806     70807     70808     70809     70813     70809     70810
     70809     70811     70809     70812     70813     70814     70815     70819
     70815     70816     70815     70817     70815     70818     70819     70820
     70821     70825     70821     70822     70821     70823     70821     70824
     70825     70826     70827     70831     70827     70828     70827     70829
     70827     70830     70831     70832     70833     70837     70833     70834
     70833     70835     70833     70836     70837     70838     70839     70843
     70839     70840     70839     70841     70839     70842     70843     70844
     70845     70849     70845     70846     70845     70847     70845     70848
     70849     70850     70851     70855     70851     70852     70851     70853
     70851     70854     70855     70856     70857     70861     70857     70858
     70857     70859     70857     70860     70861     70862     70863     70867
     70863     70864     70863     70865     70863     70866     70867     70868
     70869     70873     70869     70870     70869     70871     70869     70872
     70873     70874     70875     70879     70875     70876     70875     70877
     70875     70878     70879     70880     70881     70885     70881     70882
     70881     70883     70881     70884     70885     70886     70887     70891
     70887     70888     70887     70889     70887     70890     70891     70892
     70893     70897     70893     70894     70893     70895     70893     70896
     70897     70898     70899     70903     70899     70900     70899     70901
     70899     70902     70903     70904     70905     70909     70905     70906
     70905     70907     70905     70908     70909     70910     70911     70915
     70911     70912     70911     70913     70911     70914     70915     70916
     70917     70921     70917     70918     70917     70919     70917     70920
     70921     70922     70923     70927     70923     70924     70923     70925
     70923     70926     70927     70928     70929     70933     70929     70930
     70929     70931     70929     70932     70933     70934     70935     70939
     70935     70936     70935     70937     70935     70938     70939     70940
     70941     70945     70941     70942     70941     70943     70941     70944
     70945     70946     70947     70951     70947     70948     70947     70949
     70947     70950     70951     70952     70953     70957     70953     70954
     70953     70955     70953     70956     70957     70958     70959     70963
     70959     70960     70959     70961     70959     70962     70963     70964
     70965     70969     70965     70966     70965     70967     70965     70968
     70969     70970     70971     70975     70971     70972     70971     70973
     70971     70974     70975     70976     70977     70981     70977     70978
     70977     70979     70977     70980     70981     70982     70983     70987
     70983     70984     70983     70985     70983     70986     70987     70988
     70989     70993     70989     70990     70989     70991     70989     70992
     70993     70994     70995     70999     70995     70996     70995     70997
     70995     70998     70999     71000     71001     71005     71001     71002
     71001     71003     71001     71004     71005     71006     71007     71011
     71007     71008     71007     71009     71007     71010     71011     71012
     71013     71017     71013     71014     71013     71015     71013     71016
     71017     71018     71019     71023     71019     71020     71019     71021
     71019     71022     71023     71024     71025     71029     71025     71026
     71025     71027     71025     71028     71029     71030     71031     71035
     71031     71032     71031     71033     71031     71034     71035     71036
     71037     71041     71037     71038     71037     71039     71037     71040
     71041     71042     71043     71047     71043     71044     71043     71045
     71043     71046     71047     71048     71049     71053     71049     71050
     71049     71051     71049     71052     71053     71054     71055     71059
     71055     71056     71055     71057     71055     71058     71059     71060
     71061     71065     71061     71062     71061     71063     71061     71064
     71065     71066     71067     71071     71067     71068     71067     71069
     71067     71070     71071     71072     71073     71077     71073     71074
     71073     71075     71073     71076     71077     71078     71079     71083
     71079     71080     71079     71081     71079     71082     71083     71084
     71085     71089     71085     71086     71085     71087     71085     71088
     71089     71090     71091     71095     71091     71092     71091     71093
     71091     71094     71095     71096     71097     71101     71097     71098
     71097     71099     71097     71100     71101     71102     71103     71107
     71103     71104     71103     71105     71103     71106     71107     71108
     71109     71113     71109     71110     71109     71111     71109     71112
     71113     71114     71115     71119     71115     71116     71115     71117
     71115     71118     71119     71120     71121     71125     71121     71122
     71121     71123     71121     71124     71125     71126     71127     71131
     71127     71128     71127     71129     71127     71130     71131     71132
     71133     71137     71133     71134     71133     71135     71133     71136
     71137     71138     71139     71143     71139     71140     71139     71141
     71139     71142     71143     71144     71145     71149     71145     71146
     71145     71147     71145     71148     71149     71150     71151     71155
     71151     71152     71151     71153     71151     71154     71155     71156
     71157     71161     71157     71158     71157     71159     71157     71160
     71161     71162     71163     71167     71163     71164     71163     71165
     71163     71166     71167     71168     71169     71173     71169     71170
     71169     71171     71169     71172     71173     71174     71175     71179
     71175     71176     71175     71177     71175     71178     71179     71180
     71181     71185     71181     71182     71181     71183     71181     71184
     71185     71186     71187     71191     71187     71188     71187     71189
     71187     71190     71191     71192     71193     71197     71193     71194
     71193     71195     71193     71196     71197     71198     71199     71203
     71199     71200     71199     71201     71199     71202     71203     71204
     71205     71209     71205     71206     71205     71207     71205     71208
     71209     71210     71211     71215     71211     71212     71211     71213
     71211     71214     71215     71216     71217     71221     71217     71218
     71217     71219     71217     71220     71221     71222     71223     71227
     71223     71224     71223     71225     71223     71226     71227     71228
     71229     71233     71229     71230     71229     71231     71229     71232
     71233     71234     71235     71239     71235     71236     71235     71237
     71235     71238     71239     71240     71241     71245     71241     71242
     71241     71243     71241     71244     71245     71246     71247     71251
     71247     71248     71247     71249     71247     71250     71251     71252
     71253     71257     71253     71254     71253     71255     71253     71256
     71257     71258     71259     71263     71259     71260     71259     71261
     71259     71262     71263     71264     71265     71269     71265     71266
     71265     71267     71265     71268     71269     71270     71271     71275
     71271     71272     71271     71273     71271     71274     71275     71276
     71277     71281     71277     71278     71277     71279     71277     71280
     71281     71282     71283     71287     71283     71284     71283     71285
     71283     71286     71287     71288     71289     71293     71289     71290
     71289     71291     71289     71292     71293     71294     71295     71299
     71295     71296     71295     71297     71295     71298     71299     71300
     71301     71305     71301     71302     71301     71303     71301     71304
     71305     71306     71307     71311     71307     71308     71307     71309
     71307     71310     71311     71312     71313     71317     71313     71314
     71313     71315     71313     71316     71317     71318     71319     71323
     71319     71320     71319     71321     71319     71322     71323     71324
     71325     71329     71325     71326     71325     71327     71325     71328
     71329     71330     71331     71335     71331     71332     71331     71333
     71331     71334     71335     71336     71337     71341     71337     71338
     71337     71339     71337     71340     71341     71342     71343     71347
     71343     71344     71343     71345     71343     71346     71347     71348
     71349     71353     71349     71350     71349     71351     71349     71352
     71353     71354     71355     71359     71355     71356     71355     71357
     71355     71358     71359     71360     71361     71365     71361     71362
     71361     71363     71361     71364     71365     71366     71367     71371
     71367     71368     71367     71369     71367     71370     71371     71372
     71373     71377     71373     71374     71373     71375     71373     71376
     71377     71378     71379     71383     71379     71380     71379     71381
     71379     71382     71383     71384     71385     71389     71385     71386
     71385     71387     71385     71388     71389     71390     71391     71395
     71391     71392     71391     71393     71391     71394     71395     71396
     71397     71401     71397     71398     71397     71399     71397     71400
     71401     71402     71403     71407     71403     71404     71403     71405
     71403     71406     71407     71408     71409     71413     71409     71410
     71409     71411     71409     71412     71413     71414     71415     71419
     71415     71416     71415     71417     71415     71418     71419     71420
     71421     71425     71421     71422     71421     71423     71421     71424
     71425     71426     71427     71431     71427     71428     71427     71429
     71427     71430     71431     71432     71433     71437     71433     71434
     71433     71435     71433     71436     71437     71438     71439     71443
     71439     71440     71439     71441     71439     71442     71443     71444
     71445     71449     71445     71446     71445     71447     71445     71448
     71449     71450     71451     71455     71451     71452     71451     71453
     71451     71454     71455     71456     71457     71461     71457     71458
     71457     71459     71457     71460     71461     71462     71463     71467
     71463     71464     71463     71465     71463     71466     71467     71468
     71469     71473     71469     71470     71469     71471     71469     71472
     71473     71474     71475     71479     71475     71476     71475     71477
     71475     71478     71479     71480     71481     71485     71481     71482
     71481     71483     71481     71484     71485     71486     71487     71491
     71487     71488     71487     71489     71487     71490     71491     71492
     71493     71497     71493     71494     71493     71495     71493     71496
     71497     71498     71499     71503     71499     71500     71499     71501
     71499     71502     71503     71504     71505     71509     71505     71506
     71505     71507     71505     71508     71509     71510     71511     71515
     71511     71512     71511     71513     71511     71514     71515     71516
     71517     71521     71517     71518     71517     71519     71517     71520
     71521     71522     71523     71527     71523     71524     71523     71525
     71523     71526     71527     71528     71529     71533     71529     71530
     71529     71531     71529     71532     71533     71534     71535     71539
     71535     71536     71535     71537     71535     71538     71539     71540
     71541     71545     71541     71542     71541     71543     71541     71544
     71545     71546     71547     71551     71547     71548     71547     71549
     71547     71550     71551     71552     71553     71557     71553     71554
     71553     71555     71553     71556     71557     71558     71559     71563
     71559     71560     71559     71561     71559     71562     71563     71564
     71565     71569     71565     71566     71565     71567     71565     71568
     71569     71570     71571     71575     71571     71572     71571     71573
     71571     71574     71575     71576     71577     71581     71577     71578
     71577     71579     71577     71580     71581     71582     71583     71587
     71583     71584     71583     71585     71583     71586     71587     71588
     71589     71593     71589     71590     71589     71591     71589     71592
     71593     71594     71595     71599     71595     71596     71595     71597
     71595     71598     71599     71600     71601     71605     71601     71602
     71601     71603     71601     71604     71605     71606     71607     71611
     71607     71608     71607     71609     71607     71610     71611     71612
     71613     71617     71613     71614     71613     71615     71613     71616
     71617     71618     71619     71623     71619     71620     71619     71621
     71619     71622     71623     71624     71625     71629     71625     71626
     71625     71627     71625     71628     71629     71630     71631     71635
     71631     71632     71631     71633     71631     71634     71635     71636
     71637     71641     71637     71638     71637     71639     71637     71640
     71641     71642     71643     71647     71643     71644     71643     71645
     71643     71646     71647     71648     71649     71653     71649     71650
     71649     71651     71649     71652     71653     71654     71655     71659
     71655     71656     71655     71657     71655     71658     71659     71660
     71661     71665     71661     71662     71661     71663     71661     71664
     71665     71666     71667     71671     71667     71668     71667     71669
     71667     71670     71671     71672     71673     71677     71673     71674
     71673     71675     71673     71676     71677     71678     71679     71683
     71679     71680     71679     71681     71679     71682     71683     71684
     71685     71689     71685     71686     71685     71687     71685     71688
     71689     71690     71691     71695     71691     71692     71691     71693
     71691     71694     71695     71696     71697     71701     71697     71698
     71697     71699     71697     71700     71701     71702     71703     71707
     71703     71704     71703     71705     71703     71706     71707     71708
     71709     71713     71709     71710     71709     71711     71709     71712
     71713     71714     71715     71719     71715     71716     71715     71717
     71715     71718     71719     71720     71721     71725     71721     71722
     71721     71723     71721     71724     71725     71726     71727     71731
     71727     71728     71727     71729     71727     71730     71731     71732
     71733     71737     71733     71734     71733     71735     71733     71736
     71737     71738     71739     71743     71739     71740     71739     71741
     71739     71742     71743     71744     71745     71749     71745     71746
     71745     71747     71745     71748     71749     71750     71751     71755
     71751     71752     71751     71753     71751     71754     71755     71756
     71757     71761     71757     71758     71757     71759     71757     71760
     71761     71762     71763     71767     71763     71764     71763     71765
     71763     71766     71767     71768     71769     71773     71769     71770
     71769     71771     71769     71772     71773     71774     71775     71779
     71775     71776     71775     71777     71775     71778     71779     71780
     71781     71785     71781     71782     71781     71783     71781     71784
     71785     71786     71787     71791     71787     71788     71787     71789
     71787     71790     71791     71792     71793     71797     71793     71794
     71793     71795     71793     71796     71797     71798     71799     71803
     71799     71800     71799     71801     71799     71802     71803     71804
     71805     71809     71805     71806     71805     71807     71805     71808
     71809     71810     71811     71815     71811     71812     71811     71813
     71811     71814     71815     71816     71817     71821     71817     71818
     71817     71819     71817     71820     71821     71822     71823     71827
     71823     71824     71823     71825     71823     71826     71827     71828
     71829     71833     71829     71830     71829     71831     71829     71832
     71833     71834     71835     71839     71835     71836     71835     71837
     71835     71838     71839     71840     71841     71845     71841     71842
     71841     71843     71841     71844     71845     71846     71847     71851
     71847     71848     71847     71849     71847     71850     71851     71852
     71853     71857     71853     71854     71853     71855     71853     71856
     71857     71858     71859     71863     71859     71860     71859     71861
     71859     71862     71863     71864     71865     71869     71865     71866
     71865     71867     71865     71868     71869     71870     71871     71875
     71871     71872     71871     71873     71871     71874     71875     71876
     71877     71881     71877     71878     71877     71879     71877     71880
     71881     71882     71883     71887     71883     71884     71883     71885
     71883     71886     71887     71888     71889     71893     71889     71890
     71889     71891     71889     71892     71893     71894     71895     71899
     71895     71896     71895     71897     71895     71898     71899     71900
     71901     71905     71901     71902     71901     71903     71901     71904
     71905     71906     71907     71911     71907     71908     71907     71909
     71907     71910     71911     71912     71913     71917     71913     71914
     71913     71915     71913     71916     71917     71918     71919     71923
     71919     71920     71919     71921     71919     71922     71923     71924
     71925     71929     71925     71926     71925     71927     71925     71928
     71929     71930     71931     71935     71931     71932     71931     71933
     71931     71934     71935     71936     71937     71941     71937     71938
     71937     71939     71937     71940     71941     71942     71943     71947
     71943     71944     71943     71945     71943     71946     71947     71948
     71949     71953     71949     71950     71949     71951     71949     71952
     71953     71954     71955     71959     71955     71956     71955     71957
     71955     71958     71959     71960     71961     71965     71961     71962
     71961     71963     71961     71964     71965     71966     71967     71971
     71967     71968     71967     71969     71967     71970     71971     71972
     71973     71977     71973     71974     71973     71975     71973     71976
     71977     71978     71979     71983     71979     71980     71979     71981
     71979     71982     71983     71984     71985     71989     71985     71986
     71985     71987     71985     71988     71989     71990     71991     71995
     71991     71992     71991     71993     71991     71994     71995     71996
     71997     72001     71997     71998     71997     71999     71997     72000
     72001     72002     72003     72007     72003     72004     72003     72005
     72003     72006     72007     72008     72009     72013     72009     72010
     72009     72011     72009     72012     72013     72014     72015     72019
     72015     72016     72015     72017     72015     72018     72019     72020
     72021     72025     72021     72022     72021     72023     72021     72024
     72025     72026     72027     72031     72027     72028     72027     72029
     72027     72030     72031     72032     72033     72037     72033     72034
     72033     72035     72033     72036     72037     72038     72039     72043
     72039     72040     72039     72041     72039     72042     72043     72044
     72045     72049     72045     72046     72045     72047     72045     72048
     72049     72050     72051     72055     72051     72052     72051     72053
     72051     72054     72055     72056     72057     72061     72057     72058
     72057     72059     72057     72060     72061     72062     72063     72067
     72063     72064     72063     72065     72063     72066     72067     72068
     72069     72073     72069     72070     72069     72071     72069     72072
     72073     72074     72075     72079     72075     72076     72075     72077
     72075     72078     72079     72080     72081     72085     72081     72082
     72081     72083     72081     72084     72085     72086     72087     72091
     72087     72088     72087     72089     72087     72090     72091     72092
     72093     72097     72093     72094     72093     72095     72093     72096
     72097     72098     72099     72103     72099     72100     72099     72101
     72099     72102     72103     72104     72105     72109     72105     72106
     72105     72107     72105     72108     72109     72110     72111     72115
     72111     72112     72111     72113     72111     72114     72115     72116
     72117     72121     72117     72118     72117     72119     72117     72120
     72121     72122     72123     72127     72123     72124     72123     72125
     72123     72126     72127     72128     72129     72133     72129     72130
     72129     72131     72129     72132     72133     72134     72135     72139
     72135     72136     72135     72137     72135     72138     72139     72140
     72141     72145     72141     72142     72141     72143     72141     72144
     72145     72146     72147     72151     72147     72148     72147     72149
     72147     72150     72151     72152     72153     72157     72153     72154
     72153     72155     72153     72156     72157     72158     72159     72163
     72159     72160     72159     72161     72159     72162     72163     72164
     72165     72169     72165     72166     72165     72167     72165     72168
     72169     72170     72171     72175     72171     72172     72171     72173
     72171     72174     72175     72176     72177     72181     72177     72178
     72177     72179     72177     72180     72181     72182     72183     72187
     72183     72184     72183     72185     72183     72186     72187     72188
     72189     72193     72189     72190     72189     72191     72189     72192
     72193     72194     72195     72199     72195     72196     72195     72197
     72195     72198     72199     72200     72201     72205     72201     72202
     72201     72203     72201     72204     72205     72206     72207     72211
     72207     72208     72207     72209     72207     72210     72211     72212
     72213     72217     72213     72214     72213     72215     72213     72216
     72217     72218     72219     72223     72219     72220     72219     72221
     72219     72222     72223     72224     72225     72229     72225     72226
     72225     72227     72225     72228     72229     72230     72231     72235
     72231     72232     72231     72233     72231     72234     72235     72236
     72237     72241     72237     72238     72237     72239     72237     72240
     72241     72242     72243     72247     72243     72244     72243     72245
     72243     72246     72247     72248     72249     72253     72249     72250
     72249     72251     72249     72252     72253     72254     72255     72259
     72255     72256     72255     72257     72255     72258     72259     72260
     72261     72265     72261     72262     72261     72263     72261     72264
     72265     72266     72267     72271     72267     72268     72267     72269
     72267     72270     72271     72272     72273     72277     72273     72274
     72273     72275     72273     72276     72277     72278     72279     72283
     72279     72280     72279     72281     72279     72282     72283     72284
     72285     72289     72285     72286     72285     72287     72285     72288
     72289     72290     72291     72295     72291     72292     72291     72293
     72291     72294     72295     72296     72297     72301     72297     72298
     72297     72299     72297     72300     72301     72302     72303     72307
     72303     72304     72303     72305     72303     72306     72307     72308
     72309     72313     72309     72310     72309     72311     72309     72312
     72313     72314     72315     72319     72315     72316     72315     72317
     72315     72318     72319     72320     72321     72325     72321     72322
     72321     72323     72321     72324     72325     72326     72327     72331
     72327     72328     72327     72329     72327     72330     72331     72332
     72333     72337     72333     72334     72333     72335     72333     72336
     72337     72338     72339     72343     72339     72340     72339     72341
     72339     72342     72343     72344     72345     72349     72345     72346
     72345     72347     72345     72348     72349     72350     72351     72355
     72351     72352     72351     72353     72351     72354     72355     72356
     72357     72361     72357     72358     72357     72359     72357     72360
     72361     72362     72363     72367     72363     72364     72363     72365
     72363     72366     72367     72368     72369     72373     72369     72370
     72369     72371     72369     72372     72373     72374     72375     72379
     72375     72376     72375     72377     72375     72378     72379     72380
     72381     72385     72381     72382     72381     72383     72381     72384
     72385     72386     72387     72391     72387     72388     72387     72389
     72387     72390     72391     72392     72393     72397     72393     72394
     72393     72395     72393     72396     72397     72398     72399     72403
     72399     72400     72399     72401     72399     72402     72403     72404
     72405     72409     72405     72406     72405     72407     72405     72408
     72409     72410     72411     72415     72411     72412     72411     72413
     72411     72414     72415     72416     72417     72421     72417     72418
     72417     72419     72417     72420     72421     72422     72423     72427
     72423     72424     72423     72425     72423     72426     72427     72428
     72429     72433     72429     72430     72429     72431     72429     72432
     72433     72434     72435     72439     72435     72436     72435     72437
     72435     72438     72439     72440     72441     72445     72441     72442
     72441     72443     72441     72444     72445     72446     72447     72451
     72447     72448     72447     72449     72447     72450     72451     72452
     72453     72457     72453     72454     72453     72455     72453     72456
     72457     72458     72459     72463     72459     72460     72459     72461
     72459     72462     72463     72464     72465     72469     72465     72466
     72465     72467     72465     72468     72469     72470     72471     72475
     72471     72472     72471     72473     72471     72474     72475     72476
     72477     72481     72477     72478     72477     72479     72477     72480
     72481     72482     72483     72487     72483     72484     72483     72485
     72483     72486     72487     72488     72489     72493     72489     72490
     72489     72491     72489     72492     72493     72494     72495     72499
     72495     72496     72495     72497     72495     72498     72499     72500
     72501     72505     72501     72502     72501     72503     72501     72504
     72505     72506     72507     72511     72507     72508     72507     72509
     72507     72510     72511     72512     72513     72517     72513     72514
     72513     72515     72513     72516     72517     72518     72519     72523
     72519     72520     72519     72521     72519     72522     72523     72524
     72525     72529     72525     72526     72525     72527     72525     72528
     72529     72530     72531     72535     72531     72532     72531     72533
     72531     72534     72535     72536     72537     72541     72537     72538
     72537     72539     72537     72540     72541     72542     72543     72547
     72543     72544     72543     72545     72543     72546     72547     72548
     72549     72553     72549     72550     72549     72551     72549     72552
     72553     72554     72555     72559     72555     72556     72555     72557
     72555     72558     72559     72560     72561     72565     72561     72562
     72561     72563     72561     72564     72565     72566     72567     72571
     72567     72568     72567     72569     72567     72570     72571     72572
     72573     72577     72573     72574     72573     72575     72573     72576
     72577     72578     72579     72583     72579     72580     72579     72581
     72579     72582     72583     72584     72585     72589     72585     72586
     72585     72587     72585     72588     72589     72590     72591     72595
     72591     72592     72591     72593     72591     72594     72595     72596
     72597     72601     72597     72598     72597     72599     72597     72600
     72601     72602     72603     72607     72603     72604     72603     72605
     72603     72606     72607     72608     72609     72613     72609     72610
     72609     72611     72609     72612     72613     72614     72615     72619
     72615     72616     72615     72617     72615     72618     72619     72620
     72621     72625     72621     72622     72621     72623     72621     72624
     72625     72626     72627     72631     72627     72628     72627     72629
     72627     72630     72631     72632     72633     72637     72633     72634
     72633     72635     72633     72636     72637     72638     72639     72643
     72639     72640     72639     72641     72639     72642     72643     72644
     72645     72649     72645     72646     72645     72647     72645     72648
     72649     72650     72651     72655     72651     72652     72651     72653
     72651     72654     72655     72656     72657     72661     72657     72658
     72657     72659     72657     72660     72661     72662     72663     72667
     72663     72664     72663     72665     72663     72666     72667     72668
     72669     72673     72669     72670     72669     72671     72669     72672
     72673     72674     72675     72679     72675     72676     72675     72677
     72675     72678     72679     72680     72681     72685     72681     72682
     72681     72683     72681     72684     72685     72686     72687     72691
     72687     72688     72687     72689     72687     72690     72691     72692
     72693     72697     72693     72694     72693     72695     72693     72696
     72697     72698     72699     72703     72699     72700     72699     72701
     72699     72702     72703     72704     72705     72709     72705     72706
     72705     72707     72705     72708     72709     72710     72711     72715
     72711     72712     72711     72713     72711     72714     72715     72716
     72717     72721     72717     72718     72717     72719     72717     72720
     72721     72722     72723     72727     72723     72724     72723     72725
     72723     72726     72727     72728     72729     72733     72729     72730
     72729     72731     72729     72732     72733     72734     72735     72739
     72735     72736     72735     72737     72735     72738     72739     72740
     72741     72745     72741     72742     72741     72743     72741     72744
     72745     72746     72747     72751     72747     72748     72747     72749
     72747     72750     72751     72752     72753     72757     72753     72754
     72753     72755     72753     72756     72757     72758     72759     72763
     72759     72760     72759     72761     72759     72762     72763     72764
     72765     72769     72765     72766     72765     72767     72765     72768
     72769     72770     72771     72775     72771     72772     72771     72773
     72771     72774     72775     72776     72777     72781     72777     72778
     72777     72779     72777     72780     72781     72782     72783     72787
     72783     72784     72783     72785     72783     72786     72787     72788
     72789     72793     72789     72790     72789     72791     72789     72792
     72793     72794     72795     72799     72795     72796     72795     72797
     72795     72798     72799     72800     72801     72805     72801     72802
     72801     72803     72801     72804     72805     72806     72807     72811
     72807     72808     72807     72809     72807     72810     72811     72812
     72813     72817     72813     72814     72813     72815     72813     72816
     72817     72818     72819     72823     72819     72820     72819     72821
     72819     72822     72823     72824     72825     72829     72825     72826
     72825     72827     72825     72828     72829     72830     72831     72835
     72831     72832     72831     72833     72831     72834     72835     72836
     72837     72841     72837     72838     72837     72839     72837     72840
     72841     72842     72843     72847     72843     72844     72843     72845
     72843     72846     72847     72848     72849     72853     72849     72850
     72849     72851     72849     72852     72853     72854     72855     72859
     72855     72856     72855     72857     72855     72858     72859     72860
     72861     72865     72861     72862     72861     72863     72861     72864
     72865     72866     72867     72871     72867     72868     72867     72869
     72867     72870     72871     72872     72873     72877     72873     72874
     72873     72875     72873     72876     72877     72878     72879     72883
     72879     72880     72879     72881     72879     72882     72883     72884
     72885     72889     72885     72886     72885     72887     72885     72888
     72889     72890     72891     72895     72891     72892     72891     72893
     72891     72894     72895     72896     72897     72901     72897     72898
     72897     72899     72897     72900     72901     72902     72903     72907
     72903     72904     72903     72905     72903     72906     72907     72908
     72909     72913     72909     72910     72909     72911     72909     72912
     72913     72914     72915     72919     72915     72916     72915     72917
     72915     72918     72919     72920     72921     72925     72921     72922
     72921     72923     72921     72924     72925     72926     72927     72931
     72927     72928     72927     72929     72927     72930     72931     72932
     72933     72937     72933     72934     72933     72935     72933     72936
     72937     72938     72939     72943     72939     72940     72939     72941
     72939     72942     72943     72944     72945     72949     72945     72946
     72945     72947     72945     72948     72949     72950     72951     72955
     72951     72952     72951     72953     72951     72954     72955     72956
     72957     72961     72957     72958     72957     72959     72957     72960
     72961     72962     72963     72967     72963     72964     72963     72965
     72963     72966     72967     72968     72969     72973     72969     72970
     72969     72971     72969     72972     72973     72974     72975     72979
     72975     72976     72975     72977     72975     72978     72979     72980
     72981     72985     72981     72982     72981     72983     72981     72984
     72985     72986     72987     72991     72987     72988     72987     72989
     72987     72990     72991     72992     72993     72997     72993     72994
     72993     72995     72993     72996     72997     72998     72999     73003
     72999     73000     72999     73001     72999     73002     73003     73004
     73005     73009     73005     73006     73005     73007     73005     73008
     73009     73010     73011     73015     73011     73012     73011     73013
     73011     73014     73015     73016     73017     73021     73017     73018
     73017     73019     73017     73020     73021     73022     73023     73027
     73023     73024     73023     73025     73023     73026     73027     73028
     73029     73033     73029     73030     73029     73031     73029     73032
     73033     73034     73035     73039     73035     73036     73035     73037
     73035     73038     73039     73040     73041     73045     73041     73042
     73041     73043     73041     73044     73045     73046     73047     73051
     73047     73048     73047     73049     73047     73050     73051     73052
     73053     73057     73053     73054     73053     73055     73053     73056
     73057     73058     73059     73063     73059     73060     73059     73061
     73059     73062     73063     73064     73065     73069     73065     73066
     73065     73067     73065     73068     73069     73070     73071     73075
     73071     73072     73071     73073     73071     73074     73075     73076
     73077     73081     73077     73078     73077     73079     73077     73080
     73081     73082     73083     73087     73083     73084     73083     73085
     73083     73086     73087     73088     73089     73093     73089     73090
     73089     73091     73089     73092     73093     73094     73095     73099
     73095     73096     73095     73097     73095     73098     73099     73100
     73101     73105     73101     73102     73101     73103     73101     73104
     73105     73106     73107     73111     73107     73108     73107     73109
     73107     73110     73111     73112     73113     73117     73113     73114
     73113     73115     73113     73116     73117     73118     73119     73123
     73119     73120     73119     73121     73119     73122     73123     73124
     73125     73129     73125     73126     73125     73127     73125     73128
     73129     73130     73131     73135     73131     73132     73131     73133
     73131     73134     73135     73136     73137     73141     73137     73138
     73137     73139     73137     73140     73141     73142     73143     73147
     73143     73144     73143     73145     73143     73146     73147     73148
     73149     73153     73149     73150     73149     73151     73149     73152
     73153     73154     73155     73159     73155     73156     73155     73157
     73155     73158     73159     73160     73161     73165     73161     73162
     73161     73163     73161     73164     73165     73166     73167     73171
     73167     73168     73167     73169     73167     73170     73171     73172
     73173     73177     73173     73174     73173     73175     73173     73176
     73177     73178     73179     73183     73179     73180     73179     73181
     73179     73182     73183     73184     73185     73189     73185     73186
     73185     73187     73185     73188     73189     73190     73191     73195
     73191     73192     73191     73193     73191     73194     73195     73196
     73197     73201     73197     73198     73197     73199     73197     73200
     73201     73202     73203     73207     73203     73204     73203     73205
     73203     73206     73207     73208     73209     73213     73209     73210
     73209     73211     73209     73212     73213     73214     73215     73219
     73215     73216     73215     73217     73215     73218     73219     73220
     73221     73225     73221     73222     73221     73223     73221     73224
     73225     73226     73227     73231     73227     73228     73227     73229
     73227     73230     73231     73232     73233     73237     73233     73234
     73233     73235     73233     73236     73237     73238     73239     73243
     73239     73240     73239     73241     73239     73242     73243     73244
     73245     73249     73245     73246     73245     73247     73245     73248
     73249     73250     73251     73255     73251     73252     73251     73253
     73251     73254     73255     73256     73257     73261     73257     73258
     73257     73259     73257     73260     73261     73262     73263     73267
     73263     73264     73263     73265     73263     73266     73267     73268
     73269     73273     73269     73270     73269     73271     73269     73272
     73273     73274     73275     73279     73275     73276     73275     73277
     73275     73278     73279     73280     73281     73285     73281     73282
     73281     73283     73281     73284     73285     73286     73287     73291
     73287     73288     73287     73289     73287     73290     73291     73292
     73293     73297     73293     73294     73293     73295     73293     73296
     73297     73298     73299     73303     73299     73300     73299     73301
     73299     73302     73303     73304     73305     73309     73305     73306
     73305     73307     73305     73308     73309     73310     73311     73315
     73311     73312     73311     73313     73311     73314     73315     73316
     73317     73321     73317     73318     73317     73319     73317     73320
     73321     73322     73323     73327     73323     73324     73323     73325
     73323     73326     73327     73328     73329     73333     73329     73330
     73329     73331     73329     73332     73333     73334     73335     73339
     73335     73336     73335     73337     73335     73338     73339     73340
     73341     73345     73341     73342     73341     73343     73341     73344
     73345     73346     73347     73351     73347     73348     73347     73349
     73347     73350     73351     73352     73353     73357     73353     73354
     73353     73355     73353     73356     73357     73358     73359     73363
     73359     73360     73359     73361     73359     73362     73363     73364
     73365     73369     73365     73366     73365     73367     73365     73368
     73369     73370     73371     73375     73371     73372     73371     73373
     73371     73374     73375     73376     73377     73381     73377     73378
     73377     73379     73377     73380     73381     73382     73383     73387
     73383     73384     73383     73385     73383     73386     73387     73388
     73389     73393     73389     73390     73389     73391     73389     73392
     73393     73394     73395     73399     73395     73396     73395     73397
     73395     73398     73399     73400     73401     73405     73401     73402
     73401     73403     73401     73404     73405     73406     73407     73411
     73407     73408     73407     73409     73407     73410     73411     73412
     73413     73417     73413     73414     73413     73415     73413     73416
     73417     73418     73419     73423     73419     73420     73419     73421
     73419     73422     73423     73424     73425     73429     73425     73426
     73425     73427     73425     73428     73429     73430     73431     73435
     73431     73432     73431     73433     73431     73434     73435     73436
     73437     73441     73437     73438     73437     73439     73437     73440
     73441     73442     73443     73447     73443     73444     73443     73445
     73443     73446     73447     73448     73449     73453     73449     73450
     73449     73451     73449     73452     73453     73454     73455     73459
     73455     73456     73455     73457     73455     73458     73459     73460
     73461     73465     73461     73462     73461     73463     73461     73464
     73465     73466     73467     73471     73467     73468     73467     73469
     73467     73470     73471     73472     73473     73477     73473     73474
     73473     73475     73473     73476     73477     73478     73479     73483
     73479     73480     73479     73481     73479     73482     73483     73484
     73485     73489     73485     73486     73485     73487     73485     73488
     73489     73490     73491     73495     73491     73492     73491     73493
     73491     73494     73495     73496     73497     73501     73497     73498
     73497     73499     73497     73500     73501     73502     73503     73507
     73503     73504     73503     73505     73503     73506     73507     73508
     73509     73513     73509     73510     73509     73511     73509     73512
     73513     73514     73515     73519     73515     73516     73515     73517
     73515     73518     73519     73520     73521     73525     73521     73522
     73521     73523     73521     73524     73525     73526     73527     73531
     73527     73528     73527     73529     73527     73530     73531     73532
     73533     73537     73533     73534     73533     73535     73533     73536
     73537     73538     73539     73543     73539     73540     73539     73541
     73539     73542     73543     73544     73545     73549     73545     73546
     73545     73547     73545     73548     73549     73550     73551     73555
     73551     73552     73551     73553     73551     73554     73555     73556
     73557     73561     73557     73558     73557     73559     73557     73560
     73561     73562     73563     73567     73563     73564     73563     73565
     73563     73566     73567     73568     73569     73573     73569     73570
     73569     73571     73569     73572     73573     73574     73575     73579
     73575     73576     73575     73577     73575     73578     73579     73580
     73581     73585     73581     73582     73581     73583     73581     73584
     73585     73586     73587     73591     73587     73588     73587     73589
     73587     73590     73591     73592     73593     73597     73593     73594
     73593     73595     73593     73596     73597     73598     73599     73603
     73599     73600     73599     73601     73599     73602     73603     73604
     73605     73609     73605     73606     73605     73607     73605     73608
     73609     73610     73611     73615     73611     73612     73611     73613
     73611     73614     73615     73616     73617     73621     73617     73618
     73617     73619     73617     73620     73621     73622     73623     73627
     73623     73624     73623     73625     73623     73626     73627     73628
     73629     73633     73629     73630     73629     73631     73629     73632
     73633     73634     73635     73639     73635     73636     73635     73637
     73635     73638     73639     73640     73641     73645     73641     73642
     73641     73643     73641     73644     73645     73646     73647     73651
     73647     73648     73647     73649     73647     73650     73651     73652
     73653     73657     73653     73654     73653     73655     73653     73656
     73657     73658     73659     73663     73659     73660     73659     73661
     73659     73662     73663     73664     73665     73669     73665     73666
     73665     73667     73665     73668     73669     73670     73671     73675
     73671     73672     73671     73673     73671     73674     73675     73676
     73677     73681     73677     73678     73677     73679     73677     73680
     73681     73682     73683     73687     73683     73684     73683     73685
     73683     73686     73687     73688     73689     73693     73689     73690
     73689     73691     73689     73692     73693     73694     73695     73699
     73695     73696     73695     73697     73695     73698     73699     73700
     73701     73705     73701     73702     73701     73703     73701     73704
     73705     73706     73707     73711     73707     73708     73707     73709
     73707     73710     73711     73712     73713     73717     73713     73714
     73713     73715     73713     73716     73717     73718     73719     73723
     73719     73720     73719     73721     73719     73722     73723     73724
     73725     73729     73725     73726     73725     73727     73725     73728
     73729     73730     73731     73735     73731     73732     73731     73733
     73731     73734     73735     73736     73737     73741     73737     73738
     73737     73739     73737     73740     73741     73742     73743     73747
     73743     73744     73743     73745     73743     73746     73747     73748
     73749     73753     73749     73750     73749     73751     73749     73752
     73753     73754     73755     73759     73755     73756     73755     73757
     73755     73758     73759     73760     73761     73765     73761     73762
     73761     73763     73761     73764     73765     73766     73767     73771
     73767     73768     73767     73769     73767     73770     73771     73772
     73773     73777     73773     73774     73773     73775     73773     73776
     73777     73778     73779     73783     73779     73780     73779     73781
     73779     73782     73783     73784     73785     73789     73785     73786
     73785     73787     73785     73788     73789     73790     73791     73795
     73791     73792     73791     73793     73791     73794     73795     73796
     73797     73801     73797     73798     73797     73799     73797     73800
     73801     73802     73803     73807     73803     73804     73803     73805
     73803     73806     73807     73808     73809     73813     73809     73810
     73809     73811     73809     73812     73813     73814     73815     73819
     73815     73816     73815     73817     73815     73818     73819     73820
     73821     73825     73821     73822     73821     73823     73821     73824
     73825     73826     73827     73831     73827     73828     73827     73829
     73827     73830     73831     73832     73833     73837     73833     73834
     73833     73835     73833     73836     73837     73838     73839     73843
     73839     73840     73839     73841     73839     73842     73843     73844
     73845     73849     73845     73846     73845     73847     73845     73848
     73849     73850     73851     73855     73851     73852     73851     73853
     73851     73854     73855     73856     73857     73861     73857     73858
     73857     73859     73857     73860     73861     73862     73863     73867
     73863     73864     73863     73865     73863     73866     73867     73868
     73869     73873     73869     73870     73869     73871     73869     73872
     73873     73874     73875     73879     73875     73876     73875     73877
     73875     73878     73879     73880     73881     73885     73881     73882
     73881     73883     73881     73884     73885     73886     73887     73891
     73887     73888     73887     73889     73887     73890     73891     73892
     73893     73897     73893     73894     73893     73895     73893     73896
     73897     73898     73899     73903     73899     73900     73899     73901
     73899     73902     73903     73904     73905     73909     73905     73906
     73905     73907     73905     73908     73909     73910     73911     73915
     73911     73912     73911     73913     73911     73914     73915     73916
     73917     73921     73917     73918     73917     73919     73917     73920
     73921     73922     73923     73927     73923     73924     73923     73925
     73923     73926     73927     73928     73929     73933     73929     73930
     73929     73931     73929     73932     73933     73934     73935     73939
     73935     73936     73935     73937     73935     73938     73939     73940
     73941     73945     73941     73942     73941     73943     73941     73944
     73945     73946     73947     73951     73947     73948     73947     73949
     73947     73950     73951     73952     73953     73957     73953     73954
     73953     73955     73953     73956     73957     73958     73959     73963
     73959     73960     73959     73961     73959     73962     73963     73964
     73965     73969     73965     73966     73965     73967     73965     73968
     73969     73970     73971     73975     73971     73972     73971     73973
     73971     73974     73975     73976     73977     73981     73977     73978
     73977     73979     73977     73980     73981     73982     73983     73987
     73983     73984     73983     73985     73983     73986     73987     73988
     73989     73993     73989     73990     73989     73991     73989     73992
     73993     73994     73995     73999     73995     73996     73995     73997
     73995     73998     73999     74000     74001     74005     74001     74002
     74001     74003     74001     74004     74005     74006     74007     74011
     74007     74008     74007     74009     74007     74010     74011     74012
     74013     74017     74013     74014     74013     74015     74013     74016
     74017     74018     74019     74023     74019     74020     74019     74021
     74019     74022     74023     74024     74025     74029     74025     74026
     74025     74027     74025     74028     74029     74030     74031     74035
     74031     74032     74031     74033     74031     74034     74035     74036
     74037     74041     74037     74038     74037     74039     74037     74040
     74041     74042     74043     74047     74043     74044     74043     74045
     74043     74046     74047     74048     74049     74053     74049     74050
     74049     74051     74049     74052     74053     74054     74055     74059
     74055     74056     74055     74057     74055     74058     74059     74060
     74061     74065     74061     74062     74061     74063     74061     74064
     74065     74066     74067     74071     74067     74068     74067     74069
     74067     74070     74071     74072     74073     74077     74073     74074
     74073     74075     74073     74076     74077     74078     74079     74083
     74079     74080     74079     74081     74079     74082     74083     74084
     74085     74089     74085     74086     74085     74087     74085     74088
     74089     74090     74091     74095     74091     74092     74091     74093
     74091     74094     74095     74096     74097     74101     74097     74098
     74097     74099     74097     74100     74101     74102     74103     74107
     74103     74104     74103     74105     74103     74106     74107     74108
     74109     74113     74109     74110     74109     74111     74109     74112
     74113     74114     74115     74119     74115     74116     74115     74117
     74115     74118     74119     74120     74121     74125     74121     74122
     74121     74123     74121     74124     74125     74126     74127     74131
     74127     74128     74127     74129     74127     74130     74131     74132
     74133     74137     74133     74134     74133     74135     74133     74136
     74137     74138     74139     74143     74139     74140     74139     74141
     74139     74142     74143     74144     74145     74149     74145     74146
     74145     74147     74145     74148     74149     74150     74151     74155
     74151     74152     74151     74153     74151     74154     74155     74156
     74157     74161     74157     74158     74157     74159     74157     74160
     74161     74162     74163     74167     74163     74164     74163     74165
     74163     74166     74167     74168     74169     74173     74169     74170
     74169     74171     74169     74172     74173     74174     74175     74179
     74175     74176     74175     74177     74175     74178     74179     74180
     74181     74185     74181     74182     74181     74183     74181     74184
     74185     74186     74187     74191     74187     74188     74187     74189
     74187     74190     74191     74192     74193     74197     74193     74194
     74193     74195     74193     74196     74197     74198     74199     74203
     74199     74200     74199     74201     74199     74202     74203     74204
     74205     74209     74205     74206     74205     74207     74205     74208
     74209     74210     74211     74215     74211     74212     74211     74213
     74211     74214     74215     74216     74217     74221     74217     74218
     74217     74219     74217     74220     74221     74222     74223     74227
     74223     74224     74223     74225     74223     74226     74227     74228
     74229     74233     74229     74230     74229     74231     74229     74232
     74233     74234     74235     74239     74235     74236     74235     74237
     74235     74238     74239     74240     74241     74245     74241     74242
     74241     74243     74241     74244     74245     74246     74247     74251
     74247     74248     74247     74249     74247     74250     74251     74252
     74253     74257     74253     74254     74253     74255     74253     74256
     74257     74258     74259     74263     74259     74260     74259     74261
     74259     74262     74263     74264     74265     74269     74265     74266
     74265     74267     74265     74268     74269     74270     74271     74275
     74271     74272     74271     74273     74271     74274     74275     74276
     74277     74281     74277     74278     74277     74279     74277     74280
     74281     74282     74283     74287     74283     74284     74283     74285
     74283     74286     74287     74288     74289     74293     74289     74290
     74289     74291     74289     74292     74293     74294     74295     74299
     74295     74296     74295     74297     74295     74298     74299     74300
     74301     74305     74301     74302     74301     74303     74301     74304
     74305     74306     74307     74311     74307     74308     74307     74309
     74307     74310     74311     74312     74313     74317     74313     74314
     74313     74315     74313     74316     74317     74318     74319     74323
     74319     74320     74319     74321     74319     74322     74323     74324
     74325     74329     74325     74326     74325     74327     74325     74328
     74329     74330     74331     74335     74331     74332     74331     74333
     74331     74334     74335     74336     74337     74341     74337     74338
     74337     74339     74337     74340     74341     74342     74343     74347
     74343     74344     74343     74345     74343     74346     74347     74348
     74349     74353     74349     74350     74349     74351     74349     74352
     74353     74354     74355     74359     74355     74356     74355     74357
     74355     74358     74359     74360     74361     74365     74361     74362
     74361     74363     74361     74364     74365     74366     74367     74371
     74367     74368     74367     74369     74367     74370     74371     74372
     74373     74377     74373     74374     74373     74375     74373     74376
     74377     74378     74379     74383     74379     74380     74379     74381
     74379     74382     74383     74384     74385     74389     74385     74386
     74385     74387     74385     74388     74389     74390     74391     74395
     74391     74392     74391     74393     74391     74394     74395     74396
     74397     74401     74397     74398     74397     74399     74397     74400
     74401     74402     74403     74407     74403     74404     74403     74405
     74403     74406     74407     74408     74409     74413     74409     74410
     74409     74411     74409     74412     74413     74414     74415     74419
     74415     74416     74415     74417     74415     74418     74419     74420
     74421     74425     74421     74422     74421     74423     74421     74424
     74425     74426     74427     74431     74427     74428     74427     74429
     74427     74430     74431     74432     74433     74437     74433     74434
     74433     74435     74433     74436     74437     74438     74439     74443
     74439     74440     74439     74441     74439     74442     74443     74444
     74445     74449     74445     74446     74445     74447     74445     74448
     74449     74450     74451     74455     74451     74452     74451     74453
     74451     74454     74455     74456     74457     74461     74457     74458
     74457     74459     74457     74460     74461     74462     74463     74467
     74463     74464     74463     74465     74463     74466     74467     74468
     74469     74473     74469     74470     74469     74471     74469     74472
     74473     74474     74475     74479     74475     74476     74475     74477
     74475     74478     74479     74480     74481     74485     74481     74482
     74481     74483     74481     74484     74485     74486     74487     74491
     74487     74488     74487     74489     74487     74490     74491     74492
     74493     74497     74493     74494     74493     74495     74493     74496
     74497     74498     74499     74503     74499     74500     74499     74501
     74499     74502     74503     74504     74505     74509     74505     74506
     74505     74507     74505     74508     74509     74510     74511     74515
     74511     74512     74511     74513     74511     74514     74515     74516
     74517     74521     74517     74518     74517     74519     74517     74520
     74521     74522     74523     74527     74523     74524     74523     74525
     74523     74526     74527     74528     74529     74533     74529     74530
     74529     74531     74529     74532     74533     74534     74535     74539
     74535     74536     74535     74537     74535     74538     74539     74540
     74541     74545     74541     74542     74541     74543     74541     74544
     74545     74546     74547     74551     74547     74548     74547     74549
     74547     74550     74551     74552     74553     74557     74553     74554
     74553     74555     74553     74556     74557     74558     74559     74563
     74559     74560     74559     74561     74559     74562     74563     74564
     74565     74569     74565     74566     74565     74567     74565     74568
     74569     74570     74571     74575     74571     74572     74571     74573
     74571     74574     74575     74576     74577     74581     74577     74578
     74577     74579     74577     74580     74581     74582     74583     74587
     74583     74584     74583     74585     74583     74586     74587     74588
     74589     74593     74589     74590     74589     74591     74589     74592
     74593     74594     74595     74599     74595     74596     74595     74597
     74595     74598     74599     74600     74601     74605     74601     74602
     74601     74603     74601     74604     74605     74606     74607     74611
     74607     74608     74607     74609     74607     74610     74611     74612
     74613     74617     74613     74614     74613     74615     74613     74616
     74617     74618     74619     74623     74619     74620     74619     74621
     74619     74622     74623     74624     74625     74629     74625     74626
     74625     74627     74625     74628     74629     74630     74631     74635
     74631     74632     74631     74633     74631     74634     74635     74636
     74637     74641     74637     74638     74637     74639     74637     74640
     74641     74642     74643     74647     74643     74644     74643     74645
     74643     74646     74647     74648     74649     74653     74649     74650
     74649     74651     74649     74652     74653     74654     74655     74659
     74655     74656     74655     74657     74655     74658     74659     74660
     74661     74665     74661     74662     74661     74663     74661     74664
     74665     74666     74667     74671     74667     74668     74667     74669
     74667     74670     74671     74672     74673     74677     74673     74674
     74673     74675     74673     74676     74677     74678     74679     74683
     74679     74680     74679     74681     74679     74682     74683     74684
     74685     74689     74685     74686     74685     74687     74685     74688
     74689     74690     74691     74695     74691     74692     74691     74693
     74691     74694     74695     74696     74697     74701     74697     74698
     74697     74699     74697     74700     74701     74702     74703     74707
     74703     74704     74703     74705     74703     74706     74707     74708
     74709     74713     74709     74710     74709     74711     74709     74712
     74713     74714     74715     74719     74715     74716     74715     74717
     74715     74718     74719     74720     74721     74725     74721     74722
     74721     74723     74721     74724     74725     74726     74727     74731
     74727     74728     74727     74729     74727     74730     74731     74732
     74733     74737     74733     74734     74733     74735     74733     74736
     74737     74738     74739     74743     74739     74740     74739     74741
     74739     74742     74743     74744     74745     74749     74745     74746
     74745     74747     74745     74748     74749     74750     74751     74755
     74751     74752     74751     74753     74751     74754     74755     74756
     74757     74761     74757     74758     74757     74759     74757     74760
     74761     74762     74763     74767     74763     74764     74763     74765
     74763     74766     74767     74768     74769     74773     74769     74770
     74769     74771     74769     74772     74773     74774     74775     74779
     74775     74776     74775     74777     74775     74778     74779     74780
     74781     74785     74781     74782     74781     74783     74781     74784
     74785     74786     74787     74791     74787     74788     74787     74789
     74787     74790     74791     74792     74793     74797     74793     74794
     74793     74795     74793     74796     74797     74798     74799     74803
     74799     74800     74799     74801     74799     74802     74803     74804
     74805     74809     74805     74806     74805     74807     74805     74808
     74809     74810     74811     74815     74811     74812     74811     74813
     74811     74814     74815     74816     74817     74821     74817     74818
     74817     74819     74817     74820     74821     74822     74823     74827
     74823     74824     74823     74825     74823     74826     74827     74828
     74829     74833     74829     74830     74829     74831     74829     74832
     74833     74834     74835     74839     74835     74836     74835     74837
     74835     74838     74839     74840     74841     74845     74841     74842
     74841     74843     74841     74844     74845     74846     74847     74851
     74847     74848     74847     74849     74847     74850     74851     74852
     74853     74857     74853     74854     74853     74855     74853     74856
     74857     74858     74859     74863     74859     74860     74859     74861
     74859     74862     74863     74864     74865     74869     74865     74866
     74865     74867     74865     74868     74869     74870     74871     74875
     74871     74872     74871     74873     74871     74874     74875     74876
     74877     74881     74877     74878     74877     74879     74877     74880
     74881     74882     74883     74887     74883     74884     74883     74885
     74883     74886     74887     74888     74889     74893     74889     74890
     74889     74891     74889     74892     74893     74894     74895     74899
     74895     74896     74895     74897     74895     74898     74899     74900
     74901     74905     74901     74902     74901     74903     74901     74904
     74905     74906     74907     74911     74907     74908     74907     74909
     74907     74910     74911     74912     74913     74917     74913     74914
     74913     74915     74913     74916     74917     74918     74919     74923
     74919     74920     74919     74921     74919     74922     74923     74924
     74925     74929     74925     74926     74925     74927     74925     74928
     74929     74930     74931     74935     74931     74932     74931     74933
     74931     74934     74935     74936     74937     74941     74937     74938
     74937     74939     74937     74940     74941     74942     74943     74947
     74943     74944     74943     74945     74943     74946     74947     74948
     74949     74953     74949     74950     74949     74951     74949     74952
     74953     74954     74955     74959     74955     74956     74955     74957
     74955     74958     74959     74960     74961     74965     74961     74962
     74961     74963     74961     74964     74965     74966     74967     74971
     74967     74968     74967     74969     74967     74970     74971     74972
     74973     74977     74973     74974     74973     74975     74973     74976
     74977     74978     74979     74983     74979     74980     74979     74981
     74979     74982     74983     74984     74985     74989     74985     74986
     74985     74987     74985     74988     74989     74990     74991     74995
     74991     74992     74991     74993     74991     74994     74995     74996
     74997     75001     74997     74998     74997     74999     74997     75000
     75001     75002     75003     75007     75003     75004     75003     75005
     75003     75006     75007     75008     75009     75013     75009     75010
     75009     75011     75009     75012     75013     75014     75015     75019
     75015     75016     75015     75017     75015     75018     75019     75020
     75021     75025     75021     75022     75021     75023     75021     75024
     75025     75026     75027     75031     75027     75028     75027     75029
     75027     75030     75031     75032     75033     75037     75033     75034
     75033     75035     75033     75036     75037     75038     75039     75043
     75039     75040     75039     75041     75039     75042     75043     75044
     75045     75049     75045     75046     75045     75047     75045     75048
     75049     75050     75051     75055     75051     75052     75051     75053
     75051     75054     75055     75056     75057     75061     75057     75058
     75057     75059     75057     75060     75061     75062     75063     75067
     75063     75064     75063     75065     75063     75066     75067     75068
     75069     75073     75069     75070     75069     75071     75069     75072
     75073     75074     75075     75079     75075     75076     75075     75077
     75075     75078     75079     75080     75081     75085     75081     75082
     75081     75083     75081     75084     75085     75086     75087     75091
     75087     75088     75087     75089     75087     75090     75091     75092
     75093     75097     75093     75094     75093     75095     75093     75096
     75097     75098     75099     75103     75099     75100     75099     75101
     75099     75102     75103     75104     75105     75109     75105     75106
     75105     75107     75105     75108     75109     75110     75111     75115
     75111     75112     75111     75113     75111     75114     75115     75116
     75117     75121     75117     75118     75117     75119     75117     75120
     75121     75122     75123     75127     75123     75124     75123     75125
     75123     75126     75127     75128     75129     75133     75129     75130
     75129     75131     75129     75132     75133     75134     75135     75139
     75135     75136     75135     75137     75135     75138     75139     75140
     75141     75145     75141     75142     75141     75143     75141     75144
     75145     75146     75147     75151     75147     75148     75147     75149
     75147     75150     75151     75152     75153     75157     75153     75154
     75153     75155     75153     75156     75157     75158     75159     75163
     75159     75160     75159     75161     75159     75162     75163     75164
     75165     75169     75165     75166     75165     75167     75165     75168
     75169     75170     75171     75175     75171     75172     75171     75173
     75171     75174     75175     75176     75177     75181     75177     75178
     75177     75179     75177     75180     75181     75182     75183     75187
     75183     75184     75183     75185     75183     75186     75187     75188
     75189     75193     75189     75190     75189     75191     75189     75192
     75193     75194     75195     75199     75195     75196     75195     75197
     75195     75198     75199     75200     75201     75205     75201     75202
     75201     75203     75201     75204     75205     75206     75207     75211
     75207     75208     75207     75209     75207     75210     75211     75212
     75213     75217     75213     75214     75213     75215     75213     75216
     75217     75218     75219     75223     75219     75220     75219     75221
     75219     75222     75223     75224     75225     75229     75225     75226
     75225     75227     75225     75228     75229     75230     75231     75235
     75231     75232     75231     75233     75231     75234     75235     75236
     75237     75241     75237     75238     75237     75239     75237     75240
     75241     75242     75243     75247     75243     75244     75243     75245
     75243     75246     75247     75248     75249     75253     75249     75250
     75249     75251     75249     75252     75253     75254     75255     75259
     75255     75256     75255     75257     75255     75258     75259     75260
     75261     75265     75261     75262     75261     75263     75261     75264
     75265     75266     75267     75271     75267     75268     75267     75269
     75267     75270     75271     75272     75273     75277     75273     75274
     75273     75275     75273     75276     75277     75278     75279     75283
     75279     75280     75279     75281     75279     75282     75283     75284
     75285     75289     75285     75286     75285     75287     75285     75288
     75289     75290     75291     75295     75291     75292     75291     75293
     75291     75294     75295     75296     75297     75301     75297     75298
     75297     75299     75297     75300     75301     75302     75303     75307
     75303     75304     75303     75305     75303     75306     75307     75308
     75309     75313     75309     75310     75309     75311     75309     75312
     75313     75314     75315     75319     75315     75316     75315     75317
     75315     75318     75319     75320     75321     75325     75321     75322
     75321     75323     75321     75324     75325     75326     75327     75331
     75327     75328     75327     75329     75327     75330     75331     75332
     75333     75337     75333     75334     75333     75335     75333     75336
     75337     75338     75339     75343     75339     75340     75339     75341
     75339     75342     75343     75344     75345     75349     75345     75346
     75345     75347     75345     75348     75349     75350     75351     75355
     75351     75352     75351     75353     75351     75354     75355     75356
     75357     75361     75357     75358     75357     75359     75357     75360
     75361     75362     75363     75367     75363     75364     75363     75365
     75363     75366     75367     75368     75369     75373     75369     75370
     75369     75371     75369     75372     75373     75374     75375     75379
     75375     75376     75375     75377     75375     75378     75379     75380
     75381     75385     75381     75382     75381     75383     75381     75384
     75385     75386     75387     75391     75387     75388     75387     75389
     75387     75390     75391     75392     75393     75397     75393     75394
     75393     75395     75393     75396     75397     75398     75399     75403
     75399     75400     75399     75401     75399     75402     75403     75404
     75405     75409     75405     75406     75405     75407     75405     75408
     75409     75410     75411     75415     75411     75412     75411     75413
     75411     75414     75415     75416     75417     75421     75417     75418
     75417     75419     75417     75420     75421     75422     75423     75427
     75423     75424     75423     75425     75423     75426     75427     75428
     75429     75433     75429     75430     75429     75431     75429     75432
     75433     75434     75435     75439     75435     75436     75435     75437
     75435     75438     75439     75440     75441     75445     75441     75442
     75441     75443     75441     75444     75445     75446     75447     75451
     75447     75448     75447     75449     75447     75450     75451     75452
     75453     75457     75453     75454     75453     75455     75453     75456
     75457     75458     75459     75463     75459     75460     75459     75461
     75459     75462     75463     75464     75465     75469     75465     75466
     75465     75467     75465     75468     75469     75470     75471     75475
     75471     75472     75471     75473     75471     75474     75475     75476
     75477     75481     75477     75478     75477     75479     75477     75480
     75481     75482     75483     75487     75483     75484     75483     75485
     75483     75486     75487     75488     75489     75493     75489     75490
     75489     75491     75489     75492     75493     75494     75495     75499
     75495     75496     75495     75497     75495     75498     75499     75500
     75501     75505     75501     75502     75501     75503     75501     75504
     75505     75506     75507     75511     75507     75508     75507     75509
     75507     75510     75511     75512     75513     75517     75513     75514
     75513     75515     75513     75516     75517     75518     75519     75523
     75519     75520     75519     75521     75519     75522     75523     75524
     75525     75529     75525     75526     75525     75527     75525     75528
     75529     75530     75531     75535     75531     75532     75531     75533
     75531     75534     75535     75536     75537     75541     75537     75538
     75537     75539     75537     75540     75541     75542     75543     75547
     75543     75544     75543     75545     75543     75546     75547     75548
     75549     75553     75549     75550     75549     75551     75549     75552
     75553     75554     75555     75559     75555     75556     75555     75557
     75555     75558     75559     75560     75561     75565     75561     75562
     75561     75563     75561     75564     75565     75566     75567     75571
     75567     75568     75567     75569     75567     75570     75571     75572
     75573     75577     75573     75574     75573     75575     75573     75576
     75577     75578     75579     75583     75579     75580     75579     75581
     75579     75582     75583     75584     75585     75589     75585     75586
     75585     75587     75585     75588     75589     75590     75591     75595
     75591     75592     75591     75593     75591     75594     75595     75596
     75597     75601     75597     75598     75597     75599     75597     75600
     75601     75602     75603     75607     75603     75604     75603     75605
     75603     75606     75607     75608     75609     75613     75609     75610
     75609     75611     75609     75612     75613     75614     75615     75619
     75615     75616     75615     75617     75615     75618     75619     75620
     75621     75625     75621     75622     75621     75623     75621     75624
     75625     75626     75627     75631     75627     75628     75627     75629
     75627     75630     75631     75632     75633     75637     75633     75634
     75633     75635     75633     75636     75637     75638     75639     75643
     75639     75640     75639     75641     75639     75642     75643     75644
     75645     75649     75645     75646     75645     75647     75645     75648
     75649     75650     75651     75655     75651     75652     75651     75653
     75651     75654     75655     75656     75657     75661     75657     75658
     75657     75659     75657     75660     75661     75662     75663     75667
     75663     75664     75663     75665     75663     75666     75667     75668
     75669     75673     75669     75670     75669     75671     75669     75672
     75673     75674     75675     75679     75675     75676     75675     75677
     75675     75678     75679     75680     75681     75685     75681     75682
     75681     75683     75681     75684     75685     75686     75687     75691
     75687     75688     75687     75689     75687     75690     75691     75692
     75693     75697     75693     75694     75693     75695     75693     75696
     75697     75698     75699     75703     75699     75700     75699     75701
     75699     75702     75703     75704     75705     75709     75705     75706
     75705     75707     75705     75708     75709     75710     75711     75715
     75711     75712     75711     75713     75711     75714     75715     75716
     75717     75721     75717     75718     75717     75719     75717     75720
     75721     75722     75723     75727     75723     75724     75723     75725
     75723     75726     75727     75728     75729     75733     75729     75730
     75729     75731     75729     75732     75733     75734     75735     75739
     75735     75736     75735     75737     75735     75738     75739     75740
     75741     75745     75741     75742     75741     75743     75741     75744
     75745     75746     75747     75751     75747     75748     75747     75749
     75747     75750     75751     75752     75753     75757     75753     75754
     75753     75755     75753     75756     75757     75758     75759     75763
     75759     75760     75759     75761     75759     75762     75763     75764
     75765     75769     75765     75766     75765     75767     75765     75768
     75769     75770     75771     75775     75771     75772     75771     75773
     75771     75774     75775     75776     75777     75781     75777     75778
     75777     75779     75777     75780     75781     75782     75783     75787
     75783     75784     75783     75785     75783     75786     75787     75788
     75789     75793     75789     75790     75789     75791     75789     75792
     75793     75794     75795     75799     75795     75796     75795     75797
     75795     75798     75799     75800     75801     75805     75801     75802
     75801     75803     75801     75804     75805     75806     75807     75811
     75807     75808     75807     75809     75807     75810     75811     75812
     75813     75817     75813     75814     75813     75815     75813     75816
     75817     75818     75819     75823     75819     75820     75819     75821
     75819     75822     75823     75824     75825     75829     75825     75826
     75825     75827     75825     75828     75829     75830     75831     75835
     75831     75832     75831     75833     75831     75834     75835     75836
     75837     75841     75837     75838     75837     75839     75837     75840
     75841     75842     75843     75847     75843     75844     75843     75845
     75843     75846     75847     75848     75849     75853     75849     75850
     75849     75851     75849     75852     75853     75854     75855     75859
     75855     75856     75855     75857     75855     75858     75859     75860
     75861     75865     75861     75862     75861     75863     75861     75864
     75865     75866     75867     75871     75867     75868     75867     75869
     75867     75870     75871     75872     75873     75877     75873     75874
     75873     75875     75873     75876     75877     75878     75879     75883
     75879     75880     75879     75881     75879     75882     75883     75884
     75885     75889     75885     75886     75885     75887     75885     75888
     75889     75890     75891     75895     75891     75892     75891     75893
     75891     75894     75895     75896     75897     75901     75897     75898
     75897     75899     75897     75900     75901     75902     75903     75907
     75903     75904     75903     75905     75903     75906     75907     75908
     75909     75913     75909     75910     75909     75911     75909     75912
     75913     75914     75915     75919     75915     75916     75915     75917
     75915     75918     75919     75920     75921     75925     75921     75922
     75921     75923     75921     75924     75925     75926     75927     75931
     75927     75928     75927     75929     75927     75930     75931     75932
     75933     75937     75933     75934     75933     75935     75933     75936
     75937     75938     75939     75943     75939     75940     75939     75941
     75939     75942     75943     75944     75945     75949     75945     75946
     75945     75947     75945     75948     75949     75950     75951     75955
     75951     75952     75951     75953     75951     75954     75955     75956
     75957     75961     75957     75958     75957     75959     75957     75960
     75961     75962     75963     75967     75963     75964     75963     75965
     75963     75966     75967     75968     75969     75973     75969     75970
     75969     75971     75969     75972     75973     75974     75975     75979
     75975     75976     75975     75977     75975     75978     75979     75980
     75981     75985     75981     75982     75981     75983     75981     75984
     75985     75986     75987     75991     75987     75988     75987     75989
     75987     75990     75991     75992     75993     75997     75993     75994
     75993     75995     75993     75996     75997     75998     75999     76003
     75999     76000     75999     76001     75999     76002     76003     76004
     76005     76009     76005     76006     76005     76007     76005     76008
     76009     76010     76011     76015     76011     76012     76011     76013
     76011     76014     76015     76016     76017     76021     76017     76018
     76017     76019     76017     76020     76021     76022     76023     76027
     76023     76024     76023     76025     76023     76026     76027     76028
     76029     76033     76029     76030     76029     76031     76029     76032
     76033     76034     76035     76039     76035     76036     76035     76037
     76035     76038     76039     76040     76041     76045     76041     76042
     76041     76043     76041     76044     76045     76046     76047     76051
     76047     76048     76047     76049     76047     76050     76051     76052
     76053     76057     76053     76054     76053     76055     76053     76056
     76057     76058     76059     76063     76059     76060     76059     76061
     76059     76062     76063     76064     76065     76069     76065     76066
     76065     76067     76065     76068     76069     76070     76071     76075
     76071     76072     76071     76073     76071     76074     76075     76076
     76077     76081     76077     76078     76077     76079     76077     76080
     76081     76082     76083     76087     76083     76084     76083     76085
     76083     76086     76087     76088     76089     76093     76089     76090
     76089     76091     76089     76092     76093     76094     76095     76099
     76095     76096     76095     76097     76095     76098     76099     76100
     76101     76105     76101     76102     76101     76103     76101     76104
     76105     76106     76107     76111     76107     76108     76107     76109
     76107     76110     76111     76112     76113     76117     76113     76114
     76113     76115     76113     76116     76117     76118     76119     76123
     76119     76120     76119     76121     76119     76122     76123     76124
     76125     76129     76125     76126     76125     76127     76125     76128
     76129     76130     76131     76135     76131     76132     76131     76133
     76131     76134     76135     76136     76137     76141     76137     76138
     76137     76139     76137     76140     76141     76142     76143     76147
     76143     76144     76143     76145     76143     76146     76147     76148
     76149     76153     76149     76150     76149     76151     76149     76152
     76153     76154     76155     76159     76155     76156     76155     76157
     76155     76158     76159     76160     76161     76165     76161     76162
     76161     76163     76161     76164     76165     76166     76167     76171
     76167     76168     76167     76169     76167     76170     76171     76172
     76173     76177     76173     76174     76173     76175     76173     76176
     76177     76178     76179     76183     76179     76180     76179     76181
     76179     76182     76183     76184     76185     76189     76185     76186
     76185     76187     76185     76188     76189     76190     76191     76195
     76191     76192     76191     76193     76191     76194     76195     76196
     76197     76201     76197     76198     76197     76199     76197     76200
     76201     76202     76203     76207     76203     76204     76203     76205
     76203     76206     76207     76208     76209     76213     76209     76210
     76209     76211     76209     76212     76213     76214     76215     76219
     76215     76216     76215     76217     76215     76218     76219     76220
     76221     76225     76221     76222     76221     76223     76221     76224
     76225     76226     76227     76231     76227     76228     76227     76229
     76227     76230     76231     76232     76233     76237     76233     76234
     76233     76235     76233     76236     76237     76238     76239     76243
     76239     76240     76239     76241     76239     76242     76243     76244
     76245     76249     76245     76246     76245     76247     76245     76248
     76249     76250     76251     76255     76251     76252     76251     76253
     76251     76254     76255     76256     76257     76261     76257     76258
     76257     76259     76257     76260     76261     76262     76263     76267
     76263     76264     76263     76265     76263     76266     76267     76268
     76269     76273     76269     76270     76269     76271     76269     76272
     76273     76274     76275     76279     76275     76276     76275     76277
     76275     76278     76279     76280     76281     76285     76281     76282
     76281     76283     76281     76284     76285     76286     76287     76291
     76287     76288     76287     76289     76287     76290     76291     76292
     76293     76297     76293     76294     76293     76295     76293     76296
     76297     76298     76299     76303     76299     76300     76299     76301
     76299     76302     76303     76304     76305     76309     76305     76306
     76305     76307     76305     76308     76309     76310     76311     76315
     76311     76312     76311     76313     76311     76314     76315     76316
     76317     76321     76317     76318     76317     76319     76317     76320
     76321     76322     76323     76327     76323     76324     76323     76325
     76323     76326     76327     76328     76329     76333     76329     76330
     76329     76331     76329     76332     76333     76334     76335     76339
     76335     76336     76335     76337     76335     76338     76339     76340
     76341     76345     76341     76342     76341     76343     76341     76344
     76345     76346     76347     76351     76347     76348     76347     76349
     76347     76350     76351     76352     76353     76357     76353     76354
     76353     76355     76353     76356     76357     76358     76359     76363
     76359     76360     76359     76361     76359     76362     76363     76364
     76365     76369     76365     76366     76365     76367     76365     76368
     76369     76370     76371     76375     76371     76372     76371     76373
     76371     76374     76375     76376     76377     76381     76377     76378
     76377     76379     76377     76380     76381     76382     76383     76387
     76383     76384     76383     76385     76383     76386     76387     76388
     76389     76393     76389     76390     76389     76391     76389     76392
     76393     76394     76395     76399     76395     76396     76395     76397
     76395     76398     76399     76400     76401     76405     76401     76402
     76401     76403     76401     76404     76405     76406     76407     76411
     76407     76408     76407     76409     76407     76410     76411     76412
     76413     76417     76413     76414     76413     76415     76413     76416
     76417     76418     76419     76423     76419     76420     76419     76421
     76419     76422     76423     76424     76425     76429     76425     76426
     76425     76427     76425     76428     76429     76430     76431     76435
     76431     76432     76431     76433     76431     76434     76435     76436
     76437     76441     76437     76438     76437     76439     76437     76440
     76441     76442     76443     76447     76443     76444     76443     76445
     76443     76446     76447     76448     76449     76453     76449     76450
     76449     76451     76449     76452     76453     76454     76455     76459
     76455     76456     76455     76457     76455     76458     76459     76460
     76461     76465     76461     76462     76461     76463     76461     76464
     76465     76466     76467     76471     76467     76468     76467     76469
     76467     76470     76471     76472     76473     76477     76473     76474
     76473     76475     76473     76476     76477     76478     76479     76483
     76479     76480     76479     76481     76479     76482     76483     76484
     76485     76489     76485     76486     76485     76487     76485     76488
     76489     76490     76491     76495     76491     76492     76491     76493
     76491     76494     76495     76496     76497     76501     76497     76498
     76497     76499     76497     76500     76501     76502     76503     76507
     76503     76504     76503     76505     76503     76506     76507     76508
     76509     76513     76509     76510     76509     76511     76509     76512
     76513     76514     76515     76519     76515     76516     76515     76517
     76515     76518     76519     76520     76521     76525     76521     76522
     76521     76523     76521     76524     76525     76526     76527     76531
     76527     76528     76527     76529     76527     76530     76531     76532
     76533     76537     76533     76534     76533     76535     76533     76536
     76537     76538     76539     76543     76539     76540     76539     76541
     76539     76542     76543     76544     76545     76549     76545     76546
     76545     76547     76545     76548     76549     76550     76551     76555
     76551     76552     76551     76553     76551     76554     76555     76556
     76557     76561     76557     76558     76557     76559     76557     76560
     76561     76562     76563     76567     76563     76564     76563     76565
     76563     76566     76567     76568     76569     76573     76569     76570
     76569     76571     76569     76572     76573     76574     76575     76579
     76575     76576     76575     76577     76575     76578     76579     76580
     76581     76585     76581     76582     76581     76583     76581     76584
     76585     76586     76587     76591     76587     76588     76587     76589
     76587     76590     76591     76592     76593     76597     76593     76594
     76593     76595     76593     76596     76597     76598     76599     76603
     76599     76600     76599     76601     76599     76602     76603     76604
     76605     76609     76605     76606     76605     76607     76605     76608
     76609     76610     76611     76615     76611     76612     76611     76613
     76611     76614     76615     76616     76617     76621     76617     76618
     76617     76619     76617     76620     76621     76622     76623     76627
     76623     76624     76623     76625     76623     76626     76627     76628
     76629     76633     76629     76630     76629     76631     76629     76632
     76633     76634     76635     76639     76635     76636     76635     76637
     76635     76638     76639     76640     76641     76645     76641     76642
     76641     76643     76641     76644     76645     76646     76647     76651
     76647     76648     76647     76649     76647     76650     76651     76652
     76653     76657     76653     76654     76653     76655     76653     76656
     76657     76658     76659     76663     76659     76660     76659     76661
     76659     76662     76663     76664     76665     76669     76665     76666
     76665     76667     76665     76668     76669     76670     76671     76675
     76671     76672     76671     76673     76671     76674     76675     76676
     76677     76681     76677     76678     76677     76679     76677     76680
     76681     76682     76683     76687     76683     76684     76683     76685
     76683     76686     76687     76688     76689     76693     76689     76690
     76689     76691     76689     76692     76693     76694     76695     76699
     76695     76696     76695     76697     76695     76698     76699     76700
     76701     76705     76701     76702     76701     76703     76701     76704
     76705     76706     76707     76711     76707     76708     76707     76709
     76707     76710     76711     76712     76713     76717     76713     76714
     76713     76715     76713     76716     76717     76718     76719     76723
     76719     76720     76719     76721     76719     76722     76723     76724
     76725     76729     76725     76726     76725     76727     76725     76728
     76729     76730     76731     76735     76731     76732     76731     76733
     76731     76734     76735     76736     76737     76741     76737     76738
     76737     76739     76737     76740     76741     76742     76743     76747
     76743     76744     76743     76745     76743     76746     76747     76748
     76749     76753     76749     76750     76749     76751     76749     76752
     76753     76754     76755     76759     76755     76756     76755     76757
     76755     76758     76759     76760     76761     76765     76761     76762
     76761     76763     76761     76764     76765     76766     76767     76771
     76767     76768     76767     76769     76767     76770     76771     76772
     76773     76777     76773     76774     76773     76775     76773     76776
     76777     76778     76779     76783     76779     76780     76779     76781
     76779     76782     76783     76784     76785     76789     76785     76786
     76785     76787     76785     76788     76789     76790     76791     76795
     76791     76792     76791     76793     76791     76794     76795     76796
     76797     76801     76797     76798     76797     76799     76797     76800
     76801     76802     76803     76807     76803     76804     76803     76805
     76803     76806     76807     76808     76809     76813     76809     76810
     76809     76811     76809     76812     76813     76814     76815     76819
     76815     76816     76815     76817     76815     76818     76819     76820
     76821     76825     76821     76822     76821     76823     76821     76824
     76825     76826     76827     76831     76827     76828     76827     76829
     76827     76830     76831     76832     76833     76837     76833     76834
     76833     76835     76833     76836     76837     76838     76839     76843
     76839     76840     76839     76841     76839     76842     76843     76844
     76845     76849     76845     76846     76845     76847     76845     76848
     76849     76850     76851     76855     76851     76852     76851     76853
     76851     76854     76855     76856     76857     76861     76857     76858
     76857     76859     76857     76860     76861     76862     76863     76867
     76863     76864     76863     76865     76863     76866     76867     76868
     76869     76873     76869     76870     76869     76871     76869     76872
     76873     76874     76875     76879     76875     76876     76875     76877
     76875     76878     76879     76880     76881     76885     76881     76882
     76881     76883     76881     76884     76885     76886     76887     76891
     76887     76888     76887     76889     76887     76890     76891     76892
     76893     76897     76893     76894     76893     76895     76893     76896
     76897     76898     76899     76903     76899     76900     76899     76901
     76899     76902     76903     76904     76905     76909     76905     76906
     76905     76907     76905     76908     76909     76910     76911     76915
     76911     76912     76911     76913     76911     76914     76915     76916
     76917     76921     76917     76918     76917     76919     76917     76920
     76921     76922     76923     76927     76923     76924     76923     76925
     76923     76926     76927     76928     76929     76933     76929     76930
     76929     76931     76929     76932     76933     76934     76935     76939
     76935     76936     76935     76937     76935     76938     76939     76940
     76941     76945     76941     76942     76941     76943     76941     76944
     76945     76946     76947     76951     76947     76948     76947     76949
     76947     76950     76951     76952     76953     76957     76953     76954
     76953     76955     76953     76956     76957     76958     76959     76963
     76959     76960     76959     76961     76959     76962     76963     76964
     76965     76969     76965     76966     76965     76967     76965     76968
     76969     76970     76971     76975     76971     76972     76971     76973
     76971     76974     76975     76976     76977     76981     76977     76978
     76977     76979     76977     76980     76981     76982     76983     76987
     76983     76984     76983     76985     76983     76986     76987     76988
     76989     76993     76989     76990     76989     76991     76989     76992
     76993     76994     76995     76999     76995     76996     76995     76997
     76995     76998     76999     77000     77001     77005     77001     77002
     77001     77003     77001     77004     77005     77006     77007     77011
     77007     77008     77007     77009     77007     77010     77011     77012
     77013     77017     77013     77014     77013     77015     77013     77016
     77017     77018     77019     77023     77019     77020     77019     77021
     77019     77022     77023     77024     77025     77029     77025     77026
     77025     77027     77025     77028     77029     77030     77031     77035
     77031     77032     77031     77033     77031     77034     77035     77036
     77037     77041     77037     77038     77037     77039     77037     77040
     77041     77042     77043     77047     77043     77044     77043     77045
     77043     77046     77047     77048     77049     77053     77049     77050
     77049     77051     77049     77052     77053     77054     77055     77059
     77055     77056     77055     77057     77055     77058     77059     77060
     77061     77065     77061     77062     77061     77063     77061     77064
     77065     77066     77067     77071     77067     77068     77067     77069
     77067     77070     77071     77072     77073     77077     77073     77074
     77073     77075     77073     77076     77077     77078     77079     77083
     77079     77080     77079     77081     77079     77082     77083     77084
     77085     77089     77085     77086     77085     77087     77085     77088
     77089     77090     77091     77095     77091     77092     77091     77093
     77091     77094     77095     77096     77097     77101     77097     77098
     77097     77099     77097     77100     77101     77102     77103     77107
     77103     77104     77103     77105     77103     77106     77107     77108
     77109     77113     77109     77110     77109     77111     77109     77112
     77113     77114     77115     77119     77115     77116     77115     77117
     77115     77118     77119     77120     77121     77125     77121     77122
     77121     77123     77121     77124     77125     77126     77127     77131
     77127     77128     77127     77129     77127     77130     77131     77132
     77133     77137     77133     77134     77133     77135     77133     77136
     77137     77138     77139     77143     77139     77140     77139     77141
     77139     77142     77143     77144     77145     77149     77145     77146
     77145     77147     77145     77148     77149     77150     77151     77155
     77151     77152     77151     77153     77151     77154     77155     77156
     77157     77161     77157     77158     77157     77159     77157     77160
     77161     77162     77163     77167     77163     77164     77163     77165
     77163     77166     77167     77168     77169     77173     77169     77170
     77169     77171     77169     77172     77173     77174     77175     77179
     77175     77176     77175     77177     77175     77178     77179     77180
     77181     77185     77181     77182     77181     77183     77181     77184
     77185     77186     77187     77191     77187     77188     77187     77189
     77187     77190     77191     77192     77193     77197     77193     77194
     77193     77195     77193     77196     77197     77198     77199     77203
     77199     77200     77199     77201     77199     77202     77203     77204
     77205     77209     77205     77206     77205     77207     77205     77208
     77209     77210     77211     77215     77211     77212     77211     77213
     77211     77214     77215     77216     77217     77221     77217     77218
     77217     77219     77217     77220     77221     77222     77223     77227
     77223     77224     77223     77225     77223     77226     77227     77228
     77229     77233     77229     77230     77229     77231     77229     77232
     77233     77234     77235     77239     77235     77236     77235     77237
     77235     77238     77239     77240     77241     77245     77241     77242
     77241     77243     77241     77244     77245     77246     77247     77251
     77247     77248     77247     77249     77247     77250     77251     77252
     77253     77257     77253     77254     77253     77255     77253     77256
     77257     77258     77259     77263     77259     77260     77259     77261
     77259     77262     77263     77264     77265     77269     77265     77266
     77265     77267     77265     77268     77269     77270     77271     77275
     77271     77272     77271     77273     77271     77274     77275     77276
     77277     77281     77277     77278     77277     77279     77277     77280
     77281     77282     77283     77287     77283     77284     77283     77285
     77283     77286     77287     77288     77289     77293     77289     77290
     77289     77291     77289     77292     77293     77294     77295     77299
     77295     77296     77295     77297     77295     77298     77299     77300
     77301     77305     77301     77302     77301     77303     77301     77304
     77305     77306     77307     77311     77307     77308     77307     77309
     77307     77310     77311     77312     77313     77317     77313     77314
     77313     77315     77313     77316     77317     77318     77319     77323
     77319     77320     77319     77321     77319     77322     77323     77324
     77325     77329     77325     77326     77325     77327     77325     77328
     77329     77330     77331     77335     77331     77332     77331     77333
     77331     77334     77335     77336     77337     77341     77337     77338
     77337     77339     77337     77340     77341     77342     77343     77347
     77343     77344     77343     77345     77343     77346     77347     77348
     77349     77353     77349     77350     77349     77351     77349     77352
     77353     77354     77355     77359     77355     77356     77355     77357
     77355     77358     77359     77360     77361     77365     77361     77362
     77361     77363     77361     77364     77365     77366     77367     77371
     77367     77368     77367     77369     77367     77370     77371     77372
     77373     77377     77373     77374     77373     77375     77373     77376
     77377     77378     77379     77383     77379     77380     77379     77381
     77379     77382     77383     77384     77385     77389     77385     77386
     77385     77387     77385     77388     77389     77390     77391     77395
     77391     77392     77391     77393     77391     77394     77395     77396
     77397     77401     77397     77398     77397     77399     77397     77400
     77401     77402     77403     77407     77403     77404     77403     77405
     77403     77406     77407     77408     77409     77413     77409     77410
     77409     77411     77409     77412     77413     77414     77415     77419
     77415     77416     77415     77417     77415     77418     77419     77420
     77421     77425     77421     77422     77421     77423     77421     77424
     77425     77426     77427     77431     77427     77428     77427     77429
     77427     77430     77431     77432     77433     77437     77433     77434
     77433     77435     77433     77436     77437     77438     77439     77443
     77439     77440     77439     77441     77439     77442     77443     77444
     77445     77449     77445     77446     77445     77447     77445     77448
     77449     77450     77451     77455     77451     77452     77451     77453
     77451     77454     77455     77456     77457     77461     77457     77458
     77457     77459     77457     77460     77461     77462     77463     77467
     77463     77464     77463     77465     77463     77466     77467     77468
     77469     77473     77469     77470     77469     77471     77469     77472
     77473     77474     77475     77479     77475     77476     77475     77477
     77475     77478     77479     77480     77481     77485     77481     77482
     77481     77483     77481     77484     77485     77486     77487     77491
     77487     77488     77487     77489     77487     77490     77491     77492
     77493     77497     77493     77494     77493     77495     77493     77496
     77497     77498     77499     77503     77499     77500     77499     77501
     77499     77502     77503     77504     77505     77509     77505     77506
     77505     77507     77505     77508     77509     77510     77511     77515
     77511     77512     77511     77513     77511     77514     77515     77516
     77517     77521     77517     77518     77517     77519     77517     77520
     77521     77522     77523     77527     77523     77524     77523     77525
     77523     77526     77527     77528     77529     77533     77529     77530
     77529     77531     77529     77532     77533     77534     77535     77539
     77535     77536     77535     77537     77535     77538     77539     77540
     77541     77545     77541     77542     77541     77543     77541     77544
     77545     77546     77547     77551     77547     77548     77547     77549
     77547     77550     77551     77552     77553     77557     77553     77554
     77553     77555     77553     77556     77557     77558     77559     77563
     77559     77560     77559     77561     77559     77562     77563     77564
     77565     77569     77565     77566     77565     77567     77565     77568
     77569     77570     77571     77575     77571     77572     77571     77573
     77571     77574     77575     77576     77577     77581     77577     77578
     77577     77579     77577     77580     77581     77582     77583     77587
     77583     77584     77583     77585     77583     77586     77587     77588
     77589     77593     77589     77590     77589     77591     77589     77592
     77593     77594     77595     77599     77595     77596     77595     77597
     77595     77598     77599     77600     77601     77605     77601     77602
     77601     77603     77601     77604     77605     77606     77607     77611
     77607     77608     77607     77609     77607     77610     77611     77612
     77613     77617     77613     77614     77613     77615     77613     77616
     77617     77618     77619     77623     77619     77620     77619     77621
     77619     77622     77623     77624     77625     77629     77625     77626
     77625     77627     77625     77628     77629     77630     77631     77635
     77631     77632     77631     77633     77631     77634     77635     77636
     77637     77641     77637     77638     77637     77639     77637     77640
     77641     77642     77643     77647     77643     77644     77643     77645
     77643     77646     77647     77648     77649     77653     77649     77650
     77649     77651     77649     77652     77653     77654     77655     77659
     77655     77656     77655     77657     77655     77658     77659     77660
     77661     77665     77661     77662     77661     77663     77661     77664
     77665     77666     77667     77671     77667     77668     77667     77669
     77667     77670     77671     77672     77673     77677     77673     77674
     77673     77675     77673     77676     77677     77678     77679     77683
     77679     77680     77679     77681     77679     77682     77683     77684
     77685     77689     77685     77686     77685     77687     77685     77688
     77689     77690     77691     77695     77691     77692     77691     77693
     77691     77694     77695     77696     77697     77701     77697     77698
     77697     77699     77697     77700     77701     77702     77703     77707
     77703     77704     77703     77705     77703     77706     77707     77708
     77709     77713     77709     77710     77709     77711     77709     77712
     77713     77714     77715     77719     77715     77716     77715     77717
     77715     77718     77719     77720     77721     77725     77721     77722
     77721     77723     77721     77724     77725     77726     77727     77731
     77727     77728     77727     77729     77727     77730     77731     77732
     77733     77737     77733     77734     77733     77735     77733     77736
     77737     77738     77739     77743     77739     77740     77739     77741
     77739     77742     77743     77744     77745     77749     77745     77746
     77745     77747     77745     77748     77749     77750     77751     77755
     77751     77752     77751     77753     77751     77754     77755     77756
     77757     77761     77757     77758     77757     77759     77757     77760
     77761     77762     77763     77767     77763     77764     77763     77765
     77763     77766     77767     77768     77769     77773     77769     77770
     77769     77771     77769     77772     77773     77774     77775     77779
     77775     77776     77775     77777     77775     77778     77779     77780
     77781     77785     77781     77782     77781     77783     77781     77784
     77785     77786     77787     77791     77787     77788     77787     77789
     77787     77790     77791     77792     77793     77797     77793     77794
     77793     77795     77793     77796     77797     77798     77799     77803
     77799     77800     77799     77801     77799     77802     77803     77804
     77805     77809     77805     77806     77805     77807     77805     77808
     77809     77810     77811     77815     77811     77812     77811     77813
     77811     77814     77815     77816     77817     77821     77817     77818
     77817     77819     77817     77820     77821     77822     77823     77827
     77823     77824     77823     77825     77823     77826     77827     77828
     77829     77833     77829     77830     77829     77831     77829     77832
     77833     77834     77835     77839     77835     77836     77835     77837
     77835     77838     77839     77840     77841     77845     77841     77842
     77841     77843     77841     77844     77845     77846     77847     77851
     77847     77848     77847     77849     77847     77850     77851     77852
     77853     77857     77853     77854     77853     77855     77853     77856
     77857     77858     77859     77863     77859     77860     77859     77861
     77859     77862     77863     77864     77865     77869     77865     77866
     77865     77867     77865     77868     77869     77870     77871     77875
     77871     77872     77871     77873     77871     77874     77875     77876
     77877     77881     77877     77878     77877     77879     77877     77880
     77881     77882     77883     77887     77883     77884     77883     77885
     77883     77886     77887     77888     77889     77893     77889     77890
     77889     77891     77889     77892     77893     77894     77895     77899
     77895     77896     77895     77897     77895     77898     77899     77900
     77901     77905     77901     77902     77901     77903     77901     77904
     77905     77906     77907     77911     77907     77908     77907     77909
     77907     77910     77911     77912     77913     77917     77913     77914
     77913     77915     77913     77916     77917     77918     77919     77923
     77919     77920     77919     77921     77919     77922     77923     77924
     77925     77929     77925     77926     77925     77927     77925     77928
     77929     77930     77931     77935     77931     77932     77931     77933
     77931     77934     77935     77936     77937     77941     77937     77938
     77937     77939     77937     77940     77941     77942     77943     77947
     77943     77944     77943     77945     77943     77946     77947     77948
     77949     77953     77949     77950     77949     77951     77949     77952
     77953     77954     77955     77959     77955     77956     77955     77957
     77955     77958     77959     77960     77961     77965     77961     77962
     77961     77963     77961     77964     77965     77966     77967     77971
     77967     77968     77967     77969     77967     77970     77971     77972
     77973     77977     77973     77974     77973     77975     77973     77976
     77977     77978     77979     77983     77979     77980     77979     77981
     77979     77982     77983     77984     77985     77989     77985     77986
     77985     77987     77985     77988     77989     77990     77991     77995
     77991     77992     77991     77993     77991     77994     77995     77996
     77997     78001     77997     77998     77997     77999     77997     78000
     78001     78002     78003     78007     78003     78004     78003     78005
     78003     78006     78007     78008     78009     78013     78009     78010
     78009     78011     78009     78012     78013     78014     78015     78019
     78015     78016     78015     78017     78015     78018     78019     78020
     78021     78025     78021     78022     78021     78023     78021     78024
     78025     78026     78027     78031     78027     78028     78027     78029
     78027     78030     78031     78032     78033     78037     78033     78034
     78033     78035     78033     78036     78037     78038     78039     78043
     78039     78040     78039     78041     78039     78042     78043     78044
     78045     78049     78045     78046     78045     78047     78045     78048
     78049     78050     78051     78055     78051     78052     78051     78053
     78051     78054     78055     78056     78057     78061     78057     78058
     78057     78059     78057     78060     78061     78062     78063     78067
     78063     78064     78063     78065     78063     78066     78067     78068
     78069     78073     78069     78070     78069     78071     78069     78072
     78073     78074     78075     78079     78075     78076     78075     78077
     78075     78078     78079     78080     78081     78085     78081     78082
     78081     78083     78081     78084     78085     78086     78087     78091
     78087     78088     78087     78089     78087     78090     78091     78092
     78093     78097     78093     78094     78093     78095     78093     78096
     78097     78098     78099     78103     78099     78100     78099     78101
     78099     78102     78103     78104     78105     78109     78105     78106
     78105     78107     78105     78108     78109     78110     78111     78115
     78111     78112     78111     78113     78111     78114     78115     78116
     78117     78121     78117     78118     78117     78119     78117     78120
     78121     78122     78123     78127     78123     78124     78123     78125
     78123     78126     78127     78128     78129     78133     78129     78130
     78129     78131     78129     78132     78133     78134     78135     78139
     78135     78136     78135     78137     78135     78138     78139     78140
     78141     78145     78141     78142     78141     78143     78141     78144
     78145     78146     78147     78151     78147     78148     78147     78149
     78147     78150     78151     78152     78153     78157     78153     78154
     78153     78155     78153     78156     78157     78158     78159     78163
     78159     78160     78159     78161     78159     78162     78163     78164
     78165     78169     78165     78166     78165     78167     78165     78168
     78169     78170     78171     78175     78171     78172     78171     78173
     78171     78174     78175     78176     78177     78181     78177     78178
     78177     78179     78177     78180     78181     78182     78183     78187
     78183     78184     78183     78185     78183     78186     78187     78188
     78189     78193     78189     78190     78189     78191     78189     78192
     78193     78194     78195     78199     78195     78196     78195     78197
     78195     78198     78199     78200     78201     78205     78201     78202
     78201     78203     78201     78204     78205     78206     78207     78211
     78207     78208     78207     78209     78207     78210     78211     78212
     78213     78217     78213     78214     78213     78215     78213     78216
     78217     78218     78219     78223     78219     78220     78219     78221
     78219     78222     78223     78224     78225     78229     78225     78226
     78225     78227     78225     78228     78229     78230     78231     78235
     78231     78232     78231     78233     78231     78234     78235     78236
     78237     78241     78237     78238     78237     78239     78237     78240
     78241     78242     78243     78247     78243     78244     78243     78245
     78243     78246     78247     78248     78249     78253     78249     78250
     78249     78251     78249     78252     78253     78254     78255     78259
     78255     78256     78255     78257     78255     78258     78259     78260
     78261     78265     78261     78262     78261     78263     78261     78264
     78265     78266     78267     78271     78267     78268     78267     78269
     78267     78270     78271     78272     78273     78277     78273     78274
     78273     78275     78273     78276     78277     78278     78279     78283
     78279     78280     78279     78281     78279     78282     78283     78284
     78285     78289     78285     78286     78285     78287     78285     78288
     78289     78290     78291     78295     78291     78292     78291     78293
     78291     78294     78295     78296     78297     78301     78297     78298
     78297     78299     78297     78300     78301     78302     78303     78307
     78303     78304     78303     78305     78303     78306     78307     78308
     78309     78313     78309     78310     78309     78311     78309     78312
     78313     78314     78315     78319     78315     78316     78315     78317
     78315     78318     78319     78320     78321     78325     78321     78322
     78321     78323     78321     78324     78325     78326     78327     78331
     78327     78328     78327     78329     78327     78330     78331     78332
     78333     78337     78333     78334     78333     78335     78333     78336
     78337     78338     78339     78343     78339     78340     78339     78341
     78339     78342     78343     78344     78345     78349     78345     78346
     78345     78347     78345     78348     78349     78350     78351     78355
     78351     78352     78351     78353     78351     78354     78355     78356
     78357     78361     78357     78358     78357     78359     78357     78360
     78361     78362     78363     78367     78363     78364     78363     78365
     78363     78366     78367     78368     78369     78373     78369     78370
     78369     78371     78369     78372     78373     78374     78375     78379
     78375     78376     78375     78377     78375     78378     78379     78380
     78381     78385     78381     78382     78381     78383     78381     78384
     78385     78386     78387     78391     78387     78388     78387     78389
     78387     78390     78391     78392     78393     78397     78393     78394
     78393     78395     78393     78396     78397     78398     78399     78403
     78399     78400     78399     78401     78399     78402     78403     78404
     78405     78409     78405     78406     78405     78407     78405     78408
     78409     78410     78411     78415     78411     78412     78411     78413
     78411     78414     78415     78416     78417     78421     78417     78418
     78417     78419     78417     78420     78421     78422     78423     78427
     78423     78424     78423     78425     78423     78426     78427     78428
     78429     78433     78429     78430     78429     78431     78429     78432
     78433     78434     78435     78439     78435     78436     78435     78437
     78435     78438     78439     78440     78441     78445     78441     78442
     78441     78443     78441     78444     78445     78446     78447     78451
     78447     78448     78447     78449     78447     78450     78451     78452
     78453     78457     78453     78454     78453     78455     78453     78456
     78457     78458     78459     78463     78459     78460     78459     78461
     78459     78462     78463     78464     78465     78469     78465     78466
     78465     78467     78465     78468     78469     78470     78471     78475
     78471     78472     78471     78473     78471     78474     78475     78476
     78477     78481     78477     78478     78477     78479     78477     78480
     78481     78482     78483     78487     78483     78484     78483     78485
     78483     78486     78487     78488     78489     78493     78489     78490
     78489     78491     78489     78492     78493     78494     78495     78499
     78495     78496     78495     78497     78495     78498     78499     78500
     78501     78505     78501     78502     78501     78503     78501     78504
     78505     78506     78507     78511     78507     78508     78507     78509
     78507     78510     78511     78512     78513     78517     78513     78514
     78513     78515     78513     78516     78517     78518     78519     78523
     78519     78520     78519     78521     78519     78522     78523     78524
     78525     78529     78525     78526     78525     78527     78525     78528
     78529     78530     78531     78535     78531     78532     78531     78533
     78531     78534     78535     78536     78537     78541     78537     78538
     78537     78539     78537     78540     78541     78542     78543     78547
     78543     78544     78543     78545     78543     78546     78547     78548
     78549     78553     78549     78550     78549     78551     78549     78552
     78553     78554     78555     78559     78555     78556     78555     78557
     78555     78558     78559     78560     78561     78565     78561     78562
     78561     78563     78561     78564     78565     78566     78567     78571
     78567     78568     78567     78569     78567     78570     78571     78572
     78573     78577     78573     78574     78573     78575     78573     78576
     78577     78578     78579     78583     78579     78580     78579     78581
     78579     78582     78583     78584     78585     78589     78585     78586
     78585     78587     78585     78588     78589     78590     78591     78595
     78591     78592     78591     78593     78591     78594     78595     78596
     78597     78601     78597     78598     78597     78599     78597     78600
     78601     78602     78603     78607     78603     78604     78603     78605
     78603     78606     78607     78608     78609     78613     78609     78610
     78609     78611     78609     78612     78613     78614     78615     78619
     78615     78616     78615     78617     78615     78618     78619     78620
     78621     78625     78621     78622     78621     78623     78621     78624
     78625     78626     78627     78631     78627     78628     78627     78629
     78627     78630     78631     78632     78633     78637     78633     78634
     78633     78635     78633     78636     78637     78638     78639     78643
     78639     78640     78639     78641     78639     78642     78643     78644
     78645     78649     78645     78646     78645     78647     78645     78648
     78649     78650     78651     78655     78651     78652     78651     78653
     78651     78654     78655     78656     78657     78661     78657     78658
     78657     78659     78657     78660     78661     78662     78663     78667
     78663     78664     78663     78665     78663     78666     78667     78668
     78669     78673     78669     78670     78669     78671     78669     78672
     78673     78674     78675     78679     78675     78676     78675     78677
     78675     78678     78679     78680     78681     78685     78681     78682
     78681     78683     78681     78684     78685     78686     78687     78691
     78687     78688     78687     78689     78687     78690     78691     78692
     78693     78697     78693     78694     78693     78695     78693     78696
     78697     78698     78699     78703     78699     78700     78699     78701
     78699     78702     78703     78704     78705     78709     78705     78706
     78705     78707     78705     78708     78709     78710     78711     78715
     78711     78712     78711     78713     78711     78714     78715     78716
     78717     78721     78717     78718     78717     78719     78717     78720
     78721     78722     78723     78727     78723     78724     78723     78725
     78723     78726     78727     78728     78729     78733     78729     78730
     78729     78731     78729     78732     78733     78734     78735     78739
     78735     78736     78735     78737     78735     78738     78739     78740
     78741     78745     78741     78742     78741     78743     78741     78744
     78745     78746     78747     78751     78747     78748     78747     78749
     78747     78750     78751     78752     78753     78757     78753     78754
     78753     78755     78753     78756     78757     78758     78759     78763
     78759     78760     78759     78761     78759     78762     78763     78764
     78765     78769     78765     78766     78765     78767     78765     78768
     78769     78770     78771     78775     78771     78772     78771     78773
     78771     78774     78775     78776     78777     78781     78777     78778
     78777     78779     78777     78780     78781     78782     78783     78787
     78783     78784     78783     78785     78783     78786     78787     78788
     78789     78793     78789     78790     78789     78791     78789     78792
     78793     78794     78795     78799     78795     78796     78795     78797
     78795     78798     78799     78800     78801     78805     78801     78802
     78801     78803     78801     78804     78805     78806     78807     78811
     78807     78808     78807     78809     78807     78810     78811     78812
     78813     78817     78813     78814     78813     78815     78813     78816
     78817     78818     78819     78823     78819     78820     78819     78821
     78819     78822     78823     78824     78825     78829     78825     78826
     78825     78827     78825     78828     78829     78830     78831     78835
     78831     78832     78831     78833     78831     78834     78835     78836
     78837     78841     78837     78838     78837     78839     78837     78840
     78841     78842     78843     78847     78843     78844     78843     78845
     78843     78846     78847     78848     78849     78853     78849     78850
     78849     78851     78849     78852     78853     78854     78855     78859
     78855     78856     78855     78857     78855     78858     78859     78860
     78861     78865     78861     78862     78861     78863     78861     78864
     78865     78866     78867     78871     78867     78868     78867     78869
     78867     78870     78871     78872     78873     78877     78873     78874
     78873     78875     78873     78876     78877     78878     78879     78883
     78879     78880     78879     78881     78879     78882     78883     78884
     78885     78889     78885     78886     78885     78887     78885     78888
     78889     78890     78891     78895     78891     78892     78891     78893
     78891     78894     78895     78896     78897     78901     78897     78898
     78897     78899     78897     78900     78901     78902     78903     78907
     78903     78904     78903     78905     78903     78906     78907     78908
     78909     78913     78909     78910     78909     78911     78909     78912
     78913     78914     78915     78919     78915     78916     78915     78917
     78915     78918     78919     78920     78921     78925     78921     78922
     78921     78923     78921     78924     78925     78926     78927     78931
     78927     78928     78927     78929     78927     78930     78931     78932
     78933     78937     78933     78934     78933     78935     78933     78936
     78937     78938     78939     78943     78939     78940     78939     78941
     78939     78942     78943     78944     78945     78949     78945     78946
     78945     78947     78945     78948     78949     78950     78951     78955
     78951     78952     78951     78953     78951     78954     78955     78956
     78957     78961     78957     78958     78957     78959     78957     78960
     78961     78962     78963     78967     78963     78964     78963     78965
     78963     78966     78967     78968     78969     78973     78969     78970
     78969     78971     78969     78972     78973     78974     78975     78979
     78975     78976     78975     78977     78975     78978     78979     78980
     78981     78985     78981     78982     78981     78983     78981     78984
     78985     78986     78987     78991     78987     78988     78987     78989
     78987     78990     78991     78992     78993     78997     78993     78994
     78993     78995     78993     78996     78997     78998     78999     79003
     78999     79000     78999     79001     78999     79002     79003     79004
     79005     79009     79005     79006     79005     79007     79005     79008
     79009     79010     79011     79015     79011     79012     79011     79013
     79011     79014     79015     79016     79017     79021     79017     79018
     79017     79019     79017     79020     79021     79022     79023     79027
     79023     79024     79023     79025     79023     79026     79027     79028
     79029     79033     79029     79030     79029     79031     79029     79032
     79033     79034     79035     79039     79035     79036     79035     79037
     79035     79038     79039     79040     79041     79045     79041     79042
     79041     79043     79041     79044     79045     79046     79047     79051
     79047     79048     79047     79049     79047     79050     79051     79052
     79053     79057     79053     79054     79053     79055     79053     79056
     79057     79058     79059     79063     79059     79060     79059     79061
     79059     79062     79063     79064     79065     79069     79065     79066
     79065     79067     79065     79068     79069     79070     79071     79075
     79071     79072     79071     79073     79071     79074     79075     79076
     79077     79081     79077     79078     79077     79079     79077     79080
     79081     79082     79083     79087     79083     79084     79083     79085
     79083     79086     79087     79088     79089     79093     79089     79090
     79089     79091     79089     79092     79093     79094     79095     79099
     79095     79096     79095     79097     79095     79098     79099     79100
     79101     79105     79101     79102     79101     79103     79101     79104
     79105     79106     79107     79111     79107     79108     79107     79109
     79107     79110     79111     79112     79113     79117     79113     79114
     79113     79115     79113     79116     79117     79118     79119     79123
     79119     79120     79119     79121     79119     79122     79123     79124
     79125     79129     79125     79126     79125     79127     79125     79128
     79129     79130     79131     79135     79131     79132     79131     79133
     79131     79134     79135     79136     79137     79141     79137     79138
     79137     79139     79137     79140     79141     79142     79143     79147
     79143     79144     79143     79145     79143     79146     79147     79148
     79149     79153     79149     79150     79149     79151     79149     79152
     79153     79154     79155     79159     79155     79156     79155     79157
     79155     79158     79159     79160     79161     79165     79161     79162
     79161     79163     79161     79164     79165     79166     79167     79171
     79167     79168     79167     79169     79167     79170     79171     79172
     79173     79177     79173     79174     79173     79175     79173     79176
     79177     79178     79179     79183     79179     79180     79179     79181
     79179     79182     79183     79184     79185     79189     79185     79186
     79185     79187     79185     79188     79189     79190     79191     79195
     79191     79192     79191     79193     79191     79194     79195     79196
     79197     79201     79197     79198     79197     79199     79197     79200
     79201     79202     79203     79207     79203     79204     79203     79205
     79203     79206     79207     79208     79209     79213     79209     79210
     79209     79211     79209     79212     79213     79214     79215     79219
     79215     79216     79215     79217     79215     79218     79219     79220
     79221     79225     79221     79222     79221     79223     79221     79224
     79225     79226     79227     79231     79227     79228     79227     79229
     79227     79230     79231     79232     79233     79237     79233     79234
     79233     79235     79233     79236     79237     79238     79239     79243
     79239     79240     79239     79241     79239     79242     79243     79244
     79245     79249     79245     79246     79245     79247     79245     79248
     79249     79250     79251     79255     79251     79252     79251     79253
     79251     79254     79255     79256     79257     79261     79257     79258
     79257     79259     79257     79260     79261     79262     79263     79267
     79263     79264     79263     79265     79263     79266     79267     79268
     79269     79273     79269     79270     79269     79271     79269     79272
     79273     79274     79275     79279     79275     79276     79275     79277
     79275     79278     79279     79280     79281     79285     79281     79282
     79281     79283     79281     79284     79285     79286     79287     79291
     79287     79288     79287     79289     79287     79290     79291     79292
     79293     79297     79293     79294     79293     79295     79293     79296
     79297     79298     79299     79303     79299     79300     79299     79301
     79299     79302     79303     79304     79305     79309     79305     79306
     79305     79307     79305     79308     79309     79310     79311     79315
     79311     79312     79311     79313     79311     79314     79315     79316
     79317     79321     79317     79318     79317     79319     79317     79320
     79321     79322     79323     79327     79323     79324     79323     79325
     79323     79326     79327     79328     79329     79333     79329     79330
     79329     79331     79329     79332     79333     79334     79335     79339
     79335     79336     79335     79337     79335     79338     79339     79340
     79341     79345     79341     79342     79341     79343     79341     79344
     79345     79346     79347     79351     79347     79348     79347     79349
     79347     79350     79351     79352     79353     79357     79353     79354
     79353     79355     79353     79356     79357     79358     79359     79363
     79359     79360     79359     79361     79359     79362     79363     79364
     79365     79369     79365     79366     79365     79367     79365     79368
     79369     79370     79371     79375     79371     79372     79371     79373
     79371     79374     79375     79376     79377     79381     79377     79378
     79377     79379     79377     79380     79381     79382     79383     79387
     79383     79384     79383     79385     79383     79386     79387     79388
     79389     79393     79389     79390     79389     79391     79389     79392
     79393     79394     79395     79399     79395     79396     79395     79397
     79395     79398     79399     79400     79401     79405     79401     79402
     79401     79403     79401     79404     79405     79406     79407     79411
     79407     79408     79407     79409     79407     79410     79411     79412
     79413     79417     79413     79414     79413     79415     79413     79416
     79417     79418     79419     79423     79419     79420     79419     79421
     79419     79422     79423     79424     79425     79429     79425     79426
     79425     79427     79425     79428     79429     79430     79431     79435
     79431     79432     79431     79433     79431     79434     79435     79436
     79437     79441     79437     79438     79437     79439     79437     79440
     79441     79442     79443     79447     79443     79444     79443     79445
     79443     79446     79447     79448     79449     79453     79449     79450
     79449     79451     79449     79452     79453     79454     79455     79459
     79455     79456     79455     79457     79455     79458     79459     79460
     79461     79465     79461     79462     79461     79463     79461     79464
     79465     79466     79467     79471     79467     79468     79467     79469
     79467     79470     79471     79472     79473     79477     79473     79474
     79473     79475     79473     79476     79477     79478     79479     79483
     79479     79480     79479     79481     79479     79482     79483     79484
     79485     79489     79485     79486     79485     79487     79485     79488
     79489     79490     79491     79495     79491     79492     79491     79493
     79491     79494     79495     79496     79497     79501     79497     79498
     79497     79499     79497     79500     79501     79502     79503     79507
     79503     79504     79503     79505     79503     79506     79507     79508
     79509     79513     79509     79510     79509     79511     79509     79512
     79513     79514     79515     79519     79515     79516     79515     79517
     79515     79518     79519     79520     79521     79525     79521     79522
     79521     79523     79521     79524     79525     79526     79527     79531
     79527     79528     79527     79529     79527     79530     79531     79532
     79533     79537     79533     79534     79533     79535     79533     79536
     79537     79538     79539     79543     79539     79540     79539     79541
     79539     79542     79543     79544     79545     79549     79545     79546
     79545     79547     79545     79548     79549     79550     79551     79555
     79551     79552     79551     79553     79551     79554     79555     79556
     79557     79561     79557     79558     79557     79559     79557     79560
     79561     79562     79563     79567     79563     79564     79563     79565
     79563     79566     79567     79568     79569     79573     79569     79570
     79569     79571     79569     79572     79573     79574     79575     79579
     79575     79576     79575     79577     79575     79578     79579     79580
     79581     79585     79581     79582     79581     79583     79581     79584
     79585     79586     79587     79591     79587     79588     79587     79589
     79587     79590     79591     79592     79593     79597     79593     79594
     79593     79595     79593     79596     79597     79598     79599     79603
     79599     79600     79599     79601     79599     79602     79603     79604
     79605     79609     79605     79606     79605     79607     79605     79608
     79609     79610     79611     79615     79611     79612     79611     79613
     79611     79614     79615     79616     79617     79621     79617     79618
     79617     79619     79617     79620     79621     79622     79623     79627
     79623     79624     79623     79625     79623     79626     79627     79628
     79629     79633     79629     79630     79629     79631     79629     79632
     79633     79634     79635     79639     79635     79636     79635     79637
     79635     79638     79639     79640     79641     79645     79641     79642
     79641     79643     79641     79644     79645     79646     79647     79651
     79647     79648     79647     79649     79647     79650     79651     79652
     79653     79657     79653     79654     79653     79655     79653     79656
     79657     79658     79659     79663     79659     79660     79659     79661
     79659     79662     79663     79664     79665     79669     79665     79666
     79665     79667     79665     79668     79669     79670     79671     79675
     79671     79672     79671     79673     79671     79674     79675     79676
     79677     79681     79677     79678     79677     79679     79677     79680
     79681     79682     79683     79687     79683     79684     79683     79685
     79683     79686     79687     79688     79689     79693     79689     79690
     79689     79691     79689     79692     79693     79694     79695     79699
     79695     79696     79695     79697     79695     79698     79699     79700
     79701     79705     79701     79702     79701     79703     79701     79704
     79705     79706     79707     79711     79707     79708     79707     79709
     79707     79710     79711     79712     79713     79717     79713     79714
     79713     79715     79713     79716     79717     79718     79719     79723
     79719     79720     79719     79721     79719     79722     79723     79724
     79725     79729     79725     79726     79725     79727     79725     79728
     79729     79730     79731     79735     79731     79732     79731     79733
     79731     79734     79735     79736     79737     79741     79737     79738
     79737     79739     79737     79740     79741     79742     79743     79747
     79743     79744     79743     79745     79743     79746     79747     79748
     79749     79753     79749     79750     79749     79751     79749     79752
     79753     79754     79755     79759     79755     79756     79755     79757
     79755     79758     79759     79760     79761     79765     79761     79762
     79761     79763     79761     79764     79765     79766     79767     79771
     79767     79768     79767     79769     79767     79770     79771     79772
     79773     79777     79773     79774     79773     79775     79773     79776
     79777     79778     79779     79783     79779     79780     79779     79781
     79779     79782     79783     79784     79785     79789     79785     79786
     79785     79787     79785     79788     79789     79790     79791     79795
     79791     79792     79791     79793     79791     79794     79795     79796
     79797     79801     79797     79798     79797     79799     79797     79800
     79801     79802     79803     79807     79803     79804     79803     79805
     79803     79806     79807     79808     79809     79813     79809     79810
     79809     79811     79809     79812     79813     79814     79815     79819
     79815     79816     79815     79817     79815     79818     79819     79820
     79821     79825     79821     79822     79821     79823     79821     79824
     79825     79826     79827     79831     79827     79828     79827     79829
     79827     79830     79831     79832     79833     79837     79833     79834
     79833     79835     79833     79836     79837     79838     79839     79843
     79839     79840     79839     79841     79839     79842     79843     79844
     79845     79849     79845     79846     79845     79847     79845     79848
     79849     79850     79851     79855     79851     79852     79851     79853
     79851     79854     79855     79856     79857     79861     79857     79858
     79857     79859     79857     79860     79861     79862     79863     79867
     79863     79864     79863     79865     79863     79866     79867     79868
     79869     79873     79869     79870     79869     79871     79869     79872
     79873     79874     79875     79879     79875     79876     79875     79877
     79875     79878     79879     79880     79881     79885     79881     79882
     79881     79883     79881     79884     79885     79886     79887     79891
     79887     79888     79887     79889     79887     79890     79891     79892
     79893     79897     79893     79894     79893     79895     79893     79896
     79897     79898     79899     79903     79899     79900     79899     79901
     79899     79902     79903     79904     79905     79909     79905     79906
     79905     79907     79905     79908     79909     79910     79911     79915
     79911     79912     79911     79913     79911     79914     79915     79916
     79917     79921     79917     79918     79917     79919     79917     79920
     79921     79922     79923     79927     79923     79924     79923     79925
     79923     79926     79927     79928     79929     79933     79929     79930
     79929     79931     79929     79932     79933     79934     79935     79939
     79935     79936     79935     79937     79935     79938     79939     79940
     79941     79945     79941     79942     79941     79943     79941     79944
     79945     79946     79947     79951     79947     79948     79947     79949
     79947     79950     79951     79952     79953     79957     79953     79954
     79953     79955     79953     79956     79957     79958     79959     79963
     79959     79960     79959     79961     79959     79962     79963     79964
     79965     79969     79965     79966     79965     79967     79965     79968
     79969     79970     79971     79975     79971     79972     79971     79973
     79971     79974     79975     79976     79977     79981     79977     79978
     79977     79979     79977     79980     79981     79982     79983     79987
     79983     79984     79983     79985     79983     79986     79987     79988
     79989     79993     79989     79990     79989     79991     79989     79992
     79993     79994     79995     79999     79995     79996     79995     79997
     79995     79998     79999     80000     80001     80005     80001     80002
     80001     80003     80001     80004     80005     80006     80007     80011
     80007     80008     80007     80009     80007     80010     80011     80012
     80013     80017     80013     80014     80013     80015     80013     80016
     80017     80018     80019     80023     80019     80020     80019     80021
     80019     80022     80023     80024     80025     80029     80025     80026
     80025     80027     80025     80028     80029     80030     80031     80035
     80031     80032     80031     80033     80031     80034     80035     80036
     80037     80041     80037     80038     80037     80039     80037     80040
     80041     80042     80043     80047     80043     80044     80043     80045
     80043     80046     80047     80048     80049     80053     80049     80050
     80049     80051     80049     80052     80053     80054     80055     80059
     80055     80056     80055     80057     80055     80058     80059     80060
     80061     80065     80061     80062     80061     80063     80061     80064
     80065     80066     80067     80071     80067     80068     80067     80069
     80067     80070     80071     80072     80073     80077     80073     80074
     80073     80075     80073     80076     80077     80078     80079     80083
     80079     80080     80079     80081     80079     80082     80083     80084
     80085     80089     80085     80086     80085     80087     80085     80088
     80089     80090     80091     80095     80091     80092     80091     80093
     80091     80094     80095     80096     80097     80101     80097     80098
     80097     80099     80097     80100     80101     80102     80103     80107
     80103     80104     80103     80105     80103     80106     80107     80108
     80109     80113     80109     80110     80109     80111     80109     80112
     80113     80114     80115     80119     80115     80116     80115     80117
     80115     80118     80119     80120     80121     80125     80121     80122
     80121     80123     80121     80124     80125     80126     80127     80131
     80127     80128     80127     80129     80127     80130     80131     80132
     80133     80137     80133     80134     80133     80135     80133     80136
     80137     80138     80139     80143     80139     80140     80139     80141
     80139     80142     80143     80144     80145     80149     80145     80146
     80145     80147     80145     80148     80149     80150     80151     80155
     80151     80152     80151     80153     80151     80154     80155     80156
     80157     80161     80157     80158     80157     80159     80157     80160
     80161     80162     80163     80167     80163     80164     80163     80165
     80163     80166     80167     80168     80169     80173     80169     80170
     80169     80171     80169     80172     80173     80174     80175     80179
     80175     80176     80175     80177     80175     80178     80179     80180
     80181     80185     80181     80182     80181     80183     80181     80184
     80185     80186     80187     80191     80187     80188     80187     80189
     80187     80190     80191     80192     80193     80197     80193     80194
     80193     80195     80193     80196     80197     80198     80199     80203
     80199     80200     80199     80201     80199     80202     80203     80204
     80205     80209     80205     80206     80205     80207     80205     80208
     80209     80210     80211     80215     80211     80212     80211     80213
     80211     80214     80215     80216     80217     80221     80217     80218
     80217     80219     80217     80220     80221     80222     80223     80227
     80223     80224     80223     80225     80223     80226     80227     80228
     80229     80233     80229     80230     80229     80231     80229     80232
     80233     80234     80235     80239     80235     80236     80235     80237
     80235     80238     80239     80240     80241     80245     80241     80242
     80241     80243     80241     80244     80245     80246     80247     80251
     80247     80248     80247     80249     80247     80250     80251     80252
     80253     80257     80253     80254     80253     80255     80253     80256
     80257     80258     80259     80263     80259     80260     80259     80261
     80259     80262     80263     80264     80265     80269     80265     80266
     80265     80267     80265     80268     80269     80270     80271     80275
     80271     80272     80271     80273     80271     80274     80275     80276
     80277     80281     80277     80278     80277     80279     80277     80280
     80281     80282     80283     80287     80283     80284     80283     80285
     80283     80286     80287     80288     80289     80293     80289     80290
     80289     80291     80289     80292     80293     80294     80295     80299
     80295     80296     80295     80297     80295     80298     80299     80300
     80301     80305     80301     80302     80301     80303     80301     80304
     80305     80306     80307     80311     80307     80308     80307     80309
     80307     80310     80311     80312     80313     80317     80313     80314
     80313     80315     80313     80316     80317     80318     80319     80323
     80319     80320     80319     80321     80319     80322     80323     80324
     80325     80329     80325     80326     80325     80327     80325     80328
     80329     80330     80331     80335     80331     80332     80331     80333
     80331     80334     80335     80336     80337     80341     80337     80338
     80337     80339     80337     80340     80341     80342     80343     80347
     80343     80344     80343     80345     80343     80346     80347     80348
     80349     80353     80349     80350     80349     80351     80349     80352
     80353     80354     80355     80359     80355     80356     80355     80357
     80355     80358     80359     80360     80361     80365     80361     80362
     80361     80363     80361     80364     80365     80366     80367     80371
     80367     80368     80367     80369     80367     80370     80371     80372
     80373     80377     80373     80374     80373     80375     80373     80376
     80377     80378     80379     80383     80379     80380     80379     80381
     80379     80382     80383     80384     80385     80389     80385     80386
     80385     80387     80385     80388     80389     80390     80391     80395
     80391     80392     80391     80393     80391     80394     80395     80396
     80397     80401     80397     80398     80397     80399     80397     80400
     80401     80402     80403     80407     80403     80404     80403     80405
     80403     80406     80407     80408     80409     80413     80409     80410
     80409     80411     80409     80412     80413     80414     80415     80419
     80415     80416     80415     80417     80415     80418     80419     80420
     80421     80425     80421     80422     80421     80423     80421     80424
     80425     80426     80427     80431     80427     80428     80427     80429
     80427     80430     80431     80432     80433     80437     80433     80434
     80433     80435     80433     80436     80437     80438     80439     80443
     80439     80440     80439     80441     80439     80442     80443     80444
     80445     80449     80445     80446     80445     80447     80445     80448
     80449     80450     80451     80455     80451     80452     80451     80453
     80451     80454     80455     80456     80457     80461     80457     80458
     80457     80459     80457     80460     80461     80462     80463     80467
     80463     80464     80463     80465     80463     80466     80467     80468
     80469     80473     80469     80470     80469     80471     80469     80472
     80473     80474     80475     80479     80475     80476     80475     80477
     80475     80478     80479     80480     80481     80485     80481     80482
     80481     80483     80481     80484     80485     80486     80487     80491
     80487     80488     80487     80489     80487     80490     80491     80492
     80493     80497     80493     80494     80493     80495     80493     80496
     80497     80498     80499     80503     80499     80500     80499     80501
     80499     80502     80503     80504     80505     80509     80505     80506
     80505     80507     80505     80508     80509     80510     80511     80515
     80511     80512     80511     80513     80511     80514     80515     80516
     80517     80521     80517     80518     80517     80519     80517     80520
     80521     80522     80523     80527     80523     80524     80523     80525
     80523     80526     80527     80528     80529     80533     80529     80530
     80529     80531     80529     80532     80533     80534     80535     80539
     80535     80536     80535     80537     80535     80538     80539     80540
     80541     80545     80541     80542     80541     80543     80541     80544
     80545     80546     80547     80551     80547     80548     80547     80549
     80547     80550     80551     80552     80553     80557     80553     80554
     80553     80555     80553     80556     80557     80558     80559     80563
     80559     80560     80559     80561     80559     80562     80563     80564
     80565     80569     80565     80566     80565     80567     80565     80568
     80569     80570     80571     80575     80571     80572     80571     80573
     80571     80574     80575     80576     80577     80581     80577     80578
     80577     80579     80577     80580     80581     80582     80583     80587
     80583     80584     80583     80585     80583     80586     80587     80588
     80589     80593     80589     80590     80589     80591     80589     80592
     80593     80594     80595     80599     80595     80596     80595     80597
     80595     80598     80599     80600     80601     80605     80601     80602
     80601     80603     80601     80604     80605     80606     80607     80611
     80607     80608     80607     80609     80607     80610     80611     80612
     80613     80617     80613     80614     80613     80615     80613     80616
     80617     80618     80619     80623     80619     80620     80619     80621
     80619     80622     80623     80624     80625     80629     80625     80626
     80625     80627     80625     80628     80629     80630     80631     80635
     80631     80632     80631     80633     80631     80634     80635     80636
     80637     80641     80637     80638     80637     80639     80637     80640
     80641     80642     80643     80647     80643     80644     80643     80645
     80643     80646     80647     80648     80649     80653     80649     80650
     80649     80651     80649     80652     80653     80654     80655     80659
     80655     80656     80655     80657     80655     80658     80659     80660
     80661     80665     80661     80662     80661     80663     80661     80664
     80665     80666     80667     80671     80667     80668     80667     80669
     80667     80670     80671     80672     80673     80677     80673     80674
     80673     80675     80673     80676     80677     80678     80679     80683
     80679     80680     80679     80681     80679     80682     80683     80684
     80685     80689     80685     80686     80685     80687     80685     80688
     80689     80690     80691     80695     80691     80692     80691     80693
     80691     80694     80695     80696     80697     80701     80697     80698
     80697     80699     80697     80700     80701     80702     80703     80707
     80703     80704     80703     80705     80703     80706     80707     80708
     80709     80713     80709     80710     80709     80711     80709     80712
     80713     80714     80715     80719     80715     80716     80715     80717
     80715     80718     80719     80720     80721     80725     80721     80722
     80721     80723     80721     80724     80725     80726     80727     80731
     80727     80728     80727     80729     80727     80730     80731     80732
     80733     80737     80733     80734     80733     80735     80733     80736
     80737     80738     80739     80743     80739     80740     80739     80741
     80739     80742     80743     80744     80745     80749     80745     80746
     80745     80747     80745     80748     80749     80750     80751     80755
     80751     80752     80751     80753     80751     80754     80755     80756
     80757     80761     80757     80758     80757     80759     80757     80760
     80761     80762     80763     80767     80763     80764     80763     80765
     80763     80766     80767     80768     80769     80773     80769     80770
     80769     80771     80769     80772     80773     80774     80775     80779
     80775     80776     80775     80777     80775     80778     80779     80780
     80781     80785     80781     80782     80781     80783     80781     80784
     80785     80786     80787     80791     80787     80788     80787     80789
     80787     80790     80791     80792     80793     80797     80793     80794
     80793     80795     80793     80796     80797     80798     80799     80803
     80799     80800     80799     80801     80799     80802     80803     80804
     80805     80809     80805     80806     80805     80807     80805     80808
     80809     80810     80811     80815     80811     80812     80811     80813
     80811     80814     80815     80816     80817     80821     80817     80818
     80817     80819     80817     80820     80821     80822     80823     80827
     80823     80824     80823     80825     80823     80826     80827     80828
     80829     80833     80829     80830     80829     80831     80829     80832
     80833     80834     80835     80839     80835     80836     80835     80837
     80835     80838     80839     80840     80841     80845     80841     80842
     80841     80843     80841     80844     80845     80846     80847     80851
     80847     80848     80847     80849     80847     80850     80851     80852
     80853     80857     80853     80854     80853     80855     80853     80856
     80857     80858     80859     80863     80859     80860     80859     80861
     80859     80862     80863     80864     80865     80869     80865     80866
     80865     80867     80865     80868     80869     80870     80871     80875
     80871     80872     80871     80873     80871     80874     80875     80876
     80877     80881     80877     80878     80877     80879     80877     80880
     80881     80882     80883     80887     80883     80884     80883     80885
     80883     80886     80887     80888     80889     80893     80889     80890
     80889     80891     80889     80892     80893     80894     80895     80899
     80895     80896     80895     80897     80895     80898     80899     80900
     80901     80905     80901     80902     80901     80903     80901     80904
     80905     80906     80907     80911     80907     80908     80907     80909
     80907     80910     80911     80912     80913     80917     80913     80914
     80913     80915     80913     80916     80917     80918     80919     80923
     80919     80920     80919     80921     80919     80922     80923     80924
     80925     80929     80925     80926     80925     80927     80925     80928
     80929     80930     80931     80935     80931     80932     80931     80933
     80931     80934     80935     80936     80937     80941     80937     80938
     80937     80939     80937     80940     80941     80942     80943     80947
     80943     80944     80943     80945     80943     80946     80947     80948
     80949     80953     80949     80950     80949     80951     80949     80952
     80953     80954     80955     80959     80955     80956     80955     80957
     80955     80958     80959     80960     80961     80965     80961     80962
     80961     80963     80961     80964     80965     80966     80967     80971
     80967     80968     80967     80969     80967     80970     80971     80972
     80973     80977     80973     80974     80973     80975     80973     80976
     80977     80978     80979     80983     80979     80980     80979     80981
     80979     80982     80983     80984     80985     80989     80985     80986
     80985     80987     80985     80988     80989     80990     80991     80995
     80991     80992     80991     80993     80991     80994     80995     80996
     80997     81001     80997     80998     80997     80999     80997     81000
     81001     81002     81003     81007     81003     81004     81003     81005
     81003     81006     81007     81008     81009     81013     81009     81010
     81009     81011     81009     81012     81013     81014     81015     81019
     81015     81016     81015     81017     81015     81018     81019     81020
     81021     81025     81021     81022     81021     81023     81021     81024
     81025     81026     81027     81031     81027     81028     81027     81029
     81027     81030     81031     81032     81033     81037     81033     81034
     81033     81035     81033     81036     81037     81038     81039     81043
     81039     81040     81039     81041     81039     81042     81043     81044
     81045     81049     81045     81046     81045     81047     81045     81048
     81049     81050     81051     81055     81051     81052     81051     81053
     81051     81054     81055     81056     81057     81061     81057     81058
     81057     81059     81057     81060     81061     81062     81063     81067
     81063     81064     81063     81065     81063     81066     81067     81068
     81069     81073     81069     81070     81069     81071     81069     81072
     81073     81074     81075     81079     81075     81076     81075     81077
     81075     81078     81079     81080     81081     81085     81081     81082
     81081     81083     81081     81084     81085     81086     81087     81091
     81087     81088     81087     81089     81087     81090     81091     81092
     81093     81097     81093     81094     81093     81095     81093     81096
     81097     81098     81099     81103     81099     81100     81099     81101
     81099     81102     81103     81104     81105     81109     81105     81106
     81105     81107     81105     81108     81109     81110     81111     81115
     81111     81112     81111     81113     81111     81114     81115     81116
     81117     81121     81117     81118     81117     81119     81117     81120
     81121     81122     81123     81127     81123     81124     81123     81125
     81123     81126     81127     81128     81129     81133     81129     81130
     81129     81131     81129     81132     81133     81134     81135     81139
     81135     81136     81135     81137     81135     81138     81139     81140
     81141     81145     81141     81142     81141     81143     81141     81144
     81145     81146     81147     81151     81147     81148     81147     81149
     81147     81150     81151     81152     81153     81157     81153     81154
     81153     81155     81153     81156     81157     81158     81159     81163
     81159     81160     81159     81161     81159     81162     81163     81164
     81165     81169     81165     81166     81165     81167     81165     81168
     81169     81170     81171     81175     81171     81172     81171     81173
     81171     81174     81175     81176     81177     81181     81177     81178
     81177     81179     81177     81180     81181     81182     81183     81187
     81183     81184     81183     81185     81183     81186     81187     81188
     81189     81193     81189     81190     81189     81191     81189     81192
     81193     81194     81195     81199     81195     81196     81195     81197
     81195     81198     81199     81200     81201     81205     81201     81202
     81201     81203     81201     81204     81205     81206     81207     81211
     81207     81208     81207     81209     81207     81210     81211     81212
     81213     81217     81213     81214     81213     81215     81213     81216
     81217     81218     81219     81223     81219     81220     81219     81221
     81219     81222     81223     81224     81225     81229     81225     81226
     81225     81227     81225     81228     81229     81230     81231     81235
     81231     81232     81231     81233     81231     81234     81235     81236
     81237     81241     81237     81238     81237     81239     81237     81240
     81241     81242     81243     81247     81243     81244     81243     81245
     81243     81246     81247     81248     81249     81253     81249     81250
     81249     81251     81249     81252     81253     81254     81255     81259
     81255     81256     81255     81257     81255     81258     81259     81260
     81261     81265     81261     81262     81261     81263     81261     81264
     81265     81266     81267     81271     81267     81268     81267     81269
     81267     81270     81271     81272     81273     81277     81273     81274
     81273     81275     81273     81276     81277     81278     81279     81283
     81279     81280     81279     81281     81279     81282     81283     81284
     81285     81289     81285     81286     81285     81287     81285     81288
     81289     81290     81291     81295     81291     81292     81291     81293
     81291     81294     81295     81296     81297     81301     81297     81298
     81297     81299     81297     81300     81301     81302     81303     81307
     81303     81304     81303     81305     81303     81306     81307     81308
     81309     81313     81309     81310     81309     81311     81309     81312
     81313     81314     81315     81319     81315     81316     81315     81317
     81315     81318     81319     81320     81321     81325     81321     81322
     81321     81323     81321     81324     81325     81326     81327     81331
     81327     81328     81327     81329     81327     81330     81331     81332
     81333     81337     81333     81334     81333     81335     81333     81336
     81337     81338     81339     81343     81339     81340     81339     81341
     81339     81342     81343     81344     81345     81349     81345     81346
     81345     81347     81345     81348     81349     81350     81351     81355
     81351     81352     81351     81353     81351     81354     81355     81356
     81357     81361     81357     81358     81357     81359     81357     81360
     81361     81362     81363     81367     81363     81364     81363     81365
     81363     81366     81367     81368     81369     81373     81369     81370
     81369     81371     81369     81372     81373     81374     81375     81379
     81375     81376     81375     81377     81375     81378     81379     81380
     81381     81385     81381     81382     81381     81383     81381     81384
     81385     81386     81387     81391     81387     81388     81387     81389
     81387     81390     81391     81392     81393     81397     81393     81394
     81393     81395     81393     81396     81397     81398     81399     81403
     81399     81400     81399     81401     81399     81402     81403     81404
     81405     81409     81405     81406     81405     81407     81405     81408
     81409     81410     81411     81415     81411     81412     81411     81413
     81411     81414     81415     81416     81417     81421     81417     81418
     81417     81419     81417     81420     81421     81422     81423     81427
     81423     81424     81423     81425     81423     81426     81427     81428
     81429     81433     81429     81430     81429     81431     81429     81432
     81433     81434     81435     81439     81435     81436     81435     81437
     81435     81438     81439     81440     81441     81445     81441     81442
     81441     81443     81441     81444     81445     81446     81447     81451
     81447     81448     81447     81449     81447     81450     81451     81452
     81453     81457     81453     81454     81453     81455     81453     81456
     81457     81458     81459     81463     81459     81460     81459     81461
     81459     81462     81463     81464     81465     81469     81465     81466
     81465     81467     81465     81468     81469     81470     81471     81475
     81471     81472     81471     81473     81471     81474     81475     81476
     81477     81481     81477     81478     81477     81479     81477     81480
     81481     81482     81483     81487     81483     81484     81483     81485
     81483     81486     81487     81488     81489     81493     81489     81490
     81489     81491     81489     81492     81493     81494     81495     81499
     81495     81496     81495     81497     81495     81498     81499     81500
     81501     81505     81501     81502     81501     81503     81501     81504
     81505     81506     81507     81511     81507     81508     81507     81509
     81507     81510     81511     81512     81513     81517     81513     81514
     81513     81515     81513     81516     81517     81518     81519     81523
     81519     81520     81519     81521     81519     81522     81523     81524
     81525     81529     81525     81526     81525     81527     81525     81528
     81529     81530     81531     81535     81531     81532     81531     81533
     81531     81534     81535     81536     81537     81541     81537     81538
     81537     81539     81537     81540     81541     81542     81543     81547
     81543     81544     81543     81545     81543     81546     81547     81548
     81549     81553     81549     81550     81549     81551     81549     81552
     81553     81554     81555     81559     81555     81556     81555     81557
     81555     81558     81559     81560     81561     81565     81561     81562
     81561     81563     81561     81564     81565     81566     81567     81571
     81567     81568     81567     81569     81567     81570     81571     81572
     81573     81577     81573     81574     81573     81575     81573     81576
     81577     81578     81579     81583     81579     81580     81579     81581
     81579     81582     81583     81584     81585     81589     81585     81586
     81585     81587     81585     81588     81589     81590     81591     81595
     81591     81592     81591     81593     81591     81594     81595     81596
     81597     81601     81597     81598     81597     81599     81597     81600
     81601     81602     81603     81607     81603     81604     81603     81605
     81603     81606     81607     81608     81609     81613     81609     81610
     81609     81611     81609     81612     81613     81614     81615     81619
     81615     81616     81615     81617     81615     81618     81619     81620
     81621     81625     81621     81622     81621     81623     81621     81624
     81625     81626     81627     81631     81627     81628     81627     81629
     81627     81630     81631     81632     81633     81637     81633     81634
     81633     81635     81633     81636     81637     81638     81639     81643
     81639     81640     81639     81641     81639     81642     81643     81644
     81645     81649     81645     81646     81645     81647     81645     81648
     81649     81650     81651     81655     81651     81652     81651     81653
     81651     81654     81655     81656     81657     81661     81657     81658
     81657     81659     81657     81660     81661     81662     81663     81667
     81663     81664     81663     81665     81663     81666     81667     81668
     81669     81673     81669     81670     81669     81671     81669     81672
     81673     81674     81675     81679     81675     81676     81675     81677
     81675     81678     81679     81680     81681     81685     81681     81682
     81681     81683     81681     81684     81685     81686     81687     81691
     81687     81688     81687     81689     81687     81690     81691     81692
     81693     81697     81693     81694     81693     81695     81693     81696
     81697     81698     81699     81703     81699     81700     81699     81701
     81699     81702     81703     81704     81705     81709     81705     81706
     81705     81707     81705     81708     81709     81710     81711     81715
     81711     81712     81711     81713     81711     81714     81715     81716
     81717     81721     81717     81718     81717     81719     81717     81720
     81721     81722     81723     81727     81723     81724     81723     81725
     81723     81726     81727     81728     81729     81733     81729     81730
     81729     81731     81729     81732     81733     81734     81735     81739
     81735     81736     81735     81737     81735     81738     81739     81740
     81741     81745     81741     81742     81741     81743     81741     81744
     81745     81746     81747     81751     81747     81748     81747     81749
     81747     81750     81751     81752     81753     81757     81753     81754
     81753     81755     81753     81756     81757     81758     81759     81763
     81759     81760     81759     81761     81759     81762     81763     81764
     81765     81769     81765     81766     81765     81767     81765     81768
     81769     81770     81771     81775     81771     81772     81771     81773
     81771     81774     81775     81776     81777     81781     81777     81778
     81777     81779     81777     81780     81781     81782     81783     81787
     81783     81784     81783     81785     81783     81786     81787     81788
     81789     81793     81789     81790     81789     81791     81789     81792
     81793     81794     81795     81799     81795     81796     81795     81797
     81795     81798     81799     81800     81801     81805     81801     81802
     81801     81803     81801     81804     81805     81806     81807     81811
     81807     81808     81807     81809     81807     81810     81811     81812
     81813     81817     81813     81814     81813     81815     81813     81816
     81817     81818     81819     81823     81819     81820     81819     81821
     81819     81822     81823     81824     81825     81829     81825     81826
     81825     81827     81825     81828     81829     81830     81831     81835
     81831     81832     81831     81833     81831     81834     81835     81836
     81837     81841     81837     81838     81837     81839     81837     81840
     81841     81842     81843     81847     81843     81844     81843     81845
     81843     81846     81847     81848     81849     81853     81849     81850
     81849     81851     81849     81852     81853     81854     81855     81859
     81855     81856     81855     81857     81855     81858     81859     81860
     81861     81865     81861     81862     81861     81863     81861     81864
     81865     81866     81867     81871     81867     81868     81867     81869
     81867     81870     81871     81872     81873     81877     81873     81874
     81873     81875     81873     81876     81877     81878     81879     81883
     81879     81880     81879     81881     81879     81882     81883     81884
     81885     81889     81885     81886     81885     81887     81885     81888
     81889     81890     81891     81895     81891     81892     81891     81893
     81891     81894     81895     81896     81897     81901     81897     81898
     81897     81899     81897     81900     81901     81902     81903     81907
     81903     81904     81903     81905     81903     81906     81907     81908
     81909     81913     81909     81910     81909     81911     81909     81912
     81913     81914     81915     81919     81915     81916     81915     81917
     81915     81918     81919     81920     81921     81925     81921     81922
     81921     81923     81921     81924     81925     81926     81927     81931
     81927     81928     81927     81929     81927     81930     81931     81932
     81933     81937     81933     81934     81933     81935     81933     81936
     81937     81938     81939     81943     81939     81940     81939     81941
     81939     81942     81943     81944     81945     81949     81945     81946
     81945     81947     81945     81948     81949     81950     81951     81955
     81951     81952     81951     81953     81951     81954     81955     81956
     81957     81961     81957     81958     81957     81959     81957     81960
     81961     81962     81963     81967     81963     81964     81963     81965
     81963     81966     81967     81968     81969     81973     81969     81970
     81969     81971     81969     81972     81973     81974     81975     81979
     81975     81976     81975     81977     81975     81978     81979     81980
     81981     81985     81981     81982     81981     81983     81981     81984
     81985     81986     81987     81991     81987     81988     81987     81989
     81987     81990     81991     81992     81993     81997     81993     81994
     81993     81995     81993     81996     81997     81998     81999     82003
     81999     82000     81999     82001     81999     82002     82003     82004
     82005     82009     82005     82006     82005     82007     82005     82008
     82009     82010     82011     82015     82011     82012     82011     82013
     82011     82014     82015     82016     82017     82021     82017     82018
     82017     82019     82017     82020     82021     82022     82023     82027
     82023     82024     82023     82025     82023     82026     82027     82028
     82029     82033     82029     82030     82029     82031     82029     82032
     82033     82034     82035     82039     82035     82036     82035     82037
     82035     82038     82039     82040     82041     82045     82041     82042
     82041     82043     82041     82044     82045     82046     82047     82051
     82047     82048     82047     82049     82047     82050     82051     82052
     82053     82057     82053     82054     82053     82055     82053     82056
     82057     82058     82059     82063     82059     82060     82059     82061
     82059     82062     82063     82064     82065     82069     82065     82066
     82065     82067     82065     82068     82069     82070     82071     82075
     82071     82072     82071     82073     82071     82074     82075     82076
     82077     82081     82077     82078     82077     82079     82077     82080
     82081     82082     82083     82087     82083     82084     82083     82085
     82083     82086     82087     82088     82089     82093     82089     82090
     82089     82091     82089     82092     82093     82094     82095     82099
     82095     82096     82095     82097     82095     82098     82099     82100
     82101     82105     82101     82102     82101     82103     82101     82104
     82105     82106     82107     82111     82107     82108     82107     82109
     82107     82110     82111     82112     82113     82117     82113     82114
     82113     82115     82113     82116     82117     82118     82119     82123
     82119     82120     82119     82121     82119     82122     82123     82124
     82125     82129     82125     82126     82125     82127     82125     82128
     82129     82130     82131     82135     82131     82132     82131     82133
     82131     82134     82135     82136     82137     82141     82137     82138
     82137     82139     82137     82140     82141     82142     82143     82147
     82143     82144     82143     82145     82143     82146     82147     82148
     82149     82153     82149     82150     82149     82151     82149     82152
     82153     82154     82155     82159     82155     82156     82155     82157
     82155     82158     82159     82160     82161     82165     82161     82162
     82161     82163     82161     82164     82165     82166     82167     82171
     82167     82168     82167     82169     82167     82170     82171     82172
     82173     82177     82173     82174     82173     82175     82173     82176
     82177     82178     82179     82183     82179     82180     82179     82181
     82179     82182     82183     82184     82185     82189     82185     82186
     82185     82187     82185     82188     82189     82190     82191     82195
     82191     82192     82191     82193     82191     82194     82195     82196
     82197     82201     82197     82198     82197     82199     82197     82200
     82201     82202     82203     82207     82203     82204     82203     82205
     82203     82206     82207     82208     82209     82213     82209     82210
     82209     82211     82209     82212     82213     82214     82215     82219
     82215     82216     82215     82217     82215     82218     82219     82220
     82221     82225     82221     82222     82221     82223     82221     82224
     82225     82226     82227     82231     82227     82228     82227     82229
     82227     82230     82231     82232     82233     82237     82233     82234
     82233     82235     82233     82236     82237     82238     82239     82243
     82239     82240     82239     82241     82239     82242     82243     82244
     82245     82249     82245     82246     82245     82247     82245     82248
     82249     82250     82251     82255     82251     82252     82251     82253
     82251     82254     82255     82256     82257     82261     82257     82258
     82257     82259     82257     82260     82261     82262     82263     82267
     82263     82264     82263     82265     82263     82266     82267     82268
     82269     82273     82269     82270     82269     82271     82269     82272
     82273     82274     82275     82279     82275     82276     82275     82277
     82275     82278     82279     82280     82281     82285     82281     82282
     82281     82283     82281     82284     82285     82286     82287     82291
     82287     82288     82287     82289     82287     82290     82291     82292
     82293     82297     82293     82294     82293     82295     82293     82296
     82297     82298     82299     82303     82299     82300     82299     82301
     82299     82302     82303     82304     82305     82309     82305     82306
     82305     82307     82305     82308     82309     82310     82311     82315
     82311     82312     82311     82313     82311     82314     82315     82316
     82317     82321     82317     82318     82317     82319     82317     82320
     82321     82322     82323     82327     82323     82324     82323     82325
     82323     82326     82327     82328     82329     82333     82329     82330
     82329     82331     82329     82332     82333     82334     82335     82339
     82335     82336     82335     82337     82335     82338     82339     82340
     82341     82345     82341     82342     82341     82343     82341     82344
     82345     82346     82347     82351     82347     82348     82347     82349
     82347     82350     82351     82352     82353     82357     82353     82354
     82353     82355     82353     82356     82357     82358     82359     82363
     82359     82360     82359     82361     82359     82362     82363     82364
     82365     82369     82365     82366     82365     82367     82365     82368
     82369     82370     82371     82375     82371     82372     82371     82373
     82371     82374     82375     82376     82377     82381     82377     82378
     82377     82379     82377     82380     82381     82382     82383     82387
     82383     82384     82383     82385     82383     82386     82387     82388
     82389     82393     82389     82390     82389     82391     82389     82392
     82393     82394     82395     82399     82395     82396     82395     82397
     82395     82398     82399     82400     82401     82405     82401     82402
     82401     82403     82401     82404     82405     82406     82407     82411
     82407     82408     82407     82409     82407     82410     82411     82412
     82413     82417     82413     82414     82413     82415     82413     82416
     82417     82418     82419     82423     82419     82420     82419     82421
     82419     82422     82423     82424     82425     82429     82425     82426
     82425     82427     82425     82428     82429     82430     82431     82435
     82431     82432     82431     82433     82431     82434     82435     82436
     82437     82441     82437     82438     82437     82439     82437     82440
     82441     82442     82443     82447     82443     82444     82443     82445
     82443     82446     82447     82448     82449     82453     82449     82450
     82449     82451     82449     82452     82453     82454     82455     82459
     82455     82456     82455     82457     82455     82458     82459     82460
     82461     82465     82461     82462     82461     82463     82461     82464
     82465     82466     82467     82471     82467     82468     82467     82469
     82467     82470     82471     82472     82473     82477     82473     82474
     82473     82475     82473     82476     82477     82478     82479     82483
     82479     82480     82479     82481     82479     82482     82483     82484
     82485     82489     82485     82486     82485     82487     82485     82488
     82489     82490     82491     82495     82491     82492     82491     82493
     82491     82494     82495     82496     82497     82501     82497     82498
     82497     82499     82497     82500     82501     82502     82503     82507
     82503     82504     82503     82505     82503     82506     82507     82508
     82509     82513     82509     82510     82509     82511     82509     82512
     82513     82514     82515     82519     82515     82516     82515     82517
     82515     82518     82519     82520     82521     82525     82521     82522
     82521     82523     82521     82524     82525     82526     82527     82531
     82527     82528     82527     82529     82527     82530     82531     82532
     82533     82537     82533     82534     82533     82535     82533     82536
     82537     82538     82539     82543     82539     82540     82539     82541
     82539     82542     82543     82544     82545     82549     82545     82546
     82545     82547     82545     82548     82549     82550     82551     82555
     82551     82552     82551     82553     82551     82554     82555     82556
     82557     82561     82557     82558     82557     82559     82557     82560
     82561     82562     82563     82567     82563     82564     82563     82565
     82563     82566     82567     82568     82569     82573     82569     82570
     82569     82571     82569     82572     82573     82574     82575     82579
     82575     82576     82575     82577     82575     82578     82579     82580
     82581     82585     82581     82582     82581     82583     82581     82584
     82585     82586     82587     82591     82587     82588     82587     82589
     82587     82590     82591     82592     82593     82597     82593     82594
     82593     82595     82593     82596     82597     82598     82599     82603
     82599     82600     82599     82601     82599     82602     82603     82604
     82605     82609     82605     82606     82605     82607     82605     82608
     82609     82610     82611     82615     82611     82612     82611     82613
     82611     82614     82615     82616     82617     82621     82617     82618
     82617     82619     82617     82620     82621     82622     82623     82627
     82623     82624     82623     82625     82623     82626     82627     82628
     82629     82633     82629     82630     82629     82631     82629     82632
     82633     82634     82635     82639     82635     82636     82635     82637
     82635     82638     82639     82640     82641     82645     82641     82642
     82641     82643     82641     82644     82645     82646     82647     82651
     82647     82648     82647     82649     82647     82650     82651     82652
     82653     82657     82653     82654     82653     82655     82653     82656
     82657     82658     82659     82663     82659     82660     82659     82661
     82659     82662     82663     82664     82665     82669     82665     82666
     82665     82667     82665     82668     82669     82670     82671     82675
     82671     82672     82671     82673     82671     82674     82675     82676
     82677     82681     82677     82678     82677     82679     82677     82680
     82681     82682     82683     82687     82683     82684     82683     82685
     82683     82686     82687     82688     82689     82693     82689     82690
     82689     82691     82689     82692     82693     82694     82695     82699
     82695     82696     82695     82697     82695     82698     82699     82700
     82701     82705     82701     82702     82701     82703     82701     82704
     82705     82706     82707     82711     82707     82708     82707     82709
     82707     82710     82711     82712     82713     82717     82713     82714
     82713     82715     82713     82716     82717     82718     82719     82723
     82719     82720     82719     82721     82719     82722     82723     82724
     82725     82729     82725     82726     82725     82727     82725     82728
     82729     82730     82731     82735     82731     82732     82731     82733
     82731     82734     82735     82736     82737     82741     82737     82738
     82737     82739     82737     82740     82741     82742     82743     82747
     82743     82744     82743     82745     82743     82746     82747     82748
     82749     82753     82749     82750     82749     82751     82749     82752
     82753     82754     82755     82759     82755     82756     82755     82757
     82755     82758     82759     82760     82761     82765     82761     82762
     82761     82763     82761     82764     82765     82766     82767     82771
     82767     82768     82767     82769     82767     82770     82771     82772
     82773     82777     82773     82774     82773     82775     82773     82776
     82777     82778     82779     82783     82779     82780     82779     82781
     82779     82782     82783     82784     82785     82789     82785     82786
     82785     82787     82785     82788     82789     82790     82791     82795
     82791     82792     82791     82793     82791     82794     82795     82796
     82797     82801     82797     82798     82797     82799     82797     82800
     82801     82802     82803     82807     82803     82804     82803     82805
     82803     82806     82807     82808     82809     82813     82809     82810
     82809     82811     82809     82812     82813     82814     82815     82819
     82815     82816     82815     82817     82815     82818     82819     82820
     82821     82825     82821     82822     82821     82823     82821     82824
     82825     82826     82827     82831     82827     82828     82827     82829
     82827     82830     82831     82832     82833     82837     82833     82834
     82833     82835     82833     82836     82837     82838     82839     82843
     82839     82840     82839     82841     82839     82842     82843     82844
     82845     82849     82845     82846     82845     82847     82845     82848
     82849     82850     82851     82855     82851     82852     82851     82853
     82851     82854     82855     82856     82857     82861     82857     82858
     82857     82859     82857     82860     82861     82862     82863     82867
     82863     82864     82863     82865     82863     82866     82867     82868
     82869     82873     82869     82870     82869     82871     82869     82872
     82873     82874     82875     82879     82875     82876     82875     82877
     82875     82878     82879     82880     82881     82885     82881     82882
     82881     82883     82881     82884     82885     82886     82887     82891
     82887     82888     82887     82889     82887     82890     82891     82892
     82893     82897     82893     82894     82893     82895     82893     82896
     82897     82898     82899     82903     82899     82900     82899     82901
     82899     82902     82903     82904     82905     82909     82905     82906
     82905     82907     82905     82908     82909     82910

  104486 !NTHETA: angles
         1         2         3         1         6         5         1         6         7
         2         1         6         2         3         4         3         4         7
         3         4       181         4         7         6         4         7         8
         4       181       182         4       181       186         5         6         7
         5        10         9         5        10        11         6         5        10
         6         7         8         7         4       181         7         8        11
         7         8       185         8        11        10         8        11        12
         8       185       186         8       185       190         9        10        11
         9        14        13         9        14        15        10         9        14
        10        11        12        11         8       185        11        12        15
        11        12       189        12        15        14        12        15        16
        12       189       194        12       189       190        13        14        15
        13        18        17        13        18        19        14        13        18
        14        15        16        15        12       189        15        16        19
        15        16       193        16        19        18        16        19        20
        16       193       198        16       193       194        17        18        19
        17        22        21        17        22        23        18        17        22
        18        19        20        19        16       193        19        20        23
        19        20       197        20        23        22        20        23        24
        20       197       202        20       197       198        21        22        23
        21        26        25        21        26        27        22        21        26
        22        23        24        23        20       197        23        24        27
        23        24       201        24        27        26        24        27        28
        24       201       202        24       201       206        25        26        27
        25        30        29        25        30        31        26        25        30
        26        27        28        27        24       201        27        28        31
        27        28       205        28        31        30        28        31        32
        28       205       206        28       205       210        29        30        31
        29        34        33        29        34        35        30        29        34
        30        31        32        31        28       205        31        32        35
        31        32       209        32        35        34        32        35        36
        32       209       214        32       209       210        33        34        35
        33        38        37        33        38        39        34        33        38
        34        35        36        35        32       209        35        36        39
        35        36       213        36        39        38        36        39        40
        36       213       218        36       213       214        37        38        39
        37        42        41        37        42        43        38        37        42
        38        39        40        39        36       213        39        40        43
        39        40       217        40        43        42        40        43        44
        40       217       222        40       217       218        41        42        43
        41        46        45        41        46        47        42        41        46
        42        43        44        43        40       217        43        44        47
        43        44       221        44        47        46        44        47        48
        44       221       222        44       221       226        45        46        47
        45        50        49        45        50        51        46        45        50
        46        47        48        47        44       221        47        48        51
        47        48       225        48        51        50        48        51        52
        48       225       226        48       225       230        49        50        51
        49        54        53        49        54        55        50        49        54
        50        51        52        51        48       225        51        52        55
        51        52       229        52        55        54        52        55        56
        52       229       234        52       229       230        53        54        55
        53        58        57        53        58        59        54        53        58
        54        55        56        55        52       229        55        56        59
        55        56       233        56        59        58        56        59        60
        56       233       238        56       233       234        57        58        59
        57        62        61        57        62        63        58        57        62
        58        59        60        59        56       233        59        60        63
        59        60       237        60        63        62        60        63        64
        60       237       242        60       237       238        61        62        63
        61        66        65        61        66        67        62        61        66
        62        63        64        63        60       237        63        64        67
        63        64       241        64        67        66        64        67        68
        64       241       242        64       241       246        65        66        67
        65        70        69        65        70        71        66        65        70
        66        67        68        67        64       241        67        68        71
        67        68       245        68        71        70        68        71        72
        68       245       246        68       245       250        69        70        71
        69        74        73        69        74        75        70        69        74
        70        71        72        71        68       245        71        72        75
        71        72       249        72        75        74        72        75        76
        72       249       254        72       249       250        73        74        75
        73        78        77        73        78        79        74        73        78
        74        75        76        75        72       249        75        76        79
        75        76       253        76        79        78        76        79        80
        76       253       258        76       253       254        77        78        79
        77        82        81        77        82        83        78        77        82
        78        79        80        79        76       253        79        80        83
        79        80       257        80        83        82        80        83        84
        80       257       262        80       257       258        81        82        83
        81        86        85        81        86        87        82        81        86
        82        83        84        83        80       257        83        84        87
        83        84       261        84        87        86        84        87        88
        84       261       262        84       261       266        85        86        87
        85        90        89        85        90        91        86        85        90
        86        87        88        87        84       261        87        88        91
        87        88       265        88        91        90        88        91        92
        88       265       266        88       265       270        89        90        91
        89        94        93        89        94        95        90        89        94
        90        91        92        91        88       265        91        92        95
        91        92       269        92        95        94        92        95        96
        92       269       274        92       269       270        93        94        95
        93        98        97        93        98        99        94        93        98
        94        95        96        95        92       269        95        96        99
        95        96       273        96        99        98        96        99       100
        96       273       278        96       273       274        97        98        99
        97       102       101        97       102       103        98        97       102
        98        99       100        99        96       273        99       100       103
        99       100       277       100       103       102       100       103       104
       100       277       282       100       277       278       101       102       103
       101       106       105       101       106       107       102       101       106
       102       103       104       103       100       277       103       104       107
       103       104       281       104       107       106       104       107       108
       104       281       282       104       281       286       105       106       107
       105       110       109       105       110       111       106       105       110
       106       107       108       107       104       281       107       108       111
       107       108       285       108       111       110       108       111       112
       108       285       286       108       285       290       109       110       111
       109       114       113       109       114       115       110       109       114
       110       111       112       111       108       285       111       112       115
       111       112       289       112       115       114       112       115       116
       112       289       294       112       289       290       113       114       115
       113       118       117       113       118       119       114       113       118
       114       115       116       115       112       289       115       116       119
       115       116       293       116       119       118       116       119       120
       116       293       298       116       293       294       117       118       119
       117       122       121       117       122       123       118       117       122
       118       119       120       119       116       293       119       120       123
       119       120       297       120       123       122       120       123       124
       120       297       302       120       297       298       121       122       123
       121       126       125       121       126       127       122       121       126
       122       123       124       123       120       297       123       124       127
       123       124       301       124       127       126       124       127       128
       124       301       302       124       301       306       125       126       127
       125       130       129       125       130       131       126       125       130
       126       127       128       127       124       301       127       128       131
       127       128       305       128       131       130       128       131       132
       128       305       306       128       305       310       129       130       131
       129       134       133       129       134       135       130       129       134
       130       131       132       131       128       305       131       132       135
       131       132       309       132       135       134       132       135       136
       132       309       314       132       309       310       133       134       135
       133       138       137       133       138       139       134       133       138
       134       135       136       135       132       309       135       136       139
       135       136       313       136       139       138       136       139       140
       136       313       318       136       313       314       137       138       139
       137       142       141       137       142       143       138       137       142
       138       139       140       139       136       313       139       140       143
       139       140       317       140       143       142       140       143       144
       140       317       322       140       317       318       141       142       143
       141       146       145       141       146       147       142       141       146
       142       143       144       143       140       317       143       144       147
       143       144       321       144       147       146       144       147       148
       144       321       322       144       321       326       145       146       147
       145       150       149       145       150       151       146       145       150
       146       147       148       147       144       321       147       148       151
       147       148       325       148       151       150       148       151       152
       148       325       326       148       325       330       149       150       151
       149       154       153       149       154       155       150       149       154
       150       151       152       151       148       325       151       152       155
       151       152       329       152       155       154       152       155       156
       152       329       334       152       329       330       153       154       155
       153       158       157       153       158       159       154       153       158
       154       155       156       155       152       329       155       156       159
       155       156       333       156       159       158       156       159       160
       156       333       338       156       333       334       157       158       159
       157       162       161       157       162       163       158       157       162
       158       159       160       159       156       333       159       160       163
       159       160       337       160       163       162       160       163       164
       160       337       342       160       337       338       161       162       163
       161       166       165       161       166       167       162       161       166
       162       163       164       163       160       337       163       164       167
       163       164       341       164       167       166       164       167       168
       164       341       342       164       341       346       165       166       167
       165       170       169       165       170       171       166       165       170
       166       167       168       167       164       341       167       168       171
       167       168       345       168       171       170       168       171       172
       168       345       346       168       345       350       169       170       171
       169       174       173       169       174       175       170       169       174
       170       171       172       171       168       345       171       172       175
       171       172       349       172       175       174       172       175       176
       172       349       354       172       349       350       173       174       175
       173       178       177       173       178       179       174       173       178
       174       175       176       175       172       349       175       176       179
       175       176       353       176       179       178       176       179       180
       176       353       354       176       353       358       177       178       179
       178       179       180       179       176       353       179       180       357
       180       357       358       181       182       183       181       186       185
       181       186       187       182       181       186       182       183       184
       183       184       187       183       184       361       184       187       186
       184       187       188       184       361       362       184       361       366
       185       186       187       185       190       189       185       190       191
       186       185       190       186       187       188       187       184       361
       187       188       191       187       188       365       188       191       190
       188       191       192       188       365       366       188       365       370
       189       190       191       189       194       193       189       194       195
       190       189       194       190       191       192       191       188       365
       191       192       195       191       192       369       192       195       194
       192       195       196       192       369       374       192       369       370
       193       194       195       193       198       197       193       198       199
       194       193       198       194       195       196       195       192       369
       195       196       199       195       196       373       196       199       198
       196       199       200       196       373       374       196       373       378
       197       198       199       197       202       201       197       202       203
       198       197       202       198       199       200       199       196       373
       199       200       203       199       200       377       200       203       202
       200       203       204       200       377       382       200       377       378
       201       202       203       201       206       205       201       206       207
       202       201       206       202       203       204       203       200       377
       203       204       207       203       204       381       204       207       206
       204       207       208       204       381       382       204       381       386
       205       206       207       205       210       209       205       210       211
       206       205       210       206       207       208       207       204       381
       207       208       211       207       208       385       208       211       210
       208       211       212       208       385       386       208       385       390
       209       210       211       209       214       213       209       214       215
       210       209       214       210       211       212       211       208       385
       211       212       215       211       212       389       212       215       214
       212       215       216       212       389       394       212       389       390
       213       214       215       213       218       217       213       218       219
       214       213       218       214       215       216       215       212       389
       215       216       219       215       216       393       216       219       218
       216       219       220       216       393       398       216       393       394
       217       218       219       217       222       221       217       222       223
       218       217       222       218       219       220       219       216       393
       219       220       223       219       220       397       220       223       222
       220       223       224       220       397       402       220       397       398
       221       222       223       221       226       225       221       226       227
       222       221       226       222       223       224       223       220       397
       223       224       227       223       224       401       224       227       226
       224       227       228       224       401       402       224       401       406
       225       226       227       225       230       229       225       230       231
       226       225       230       226       227       228       227       224       401
       227       228       231       227       228       405       228       231       230
       228       231       232       228       405       406       228       405       410
       229       230       231       229       234       233       229       234       235
       230       229       234       230       231       232       231       228       405
       231       232       235       231       232       409       232       235       234
       232       235       236       232       409       414       232       409       410
       233       234       235       233       238       237       233       238       239
       234       233       238       234       235       236       235       232       409
       235       236       239       235       236       413       236       239       238
       236       239       240       236       413       418       236       413       414
       237       238       239       237       242       241       237       242       243
       238       237       242       238       239       240       239       236       413
       239       240       243       239       240       417       240       243       242
       240       243       244       240       417       422       240       417       418
       241       242       243       241       246       245       241       246       247
       242       241       246       242       243       244       243       240       417
       243       244       247       243       244       421       244       247       246
       244       247       248       244       421       422       244       421       426
       245       246       247       245       250       249       245       250       251
       246       245       250       246       247       248       247       244       421
       247       248       251       247       248       425       248       251       250
       248       251       252       248       425       426       248       425       430
       249       250       251       249       254       253       249       254       255
       250       249       254       250       251       252       251       248       425
       251       252       255       251       252       429       252       255       254
       252       255       256       252       429       434       252       429       430
       253       254       255       253       258       257       253       258       259
       254       253       258       254       255       256       255       252       429
       255       256       259       255       256       433       256       259       258
       256       259       260       256       433       438       256       433       434
       257       258       259       257       262       261       257       262       263
       258       257       262       258       259       260       259       256       433
       259       260       263       259       260       437       260       263       262
       260       263       264       260       437       442       260       437       438
       261       262       263       261       266       265       261       266       267
       262       261       266       262       263       264       263       260       437
       263       264       267       263       264       441       264       267       266
       264       267       268       264       441       442       264       441       446
       265       266       267       265       270       269       265       270       271
       266       265       270       266       267       268       267       264       441
       267       268       271       267       268       445       268       271       270
       268       271       272       268       445       446       268       445       450
       269       270       271       269       274       273       269       274       275
       270       269       274       270       271       272       271       268       445
       271       272       275       271       272       449       272       275       274
       272       275       276       272       449       454       272       449       450
       273       274       275       273       278       277       273       278       279
       274       273       278       274       275       276       275       272       449
       275       276       279       275       276       453       276       279       278
       276       279       280       276       453       458       276       453       454
       277       278       279       277       282       281       277       282       283
       278       277       282       278       279       280       279       276       453
       279       280       283       279       280       457       280       283       282
       280       283       284       280       457       462       280       457       458
       281       282       283       281       286       285       281       286       287
       282       281       286       282       283       284       283       280       457
       283       284       287       283       284       461       284       287       286
       284       287       288       284       461       462       284       461       466
       285       286       287       285       290       289       285       290       291
       286       285       290       286       287       288       287       284       461
       287       288       291       287       288       465       288       291       290
       288       291       292       288       465       466       288       465       470
       289       290       291       289       294       293       289       294       295
       290       289       294       290       291       292       291       288       465
       291       292       295       291       292       469       292       295       294
       292       295       296       292       469       474       292       469       470
       293       294       295       293       298       297       293       298       299
       294       293       298       294       295       296       295       292       469
       295       296       299       295       296       473       296       299       298
       296       299       300       296       473       478       296       473       474
       297       298       299       297       302       301       297       302       303
       298       297       302       298       299       300       299       296       473
       299       300       303       299       300       477       300       303       302
       300       303       304       300       477       482       300       477       478
       301       302       303       301       306       305       301       306       307
       302       301       306       302       303       304       303       300       477
       303       304       307       303       304       481       304       307       306
       304       307       308       304       481       482       304       481       486
       305       306       307       305       310       309       305       310       311
       306       305       310       306       307       308       307       304       481
       307       308       311       307       308       485       308       311       310
       308       311       312       308       485       486       308       485       490
       309       310       311       309       314       313       309       314       315
       310       309       314       310       311       312       311       308       485
       311       312       315       311       312       489       312       315       314
       312       315       316       312       489       494       312       489       490
       313       314       315       313       318       317       313       318       319
       314       313       318       314       315       316       315       312       489
       315       316       319       315       316       493       316       319       318
       316       319       320       316       493       498       316       493       494
       317       318       319       317       322       321       317       322       323
       318       317       322       318       319       320       319       316       493
       319       320       323       319       320       497       320       323       322
       320       323       324       320       497       502       320       497       498
       321       322       323       321       326       325       321       326       327
       322       321       326       322       323       324       323       320       497
       323       324       327       323       324       501       324       327       326
       324       327       328       324       501       502       324       501       506
       325       326       327       325       330       329       325       330       331
       326       325       330       326       327       328       327       324       501
       327       328       331       327       328       505       328       331       330
       328       331       332       328       505       506       328       505       510
       329       330       331       329       334       333       329       334       335
       330       329       334       330       331       332       331       328       505
       331       332       335       331       332       509       332       335       334
       332       335       336       332       509       514       332       509       510
       333       334       335       333       338       337       333       338       339
       334       333       338       334       335       336       335       332       509
       335       336       339       335       336       513       336       339       338
       336       339       340       336       513       518       336       513       514
       337       338       339       337       342       341       337       342       343
       338       337       342       338       339       340       339       336       513
       339       340       343       339       340       517       340       343       342
       340       343       344       340       517       522       340       517       518
       341       342       343       341       346       345       341       346       347
       342       341       346       342       343       344       343       340       517
       343       344       347       343       344       521       344       347       346
       344       347       348       344       521       522       344       521       526
       345       346       347       345       350       349       345       350       351
       346       345       350       346       347       348       347       344       521
       347       348       351       347       348       525       348       351       350
       348       351       352       348       525       526       348       525       530
       349       350       351       349       354       353       349       354       355
       350       349       354       350       351       352       351       348       525
       351       352       355       351       352       529       352       355       354
       352       355       356       352       529       534       352       529       530
       353       354       355       353       358       357       353       358       359
       354       353       358       354       355       356       355       352       529
       355       356       359       355       356       533       356       359       358
       356       359       360       356       533       538       356       533       534
       357       358       359       358       359       360       359       356       533
       359       360       537       360       537       538       361       362       363
       361       366       365       361       366       367       362       361       366
       362       363       364       363       364       367       363       364       541
       364       367       366       364       367       368       364       541       542
       364       541       546       365       366       367       365       370       369
       365       370       371       366       365       370       366       367       368
       367       364       541       367       368       371       367       368       545
       368       371       370       368       371       372       368       545       546
       368       545       550       369       370       371       369       374       373
       369       374       375       370       369       374       370       371       372
       371       368       545       371       372       375       371       372       549
       372       375       374       372       375       376       372       549       554
       372       549       550       373       374       375       373       378       377
       373       378       379       374       373       378       374       375       376
       375       372       549       375       376       379       375       376       553
       376       379       378       376       379       380       376       553       558
       376       553       554       377       378       379       377       382       381
       377       382       383       378       377       382       378       379       380
       379       376       553       379       380       383       379       380       557
       380       383       382       380       383       384       380       557       562
       380       557       558       381       382       383       381       386       385
       381       386       387       382       381       386       382       383       384
       383       380       557       383       384       387       383       384       561
       384       387       386       384       387       388       384       561       562
       384       561       566       385       386       387       385       390       389
       385       390       391       386       385       390       386       387       388
       387       384       561       387       388       391       387       388       565
       388       391       390       388       391       392       388       565       566
       388       565       570       389       390       391       389       394       393
       389       394       395       390       389       394       390       391       392
       391       388       565       391       392       395       391       392       569
       392       395       394       392       395       396       392       569       574
       392       569       570       393       394       395       393       398       397
       393       398       399       394       393       398       394       395       396
       395       392       569       395       396       399       395       396       573
       396       399       398       396       399       400       396       573       578
       396       573       574       397       398       399       397       402       401
       397       402       403       398       397       402       398       399       400
       399       396       573       399       400       403       399       400       577
       400       403       402       400       403       404       400       577       582
       400       577       578       401       402       403       401       406       405
       401       406       407       402       401       406       402       403       404
       403       400       577       403       404       407       403       404       581
       404       407       406       404       407       408       404       581       582
       404       581       586       405       406       407       405       410       409
       405       410       411       406       405       410       406       407       408
       407       404       581       407       408       411       407       408       585
       408       411       410       408       411       412       408       585       586
       408       585       590       409       410       411       409       414       413
       409       414       415       410       409       414       410       411       412
       411       408       585       411       412       415       411       412       589
       412       415       414       412       415       416       412       589       594
       412       589       590       413       414       415       413       418       417
       413       418       419       414       413       418       414       415       416
       415       412       589       415       416       419       415       416       593
       416       419       418       416       419       420       416       593       594
       416       593       598       417       418       419       417       422       421
       417       422       423       418       417       422       418       419       420
       419       416       593       419       420       423       419       420       597
       420       423       422       420       423       424       420       597       602
       420       597       598       421       422       423       421       426       425
       421       426       427       422       421       426       422       423       424
       423       420       597       423       424       427       423       424       601
       424       427       426       424       427       428       424       601       602
       424       601       606       425       426       427       425       430       429
       425       430       431       426       425       430       426       427       428
       427       424       601       427       428       431       427       428       605
       428       431       430       428       431       432       428       605       606
       428       605       610       429       430       431       429       434       433
       429       434       435       430       429       434       430       431       432
       431       428       605       431       432       435       431       432       609
       432       435       434       432       435       436       432       609       614
       432       609       610       433       434       435       433       438       437
       433       438       439       434       433       438       434       435       436
       435       432       609       435       436       439       435       436       613
       436       439       438       436       439       440       436       613       618
       436       613       614       437       438       439       437       442       441
       437       442       443       438       437       442       438       439       440
       439       436       613       439       440       443       439       440       617
       440       443       442       440       443       444       440       617       622
       440       617       618       441       442       443       441       446       445
       441       446       447       442       441       446       442       443       444
       443       440       617       443       444       447       443       444       621
       444       447       446       444       447       448       444       621       622
       444       621       626       445       446       447       445       450       449
       445       450       451       446       445       450       446       447       448
       447       444       621       447       448       451       447       448       625
       448       451       450       448       451       452       448       625       626
       448       625       630       449       450       451       449       454       453
       449       454       455       450       449       454       450       451       452
       451       448       625       451       452       455       451       452       629
       452       455       454       452       455       456       452       629       634
       452       629       630       453       454       455       453       458       457
       453       458       459       454       453       458       454       455       456
       455       452       629       455       456       459       455       456       633
       456       459       458       456       459       460       456       633       638
       456       633       634       457       458       459       457       462       461
       457       462       463       458       457       462       458       459       460
       459       456       633       459       460       463       459       460       637
       460       463       462       460       463       464       460       637       642
       460       637       638       461       462       463       461       466       465
       461       466       467       462       461       466       462       463       464
       463       460       637       463       464       467       463       464       641
       464       467       466       464       467       468       464       641       642
       464       641       646       465       466       467       465       470       469
       465       470       471       466       465       470       466       467       468
       467       464       641       467       468       471       467       468       645
       468       471       470       468       471       472       468       645       646
       468       645       650       469       470       471       469       474       473
       469       474       475       470       469       474       470       471       472
       471       468       645       471       472       475       471       472       649
       472       475       474       472       475       476       472       649       654
       472       649       650       473       474       475       473       478       477
       473       478       479       474       473       478       474       475       476
       475       472       649       475       476       479       475       476       653
       476       479       478       476       479       480       476       653       658
       476       653       654       477       478       479       477       482       481
       477       482       483       478       477       482       478       479       480
       479       476       653       479       480       483       479       480       657
       480       483       482       480       483       484       480       657       662
       480       657       658       481       482       483       481       486       485
       481       486       487       482       481       486       482       483       484
       483       480       657       483       484       487       483       484       661
       484       487       486       484       487       488       484       661       662
       484       661       666       485       486       487       485       490       489
       485       490       491       486       485       490       486       487       488
       487       484       661       487       488       491       487       488       665
       488       491       490       488       491       492       488       665       666
       488       665       670       489       490       491       489       494       493
       489       494       495       490       489       494       490       491       492
       491       488       665       491       492       495       491       492       669
       492       495       494       492       495       496       492       669       674
       492       669       670       493       494       495       493       498       497
       493       498       499       494       493       498       494       495       496
       495       492       669       495       496       499       495       496       673
       496       499       498       496       499       500       496       673       678
       496       673       674       497       498       499       497       502       501
       497       502       503       498       497       502       498       499       500
       499       496       673       499       500       503       499       500       677
       500       503       502       500       503       504       500       677       682
       500       677       678       501       502       503       501       506       505
       501       506       507       502       501       506       502       503       504
       503       500       677       503       504       507       503       504       681
       504       507       506       504       507       508       504       681       682
       504       681       686       505       506       507       505       510       509
       505       510       511       506       505       510       506       507       508
       507       504       681       507       508       511       507       508       685
       508       511       510       508       511       512       508       685       686
       508       685       690       509       510       511       509       514       513
       509       514       515       510       509       514       510       511       512
       511       508       685       511       512       515       511       512       689
       512       515       514       512       515       516       512       689       694
       512       689       690       513       514       515       513       518       517
       513       518       519       514       513       518       514       515       516
       515       512       689       515       516       519       515       516       693
       516       519       518       516       519       520       516       693       698
       516       693       694       517       518       519       517       522       521
       517       522       523       518       517       522       518       519       520
       519       516       693       519       520       523       519       520       697
       520       523       522       520       523       524       520       697       702
       520       697       698       521       522       523       521       526       525
       521       526       527       522       521       526       522       523       524
       523       520       697       523       524       527       523       524       701
       524       527       526       524       527       528       524       701       702
       524       701       706       525       526       527       525       530       529
       525       530       531       526       525       530       526       527       528
       527       524       701       527       528       531       527       528       705
       528       531       530       528       531       532       528       705       706
       528       705       710       529       530       531       529       534       533
       529       534       535       530       529       534       530       531       532
       531       528       705       531       532       535       531       532       709
       532       535       534       532       535       536       532       709       714
       532       709       710       533       534       535       533       538       537
       533       538       539       534       533       538       534       535       536
       535       532       709       535       536       539       535       536       713
       536       539       538       536       539       540       536       713       718
       536       713       714       537       538       539       538       539       540
       539       536       713       539       540       717       540       717       718
       541       542       543       541       546       545       541       546       547
       542       541       546       542       543       544       543       544       547
       543       544       721       544       547       546       544       547       548
       544       721       722       544       721       726       545       546       547
       545       550       549       545       550       551       546       545       550
       546       547       548       547       544       721       547       548       551
       547       548       725       548       551       550       548       551       552
       548       725       726       548       725       730       549       550       551
       549       554       553       549       554       555       550       549       554
       550       551       552       551       548       725       551       552       555
       551       552       729       552       555       554       552       555       556
       552       729       734       552       729       730       553       554       555
       553       558       557       553       558       559       554       553       558
       554       555       556       555       552       729       555       556       559
       555       556       733       556       559       558       556       559       560
       556       733       738       556       733       734       557       558       559
       557       562       561       557       562       563       558       557       562
       558       559       560       559       556       733       559       560       563
       559       560       737       560       563       562       560       563       564
       560       737       742       560       737       738       561       562       563
       561       566       565       561       566       567       562       561       566
       562       563       564       563       560       737       563       564       567
       563       564       741       564       567       566       564       567       568
       564       741       742       564       741       746       565       566       567
       565       570       569       565       570       571       566       565       570
       566       567       568       567       564       741       567       568       571
       567       568       745       568       571       570       568       571       572
       568       745       746       568       745       750       569       570       571
       569       574       573       569       574       575       570       569       574
       570       571       572       571       568       745       571       572       575
       571       572       749       572       575       574       572       575       576
       572       749       754       572       749       750       573       574       575
       573       578       577       573       578       579       574       573       578
       574       575       576       575       572       749       575       576       579
       575       576       753       576       579       578       576       579       580
       576       753       758       576       753       754       577       578       579
       577       582       581       577       582       583       578       577       582
       578       579       580       579       576       753       579       580       583
       579       580       757       580       583       582       580       583       584
       580       757       762       580       757       758       581       582       583
       581       586       585       581       586       587       582       581       586
       582       583       584       583       580       757       583       584       587
       583       584       761       584       587       586       584       587       588
       584       761       762       584       761       766       585       586       587
       585       590       589       585       590       591       586       585       590
       586       587       588       587       584       761       587       588       591
       587       588       765       588       591       590       588       591       592
       588       765       766       588       765       770       589       590       591
       589       594       593       589       594       595       590       589       594
       590       591       592       591       588       765       591       592       595
       591       592       769       592       595       594       592       595       596
       592       769       774       592       769       770       593       594       595
       593       598       597       593       598       599       594       593       598
       594       595       596       595       592       769       595       596       599
       595       596       773       596       599       598       596       599       600
       596       773       778       596       773       774       597       598       599
       597       602       601       597       602       603       598       597       602
       598       599       600       599       596       773       599       600       603
       599       600       777       600       603       602       600       603       604
       600       777       782       600       777       778       601       602       603
       601       606       605       601       606       607       602       601       606
       602       603       604       603       600       777       603       604       607
       603       604       781       604       607       606       604       607       608
       604       781       782       604       781       786       605       606       607
       605       610       609       605       610       611       606       605       610
       606       607       608       607       604       781       607       608       611
       607       608       785       608       611       610       608       611       612
       608       785       786       608       785       790       609       610       611
       609       614       613       609       614       615       610       609       614
       610       611       612       611       608       785       611       612       615
       611       612       789       612       615       614       612       615       616
       612       789       794       612       789       790       613       614       615
       613       618       617       613       618       619       614       613       618
       614       615       616       615       612       789       615       616       619
       615       616       793       616       619       618       616       619       620
       616       793       798       616       793       794       617       618       619
       617       622       621       617       622       623       618       617       622
       618       619       620       619       616       793       619       620       623
       619       620       797       620       623       622       620       623       624
       620       797       802       620       797       798       621       622       623
       621       626       625       621       626       627       622       621       626
       622       623       624       623       620       797       623       624       627
       623       624       801       624       627       626       624       627       628
       624       801       802       624       801       806       625       626       627
       625       630       629       625       630       631       626       625       630
       626       627       628       627       624       801       627       628       631
       627       628       805       628       631       630       628       631       632
       628       805       806       628       805       810       629       630       631
       629       634       633       629       634       635       630       629       634
       630       631       632       631       628       805       631       632       635
       631       632       809       632       635       634       632       635       636
       632       809       814       632       809       810       633       634       635
       633       638       637       633       638       639       634       633       638
       634       635       636       635       632       809       635       636       639
       635       636       813       636       639       638       636       639       640
       636       813       814       636       813       818       637       638       639
       637       642       641       637       642       643       638       637       642
       638       639       640       639       636       813       639       640       643
       639       640       817       640       643       642       640       643       644
       640       817       822       640       817       818       641       642       643
       641       646       645       641       646       647       642       641       646
       642       643       644       643       640       817       643       644       647
       643       644       821       644       647       646       644       647       648
       644       821       822       644       821       826       645       646       647
       645       650       649       645       650       651       646       645       650
       646       647       648       647       644       821       647       648       651
       647       648       825       648       651       650       648       651       652
       648       825       826       648       825       830       649       650       651
       649       654       653       649       654       655       650       649       654
       650       651       652       651       648       825       651       652       655
       651       652       829       652       655       654       652       655       656
       652       829       834       652       829       830       653       654       655
       653       658       657       653       658       659       654       653       658
       654       655       656       655       652       829       655       656       659
       655       656       833       656       659       658       656       659       660
       656       833       838       656       833       834       657       658       659
       657       662       661       657       662       663       658       657       662
       658       659       660       659       656       833       659       660       663
       659       660       837       660       663       662       660       663       664
       660       837       842       660       837       838       661       662       663
       661       666       665       661       666       667       662       661       666
       662       663       664       663       660       837       663       664       667
       663       664       841       664       667       666       664       667       668
       664       841       842       664       841       846       665       666       667
       665       670       669       665       670       671       666       665       670
       666       667       668       667       664       841       667       668       671
       667       668       845       668       671       670       668       671       672
       668       845       846       668       845       850       669       670       671
       669       674       673       669       674       675       670       669       674
       670       671       672       671       668       845       671       672       675
       671       672       849       672       675       674       672       675       676
       672       849       854       672       849       850       673       674       675
       673       678       677       673       678       679       674       673       678
       674       675       676       675       672       849       675       676       679
       675       676       853       676       679       678       676       679       680
       676       853       858       676       853       854       677       678       679
       677       682       681       677       682       683       678       677       682
       678       679       680       679       676       853       679       680       683
       679       680       857       680       683       682       680       683       684
       680       857       862       680       857       858       681       682       683
       681       686       685       681       686       687       682       681       686
       682       683       684       683       680       857       683       684       687
       683       684       861       684       687       686       684       687       688
       684       861       862       684       861       866       685       686       687
       685       690       689       685       690       691       686       685       690
       686       687       688       687       684       861       687       688       691
       687       688       865       688       691       690       688       691       692
       688       865       866       688       865       870       689       690       691
       689       694       693       689       694       695       690       689       694
       690       691       692       691       688       865       691       692       695
       691       692       869       692       695       694       692       695       696
       692       869       874       692       869       870       693       694       695
       693       698       697       693       698       699       694       693       698
       694       695       696       695       692       869       695       696       699
       695       696       873       696       699       698       696       699       700
       696       873       878       696       873       874       697       698       699
       697       702       701       697       702       703       698       697       702
       698       699       700       699       696       873       699       700       703
       699       700       877       700       703       702       700       703       704
       700       877       882       700       877       878       701       702       703
       701       706       705       701       706       707       702       701       706
       702       703       704       703       700       877       703       704       707
       703       704       881       704       707       706       704       707       708
       704       881       882       704       881       886       705       706       707
       705       710       709       705       710       711       706       705       710
       706       707       708       707       704       881       707       708       711
       707       708       885       708       711       710       708       711       712
       708       885       886       708       885       890       709       710       711
       709       714       713       709       714       715       710       709       714
       710       711       712       711       708       885       711       712       715
       711       712       889       712       715       714       712       715       716
       712       889       894       712       889       890       713       714       715
       713       718       717       713       718       719       714       713       718
       714       715       716       715       712       889       715       716       719
       715       716       893       716       719       718       716       719       720
       716       893       898       716       893       894       717       718       719
       718       719       720       719       716       893       719       720       897
       720       897       898       721       722       723       721       726       725
       721       726       727       722       721       726       722       723       724
       723       724       727       723       724       901       724       727       726
       724       727       728       724       901       902       724       901       906
       725       726       727       725       730       729       725       730       731
       726       725       730       726       727       728       727       724       901
       727       728       731       727       728       905       728       731       730
       728       731       732       728       905       906       728       905       910
       729       730       731       729       734       733       729       734       735
       730       729       734       730       731       732       731       728       905
       731       732       735       731       732       909       732       735       734
       732       735       736       732       909       914       732       909       910
       733       734       735       733       738       737       733       738       739
       734       733       738       734       735       736       735       732       909
       735       736       739       735       736       913       736       739       738
       736       739       740       736       913       918       736       913       914
       737       738       739       737       742       741       737       742       743
       738       737       742       738       739       740       739       736       913
       739       740       743       739       740       917       740       743       742
       740       743       744       740       917       922       740       917       918
       741       742       743       741       746       745       741       746       747
       742       741       746       742       743       744       743       740       917
       743       744       747       743       744       921       744       747       746
       744       747       748       744       921       922       744       921       926
       745       746       747       745       750       749       745       750       751
       746       745       750       746       747       748       747       744       921
       747       748       751       747       748       925       748       751       750
       748       751       752       748       925       926       748       925       930
       749       750       751       749       754       753       749       754       755
       750       749       754       750       751       752       751       748       925
       751       752       755       751       752       929       752       755       754
       752       755       756       752       929       934       752       929       930
       753       754       755       753       758       757       753       758       759
       754       753       758       754       755       756       755       752       929
       755       756       759       755       756       933       756       759       758
       756       759       760       756       933       938       756       933       934
       757       758       759       757       762       761       757       762       763
       758       757       762       758       759       760       759       756       933
       759       760       763       759       760       937       760       763       762
       760       763       764       760       937       942       760       937       938
       761       762       763       761       766       765       761       766       767
       762       761       766       762       763       764       763       760       937
       763       764       767       763       764       941       764       767       766
       764       767       768       764       941       942       764       941       946
       765       766       767       765       770       769       765       770       771
       766       765       770       766       767       768       767       764       941
       767       768       771       767       768       945       768       771       770
       768       771       772       768       945       946       768       945       950
       769       770       771       769       774       773       769       774       775
       770       769       774       770       771       772       771       768       945
       771       772       775       771       772       949       772       775       774
       772       775       776       772       949       954       772       949       950
       773       774       775       773       778       777       773       778       779
       774       773       778       774       775       776       775       772       949
       775       776       779       775       776       953       776       779       778
       776       779       780       776       953       958       776       953       954
       777       778       779       777       782       781       777       782       783
       778       777       782       778       779       780       779       776       953
       779       780       783       779       780       957       780       783       782
       780       783       784       780       957       962       780       957       958
       781       782       783       781       786       785       781       786       787
       782       781       786       782       783       784       783       780       957
       783       784       787       783       784       961       784       787       786
       784       787       788       784       961       962       784       961       966
       785       786       787       785       790       789       785       790       791
       786       785       790       786       787       788       787       784       961
       787       788       791       787       788       965       788       791       790
       788       791       792       788       965       966       788       965       970
       789       790       791       789       794       793       789       794       795
       790       789       794       790       791       792       791       788       965
       791       792       795       791       792       969       792       795       794
       792       795       796       792       969       974       792       969       970
       793       794       795       793       798       797       793       798       799
       794       793       798       794       795       796       795       792       969
       795       796       799       795       796       973       796       799       798
       796       799       800       796       973       978       796       973       974
       797       798       799       797       802       801       797       802       803
       798       797       802       798       799       800       799       796       973
       799       800       803       799       800       977       800       803       802
       800       803       804       800       977       982       800       977       978
       801       802       803       801       806       805       801       806       807
       802       801       806       802       803       804       803       800       977
       803       804       807       803       804       981       804       807       806
       804       807       808       804       981       982       804       981       986
       805       806       807       805       810       809       805       810       811
       806       805       810       806       807       808       807       804       981
       807       808       811       807       808       985       808       811       810
       808       811       812       808       985       986       808       985       990
       809       810       811       809       814       813       809       814       815
       810       809       814       810       811       812       811       808       985
       811       812       815       811       812       989       812       815       814
       812       815       816       812       989       994       812       989       990
       813       814       815       813       818       817       813       818       819
       814       813       818       814       815       816       815       812       989
       815       816       819       815       816       993       816       819       818
       816       819       820       816       993       998       816       993       994
       817       818       819       817       822       821       817       822       823
       818       817       822       818       819       820       819       816       993
       819       820       823       819       820       997       820       823       822
       820       823       824       820       997      1002       820       997       998
       821       822       823       821       826       825       821       826       827
       822       821       826       822       823       824       823       820       997
       823       824       827       823       824      1001       824       827       826
       824       827       828       824      1001      1002       824      1001      1006
       825       826       827       825       830       829       825       830       831
       826       825       830       826       827       828       827       824      1001
       827       828       831       827       828      1005       828       831       830
       828       831       832       828      1005      1006       828      1005      1010
       829       830       831       829       834       833       829       834       835
       830       829       834       830       831       832       831       828      1005
       831       832       835       831       832      1009       832       835       834
       832       835       836       832      1009      1014       832      1009      1010
       833       834       835       833       838       837       833       838       839
       834       833       838       834       835       836       835       832      1009
       835       836       839       835       836      1013       836       839       838
       836       839       840       836      1013      1018       836      1013      1014
       837       838       839       837       842       841       837       842       843
       838       837       842       838       839       840       839       836      1013
       839       840       843       839       840      1017       840       843       842
       840       843       844       840      1017      1022       840      1017      1018
       841       842       843       841       846       845       841       846       847
       842       841       846       842       843       844       843       840      1017
       843       844       847       843       844      1021       844       847       846
       844       847       848       844      1021      1022       844      1021      1026
       845       846       847       845       850       849       845       850       851
       846       845       850       846       847       848       847       844      1021
       847       848       851       847       848      1025       848       851       850
       848       851       852       848      1025      1026       848      1025      1030
       849       850       851       849       854       853       849       854       855
       850       849       854       850       851       852       851       848      1025
       851       852       855       851       852      1029       852       855       854
       852       855       856       852      1029      1034       852      1029      1030
       853       854       855       853       858       857       853       858       859
       854       853       858       854       855       856       855       852      1029
       855       856       859       855       856      1033       856       859       858
       856       859       860       856      1033      1034       856      1033      1038
       857       858       859       857       862       861       857       862       863
       858       857       862       858       859       860       859       856      1033
       859       860       863       859       860      1037       860       863       862
       860       863       864       860      1037      1042       860      1037      1038
       861       862       863       861       866       865       861       866       867
       862       861       866       862       863       864       863       860      1037
       863       864       867       863       864      1041       864       867       866
       864       867       868       864      1041      1042       864      1041      1046
       865       866       867       865       870       869       865       870       871
       866       865       870       866       867       868       867       864      1041
       867       868       871       867       868      1045       868       871       870
       868       871       872       868      1045      1046       868      1045      1050
       869       870       871       869       874       873       869       874       875
       870       869       874       870       871       872       871       868      1045
       871       872       875       871       872      1049       872       875       874
       872       875       876       872      1049      1054       872      1049      1050
       873       874       875       873       878       877       873       878       879
       874       873       878       874       875       876       875       872      1049
       875       876       879       875       876      1053       876       879       878
       876       879       880       876      1053      1058       876      1053      1054
       877       878       879       877       882       881       877       882       883
       878       877       882       878       879       880       879       876      1053
       879       880       883       879       880      1057       880       883       882
       880       883       884       880      1057      1062       880      1057      1058
       881       882       883       881       886       885       881       886       887
       882       881       886       882       883       884       883       880      1057
       883       884       887       883       884      1061       884       887       886
       884       887       888       884      1061      1062       884      1061      1066
       885       886       887       885       890       889       885       890       891
       886       885       890       886       887       888       887       884      1061
       887       888       891       887       888      1065       888       891       890
       888       891       892       888      1065      1066       888      1065      1070
       889       890       891       889       894       893       889       894       895
       890       889       894       890       891       892       891       888      1065
       891       892       895       891       892      1069       892       895       894
       892       895       896       892      1069      1074       892      1069      1070
       893       894       895       893       898       897       893       898       899
       894       893       898       894       895       896       895       892      1069
       895       896       899       895       896      1073       896       899       898
       896       899       900       896      1073      1078       896      1073      1074
       897       898       899       898       899       900       899       896      1073
       899       900      1077       900      1077      1078       901       902       903
       901       906       905       901       906       907       902       901       906
       902       903       904       903       904       907       903       904      1081
       904       907       906       904       907       908       904      1081      1082
       904      1081      1086       905       906       907       905       910       909
       905       910       911       906       905       910       906       907       908
       907       904      1081       907       908       911       907       908      1085
       908       911       910       908       911       912       908      1085      1086
       908      1085      1090       909       910       911       909       914       913
       909       914       915       910       909       914       910       911       912
       911       908      1085       911       912       915       911       912      1089
       912       915       914       912       915       916       912      1089      1094
       912      1089      1090       913       914       915       913       918       917
       913       918       919       914       913       918       914       915       916
       915       912      1089       915       916       919       915       916      1093
       916       919       918       916       919       920       916      1093      1098
       916      1093      1094       917       918       919       917       922       921
       917       922       923       918       917       922       918       919       920
       919       916      1093       919       920       923       919       920      1097
       920       923       922       920       923       924       920      1097      1102
       920      1097      1098       921       922       923       921       926       925
       921       926       927       922       921       926       922       923       924
       923       920      1097       923       924       927       923       924      1101
       924       927       926       924       927       928       924      1101      1102
       924      1101      1106       925       926       927       925       930       929
       925       930       931       926       925       930       926       927       928
       927       924      1101       927       928       931       927       928      1105
       928       931       930       928       931       932       928      1105      1106
       928      1105      1110       929       930       931       929       934       933
       929       934       935       930       929       934       930       931       932
       931       928      1105       931       932       935       931       932      1109
       932       935       934       932       935       936       932      1109      1114
       932      1109      1110       933       934       935       933       938       937
       933       938       939       934       933       938       934       935       936
       935       932      1109       935       936       939       935       936      1113
       936       939       938       936       939       940       936      1113      1118
       936      1113      1114       937       938       939       937       942       941
       937       942       943       938       937       942       938       939       940
       939       936      1113       939       940       943       939       940      1117
       940       943       942       940       943       944       940      1117      1122
       940      1117      1118       941       942       943       941       946       945
       941       946       947       942       941       946       942       943       944
       943       940      1117       943       944       947       943       944      1121
       944       947       946       944       947       948       944      1121      1122
       944      1121      1126       945       946       947       945       950       949
       945       950       951       946       945       950       946       947       948
       947       944      1121       947       948       951       947       948      1125
       948       951       950       948       951       952       948      1125      1126
       948      1125      1130       949       950       951       949       954       953
       949       954       955       950       949       954       950       951       952
       951       948      1125       951       952       955       951       952      1129
       952       955       954       952       955       956       952      1129      1134
       952      1129      1130       953       954       955       953       958       957
       953       958       959       954       953       958       954       955       956
       955       952      1129       955       956       959       955       956      1133
       956       959       958       956       959       960       956      1133      1138
       956      1133      1134       957       958       959       957       962       961
       957       962       963       958       957       962       958       959       960
       959       956      1133       959       960       963       959       960      1137
       960       963       962       960       963       964       960      1137      1142
       960      1137      1138       961       962       963       961       966       965
       961       966       967       962       961       966       962       963       964
       963       960      1137       963       964       967       963       964      1141
       964       967       966       964       967       968       964      1141      1142
       964      1141      1146       965       966       967       965       970       969
       965       970       971       966       965       970       966       967       968
       967       964      1141       967       968       971       967       968      1145
       968       971       970       968       971       972       968      1145      1146
       968      1145      1150       969       970       971       969       974       973
       969       974       975       970       969       974       970       971       972
       971       968      1145       971       972       975       971       972      1149
       972       975       974       972       975       976       972      1149      1154
       972      1149      1150       973       974       975       973       978       977
       973       978       979       974       973       978       974       975       976
       975       972      1149       975       976       979       975       976      1153
       976       979       978       976       979       980       976      1153      1158
       976      1153      1154       977       978       979       977       982       981
       977       982       983       978       977       982       978       979       980
       979       976      1153       979       980       983       979       980      1157
       980       983       982       980       983       984       980      1157      1162
       980      1157      1158       981       982       983       981       986       985
       981       986       987       982       981       986       982       983       984
       983       980      1157       983       984       987       983       984      1161
       984       987       986       984       987       988       984      1161      1162
       984      1161      1166       985       986       987       985       990       989
       985       990       991       986       985       990       986       987       988
       987       984      1161       987       988       991       987       988      1165
       988       991       990       988       991       992       988      1165      1166
       988      1165      1170       989       990       991       989       994       993
       989       994       995       990       989       994       990       991       992
       991       988      1165       991       992       995       991       992      1169
       992       995       994       992       995       996       992      1169      1174
       992      1169      1170       993       994       995       993       998       997
       993       998       999       994       993       998       994       995       996
       995       992      1169       995       996       999       995       996      1173
       996       999       998       996       999      1000       996      1173      1178
       996      1173      1174       997       998       999       997      1002      1001
       997      1002      1003       998       997      1002       998       999      1000
       999       996      1173       999      1000      1003       999      1000      1177
      1000      1003      1002      1000      1003      1004      1000      1177      1182
      1000      1177      1178      1001      1002      1003      1001      1006      1005
      1001      1006      1007      1002      1001      1006      1002      1003      1004
      1003      1000      1177      1003      1004      1007      1003      1004      1181
      1004      1007      1006      1004      1007      1008      1004      1181      1182
      1004      1181      1186      1005      1006      1007      1005      1010      1009
      1005      1010      1011      1006      1005      1010      1006      1007      1008
      1007      1004      1181      1007      1008      1011      1007      1008      1185
      1008      1011      1010      1008      1011      1012      1008      1185      1186
      1008      1185      1190      1009      1010      1011      1009      1014      1013
      1009      1014      1015      1010      1009      1014      1010      1011      1012
      1011      1008      1185      1011      1012      1015      1011      1012      1189
      1012      1015      1014      1012      1015      1016      1012      1189      1194
      1012      1189      1190      1013      1014      1015      1013      1018      1017
      1013      1018      1019      1014      1013      1018      1014      1015      1016
      1015      1012      1189      1015      1016      1019      1015      1016      1193
      1016      1019      1018      1016      1019      1020      1016      1193      1198
      1016      1193      1194      1017      1018      1019      1017      1022      1021
      1017      1022      1023      1018      1017      1022      1018      1019      1020
      1019      1016      1193      1019      1020      1023      1019      1020      1197
      1020      1023      1022      1020      1023      1024      1020      1197      1202
      1020      1197      1198      1021      1022      1023      1021      1026      1025
      1021      1026      1027      1022      1021      1026      1022      1023      1024
      1023      1020      1197      1023      1024      1027      1023      1024      1201
      1024      1027      1026      1024      1027      1028      1024      1201      1202
      1024      1201      1206      1025      1026      1027      1025      1030      1029
      1025      1030      1031      1026      1025      1030      1026      1027      1028
      1027      1024      1201      1027      1028      1031      1027      1028      1205
      1028      1031      1030      1028      1031      1032      1028      1205      1206
      1028      1205      1210      1029      1030      1031      1029      1034      1033
      1029      1034      1035      1030      1029      1034      1030      1031      1032
      1031      1028      1205      1031      1032      1035      1031      1032      1209
      1032      1035      1034      1032      1035      1036      1032      1209      1214
      1032      1209      1210      1033      1034      1035      1033      1038      1037
      1033      1038      1039      1034      1033      1038      1034      1035      1036
      1035      1032      1209      1035      1036      1039      1035      1036      1213
      1036      1039      1038      1036      1039      1040      1036      1213      1218
      1036      1213      1214      1037      1038      1039      1037      1042      1041
      1037      1042      1043      1038      1037      1042      1038      1039      1040
      1039      1036      1213      1039      1040      1043      1039      1040      1217
      1040      1043      1042      1040      1043      1044      1040      1217      1222
      1040      1217      1218      1041      1042      1043      1041      1046      1045
      1041      1046      1047      1042      1041      1046      1042      1043      1044
      1043      1040      1217      1043      1044      1047      1043      1044      1221
      1044      1047      1046      1044      1047      1048      1044      1221      1222
      1044      1221      1226      1045      1046      1047      1045      1050      1049
      1045      1050      1051      1046      1045      1050      1046      1047      1048
      1047      1044      1221      1047      1048      1051      1047      1048      1225
      1048      1051      1050      1048      1051      1052      1048      1225      1226
      1048      1225      1230      1049      1050      1051      1049      1054      1053
      1049      1054      1055      1050      1049      1054      1050      1051      1052
      1051      1048      1225      1051      1052      1055      1051      1052      1229
      1052      1055      1054      1052      1055      1056      1052      1229      1234
      1052      1229      1230      1053      1054      1055      1053      1058      1057
      1053      1058      1059      1054      1053      1058      1054      1055      1056
      1055      1052      1229      1055      1056      1059      1055      1056      1233
      1056      1059      1058      1056      1059      1060      1056      1233      1238
      1056      1233      1234      1057      1058      1059      1057      1062      1061
      1057      1062      1063      1058      1057      1062      1058      1059      1060
      1059      1056      1233      1059      1060      1063      1059      1060      1237
      1060      1063      1062      1060      1063      1064      1060      1237      1242
      1060      1237      1238      1061      1062      1063      1061      1066      1065
      1061      1066      1067      1062      1061      1066      1062      1063      1064
      1063      1060      1237      1063      1064      1067      1063      1064      1241
      1064      1067      1066      1064      1067      1068      1064      1241      1242
      1064      1241      1246      1065      1066      1067      1065      1070      1069
      1065      1070      1071      1066      1065      1070      1066      1067      1068
      1067      1064      1241      1067      1068      1071      1067      1068      1245
      1068      1071      1070      1068      1071      1072      1068      1245      1246
      1068      1245      1250      1069      1070      1071      1069      1074      1073
      1069      1074      1075      1070      1069      1074      1070      1071      1072
      1071      1068      1245      1071      1072      1075      1071      1072      1249
      1072      1075      1074      1072      1075      1076      1072      1249      1254
      1072      1249      1250      1073      1074      1075      1073      1078      1077
      1073      1078      1079      1074      1073      1078      1074      1075      1076
      1075      1072      1249      1075      1076      1079      1075      1076      1253
      1076      1079      1078      1076      1079      1080      1076      1253      1254
      1076      1253      1258      1077      1078      1079      1078      1079      1080
      1079      1076      1253      1079      1080      1257      1080      1257      1258
      1081      1082      1083      1081      1086      1085      1081      1086      1087
      1082      1081      1086      1082      1083      1084      1083      1084      1087
      1083      1084      1261      1084      1087      1086      1084      1087      1088
      1084      1261      1262      1084      1261      1266      1085      1086      1087
      1085      1090      1089      1085      1090      1091      1086      1085      1090
      1086      1087      1088      1087      1084      1261      1087      1088      1091
      1087      1088      1265      1088      1091      1090      1088      1091      1092
      1088      1265      1266      1088      1265      1270      1089      1090      1091
      1089      1094      1093      1089      1094      1095      1090      1089      1094
      1090      1091      1092      1091      1088      1265      1091      1092      1095
      1091      1092      1269      1092      1095      1094      1092      1095      1096
      1092      1269      1274      1092      1269      1270      1093      1094      1095
      1093      1098      1097      1093      1098      1099      1094      1093      1098
      1094      1095      1096      1095      1092      1269      1095      1096      1099
      1095      1096      1273      1096      1099      1098      1096      1099      1100
      1096      1273      1274      1096      1273      1278      1097      1098      1099
      1097      1102      1101      1097      1102      1103      1098      1097      1102
      1098      1099      1100      1099      1096      1273      1099      1100      1103
      1099      1100      1277      1100      1103      1102      1100      1103      1104
      1100      1277      1282      1100      1277      1278      1101      1102      1103
      1101      1106      1105      1101      1106      1107      1102      1101      1106
      1102      1103      1104      1103      1100      1277      1103      1104      1107
      1103      1104      1281      1104      1107      1106      1104      1107      1108
      1104      1281      1282      1104      1281      1286      1105      1106      1107
      1105      1110      1109      1105      1110      1111      1106      1105      1110
      1106      1107      1108      1107      1104      1281      1107      1108      1111
      1107      1108      1285      1108      1111      1110      1108      1111      1112
      1108      1285      1286      1108      1285      1290      1109      1110      1111
      1109      1114      1113      1109      1114      1115      1110      1109      1114
      1110      1111      1112      1111      1108      1285      1111      1112      1115
      1111      1112      1289      1112      1115      1114      1112      1115      1116
      1112      1289      1294      1112      1289      1290      1113      1114      1115
      1113      1118      1117      1113      1118      1119      1114      1113      1118
      1114      1115      1116      1115      1112      1289      1115      1116      1119
      1115      1116      1293      1116      1119      1118      1116      1119      1120
      1116      1293      1298      1116      1293      1294      1117      1118      1119
      1117      1122      1121      1117      1122      1123      1118      1117      1122
      1118      1119      1120      1119      1116      1293      1119      1120      1123
      1119      1120      1297      1120      1123      1122      1120      1123      1124
      1120      1297      1302      1120      1297      1298      1121      1122      1123
      1121      1126      1125      1121      1126      1127      1122      1121      1126
      1122      1123      1124      1123      1120      1297      1123      1124      1127
      1123      1124      1301      1124      1127      1126      1124      1127      1128
      1124      1301      1302      1124      1301      1306      1125      1126      1127
      1125      1130      1129      1125      1130      1131      1126      1125      1130
      1126      1127      1128      1127      1124      1301      1127      1128      1131
      1127      1128      1305      1128      1131      1130      1128      1131      1132
      1128      1305      1306      1128      1305      1310      1129      1130      1131
      1129      1134      1133      1129      1134      1135      1130      1129      1134
      1130      1131      1132      1131      1128      1305      1131      1132      1135
      1131      1132      1309      1132      1135      1134      1132      1135      1136
      1132      1309      1314      1132      1309      1310      1133      1134      1135
      1133      1138      1137      1133      1138      1139      1134      1133      1138
      1134      1135      1136      1135      1132      1309      1135      1136      1139
      1135      1136      1313      1136      1139      1138      1136      1139      1140
      1136      1313      1318      1136      1313      1314      1137      1138      1139
      1137      1142      1141      1137      1142      1143      1138      1137      1142
      1138      1139      1140      1139      1136      1313      1139      1140      1143
      1139      1140      1317      1140      1143      1142      1140      1143      1144
      1140      1317      1322      1140      1317      1318      1141      1142      1143
      1141      1146      1145      1141      1146      1147      1142      1141      1146
      1142      1143      1144      1143      1140      1317      1143      1144      1147
      1143      1144      1321      1144      1147      1146      1144      1147      1148
      1144      1321      1322      1144      1321      1326      1145      1146      1147
      1145      1150      1149      1145      1150      1151      1146      1145      1150
      1146      1147      1148      1147      1144      1321      1147      1148      1151
      1147      1148      1325      1148      1151      1150      1148      1151      1152
      1148      1325      1326      1148      1325      1330      1149      1150      1151
      1149      1154      1153      1149      1154      1155      1150      1149      1154
      1150      1151      1152      1151      1148      1325      1151      1152      1155
      1151      1152      1329      1152      1155      1154      1152      1155      1156
      1152      1329      1334      1152      1329      1330      1153      1154      1155
      1153      1158      1157      1153      1158      1159      1154      1153      1158
      1154      1155      1156      1155      1152      1329      1155      1156      1159
      1155      1156      1333      1156      1159      1158      1156      1159      1160
      1156      1333      1338      1156      1333      1334      1157      1158      1159
      1157      1162      1161      1157      1162      1163      1158      1157      1162
      1158      1159      1160      1159      1156      1333      1159      1160      1163
      1159      1160      1337      1160      1163      1162      1160      1163      1164
      1160      1337      1342      1160      1337      1338      1161      1162      1163
      1161      1166      1165      1161      1166      1167      1162      1161      1166
      1162      1163      1164      1163      1160      1337      1163      1164      1167
      1163      1164      1341      1164      1167      1166      1164      1167      1168
      1164      1341      1342      1164      1341      1346      1165      1166      1167
      1165      1170      1169      1165      1170      1171      1166      1165      1170
      1166      1167      1168      1167      1164      1341      1167      1168      1171
      1167      1168      1345      1168      1171      1170      1168      1171      1172
      1168      1345      1346      1168      1345      1350      1169      1170      1171
      1169      1174      1173      1169      1174      1175      1170      1169      1174
      1170      1171      1172      1171      1168      1345      1171      1172      1175
      1171      1172      1349      1172      1175      1174      1172      1175      1176
      1172      1349      1354      1172      1349      1350      1173      1174      1175
      1173      1178      1177      1173      1178      1179      1174      1173      1178
      1174      1175      1176      1175      1172      1349      1175      1176      1179
      1175      1176      1353      1176      1179      1178      1176      1179      1180
      1176      1353      1358      1176      1353      1354      1177      1178      1179
      1177      1182      1181      1177      1182      1183      1178      1177      1182
      1178      1179      1180      1179      1176      1353      1179      1180      1183
      1179      1180      1357      1180      1183      1182      1180      1183      1184
      1180      1357      1362      1180      1357      1358      1181      1182      1183
      1181      1186      1185      1181      1186      1187      1182      1181      1186
      1182      1183      1184      1183      1180      1357      1183      1184      1187
      1183      1184      1361      1184      1187      1186      1184      1187      1188
      1184      1361      1362      1184      1361      1366      1185      1186      1187
      1185      1190      1189      1185      1190      1191      1186      1185      1190
      1186      1187      1188      1187      1184      1361      1187      1188      1191
      1187      1188      1365      1188      1191      1190      1188      1191      1192
      1188      1365      1366      1188      1365      1370      1189      1190      1191
      1189      1194      1193      1189      1194      1195      1190      1189      1194
      1190      1191      1192      1191      1188      1365      1191      1192      1195
      1191      1192      1369      1192      1195      1194      1192      1195      1196
      1192      1369      1374      1192      1369      1370      1193      1194      1195
      1193      1198      1197      1193      1198      1199      1194      1193      1198
      1194      1195      1196      1195      1192      1369      1195      1196      1199
      1195      1196      1373      1196      1199      1198      1196      1199      1200
      1196      1373      1378      1196      1373      1374      1197      1198      1199
      1197      1202      1201      1197      1202      1203      1198      1197      1202
      1198      1199      1200      1199      1196      1373      1199      1200      1203
      1199      1200      1377      1200      1203      1202      1200      1203      1204
      1200      1377      1382      1200      1377      1378      1201      1202      1203
      1201      1206      1205      1201      1206      1207      1202      1201      1206
      1202      1203      1204      1203      1200      1377      1203      1204      1207
      1203      1204      1381      1204      1207      1206      1204      1207      1208
      1204      1381      1382      1204      1381      1386      1205      1206      1207
      1205      1210      1209      1205      1210      1211      1206      1205      1210
      1206      1207      1208      1207      1204      1381      1207      1208      1211
      1207      1208      1385      1208      1211      1210      1208      1211      1212
      1208      1385      1386      1208      1385      1390      1209      1210      1211
      1209      1214      1213      1209      1214      1215      1210      1209      1214
      1210      1211      1212      1211      1208      1385      1211      1212      1215
      1211      1212      1389      1212      1215      1214      1212      1215      1216
      1212      1389      1394      1212      1389      1390      1213      1214      1215
      1213      1218      1217      1213      1218      1219      1214      1213      1218
      1214      1215      1216      1215      1212      1389      1215      1216      1219
      1215      1216      1393      1216      1219      1218      1216      1219      1220
      1216      1393      1398      1216      1393      1394      1217      1218      1219
      1217      1222      1221      1217      1222      1223      1218      1217      1222
      1218      1219      1220      1219      1216      1393      1219      1220      1223
      1219      1220      1397      1220      1223      1222      1220      1223      1224
      1220      1397      1402      1220      1397      1398      1221      1222      1223
      1221      1226      1225      1221      1226      1227      1222      1221      1226
      1222      1223      1224      1223      1220      1397      1223      1224      1227
      1223      1224      1401      1224      1227      1226      1224      1227      1228
      1224      1401      1402      1224      1401      1406      1225      1226      1227
      1225      1230      1229      1225      1230      1231      1226      1225      1230
      1226      1227      1228      1227      1224      1401      1227      1228      1231
      1227      1228      1405      1228      1231      1230      1228      1231      1232
      1228      1405      1406      1228      1405      1410      1229      1230      1231
      1229      1234      1233      1229      1234      1235      1230      1229      1234
      1230      1231      1232      1231      1228      1405      1231      1232      1235
      1231      1232      1409      1232      1235      1234      1232      1235      1236
      1232      1409      1414      1232      1409      1410      1233      1234      1235
      1233      1238      1237      1233      1238      1239      1234      1233      1238
      1234      1235      1236      1235      1232      1409      1235      1236      1239
      1235      1236      1413      1236      1239      1238      1236      1239      1240
      1236      1413      1418      1236      1413      1414      1237      1238      1239
      1237      1242      1241      1237      1242      1243      1238      1237      1242
      1238      1239      1240      1239      1236      1413      1239      1240      1243
      1239      1240      1417      1240      1243      1242      1240      1243      1244
      1240      1417      1422      1240      1417      1418      1241      1242      1243
      1241      1246      1245      1241      1246      1247      1242      1241      1246
      1242      1243      1244      1243      1240      1417      1243      1244      1247
      1243      1244      1421      1244      1247      1246      1244      1247      1248
      1244      1421      1422      1244      1421      1426      1245      1246      1247
      1245      1250      1249      1245      1250      1251      1246      1245      1250
      1246      1247      1248      1247      1244      1421      1247      1248      1251
      1247      1248      1425      1248      1251      1250      1248      1251      1252
      1248      1425      1426      1248      1425      1430      1249      1250      1251
      1249      1254      1253      1249      1254      1255      1250      1249      1254
      1250      1251      1252      1251      1248      1425      1251      1252      1255
      1251      1252      1429      1252      1255      1254      1252      1255      1256
      1252      1429      1434      1252      1429      1430      1253      1254      1255
      1253      1258      1257      1253      1258      1259      1254      1253      1258
      1254      1255      1256      1255      1252      1429      1255      1256      1259
      1255      1256      1433      1256      1259      1258      1256      1259      1260
      1256      1433      1438      1256      1433      1434      1257      1258      1259
      1258      1259      1260      1259      1256      1433      1259      1260      1437
      1260      1437      1438      1261      1262      1263      1261      1266      1265
      1261      1266      1267      1262      1261      1266      1262      1263      1264
      1263      1264      1267      1263      1264      1441      1264      1267      1266
      1264      1267      1268      1264      1441      1442      1264      1441      1446
      1265      1266      1267      1265      1270      1269      1265      1270      1271
      1266      1265      1270      1266      1267      1268      1267      1264      1441
      1267      1268      1271      1267      1268      1445      1268      1271      1270
      1268      1271      1272      1268      1445      1446      1268      1445      1450
      1269      1270      1271      1269      1274      1273      1269      1274      1275
      1270      1269      1274      1270      1271      1272      1271      1268      1445
      1271      1272      1275      1271      1272      1449      1272      1275      1274
      1272      1275      1276      1272      1449      1454      1272      1449      1450
      1273      1274      1275      1273      1278      1277      1273      1278      1279
      1274      1273      1278      1274      1275      1276      1275      1272      1449
      1275      1276      1279      1275      1276      1453      1276      1279      1278
      1276      1279      1280      1276      1453      1458      1276      1453      1454
      1277      1278      1279      1277      1282      1281      1277      1282      1283
      1278      1277      1282      1278      1279      1280      1279      1276      1453
      1279      1280      1283      1279      1280      1457      1280      1283      1282
      1280      1283      1284      1280      1457      1462      1280      1457      1458
      1281      1282      1283      1281      1286      1285      1281      1286      1287
      1282      1281      1286      1282      1283      1284      1283      1280      1457
      1283      1284      1287      1283      1284      1461      1284      1287      1286
      1284      1287      1288      1284      1461      1462      1284      1461      1466
      1285      1286      1287      1285      1290      1289      1285      1290      1291
      1286      1285      1290      1286      1287      1288      1287      1284      1461
      1287      1288      1291      1287      1288      1465      1288      1291      1290
      1288      1291      1292      1288      1465      1466      1288      1465      1470
      1289      1290      1291      1289      1294      1293      1289      1294      1295
      1290      1289      1294      1290      1291      1292      1291      1288      1465
      1291      1292      1295      1291      1292      1469      1292      1295      1294
      1292      1295      1296      1292      1469      1474      1292      1469      1470
      1293      1294      1295      1293      1298      1297      1293      1298      1299
      1294      1293      1298      1294      1295      1296      1295      1292      1469
      1295      1296      1299      1295      1296      1473      1296      1299      1298
      1296      1299      1300      1296      1473      1478      1296      1473      1474
      1297      1298      1299      1297      1302      1301      1297      1302      1303
      1298      1297      1302      1298      1299      1300      1299      1296      1473
      1299      1300      1303      1299      1300      1477      1300      1303      1302
      1300      1303      1304      1300      1477      1482      1300      1477      1478
      1301      1302      1303      1301      1306      1305      1301      1306      1307
      1302      1301      1306      1302      1303      1304      1303      1300      1477
      1303      1304      1307      1303      1304      1481      1304      1307      1306
      1304      1307      1308      1304      1481      1482      1304      1481      1486
      1305      1306      1307      1305      1310      1309      1305      1310      1311
      1306      1305      1310      1306      1307      1308      1307      1304      1481
      1307      1308      1311      1307      1308      1485      1308      1311      1310
      1308      1311      1312      1308      1485      1486      1308      1485      1490
      1309      1310      1311      1309      1314      1313      1309      1314      1315
      1310      1309      1314      1310      1311      1312      1311      1308      1485
      1311      1312      1315      1311      1312      1489      1312      1315      1314
      1312      1315      1316      1312      1489      1494      1312      1489      1490
      1313      1314      1315      1313      1318      1317      1313      1318      1319
      1314      1313      1318      1314      1315      1316      1315      1312      1489
      1315      1316      1319      1315      1316      1493      1316      1319      1318
      1316      1319      1320      1316      1493      1494      1316      1493      1498
      1317      1318      1319      1317      1322      1321      1317      1322      1323
      1318      1317      1322      1318      1319      1320      1319      1316      1493
      1319      1320      1323      1319      1320      1497      1320      1323      1322
      1320      1323      1324      1320      1497      1498      1320      1497      1502
      1321      1322      1323      1321      1326      1325      1321      1326      1327
      1322      1321      1326      1322      1323      1324      1323      1320      1497
      1323      1324      1327      1323      1324      1501      1324      1327      1326
      1324      1327      1328      1324      1501      1502      1324      1501      1506
      1325      1326      1327      1325      1330      1329      1325      1330      1331
      1326      1325      1330      1326      1327      1328      1327      1324      1501
      1327      1328      1331      1327      1328      1505      1328      1331      1330
      1328      1331      1332      1328      1505      1506      1328      1505      1510
      1329      1330      1331      1329      1334      1333      1329      1334      1335
      1330      1329      1334      1330      1331      1332      1331      1328      1505
      1331      1332      1335      1331      1332      1509      1332      1335      1334
      1332      1335      1336      1332      1509      1510      1332      1509      1514
      1333      1334      1335      1333      1338      1337      1333      1338      1339
      1334      1333      1338      1334      1335      1336      1335      1332      1509
      1335      1336      1339      1335      1336      1513      1336      1339      1338
      1336      1339      1340      1336      1513      1514      1336      1513      1518
      1337      1338      1339      1337      1342      1341      1337      1342      1343
      1338      1337      1342      1338      1339      1340      1339      1336      1513
      1339      1340      1343      1339      1340      1517      1340      1343      1342
      1340      1343      1344      1340      1517      1522      1340      1517      1518
      1341      1342      1343      1341      1346      1345      1341      1346      1347
      1342      1341      1346      1342      1343      1344      1343      1340      1517
      1343      1344      1347      1343      1344      1521      1344      1347      1346
      1344      1347      1348      1344      1521      1522      1344      1521      1526
      1345      1346      1347      1345      1350      1349      1345      1350      1351
      1346      1345      1350      1346      1347      1348      1347      1344      1521
      1347      1348      1351      1347      1348      1525      1348      1351      1350
      1348      1351      1352      1348      1525      1526      1348      1525      1530
      1349      1350      1351      1349      1354      1353      1349      1354      1355
      1350      1349      1354      1350      1351      1352      1351      1348      1525
      1351      1352      1355      1351      1352      1529      1352      1355      1354
      1352      1355      1356      1352      1529      1534      1352      1529      1530
      1353      1354      1355      1353      1358      1357      1353      1358      1359
      1354      1353      1358      1354      1355      1356      1355      1352      1529
      1355      1356      1359      1355      1356      1533      1356      1359      1358
      1356      1359      1360      1356      1533      1538      1356      1533      1534
      1357      1358      1359      1357      1362      1361      1357      1362      1363
      1358      1357      1362      1358      1359      1360      1359      1356      1533
      1359      1360      1363      1359      1360      1537      1360      1363      1362
      1360      1363      1364      1360      1537      1542      1360      1537      1538
      1361      1362      1363      1361      1366      1365      1361      1366      1367
      1362      1361      1366      1362      1363      1364      1363      1360      1537
      1363      1364      1367      1363      1364      1541      1364      1367      1366
      1364      1367      1368      1364      1541      1542      1364      1541      1546
      1365      1366      1367      1365      1370      1369      1365      1370      1371
      1366      1365      1370      1366      1367      1368      1367      1364      1541
      1367      1368      1371      1367      1368      1545      1368      1371      1370
      1368      1371      1372      1368      1545      1546      1368      1545      1550
      1369      1370      1371      1369      1374      1373      1369      1374      1375
      1370      1369      1374      1370      1371      1372      1371      1368      1545
      1371      1372      1375      1371      1372      1549      1372      1375      1374
      1372      1375      1376      1372      1549      1554      1372      1549      1550
      1373      1374      1375      1373      1378      1377      1373      1378      1379
      1374      1373      1378      1374      1375      1376      1375      1372      1549
      1375      1376      1379      1375      1376      1553      1376      1379      1378
      1376      1379      1380      1376      1553      1558      1376      1553      1554
      1377      1378      1379      1377      1382      1381      1377      1382      1383
      1378      1377      1382      1378      1379      1380      1379      1376      1553
      1379      1380      1383      1379      1380      1557      1380      1383      1382
      1380      1383      1384      1380      1557      1562      1380      1557      1558
      1381      1382      1383      1381      1386      1385      1381      1386      1387
      1382      1381      1386      1382      1383      1384      1383      1380      1557
      1383      1384      1387      1383      1384      1561      1384      1387      1386
      1384      1387      1388      1384      1561      1562      1384      1561      1566
      1385      1386      1387      1385      1390      1389      1385      1390      1391
      1386      1385      1390      1386      1387      1388      1387      1384      1561
      1387      1388      1391      1387      1388      1565      1388      1391      1390
      1388      1391      1392      1388      1565      1566      1388      1565      1570
      1389      1390      1391      1389      1394      1393      1389      1394      1395
      1390      1389      1394      1390      1391      1392      1391      1388      1565
      1391      1392      1395      1391      1392      1569      1392      1395      1394
      1392      1395      1396      1392      1569      1570      1392      1569      1574
      1393      1394      1395      1393      1398      1397      1393      1398      1399
      1394      1393      1398      1394      1395      1396      1395      1392      1569
      1395      1396      1399      1395      1396      1573      1396      1399      1398
      1396      1399      1400      1396      1573      1574      1396      1573      1578
      1397      1398      1399      1397      1402      1401      1397      1402      1403
      1398      1397      1402      1398      1399      1400      1399      1396      1573
      1399      1400      1403      1399      1400      1577      1400      1403      1402
      1400      1403      1404      1400      1577      1578      1400      1577      1582
      1401      1402      1403      1401      1406      1405      1401      1406      1407
      1402      1401      1406      1402      1403      1404      1403      1400      1577
      1403      1404      1407      1403      1404      1581      1404      1407      1406
      1404      1407      1408      1404      1581      1582      1404      1581      1586
      1405      1406      1407      1405      1410      1409      1405      1410      1411
      1406      1405      1410      1406      1407      1408      1407      1404      1581
      1407      1408      1411      1407      1408      1585      1408      1411      1410
      1408      1411      1412      1408      1585      1586      1408      1585      1590
      1409      1410      1411      1409      1414      1413      1409      1414      1415
      1410      1409      1414      1410      1411      1412      1411      1408      1585
      1411      1412      1415      1411      1412      1589      1412      1415      1414
      1412      1415      1416      1412      1589      1594      1412      1589      1590
      1413      1414      1415      1413      1418      1417      1413      1418      1419
      1414      1413      1418      1414      1415      1416      1415      1412      1589
      1415      1416      1419      1415      1416      1593      1416      1419      1418
      1416      1419      1420      1416      1593      1598      1416      1593      1594
      1417      1418      1419      1417      1422      1421      1417      1422      1423
      1418      1417      1422      1418      1419      1420      1419      1416      1593
      1419      1420      1423      1419      1420      1597      1420      1423      1422
      1420      1423      1424      1420      1597      1602      1420      1597      1598
      1421      1422      1423      1421      1426      1425      1421      1426      1427
      1422      1421      1426      1422      1423      1424      1423      1420      1597
      1423      1424      1427      1423      1424      1601      1424      1427      1426
      1424      1427      1428      1424      1601      1602      1424      1601      1606
      1425      1426      1427      1425      1430      1429      1425      1430      1431
      1426      1425      1430      1426      1427      1428      1427      1424      1601
      1427      1428      1431      1427      1428      1605      1428      1431      1430
      1428      1431      1432      1428      1605      1606      1428      1605      1610
      1429      1430      1431      1429      1434      1433      1429      1434      1435
      1430      1429      1434      1430      1431      1432      1431      1428      1605
      1431      1432      1435      1431      1432      1609      1432      1435      1434
      1432      1435      1436      1432      1609      1614      1432      1609      1610
      1433      1434      1435      1433      1438      1437      1433      1438      1439
      1434      1433      1438      1434      1435      1436      1435      1432      1609
      1435      1436      1439      1435      1436      1613      1436      1439      1438
      1436      1439      1440      1436      1613      1618      1436      1613      1614
      1437      1438      1439      1438      1439      1440      1439      1436      1613
      1439      1440      1617      1440      1617      1618      1441      1442      1443
      1441      1446      1445      1441      1446      1447      1442      1441      1446
      1442      1443      1444      1443      1444      1621      1443      1444      1447
      1444      1447      1446      1444      1447      1448      1444      1621      1622
      1444      1621      1626      1445      1446      1447      1445      1450      1449
      1445      1450      1451      1446      1445      1450      1446      1447      1448
      1447      1444      1621      1447      1448      1625      1447      1448      1451
      1448      1451      1450      1448      1451      1452      1448      1625      1626
      1448      1625      1630      1449      1450      1451      1449      1454      1453
      1449      1454      1455      1450      1449      1454      1450      1451      1452
      1451      1448      1625      1451      1452      1629      1451      1452      1455
      1452      1455      1454      1452      1455      1456      1452      1629      1634
      1452      1629      1630      1453      1454      1455      1453      1458      1457
      1453      1458      1459      1454      1453      1458      1454      1455      1456
      1455      1452      1629      1455      1456      1633      1455      1456      1459
      1456      1459      1458      1456      1459      1460      1456      1633      1638
      1456      1633      1634      1457      1458      1459      1457      1462      1461
      1457      1462      1463      1458      1457      1462      1458      1459      1460
      1459      1456      1633      1459      1460      1637      1459      1460      1463
      1460      1463      1462      1460      1463      1464      1460      1637      1642
      1460      1637      1638      1461      1462      1463      1461      1466      1465
      1461      1466      1467      1462      1461      1466      1462      1463      1464
      1463      1460      1637      1463      1464      1641      1463      1464      1467
      1464      1467      1466      1464      1467      1468      1464      1641      1642
      1464      1641      1646      1465      1466      1467      1465      1470      1469
      1465      1470      1471      1466      1465      1470      1466      1467      1468
      1467      1464      1641      1467      1468      1645      1467      1468      1471
      1468      1471      1470      1468      1471      1472      1468      1645      1646
      1468      1645      1650      1469      1470      1471      1469      1474      1473
      1469      1474      1475      1470      1469      1474      1470      1471      1472
      1471      1468      1645      1471      1472      1475      1471      1472      1649
      1472      1475      1474      1472      1475      1476      1472      1649      1650
      1472      1649      1654      1473      1474      1475      1473      1478      1477
      1473      1478      1479      1474      1473      1478      1474      1475      1476
      1475      1472      1649      1475      1476      1479      1475      1476      1653
      1476      1479      1478      1476      1479      1480      1476      1653      1654
      1476      1653      1658      1477      1478      1479      1477      1482      1481
      1477      1482      1483      1478      1477      1482      1478      1479      1480
      1479      1476      1653      1479      1480      1657      1479      1480      1483
      1480      1483      1482      1480      1483      1484      1480      1657      1658
      1480      1657      1662      1481      1482      1483      1481      1486      1485
      1481      1486      1487      1482      1481      1486      1482      1483      1484
      1483      1480      1657      1483      1484      1661      1483      1484      1487
      1484      1487      1486      1484      1487      1488      1484      1661      1662
      1484      1661      1666      1485      1486      1487      1485      1490      1489
      1485      1490      1491      1486      1485      1490      1486      1487      1488
      1487      1484      1661      1487      1488      1665      1487      1488      1491
      1488      1491      1490      1488      1491      1492      1488      1665      1666
      1488      1665      1670      1489      1490      1491      1489      1494      1493
      1489      1494      1495      1490      1489      1494      1490      1491      1492
      1491      1488      1665      1491      1492      1495      1491      1492      1669
      1492      1495      1494      1492      1495      1496      1492      1669      1674
      1492      1669      1670      1493      1494      1495      1493      1498      1497
      1493      1498      1499      1494      1493      1498      1494      1495      1496
      1495      1492      1669      1495      1496      1499      1495      1496      1673
      1496      1499      1498      1496      1499      1500      1496      1673      1678
      1496      1673      1674      1497      1498      1499      1497      1502      1501
      1497      1502      1503      1498      1497      1502      1498      1499      1500
      1499      1496      1673      1499      1500      1677      1499      1500      1503
      1500      1503      1502      1500      1503      1504      1500      1677      1682
      1500      1677      1678      1501      1502      1503      1501      1506      1505
      1501      1506      1507      1502      1501      1506      1502      1503      1504
      1503      1500      1677      1503      1504      1681      1503      1504      1507
      1504      1507      1506      1504      1507      1508      1504      1681      1682
      1504      1681      1686      1505      1506      1507      1505      1510      1509
      1505      1510      1511      1506      1505      1510      1506      1507      1508
      1507      1504      1681      1507      1508      1685      1507      1508      1511
      1508      1511      1510      1508      1511      1512      1508      1685      1686
      1508      1685      1690      1509      1510      1511      1509      1514      1513
      1509      1514      1515      1510      1509      1514      1510      1511      1512
      1511      1508      1685      1511      1512      1515      1511      1512      1689
      1512      1515      1514      1512      1515      1516      1512      1689      1694
      1512      1689      1690      1513      1514      1515      1513      1518      1517
      1513      1518      1519      1514      1513      1518      1514      1515      1516
      1515      1512      1689      1515      1516      1693      1515      1516      1519
      1516      1519      1518      1516      1519      1520      1516      1693      1698
      1516      1693      1694      1517      1518      1519      1517      1522      1521
      1517      1522      1523      1518      1517      1522      1518      1519      1520
      1519      1516      1693      1519      1520      1697      1519      1520      1523
      1520      1523      1522      1520      1523      1524      1520      1697      1702
      1520      1697      1698      1521      1522      1523      1521      1526      1525
      1521      1526      1527      1522      1521      1526      1522      1523      1524
      1523      1520      1697      1523      1524      1701      1523      1524      1527
      1524      1527      1526      1524      1527      1528      1524      1701      1702
      1524      1701      1706      1525      1526      1527      1525      1530      1529
      1525      1530      1531      1526      1525      1530      1526      1527      1528
      1527      1524      1701      1527      1528      1705      1527      1528      1531
      1528      1531      1530      1528      1531      1532      1528      1705      1706
      1528      1705      1710      1529      1530      1531      1529      1534      1533
      1529      1534      1535      1530      1529      1534      1530      1531      1532
      1531      1528      1705      1531      1532      1709      1531      1532      1535
      1532      1535      1534      1532      1535      1536      1532      1709      1714
      1532      1709      1710      1533      1534      1535      1533      1538      1537
      1533      1538      1539      1534      1533      1538      1534      1535      1536
      1535      1532      1709      1535      1536      1539      1535      1536      1713
      1536      1539      1538      1536      1539      1540      1536      1713      1714
      1536      1713      1718      1537      1538      1539      1537      1542      1541
      1537      1542      1543      1538      1537      1542      1538      1539      1540
      1539      1536      1713      1539      1540      1717      1539      1540      1543
      1540      1543      1542      1540      1543      1544      1540      1717      1718
      1540      1717      1722      1541      1542      1543      1541      1546      1545
      1541      1546      1547      1542      1541      1546      1542      1543      1544
      1543      1540      1717      1543      1544      1721      1543      1544      1547
      1544      1547      1546      1544      1547      1548      1544      1721      1722
      1544      1721      1726      1545      1546      1547      1545      1550      1549
      1545      1550      1551      1546      1545      1550      1546      1547      1548
      1547      1544      1721      1547      1548      1725      1547      1548      1551
      1548      1551      1550      1548      1551      1552      1548      1725      1726
      1548      1725      1730      1549      1550      1551      1549      1554      1553
      1549      1554      1555      1550      1549      1554      1550      1551      1552
      1551      1548      1725      1551      1552      1555      1551      1552      1729
      1552      1555      1554      1552      1555      1556      1552      1729      1730
      1552      1729      1734      1553      1554      1555      1553      1558      1557
      1553      1558      1559      1554      1553      1558      1554      1555      1556
      1555      1552      1729      1555      1556      1559      1555      1556      1733
      1556      1559      1558      1556      1559      1560      1556      1733      1734
      1556      1733      1738      1557      1558      1559      1557      1562      1561
      1557      1562      1563      1558      1557      1562      1558      1559      1560
      1559      1556      1733      1559      1560      1737      1559      1560      1563
      1560      1563      1562      1560      1563      1564      1560      1737      1742
      1560      1737      1738      1561      1562      1563      1561      1566      1565
      1561      1566      1567      1562      1561      1566      1562      1563      1564
      1563      1560      1737      1563      1564      1741      1563      1564      1567
      1564      1567      1566      1564      1567      1568      1564      1741      1742
      1564      1741      1746      1565      1566      1567      1565      1570      1569
      1565      1570      1571      1566      1565      1570      1566      1567      1568
      1567      1564      1741      1567      1568      1745      1567      1568      1571
      1568      1571      1570      1568      1571      1572      1568      1745      1746
      1568      1745      1750      1569      1570      1571      1569      1574      1573
      1569      1574      1575      1570      1569      1574      1570      1571      1572
      1571      1568      1745      1571      1572      1575      1571      1572      1749
      1572      1575      1574      1572      1575      1576      1572      1749      1754
      1572      1749      1750      1573      1574      1575      1573      1578      1577
      1573      1578      1579      1574      1573      1578      1574      1575      1576
      1575      1572      1749      1575      1576      1579      1575      1576      1753
      1576      1579      1578      1576      1579      1580      1576      1753      1758
      1576      1753      1754      1577      1578      1579      1577      1582      1581
      1577      1582      1583      1578      1577      1582      1578      1579      1580
      1579      1576      1753      1579      1580      1757      1579      1580      1583
      1580      1583      1582      1580      1583      1584      1580      1757      1762
      1580      1757      1758      1581      1582      1583      1581      1586      1585
      1581      1586      1587      1582      1581      1586      1582      1583      1584
      1583      1580      1757      1583      1584      1761      1583      1584      1587
      1584      1587      1586      1584      1587      1588      1584      1761      1762
      1584      1761      1766      1585      1586      1587      1585      1590      1589
      1585      1590      1591      1586      1585      1590      1586      1587      1588
      1587      1584      1761      1587      1588      1765      1587      1588      1591
      1588      1591      1590      1588      1591      1592      1588      1765      1766
      1588      1765      1770      1589      1590      1591      1589      1594      1593
      1589      1594      1595      1590      1589      1594      1590      1591      1592
      1591      1588      1765      1591      1592      1769      1591      1592      1595
      1592      1595      1594      1592      1595      1596      1592      1769      1774
      1592      1769      1770      1593      1594      1595      1593      1598      1597
      1593      1598      1599      1594      1593      1598      1594      1595      1596
      1595      1592      1769      1595      1596      1773      1595      1596      1599
      1596      1599      1598      1596      1599      1600      1596      1773      1778
      1596      1773      1774      1597      1598      1599      1597      1602      1601
      1597      1602      1603      1598      1597      1602      1598      1599      1600
      1599      1596      1773      1599      1600      1777      1599      1600      1603
      1600      1603      1602      1600      1603      1604      1600      1777      1782
      1600      1777      1778      1601      1602      1603      1601      1606      1605
      1601      1606      1607      1602      1601      1606      1602      1603      1604
      1603      1600      1777      1603      1604      1781      1603      1604      1607
      1604      1607      1606      1604      1607      1608      1604      1781      1782
      1604      1781      1786      1605      1606      1607      1605      1610      1609
      1605      1610      1611      1606      1605      1610      1606      1607      1608
      1607      1604      1781      1607      1608      1785      1607      1608      1611
      1608      1611      1610      1608      1611      1612      1608      1785      1786
      1608      1785      1790      1609      1610      1611      1609      1614      1613
      1609      1614      1615      1610      1609      1614      1610      1611      1612
      1611      1608      1785      1611      1612      1615      1611      1612      1789
      1612      1615      1614      1612      1615      1616      1612      1789      1790
      1612      1789      1794      1613      1614      1615      1613      1618      1617
      1613      1618      1619      1614      1613      1618      1614      1615      1616
      1615      1612      1789      1615      1616      1619      1615      1616      1793
      1616      1619      1618      1616      1619      1620      1616      1793      1794
      1616      1793      1798      1617      1618      1619      1618      1619      1620
      1619      1616      1793      1619      1620      1797      1620      1797      1798
      1621      1622      1623      1621      1626      1625      1621      1626      1627
      1622      1621      1626      1622      1623      1624      1623      1624      1801
      1623      1624      1627      1624      1627      1626      1624      1627      1628
      1624      1801      1802      1624      1801      1806      1625      1626      1627
      1625      1630      1629      1625      1630      1631      1626      1625      1630
      1626      1627      1628      1627      1624      1801      1627      1628      1805
      1627      1628      1631      1628      1631      1630      1628      1631      1632
      1628      1805      1806      1628      1805      1810      1629      1630      1631
      1629      1634      1633      1629      1634      1635      1630      1629      1634
      1630      1631      1632      1631      1628      1805      1631      1632      1635
      1631      1632      1809      1632      1635      1634      1632      1635      1636
      1632      1809      1810      1632      1809      1814      1633      1634      1635
      1633      1638      1637      1633      1638      1639      1634      1633      1638
      1634      1635      1636      1635      1632      1809      1635      1636      1639
      1635      1636      1813      1636      1639      1638      1636      1639      1640
      1636      1813      1814      1636      1813      1818      1637      1638      1639
      1637      1642      1641      1637      1642      1643      1638      1637      1642
      1638      1639      1640      1639      1636      1813      1639      1640      1817
      1639      1640      1643      1640      1643      1642      1640      1643      1644
      1640      1817      1818      1640      1817      1822      1641      1642      1643
      1641      1646      1645      1641      1646      1647      1642      1641      1646
      1642      1643      1644      1643      1640      1817      1643      1644      1821
      1643      1644      1647      1644      1647      1646      1644      1647      1648
      1644      1821      1822      1644      1821      1826      1645      1646      1647
      1645      1650      1649      1645      1650      1651      1646      1645      1650
      1646      1647      1648      1647      1644      1821      1647      1648      1825
      1647      1648      1651      1648      1651      1650      1648      1651      1652
      1648      1825      1826      1648      1825      1830      1649      1650      1651
      1649      1654      1653      1649      1654      1655      1650      1649      1654
      1650      1651      1652      1651      1648      1825      1651      1652      1655
      1651      1652      1829      1652      1655      1654      1652      1655      1656
      1652      1829      1834      1652      1829      1830      1653      1654      1655
      1653      1658      1657      1653      1658      1659      1654      1653      1658
      1654      1655      1656      1655      1652      1829      1655      1656      1659
      1655      1656      1833      1656      1659      1658      1656      1659      1660
      1656      1833      1838      1656      1833      1834      1657      1658      1659
      1657      1662      1661      1657      1662      1663      1658      1657      1662
      1658      1659      1660      1659      1656      1833      1659      1660      1837
      1659      1660      1663      1660      1663      1662      1660      1663      1664
      1660      1837      1842      1660      1837      1838      1661      1662      1663
      1661      1666      1665      1661      1666      1667      1662      1661      1666
      1662      1663      1664      1663      1660      1837      1663      1664      1841
      1663      1664      1667      1664      1667      1666      1664      1667      1668
      1664      1841      1842      1664      1841      1846      1665      1666      1667
      1665      1670      1669      1665      1670      1671      1666      1665      1670
      1666      1667      1668      1667      1664      1841      1667      1668      1845
      1667      1668      1671      1668      1671      1670      1668      1671      1672
      1668      1845      1846      1668      1845      1850      1669      1670      1671
      1669      1674      1673      1669      1674      1675      1670      1669      1674
      1670      1671      1672      1671      1668      1845      1671      1672      1849
      1671      1672      1675      1672      1675      1674      1672      1675      1676
      1672      1849      1854      1672      1849      1850      1673      1674      1675
      1673      1678      1677      1673      1678      1679      1674      1673      1678
      1674      1675      1676      1675      1672      1849      1675      1676      1853
      1675      1676      1679      1676      1679      1678      1676      1679      1680
      1676      1853      1858      1676      1853      1854      1677      1678      1679
      1677      1682      1681      1677      1682      1683      1678      1677      1682
      1678      1679      1680      1679      1676      1853      1679      1680      1857
      1679      1680      1683      1680      1683      1682      1680      1683      1684
      1680      1857      1862      1680      1857      1858      1681      1682      1683
      1681      1686      1685      1681      1686      1687      1682      1681      1686
      1682      1683      1684      1683      1680      1857      1683      1684      1861
      1683      1684      1687      1684      1687      1686      1684      1687      1688
      1684      1861      1862      1684      1861      1866      1685      1686      1687
      1685      1690      1689      1685      1690      1691      1686      1685      1690
      1686      1687      1688      1687      1684      1861      1687      1688      1865
      1687      1688      1691      1688      1691      1690      1688      1691      1692
      1688      1865      1866      1688      1865      1870      1689      1690      1691
      1689      1694      1693      1689      1694      1695      1690      1689      1694
      1690      1691      1692      1691      1688      1865      1691      1692      1695
      1691      1692      1869      1692      1695      1694      1692      1695      1696
      1692      1869      1870      1692      1869      1874      1693      1694      1695
      1693      1698      1697      1693      1698      1699      1694      1693      1698
      1694      1695      1696      1695      1692      1869      1695      1696      1699
      1695      1696      1873      1696      1699      1698      1696      1699      1700
      1696      1873      1874      1696      1873      1878      1697      1698      1699
      1697      1702      1701      1697      1702      1703      1698      1697      1702
      1698      1699      1700      1699      1696      1873      1699      1700      1877
      1699      1700      1703      1700      1703      1702      1700      1703      1704
      1700      1877      1878      1700      1877      1882      1701      1702      1703
      1701      1706      1705      1701      1706      1707      1702      1701      1706
      1702      1703      1704      1703      1700      1877      1703      1704      1881
      1703      1704      1707      1704      1707      1706      1704      1707      1708
      1704      1881      1882      1704      1881      1886      1705      1706      1707
      1705      1710      1709      1705      1710      1711      1706      1705      1710
      1706      1707      1708      1707      1704      1881      1707      1708      1885
      1707      1708      1711      1708      1711      1710      1708      1711      1712
      1708      1885      1886      1708      1885      1890      1709      1710      1711
      1709      1714      1713      1709      1714      1715      1710      1709      1714
      1710      1711      1712      1711      1708      1885      1711      1712      1715
      1711      1712      1889      1712      1715      1714      1712      1715      1716
      1712      1889      1894      1712      1889      1890      1713      1714      1715
      1713      1718      1717      1713      1718      1719      1714      1713      1718
      1714      1715      1716      1715      1712      1889      1715      1716      1719
      1715      1716      1893      1716      1719      1718      1716      1719      1720
      1716      1893      1898      1716      1893      1894      1717      1718      1719
      1717      1722      1721      1717      1722      1723      1718      1717      1722
      1718      1719      1720      1719      1716      1893      1719      1720      1897
      1719      1720      1723      1720      1723      1722      1720      1723      1724
      1720      1897      1902      1720      1897      1898      1721      1722      1723
      1721      1726      1725      1721      1726      1727      1722      1721      1726
      1722      1723      1724      1723      1720      1897      1723      1724      1901
      1723      1724      1727      1724      1727      1726      1724      1727      1728
      1724      1901      1902      1724      1901      1906      1725      1726      1727
      1725      1730      1729      1725      1730      1731      1726      1725      1730
      1726      1727      1728      1727      1724      1901      1727      1728      1905
      1727      1728      1731      1728      1731      1730      1728      1731      1732
      1728      1905      1906      1728      1905      1910      1729      1730      1731
      1729      1734      1733      1729      1734      1735      1730      1729      1734
      1730      1731      1732      1731      1728      1905      1731      1732      1735
      1731      1732      1909      1732      1735      1734      1732      1735      1736
      1732      1909      1914      1732      1909      1910      1733      1734      1735
      1733      1738      1737      1733      1738      1739      1734      1733      1738
      1734      1735      1736      1735      1732      1909      1735      1736      1913
      1735      1736      1739      1736      1739      1738      1736      1739      1740
      1736      1913      1918      1736      1913      1914      1737      1738      1739
      1737      1742      1741      1737      1742      1743      1738      1737      1742
      1738      1739      1740      1739      1736      1913      1739      1740      1917
      1739      1740      1743      1740      1743      1742      1740      1743      1744
      1740      1917      1922      1740      1917      1918      1741      1742      1743
      1741      1746      1745      1741      1746      1747      1742      1741      1746
      1742      1743      1744      1743      1740      1917      1743      1744      1921
      1743      1744      1747      1744      1747      1746      1744      1747      1748
      1744      1921      1922      1744      1921      1926      1745      1746      1747
      1745      1750      1749      1745      1750      1751      1746      1745      1750
      1746      1747      1748      1747      1744      1921      1747      1748      1925
      1747      1748      1751      1748      1751      1750      1748      1751      1752
      1748      1925      1926      1748      1925      1930      1749      1750      1751
      1749      1754      1753      1749      1754      1755      1750      1749      1754
      1750      1751      1752      1751      1748      1925      1751      1752      1929
      1751      1752      1755      1752      1755      1754      1752      1755      1756
      1752      1929      1934      1752      1929      1930      1753      1754      1755
      1753      1758      1757      1753      1758      1759      1754      1753      1758
      1754      1755      1756      1755      1752      1929      1755      1756      1759
      1755      1756      1933      1756      1759      1758      1756      1759      1760
      1756      1933      1934      1756      1933      1938      1757      1758      1759
      1757      1762      1761      1757      1762      1763      1758      1757      1762
      1758      1759      1760      1759      1756      1933      1759      1760      1937
      1759      1760      1763      1760      1763      1762      1760      1763      1764
      1760      1937      1938      1760      1937      1942      1761      1762      1763
      1761      1766      1765      1761      1766      1767      1762      1761      1766
      1762      1763      1764      1763      1760      1937      1763      1764      1941
      1763      1764      1767      1764      1767      1766      1764      1767      1768
      1764      1941      1942      1764      1941      1946      1765      1766      1767
      1765      1770      1769      1765      1770      1771      1766      1765      1770
      1766      1767      1768      1767      1764      1941      1767      1768      1945
      1767      1768      1771      1768      1771      1770      1768      1771      1772
      1768      1945      1946      1768      1945      1950      1769      1770      1771
      1769      1774      1773      1769      1774      1775      1770      1769      1774
      1770      1771      1772      1771      1768      1945      1771      1772      1775
      1771      1772      1949      1772      1775      1774      1772      1775      1776
      1772      1949      1950      1772      1949      1954      1773      1774      1775
      1773      1778      1777      1773      1778      1779      1774      1773      1778
      1774      1775      1776      1775      1772      1949      1775      1776      1779
      1775      1776      1953      1776      1779      1778      1776      1779      1780
      1776      1953      1954      1776      1953      1958      1777      1778      1779
      1777      1782      1781      1777      1782      1783      1778      1777      1782
      1778      1779      1780      1779      1776      1953      1779      1780      1957
      1779      1780      1783      1780      1783      1782      1780      1783      1784
      1780      1957      1962      1780      1957      1958      1781      1782      1783
      1781      1786      1785      1781      1786      1787      1782      1781      1786
      1782      1783      1784      1783      1780      1957      1783      1784      1961
      1783      1784      1787      1784      1787      1786      1784      1787      1788
      1784      1961      1962      1784      1961      1966      1785      1786      1787
      1785      1790      1789      1785      1790      1791      1786      1785      1790
      1786      1787      1788      1787      1784      1961      1787      1788      1965
      1787      1788      1791      1788      1791      1790      1788      1791      1792
      1788      1965      1966      1788      1965      1970      1789      1790      1791
      1789      1794      1793      1789      1794      1795      1790      1789      1794
      1790      1791      1792      1791      1788      1965      1791      1792      1795
      1791      1792      1969      1792      1795      1794      1792      1795      1796
      1792      1969      1974      1792      1969      1970      1793      1794      1795
      1793      1798      1797      1793      1798      1799      1794      1793      1798
      1794      1795      1796      1795      1792      1969      1795      1796      1799
      1795      1796      1973      1796      1799      1798      1796      1799      1800
      1796      1973      1978      1796      1973      1974      1797      1798      1799
      1798      1799      1800      1799      1796      1973      1799      1800      1977
      1800      1977      1978      1801      1802      1803      1801      1806      1805
      1801      1806      1807      1802      1801      1806      1802      1803      1804
      1803      1804      1981      1803      1804      1807      1804      1807      1806
      1804      1807      1808      1804      1981      1982      1804      1981      1986
      1805      1806      1807      1805      1810      1809      1805      1810      1811
      1806      1805      1810      1806      1807      1808      1807      1804      1981
      1807      1808      1985      1807      1808      1811      1808      1811      1810
      1808      1811      1812      1808      1985      1986      1808      1985      1990
      1809      1810      1811      1809      1814      1813      1809      1814      1815
      1810      1809      1814      1810      1811      1812      1811      1808      1985
      1811      1812      1815      1811      1812      1989      1812      1815      1814
      1812      1815      1816      1812      1989      1994      1812      1989      1990
      1813      1814      1815      1813      1818      1817      1813      1818      1819
      1814      1813      1818      1814      1815      1816      1815      1812      1989
      1815      1816      1819      1815      1816      1993      1816      1819      1818
      1816      1819      1820      1816      1993      1998      1816      1993      1994
      1817      1818      1819      1817      1822      1821      1817      1822      1823
      1818      1817      1822      1818      1819      1820      1819      1816      1993
      1819      1820      1997      1819      1820      1823      1820      1823      1822
      1820      1823      1824      1820      1997      2002      1820      1997      1998
      1821      1822      1823      1821      1826      1825      1821      1826      1827
      1822      1821      1826      1822      1823      1824      1823      1820      1997
      1823      1824      2001      1823      1824      1827      1824      1827      1826
      1824      1827      1828      1824      2001      2002      1824      2001      2006
      1825      1826      1827      1825      1830      1829      1825      1830      1831
      1826      1825      1830      1826      1827      1828      1827      1824      2001
      1827      1828      2005      1827      1828      1831      1828      1831      1830
      1828      1831      1832      1828      2005      2006      1828      2005      2010
      1829      1830      1831      1829      1834      1833      1829      1834      1835
      1830      1829      1834      1830      1831      1832      1831      1828      2005
      1831      1832      2009      1831      1832      1835      1832      1835      1834
      1832      1835      1836      1832      2009      2014      1832      2009      2010
      1833      1834      1835      1833      1838      1837      1833      1838      1839
      1834      1833      1838      1834      1835      1836      1835      1832      2009
      1835      1836      2013      1835      1836      1839      1836      1839      1838
      1836      1839      1840      1836      2013      2018      1836      2013      2014
      1837      1838      1839      1837      1842      1841      1837      1842      1843
      1838      1837      1842      1838      1839      1840      1839      1836      2013
      1839      1840      2017      1839      1840      1843      1840      1843      1842
      1840      1843      1844      1840      2017      2022      1840      2017      2018
      1841      1842      1843      1841      1846      1845      1841      1846      1847
      1842      1841      1846      1842      1843      1844      1843      1840      2017
      1843      1844      2021      1843      1844      1847      1844      1847      1846
      1844      1847      1848      1844      2021      2022      1844      2021      2026
      1845      1846      1847      1845      1850      1849      1845      1850      1851
      1846      1845      1850      1846      1847      1848      1847      1844      2021
      1847      1848      2025      1847      1848      1851      1848      1851      1850
      1848      1851      1852      1848      2025      2026      1848      2025      2030
      1849      1850      1851      1849      1854      1853      1849      1854      1855
      1850      1849      1854      1850      1851      1852      1851      1848      2025
      1851      1852      1855      1851      1852      2029      1852      1855      1854
      1852      1855      1856      1852      2029      2030      1852      2029      2034
      1853      1854      1855      1853      1858      1857      1853      1858      1859
      1854      1853      1858      1854      1855      1856      1855      1852      2029
      1855      1856      1859      1855      1856      2033      1856      1859      1858
      1856      1859      1860      1856      2033      2034      1856      2033      2038
      1857      1858      1859      1857      1862      1861      1857      1862      1863
      1858      1857      1862      1858      1859      1860      1859      1856      2033
      1859      1860      2037      1859      1860      1863      1860      1863      1862
      1860      1863      1864      1860      2037      2038      1860      2037      2042
      1861      1862      1863      1861      1866      1865      1861      1866      1867
      1862      1861      1866      1862      1863      1864      1863      1860      2037
      1863      1864      2041      1863      1864      1867      1864      1867      1866
      1864      1867      1868      1864      2041      2042      1864      2041      2046
      1865      1866      1867      1865      1870      1869      1865      1870      1871
      1866      1865      1870      1866      1867      1868      1867      1864      2041
      1867      1868      2045      1867      1868      1871      1868      1871      1870
      1868      1871      1872      1868      2045      2046      1868      2045      2050
      1869      1870      1871      1869      1874      1873      1869      1874      1875
      1870      1869      1874      1870      1871      1872      1871      1868      2045
      1871      1872      1875      1871      1872      2049      1872      1875      1874
      1872      1875      1876      1872      2049      2054      1872      2049      2050
      1873      1874      1875      1873      1878      1877      1873      1878      1879
      1874      1873      1878      1874      1875      1876      1875      1872      2049
      1875      1876      1879      1875      1876      2053      1876      1879      1878
      1876      1879      1880      1876      2053      2058      1876      2053      2054
      1877      1878      1879      1877      1882      1881      1877      1882      1883
      1878      1877      1882      1878      1879      1880      1879      1876      2053
      1879      1880      2057      1879      1880      1883      1880      1883      1882
      1880      1883      1884      1880      2057      2062      1880      2057      2058
      1881      1882      1883      1881      1886      1885      1881      1886      1887
      1882      1881      1886      1882      1883      1884      1883      1880      2057
      1883      1884      2061      1883      1884      1887      1884      1887      1886
      1884      1887      1888      1884      2061      2062      1884      2061      2066
      1885      1886      1887      1885      1890      1889      1885      1890      1891
      1886      1885      1890      1886      1887      1888      1887      1884      2061
      1887      1888      2065      1887      1888      1891      1888      1891      1890
      1888      1891      1892      1888      2065      2066      1888      2065      2070
      1889      1890      1891      1889      1894      1893      1889      1894      1895
      1890      1889      1894      1890      1891      1892      1891      1888      2065
      1891      1892      2069      1891      1892      1895      1892      1895      1894
      1892      1895      1896      1892      2069      2074      1892      2069      2070
      1893      1894      1895      1893      1898      1897      1893      1898      1899
      1894      1893      1898      1894      1895      1896      1895      1892      2069
      1895      1896      2073      1895      1896      1899      1896      1899      1898
      1896      1899      1900      1896      2073      2078      1896      2073      2074
      1897      1898      1899      1897      1902      1901      1897      1902      1903
      1898      1897      1902      1898      1899      1900      1899      1896      2073
      1899      1900      2077      1899      1900      1903      1900      1903      1902
      1900      1903      1904      1900      2077      2082      1900      2077      2078
      1901      1902      1903      1901      1906      1905      1901      1906      1907
      1902      1901      1906      1902      1903      1904      1903      1900      2077
      1903      1904      2081      1903      1904      1907      1904      1907      1906
      1904      1907      1908      1904      2081      2082      1904      2081      2086
      1905      1906      1907      1905      1910      1909      1905      1910      1911
      1906      1905      1910      1906      1907      1908      1907      1904      2081
      1907      1908      2085      1907      1908      1911      1908      1911      1910
      1908      1911      1912      1908      2085      2086      1908      2085      2090
      1909      1910      1911      1909      1914      1913      1909      1914      1915
      1910      1909      1914      1910      1911      1912      1911      1908      2085
      1911      1912      1915      1911      1912      2089      1912      1915      1914
      1912      1915      1916      1912      2089      2090      1912      2089      2094
      1913      1914      1915      1913      1918      1917      1913      1918      1919
      1914      1913      1918      1914      1915      1916      1915      1912      2089
      1915      1916      1919      1915      1916      2093      1916      1919      1918
      1916      1919      1920      1916      2093      2094      1916      2093      2098
      1917      1918      1919      1917      1922      1921      1917      1922      1923
      1918      1917      1922      1918      1919      1920      1919      1916      2093
      1919      1920      2097      1919      1920      1923      1920      1923      1922
      1920      1923      1924      1920      2097      2098      1920      2097      2102
      1921      1922      1923      1921      1926      1925      1921      1926      1927
      1922      1921      1926      1922      1923      1924      1923      1920      2097
      1923      1924      2101      1923      1924      1927      1924      1927      1926
      1924      1927      1928      1924      2101      2102      1924      2101      2106
      1925      1926      1927      1925      1930      1929      1925      1930      1931
      1926      1925      1930      1926      1927      1928      1927      1924      2101
      1927      1928      2105      1927      1928      1931      1928      1931      1930
      1928      1931      1932      1928      2105      2106      1928      2105      2110
      1929      1930      1931      1929      1934      1933      1929      1934      1935
      1930      1929      1934      1930      1931      1932      1931      1928      2105
      1931      1932      1935      1931      1932      2109      1932      1935      1934
      1932      1935      1936      1932      2109      2114      1932      2109      2110
      1933      1934      1935      1933      1938      1937      1933      1938      1939
      1934      1933      1938      1934      1935      1936      1935      1932      2109
      1935      1936      1939      1935      1936      2113      1936      1939      1938
      1936      1939      1940      1936      2113      2118      1936      2113      2114
      1937      1938      1939      1937      1942      1941      1937      1942      1943
      1938      1937      1942      1938      1939      1940      1939      1936      2113
      1939      1940      2117      1939      1940      1943      1940      1943      1942
      1940      1943      1944      1940      2117      2122      1940      2117      2118
      1941      1942      1943      1941      1946      1945      1941      1946      1947
      1942      1941      1946      1942      1943      1944      1943      1940      2117
      1943      1944      2121      1943      1944      1947      1944      1947      1946
      1944      1947      1948      1944      2121      2122      1944      2121      2126
      1945      1946      1947      1945      1950      1949      1945      1950      1951
      1946      1945      1950      1946      1947      1948      1947      1944      2121
      1947      1948      2125      1947      1948      1951      1948      1951      1950
      1948      1951      1952      1948      2125      2126      1948      2125      2130
      1949      1950      1951      1949      1954      1953      1949      1954      1955
      1950      1949      1954      1950      1951      1952      1951      1948      2125
      1951      1952      1955      1951      1952      2129      1952      1955      1954
      1952      1955      1956      1952      2129      2134      1952      2129      2130
      1953      1954      1955      1953      1958      1957      1953      1958      1959
      1954      1953      1958      1954      1955      1956      1955      1952      2129
      1955      1956      2133      1955      1956      1959      1956      1959      1958
      1956      1959      1960      1956      2133      2138      1956      2133      2134
      1957      1958      1959      1957      1962      1961      1957      1962      1963
      1958      1957      1962      1958      1959      1960      1959      1956      2133
      1959      1960      2137      1959      1960      1963      1960      1963      1962
      1960      1963      1964      1960      2137      2142      1960      2137      2138
      1961      1962      1963      1961      1966      1965      1961      1966      1967
      1962      1961      1966      1962      1963      1964      1963      1960      2137
      1963      1964      2141      1963      1964      1967      1964      1967      1966
      1964      1967      1968      1964      2141      2142      1964      2141      2146
      1965      1966      1967      1965      1970      1969      1965      1970      1971
      1966      1965      1970      1966      1967      1968      1967      1964      2141
      1967      1968      2145      1967      1968      1971      1968      1971      1970
      1968      1971      1972      1968      2145      2146      1968      2145      2150
      1969      1970      1971      1969      1974      1973      1969      1974      1975
      1970      1969      1974      1970      1971      1972      1971      1968      2145
      1971      1972      2149      1971      1972      1975      1972      1975      1974
      1972      1975      1976      1972      2149      2154      1972      2149      2150
      1973      1974      1975      1973      1978      1977      1973      1978      1979
      1974      1973      1978      1974      1975      1976      1975      1972      2149
      1975      1976      1979      1975      1976      2153      1976      1979      1978
      1976      1979      1980      1976      2153      2154      1976      2153      2158
      1977      1978      1979      1978      1979      1980      1979      1976      2153
      1979      1980      2157      1980      2157      2158      1981      1982      1983
      1981      1986      1985      1981      1986      1987      1982      1981      1986
      1982      1983      1984      1983      1984      2161      1983      1984      1987
      1984      1987      1986      1984      1987      1988      1984      2161      2162
      1984      2161      2166      1985      1986      1987      1985      1990      1989
      1985      1990      1991      1986      1985      1990      1986      1987      1988
      1987      1984      2161      1987      1988      2165      1987      1988      1991
      1988      1991      1990      1988      1991      1992      1988      2165      2166
      1988      2165      2170      1989      1990      1991      1989      1994      1993
      1989      1994      1995      1990      1989      1994      1990      1991      1992
      1991      1988      2165      1991      1992      2169      1991      1992      1995
      1992      1995      1994      1992      1995      1996      1992      2169      2174
      1992      2169      2170      1993      1994      1995      1993      1998      1997
      1993      1998      1999      1994      1993      1998      1994      1995      1996
      1995      1992      2169      1995      1996      1999      1995      1996      2173
      1996      1999      1998      1996      1999      2000      1996      2173      2178
      1996      2173      2174      1997      1998      1999      1997      2002      2001
      1997      2002      2003      1998      1997      2002      1998      1999      2000
      1999      1996      2173      1999      2000      2177      1999      2000      2003
      2000      2003      2002      2000      2003      2004      2000      2177      2182
      2000      2177      2178      2001      2002      2003      2001      2006      2005
      2001      2006      2007      2002      2001      2006      2002      2003      2004
      2003      2000      2177      2003      2004      2181      2003      2004      2007
      2004      2007      2006      2004      2007      2008      2004      2181      2182
      2004      2181      2186      2005      2006      2007      2005      2010      2009
      2005      2010      2011      2006      2005      2010      2006      2007      2008
      2007      2004      2181      2007      2008      2185      2007      2008      2011
      2008      2011      2010      2008      2011      2012      2008      2185      2186
      2008      2185      2190      2009      2010      2011      2009      2014      2013
      2009      2014      2015      2010      2009      2014      2010      2011      2012
      2011      2008      2185      2011      2012      2015      2011      2012      2189
      2012      2015      2014      2012      2015      2016      2012      2189      2194
      2012      2189      2190      2013      2014      2015      2013      2018      2017
      2013      2018      2019      2014      2013      2018      2014      2015      2016
      2015      2012      2189      2015      2016      2019      2015      2016      2193
      2016      2019      2018      2016      2019      2020      2016      2193      2194
      2016      2193      2198      2017      2018      2019      2017      2022      2021
      2017      2022      2023      2018      2017      2022      2018      2019      2020
      2019      2016      2193      2019      2020      2197      2019      2020      2023
      2020      2023      2022      2020      2023      2024      2020      2197      2202
      2020      2197      2198      2021      2022      2023      2021      2026      2025
      2021      2026      2027      2022      2021      2026      2022      2023      2024
      2023      2020      2197      2023      2024      2201      2023      2024      2027
      2024      2027      2026      2024      2027      2028      2024      2201      2202
      2024      2201      2206      2025      2026      2027      2025      2030      2029
      2025      2030      2031      2026      2025      2030      2026      2027      2028
      2027      2024      2201      2027      2028      2205      2027      2028      2031
      2028      2031      2030      2028      2031      2032      2028      2205      2206
      2028      2205      2210      2029      2030      2031      2029      2034      2033
      2029      2034      2035      2030      2029      2034      2030      2031      2032
      2031      2028      2205      2031      2032      2035      2031      2032      2209
      2032      2035      2034      2032      2035      2036      2032      2209      2214
      2032      2209      2210      2033      2034      2035      2033      2038      2037
      2033      2038      2039      2034      2033      2038      2034      2035      2036
      2035      2032      2209      2035      2036      2039      2035      2036      2213
      2036      2039      2038      2036      2039      2040      2036      2213      2218
      2036      2213      2214      2037      2038      2039      2037      2042      2041
      2037      2042      2043      2038      2037      2042      2038      2039      2040
      2039      2036      2213      2039      2040      2217      2039      2040      2043
      2040      2043      2042      2040      2043      2044      2040      2217      2222
      2040      2217      2218      2041      2042      2043      2041      2046      2045
      2041      2046      2047      2042      2041      2046      2042      2043      2044
      2043      2040      2217      2043      2044      2221      2043      2044      2047
      2044      2047      2046      2044      2047      2048      2044      2221      2222
      2044      2221      2226      2045      2046      2047      2045      2050      2049
      2045      2050      2051      2046      2045      2050      2046      2047      2048
      2047      2044      2221      2047      2048      2225      2047      2048      2051
      2048      2051      2050      2048      2051      2052      2048      2225      2226
      2048      2225      2230      2049      2050      2051      2049      2054      2053
      2049      2054      2055      2050      2049      2054      2050      2051      2052
      2051      2048      2225      2051      2052      2229      2051      2052      2055
      2052      2055      2054      2052      2055      2056      2052      2229      2234
      2052      2229      2230      2053      2054      2055      2053      2058      2057
      2053      2058      2059      2054      2053      2058      2054      2055      2056
      2055      2052      2229      2055      2056      2233      2055      2056      2059
      2056      2059      2058      2056      2059      2060      2056      2233      2238
      2056      2233      2234      2057      2058      2059      2057      2062      2061
      2057      2062      2063      2058      2057      2062      2058      2059      2060
      2059      2056      2233      2059      2060      2237      2059      2060      2063
      2060      2063      2062      2060      2063      2064      2060      2237      2242
      2060      2237      2238      2061      2062      2063      2061      2066      2065
      2061      2066      2067      2062      2061      2066      2062      2063      2064
      2063      2060      2237      2063      2064      2241      2063      2064      2067
      2064      2067      2066      2064      2067      2068      2064      2241      2242
      2064      2241      2246      2065      2066      2067      2065      2070      2069
      2065      2070      2071      2066      2065      2070      2066      2067      2068
      2067      2064      2241      2067      2068      2245      2067      2068      2071
      2068      2071      2070      2068      2071      2072      2068      2245      2246
      2068      2245      2250      2069      2070      2071      2069      2074      2073
      2069      2074      2075      2070      2069      2074      2070      2071      2072
      2071      2068      2245      2071      2072      2075      2071      2072      2249
      2072      2075      2074      2072      2075      2076      2072      2249      2254
      2072      2249      2250      2073      2074      2075      2073      2078      2077
      2073      2078      2079      2074      2073      2078      2074      2075      2076
      2075      2072      2249      2075      2076      2079      2075      2076      2253
      2076      2079      2078      2076      2079      2080      2076      2253      2258
      2076      2253      2254      2077      2078      2079      2077      2082      2081
      2077      2082      2083      2078      2077      2082      2078      2079      2080
      2079      2076      2253      2079      2080      2257      2079      2080      2083
      2080      2083      2082      2080      2083      2084      2080      2257      2262
      2080      2257      2258      2081      2082      2083      2081      2086      2085
      2081      2086      2087      2082      2081      2086      2082      2083      2084
      2083      2080      2257      2083      2084      2261      2083      2084      2087
      2084      2087      2086      2084      2087      2088      2084      2261      2262
      2084      2261      2266      2085      2086      2087      2085      2090      2089
      2085      2090      2091      2086      2085      2090      2086      2087      2088
      2087      2084      2261      2087      2088      2265      2087      2088      2091
      2088      2091      2090      2088      2091      2092      2088      2265      2266
      2088      2265      2270      2089      2090      2091      2089      2094      2093
      2089      2094      2095      2090      2089      2094      2090      2091      2092
      2091      2088      2265      2091      2092      2095      2091      2092      2269
      2092      2095      2094      2092      2095      2096      2092      2269      2274
      2092      2269      2270      2093      2094      2095      2093      2098      2097
      2093      2098      2099      2094      2093      2098      2094      2095      2096
      2095      2092      2269      2095      2096      2099      2095      2096      2273
      2096      2099      2098      2096      2099      2100      2096      2273      2278
      2096      2273      2274      2097      2098      2099      2097      2102      2101
      2097      2102      2103      2098      2097      2102      2098      2099      2100
      2099      2096      2273      2099      2100      2277      2099      2100      2103
      2100      2103      2102      2100      2103      2104      2100      2277      2282
      2100      2277      2278      2101      2102      2103      2101      2106      2105
      2101      2106      2107      2102      2101      2106      2102      2103      2104
      2103      2100      2277      2103      2104      2281      2103      2104      2107
      2104      2107      2106      2104      2107      2108      2104      2281      2282
      2104      2281      2286      2105      2106      2107      2105      2110      2109
      2105      2110      2111      2106      2105      2110      2106      2107      2108
      2107      2104      2281      2107      2108      2285      2107      2108      2111
      2108      2111      2110      2108      2111      2112      2108      2285      2286
      2108      2285      2290      2109      2110      2111      2109      2114      2113
      2109      2114      2115      2110      2109      2114      2110      2111      2112
      2111      2108      2285      2111      2112      2289      2111      2112      2115
      2112      2115      2114      2112      2115      2116      2112      2289      2294
      2112      2289      2290      2113      2114      2115      2113      2118      2117
      2113      2118      2119      2114      2113      2118      2114      2115      2116
      2115      2112      2289      2115      2116      2293      2115      2116      2119
      2116      2119      2118      2116      2119      2120      2116      2293      2298
      2116      2293      2294      2117      2118      2119      2117      2122      2121
      2117      2122      2123      2118      2117      2122      2118      2119      2120
      2119      2116      2293      2119      2120      2297      2119      2120      2123
      2120      2123      2122      2120      2123      2124      2120      2297      2302
      2120      2297      2298      2121      2122      2123      2121      2126      2125
      2121      2126      2127      2122      2121      2126      2122      2123      2124
      2123      2120      2297      2123      2124      2301      2123      2124      2127
      2124      2127      2126      2124      2127      2128      2124      2301      2302
      2124      2301      2306      2125      2126      2127      2125      2130      2129
      2125      2130      2131      2126      2125      2130      2126      2127      2128
      2127      2124      2301      2127      2128      2305      2127      2128      2131
      2128      2131      2130      2128      2131      2132      2128      2305      2306
      2128      2305      2310      2129      2130      2131      2129      2134      2133
      2129      2134      2135      2130      2129      2134      2130      2131      2132
      2131      2128      2305      2131      2132      2135      2131      2132      2309
      2132      2135      2134      2132      2135      2136      2132      2309      2314
      2132      2309      2310      2133      2134      2135      2133      2138      2137
      2133      2138      2139      2134      2133      2138      2134      2135      2136
      2135      2132      2309      2135      2136      2139      2135      2136      2313
      2136      2139      2138      2136      2139      2140      2136      2313      2318
      2136      2313      2314      2137      2138      2139      2137      2142      2141
      2137      2142      2143      2138      2137      2142      2138      2139      2140
      2139      2136      2313      2139      2140      2317      2139      2140      2143
      2140      2143      2142      2140      2143      2144      2140      2317      2322
      2140      2317      2318      2141      2142      2143      2141      2146      2145
      2141      2146      2147      2142      2141      2146      2142      2143      2144
      2143      2140      2317      2143      2144      2321      2143      2144      2147
      2144      2147      2146      2144      2147      2148      2144      2321      2322
      2144      2321      2326      2145      2146      2147      2145      2150      2149
      2145      2150      2151      2146      2145      2150      2146      2147      2148
      2147      2144      2321      2147      2148      2325      2147      2148      2151
      2148      2151      2150      2148      2151      2152      2148      2325      2326
      2148      2325      2330      2149      2150      2151      2149      2154      2153
      2149      2154      2155      2150      2149      2154      2150      2151      2152
      2151      2148      2325      2151      2152      2155      2151      2152      2329
      2152      2155      2154      2152      2155      2156      2152      2329      2334
      2152      2329      2330      2153      2154      2155      2153      2158      2157
      2153      2158      2159      2154      2153      2158      2154      2155      2156
      2155      2152      2329      2155      2156      2159      2155      2156      2333
      2156      2159      2158      2156      2159      2160      2156      2333      2338
      2156      2333      2334      2157      2158      2159      2158      2159      2160
      2159      2156      2333      2159      2160      2337      2160      2337      2338
      2161      2162      2163      2161      2166      2165      2161      2166      2167
      2162      2161      2166      2162      2163      2164      2163      2164      2167
      2163      2164      2341      2164      2167      2166      2164      2167      2168
      2164      2341      2342      2164      2341      2346      2165      2166      2167
      2165      2170      2169      2165      2170      2171      2166      2165      2170
      2166      2167      2168      2167      2164      2341      2167      2168      2171
      2167      2168      2345      2168      2171      2170      2168      2171      2172
      2168      2345      2346      2168      2345      2350      2169      2170      2171
      2169      2174      2173      2169      2174      2175      2170      2169      2174
      2170      2171      2172      2171      2168      2345      2171      2172      2175
      2171      2172      2349      2172      2175      2174      2172      2175      2176
      2172      2349      2354      2172      2349      2350      2173      2174      2175
      2173      2178      2177      2173      2178      2179      2174      2173      2178
      2174      2175      2176      2175      2172      2349      2175      2176      2179
      2175      2176      2353      2176      2179      2178      2176      2179      2180
      2176      2353      2358      2176      2353      2354      2177      2178      2179
      2177      2182      2181      2177      2182      2183      2178      2177      2182
      2178      2179      2180      2179      2176      2353      2179      2180      2183
      2179      2180      2357      2180      2183      2182      2180      2183      2184
      2180      2357      2362      2180      2357      2358      2181      2182      2183
      2181      2186      2185      2181      2186      2187      2182      2181      2186
      2182      2183      2184      2183      2180      2357      2183      2184      2187
      2183      2184      2361      2184      2187      2186      2184      2187      2188
      2184      2361      2362      2184      2361      2366      2185      2186      2187
      2185      2190      2189      2185      2190      2191      2186      2185      2190
      2186      2187      2188      2187      2184      2361      2187      2188      2191
      2187      2188      2365      2188      2191      2190      2188      2191      2192
      2188      2365      2366      2188      2365      2370      2189      2190      2191
      2189      2194      2193      2189      2194      2195      2190      2189      2194
      2190      2191      2192      2191      2188      2365      2191      2192      2195
      2191      2192      2369      2192      2195      2194      2192      2195      2196
      2192      2369      2374      2192      2369      2370      2193      2194      2195
      2193      2198      2197      2193      2198      2199      2194      2193      2198
      2194      2195      2196      2195      2192      2369      2195      2196      2199
      2195      2196      2373      2196      2199      2198      2196      2199      2200
      2196      2373      2378      2196      2373      2374      2197      2198      2199
      2197      2202      2201      2197      2202      2203      2198      2197      2202
      2198      2199      2200      2199      2196      2373      2199      2200      2203
      2199      2200      2377      2200      2203      2202      2200      2203      2204
      2200      2377      2382      2200      2377      2378      2201      2202      2203
      2201      2206      2205      2201      2206      2207      2202      2201      2206
      2202      2203      2204      2203      2200      2377      2203      2204      2207
      2203      2204      2381      2204      2207      2206      2204      2207      2208
      2204      2381      2382      2204      2381      2386      2205      2206      2207
      2205      2210      2209      2205      2210      2211      2206      2205      2210
      2206      2207      2208      2207      2204      2381      2207      2208      2211
      2207      2208      2385      2208      2211      2210      2208      2211      2212
      2208      2385      2386      2208      2385      2390      2209      2210      2211
      2209      2214      2213      2209      2214      2215      2210      2209      2214
      2210      2211      2212      2211      2208      2385      2211      2212      2215
      2211      2212      2389      2212      2215      2214      2212      2215      2216
      2212      2389      2394      2212      2389      2390      2213      2214      2215
      2213      2218      2217      2213      2218      2219      2214      2213      2218
      2214      2215      2216      2215      2212      2389      2215      2216      2219
      2215      2216      2393      2216      2219      2218      2216      2219      2220
      2216      2393      2398      2216      2393      2394      2217      2218      2219
      2217      2222      2221      2217      2222      2223      2218      2217      2222
      2218      2219      2220      2219      2216      2393      2219      2220      2223
      2219      2220      2397      2220      2223      2222      2220      2223      2224
      2220      2397      2402      2220      2397      2398      2221      2222      2223
      2221      2226      2225      2221      2226      2227      2222      2221      2226
      2222      2223      2224      2223      2220      2397      2223      2224      2227
      2223      2224      2401      2224      2227      2226      2224      2227      2228
      2224      2401      2402      2224      2401      2406      2225      2226      2227
      2225      2230      2229      2225      2230      2231      2226      2225      2230
      2226      2227      2228      2227      2224      2401      2227      2228      2231
      2227      2228      2405      2228      2231      2230      2228      2231      2232
      2228      2405      2406      2228      2405      2410      2229      2230      2231
      2229      2234      2233      2229      2234      2235      2230      2229      2234
      2230      2231      2232      2231      2228      2405      2231      2232      2235
      2231      2232      2409      2232      2235      2234      2232      2235      2236
      2232      2409      2414      2232      2409      2410      2233      2234      2235
      2233      2238      2237      2233      2238      2239      2234      2233      2238
      2234      2235      2236      2235      2232      2409      2235      2236      2239
      2235      2236      2413      2236      2239      2238      2236      2239      2240
      2236      2413      2414      2236      2413      2418      2237      2238      2239
      2237      2242      2241      2237      2242      2243      2238      2237      2242
      2238      2239      2240      2239      2236      2413      2239      2240      2243
      2239      2240      2417      2240      2243      2242      2240      2243      2244
      2240      2417      2422      2240      2417      2418      2241      2242      2243
      2241      2246      2245      2241      2246      2247      2242      2241      2246
      2242      2243      2244      2243      2240      2417      2243      2244      2247
      2243      2244      2421      2244      2247      2246      2244      2247      2248
      2244      2421      2422      2244      2421      2426      2245      2246      2247
      2245      2250      2249      2245      2250      2251      2246      2245      2250
      2246      2247      2248      2247      2244      2421      2247      2248      2251
      2247      2248      2425      2248      2251      2250      2248      2251      2252
      2248      2425      2426      2248      2425      2430      2249      2250      2251
      2249      2254      2253      2249      2254      2255      2250      2249      2254
      2250      2251      2252      2251      2248      2425      2251      2252      2255
      2251      2252      2429      2252      2255      2254      2252      2255      2256
      2252      2429      2434      2252      2429      2430      2253      2254      2255
      2253      2258      2257      2253      2258      2259      2254      2253      2258
      2254      2255      2256      2255      2252      2429      2255      2256      2259
      2255      2256      2433      2256      2259      2258      2256      2259      2260
      2256      2433      2438      2256      2433      2434      2257      2258      2259
      2257      2262      2261      2257      2262      2263      2258      2257      2262
      2258      2259      2260      2259      2256      2433      2259      2260      2263
      2259      2260      2437      2260      2263      2262      2260      2263      2264
      2260      2437      2442      2260      2437      2438      2261      2262      2263
      2261      2266      2265      2261      2266      2267      2262      2261      2266
      2262      2263      2264      2263      2260      2437      2263      2264      2267
      2263      2264      2441      2264      2267      2266      2264      2267      2268
      2264      2441      2442      2264      2441      2446      2265      2266      2267
      2265      2270      2269      2265      2270      2271      2266      2265      2270
      2266      2267      2268      2267      2264      2441      2267      2268      2271
      2267      2268      2445      2268      2271      2270      2268      2271      2272
      2268      2445      2446      2268      2445      2450      2269      2270      2271
      2269      2274      2273      2269      2274      2275      2270      2269      2274
      2270      2271      2272      2271      2268      2445      2271      2272      2275
      2271      2272      2449      2272      2275      2274      2272      2275      2276
      2272      2449      2454      2272      2449      2450      2273      2274      2275
      2273      2278      2277      2273      2278      2279      2274      2273      2278
      2274      2275      2276      2275      2272      2449      2275      2276      2279
      2275      2276      2453      2276      2279      2278      2276      2279      2280
      2276      2453      2458      2276      2453      2454      2277      2278      2279
      2277      2282      2281      2277      2282      2283      2278      2277      2282
      2278      2279      2280      2279      2276      2453      2279      2280      2283
      2279      2280      2457      2280      2283      2282      2280      2283      2284
      2280      2457      2462      2280      2457      2458      2281      2282      2283
      2281      2286      2285      2281      2286      2287      2282      2281      2286
      2282      2283      2284      2283      2280      2457      2283      2284      2287
      2283      2284      2461      2284      2287      2286      2284      2287      2288
      2284      2461      2462      2284      2461      2466      2285      2286      2287
      2285      2290      2289      2285      2290      2291      2286      2285      2290
      2286      2287      2288      2287      2284      2461      2287      2288      2291
      2287      2288      2465      2288      2291      2290      2288      2291      2292
      2288      2465      2466      2288      2465      2470      2289      2290      2291
      2289      2294      2293      2289      2294      2295      2290      2289      2294
      2290      2291      2292      2291      2288      2465      2291      2292      2295
      2291      2292      2469      2292      2295      2294      2292      2295      2296
      2292      2469      2474      2292      2469      2470      2293      2294      2295
      2293      2298      2297      2293      2298      2299      2294      2293      2298
      2294      2295      2296      2295      2292      2469      2295      2296      2299
      2295      2296      2473      2296      2299      2298      2296      2299      2300
      2296      2473      2478      2296      2473      2474      2297      2298      2299
      2297      2302      2301      2297      2302      2303      2298      2297      2302
      2298      2299      2300      2299      2296      2473      2299      2300      2303
      2299      2300      2477      2300      2303      2302      2300      2303      2304
      2300      2477      2482      2300      2477      2478      2301      2302      2303
      2301      2306      2305      2301      2306      2307      2302      2301      2306
      2302      2303      2304      2303      2300      2477      2303      2304      2307
      2303      2304      2481      2304      2307      2306      2304      2307      2308
      2304      2481      2482      2304      2481      2486      2305      2306      2307
      2305      2310      2309      2305      2310      2311      2306      2305      2310
      2306      2307      2308      2307      2304      2481      2307      2308      2311
      2307      2308      2485      2308      2311      2310      2308      2311      2312
      2308      2485      2486      2308      2485      2490      2309      2310      2311
      2309      2314      2313      2309      2314      2315      2310      2309      2314
      2310      2311      2312      2311      2308      2485      2311      2312      2315
      2311      2312      2489      2312      2315      2314      2312      2315      2316
      2312      2489      2494      2312      2489      2490      2313      2314      2315
      2313      2318      2317      2313      2318      2319      2314      2313      2318
      2314      2315      2316      2315      2312      2489      2315      2316      2319
      2315      2316      2493      2316      2319      2318      2316      2319      2320
      2316      2493      2498      2316      2493      2494      2317      2318      2319
      2317      2322      2321      2317      2322      2323      2318      2317      2322
      2318      2319      2320      2319      2316      2493      2319      2320      2323
      2319      2320      2497      2320      2323      2322      2320      2323      2324
      2320      2497      2502      2320      2497      2498      2321      2322      2323
      2321      2326      2325      2321      2326      2327      2322      2321      2326
      2322      2323      2324      2323      2320      2497      2323      2324      2327
      2323      2324      2501      2324      2327      2326      2324      2327      2328
      2324      2501      2502      2324      2501      2506      2325      2326      2327
      2325      2330      2329      2325      2330      2331      2326      2325      2330
      2326      2327      2328      2327      2324      2501      2327      2328      2331
      2327      2328      2505      2328      2331      2330      2328      2331      2332
      2328      2505      2506      2328      2505      2510      2329      2330      2331
      2329      2334      2333      2329      2334      2335      2330      2329      2334
      2330      2331      2332      2331      2328      2505      2331      2332      2335
      2331      2332      2509      2332      2335      2334      2332      2335      2336
      2332      2509      2514      2332      2509      2510      2333      2334      2335
      2333      2338      2337      2333      2338      2339      2334      2333      2338
      2334      2335      2336      2335      2332      2509      2335      2336      2339
      2335      2336      2513      2336      2339      2338      2336      2339      2340
      2336      2513      2518      2336      2513      2514      2337      2338      2339
      2338      2339      2340      2339      2336      2513      2339      2340      2517
      2340      2517      2518      2341      2342      2343      2341      2346      2345
      2341      2346      2347      2342      2341      2346      2342      2343      2344
      2343      2344      2347      2343      2344      2521      2344      2347      2346
      2344      2347      2348      2344      2521      2522      2344      2521      2526
      2345      2346      2347      2345      2350      2349      2345      2350      2351
      2346      2345      2350      2346      2347      2348      2347      2344      2521
      2347      2348      2351      2347      2348      2525      2348      2351      2350
      2348      2351      2352      2348      2525      2526      2348      2525      2530
      2349      2350      2351      2349      2354      2353      2349      2354      2355
      2350      2349      2354      2350      2351      2352      2351      2348      2525
      2351      2352      2355      2351      2352      2529      2352      2355      2354
      2352      2355      2356      2352      2529      2534      2352      2529      2530
      2353      2354      2355      2353      2358      2357      2353      2358      2359
      2354      2353      2358      2354      2355      2356      2355      2352      2529
      2355      2356      2359      2355      2356      2533      2356      2359      2358
      2356      2359      2360      2356      2533      2538      2356      2533      2534
      2357      2358      2359      2357      2362      2361      2357      2362      2363
      2358      2357      2362      2358      2359      2360      2359      2356      2533
      2359      2360      2363      2359      2360      2537      2360      2363      2362
      2360      2363      2364      2360      2537      2542      2360      2537      2538
      2361      2362      2363      2361      2366      2365      2361      2366      2367
      2362      2361      2366      2362      2363      2364      2363      2360      2537
      2363      2364      2367      2363      2364      2541      2364      2367      2366
      2364      2367      2368      2364      2541      2542      2364      2541      2546
      2365      2366      2367      2365      2370      2369      2365      2370      2371
      2366      2365      2370      2366      2367      2368      2367      2364      2541
      2367      2368      2371      2367      2368      2545      2368      2371      2370
      2368      2371      2372      2368      2545      2546      2368      2545      2550
      2369      2370      2371      2369      2374      2373      2369      2374      2375
      2370      2369      2374      2370      2371      2372      2371      2368      2545
      2371      2372      2375      2371      2372      2549      2372      2375      2374
      2372      2375      2376      2372      2549      2554      2372      2549      2550
      2373      2374      2375      2373      2378      2377      2373      2378      2379
      2374      2373      2378      2374      2375      2376      2375      2372      2549
      2375      2376      2379      2375      2376      2553      2376      2379      2378
      2376      2379      2380      2376      2553      2558      2376      2553      2554
      2377      2378      2379      2377      2382      2381      2377      2382      2383
      2378      2377      2382      2378      2379      2380      2379      2376      2553
      2379      2380      2383      2379      2380      2557      2380      2383      2382
      2380      2383      2384      2380      2557      2562      2380      2557      2558
      2381      2382      2383      2381      2386      2385      2381      2386      2387
      2382      2381      2386      2382      2383      2384      2383      2380      2557
      2383      2384      2387      2383      2384      2561      2384      2387      2386
      2384      2387      2388      2384      2561      2562      2384      2561      2566
      2385      2386      2387      2385      2390      2389      2385      2390      2391
      2386      2385      2390      2386      2387      2388      2387      2384      2561
      2387      2388      2391      2387      2388      2565      2388      2391      2390
      2388      2391      2392      2388      2565      2566      2388      2565      2570
      2389      2390      2391      2389      2394      2393      2389      2394      2395
      2390      2389      2394      2390      2391      2392      2391      2388      2565
      2391      2392      2395      2391      2392      2569      2392      2395      2394
      2392      2395      2396      2392      2569      2574      2392      2569      2570
      2393      2394      2395      2393      2398      2397      2393      2398      2399
      2394      2393      2398      2394      2395      2396      2395      2392      2569
      2395      2396      2399      2395      2396      2573      2396      2399      2398
      2396      2399      2400      2396      2573      2578      2396      2573      2574
      2397      2398      2399      2397      2402      2401      2397      2402      2403
      2398      2397      2402      2398      2399      2400      2399      2396      2573
      2399      2400      2403      2399      2400      2577      2400      2403      2402
      2400      2403      2404      2400      2577      2582      2400      2577      2578
      2401      2402      2403      2401      2406      2405      2401      2406      2407
      2402      2401      2406      2402      2403      2404      2403      2400      2577
      2403      2404      2407      2403      2404      2581      2404      2407      2406
      2404      2407      2408      2404      2581      2582      2404      2581      2586
      2405      2406      2407      2405      2410      2409      2405      2410      2411
      2406      2405      2410      2406      2407      2408      2407      2404      2581
      2407      2408      2411      2407      2408      2585      2408      2411      2410
      2408      2411      2412      2408      2585      2586      2408      2585      2590
      2409      2410      2411      2409      2414      2413      2409      2414      2415
      2410      2409      2414      2410      2411      2412      2411      2408      2585
      2411      2412      2415      2411      2412      2589      2412      2415      2414
      2412      2415      2416      2412      2589      2594      2412      2589      2590
      2413      2414      2415      2413      2418      2417      2413      2418      2419
      2414      2413      2418      2414      2415      2416      2415      2412      2589
      2415      2416      2419      2415      2416      2593      2416      2419      2418
      2416      2419      2420      2416      2593      2598      2416      2593      2594
      2417      2418      2419      2417      2422      2421      2417      2422      2423
      2418      2417      2422      2418      2419      2420      2419      2416      2593
      2419      2420      2423      2419      2420      2597      2420      2423      2422
      2420      2423      2424      2420      2597      2602      2420      2597      2598
      2421      2422      2423      2421      2426      2425      2421      2426      2427
      2422      2421      2426      2422      2423      2424      2423      2420      2597
      2423      2424      2427      2423      2424      2601      2424      2427      2426
      2424      2427      2428      2424      2601      2602      2424      2601      2606
      2425      2426      2427      2425      2430      2429      2425      2430      2431
      2426      2425      2430      2426      2427      2428      2427      2424      2601
      2427      2428      2431      2427      2428      2605      2428      2431      2430
      2428      2431      2432      2428      2605      2606      2428      2605      2610
      2429      2430      2431      2429      2434      2433      2429      2434      2435
      2430      2429      2434      2430      2431      2432      2431      2428      2605
      2431      2432      2435      2431      2432      2609      2432      2435      2434
      2432      2435      2436      2432      2609      2614      2432      2609      2610
      2433      2434      2435      2433      2438      2437      2433      2438      2439
      2434      2433      2438      2434      2435      2436      2435      2432      2609
      2435      2436      2439      2435      2436      2613      2436      2439      2438
      2436      2439      2440      2436      2613      2618      2436      2613      2614
      2437      2438      2439      2437      2442      2441      2437      2442      2443
      2438      2437      2442      2438      2439      2440      2439      2436      2613
      2439      2440      2443      2439      2440      2617      2440      2443      2442
      2440      2443      2444      2440      2617      2622      2440      2617      2618
      2441      2442      2443      2441      2446      2445      2441      2446      2447
      2442      2441      2446      2442      2443      2444      2443      2440      2617
      2443      2444      2447      2443      2444      2621      2444      2447      2446
      2444      2447      2448      2444      2621      2622      2444      2621      2626
      2445      2446      2447      2445      2450      2449      2445      2450      2451
      2446      2445      2450      2446      2447      2448      2447      2444      2621
      2447      2448      2451      2447      2448      2625      2448      2451      2450
      2448      2451      2452      2448      2625      2626      2448      2625      2630
      2449      2450      2451      2449      2454      2453      2449      2454      2455
      2450      2449      2454      2450      2451      2452      2451      2448      2625
      2451      2452      2455      2451      2452      2629      2452      2455      2454
      2452      2455      2456      2452      2629      2634      2452      2629      2630
      2453      2454      2455      2453      2458      2457      2453      2458      2459
      2454      2453      2458      2454      2455      2456      2455      2452      2629
      2455      2456      2459      2455      2456      2633      2456      2459      2458
      2456      2459      2460      2456      2633      2634      2456      2633      2638
      2457      2458      2459      2457      2462      2461      2457      2462      2463
      2458      2457      2462      2458      2459      2460      2459      2456      2633
      2459      2460      2463      2459      2460      2637      2460      2463      2462
      2460      2463      2464      2460      2637      2642      2460      2637      2638
      2461      2462      2463      2461      2466      2465      2461      2466      2467
      2462      2461      2466      2462      2463      2464      2463      2460      2637
      2463      2464      2467      2463      2464      2641      2464      2467      2466
      2464      2467      2468      2464      2641      2642      2464      2641      2646
      2465      2466      2467      2465      2470      2469      2465      2470      2471
      2466      2465      2470      2466      2467      2468      2467      2464      2641
      2467      2468      2471      2467      2468      2645      2468      2471      2470
      2468      2471      2472      2468      2645      2646      2468      2645      2650
      2469      2470      2471      2469      2474      2473      2469      2474      2475
      2470      2469      2474      2470      2471      2472      2471      2468      2645
      2471      2472      2475      2471      2472      2649      2472      2475      2474
      2472      2475      2476      2472      2649      2654      2472      2649      2650
      2473      2474      2475      2473      2478      2477      2473      2478      2479
      2474      2473      2478      2474      2475      2476      2475      2472      2649
      2475      2476      2479      2475      2476      2653      2476      2479      2478
      2476      2479      2480      2476      2653      2658      2476      2653      2654
      2477      2478      2479      2477      2482      2481      2477      2482      2483
      2478      2477      2482      2478      2479      2480      2479      2476      2653
      2479      2480      2483      2479      2480      2657      2480      2483      2482
      2480      2483      2484      2480      2657      2662      2480      2657      2658
      2481      2482      2483      2481      2486      2485      2481      2486      2487
      2482      2481      2486      2482      2483      2484      2483      2480      2657
      2483      2484      2487      2483      2484      2661      2484      2487      2486
      2484      2487      2488      2484      2661      2662      2484      2661      2666
      2485      2486      2487      2485      2490      2489      2485      2490      2491
      2486      2485      2490      2486      2487      2488      2487      2484      2661
      2487      2488      2491      2487      2488      2665      2488      2491      2490
      2488      2491      2492      2488      2665      2666      2488      2665      2670
      2489      2490      2491      2489      2494      2493      2489      2494      2495
      2490      2489      2494      2490      2491      2492      2491      2488      2665
      2491      2492      2495      2491      2492      2669      2492      2495      2494
      2492      2495      2496      2492      2669      2674      2492      2669      2670
      2493      2494      2495      2493      2498      2497      2493      2498      2499
      2494      2493      2498      2494      2495      2496      2495      2492      2669
      2495      2496      2499      2495      2496      2673      2496      2499      2498
      2496      2499      2500      2496      2673      2678      2496      2673      2674
      2497      2498      2499      2497      2502      2501      2497      2502      2503
      2498      2497      2502      2498      2499      2500      2499      2496      2673
      2499      2500      2503      2499      2500      2677      2500      2503      2502
      2500      2503      2504      2500      2677      2682      2500      2677      2678
      2501      2502      2503      2501      2506      2505      2501      2506      2507
      2502      2501      2506      2502      2503      2504      2503      2500      2677
      2503      2504      2507      2503      2504      2681      2504      2507      2506
      2504      2507      2508      2504      2681      2682      2504      2681      2686
      2505      2506      2507      2505      2510      2509      2505      2510      2511
      2506      2505      2510      2506      2507      2508      2507      2504      2681
      2507      2508      2511      2507      2508      2685      2508      2511      2510
      2508      2511      2512      2508      2685      2686      2508      2685      2690
      2509      2510      2511      2509      2514      2513      2509      2514      2515
      2510      2509      2514      2510      2511      2512      2511      2508      2685
      2511      2512      2515      2511      2512      2689      2512      2515      2514
      2512      2515      2516      2512      2689      2694      2512      2689      2690
      2513      2514      2515      2513      2518      2517      2513      2518      2519
      2514      2513      2518      2514      2515      2516      2515      2512      2689
      2515      2516      2519      2515      2516      2693      2516      2519      2518
      2516      2519      2520      2516      2693      2698      2516      2693      2694
      2517      2518      2519      2518      2519      2520      2519      2516      2693
      2519      2520      2697      2520      2697      2698      2521      2522      2523
      2521      2526      2525      2521      2526      2527      2522      2521      2526
      2522      2523      2524      2523      2524      2527      2523      2524      2701
      2524      2527      2526      2524      2527      2528      2524      2701      2702
      2524      2701      2706      2525      2526      2527      2525      2530      2529
      2525      2530      2531      2526      2525      2530      2526      2527      2528
      2527      2524      2701      2527      2528      2531      2527      2528      2705
      2528      2531      2530      2528      2531      2532      2528      2705      2706
      2528      2705      2710      2529      2530      2531      2529      2534      2533
      2529      2534      2535      2530      2529      2534      2530      2531      2532
      2531      2528      2705      2531      2532      2535      2531      2532      2709
      2532      2535      2534      2532      2535      2536      2532      2709      2714
      2532      2709      2710      2533      2534      2535      2533      2538      2537
      2533      2538      2539      2534      2533      2538      2534      2535      2536
      2535      2532      2709      2535      2536      2539      2535      2536      2713
      2536      2539      2538      2536      2539      2540      2536      2713      2718
      2536      2713      2714      2537      2538      2539      2537      2542      2541
      2537      2542      2543      2538      2537      2542      2538      2539      2540
      2539      2536      2713      2539      2540      2543      2539      2540      2717
      2540      2543      2542      2540      2543      2544      2540      2717      2722
      2540      2717      2718      2541      2542      2543      2541      2546      2545
      2541      2546      2547      2542      2541      2546      2542      2543      2544
      2543      2540      2717      2543      2544      2547      2543      2544      2721
      2544      2547      2546      2544      2547      2548      2544      2721      2722
      2544      2721      2726      2545      2546      2547      2545      2550      2549
      2545      2550      2551      2546      2545      2550      2546      2547      2548
      2547      2544      2721      2547      2548      2551      2547      2548      2725
      2548      2551      2550      2548      2551      2552      2548      2725      2726
      2548      2725      2730      2549      2550      2551      2549      2554      2553
      2549      2554      2555      2550      2549      2554      2550      2551      2552
      2551      2548      2725      2551      2552      2555      2551      2552      2729
      2552      2555      2554      2552      2555      2556      2552      2729      2734
      2552      2729      2730      2553      2554      2555      2553      2558      2557
      2553      2558      2559      2554      2553      2558      2554      2555      2556
      2555      2552      2729      2555      2556      2559      2555      2556      2733
      2556      2559      2558      2556      2559      2560      2556      2733      2738
      2556      2733      2734      2557      2558      2559      2557      2562      2561
      2557      2562      2563      2558      2557      2562      2558      2559      2560
      2559      2556      2733      2559      2560      2563      2559      2560      2737
      2560      2563      2562      2560      2563      2564      2560      2737      2742
      2560      2737      2738      2561      2562      2563      2561      2566      2565
      2561      2566      2567      2562      2561      2566      2562      2563      2564
      2563      2560      2737      2563      2564      2567      2563      2564      2741
      2564      2567      2566      2564      2567      2568      2564      2741      2742
      2564      2741      2746      2565      2566      2567      2565      2570      2569
      2565      2570      2571      2566      2565      2570      2566      2567      2568
      2567      2564      2741      2567      2568      2571      2567      2568      2745
      2568      2571      2570      2568      2571      2572      2568      2745      2746
      2568      2745      2750      2569      2570      2571      2569      2574      2573
      2569      2574      2575      2570      2569      2574      2570      2571      2572
      2571      2568      2745      2571      2572      2575      2571      2572      2749
      2572      2575      2574      2572      2575      2576      2572      2749      2754
      2572      2749      2750      2573      2574      2575      2573      2578      2577
      2573      2578      2579      2574      2573      2578      2574      2575      2576
      2575      2572      2749      2575      2576      2579      2575      2576      2753
      2576      2579      2578      2576      2579      2580      2576      2753      2758
      2576      2753      2754      2577      2578      2579      2577      2582      2581
      2577      2582      2583      2578      2577      2582      2578      2579      2580
      2579      2576      2753      2579      2580      2583      2579      2580      2757
      2580      2583      2582      2580      2583      2584      2580      2757      2762
      2580      2757      2758      2581      2582      2583      2581      2586      2585
      2581      2586      2587      2582      2581      2586      2582      2583      2584
      2583      2580      2757      2583      2584      2587      2583      2584      2761
      2584      2587      2586      2584      2587      2588      2584      2761      2762
      2584      2761      2766      2585      2586      2587      2585      2590      2589
      2585      2590      2591      2586      2585      2590      2586      2587      2588
      2587      2584      2761      2587      2588      2591      2587      2588      2765
      2588      2591      2590      2588      2591      2592      2588      2765      2766
      2588      2765      2770      2589      2590      2591      2589      2594      2593
      2589      2594      2595      2590      2589      2594      2590      2591      2592
      2591      2588      2765      2591      2592      2595      2591      2592      2769
      2592      2595      2594      2592      2595      2596      2592      2769      2774
      2592      2769      2770      2593      2594      2595      2593      2598      2597
      2593      2598      2599      2594      2593      2598      2594      2595      2596
      2595      2592      2769      2595      2596      2599      2595      2596      2773
      2596      2599      2598      2596      2599      2600      2596      2773      2778
      2596      2773      2774      2597      2598      2599      2597      2602      2601
      2597      2602      2603      2598      2597      2602      2598      2599      2600
      2599      2596      2773      2599      2600      2603      2599      2600      2777
      2600      2603      2602      2600      2603      2604      2600      2777      2782
      2600      2777      2778      2601      2602      2603      2601      2606      2605
      2601      2606      2607      2602      2601      2606      2602      2603      2604
      2603      2600      2777      2603      2604      2607      2603      2604      2781
      2604      2607      2606      2604      2607      2608      2604      2781      2782
      2604      2781      2786      2605      2606      2607      2605      2610      2609
      2605      2610      2611      2606      2605      2610      2606      2607      2608
      2607      2604      2781      2607      2608      2611      2607      2608      2785
      2608      2611      2610      2608      2611      2612      2608      2785      2786
      2608      2785      2790      2609      2610      2611      2609      2614      2613
      2609      2614      2615      2610      2609      2614      2610      2611      2612
      2611      2608      2785      2611      2612      2615      2611      2612      2789
      2612      2615      2614      2612      2615      2616      2612      2789      2794
      2612      2789      2790      2613      2614      2615      2613      2618      2617
      2613      2618      2619      2614      2613      2618      2614      2615      2616
      2615      2612      2789      2615      2616      2619      2615      2616      2793
      2616      2619      2618      2616      2619      2620      2616      2793      2798
      2616      2793      2794      2617      2618      2619      2617      2622      2621
      2617      2622      2623      2618      2617      2622      2618      2619      2620
      2619      2616      2793      2619      2620      2623      2619      2620      2797
      2620      2623      2622      2620      2623      2624      2620      2797      2802
      2620      2797      2798      2621      2622      2623      2621      2626      2625
      2621      2626      2627      2622      2621      2626      2622      2623      2624
      2623      2620      2797      2623      2624      2627      2623      2624      2801
      2624      2627      2626      2624      2627      2628      2624      2801      2802
      2624      2801      2806      2625      2626      2627      2625      2630      2629
      2625      2630      2631      2626      2625      2630      2626      2627      2628
      2627      2624      2801      2627      2628      2631      2627      2628      2805
      2628      2631      2630      2628      2631      2632      2628      2805      2806
      2628      2805      2810      2629      2630      2631      2629      2634      2633
      2629      2634      2635      2630      2629      2634      2630      2631      2632
      2631      2628      2805      2631      2632      2635      2631      2632      2809
      2632      2635      2634      2632      2635      2636      2632      2809      2814
      2632      2809      2810      2633      2634      2635      2633      2638      2637
      2633      2638      2639      2634      2633      2638      2634      2635      2636
      2635      2632      2809      2635      2636      2639      2635      2636      2813
      2636      2639      2638      2636      2639      2640      2636      2813      2818
      2636      2813      2814      2637      2638      2639      2637      2642      2641
      2637      2642      2643      2638      2637      2642      2638      2639      2640
      2639      2636      2813      2639      2640      2643      2639      2640      2817
      2640      2643      2642      2640      2643      2644      2640      2817      2822
      2640      2817      2818      2641      2642      2643      2641      2646      2645
      2641      2646      2647      2642      2641      2646      2642      2643      2644
      2643      2640      2817      2643      2644      2647      2643      2644      2821
      2644      2647      2646      2644      2647      2648      2644      2821      2822
      2644      2821      2826      2645      2646      2647      2645      2650      2649
      2645      2650      2651      2646      2645      2650      2646      2647      2648
      2647      2644      2821      2647      2648      2651      2647      2648      2825
      2648      2651      2650      2648      2651      2652      2648      2825      2826
      2648      2825      2830      2649      2650      2651      2649      2654      2653
      2649      2654      2655      2650      2649      2654      2650      2651      2652
      2651      2648      2825      2651      2652      2655      2651      2652      2829
      2652      2655      2654      2652      2655      2656      2652      2829      2834
      2652      2829      2830      2653      2654      2655      2653      2658      2657
      2653      2658      2659      2654      2653      2658      2654      2655      2656
      2655      2652      2829      2655      2656      2659      2655      2656      2833
      2656      2659      2658      2656      2659      2660      2656      2833      2838
      2656      2833      2834      2657      2658      2659      2657      2662      2661
      2657      2662      2663      2658      2657      2662      2658      2659      2660
      2659      2656      2833      2659      2660      2663      2659      2660      2837
      2660      2663      2662      2660      2663      2664      2660      2837      2842
      2660      2837      2838      2661      2662      2663      2661      2666      2665
      2661      2666      2667      2662      2661      2666      2662      2663      2664
      2663      2660      2837      2663      2664      2667      2663      2664      2841
      2664      2667      2666      2664      2667      2668      2664      2841      2842
      2664      2841      2846      2665      2666      2667      2665      2670      2669
      2665      2670      2671      2666      2665      2670      2666      2667      2668
      2667      2664      2841      2667      2668      2671      2667      2668      2845
      2668      2671      2670      2668      2671      2672      2668      2845      2846
      2668      2845      2850      2669      2670      2671      2669      2674      2673
      2669      2674      2675      2670      2669      2674      2670      2671      2672
      2671      2668      2845      2671      2672      2675      2671      2672      2849
      2672      2675      2674      2672      2675      2676      2672      2849      2854
      2672      2849      2850      2673      2674      2675      2673      2678      2677
      2673      2678      2679      2674      2673      2678      2674      2675      2676
      2675      2672      2849      2675      2676      2679      2675      2676      2853
      2676      2679      2678      2676      2679      2680      2676      2853      2854
      2676      2853      2858      2677      2678      2679      2677      2682      2681
      2677      2682      2683      2678      2677      2682      2678      2679      2680
      2679      2676      2853      2679      2680      2683      2679      2680      2857
      2680      2683      2682      2680      2683      2684      2680      2857      2862
      2680      2857      2858      2681      2682      2683      2681      2686      2685
      2681      2686      2687      2682      2681      2686      2682      2683      2684
      2683      2680      2857      2683      2684      2687      2683      2684      2861
      2684      2687      2686      2684      2687      2688      2684      2861      2862
      2684      2861      2866      2685      2686      2687      2685      2690      2689
      2685      2690      2691      2686      2685      2690      2686      2687      2688
      2687      2684      2861      2687      2688      2691      2687      2688      2865
      2688      2691      2690      2688      2691      2692      2688      2865      2866
      2688      2865      2870      2689      2690      2691      2689      2694      2693
      2689      2694      2695      2690      2689      2694      2690      2691      2692
      2691      2688      2865      2691      2692      2695      2691      2692      2869
      2692      2695      2694      2692      2695      2696      2692      2869      2874
      2692      2869      2870      2693      2694      2695      2693      2698      2697
      2693      2698      2699      2694      2693      2698      2694      2695      2696
      2695      2692      2869      2695      2696      2699      2695      2696      2873
      2696      2699      2698      2696      2699      2700      2696      2873      2878
      2696      2873      2874      2697      2698      2699      2698      2699      2700
      2699      2696      2873      2699      2700      2877      2700      2877      2878
      2701      2702      2703      2701      2706      2705      2701      2706      2707
      2702      2701      2706      2702      2703      2704      2703      2704      2707
      2703      2704      2881      2704      2707      2706      2704      2707      2708
      2704      2881      2882      2704      2881      2886      2705      2706      2707
      2705      2710      2709      2705      2710      2711      2706      2705      2710
      2706      2707      2708      2707      2704      2881      2707      2708      2711
      2707      2708      2885      2708      2711      2710      2708      2711      2712
      2708      2885      2886      2708      2885      2890      2709      2710      2711
      2709      2714      2713      2709      2714      2715      2710      2709      2714
      2710      2711      2712      2711      2708      2885      2711      2712      2715
      2711      2712      2889      2712      2715      2714      2712      2715      2716
      2712      2889      2894      2712      2889      2890      2713      2714      2715
      2713      2718      2717      2713      2718      2719      2714      2713      2718
      2714      2715      2716      2715      2712      2889      2715      2716      2719
      2715      2716      2893      2716      2719      2718      2716      2719      2720
      2716      2893      2898      2716      2893      2894      2717      2718      2719
      2717      2722      2721      2717      2722      2723      2718      2717      2722
      2718      2719      2720      2719      2716      2893      2719      2720      2723
      2719      2720      2897      2720      2723      2722      2720      2723      2724
      2720      2897      2902      2720      2897      2898      2721      2722      2723
      2721      2726      2725      2721      2726      2727      2722      2721      2726
      2722      2723      2724      2723      2720      2897      2723      2724      2727
      2723      2724      2901      2724      2727      2726      2724      2727      2728
      2724      2901      2902      2724      2901      2906      2725      2726      2727
      2725      2730      2729      2725      2730      2731      2726      2725      2730
      2726      2727      2728      2727      2724      2901      2727      2728      2731
      2727      2728      2905      2728      2731      2730      2728      2731      2732
      2728      2905      2906      2728      2905      2910      2729      2730      2731
      2729      2734      2733      2729      2734      2735      2730      2729      2734
      2730      2731      2732      2731      2728      2905      2731      2732      2735
      2731      2732      2909      2732      2735      2734      2732      2735      2736
      2732      2909      2914      2732      2909      2910      2733      2734      2735
      2733      2738      2737      2733      2738      2739      2734      2733      2738
      2734      2735      2736      2735      2732      2909      2735      2736      2739
      2735      2736      2913      2736      2739      2738      2736      2739      2740
      2736      2913      2918      2736      2913      2914      2737      2738      2739
      2737      2742      2741      2737      2742      2743      2738      2737      2742
      2738      2739      2740      2739      2736      2913      2739      2740      2743
      2739      2740      2917      2740      2743      2742      2740      2743      2744
      2740      2917      2922      2740      2917      2918      2741      2742      2743
      2741      2746      2745      2741      2746      2747      2742      2741      2746
      2742      2743      2744      2743      2740      2917      2743      2744      2747
      2743      2744      2921      2744      2747      2746      2744      2747      2748
      2744      2921      2922      2744      2921      2926      2745      2746      2747
      2745      2750      2749      2745      2750      2751      2746      2745      2750
      2746      2747      2748      2747      2744      2921      2747      2748      2751
      2747      2748      2925      2748      2751      2750      2748      2751      2752
      2748      2925      2926      2748      2925      2930      2749      2750      2751
      2749      2754      2753      2749      2754      2755      2750      2749      2754
      2750      2751      2752      2751      2748      2925      2751      2752      2755
      2751      2752      2929      2752      2755      2754      2752      2755      2756
      2752      2929      2934      2752      2929      2930      2753      2754      2755
      2753      2758      2757      2753      2758      2759      2754      2753      2758
      2754      2755      2756      2755      2752      2929      2755      2756      2759
      2755      2756      2933      2756      2759      2758      2756      2759      2760
      2756      2933      2938      2756      2933      2934      2757      2758      2759
      2757      2762      2761      2757      2762      2763      2758      2757      2762
      2758      2759      2760      2759      2756      2933      2759      2760      2763
      2759      2760      2937      2760      2763      2762      2760      2763      2764
      2760      2937      2942      2760      2937      2938      2761      2762      2763
      2761      2766      2765      2761      2766      2767      2762      2761      2766
      2762      2763      2764      2763      2760      2937      2763      2764      2767
      2763      2764      2941      2764      2767      2766      2764      2767      2768
      2764      2941      2942      2764      2941      2946      2765      2766      2767
      2765      2770      2769      2765      2770      2771      2766      2765      2770
      2766      2767      2768      2767      2764      2941      2767      2768      2771
      2767      2768      2945      2768      2771      2770      2768      2771      2772
      2768      2945      2946      2768      2945      2950      2769      2770      2771
      2769      2774      2773      2769      2774      2775      2770      2769      2774
      2770      2771      2772      2771      2768      2945      2771      2772      2775
      2771      2772      2949      2772      2775      2774      2772      2775      2776
      2772      2949      2954      2772      2949      2950      2773      2774      2775
      2773      2778      2777      2773      2778      2779      2774      2773      2778
      2774      2775      2776      2775      2772      2949      2775      2776      2779
      2775      2776      2953      2776      2779      2778      2776      2779      2780
      2776      2953      2958      2776      2953      2954      2777      2778      2779
      2777      2782      2781      2777      2782      2783      2778      2777      2782
      2778      2779      2780      2779      2776      2953      2779      2780      2783
      2779      2780      2957      2780      2783      2782      2780      2783      2784
      2780      2957      2962      2780      2957      2958      2781      2782      2783
      2781      2786      2785      2781      2786      2787      2782      2781      2786
      2782      2783      2784      2783      2780      2957      2783      2784      2787
      2783      2784      2961      2784      2787      2786      2784      2787      2788
      2784      2961      2962      2784      2961      2966      2785      2786      2787
      2785      2790      2789      2785      2790      2791      2786      2785      2790
      2786      2787      2788      2787      2784      2961      2787      2788      2791
      2787      2788      2965      2788      2791      2790      2788      2791      2792
      2788      2965      2966      2788      2965      2970      2789      2790      2791
      2789      2794      2793      2789      2794      2795      2790      2789      2794
      2790      2791      2792      2791      2788      2965      2791      2792      2795
      2791      2792      2969      2792      2795      2794      2792      2795      2796
      2792      2969      2974      2792      2969      2970      2793      2794      2795
      2793      2798      2797      2793      2798      2799      2794      2793      2798
      2794      2795      2796      2795      2792      2969      2795      2796      2799
      2795      2796      2973      2796      2799      2798      2796      2799      2800
      2796      2973      2978      2796      2973      2974      2797      2798      2799
      2797      2802      2801      2797      2802      2803      2798      2797      2802
      2798      2799      2800      2799      2796      2973      2799      2800      2803
      2799      2800      2977      2800      2803      2802      2800      2803      2804
      2800      2977      2982      2800      2977      2978      2801      2802      2803
      2801      2806      2805      2801      2806      2807      2802      2801      2806
      2802      2803      2804      2803      2800      2977      2803      2804      2807
      2803      2804      2981      2804      2807      2806      2804      2807      2808
      2804      2981      2982      2804      2981      2986      2805      2806      2807
      2805      2810      2809      2805      2810      2811      2806      2805      2810
      2806      2807      2808      2807      2804      2981      2807      2808      2811
      2807      2808      2985      2808      2811      2810      2808      2811      2812
      2808      2985      2986      2808      2985      2990      2809      2810      2811
      2809      2814      2813      2809      2814      2815      2810      2809      2814
      2810      2811      2812      2811      2808      2985      2811      2812      2815
      2811      2812      2989      2812      2815      2814      2812      2815      2816
      2812      2989      2994      2812      2989      2990      2813      2814      2815
      2813      2818      2817      2813      2818      2819      2814      2813      2818
      2814      2815      2816      2815      2812      2989      2815      2816      2819
      2815      2816      2993      2816      2819      2818      2816      2819      2820
      2816      2993      2998      2816      2993      2994      2817      2818      2819
      2817      2822      2821      2817      2822      2823      2818      2817      2822
      2818      2819      2820      2819      2816      2993      2819      2820      2823
      2819      2820      2997      2820      2823      2822      2820      2823      2824
      2820      2997      3002      2820      2997      2998      2821      2822      2823
      2821      2826      2825      2821      2826      2827      2822      2821      2826
      2822      2823      2824      2823      2820      2997      2823      2824      2827
      2823      2824      3001      2824      2827      2826      2824      2827      2828
      2824      3001      3002      2824      3001      3006      2825      2826      2827
      2825      2830      2829      2825      2830      2831      2826      2825      2830
      2826      2827      2828      2827      2824      3001      2827      2828      2831
      2827      2828      3005      2828      2831      2830      2828      2831      2832
      2828      3005      3006      2828      3005      3010      2829      2830      2831
      2829      2834      2833      2829      2834      2835      2830      2829      2834
      2830      2831      2832      2831      2828      3005      2831      2832      2835
      2831      2832      3009      2832      2835      2834      2832      2835      2836
      2832      3009      3014      2832      3009      3010      2833      2834      2835
      2833      2838      2837      2833      2838      2839      2834      2833      2838
      2834      2835      2836      2835      2832      3009      2835      2836      2839
      2835      2836      3013      2836      2839      2838      2836      2839      2840
      2836      3013      3018      2836      3013      3014      2837      2838      2839
      2837      2842      2841      2837      2842      2843      2838      2837      2842
      2838      2839      2840      2839      2836      3013      2839      2840      2843
      2839      2840      3017      2840      2843      2842      2840      2843      2844
      2840      3017      3022      2840      3017      3018      2841      2842      2843
      2841      2846      2845      2841      2846      2847      2842      2841      2846
      2842      2843      2844      2843      2840      3017      2843      2844      2847
      2843      2844      3021      2844      2847      2846      2844      2847      2848
      2844      3021      3022      2844      3021      3026      2845      2846      2847
      2845      2850      2849      2845      2850      2851      2846      2845      2850
      2846      2847      2848      2847      2844      3021      2847      2848      2851
      2847      2848      3025      2848      2851      2850      2848      2851      2852
      2848      3025      3026      2848      3025      3030      2849      2850      2851
      2849      2854      2853      2849      2854      2855      2850      2849      2854
      2850      2851      2852      2851      2848      3025      2851      2852      2855
      2851      2852      3029      2852      2855      2854      2852      2855      2856
      2852      3029      3034      2852      3029      3030      2853      2854      2855
      2853      2858      2857      2853      2858      2859      2854      2853      2858
      2854      2855      2856      2855      2852      3029      2855      2856      2859
      2855      2856      3033      2856      2859      2858      2856      2859      2860
      2856      3033      3038      2856      3033      3034      2857      2858      2859
      2857      2862      2861      2857      2862      2863      2858      2857      2862
      2858      2859      2860      2859      2856      3033      2859      2860      2863
      2859      2860      3037      2860      2863      2862      2860      2863      2864
      2860      3037      3042      2860      3037      3038      2861      2862      2863
      2861      2866      2865      2861      2866      2867      2862      2861      2866
      2862      2863      2864      2863      2860      3037      2863      2864      2867
      2863      2864      3041      2864      2867      2866      2864      2867      2868
      2864      3041      3042      2864      3041      3046      2865      2866      2867
      2865      2870      2869      2865      2870      2871      2866      2865      2870
      2866      2867      2868      2867      2864      3041      2867      2868      2871
      2867      2868      3045      2868      2871      2870      2868      2871      2872
      2868      3045      3046      2868      3045      3050      2869      2870      2871
      2869      2874      2873      2869      2874      2875      2870      2869      2874
      2870      2871      2872      2871      2868      3045      2871      2872      2875
      2871      2872      3049      2872      2875      2874      2872      2875      2876
      2872      3049      3054      2872      3049      3050      2873      2874      2875
      2873      2878      2877      2873      2878      2879      2874      2873      2878
      2874      2875      2876      2875      2872      3049      2875      2876      2879
      2875      2876      3053      2876      2879      2878      2876      2879      2880
      2876      3053      3058      2876      3053      3054      2877      2878      2879
      2878      2879      2880      2879      2876      3053      2879      2880      3057
      2880      3057      3058      2881      2882      2883      2881      2886      2885
      2881      2886      2887      2882      2881      2886      2882      2883      2884
      2883      2884      2887      2883      2884      3061      2884      2887      2886
      2884      2887      2888      2884      3061      3062      2884      3061      3066
      2885      2886      2887      2885      2890      2889      2885      2890      2891
      2886      2885      2890      2886      2887      2888      2887      2884      3061
      2887      2888      2891      2887      2888      3065      2888      2891      2890
      2888      2891      2892      2888      3065      3066      2888      3065      3070
      2889      2890      2891      2889      2894      2893      2889      2894      2895
      2890      2889      2894      2890      2891      2892      2891      2888      3065
      2891      2892      2895      2891      2892      3069      2892      2895      2894
      2892      2895      2896      2892      3069      3074      2892      3069      3070
      2893      2894      2895      2893      2898      2897      2893      2898      2899
      2894      2893      2898      2894      2895      2896      2895      2892      3069
      2895      2896      2899      2895      2896      3073      2896      2899      2898
      2896      2899      2900      2896      3073      3078      2896      3073      3074
      2897      2898      2899      2897      2902      2901      2897      2902      2903
      2898      2897      2902      2898      2899      2900      2899      2896      3073
      2899      2900      2903      2899      2900      3077      2900      2903      2902
      2900      2903      2904      2900      3077      3082      2900      3077      3078
      2901      2902      2903      2901      2906      2905      2901      2906      2907
      2902      2901      2906      2902      2903      2904      2903      2900      3077
      2903      2904      2907      2903      2904      3081      2904      2907      2906
      2904      2907      2908      2904      3081      3082      2904      3081      3086
      2905      2906      2907      2905      2910      2909      2905      2910      2911
      2906      2905      2910      2906      2907      2908      2907      2904      3081
      2907      2908      2911      2907      2908      3085      2908      2911      2910
      2908      2911      2912      2908      3085      3086      2908      3085      3090
      2909      2910      2911      2909      2914      2913      2909      2914      2915
      2910      2909      2914      2910      2911      2912      2911      2908      3085
      2911      2912      2915      2911      2912      3089      2912      2915      2914
      2912      2915      2916      2912      3089      3094      2912      3089      3090
      2913      2914      2915      2913      2918      2917      2913      2918      2919
      2914      2913      2918      2914      2915      2916      2915      2912      3089
      2915      2916      2919      2915      2916      3093      2916      2919      2918
      2916      2919      2920      2916      3093      3094      2916      3093      3098
      2917      2918      2919      2917      2922      2921      2917      2922      2923
      2918      2917      2922      2918      2919      2920      2919      2916      3093
      2919      2920      2923      2919      2920      3097      2920      2923      2922
      2920      2923      2924      2920      3097      3102      2920      3097      3098
      2921      2922      2923      2921      2926      2925      2921      2926      2927
      2922      2921      2926      2922      2923      2924      2923      2920      3097
      2923      2924      2927      2923      2924      3101      2924      2927      2926
      2924      2927      2928      2924      3101      3102      2924      3101      3106
      2925      2926      2927      2925      2930      2929      2925      2930      2931
      2926      2925      2930      2926      2927      2928      2927      2924      3101
      2927      2928      2931      2927      2928      3105      2928      2931      2930
      2928      2931      2932      2928      3105      3106      2928      3105      3110
      2929      2930      2931      2929      2934      2933      2929      2934      2935
      2930      2929      2934      2930      2931      2932      2931      2928      3105
      2931      2932      2935      2931      2932      3109      2932      2935      2934
      2932      2935      2936      2932      3109      3114      2932      3109      3110
      2933      2934      2935      2933      2938      2937      2933      2938      2939
      2934      2933      2938      2934      2935      2936      2935      2932      3109
      2935      2936      2939      2935      2936      3113      2936      2939      2938
      2936      2939      2940      2936      3113      3118      2936      3113      3114
      2937      2938      2939      2937      2942      2941      2937      2942      2943
      2938      2937      2942      2938      2939      2940      2939      2936      3113
      2939      2940      2943      2939      2940      3117      2940      2943      2942
      2940      2943      2944      2940      3117      3122      2940      3117      3118
      2941      2942      2943      2941      2946      2945      2941      2946      2947
      2942      2941      2946      2942      2943      2944      2943      2940      3117
      2943      2944      2947      2943      2944      3121      2944      2947      2946
      2944      2947      2948      2944      3121      3122      2944      3121      3126
      2945      2946      2947      2945      2950      2949      2945      2950      2951
      2946      2945      2950      2946      2947      2948      2947      2944      3121
      2947      2948      2951      2947      2948      3125      2948      2951      2950
      2948      2951      2952      2948      3125      3126      2948      3125      3130
      2949      2950      2951      2949      2954      2953      2949      2954      2955
      2950      2949      2954      2950      2951      2952      2951      2948      3125
      2951      2952      2955      2951      2952      3129      2952      2955      2954
      2952      2955      2956      2952      3129      3134      2952      3129      3130
      2953      2954      2955      2953      2958      2957      2953      2958      2959
      2954      2953      2958      2954      2955      2956      2955      2952      3129
      2955      2956      2959      2955      2956      3133      2956      2959      2958
      2956      2959      2960      2956      3133      3138      2956      3133      3134
      2957      2958      2959      2957      2962      2961      2957      2962      2963
      2958      2957      2962      2958      2959      2960      2959      2956      3133
      2959      2960      2963      2959      2960      3137      2960      2963      2962
      2960      2963      2964      2960      3137      3142      2960      3137      3138
      2961      2962      2963      2961      2966      2965      2961      2966      2967
      2962      2961      2966      2962      2963      2964      2963      2960      3137
      2963      2964      2967      2963      2964      3141      2964      2967      2966
      2964      2967      2968      2964      3141      3142      2964      3141      3146
      2965      2966      2967      2965      2970      2969      2965      2970      2971
      2966      2965      2970      2966      2967      2968      2967      2964      3141
      2967      2968      2971      2967      2968      3145      2968      2971      2970
      2968      2971      2972      2968      3145      3146      2968      3145      3150
      2969      2970      2971      2969      2974      2973      2969      2974      2975
      2970      2969      2974      2970      2971      2972      2971      2968      3145
      2971      2972      2975      2971      2972      3149      2972      2975      2974
      2972      2975      2976      2972      3149      3154      2972      3149      3150
      2973      2974      2975      2973      2978      2977      2973      2978      2979
      2974      2973      2978      2974      2975      2976      2975      2972      3149
      2975      2976      2979      2975      2976      3153      2976      2979      2978
      2976      2979      2980      2976      3153      3158      2976      3153      3154
      2977      2978      2979      2977      2982      2981      2977      2982      2983
      2978      2977      2982      2978      2979      2980      2979      2976      3153
      2979      2980      2983      2979      2980      3157      2980      2983      2982
      2980      2983      2984      2980      3157      3162      2980      3157      3158
      2981      2982      2983      2981      2986      2985      2981      2986      2987
      2982      2981      2986      2982      2983      2984      2983      2980      3157
      2983      2984      2987      2983      2984      3161      2984      2987      2986
      2984      2987      2988      2984      3161      3162      2984      3161      3166
      2985      2986      2987      2985      2990      2989      2985      2990      2991
      2986      2985      2990      2986      2987      2988      2987      2984      3161
      2987      2988      2991      2987      2988      3165      2988      2991      2990
      2988      2991      2992      2988      3165      3166      2988      3165      3170
      2989      2990      2991      2989      2994      2993      2989      2994      2995
      2990      2989      2994      2990      2991      2992      2991      2988      3165
      2991      2992      2995      2991      2992      3169      2992      2995      2994
      2992      2995      2996      2992      3169      3174      2992      3169      3170
      2993      2994      2995      2993      2998      2997      2993      2998      2999
      2994      2993      2998      2994      2995      2996      2995      2992      3169
      2995      2996      2999      2995      2996      3173      2996      2999      2998
      2996      2999      3000      2996      3173      3178      2996      3173      3174
      2997      2998      2999      2997      3002      3001      2997      3002      3003
      2998      2997      3002      2998      2999      3000      2999      2996      3173
      2999      3000      3003      2999      3000      3177      3000      3003      3002
      3000      3003      3004      3000      3177      3182      3000      3177      3178
      3001      3002      3003      3001      3006      3005      3001      3006      3007
      3002      3001      3006      3002      3003      3004      3003      3000      3177
      3003      3004      3007      3003      3004      3181      3004      3007      3006
      3004      3007      3008      3004      3181      3182      3004      3181      3186
      3005      3006      3007      3005      3010      3009      3005      3010      3011
      3006      3005      3010      3006      3007      3008      3007      3004      3181
      3007      3008      3011      3007      3008      3185      3008      3011      3010
      3008      3011      3012      3008      3185      3186      3008      3185      3190
      3009      3010      3011      3009      3014      3013      3009      3014      3015
      3010      3009      3014      3010      3011      3012      3011      3008      3185
      3011      3012      3015      3011      3012      3189      3012      3015      3014
      3012      3015      3016      3012      3189      3194      3012      3189      3190
      3013      3014      3015      3013      3018      3017      3013      3018      3019
      3014      3013      3018      3014      3015      3016      3015      3012      3189
      3015      3016      3019      3015      3016      3193      3016      3019      3018
      3016      3019      3020      3016      3193      3198      3016      3193      3194
      3017      3018      3019      3017      3022      3021      3017      3022      3023
      3018      3017      3022      3018      3019      3020      3019      3016      3193
      3019      3020      3023      3019      3020      3197      3020      3023      3022
      3020      3023      3024      3020      3197      3202      3020      3197      3198
      3021      3022      3023      3021      3026      3025      3021      3026      3027
      3022      3021      3026      3022      3023      3024      3023      3020      3197
      3023      3024      3027      3023      3024      3201      3024      3027      3026
      3024      3027      3028      3024      3201      3202      3024      3201      3206
      3025      3026      3027      3025      3030      3029      3025      3030      3031
      3026      3025      3030      3026      3027      3028      3027      3024      3201
      3027      3028      3031      3027      3028      3205      3028      3031      3030
      3028      3031      3032      3028      3205      3206      3028      3205      3210
      3029      3030      3031      3029      3034      3033      3029      3034      3035
      3030      3029      3034      3030      3031      3032      3031      3028      3205
      3031      3032      3035      3031      3032      3209      3032      3035      3034
      3032      3035      3036      3032      3209      3214      3032      3209      3210
      3033      3034      3035      3033      3038      3037      3033      3038      3039
      3034      3033      3038      3034      3035      3036      3035      3032      3209
      3035      3036      3039      3035      3036      3213      3036      3039      3038
      3036      3039      3040      3036      3213      3218      3036      3213      3214
      3037      3038      3039      3037      3042      3041      3037      3042      3043
      3038      3037      3042      3038      3039      3040      3039      3036      3213
      3039      3040      3043      3039      3040      3217      3040      3043      3042
      3040      3043      3044      3040      3217      3222      3040      3217      3218
      3041      3042      3043      3041      3046      3045      3041      3046      3047
      3042      3041      3046      3042      3043      3044      3043      3040      3217
      3043      3044      3047      3043      3044      3221      3044      3047      3046
      3044      3047      3048      3044      3221      3222      3044      3221      3226
      3045      3046      3047      3045      3050      3049      3045      3050      3051
      3046      3045      3050      3046      3047      3048      3047      3044      3221
      3047      3048      3051      3047      3048      3225      3048      3051      3050
      3048      3051      3052      3048      3225      3226      3048      3225      3230
      3049      3050      3051      3049      3054      3053      3049      3054      3055
      3050      3049      3054      3050      3051      3052      3051      3048      3225
      3051      3052      3055      3051      3052      3229      3052      3055      3054
      3052      3055      3056      3052      3229      3234      3052      3229      3230
      3053      3054      3055      3053      3058      3057      3053      3058      3059
      3054      3053      3058      3054      3055      3056      3055      3052      3229
      3055      3056      3059      3055      3056      3233      3056      3059      3058
      3056      3059      3060      3056      3233      3238      3056      3233      3234
      3057      3058      3059      3058      3059      3060      3059      3056      3233
      3059      3060      3237      3060      3237      3238      3061      3062      3063
      3061      3066      3065      3061      3066      3067      3062      3061      3066
      3062      3063      3064      3063      3064      3067      3063      3064      3241
      3064      3067      3066      3064      3067      3068      3064      3241      3242
      3064      3241      3246      3065      3066      3067      3065      3070      3069
      3065      3070      3071      3066      3065      3070      3066      3067      3068
      3067      3064      3241      3067      3068      3071      3067      3068      3245
      3068      3071      3070      3068      3071      3072      3068      3245      3246
      3068      3245      3250      3069      3070      3071      3069      3074      3073
      3069      3074      3075      3070      3069      3074      3070      3071      3072
      3071      3068      3245      3071      3072      3075      3071      3072      3249
      3072      3075      3074      3072      3075      3076      3072      3249      3254
      3072      3249      3250      3073      3074      3075      3073      3078      3077
      3073      3078      3079      3074      3073      3078      3074      3075      3076
      3075      3072      3249      3075      3076      3079      3075      3076      3253
      3076      3079      3078      3076      3079      3080      3076      3253      3258
      3076      3253      3254      3077      3078      3079      3077      3082      3081
      3077      3082      3083      3078      3077      3082      3078      3079      3080
      3079      3076      3253      3079      3080      3083      3079      3080      3257
      3080      3083      3082      3080      3083      3084      3080      3257      3262
      3080      3257      3258      3081      3082      3083      3081      3086      3085
      3081      3086      3087      3082      3081      3086      3082      3083      3084
      3083      3080      3257      3083      3084      3087      3083      3084      3261
      3084      3087      3086      3084      3087      3088      3084      3261      3262
      3084      3261      3266      3085      3086      3087      3085      3090      3089
      3085      3090      3091      3086      3085      3090      3086      3087      3088
      3087      3084      3261      3087      3088      3091      3087      3088      3265
      3088      3091      3090      3088      3091      3092      3088      3265      3266
      3088      3265      3270      3089      3090      3091      3089      3094      3093
      3089      3094      3095      3090      3089      3094      3090      3091      3092
      3091      3088      3265      3091      3092      3095      3091      3092      3269
      3092      3095      3094      3092      3095      3096      3092      3269      3274
      3092      3269      3270      3093      3094      3095      3093      3098      3097
      3093      3098      3099      3094      3093      3098      3094      3095      3096
      3095      3092      3269      3095      3096      3099      3095      3096      3273
      3096      3099      3098      3096      3099      3100      3096      3273      3278
      3096      3273      3274      3097      3098      3099      3097      3102      3101
      3097      3102      3103      3098      3097      3102      3098      3099      3100
      3099      3096      3273      3099      3100      3103      3099      3100      3277
      3100      3103      3102      3100      3103      3104      3100      3277      3282
      3100      3277      3278      3101      3102      3103      3101      3106      3105
      3101      3106      3107      3102      3101      3106      3102      3103      3104
      3103      3100      3277      3103      3104      3107      3103      3104      3281
      3104      3107      3106      3104      3107      3108      3104      3281      3282
      3104      3281      3286      3105      3106      3107      3105      3110      3109
      3105      3110      3111      3106      3105      3110      3106      3107      3108
      3107      3104      3281      3107      3108      3111      3107      3108      3285
      3108      3111      3110      3108      3111      3112      3108      3285      3286
      3108      3285      3290      3109      3110      3111      3109      3114      3113
      3109      3114      3115      3110      3109      3114      3110      3111      3112
      3111      3108      3285      3111      3112      3115      3111      3112      3289
      3112      3115      3114      3112      3115      3116      3112      3289      3294
      3112      3289      3290      3113      3114      3115      3113      3118      3117
      3113      3118      3119      3114      3113      3118      3114      3115      3116
      3115      3112      3289      3115      3116      3119      3115      3116      3293
      3116      3119      3118      3116      3119      3120      3116      3293      3298
      3116      3293      3294      3117      3118      3119      3117      3122      3121
      3117      3122      3123      3118      3117      3122      3118      3119      3120
      3119      3116      3293      3119      3120      3123      3119      3120      3297
      3120      3123      3122      3120      3123      3124      3120      3297      3302
      3120      3297      3298      3121      3122      3123      3121      3126      3125
      3121      3126      3127      3122      3121      3126      3122      3123      3124
      3123      3120      3297      3123      3124      3127      3123      3124      3301
      3124      3127      3126      3124      3127      3128      3124      3301      3302
      3124      3301      3306      3125      3126      3127      3125      3130      3129
      3125      3130      3131      3126      3125      3130      3126      3127      3128
      3127      3124      3301      3127      3128      3131      3127      3128      3305
      3128      3131      3130      3128      3131      3132      3128      3305      3306
      3128      3305      3310      3129      3130      3131      3129      3134      3133
      3129      3134      3135      3130      3129      3134      3130      3131      3132
      3131      3128      3305      3131      3132      3135      3131      3132      3309
      3132      3135      3134      3132      3135      3136      3132      3309      3314
      3132      3309      3310      3133      3134      3135      3133      3138      3137
      3133      3138      3139      3134      3133      3138      3134      3135      3136
      3135      3132      3309      3135      3136      3139      3135      3136      3313
      3136      3139      3138      3136      3139      3140      3136      3313      3314
      3136      3313      3318      3137      3138      3139      3137      3142      3141
      3137      3142      3143      3138      3137      3142      3138      3139      3140
      3139      3136      3313      3139      3140      3143      3139      3140      3317
      3140      3143      3142      3140      3143      3144      3140      3317      3322
      3140      3317      3318      3141      3142      3143      3141      3146      3145
      3141      3146      3147      3142      3141      3146      3142      3143      3144
      3143      3140      3317      3143      3144      3147      3143      3144      3321
      3144      3147      3146      3144      3147      3148      3144      3321      3322
      3144      3321      3326      3145      3146      3147      3145      3150      3149
      3145      3150      3151      3146      3145      3150      3146      3147      3148
      3147      3144      3321      3147      3148      3151      3147      3148      3325
      3148      3151      3150      3148      3151      3152      3148      3325      3326
      3148      3325      3330      3149      3150      3151      3149      3154      3153
      3149      3154      3155      3150      3149      3154      3150      3151      3152
      3151      3148      3325      3151      3152      3155      3151      3152      3329
      3152      3155      3154      3152      3155      3156      3152      3329      3334
      3152      3329      3330      3153      3154      3155      3153      3158      3157
      3153      3158      3159      3154      3153      3158      3154      3155      3156
      3155      3152      3329      3155      3156      3159      3155      3156      3333
      3156      3159      3158      3156      3159      3160      3156      3333      3338
      3156      3333      3334      3157      3158      3159      3157      3162      3161
      3157      3162      3163      3158      3157      3162      3158      3159      3160
      3159      3156      3333      3159      3160      3163      3159      3160      3337
      3160      3163      3162      3160      3163      3164      3160      3337      3342
      3160      3337      3338      3161      3162      3163      3161      3166      3165
      3161      3166      3167      3162      3161      3166      3162      3163      3164
      3163      3160      3337      3163      3164      3167      3163      3164      3341
      3164      3167      3166      3164      3167      3168      3164      3341      3342
      3164      3341      3346      3165      3166      3167      3165      3170      3169
      3165      3170      3171      3166      3165      3170      3166      3167      3168
      3167      3164      3341      3167      3168      3171      3167      3168      3345
      3168      3171      3170      3168      3171      3172      3168      3345      3346
      3168      3345      3350      3169      3170      3171      3169      3174      3173
      3169      3174      3175      3170      3169      3174      3170      3171      3172
      3171      3168      3345      3171      3172      3175      3171      3172      3349
      3172      3175      3174      3172      3175      3176      3172      3349      3354
      3172      3349      3350      3173      3174      3175      3173      3178      3177
      3173      3178      3179      3174      3173      3178      3174      3175      3176
      3175      3172      3349      3175      3176      3179      3175      3176      3353
      3176      3179      3178      3176      3179      3180      3176      3353      3358
      3176      3353      3354      3177      3178      3179      3177      3182      3181
      3177      3182      3183      3178      3177      3182      3178      3179      3180
      3179      3176      3353      3179      3180      3183      3179      3180      3357
      3180      3183      3182      3180      3183      3184      3180      3357      3362
      3180      3357      3358      3181      3182      3183      3181      3186      3185
      3181      3186      3187      3182      3181      3186      3182      3183      3184
      3183      3180      3357      3183      3184      3187      3183      3184      3361
      3184      3187      3186      3184      3187      3188      3184      3361      3362
      3184      3361      3366      3185      3186      3187      3185      3190      3189
      3185      3190      3191      3186      3185      3190      3186      3187      3188
      3187      3184      3361      3187      3188      3191      3187      3188      3365
      3188      3191      3190      3188      3191      3192      3188      3365      3366
      3188      3365      3370      3189      3190      3191      3189      3194      3193
      3189      3194      3195      3190      3189      3194      3190      3191      3192
      3191      3188      3365      3191      3192      3195      3191      3192      3369
      3192      3195      3194      3192      3195      3196      3192      3369      3374
      3192      3369      3370      3193      3194      3195      3193      3198      3197
      3193      3198      3199      3194      3193      3198      3194      3195      3196
      3195      3192      3369      3195      3196      3199      3195      3196      3373
      3196      3199      3198      3196      3199      3200      3196      3373      3378
      3196      3373      3374      3197      3198      3199      3197      3202      3201
      3197      3202      3203      3198      3197      3202      3198      3199      3200
      3199      3196      3373      3199      3200      3203      3199      3200      3377
      3200      3203      3202      3200      3203      3204      3200      3377      3382
      3200      3377      3378      3201      3202      3203      3201      3206      3205
      3201      3206      3207      3202      3201      3206      3202      3203      3204
      3203      3200      3377      3203      3204      3207      3203      3204      3381
      3204      3207      3206      3204      3207      3208      3204      3381      3382
      3204      3381      3386      3205      3206      3207      3205      3210      3209
      3205      3210      3211      3206      3205      3210      3206      3207      3208
      3207      3204      3381      3207      3208      3211      3207      3208      3385
      3208      3211      3210      3208      3211      3212      3208      3385      3386
      3208      3385      3390      3209      3210      3211      3209      3214      3213
      3209      3214      3215      3210      3209      3214      3210      3211      3212
      3211      3208      3385      3211      3212      3215      3211      3212      3389
      3212      3215      3214      3212      3215      3216      3212      3389      3394
      3212      3389      3390      3213      3214      3215      3213      3218      3217
      3213      3218      3219      3214      3213      3218      3214      3215      3216
      3215      3212      3389      3215      3216      3219      3215      3216      3393
      3216      3219      3218      3216      3219      3220      3216      3393      3398
      3216      3393      3394      3217      3218      3219      3217      3222      3221
      3217      3222      3223      3218      3217      3222      3218      3219      3220
      3219      3216      3393      3219      3220      3223      3219      3220      3397
      3220      3223      3222      3220      3223      3224      3220      3397      3402
      3220      3397      3398      3221      3222      3223      3221      3226      3225
      3221      3226      3227      3222      3221      3226      3222      3223      3224
      3223      3220      3397      3223      3224      3227      3223      3224      3401
      3224      3227      3226      3224      3227      3228      3224      3401      3402
      3224      3401      3406      3225      3226      3227      3225      3230      3229
      3225      3230      3231      3226      3225      3230      3226      3227      3228
      3227      3224      3401      3227      3228      3231      3227      3228      3405
      3228      3231      3230      3228      3231      3232      3228      3405      3406
      3228      3405      3410      3229      3230      3231      3229      3234      3233
      3229      3234      3235      3230      3229      3234      3230      3231      3232
      3231      3228      3405      3231      3232      3235      3231      3232      3409
      3232      3235      3234      3232      3235      3236      3232      3409      3414
      3232      3409      3410      3233      3234      3235      3233      3238      3237
      3233      3238      3239      3234      3233      3238      3234      3235      3236
      3235      3232      3409      3235      3236      3239      3235      3236      3413
      3236      3239      3238      3236      3239      3240      3236      3413      3418
      3236      3413      3414      3237      3238      3239      3238      3239      3240
      3239      3236      3413      3239      3240      3417      3240      3417      3418
      3241      3242      3243      3241      3246      3245      3241      3246      3247
      3242      3241      3246      3242      3243      3244      3243      3244      3247
      3243      3244      3421      3244      3247      3246      3244      3247      3248
      3244      3421      3422      3244      3421      3426      3245      3246      3247
      3245      3250      3249      3245      3250      3251      3246      3245      3250
      3246      3247      3248      3247      3244      3421      3247      3248      3251
      3247      3248      3425      3248      3251      3250      3248      3251      3252
      3248      3425      3426      3248      3425      3430      3249      3250      3251
      3249      3254      3253      3249      3254      3255      3250      3249      3254
      3250      3251      3252      3251      3248      3425      3251      3252      3255
      3251      3252      3429      3252      3255      3254      3252      3255      3256
      3252      3429      3434      3252      3429      3430      3253      3254      3255
      3253      3258      3257      3253      3258      3259      3254      3253      3258
      3254      3255      3256      3255      3252      3429      3255      3256      3259
      3255      3256      3433      3256      3259      3258      3256      3259      3260
      3256      3433      3438      3256      3433      3434      3257      3258      3259
      3257      3262      3261      3257      3262      3263      3258      3257      3262
      3258      3259      3260      3259      3256      3433      3259      3260      3263
      3259      3260      3437      3260      3263      3262      3260      3263      3264
      3260      3437      3442      3260      3437      3438      3261      3262      3263
      3261      3266      3265      3261      3266      3267      3262      3261      3266
      3262      3263      3264      3263      3260      3437      3263      3264      3267
      3263      3264      3441      3264      3267      3266      3264      3267      3268
      3264      3441      3442      3264      3441      3446      3265      3266      3267
      3265      3270      3269      3265      3270      3271      3266      3265      3270
      3266      3267      3268      3267      3264      3441      3267      3268      3271
      3267      3268      3445      3268      3271      3270      3268      3271      3272
      3268      3445      3446      3268      3445      3450      3269      3270      3271
      3269      3274      3273      3269      3274      3275      3270      3269      3274
      3270      3271      3272      3271      3268      3445      3271      3272      3275
      3271      3272      3449      3272      3275      3274      3272      3275      3276
      3272      3449      3454      3272      3449      3450      3273      3274      3275
      3273      3278      3277      3273      3278      3279      3274      3273      3278
      3274      3275      3276      3275      3272      3449      3275      3276      3279
      3275      3276      3453      3276      3279      3278      3276      3279      3280
      3276      3453      3458      3276      3453      3454      3277      3278      3279
      3277      3282      3281      3277      3282      3283      3278      3277      3282
      3278      3279      3280      3279      3276      3453      3279      3280      3283
      3279      3280      3457      3280      3283      3282      3280      3283      3284
      3280      3457      3462      3280      3457      3458      3281      3282      3283
      3281      3286      3285      3281      3286      3287      3282      3281      3286
      3282      3283      3284      3283      3280      3457      3283      3284      3287
      3283      3284      3461      3284      3287      3286      3284      3287      3288
      3284      3461      3462      3284      3461      3466      3285      3286      3287
      3285      3290      3289      3285      3290      3291      3286      3285      3290
      3286      3287      3288      3287      3284      3461      3287      3288      3291
      3287      3288      3465      3288      3291      3290      3288      3291      3292
      3288      3465      3466      3288      3465      3470      3289      3290      3291
      3289      3294      3293      3289      3294      3295      3290      3289      3294
      3290      3291      3292      3291      3288      3465      3291      3292      3295
      3291      3292      3469      3292      3295      3294      3292      3295      3296
      3292      3469      3474      3292      3469      3470      3293      3294      3295
      3293      3298      3297      3293      3298      3299      3294      3293      3298
      3294      3295      3296      3295      3292      3469      3295      3296      3299
      3295      3296      3473      3296      3299      3298      3296      3299      3300
      3296      3473      3478      3296      3473      3474      3297      3298      3299
      3297      3302      3301      3297      3302      3303      3298      3297      3302
      3298      3299      3300      3299      3296      3473      3299      3300      3303
      3299      3300      3477      3300      3303      3302      3300      3303      3304
      3300      3477      3482      3300      3477      3478      3301      3302      3303
      3301      3306      3305      3301      3306      3307      3302      3301      3306
      3302      3303      3304      3303      3300      3477      3303      3304      3307
      3303      3304      3481      3304      3307      3306      3304      3307      3308
      3304      3481      3482      3304      3481      3486      3305      3306      3307
      3305      3310      3309      3305      3310      3311      3306      3305      3310
      3306      3307      3308      3307      3304      3481      3307      3308      3311
      3307      3308      3485      3308      3311      3310      3308      3311      3312
      3308      3485      3486      3308      3485      3490      3309      3310      3311
      3309      3314      3313      3309      3314      3315      3310      3309      3314
      3310      3311      3312      3311      3308      3485      3311      3312      3315
      3311      3312      3489      3312      3315      3314      3312      3315      3316
      3312      3489      3494      3312      3489      3490      3313      3314      3315
      3313      3318      3317      3313      3318      3319      3314      3313      3318
      3314      3315      3316      3315      3312      3489      3315      3316      3319
      3315      3316      3493      3316      3319      3318      3316      3319      3320
      3316      3493      3498      3316      3493      3494      3317      3318      3319
      3317      3322      3321      3317      3322      3323      3318      3317      3322
      3318      3319      3320      3319      3316      3493      3319      3320      3323
      3319      3320      3497      3320      3323      3322      3320      3323      3324
      3320      3497      3502      3320      3497      3498      3321      3322      3323
      3321      3326      3325      3321      3326      3327      3322      3321      3326
      3322      3323      3324      3323      3320      3497      3323      3324      3327
      3323      3324      3501      3324      3327      3326      3324      3327      3328
      3324      3501      3502      3324      3501      3506      3325      3326      3327
      3325      3330      3329      3325      3330      3331      3326      3325      3330
      3326      3327      3328      3327      3324      3501      3327      3328      3331
      3327      3328      3505      3328      3331      3330      3328      3331      3332
      3328      3505      3506      3328      3505      3510      3329      3330      3331
      3329      3334      3333      3329      3334      3335      3330      3329      3334
      3330      3331      3332      3331      3328      3505      3331      3332      3335
      3331      3332      3509      3332      3335      3334      3332      3335      3336
      3332      3509      3514      3332      3509      3510      3333      3334      3335
      3333      3338      3337      3333      3338      3339      3334      3333      3338
      3334      3335      3336      3335      3332      3509      3335      3336      3339
      3335      3336      3513      3336      3339      3338      3336      3339      3340
      3336      3513      3518      3336      3513      3514      3337      3338      3339
      3337      3342      3341      3337      3342      3343      3338      3337      3342
      3338      3339      3340      3339      3336      3513      3339      3340      3343
      3339      3340      3517      3340      3343      3342      3340      3343      3344
      3340      3517      3522      3340      3517      3518      3341      3342      3343
      3341      3346      3345      3341      3346      3347      3342      3341      3346
      3342      3343      3344      3343      3340      3517      3343      3344      3347
      3343      3344      3521      3344      3347      3346      3344      3347      3348
      3344      3521      3522      3344      3521      3526      3345      3346      3347
      3345      3350      3349      3345      3350      3351      3346      3345      3350
      3346      3347      3348      3347      3344      3521      3347      3348      3351
      3347      3348      3525      3348      3351      3350      3348      3351      3352
      3348      3525      3526      3348      3525      3530      3349      3350      3351
      3349      3354      3353      3349      3354      3355      3350      3349      3354
      3350      3351      3352      3351      3348      3525      3351      3352      3355
      3351      3352      3529      3352      3355      3354      3352      3355      3356
      3352      3529      3534      3352      3529      3530      3353      3354      3355
      3353      3358      3357      3353      3358      3359      3354      3353      3358
      3354      3355      3356      3355      3352      3529      3355      3356      3359
      3355      3356      3533      3356      3359      3358      3356      3359      3360
      3356      3533      3534      3356      3533      3538      3357      3358      3359
      3357      3362      3361      3357      3362      3363      3358      3357      3362
      3358      3359      3360      3359      3356      3533      3359      3360      3363
      3359      3360      3537      3360      3363      3362      3360      3363      3364
      3360      3537      3542      3360      3537      3538      3361      3362      3363
      3361      3366      3365      3361      3366      3367      3362      3361      3366
      3362      3363      3364      3363      3360      3537      3363      3364      3367
      3363      3364      3541      3364      3367      3366      3364      3367      3368
      3364      3541      3542      3364      3541      3546      3365      3366      3367
      3365      3370      3369      3365      3370      3371      3366      3365      3370
      3366      3367      3368      3367      3364      3541      3367      3368      3371
      3367      3368      3545      3368      3371      3370      3368      3371      3372
      3368      3545      3546      3368      3545      3550      3369      3370      3371
      3369      3374      3373      3369      3374      3375      3370      3369      3374
      3370      3371      3372      3371      3368      3545      3371      3372      3375
      3371      3372      3549      3372      3375      3374      3372      3375      3376
      3372      3549      3554      3372      3549      3550      3373      3374      3375
      3373      3378      3377      3373      3378      3379      3374      3373      3378
      3374      3375      3376      3375      3372      3549      3375      3376      3379
      3375      3376      3553      3376      3379      3378      3376      3379      3380
      3376      3553      3558      3376      3553      3554      3377      3378      3379
      3377      3382      3381      3377      3382      3383      3378      3377      3382
      3378      3379      3380      3379      3376      3553      3379      3380      3383
      3379      3380      3557      3380      3383      3382      3380      3383      3384
      3380      3557      3562      3380      3557      3558      3381      3382      3383
      3381      3386      3385      3381      3386      3387      3382      3381      3386
      3382      3383      3384      3383      3380      3557      3383      3384      3387
      3383      3384      3561      3384      3387      3386      3384      3387      3388
      3384      3561      3562      3384      3561      3566      3385      3386      3387
      3385      3390      3389      3385      3390      3391      3386      3385      3390
      3386      3387      3388      3387      3384      3561      3387      3388      3391
      3387      3388      3565      3388      3391      3390      3388      3391      3392
      3388      3565      3566      3388      3565      3570      3389      3390      3391
      3389      3394      3393      3389      3394      3395      3390      3389      3394
      3390      3391      3392      3391      3388      3565      3391      3392      3395
      3391      3392      3569      3392      3395      3394      3392      3395      3396
      3392      3569      3574      3392      3569      3570      3393      3394      3395
      3393      3398      3397      3393      3398      3399      3394      3393      3398
      3394      3395      3396      3395      3392      3569      3395      3396      3399
      3395      3396      3573      3396      3399      3398      3396      3399      3400
      3396      3573      3578      3396      3573      3574      3397      3398      3399
      3397      3402      3401      3397      3402      3403      3398      3397      3402
      3398      3399      3400      3399      3396      3573      3399      3400      3403
      3399      3400      3577      3400      3403      3402      3400      3403      3404
      3400      3577      3582      3400      3577      3578      3401      3402      3403
      3401      3406      3405      3401      3406      3407      3402      3401      3406
      3402      3403      3404      3403      3400      3577      3403      3404      3407
      3403      3404      3581      3404      3407      3406      3404      3407      3408
      3404      3581      3582      3404      3581      3586      3405      3406      3407
      3405      3410      3409      3405      3410      3411      3406      3405      3410
      3406      3407      3408      3407      3404      3581      3407      3408      3411
      3407      3408      3585      3408      3411      3410      3408      3411      3412
      3408      3585      3586      3408      3585      3590      3409      3410      3411
      3409      3414      3413      3409      3414      3415      3410      3409      3414
      3410      3411      3412      3411      3408      3585      3411      3412      3415
      3411      3412      3589      3412      3415      3414      3412      3415      3416
      3412      3589      3594      3412      3589      3590      3413      3414      3415
      3413      3418      3417      3413      3418      3419      3414      3413      3418
      3414      3415      3416      3415      3412      3589      3415      3416      3419
      3415      3416      3593      3416      3419      3418      3416      3419      3420
      3416      3593      3598      3416      3593      3594      3417      3418      3419
      3418      3419      3420      3419      3416      3593      3419      3420      3597
      3420      3597      3598      3421      3422      3423      3421      3426      3425
      3421      3426      3427      3422      3421      3426      3422      3423      3424
      3423      3424      3427      3423      3424      3601      3424      3427      3426
      3424      3427      3428      3424      3601      3602      3424      3601      3606
      3425      3426      3427      3425      3430      3429      3425      3430      3431
      3426      3425      3430      3426      3427      3428      3427      3424      3601
      3427      3428      3431      3427      3428      3605      3428      3431      3430
      3428      3431      3432      3428      3605      3606      3428      3605      3610
      3429      3430      3431      3429      3434      3433      3429      3434      3435
      3430      3429      3434      3430      3431      3432      3431      3428      3605
      3431      3432      3435      3431      3432      3609      3432      3435      3434
      3432      3435      3436      3432      3609      3614      3432      3609      3610
      3433      3434      3435      3433      3438      3437      3433      3438      3439
      3434      3433      3438      3434      3435      3436      3435      3432      3609
      3435      3436      3439      3435      3436      3613      3436      3439      3438
      3436      3439      3440      3436      3613      3618      3436      3613      3614
      3437      3438      3439      3437      3442      3441      3437      3442      3443
      3438      3437      3442      3438      3439      3440      3439      3436      3613
      3439      3440      3443      3439      3440      3617      3440      3443      3442
      3440      3443      3444      3440      3617      3622      3440      3617      3618
      3441      3442      3443      3441      3446      3445      3441      3446      3447
      3442      3441      3446      3442      3443      3444      3443      3440      3617
      3443      3444      3447      3443      3444      3621      3444      3447      3446
      3444      3447      3448      3444      3621      3622      3444      3621      3626
      3445      3446      3447      3445      3450      3449      3445      3450      3451
      3446      3445      3450      3446      3447      3448      3447      3444      3621
      3447      3448      3451      3447      3448      3625      3448      3451      3450
      3448      3451      3452      3448      3625      3626      3448      3625      3630
      3449      3450      3451      3449      3454      3453      3449      3454      3455
      3450      3449      3454      3450      3451      3452      3451      3448      3625
      3451      3452      3455      3451      3452      3629      3452      3455      3454
      3452      3455      3456      3452      3629      3630      3452      3629      3634
      3453      3454      3455      3453      3458      3457      3453      3458      3459
      3454      3453      3458      3454      3455      3456      3455      3452      3629
      3455      3456      3459      3455      3456      3633      3456      3459      3458
      3456      3459      3460      3456      3633      3634      3456      3633      3638
      3457      3458      3459      3457      3462      3461      3457      3462      3463
      3458      3457      3462      3458      3459      3460      3459      3456      3633
      3459      3460      3463      3459      3460      3637      3460      3463      3462
      3460      3463      3464      3460      3637      3638      3460      3637      3642
      3461      3462      3463      3461      3466      3465      3461      3466      3467
      3462      3461      3466      3462      3463      3464      3463      3460      3637
      3463      3464      3467      3463      3464      3641      3464      3467      3466
      3464      3467      3468      3464      3641      3642      3464      3641      3646
      3465      3466      3467      3465      3470      3469      3465      3470      3471
      3466      3465      3470      3466      3467      3468      3467      3464      3641
      3467      3468      3471      3467      3468      3645      3468      3471      3470
      3468      3471      3472      3468      3645      3646      3468      3645      3650
      3469      3470      3471      3469      3474      3473      3469      3474      3475
      3470      3469      3474      3470      3471      3472      3471      3468      3645
      3471      3472      3475      3471      3472      3649      3472      3475      3474
      3472      3475      3476      3472      3649      3654      3472      3649      3650
      3473      3474      3475      3473      3478      3477      3473      3478      3479
      3474      3473      3478      3474      3475      3476      3475      3472      3649
      3475      3476      3479      3475      3476      3653      3476      3479      3478
      3476      3479      3480      3476      3653      3658      3476      3653      3654
      3477      3478      3479      3477      3482      3481      3477      3482      3483
      3478      3477      3482      3478      3479      3480      3479      3476      3653
      3479      3480      3483      3479      3480      3657      3480      3483      3482
      3480      3483      3484      3480      3657      3662      3480      3657      3658
      3481      3482      3483      3481      3486      3485      3481      3486      3487
      3482      3481      3486      3482      3483      3484      3483      3480      3657
      3483      3484      3487      3483      3484      3661      3484      3487      3486
      3484      3487      3488      3484      3661      3662      3484      3661      3666
      3485      3486      3487      3485      3490      3489      3485      3490      3491
      3486      3485      3490      3486      3487      3488      3487      3484      3661
      3487      3488      3491      3487      3488      3665      3488      3491      3490
      3488      3491      3492      3488      3665      3666      3488      3665      3670
      3489      3490      3491      3489      3494      3493      3489      3494      3495
      3490      3489      3494      3490      3491      3492      3491      3488      3665
      3491      3492      3495      3491      3492      3669      3492      3495      3494
      3492      3495      3496      3492      3669      3674      3492      3669      3670
      3493      3494      3495      3493      3498      3497      3493      3498      3499
      3494      3493      3498      3494      3495      3496      3495      3492      3669
      3495      3496      3499      3495      3496      3673      3496      3499      3498
      3496      3499      3500      3496      3673      3678      3496      3673      3674
      3497      3498      3499      3497      3502      3501      3497      3502      3503
      3498      3497      3502      3498      3499      3500      3499      3496      3673
      3499      3500      3503      3499      3500      3677      3500      3503      3502
      3500      3503      3504      3500      3677      3682      3500      3677      3678
      3501      3502      3503      3501      3506      3505      3501      3506      3507
      3502      3501      3506      3502      3503      3504      3503      3500      3677
      3503      3504      3507      3503      3504      3681      3504      3507      3506
      3504      3507      3508      3504      3681      3682      3504      3681      3686
      3505      3506      3507      3505      3510      3509      3505      3510      3511
      3506      3505      3510      3506      3507      3508      3507      3504      3681
      3507      3508      3511      3507      3508      3685      3508      3511      3510
      3508      3511      3512      3508      3685      3686      3508      3685      3690
      3509      3510      3511      3509      3514      3513      3509      3514      3515
      3510      3509      3514      3510      3511      3512      3511      3508      3685
      3511      3512      3515      3511      3512      3689      3512      3515      3514
      3512      3515      3516      3512      3689      3690      3512      3689      3694
      3513      3514      3515      3513      3518      3517      3513      3518      3519
      3514      3513      3518      3514      3515      3516      3515      3512      3689
      3515      3516      3519      3515      3516      3693      3516      3519      3518
      3516      3519      3520      3516      3693      3694      3516      3693      3698
      3517      3518      3519      3517      3522      3521      3517      3522      3523
      3518      3517      3522      3518      3519      3520      3519      3516      3693
      3519      3520      3523      3519      3520      3697      3520      3523      3522
      3520      3523      3524      3520      3697      3698      3520      3697      3702
      3521      3522      3523      3521      3526      3525      3521      3526      3527
      3522      3521      3526      3522      3523      3524      3523      3520      3697
      3523      3524      3527      3523      3524      3701      3524      3527      3526
      3524      3527      3528      3524      3701      3702      3524      3701      3706
      3525      3526      3527      3525      3530      3529      3525      3530      3531
      3526      3525      3530      3526      3527      3528      3527      3524      3701
      3527      3528      3531      3527      3528      3705      3528      3531      3530
      3528      3531      3532      3528      3705      3706      3528      3705      3710
      3529      3530      3531      3529      3534      3533      3529      3534      3535
      3530      3529      3534      3530      3531      3532      3531      3528      3705
      3531      3532      3535      3531      3532      3709      3532      3535      3534
      3532      3535      3536      3532      3709      3714      3532      3709      3710
      3533      3534      3535      3533      3538      3537      3533      3538      3539
      3534      3533      3538      3534      3535      3536      3535      3532      3709
      3535      3536      3539      3535      3536      3713      3536      3539      3538
      3536      3539      3540      3536      3713      3718      3536      3713      3714
      3537      3538      3539      3537      3542      3541      3537      3542      3543
      3538      3537      3542      3538      3539      3540      3539      3536      3713
      3539      3540      3543      3539      3540      3717      3540      3543      3542
      3540      3543      3544      3540      3717      3722      3540      3717      3718
      3541      3542      3543      3541      3546      3545      3541      3546      3547
      3542      3541      3546      3542      3543      3544      3543      3540      3717
      3543      3544      3547      3543      3544      3721      3544      3547      3546
      3544      3547      3548      3544      3721      3722      3544      3721      3726
      3545      3546      3547      3545      3550      3549      3545      3550      3551
      3546      3545      3550      3546      3547      3548      3547      3544      3721
      3547      3548      3551      3547      3548      3725      3548      3551      3550
      3548      3551      3552      3548      3725      3726      3548      3725      3730
      3549      3550      3551      3549      3554      3553      3549      3554      3555
      3550      3549      3554      3550      3551      3552      3551      3548      3725
      3551      3552      3555      3551      3552      3729      3552      3555      3554
      3552      3555      3556      3552      3729      3734      3552      3729      3730
      3553      3554      3555      3553      3558      3557      3553      3558      3559
      3554      3553      3558      3554      3555      3556      3555      3552      3729
      3555      3556      3559      3555      3556      3733      3556      3559      3558
      3556      3559      3560      3556      3733      3738      3556      3733      3734
      3557      3558      3559      3557      3562      3561      3557      3562      3563
      3558      3557      3562      3558      3559      3560      3559      3556      3733
      3559      3560      3563      3559      3560      3737      3560      3563      3562
      3560      3563      3564      3560      3737      3742      3560      3737      3738
      3561      3562      3563      3561      3566      3565      3561      3566      3567
      3562      3561      3566      3562      3563      3564      3563      3560      3737
      3563      3564      3567      3563      3564      3741      3564      3567      3566
      3564      3567      3568      3564      3741      3742      3564      3741      3746
      3565      3566      3567      3565      3570      3569      3565      3570      3571
      3566      3565      3570      3566      3567      3568      3567      3564      3741
      3567      3568      3571      3567      3568      3745      3568      3571      3570
      3568      3571      3572      3568      3745      3746      3568      3745      3750
      3569      3570      3571      3569      3574      3573      3569      3574      3575
      3570      3569      3574      3570      3571      3572      3571      3568      3745
      3571      3572      3575      3571      3572      3749      3572      3575      3574
      3572      3575      3576      3572      3749      3754      3572      3749      3750
      3573      3574      3575      3573      3578      3577      3573      3578      3579
      3574      3573      3578      3574      3575      3576      3575      3572      3749
      3575      3576      3579      3575      3576      3753      3576      3579      3578
      3576      3579      3580      3576      3753      3754      3576      3753      3758
      3577      3578      3579      3577      3582      3581      3577      3582      3583
      3578      3577      3582      3578      3579      3580      3579      3576      3753
      3579      3580      3583      3579      3580      3757      3580      3583      3582
      3580      3583      3584      3580      3757      3758      3580      3757      3762
      3581      3582      3583      3581      3586      3585      3581      3586      3587
      3582      3581      3586      3582      3583      3584      3583      3580      3757
      3583      3584      3587      3583      3584      3761      3584      3587      3586
      3584      3587      3588      3584      3761      3762      3584      3761      3766
      3585      3586      3587      3585      3590      3589      3585      3590      3591
      3586      3585      3590      3586      3587      3588      3587      3584      3761
      3587      3588      3591      3587      3588      3765      3588      3591      3590
      3588      3591      3592      3588      3765      3766      3588      3765      3770
      3589      3590      3591      3589      3594      3593      3589      3594      3595
      3590      3589      3594      3590      3591      3592      3591      3588      3765
      3591      3592      3595      3591      3592      3769      3592      3595      3594
      3592      3595      3596      3592      3769      3770      3592      3769      3774
      3593      3594      3595      3593      3598      3597      3593      3598      3599
      3594      3593      3598      3594      3595      3596      3595      3592      3769
      3595      3596      3599      3595      3596      3773      3596      3599      3598
      3596      3599      3600      3596      3773      3774      3596      3773      3778
      3597      3598      3599      3598      3599      3600      3599      3596      3773
      3599      3600      3777      3600      3777      3778      3601      3602      3603
      3601      3606      3605      3601      3606      3607      3602      3601      3606
      3602      3603      3604      3603      3604      3781      3603      3604      3607
      3604      3607      3606      3604      3607      3608      3604      3781      3782
      3604      3781      3786      3605      3606      3607      3605      3610      3609
      3605      3610      3611      3606      3605      3610      3606      3607      3608
      3607      3604      3781      3607      3608      3785      3607      3608      3611
      3608      3611      3610      3608      3611      3612      3608      3785      3786
      3608      3785      3790      3609      3610      3611      3609      3614      3613
      3609      3614      3615      3610      3609      3614      3610      3611      3612
      3611      3608      3785      3611      3612      3615      3611      3612      3789
      3612      3615      3614      3612      3615      3616      3612      3789      3790
      3612      3789      3794      3613      3614      3615      3613      3618      3617
      3613      3618      3619      3614      3613      3618      3614      3615      3616
      3615      3612      3789      3615      3616      3619      3615      3616      3793
      3616      3619      3618      3616      3619      3620      3616      3793      3794
      3616      3793      3798      3617      3618      3619      3617      3622      3621
      3617      3622      3623      3618      3617      3622      3618      3619      3620
      3619      3616      3793      3619      3620      3797      3619      3620      3623
      3620      3623      3622      3620      3623      3624      3620      3797      3802
      3620      3797      3798      3621      3622      3623      3621      3626      3625
      3621      3626      3627      3622      3621      3626      3622      3623      3624
      3623      3620      3797      3623      3624      3801      3623      3624      3627
      3624      3627      3626      3624      3627      3628      3624      3801      3802
      3624      3801      3806      3625      3626      3627      3625      3630      3629
      3625      3630      3631      3626      3625      3630      3626      3627      3628
      3627      3624      3801      3627      3628      3805      3627      3628      3631
      3628      3631      3630      3628      3631      3632      3628      3805      3806
      3628      3805      3810      3629      3630      3631      3629      3634      3633
      3629      3634      3635      3630      3629      3634      3630      3631      3632
      3631      3628      3805      3631      3632      3635      3631      3632      3809
      3632      3635      3634      3632      3635      3636      3632      3809      3814
      3632      3809      3810      3633      3634      3635      3633      3638      3637
      3633      3638      3639      3634      3633      3638      3634      3635      3636
      3635      3632      3809      3635      3636      3639      3635      3636      3813
      3636      3639      3638      3636      3639      3640      3636      3813      3818
      3636      3813      3814      3637      3638      3639      3637      3642      3641
      3637      3642      3643      3638      3637      3642      3638      3639      3640
      3639      3636      3813      3639      3640      3817      3639      3640      3643
      3640      3643      3642      3640      3643      3644      3640      3817      3822
      3640      3817      3818      3641      3642      3643      3641      3646      3645
      3641      3646      3647      3642      3641      3646      3642      3643      3644
      3643      3640      3817      3643      3644      3821      3643      3644      3647
      3644      3647      3646      3644      3647      3648      3644      3821      3822
      3644      3821      3826      3645      3646      3647      3645      3650      3649
      3645      3650      3651      3646      3645      3650      3646      3647      3648
      3647      3644      3821      3647      3648      3825      3647      3648      3651
      3648      3651      3650      3648      3651      3652      3648      3825      3826
      3648      3825      3830      3649      3650      3651      3649      3654      3653
      3649      3654      3655      3650      3649      3654      3650      3651      3652
      3651      3648      3825      3651      3652      3829      3651      3652      3655
      3652      3655      3654      3652      3655      3656      3652      3829      3834
      3652      3829      3830      3653      3654      3655      3653      3658      3657
      3653      3658      3659      3654      3653      3658      3654      3655      3656
      3655      3652      3829      3655      3656      3833      3655      3656      3659
      3656      3659      3658      3656      3659      3660      3656      3833      3838
      3656      3833      3834      3657      3658      3659      3657      3662      3661
      3657      3662      3663      3658      3657      3662      3658      3659      3660
      3659      3656      3833      3659      3660      3837      3659      3660      3663
      3660      3663      3662      3660      3663      3664      3660      3837      3842
      3660      3837      3838      3661      3662      3663      3661      3666      3665
      3661      3666      3667      3662      3661      3666      3662      3663      3664
      3663      3660      3837      3663      3664      3841      3663      3664      3667
      3664      3667      3666      3664      3667      3668      3664      3841      3842
      3664      3841      3846      3665      3666      3667      3665      3670      3669
      3665      3670      3671      3666      3665      3670      3666      3667      3668
      3667      3664      3841      3667      3668      3845      3667      3668      3671
      3668      3671      3670      3668      3671      3672      3668      3845      3846
      3668      3845      3850      3669      3670      3671      3669      3674      3673
      3669      3674      3675      3670      3669      3674      3670      3671      3672
      3671      3668      3845      3671      3672      3675      3671      3672      3849
      3672      3675      3674      3672      3675      3676      3672      3849      3850
      3672      3849      3854      3673      3674      3675      3673      3678      3677
      3673      3678      3679      3674      3673      3678      3674      3675      3676
      3675      3672      3849      3675      3676      3679      3675      3676      3853
      3676      3679      3678      3676      3679      3680      3676      3853      3854
      3676      3853      3858      3677      3678      3679      3677      3682      3681
      3677      3682      3683      3678      3677      3682      3678      3679      3680
      3679      3676      3853      3679      3680      3857      3679      3680      3683
      3680      3683      3682      3680      3683      3684      3680      3857      3858
      3680      3857      3862      3681      3682      3683      3681      3686      3685
      3681      3686      3687      3682      3681      3686      3682      3683      3684
      3683      3680      3857      3683      3684      3861      3683      3684      3687
      3684      3687      3686      3684      3687      3688      3684      3861      3862
      3684      3861      3866      3685      3686      3687      3685      3690      3689
      3685      3690      3691      3686      3685      3690      3686      3687      3688
      3687      3684      3861      3687      3688      3865      3687      3688      3691
      3688      3691      3690      3688      3691      3692      3688      3865      3866
      3688      3865      3870      3689      3690      3691      3689      3694      3693
      3689      3694      3695      3690      3689      3694      3690      3691      3692
      3691      3688      3865      3691      3692      3695      3691      3692      3869
      3692      3695      3694      3692      3695      3696      3692      3869      3874
      3692      3869      3870      3693      3694      3695      3693      3698      3697
      3693      3698      3699      3694      3693      3698      3694      3695      3696
      3695      3692      3869      3695      3696      3699      3695      3696      3873
      3696      3699      3698      3696      3699      3700      3696      3873      3878
      3696      3873      3874      3697      3698      3699      3697      3702      3701
      3697      3702      3703      3698      3697      3702      3698      3699      3700
      3699      3696      3873      3699      3700      3877      3699      3700      3703
      3700      3703      3702      3700      3703      3704      3700      3877      3882
      3700      3877      3878      3701      3702      3703      3701      3706      3705
      3701      3706      3707      3702      3701      3706      3702      3703      3704
      3703      3700      3877      3703      3704      3881      3703      3704      3707
      3704      3707      3706      3704      3707      3708      3704      3881      3882
      3704      3881      3886      3705      3706      3707      3705      3710      3709
      3705      3710      3711      3706      3705      3710      3706      3707      3708
      3707      3704      3881      3707      3708      3885      3707      3708      3711
      3708      3711      3710      3708      3711      3712      3708      3885      3886
      3708      3885      3890      3709      3710      3711      3709      3714      3713
      3709      3714      3715      3710      3709      3714      3710      3711      3712
      3711      3708      3885      3711      3712      3889      3711      3712      3715
      3712      3715      3714      3712      3715      3716      3712      3889      3894
      3712      3889      3890      3713      3714      3715      3713      3718      3717
      3713      3718      3719      3714      3713      3718      3714      3715      3716
      3715      3712      3889      3715      3716      3893      3715      3716      3719
      3716      3719      3718      3716      3719      3720      3716      3893      3898
      3716      3893      3894      3717      3718      3719      3717      3722      3721
      3717      3722      3723      3718      3717      3722      3718      3719      3720
      3719      3716      3893      3719      3720      3897      3719      3720      3723
      3720      3723      3722      3720      3723      3724      3720      3897      3902
      3720      3897      3898      3721      3722      3723      3721      3726      3725
      3721      3726      3727      3722      3721      3726      3722      3723      3724
      3723      3720      3897      3723      3724      3901      3723      3724      3727
      3724      3727      3726      3724      3727      3728      3724      3901      3902
      3724      3901      3906      3725      3726      3727      3725      3730      3729
      3725      3730      3731      3726      3725      3730      3726      3727      3728
      3727      3724      3901      3727      3728      3905      3727      3728      3731
      3728      3731      3730      3728      3731      3732      3728      3905      3906
      3728      3905      3910      3729      3730      3731      3729      3734      3733
      3729      3734      3735      3730      3729      3734      3730      3731      3732
      3731      3728      3905      3731      3732      3735      3731      3732      3909
      3732      3735      3734      3732      3735      3736      3732      3909      3910
      3732      3909      3914      3733      3734      3735      3733      3738      3737
      3733      3738      3739      3734      3733      3738      3734      3735      3736
      3735      3732      3909      3735      3736      3739      3735      3736      3913
      3736      3739      3738      3736      3739      3740      3736      3913      3914
      3736      3913      3918      3737      3738      3739      3737      3742      3741
      3737      3742      3743      3738      3737      3742      3738      3739      3740
      3739      3736      3913      3739      3740      3917      3739      3740      3743
      3740      3743      3742      3740      3743      3744      3740      3917      3918
      3740      3917      3922      3741      3742      3743      3741      3746      3745
      3741      3746      3747      3742      3741      3746      3742      3743      3744
      3743      3740      3917      3743      3744      3921      3743      3744      3747
      3744      3747      3746      3744      3747      3748      3744      3921      3922
      3744      3921      3926      3745      3746      3747      3745      3750      3749
      3745      3750      3751      3746      3745      3750      3746      3747      3748
      3747      3744      3921      3747      3748      3925      3747      3748      3751
      3748      3751      3750      3748      3751      3752      3748      3925      3926
      3748      3925      3930      3749      3750      3751      3749      3754      3753
      3749      3754      3755      3750      3749      3754      3750      3751      3752
      3751      3748      3925      3751      3752      3755      3751      3752      3929
      3752      3755      3754      3752      3755      3756      3752      3929      3934
      3752      3929      3930      3753      3754      3755      3753      3758      3757
      3753      3758      3759      3754      3753      3758      3754      3755      3756
      3755      3752      3929      3755      3756      3759      3755      3756      3933
      3756      3759      3758      3756      3759      3760      3756      3933      3938
      3756      3933      3934      3757      3758      3759      3757      3762      3761
      3757      3762      3763      3758      3757      3762      3758      3759      3760
      3759      3756      3933      3759      3760      3937      3759      3760      3763
      3760      3763      3762      3760      3763      3764      3760      3937      3942
      3760      3937      3938      3761      3762      3763      3761      3766      3765
      3761      3766      3767      3762      3761      3766      3762      3763      3764
      3763      3760      3937      3763      3764      3941      3763      3764      3767
      3764      3767      3766      3764      3767      3768      3764      3941      3942
      3764      3941      3946      3765      3766      3767      3765      3770      3769
      3765      3770      3771      3766      3765      3770      3766      3767      3768
      3767      3764      3941      3767      3768      3945      3767      3768      3771
      3768      3771      3770      3768      3771      3772      3768      3945      3946
      3768      3945      3950      3769      3770      3771      3769      3774      3773
      3769      3774      3775      3770      3769      3774      3770      3771      3772
      3771      3768      3945      3771      3772      3775      3771      3772      3949
      3772      3775      3774      3772      3775      3776      3772      3949      3954
      3772      3949      3950      3773      3774      3775      3773      3778      3777
      3773      3778      3779      3774      3773      3778      3774      3775      3776
      3775      3772      3949      3775      3776      3953      3775      3776      3779
      3776      3779      3778      3776      3779      3780      3776      3953      3958
      3776      3953      3954      3777      3778      3779      3778      3779      3780
      3779      3776      3953      3779      3780      3957      3780      3957      3958
      3781      3782      3783      3781      3786      3785      3781      3786      3787
      3782      3781      3786      3782      3783      3784      3783      3784      3961
      3783      3784      3787      3784      3787      3786      3784      3787      3788
      3784      3961      3962      3784      3961      3966      3785      3786      3787
      3785      3790      3789      3785      3790      3791      3786      3785      3790
      3786      3787      3788      3787      3784      3961      3787      3788      3965
      3787      3788      3791      3788      3791      3790      3788      3791      3792
      3788      3965      3966      3788      3965      3970      3789      3790      3791
      3789      3794      3793      3789      3794      3795      3790      3789      3794
      3790      3791      3792      3791      3788      3965      3791      3792      3795
      3791      3792      3969      3792      3795      3794      3792      3795      3796
      3792      3969      3974      3792      3969      3970      3793      3794      3795
      3793      3798      3797      3793      3798      3799      3794      3793      3798
      3794      3795      3796      3795      3792      3969      3795      3796      3973
      3795      3796      3799      3796      3799      3798      3796      3799      3800
      3796      3973      3978      3796      3973      3974      3797      3798      3799
      3797      3802      3801      3797      3802      3803      3798      3797      3802
      3798      3799      3800      3799      3796      3973      3799      3800      3977
      3799      3800      3803      3800      3803      3802      3800      3803      3804
      3800      3977      3982      3800      3977      3978      3801      3802      3803
      3801      3806      3805      3801      3806      3807      3802      3801      3806
      3802      3803      3804      3803      3800      3977      3803      3804      3981
      3803      3804      3807      3804      3807      3806      3804      3807      3808
      3804      3981      3982      3804      3981      3986      3805      3806      3807
      3805      3810      3809      3805      3810      3811      3806      3805      3810
      3806      3807      3808      3807      3804      3981      3807      3808      3985
      3807      3808      3811      3808      3811      3810      3808      3811      3812
      3808      3985      3986      3808      3985      3990      3809      3810      3811
      3809      3814      3813      3809      3814      3815      3810      3809      3814
      3810      3811      3812      3811      3808      3985      3811      3812      3989
      3811      3812      3815      3812      3815      3814      3812      3815      3816
      3812      3989      3994      3812      3989      3990      3813      3814      3815
      3813      3818      3817      3813      3818      3819      3814      3813      3818
      3814      3815      3816      3815      3812      3989      3815      3816      3819
      3815      3816      3993      3816      3819      3818      3816      3819      3820
      3816      3993      3994      3816      3993      3998      3817      3818      3819
      3817      3822      3821      3817      3822      3823      3818      3817      3822
      3818      3819      3820      3819      3816      3993      3819      3820      3997
      3819      3820      3823      3820      3823      3822      3820      3823      3824
      3820      3997      3998      3820      3997      4002      3821      3822      3823
      3821      3826      3825      3821      3826      3827      3822      3821      3826
      3822      3823      3824      3823      3820      3997      3823      3824      4001
      3823      3824      3827      3824      3827      3826      3824      3827      3828
      3824      4001      4002      3824      4001      4006      3825      3826      3827
      3825      3830      3829      3825      3830      3831      3826      3825      3830
      3826      3827      3828      3827      3824      4001      3827      3828      4005
      3827      3828      3831      3828      3831      3830      3828      3831      3832
      3828      4005      4006      3828      4005      4010      3829      3830      3831
      3829      3834      3833      3829      3834      3835      3830      3829      3834
      3830      3831      3832      3831      3828      4005      3831      3832      3835
      3831      3832      4009      3832      3835      3834      3832      3835      3836
      3832      4009      4010      3832      4009      4014      3833      3834      3835
      3833      3838      3837      3833      3838      3839      3834      3833      3838
      3834      3835      3836      3835      3832      4009      3835      3836      3839
      3835      3836      4013      3836      3839      3838      3836      3839      3840
      3836      4013      4014      3836      4013      4018      3837      3838      3839
      3837      3842      3841      3837      3842      3843      3838      3837      3842
      3838      3839      3840      3839      3836      4013      3839      3840      4017
      3839      3840      3843      3840      3843      3842      3840      3843      3844
      3840      4017      4022      3840      4017      4018      3841      3842      3843
      3841      3846      3845      3841      3846      3847      3842      3841      3846
      3842      3843      3844      3843      3840      4017      3843      3844      4021
      3843      3844      3847      3844      3847      3846      3844      3847      3848
      3844      4021      4022      3844      4021      4026      3845      3846      3847
      3845      3850      3849      3845      3850      3851      3846      3845      3850
      3846      3847      3848      3847      3844      4021      3847      3848      4025
      3847      3848      3851      3848      3851      3850      3848      3851      3852
      3848      4025      4026      3848      4025      4030      3849      3850      3851
      3849      3854      3853      3849      3854      3855      3850      3849      3854
      3850      3851      3852      3851      3848      4025      3851      3852      3855
      3851      3852      4029      3852      3855      3854      3852      3855      3856
      3852      4029      4034      3852      4029      4030      3853      3854      3855
      3853      3858      3857      3853      3858      3859      3854      3853      3858
      3854      3855      3856      3855      3852      4029      3855      3856      3859
      3855      3856      4033      3856      3859      3858      3856      3859      3860
      3856      4033      4038      3856      4033      4034      3857      3858      3859
      3857      3862      3861      3857      3862      3863      3858      3857      3862
      3858      3859      3860      3859      3856      4033      3859      3860      4037
      3859      3860      3863      3860      3863      3862      3860      3863      3864
      3860      4037      4042      3860      4037      4038      3861      3862      3863
      3861      3866      3865      3861      3866      3867      3862      3861      3866
      3862      3863      3864      3863      3860      4037      3863      3864      4041
      3863      3864      3867      3864      3867      3866      3864      3867      3868
      3864      4041      4042      3864      4041      4046      3865      3866      3867
      3865      3870      3869      3865      3870      3871      3866      3865      3870
      3866      3867      3868      3867      3864      4041      3867      3868      4045
      3867      3868      3871      3868      3871      3870      3868      3871      3872
      3868      4045      4046      3868      4045      4050      3869      3870      3871
      3869      3874      3873      3869      3874      3875      3870      3869      3874
      3870      3871      3872      3871      3868      4045      3871      3872      4049
      3871      3872      3875      3872      3875      3874      3872      3875      3876
      3872      4049      4054      3872      4049      4050      3873      3874      3875
      3873      3878      3877      3873      3878      3879      3874      3873      3878
      3874      3875      3876      3875      3872      4049      3875      3876      4053
      3875      3876      3879      3876      3879      3878      3876      3879      3880
      3876      4053      4058      3876      4053      4054      3877      3878      3879
      3877      3882      3881      3877      3882      3883      3878      3877      3882
      3878      3879      3880      3879      3876      4053      3879      3880      4057
      3879      3880      3883      3880      3883      3882      3880      3883      3884
      3880      4057      4062      3880      4057      4058      3881      3882      3883
      3881      3886      3885      3881      3886      3887      3882      3881      3886
      3882      3883      3884      3883      3880      4057      3883      3884      4061
      3883      3884      3887      3884      3887      3886      3884      3887      3888
      3884      4061      4062      3884      4061      4066      3885      3886      3887
      3885      3890      3889      3885      3890      3891      3886      3885      3890
      3886      3887      3888      3887      3884      4061      3887      3888      4065
      3887      3888      3891      3888      3891      3890      3888      3891      3892
      3888      4065      4066      3888      4065      4070      3889      3890      3891
      3889      3894      3893      3889      3894      3895      3890      3889      3894
      3890      3891      3892      3891      3888      4065      3891      3892      3895
      3891      3892      4069      3892      3895      3894      3892      3895      3896
      3892      4069      4070      3892      4069      4074      3893      3894      3895
      3893      3898      3897      3893      3898      3899      3894      3893      3898
      3894      3895      3896      3895      3892      4069      3895      3896      3899
      3895      3896      4073      3896      3899      3898      3896      3899      3900
      3896      4073      4074      3896      4073      4078      3897      3898      3899
      3897      3902      3901      3897      3902      3903      3898      3897      3902
      3898      3899      3900      3899      3896      4073      3899      3900      4077
      3899      3900      3903      3900      3903      3902      3900      3903      3904
      3900      4077      4078      3900      4077      4082      3901      3902      3903
      3901      3906      3905      3901      3906      3907      3902      3901      3906
      3902      3903      3904      3903      3900      4077      3903      3904      4081
      3903      3904      3907      3904      3907      3906      3904      3907      3908
      3904      4081      4082      3904      4081      4086      3905      3906      3907
      3905      3910      3909      3905      3910      3911      3906      3905      3910
      3906      3907      3908      3907      3904      4081      3907      3908      4085
      3907      3908      3911      3908      3911      3910      3908      3911      3912
      3908      4085      4086      3908      4085      4090      3909      3910      3911
      3909      3914      3913      3909      3914      3915      3910      3909      3914
      3910      3911      3912      3911      3908      4085      3911      3912      3915
      3911      3912      4089      3912      3915      3914      3912      3915      3916
      3912      4089      4094      3912      4089      4090      3913      3914      3915
      3913      3918      3917      3913      3918      3919      3914      3913      3918
      3914      3915      3916      3915      3912      4089      3915      3916      3919
      3915      3916      4093      3916      3919      3918      3916      3919      3920
      3916      4093      4098      3916      4093      4094      3917      3918      3919
      3917      3922      3921      3917      3922      3923      3918      3917      3922
      3918      3919      3920      3919      3916      4093      3919      3920      4097
      3919      3920      3923      3920      3923      3922      3920      3923      3924
      3920      4097      4102      3920      4097      4098      3921      3922      3923
      3921      3926      3925      3921      3926      3927      3922      3921      3926
      3922      3923      3924      3923      3920      4097      3923      3924      4101
      3923      3924      3927      3924      3927      3926      3924      3927      3928
      3924      4101      4102      3924      4101      4106      3925      3926      3927
      3925      3930      3929      3925      3930      3931      3926      3925      3930
      3926      3927      3928      3927      3924      4101      3927      3928      4105
      3927      3928      3931      3928      3931      3930      3928      3931      3932
      3928      4105      4106      3928      4105      4110      3929      3930      3931
      3929      3934      3933      3929      3934      3935      3930      3929      3934
      3930      3931      3932      3931      3928      4105      3931      3932      4109
      3931      3932      3935      3932      3935      3934      3932      3935      3936
      3932      4109      4114      3932      4109      4110      3933      3934      3935
      3933      3938      3937      3933      3938      3939      3934      3933      3938
      3934      3935      3936      3935      3932      4109      3935      3936      4113
      3935      3936      3939      3936      3939      3938      3936      3939      3940
      3936      4113      4118      3936      4113      4114      3937      3938      3939
      3937      3942      3941      3937      3942      3943      3938      3937      3942
      3938      3939      3940      3939      3936      4113      3939      3940      4117
      3939      3940      3943      3940      3943      3942      3940      3943      3944
      3940      4117      4122      3940      4117      4118      3941      3942      3943
      3941      3946      3945      3941      3946      3947      3942      3941      3946
      3942      3943      3944      3943      3940      4117      3943      3944      4121
      3943      3944      3947      3944      3947      3946      3944      3947      3948
      3944      4121      4122      3944      4121      4126      3945      3946      3947
      3945      3950      3949      3945      3950      3951      3946      3945      3950
      3946      3947      3948      3947      3944      4121      3947      3948      4125
      3947      3948      3951      3948      3951      3950      3948      3951      3952
      3948      4125      4126      3948      4125      4130      3949      3950      3951
      3949      3954      3953      3949      3954      3955      3950      3949      3954
      3950      3951      3952      3951      3948      4125      3951      3952      3955
      3951      3952      4129      3952      3955      3954      3952      3955      3956
      3952      4129      4130      3952      4129      4134      3953      3954      3955
      3953      3958      3957      3953      3958      3959      3954      3953      3958
      3954      3955      3956      3955      3952      4129      3955      3956      3959
      3955      3956      4133      3956      3959      3958      3956      3959      3960
      3956      4133      4134      3956      4133      4138      3957      3958      3959
      3958      3959      3960      3959      3956      4133      3959      3960      4137
      3960      4137      4138      3961      3962      3963      3961      3966      3965
      3961      3966      3967      3962      3961      3966      3962      3963      3964
      3963      3964      4141      3963      3964      3967      3964      3967      3966
      3964      3967      3968      3964      4141      4142      3964      4141      4146
      3965      3966      3967      3965      3970      3969      3965      3970      3971
      3966      3965      3970      3966      3967      3968      3967      3964      4141
      3967      3968      4145      3967      3968      3971      3968      3971      3970
      3968      3971      3972      3968      4145      4146      3968      4145      4150
      3969      3970      3971      3969      3974      3973      3969      3974      3975
      3970      3969      3974      3970      3971      3972      3971      3968      4145
      3971      3972      3975      3971      3972      4149      3972      3975      3974
      3972      3975      3976      3972      4149      4150      3972      4149      4154
      3973      3974      3975      3973      3978      3977      3973      3978      3979
      3974      3973      3978      3974      3975      3976      3975      3972      4149
      3975      3976      3979      3975      3976      4153      3976      3979      3978
      3976      3979      3980      3976      4153      4154      3976      4153      4158
      3977      3978      3979      3977      3982      3981      3977      3982      3983
      3978      3977      3982      3978      3979      3980      3979      3976      4153
      3979      3980      4157      3979      3980      3983      3980      3983      3982
      3980      3983      3984      3980      4157      4158      3980      4157      4162
      3981      3982      3983      3981      3986      3985      3981      3986      3987
      3982      3981      3986      3982      3983      3984      3983      3980      4157
      3983      3984      4161      3983      3984      3987      3984      3987      3986
      3984      3987      3988      3984      4161      4162      3984      4161      4166
      3985      3986      3987      3985      3990      3989      3985      3990      3991
      3986      3985      3990      3986      3987      3988      3987      3984      4161
      3987      3988      4165      3987      3988      3991      3988      3991      3990
      3988      3991      3992      3988      4165      4166      3988      4165      4170
      3989      3990      3991      3989      3994      3993      3989      3994      3995
      3990      3989      3994      3990      3991      3992      3991      3988      4165
      3991      3992      3995      3991      3992      4169      3992      3995      3994
      3992      3995      3996      3992      4169      4174      3992      4169      4170
      3993      3994      3995      3993      3998      3997      3993      3998      3999
      3994      3993      3998      3994      3995      3996      3995      3992      4169
      3995      3996      3999      3995      3996      4173      3996      3999      3998
      3996      3999      4000      3996      4173      4178      3996      4173      4174
      3997      3998      3999      3997      4002      4001      3997      4002      4003
      3998      3997      4002      3998      3999      4000      3999      3996      4173
      3999      4000      4177      3999      4000      4003      4000      4003      4002
      4000      4003      4004      4000      4177      4182      4000      4177      4178
      4001      4002      4003      4001      4006      4005      4001      4006      4007
      4002      4001      4006      4002      4003      4004      4003      4000      4177
      4003      4004      4181      4003      4004      4007      4004      4007      4006
      4004      4007      4008      4004      4181      4182      4004      4181      4186
      4005      4006      4007      4005      4010      4009      4005      4010      4011
      4006      4005      4010      4006      4007      4008      4007      4004      4181
      4007      4008      4185      4007      4008      4011      4008      4011      4010
      4008      4011      4012      4008      4185      4186      4008      4185      4190
      4009      4010      4011      4009      4014      4013      4009      4014      4015
      4010      4009      4014      4010      4011      4012      4011      4008      4185
      4011      4012      4015      4011      4012      4189      4012      4015      4014
      4012      4015      4016      4012      4189      4194      4012      4189      4190
      4013      4014      4015      4013      4018      4017      4013      4018      4019
      4014      4013      4018      4014      4015      4016      4015      4012      4189
      4015      4016      4193      4015      4016      4019      4016      4019      4018
      4016      4019      4020      4016      4193      4198      4016      4193      4194
      4017      4018      4019      4017      4022      4021      4017      4022      4023
      4018      4017      4022      4018      4019      4020      4019      4016      4193
      4019      4020      4197      4019      4020      4023      4020      4023      4022
      4020      4023      4024      4020      4197      4202      4020      4197      4198
      4021      4022      4023      4021      4026      4025      4021      4026      4027
      4022      4021      4026      4022      4023      4024      4023      4020      4197
      4023      4024      4201      4023      4024      4027      4024      4027      4026
      4024      4027      4028      4024      4201      4202      4024      4201      4206
      4025      4026      4027      4025      4030      4029      4025      4030      4031
      4026      4025      4030      4026      4027      4028      4027      4024      4201
      4027      4028      4205      4027      4028      4031      4028      4031      4030
      4028      4031      4032      4028      4205      4206      4028      4205      4210
      4029      4030      4031      4029      4034      4033      4029      4034      4035
      4030      4029      4034      4030      4031      4032      4031      4028      4205
      4031      4032      4209      4031      4032      4035      4032      4035      4034
      4032      4035      4036      4032      4209      4214      4032      4209      4210
      4033      4034      4035      4033      4038      4037      4033      4038      4039
      4034      4033      4038      4034      4035      4036      4035      4032      4209
      4035      4036      4039      4035      4036      4213      4036      4039      4038
      4036      4039      4040      4036      4213      4214      4036      4213      4218
      4037      4038      4039      4037      4042      4041      4037      4042      4043
      4038      4037      4042      4038      4039      4040      4039      4036      4213
      4039      4040      4217      4039      4040      4043      4040      4043      4042
      4040      4043      4044      4040      4217      4218      4040      4217      4222
      4041      4042      4043      4041      4046      4045      4041      4046      4047
      4042      4041      4046      4042      4043      4044      4043      4040      4217
      4043      4044      4221      4043      4044      4047      4044      4047      4046
      4044      4047      4048      4044      4221      4222      4044      4221      4226
      4045      4046      4047      4045      4050      4049      4045      4050      4051
      4046      4045      4050      4046      4047      4048      4047      4044      4221
      4047      4048      4225      4047      4048      4051      4048      4051      4050
      4048      4051      4052      4048      4225      4226      4048      4225      4230
      4049      4050      4051      4049      4054      4053      4049      4054      4055
      4050      4049      4054      4050      4051      4052      4051      4048      4225
      4051      4052      4055      4051      4052      4229      4052      4055      4054
      4052      4055      4056      4052      4229      4230      4052      4229      4234
      4053      4054      4055      4053      4058      4057      4053      4058      4059
      4054      4053      4058      4054      4055      4056      4055      4052      4229
      4055      4056      4059      4055      4056      4233      4056      4059      4058
      4056      4059      4060      4056      4233      4234      4056      4233      4238
      4057      4058      4059      4057      4062      4061      4057      4062      4063
      4058      4057      4062      4058      4059      4060      4059      4056      4233
      4059      4060      4237      4059      4060      4063      4060      4063      4062
      4060      4063      4064      4060      4237      4242      4060      4237      4238
      4061      4062      4063      4061      4066      4065      4061      4066      4067
      4062      4061      4066      4062      4063      4064      4063      4060      4237
      4063      4064      4241      4063      4064      4067      4064      4067      4066
      4064      4067      4068      4064      4241      4242      4064      4241      4246
      4065      4066      4067      4065      4070      4069      4065      4070      4071
      4066      4065      4070      4066      4067      4068      4067      4064      4241
      4067      4068      4245      4067      4068      4071      4068      4071      4070
      4068      4071      4072      4068      4245      4246      4068      4245      4250
      4069      4070      4071      4069      4074      4073      4069      4074      4075
      4070      4069      4074      4070      4071      4072      4071      4068      4245
      4071      4072      4075      4071      4072      4249      4072      4075      4074
      4072      4075      4076      4072      4249      4254      4072      4249      4250
      4073      4074      4075      4073      4078      4077      4073      4078      4079
      4074      4073      4078      4074      4075      4076      4075      4072      4249
      4075      4076      4079      4075      4076      4253      4076      4079      4078
      4076      4079      4080      4076      4253      4258      4076      4253      4254
      4077      4078      4079      4077      4082      4081      4077      4082      4083
      4078      4077      4082      4078      4079      4080      4079      4076      4253
      4079      4080      4257      4079      4080      4083      4080      4083      4082
      4080      4083      4084      4080      4257      4262      4080      4257      4258
      4081      4082      4083      4081      4086      4085      4081      4086      4087
      4082      4081      4086      4082      4083      4084      4083      4080      4257
      4083      4084      4261      4083      4084      4087      4084      4087      4086
      4084      4087      4088      4084      4261      4262      4084      4261      4266
      4085      4086      4087      4085      4090      4089      4085      4090      4091
      4086      4085      4090      4086      4087      4088      4087      4084      4261
      4087      4088      4265      4087      4088      4091      4088      4091      4090
      4088      4091      4092      4088      4265      4266      4088      4265      4270
      4089      4090      4091      4089      4094      4093      4089      4094      4095
      4090      4089      4094      4090      4091      4092      4091      4088      4265
      4091      4092      4269      4091      4092      4095      4092      4095      4094
      4092      4095      4096      4092      4269      4274      4092      4269      4270
      4093      4094      4095      4093      4098      4097      4093      4098      4099
      4094      4093      4098      4094      4095      4096      4095      4092      4269
      4095      4096      4273      4095      4096      4099      4096      4099      4098
      4096      4099      4100      4096      4273      4278      4096      4273      4274
      4097      4098      4099      4097      4102      4101      4097      4102      4103
      4098      4097      4102      4098      4099      4100      4099      4096      4273
      4099      4100      4277      4099      4100      4103      4100      4103      4102
      4100      4103      4104      4100      4277      4282      4100      4277      4278
      4101      4102      4103      4101      4106      4105      4101      4106      4107
      4102      4101      4106      4102      4103      4104      4103      4100      4277
      4103      4104      4281      4103      4104      4107      4104      4107      4106
      4104      4107      4108      4104      4281      4282      4104      4281      4286
      4105      4106      4107      4105      4110      4109      4105      4110      4111
      4106      4105      4110      4106      4107      4108      4107      4104      4281
      4107      4108      4285      4107      4108      4111      4108      4111      4110
      4108      4111      4112      4108      4285      4286      4108      4285      4290
      4109      4110      4111      4109      4114      4113      4109      4114      4115
      4110      4109      4114      4110      4111      4112      4111      4108      4285
      4111      4112      4115      4111      4112      4289      4112      4115      4114
      4112      4115      4116      4112      4289      4290      4112      4289      4294
      4113      4114      4115      4113      4118      4117      4113      4118      4119
      4114      4113      4118      4114      4115      4116      4115      4112      4289
      4115      4116      4119      4115      4116      4293      4116      4119      4118
      4116      4119      4120      4116      4293      4294      4116      4293      4298
      4117      4118      4119      4117      4122      4121      4117      4122      4123
      4118      4117      4122      4118      4119      4120      4119      4116      4293
      4119      4120      4297      4119      4120      4123      4120      4123      4122
      4120      4123      4124      4120      4297      4298      4120      4297      4302
      4121      4122      4123      4121      4126      4125      4121      4126      4127
      4122      4121      4126      4122      4123      4124      4123      4120      4297
      4123      4124      4301      4123      4124      4127      4124      4127      4126
      4124      4127      4128      4124      4301      4302      4124      4301      4306
      4125      4126      4127      4125      4130      4129      4125      4130      4131
      4126      4125      4130      4126      4127      4128      4127      4124      4301
      4127      4128      4305      4127      4128      4131      4128      4131      4130
      4128      4131      4132      4128      4305      4306      4128      4305      4310
      4129      4130      4131      4129      4134      4133      4129      4134      4135
      4130      4129      4134      4130      4131      4132      4131      4128      4305
      4131      4132      4135      4131      4132      4309      4132      4135      4134
      4132      4135      4136      4132      4309      4314      4132      4309      4310
      4133      4134      4135      4133      4138      4137      4133      4138      4139
      4134      4133      4138      4134      4135      4136      4135      4132      4309
      4135      4136      4139      4135      4136      4313      4136      4139      4138
      4136      4139      4140      4136      4313      4318      4136      4313      4314
      4137      4138      4139      4138      4139      4140      4139      4136      4313
      4139      4140      4317      4140      4317      4318      4141      4142      4143
      4141      4146      4145      4141      4146      4147      4142      4141      4146
      4142      4143      4144      4143      4144      4321      4143      4144      4147
      4144      4147      4146      4144      4147      4148      4144      4321      4322
      4144      4321      4326      4145      4146      4147      4145      4150      4149
      4145      4150      4151      4146      4145      4150      4146      4147      4148
      4147      4144      4321      4147      4148      4325      4147      4148      4151
      4148      4151      4150      4148      4151      4152      4148      4325      4326
      4148      4325      4330      4149      4150      4151      4149      4154      4153
      4149      4154      4155      4150      4149      4154      4150      4151      4152
      4151      4148      4325      4151      4152      4155      4151      4152      4329
      4152      4155      4154      4152      4155      4156      4152      4329      4334
      4152      4329      4330      4153      4154      4155      4153      4158      4157
      4153      4158      4159      4154      4153      4158      4154      4155      4156
      4155      4152      4329      4155      4156      4159      4155      4156      4333
      4156      4159      4158      4156      4159      4160      4156      4333      4338
      4156      4333      4334      4157      4158      4159      4157      4162      4161
      4157      4162      4163      4158      4157      4162      4158      4159      4160
      4159      4156      4333      4159      4160      4337      4159      4160      4163
      4160      4163      4162      4160      4163      4164      4160      4337      4342
      4160      4337      4338      4161      4162      4163      4161      4166      4165
      4161      4166      4167      4162      4161      4166      4162      4163      4164
      4163      4160      4337      4163      4164      4341      4163      4164      4167
      4164      4167      4166      4164      4167      4168      4164      4341      4342
      4164      4341      4346      4165      4166      4167      4165      4170      4169
      4165      4170      4171      4166      4165      4170      4166      4167      4168
      4167      4164      4341      4167      4168      4345      4167      4168      4171
      4168      4171      4170      4168      4171      4172      4168      4345      4346
      4168      4345      4350      4169      4170      4171      4169      4174      4173
      4169      4174      4175      4170      4169      4174      4170      4171      4172
      4171      4168      4345      4171      4172      4349      4171      4172      4175
      4172      4175      4174      4172      4175      4176      4172      4349      4354
      4172      4349      4350      4173      4174      4175      4173      4178      4177
      4173      4178      4179      4174      4173      4178      4174      4175      4176
      4175      4172      4349      4175      4176      4353      4175      4176      4179
      4176      4179      4178      4176      4179      4180      4176      4353      4358
      4176      4353      4354      4177      4178      4179      4177      4182      4181
      4177      4182      4183      4178      4177      4182      4178      4179      4180
      4179      4176      4353      4179      4180      4357      4179      4180      4183
      4180      4183      4182      4180      4183      4184      4180      4357      4362
      4180      4357      4358      4181      4182      4183      4181      4186      4185
      4181      4186      4187      4182      4181      4186      4182      4183      4184
      4183      4180      4357      4183      4184      4361      4183      4184      4187
      4184      4187      4186      4184      4187      4188      4184      4361      4362
      4184      4361      4366      4185      4186      4187      4185      4190      4189
      4185      4190      4191      4186      4185      4190      4186      4187      4188
      4187      4184      4361      4187      4188      4365      4187      4188      4191
      4188      4191      4190      4188      4191      4192      4188      4365      4366
      4188      4365      4370      4189      4190      4191      4189      4194      4193
      4189      4194      4195      4190      4189      4194      4190      4191      4192
      4191      4188      4365      4191      4192      4195      4191      4192      4369
      4192      4195      4194      4192      4195      4196      4192      4369      4374
      4192      4369      4370      4193      4194      4195      4193      4198      4197
      4193      4198      4199      4194      4193      4198      4194      4195      4196
      4195      4192      4369      4195      4196      4199      4195      4196      4373
      4196      4199      4198      4196      4199      4200      4196      4373      4378
      4196      4373      4374      4197      4198      4199      4197      4202      4201
      4197      4202      4203      4198      4197      4202      4198      4199      4200
      4199      4196      4373      4199      4200      4377      4199      4200      4203
      4200      4203      4202      4200      4203      4204      4200      4377      4382
      4200      4377      4378      4201      4202      4203      4201      4206      4205
      4201      4206      4207      4202      4201      4206      4202      4203      4204
      4203      4200      4377      4203      4204      4381      4203      4204      4207
      4204      4207      4206      4204      4207      4208      4204      4381      4382
      4204      4381      4386      4205      4206      4207      4205      4210      4209
      4205      4210      4211      4206      4205      4210      4206      4207      4208
      4207      4204      4381      4207      4208      4385      4207      4208      4211
      4208      4211      4210      4208      4211      4212      4208      4385      4386
      4208      4385      4390      4209      4210      4211      4209      4214      4213
      4209      4214      4215      4210      4209      4214      4210      4211      4212
      4211      4208      4385      4211      4212      4215      4211      4212      4389
      4212      4215      4214      4212      4215      4216      4212      4389      4394
      4212      4389      4390      4213      4214      4215      4213      4218      4217
      4213      4218      4219      4214      4213      4218      4214      4215      4216
      4215      4212      4389      4215      4216      4219      4215      4216      4393
      4216      4219      4218      4216      4219      4220      4216      4393      4398
      4216      4393      4394      4217      4218      4219      4217      4222      4221
      4217      4222      4223      4218      4217      4222      4218      4219      4220
      4219      4216      4393      4219      4220      4397      4219      4220      4223
      4220      4223      4222      4220      4223      4224      4220      4397      4402
      4220      4397      4398      4221      4222      4223      4221      4226      4225
      4221      4226      4227      4222      4221      4226      4222      4223      4224
      4223      4220      4397      4223      4224      4401      4223      4224      4227
      4224      4227      4226      4224      4227      4228      4224      4401      4402
      4224      4401      4406      4225      4226      4227      4225      4230      4229
      4225      4230      4231      4226      4225      4230      4226      4227      4228
      4227      4224      4401      4227      4228      4405      4227      4228      4231
      4228      4231      4230      4228      4231      4232      4228      4405      4406
      4228      4405      4410      4229      4230      4231      4229      4234      4233
      4229      4234      4235      4230      4229      4234      4230      4231      4232
      4231      4228      4405      4231      4232      4235      4231      4232      4409
      4232      4235      4234      4232      4235      4236      4232      4409      4414
      4232      4409      4410      4233      4234      4235      4233      4238      4237
      4233      4238      4239      4234      4233      4238      4234      4235      4236
      4235      4232      4409      4235      4236      4413      4235      4236      4239
      4236      4239      4238      4236      4239      4240      4236      4413      4418
      4236      4413      4414      4237      4238      4239      4237      4242      4241
      4237      4242      4243      4238      4237      4242      4238      4239      4240
      4239      4236      4413      4239      4240      4417      4239      4240      4243
      4240      4243      4242      4240      4243      4244      4240      4417      4422
      4240      4417      4418      4241      4242      4243      4241      4246      4245
      4241      4246      4247      4242      4241      4246      4242      4243      4244
      4243      4240      4417      4243      4244      4421      4243      4244      4247
      4244      4247      4246      4244      4247      4248      4244      4421      4422
      4244      4421      4426      4245      4246      4247      4245      4250      4249
      4245      4250      4251      4246      4245      4250      4246      4247      4248
      4247      4244      4421      4247      4248      4425      4247      4248      4251
      4248      4251      4250      4248      4251      4252      4248      4425      4426
      4248      4425      4430      4249      4250      4251      4249      4254      4253
      4249      4254      4255      4250      4249      4254      4250      4251      4252
      4251      4248      4425      4251      4252      4429      4251      4252      4255
      4252      4255      4254      4252      4255      4256      4252      4429      4434
      4252      4429      4430      4253      4254      4255      4253      4258      4257
      4253      4258      4259      4254      4253      4258      4254      4255      4256
      4255      4252      4429      4255      4256      4259      4255      4256      4433
      4256      4259      4258      4256      4259      4260      4256      4433      4438
      4256      4433      4434      4257      4258      4259      4257      4262      4261
      4257      4262      4263      4258      4257      4262      4258      4259      4260
      4259      4256      4433      4259      4260      4437      4259      4260      4263
      4260      4263      4262      4260      4263      4264      4260      4437      4442
      4260      4437      4438      4261      4262      4263      4261      4266      4265
      4261      4266      4267      4262      4261      4266      4262      4263      4264
      4263      4260      4437      4263      4264      4441      4263      4264      4267
      4264      4267      4266      4264      4267      4268      4264      4441      4442
      4264      4441      4446      4265      4266      4267      4265      4270      4269
      4265      4270      4271      4266      4265      4270      4266      4267      4268
      4267      4264      4441      4267      4268      4445      4267      4268      4271
      4268      4271      4270      4268      4271      4272      4268      4445      4446
      4268      4445      4450      4269      4270      4271      4269      4274      4273
      4269      4274      4275      4270      4269      4274      4270      4271      4272
      4271      4268      4445      4271      4272      4275      4271      4272      4449
      4272      4275      4274      4272      4275      4276      4272      4449      4454
      4272      4449      4450      4273      4274      4275      4273      4278      4277
      4273      4278      4279      4274      4273      4278      4274      4275      4276
      4275      4272      4449      4275      4276      4279      4275      4276      4453
      4276      4279      4278      4276      4279      4280      4276      4453      4454
      4276      4453      4458      4277      4278      4279      4277      4282      4281
      4277      4282      4283      4278      4277      4282      4278      4279      4280
      4279      4276      4453      4279      4280      4457      4279      4280      4283
      4280      4283      4282      4280      4283      4284      4280      4457      4462
      4280      4457      4458      4281      4282      4283      4281      4286      4285
      4281      4286      4287      4282      4281      4286      4282      4283      4284
      4283      4280      4457      4283      4284      4461      4283      4284      4287
      4284      4287      4286      4284      4287      4288      4284      4461      4462
      4284      4461      4466      4285      4286      4287      4285      4290      4289
      4285      4290      4291      4286      4285      4290      4286      4287      4288
      4287      4284      4461      4287      4288      4465      4287      4288      4291
      4288      4291      4290      4288      4291      4292      4288      4465      4466
      4288      4465      4470      4289      4290      4291      4289      4294      4293
      4289      4294      4295      4290      4289      4294      4290      4291      4292
      4291      4288      4465      4291      4292      4295      4291      4292      4469
      4292      4295      4294      4292      4295      4296      4292      4469      4474
      4292      4469      4470      4293      4294      4295      4293      4298      4297
      4293      4298      4299      4294      4293      4298      4294      4295      4296
      4295      4292      4469      4295      4296      4299      4295      4296      4473
      4296      4299      4298      4296      4299      4300      4296      4473      4478
      4296      4473      4474      4297      4298      4299      4297      4302      4301
      4297      4302      4303      4298      4297      4302      4298      4299      4300
      4299      4296      4473      4299      4300      4477      4299      4300      4303
      4300      4303      4302      4300      4303      4304      4300      4477      4482
      4300      4477      4478      4301      4302      4303      4301      4306      4305
      4301      4306      4307      4302      4301      4306      4302      4303      4304
      4303      4300      4477      4303      4304      4481      4303      4304      4307
      4304      4307      4306      4304      4307      4308      4304      4481      4482
      4304      4481      4486      4305      4306      4307      4305      4310      4309
      4305      4310      4311      4306      4305      4310      4306      4307      4308
      4307      4304      4481      4307      4308      4485      4307      4308      4311
      4308      4311      4310      4308      4311      4312      4308      4485      4486
      4308      4485      4490      4309      4310      4311      4309      4314      4313
      4309      4314      4315      4310      4309      4314      4310      4311      4312
      4311      4308      4485      4311      4312      4489      4311      4312      4315
      4312      4315      4314      4312      4315      4316      4312      4489      4494
      4312      4489      4490      4313      4314      4315      4313      4318      4317
      4313      4318      4319      4314      4313      4318      4314      4315      4316
      4315      4312      4489      4315      4316      4493      4315      4316      4319
      4316      4319      4318      4316      4319      4320      4316      4493      4498
      4316      4493      4494      4317      4318      4319      4318      4319      4320
      4319      4316      4493      4319      4320      4497      4320      4497      4498
      4321      4322      4323      4321      4326      4325      4321      4326      4327
      4322      4321      4326      4322      4323      4324      4323      4324      4327
      4323      4324      4501      4324      4327      4326      4324      4327      4328
      4324      4501      4502      4324      4501      4506      4325      4326      4327
      4325      4330      4329      4325      4330      4331      4326      4325      4330
      4326      4327      4328      4327      4324      4501      4327      4328      4331
      4327      4328      4505      4328      4331      4330      4328      4331      4332
      4328      4505      4506      4328      4505      4510      4329      4330      4331
      4329      4334      4333      4329      4334      4335      4330      4329      4334
      4330      4331      4332      4331      4328      4505      4331      4332      4335
      4331      4332      4509      4332      4335      4334      4332      4335      4336
      4332      4509      4514      4332      4509      4510      4333      4334      4335
      4333      4338      4337      4333      4338      4339      4334      4333      4338
      4334      4335      4336      4335      4332      4509      4335      4336      4339
      4335      4336      4513      4336      4339      4338      4336      4339      4340
      4336      4513      4518      4336      4513      4514      4337      4338      4339
      4337      4342      4341      4337      4342      4343      4338      4337      4342
      4338      4339      4340      4339      4336      4513      4339      4340      4343
      4339      4340      4517      4340      4343      4342      4340      4343      4344
      4340      4517      4522      4340      4517      4518      4341      4342      4343
      4341      4346      4345      4341      4346      4347      4342      4341      4346
      4342      4343      4344      4343      4340      4517      4343      4344      4347
      4343      4344      4521      4344      4347      4346      4344      4347      4348
      4344      4521      4522      4344      4521      4526      4345      4346      4347
      4345      4350      4349      4345      4350      4351      4346      4345      4350
      4346      4347      4348      4347      4344      4521      4347      4348      4351
      4347      4348      4525      4348      4351      4350      4348      4351      4352
      4348      4525      4526      4348      4525      4530      4349      4350      4351
      4349      4354      4353      4349      4354      4355      4350      4349      4354
      4350      4351      4352      4351      4348      4525      4351      4352      4355
      4351      4352      4529      4352      4355      4354      4352      4355      4356
      4352      4529      4534      4352      4529      4530      4353      4354      4355
      4353      4358      4357      4353      4358      4359      4354      4353      4358
      4354      4355      4356      4355      4352      4529      4355      4356      4359
      4355      4356      4533      4356      4359      4358      4356      4359      4360
      4356      4533      4538      4356      4533      4534      4357      4358      4359
      4357      4362      4361      4357      4362      4363      4358      4357      4362
      4358      4359      4360      4359      4356      4533      4359      4360      4363
      4359      4360      4537      4360      4363      4362      4360      4363      4364
      4360      4537      4542      4360      4537      4538      4361      4362      4363
      4361      4366      4365      4361      4366      4367      4362      4361      4366
      4362      4363      4364      4363      4360      4537      4363      4364      4367
      4363      4364      4541      4364      4367      4366      4364      4367      4368
      4364      4541      4542      4364      4541      4546      4365      4366      4367
      4365      4370      4369      4365      4370      4371      4366      4365      4370
      4366      4367      4368      4367      4364      4541      4367      4368      4371
      4367      4368      4545      4368      4371      4370      4368      4371      4372
      4368      4545      4546      4368      4545      4550      4369      4370      4371
      4369      4374      4373      4369      4374      4375      4370      4369      4374
      4370      4371      4372      4371      4368      4545      4371      4372      4375
      4371      4372      4549      4372      4375      4374      4372      4375      4376
      4372      4549      4554      4372      4549      4550      4373      4374      4375
      4373      4378      4377      4373      4378      4379      4374      4373      4378
      4374      4375      4376      4375      4372      4549      4375      4376      4379
      4375      4376      4553      4376      4379      4378      4376      4379      4380
      4376      4553      4558      4376      4553      4554      4377      4378      4379
      4377      4382      4381      4377      4382      4383      4378      4377      4382
      4378      4379      4380      4379      4376      4553      4379      4380      4383
      4379      4380      4557      4380      4383      4382      4380      4383      4384
      4380      4557      4562      4380      4557      4558      4381      4382      4383
      4381      4386      4385      4381      4386      4387      4382      4381      4386
      4382      4383      4384      4383      4380      4557      4383      4384      4387
      4383      4384      4561      4384      4387      4386      4384      4387      4388
      4384      4561      4562      4384      4561      4566      4385      4386      4387
      4385      4390      4389      4385      4390      4391      4386      4385      4390
      4386      4387      4388      4387      4384      4561      4387      4388      4391
      4387      4388      4565      4388      4391      4390      4388      4391      4392
      4388      4565      4566      4388      4565      4570      4389      4390      4391
      4389      4394      4393      4389      4394      4395      4390      4389      4394
      4390      4391      4392      4391      4388      4565      4391      4392      4395
      4391      4392      4569      4392      4395      4394      4392      4395      4396
      4392      4569      4574      4392      4569      4570      4393      4394      4395
      4393      4398      4397      4393      4398      4399      4394      4393      4398
      4394      4395      4396      4395      4392      4569      4395      4396      4399
      4395      4396      4573      4396      4399      4398      4396      4399      4400
      4396      4573      4578      4396      4573      4574      4397      4398      4399
      4397      4402      4401      4397      4402      4403      4398      4397      4402
      4398      4399      4400      4399      4396      4573      4399      4400      4403
      4399      4400      4577      4400      4403      4402      4400      4403      4404
      4400      4577      4582      4400      4577      4578      4401      4402      4403
      4401      4406      4405      4401      4406      4407      4402      4401      4406
      4402      4403      4404      4403      4400      4577      4403      4404      4407
      4403      4404      4581      4404      4407      4406      4404      4407      4408
      4404      4581      4582      4404      4581      4586      4405      4406      4407
      4405      4410      4409      4405      4410      4411      4406      4405      4410
      4406      4407      4408      4407      4404      4581      4407      4408      4411
      4407      4408      4585      4408      4411      4410      4408      4411      4412
      4408      4585      4586      4408      4585      4590      4409      4410      4411
      4409      4414      4413      4409      4414      4415      4410      4409      4414
      4410      4411      4412      4411      4408      4585      4411      4412      4415
      4411      4412      4589      4412      4415      4414      4412      4415      4416
      4412      4589      4594      4412      4589      4590      4413      4414      4415
      4413      4418      4417      4413      4418      4419      4414      4413      4418
      4414      4415      4416      4415      4412      4589      4415      4416      4419
      4415      4416      4593      4416      4419      4418      4416      4419      4420
      4416      4593      4598      4416      4593      4594      4417      4418      4419
      4417      4422      4421      4417      4422      4423      4418      4417      4422
      4418      4419      4420      4419      4416      4593      4419      4420      4423
      4419      4420      4597      4420      4423      4422      4420      4423      4424
      4420      4597      4602      4420      4597      4598      4421      4422      4423
      4421      4426      4425      4421      4426      4427      4422      4421      4426
      4422      4423      4424      4423      4420      4597      4423      4424      4427
      4423      4424      4601      4424      4427      4426      4424      4427      4428
      4424      4601      4602      4424      4601      4606      4425      4426      4427
      4425      4430      4429      4425      4430      4431      4426      4425      4430
      4426      4427      4428      4427      4424      4601      4427      4428      4431
      4427      4428      4605      4428      4431      4430      4428      4431      4432
      4428      4605      4606      4428      4605      4610      4429      4430      4431
      4429      4434      4433      4429      4434      4435      4430      4429      4434
      4430      4431      4432      4431      4428      4605      4431      4432      4435
      4431      4432      4609      4432      4435      4434      4432      4435      4436
      4432      4609      4614      4432      4609      4610      4433      4434      4435
      4433      4438      4437      4433      4438      4439      4434      4433      4438
      4434      4435      4436      4435      4432      4609      4435      4436      4439
      4435      4436      4613      4436      4439      4438      4436      4439      4440
      4436      4613      4618      4436      4613      4614      4437      4438      4439
      4437      4442      4441      4437      4442      4443      4438      4437      4442
      4438      4439      4440      4439      4436      4613      4439      4440      4443
      4439      4440      4617      4440      4443      4442      4440      4443      4444
      4440      4617      4622      4440      4617      4618      4441      4442      4443
      4441      4446      4445      4441      4446      4447      4442      4441      4446
      4442      4443      4444      4443      4440      4617      4443      4444      4447
      4443      4444      4621      4444      4447      4446      4444      4447      4448
      4444      4621      4622      4444      4621      4626      4445      4446      4447
      4445      4450      4449      4445      4450      4451      4446      4445      4450
      4446      4447      4448      4447      4444      4621      4447      4448      4451
      4447      4448      4625      4448      4451      4450      4448      4451      4452
      4448      4625      4626      4448      4625      4630      4449      4450      4451
      4449      4454      4453      4449      4454      4455      4450      4449      4454
      4450      4451      4452      4451      4448      4625      4451      4452      4455
      4451      4452      4629      4452      4455      4454      4452      4455      4456
      4452      4629      4634      4452      4629      4630      4453      4454      4455
      4453      4458      4457      4453      4458      4459      4454      4453      4458
      4454      4455      4456      4455      4452      4629      4455      4456      4459
      4455      4456      4633      4456      4459      4458      4456      4459      4460
      4456      4633      4638      4456      4633      4634      4457      4458      4459
      4457      4462      4461      4457      4462      4463      4458      4457      4462
      4458      4459      4460      4459      4456      4633      4459      4460      4463
      4459      4460      4637      4460      4463      4462      4460      4463      4464
      4460      4637      4642      4460      4637      4638      4461      4462      4463
      4461      4466      4465      4461      4466      4467      4462      4461      4466
      4462      4463      4464      4463      4460      4637      4463      4464      4467
      4463      4464      4641      4464      4467      4466      4464      4467      4468
      4464      4641      4642      4464      4641      4646      4465      4466      4467
      4465      4470      4469      4465      4470      4471      4466      4465      4470
      4466      4467      4468      4467      4464      4641      4467      4468      4471
      4467      4468      4645      4468      4471      4470      4468      4471      4472
      4468      4645      4646      4468      4645      4650      4469      4470      4471
      4469      4474      4473      4469      4474      4475      4470      4469      4474
      4470      4471      4472      4471      4468      4645      4471      4472      4475
      4471      4472      4649      4472      4475      4474      4472      4475      4476
      4472      4649      4654      4472      4649      4650      4473      4474      4475
      4473      4478      4477      4473      4478      4479      4474      4473      4478
      4474      4475      4476      4475      4472      4649      4475      4476      4479
      4475      4476      4653      4476      4479      4478      4476      4479      4480
      4476      4653      4658      4476      4653      4654      4477      4478      4479
      4477      4482      4481      4477      4482      4483      4478      4477      4482
      4478      4479      4480      4479      4476      4653      4479      4480      4483
      4479      4480      4657      4480      4483      4482      4480      4483      4484
      4480      4657      4662      4480      4657      4658      4481      4482      4483
      4481      4486      4485      4481      4486      4487      4482      4481      4486
      4482      4483      4484      4483      4480      4657      4483      4484      4487
      4483      4484      4661      4484      4487      4486      4484      4487      4488
      4484      4661      4662      4484      4661      4666      4485      4486      4487
      4485      4490      4489      4485      4490      4491      4486      4485      4490
      4486      4487      4488      4487      4484      4661      4487      4488      4491
      4487      4488      4665      4488      4491      4490      4488      4491      4492
      4488      4665      4666      4488      4665      4670      4489      4490      4491
      4489      4494      4493      4489      4494      4495      4490      4489      4494
      4490      4491      4492      4491      4488      4665      4491      4492      4495
      4491      4492      4669      4492      4495      4494      4492      4495      4496
      4492      4669      4674      4492      4669      4670      4493      4494      4495
      4493      4498      4497      4493      4498      4499      4494      4493      4498
      4494      4495      4496      4495      4492      4669      4495      4496      4499
      4495      4496      4673      4496      4499      4498      4496      4499      4500
      4496      4673      4674      4496      4673      4678      4497      4498      4499
      4498      4499      4500      4499      4496      4673      4499      4500      4677
      4500      4677      4678      4501      4502      4503      4501      4506      4505
      4501      4506      4507      4502      4501      4506      4502      4503      4504
      4503      4504      4507      4504      4507      4506      4504      4507      4508
      4505      4506      4507      4505      4510      4509      4505      4510      4511
      4506      4505      4510      4506      4507      4508      4507      4508      4511
      4508      4511      4510      4508      4511      4512      4509      4510      4511
      4509      4514      4513      4509      4514      4515      4510      4509      4514
      4510      4511      4512      4511      4512      4515      4512      4515      4514
      4512      4515      4516      4513      4514      4515      4513      4518      4517
      4513      4518      4519      4514      4513      4518      4514      4515      4516
      4515      4516      4519      4516      4519      4518      4516      4519      4520
      4517      4518      4519      4517      4522      4521      4517      4522      4523
      4518      4517      4522      4518      4519      4520      4519      4520      4523
      4520      4523      4522      4520      4523      4524      4521      4522      4523
      4521      4526      4525      4521      4526      4527      4522      4521      4526
      4522      4523      4524      4523      4524      4527      4524      4527      4526
      4524      4527      4528      4525      4526      4527      4525      4530      4529
      4525      4530      4531      4526      4525      4530      4526      4527      4528
      4527      4528      4531      4528      4531      4530      4528      4531      4532
      4529      4530      4531      4529      4534      4533      4529      4534      4535
      4530      4529      4534      4530      4531      4532      4531      4532      4535
      4532      4535      4534      4532      4535      4536      4533      4534      4535
      4533      4538      4537      4533      4538      4539      4534      4533      4538
      4534      4535      4536      4535      4536      4539      4536      4539      4538
      4536      4539      4540      4537      4538      4539      4537      4542      4541
      4537      4542      4543      4538      4537      4542      4538      4539      4540
      4539      4540      4543      4540      4543      4542      4540      4543      4544
      4541      4542      4543      4541      4546      4545      4541      4546      4547
      4542      4541      4546      4542      4543      4544      4543      4544      4547
      4544      4547      4546      4544      4547      4548      4545      4546      4547
      4545      4550      4549      4545      4550      4551      4546      4545      4550
      4546      4547      4548      4547      4548      4551      4548      4551      4550
      4548      4551      4552      4549      4550      4551      4549      4554      4553
      4549      4554      4555      4550      4549      4554      4550      4551      4552
      4551      4552      4555      4552      4555      4554      4552      4555      4556
      4553      4554      4555      4553      4558      4557      4553      4558      4559
      4554      4553      4558      4554      4555      4556      4555      4556      4559
      4556      4559      4558      4556      4559      4560      4557      4558      4559
      4557      4562      4561      4557      4562      4563      4558      4557      4562
      4558      4559      4560      4559      4560      4563      4560      4563      4562
      4560      4563      4564      4561      4562      4563      4561      4566      4565
      4561      4566      4567      4562      4561      4566      4562      4563      4564
      4563      4564      4567      4564      4567      4566      4564      4567      4568
      4565      4566      4567      4565      4570      4569      4565      4570      4571
      4566      4565      4570      4566      4567      4568      4567      4568      4571
      4568      4571      4570      4568      4571      4572      4569      4570      4571
      4569      4574      4573      4569      4574      4575      4570      4569      4574
      4570      4571      4572      4571      4572      4575      4572      4575      4574
      4572      4575      4576      4573      4574      4575      4573      4578      4577
      4573      4578      4579      4574      4573      4578      4574      4575      4576
      4575      4576      4579      4576      4579      4578      4576      4579      4580
      4577      4578      4579      4577      4582      4581      4577      4582      4583
      4578      4577      4582      4578      4579      4580      4579      4580      4583
      4580      4583      4582      4580      4583      4584      4581      4582      4583
      4581      4586      4585      4581      4586      4587      4582      4581      4586
      4582      4583      4584      4583      4584      4587      4584      4587      4586
      4584      4587      4588      4585      4586      4587      4585      4590      4589
      4585      4590      4591      4586      4585      4590      4586      4587      4588
      4587      4588      4591      4588      4591      4590      4588      4591      4592
      4589      4590      4591      4589      4594      4593      4589      4594      4595
      4590      4589      4594      4590      4591      4592      4591      4592      4595
      4592      4595      4594      4592      4595      4596      4593      4594      4595
      4593      4598      4597      4593      4598      4599      4594      4593      4598
      4594      4595      4596      4595      4596      4599      4596      4599      4598
      4596      4599      4600      4597      4598      4599      4597      4602      4601
      4597      4602      4603      4598      4597      4602      4598      4599      4600
      4599      4600      4603      4600      4603      4602      4600      4603      4604
      4601      4602      4603      4601      4606      4605      4601      4606      4607
      4602      4601      4606      4602      4603      4604      4603      4604      4607
      4604      4607      4606      4604      4607      4608      4605      4606      4607
      4605      4610      4609      4605      4610      4611      4606      4605      4610
      4606      4607      4608      4607      4608      4611      4608      4611      4610
      4608      4611      4612      4609      4610      4611      4609      4614      4613
      4609      4614      4615      4610      4609      4614      4610      4611      4612
      4611      4612      4615      4612      4615      4614      4612      4615      4616
      4613      4614      4615      4613      4618      4617      4613      4618      4619
      4614      4613      4618      4614      4615      4616      4615      4616      4619
      4616      4619      4618      4616      4619      4620      4617      4618      4619
      4617      4622      4621      4617      4622      4623      4618      4617      4622
      4618      4619      4620      4619      4620      4623      4620      4623      4622
      4620      4623      4624      4621      4622      4623      4621      4626      4625
      4621      4626      4627      4622      4621      4626      4622      4623      4624
      4623      4624      4627      4624      4627      4626      4624      4627      4628
      4625      4626      4627      4625      4630      4629      4625      4630      4631
      4626      4625      4630      4626      4627      4628      4627      4628      4631
      4628      4631      4630      4628      4631      4632      4629      4630      4631
      4629      4634      4633      4629      4634      4635      4630      4629      4634
      4630      4631      4632      4631      4632      4635      4632      4635      4634
      4632      4635      4636      4633      4634      4635      4633      4638      4637
      4633      4638      4639      4634      4633      4638      4634      4635      4636
      4635      4636      4639      4636      4639      4638      4636      4639      4640
      4637      4638      4639      4637      4642      4641      4637      4642      4643
      4638      4637      4642      4638      4639      4640      4639      4640      4643
      4640      4643      4642      4640      4643      4644      4641      4642      4643
      4641      4646      4645      4641      4646      4647      4642      4641      4646
      4642      4643      4644      4643      4644      4647      4644      4647      4646
      4644      4647      4648      4645      4646      4647      4645      4650      4649
      4645      4650      4651      4646      4645      4650      4646      4647      4648
      4647      4648      4651      4648      4651      4650      4648      4651      4652
      4649      4650      4651      4649      4654      4653      4649      4654      4655
      4650      4649      4654      4650      4651      4652      4651      4652      4655
      4652      4655      4654      4652      4655      4656      4653      4654      4655
      4653      4658      4657      4653      4658      4659      4654      4653      4658
      4654      4655      4656      4655      4656      4659      4656      4659      4658
      4656      4659      4660      4657      4658      4659      4657      4662      4661
      4657      4662      4663      4658      4657      4662      4658      4659      4660
      4659      4660      4663      4660      4663      4662      4660      4663      4664
      4661      4662      4663      4661      4666      4665      4661      4666      4667
      4662      4661      4666      4662      4663      4664      4663      4664      4667
      4664      4667      4666      4664      4667      4668      4665      4666      4667
      4665      4670      4669      4665      4670      4671      4666      4665      4670
      4666      4667      4668      4667      4668      4671      4668      4671      4670
      4668      4671      4672      4669      4670      4671      4669      4674      4673
      4669      4674      4675      4670      4669      4674      4670      4671      4672
      4671      4672      4675      4672      4675      4674      4672      4675      4676
      4673      4674      4675      4673      4678      4677      4673      4678      4679
      4674      4673      4678      4674      4675      4676      4675      4676      4679
      4676      4679      4678      4676      4679      4680      4677      4678      4679
      4678      4679      4680      5055      5059      5060      5056      5055      5058
      5056      5055      5057      5057      5055      5058      5059      5055      5058
      5059      5055      5057      5059      5055      5056      5061      5065      5066
      5062      5061      5064      5062      5061      5063      5063      5061      5064
      5065      5061      5064      5065      5061      5063      5065      5061      5062
      5067      5071      5072      5068      5067      5070      5068      5067      5069
      5069      5067      5070      5071      5067      5070      5071      5067      5069
      5071      5067      5068      5073      5077      5078      5074      5073      5076
      5074      5073      5075      5075      5073      5076      5077      5073      5076
      5077      5073      5075      5077      5073      5074      5079      5083      5084
      5080      5079      5082      5080      5079      5081      5081      5079      5082
      5083      5079      5082      5083      5079      5081      5083      5079      5080
      5085      5089      5090      5086      5085      5088      5086      5085      5087
      5087      5085      5088      5089      5085      5088      5089      5085      5087
      5089      5085      5086      5091      5095      5096      5092      5091      5094
      5092      5091      5093      5093      5091      5094      5095      5091      5094
      5095      5091      5093      5095      5091      5092      5097      5101      5102
      5098      5097      5100      5098      5097      5099      5099      5097      5100
      5101      5097      5100      5101      5097      5099      5101      5097      5098
      5103      5107      5108      5104      5103      5106      5104      5103      5105
      5105      5103      5106      5107      5103      5106      5107      5103      5105
      5107      5103      5104      5109      5113      5114      5110      5109      5112
      5110      5109      5111      5111      5109      5112      5113      5109      5112
      5113      5109      5111      5113      5109      5110      5115      5119      5120
      5116      5115      5118      5116      5115      5117      5117      5115      5118
      5119      5115      5118      5119      5115      5117      5119      5115      5116
      5121      5125      5126      5122      5121      5124      5122      5121      5123
      5123      5121      5124      5125      5121      5124      5125      5121      5123
      5125      5121      5122      5127      5131      5132      5128      5127      5130
      5128      5127      5129      5129      5127      5130      5131      5127      5130
      5131      5127      5129      5131      5127      5128      5133      5137      5138
      5134      5133      5136      5134      5133      5135      5135      5133      5136
      5137      5133      5136      5137      5133      5135      5137      5133      5134
      5139      5143      5144      5140      5139      5142      5140      5139      5141
      5141      5139      5142      5143      5139      5142      5143      5139      5141
      5143      5139      5140      5145      5149      5150      5146      5145      5148
      5146      5145      5147      5147      5145      5148      5149      5145      5148
      5149      5145      5147      5149      5145      5146      5151      5155      5156
      5152      5151      5154      5152      5151      5153      5153      5151      5154
      5155      5151      5154      5155      5151      5153      5155      5151      5152
      5157      5161      5162      5158      5157      5160      5158      5157      5159
      5159      5157      5160      5161      5157      5160      5161      5157      5159
      5161      5157      5158      5163      5167      5168      5164      5163      5166
      5164      5163      5165      5165      5163      5166      5167      5163      5166
      5167      5163      5165      5167      5163      5164      5169      5173      5174
      5170      5169      5172      5170      5169      5171      5171      5169      5172
      5173      5169      5172      5173      5169      5171      5173      5169      5170
      5175      5179      5180      5176      5175      5178      5176      5175      5177
      5177      5175      5178      5179      5175      5178      5179      5175      5177
      5179      5175      5176      5181      5185      5186      5182      5181      5184
      5182      5181      5183      5183      5181      5184      5185      5181      5184
      5185      5181      5183      5185      5181      5182      5187      5191      5192
      5188      5187      5190      5188      5187      5189      5189      5187      5190
      5191      5187      5190      5191      5187      5189      5191      5187      5188
      5193      5197      5198      5194      5193      5196      5194      5193      5195
      5195      5193      5196      5197      5193      5196      5197      5193      5195
      5197      5193      5194      5199      5203      5204      5200      5199      5202
      5200      5199      5201      5201      5199      5202      5203      5199      5202
      5203      5199      5201      5203      5199      5200      5205      5209      5210
      5206      5205      5208      5206      5205      5207      5207      5205      5208
      5209      5205      5208      5209      5205      5207      5209      5205      5206
      5211      5215      5216      5212      5211      5214      5212      5211      5213
      5213      5211      5214      5215      5211      5214      5215      5211      5213
      5215      5211      5212      5217      5221      5222      5218      5217      5220
      5218      5217      5219      5219      5217      5220      5221      5217      5220
      5221      5217      5219      5221      5217      5218      5223      5227      5228
      5224      5223      5226      5224      5223      5225      5225      5223      5226
      5227      5223      5226      5227      5223      5225      5227      5223      5224
      5229      5233      5234      5230      5229      5232      5230      5229      5231
      5231      5229      5232      5233      5229      5232      5233      5229      5231
      5233      5229      5230      5235      5239      5240      5236      5235      5238
      5236      5235      5237      5237      5235      5238      5239      5235      5238
      5239      5235      5237      5239      5235      5236      5241      5245      5246
      5242      5241      5244      5242      5241      5243      5243      5241      5244
      5245      5241      5244      5245      5241      5243      5245      5241      5242
      5247      5251      5252      5248      5247      5250      5248      5247      5249
      5249      5247      5250      5251      5247      5250      5251      5247      5249
      5251      5247      5248      5253      5257      5258      5254      5253      5256
      5254      5253      5255      5255      5253      5256      5257      5253      5256
      5257      5253      5255      5257      5253      5254      5259      5263      5264
      5260      5259      5262      5260      5259      5261      5261      5259      5262
      5263      5259      5262      5263      5259      5261      5263      5259      5260
      5265      5269      5270      5266      5265      5268      5266      5265      5267
      5267      5265      5268      5269      5265      5268      5269      5265      5267
      5269      5265      5266      5271      5275      5276      5272      5271      5274
      5272      5271      5273      5273      5271      5274      5275      5271      5274
      5275      5271      5273      5275      5271      5272      5277      5281      5282
      5278      5277      5280      5278      5277      5279      5279      5277      5280
      5281      5277      5280      5281      5277      5279      5281      5277      5278
      5283      5287      5288      5284      5283      5286      5284      5283      5285
      5285      5283      5286      5287      5283      5286      5287      5283      5285
      5287      5283      5284      5289      5293      5294      5290      5289      5292
      5290      5289      5291      5291      5289      5292      5293      5289      5292
      5293      5289      5291      5293      5289      5290      5295      5299      5300
      5296      5295      5298      5296      5295      5297      5297      5295      5298
      5299      5295      5298      5299      5295      5297      5299      5295      5296
      5301      5305      5306      5302      5301      5304      5302      5301      5303
      5303      5301      5304      5305      5301      5304      5305      5301      5303
      5305      5301      5302      5307      5311      5312      5308      5307      5310
      5308      5307      5309      5309      5307      5310      5311      5307      5310
      5311      5307      5309      5311      5307      5308      5313      5317      5318
      5314      5313      5316      5314      5313      5315      5315      5313      5316
      5317      5313      5316      5317      5313      5315      5317      5313      5314
      5319      5323      5324      5320      5319      5322      5320      5319      5321
      5321      5319      5322      5323      5319      5322      5323      5319      5321
      5323      5319      5320      5325      5329      5330      5326      5325      5328
      5326      5325      5327      5327      5325      5328      5329      5325      5328
      5329      5325      5327      5329      5325      5326      5331      5335      5336
      5332      5331      5334      5332      5331      5333      5333      5331      5334
      5335      5331      5334      5335      5331      5333      5335      5331      5332
      5337      5341      5342      5338      5337      5340      5338      5337      5339
      5339      5337      5340      5341      5337      5340      5341      5337      5339
      5341      5337      5338      5343      5347      5348      5344      5343      5346
      5344      5343      5345      5345      5343      5346      5347      5343      5346
      5347      5343      5345      5347      5343      5344      5349      5353      5354
      5350      5349      5352      5350      5349      5351      5351      5349      5352
      5353      5349      5352      5353      5349      5351      5353      5349      5350
      5355      5359      5360      5356      5355      5358      5356      5355      5357
      5357      5355      5358      5359      5355      5358      5359      5355      5357
      5359      5355      5356      5361      5365      5366      5362      5361      5364
      5362      5361      5363      5363      5361      5364      5365      5361      5364
      5365      5361      5363      5365      5361      5362      5367      5371      5372
      5368      5367      5370      5368      5367      5369      5369      5367      5370
      5371      5367      5370      5371      5367      5369      5371      5367      5368
      5373      5377      5378      5374      5373      5376      5374      5373      5375
      5375      5373      5376      5377      5373      5376      5377      5373      5375
      5377      5373      5374      5379      5383      5384      5380      5379      5382
      5380      5379      5381      5381      5379      5382      5383      5379      5382
      5383      5379      5381      5383      5379      5380      5385      5389      5390
      5386      5385      5388      5386      5385      5387      5387      5385      5388
      5389      5385      5388      5389      5385      5387      5389      5385      5386
      5391      5395      5396      5392      5391      5394      5392      5391      5393
      5393      5391      5394      5395      5391      5394      5395      5391      5393
      5395      5391      5392      5397      5401      5402      5398      5397      5400
      5398      5397      5399      5399      5397      5400      5401      5397      5400
      5401      5397      5399      5401      5397      5398      5403      5407      5408
      5404      5403      5406      5404      5403      5405      5405      5403      5406
      5407      5403      5406      5407      5403      5405      5407      5403      5404
      5409      5413      5414      5410      5409      5412      5410      5409      5411
      5411      5409      5412      5413      5409      5412      5413      5409      5411
      5413      5409      5410      5415      5419      5420      5416      5415      5418
      5416      5415      5417      5417      5415      5418      5419      5415      5418
      5419      5415      5417      5419      5415      5416      5421      5425      5426
      5422      5421      5424      5422      5421      5423      5423      5421      5424
      5425      5421      5424      5425      5421      5423      5425      5421      5422
      5427      5431      5432      5428      5427      5430      5428      5427      5429
      5429      5427      5430      5431      5427      5430      5431      5427      5429
      5431      5427      5428      5433      5437      5438      5434      5433      5436
      5434      5433      5435      5435      5433      5436      5437      5433      5436
      5437      5433      5435      5437      5433      5434      5439      5443      5444
      5440      5439      5442      5440      5439      5441      5441      5439      5442
      5443      5439      5442      5443      5439      5441      5443      5439      5440
      5445      5449      5450      5446      5445      5448      5446      5445      5447
      5447      5445      5448      5449      5445      5448      5449      5445      5447
      5449      5445      5446      5451      5455      5456      5452      5451      5454
      5452      5451      5453      5453      5451      5454      5455      5451      5454
      5455      5451      5453      5455      5451      5452      5457      5461      5462
      5458      5457      5460      5458      5457      5459      5459      5457      5460
      5461      5457      5460      5461      5457      5459      5461      5457      5458
      5463      5467      5468      5464      5463      5466      5464      5463      5465
      5465      5463      5466      5467      5463      5466      5467      5463      5465
      5467      5463      5464      5469      5473      5474      5470      5469      5472
      5470      5469      5471      5471      5469      5472      5473      5469      5472
      5473      5469      5471      5473      5469      5470      5475      5479      5480
      5476      5475      5478      5476      5475      5477      5477      5475      5478
      5479      5475      5478      5479      5475      5477      5479      5475      5476
      5481      5485      5486      5482      5481      5484      5482      5481      5483
      5483      5481      5484      5485      5481      5484      5485      5481      5483
      5485      5481      5482      5487      5491      5492      5488      5487      5490
      5488      5487      5489      5489      5487      5490      5491      5487      5490
      5491      5487      5489      5491      5487      5488      5493      5497      5498
      5494      5493      5496      5494      5493      5495      5495      5493      5496
      5497      5493      5496      5497      5493      5495      5497      5493      5494
      5499      5503      5504      5500      5499      5502      5500      5499      5501
      5501      5499      5502      5503      5499      5502      5503      5499      5501
      5503      5499      5500      5505      5509      5510      5506      5505      5508
      5506      5505      5507      5507      5505      5508      5509      5505      5508
      5509      5505      5507      5509      5505      5506      5511      5515      5516
      5512      5511      5514      5512      5511      5513      5513      5511      5514
      5515      5511      5514      5515      5511      5513      5515      5511      5512
      5517      5521      5522      5518      5517      5520      5518      5517      5519
      5519      5517      5520      5521      5517      5520      5521      5517      5519
      5521      5517      5518      5523      5527      5528      5524      5523      5526
      5524      5523      5525      5525      5523      5526      5527      5523      5526
      5527      5523      5525      5527      5523      5524      5529      5533      5534
      5530      5529      5532      5530      5529      5531      5531      5529      5532
      5533      5529      5532      5533      5529      5531      5533      5529      5530
      5535      5539      5540      5536      5535      5538      5536      5535      5537
      5537      5535      5538      5539      5535      5538      5539      5535      5537
      5539      5535      5536      5541      5545      5546      5542      5541      5544
      5542      5541      5543      5543      5541      5544      5545      5541      5544
      5545      5541      5543      5545      5541      5542      5547      5551      5552
      5548      5547      5550      5548      5547      5549      5549      5547      5550
      5551      5547      5550      5551      5547      5549      5551      5547      5548
      5553      5557      5558      5554      5553      5556      5554      5553      5555
      5555      5553      5556      5557      5553      5556      5557      5553      5555
      5557      5553      5554      5559      5563      5564      5560      5559      5562
      5560      5559      5561      5561      5559      5562      5563      5559      5562
      5563      5559      5561      5563      5559      5560      5565      5569      5570
      5566      5565      5568      5566      5565      5567      5567      5565      5568
      5569      5565      5568      5569      5565      5567      5569      5565      5566
      5571      5575      5576      5572      5571      5574      5572      5571      5573
      5573      5571      5574      5575      5571      5574      5575      5571      5573
      5575      5571      5572      5577      5581      5582      5578      5577      5580
      5578      5577      5579      5579      5577      5580      5581      5577      5580
      5581      5577      5579      5581      5577      5578      5583      5587      5588
      5584      5583      5586      5584      5583      5585      5585      5583      5586
      5587      5583      5586      5587      5583      5585      5587      5583      5584
      5589      5593      5594      5590      5589      5592      5590      5589      5591
      5591      5589      5592      5593      5589      5592      5593      5589      5591
      5593      5589      5590      5595      5599      5600      5596      5595      5598
      5596      5595      5597      5597      5595      5598      5599      5595      5598
      5599      5595      5597      5599      5595      5596      5601      5605      5606
      5602      5601      5604      5602      5601      5603      5603      5601      5604
      5605      5601      5604      5605      5601      5603      5605      5601      5602
      5607      5611      5612      5608      5607      5610      5608      5607      5609
      5609      5607      5610      5611      5607      5610      5611      5607      5609
      5611      5607      5608      5613      5617      5618      5614      5613      5616
      5614      5613      5615      5615      5613      5616      5617      5613      5616
      5617      5613      5615      5617      5613      5614      5619      5623      5624
      5620      5619      5622      5620      5619      5621      5621      5619      5622
      5623      5619      5622      5623      5619      5621      5623      5619      5620
      5625      5629      5630      5626      5625      5628      5626      5625      5627
      5627      5625      5628      5629      5625      5628      5629      5625      5627
      5629      5625      5626      5631      5635      5636      5632      5631      5634
      5632      5631      5633      5633      5631      5634      5635      5631      5634
      5635      5631      5633      5635      5631      5632      5637      5641      5642
      5638      5637      5640      5638      5637      5639      5639      5637      5640
      5641      5637      5640      5641      5637      5639      5641      5637      5638
      5643      5647      5648      5644      5643      5646      5644      5643      5645
      5645      5643      5646      5647      5643      5646      5647      5643      5645
      5647      5643      5644      5649      5653      5654      5650      5649      5652
      5650      5649      5651      5651      5649      5652      5653      5649      5652
      5653      5649      5651      5653      5649      5650      5655      5659      5660
      5656      5655      5658      5656      5655      5657      5657      5655      5658
      5659      5655      5658      5659      5655      5657      5659      5655      5656
      5661      5665      5666      5662      5661      5664      5662      5661      5663
      5663      5661      5664      5665      5661      5664      5665      5661      5663
      5665      5661      5662      5667      5671      5672      5668      5667      5670
      5668      5667      5669      5669      5667      5670      5671      5667      5670
      5671      5667      5669      5671      5667      5668      5673      5677      5678
      5674      5673      5676      5674      5673      5675      5675      5673      5676
      5677      5673      5676      5677      5673      5675      5677      5673      5674
      5679      5683      5684      5680      5679      5682      5680      5679      5681
      5681      5679      5682      5683      5679      5682      5683      5679      5681
      5683      5679      5680      5685      5689      5690      5686      5685      5688
      5686      5685      5687      5687      5685      5688      5689      5685      5688
      5689      5685      5687      5689      5685      5686      5691      5695      5696
      5692      5691      5694      5692      5691      5693      5693      5691      5694
      5695      5691      5694      5695      5691      5693      5695      5691      5692
      5697      5701      5702      5698      5697      5700      5698      5697      5699
      5699      5697      5700      5701      5697      5700      5701      5697      5699
      5701      5697      5698      5703      5707      5708      5704      5703      5706
      5704      5703      5705      5705      5703      5706      5707      5703      5706
      5707      5703      5705      5707      5703      5704      5709      5713      5714
      5710      5709      5712      5710      5709      5711      5711      5709      5712
      5713      5709      5712      5713      5709      5711      5713      5709      5710
      5715      5719      5720      5716      5715      5718      5716      5715      5717
      5717      5715      5718      5719      5715      5718      5719      5715      5717
      5719      5715      5716      5721      5725      5726      5722      5721      5724
      5722      5721      5723      5723      5721      5724      5725      5721      5724
      5725      5721      5723      5725      5721      5722      5727      5731      5732
      5728      5727      5730      5728      5727      5729      5729      5727      5730
      5731      5727      5730      5731      5727      5729      5731      5727      5728
      5733      5737      5738      5734      5733      5736      5734      5733      5735
      5735      5733      5736      5737      5733      5736      5737      5733      5735
      5737      5733      5734      5739      5743      5744      5740      5739      5742
      5740      5739      5741      5741      5739      5742      5743      5739      5742
      5743      5739      5741      5743      5739      5740      5745      5749      5750
      5746      5745      5748      5746      5745      5747      5747      5745      5748
      5749      5745      5748      5749      5745      5747      5749      5745      5746
      5751      5755      5756      5752      5751      5754      5752      5751      5753
      5753      5751      5754      5755      5751      5754      5755      5751      5753
      5755      5751      5752      5757      5761      5762      5758      5757      5760
      5758      5757      5759      5759      5757      5760      5761      5757      5760
      5761      5757      5759      5761      5757      5758      5763      5767      5768
      5764      5763      5766      5764      5763      5765      5765      5763      5766
      5767      5763      5766      5767      5763      5765      5767      5763      5764
      5769      5773      5774      5770      5769      5772      5770      5769      5771
      5771      5769      5772      5773      5769      5772      5773      5769      5771
      5773      5769      5770      5775      5779      5780      5776      5775      5778
      5776      5775      5777      5777      5775      5778      5779      5775      5778
      5779      5775      5777      5779      5775      5776      5781      5785      5786
      5782      5781      5784      5782      5781      5783      5783      5781      5784
      5785      5781      5784      5785      5781      5783      5785      5781      5782
      5787      5791      5792      5788      5787      5790      5788      5787      5789
      5789      5787      5790      5791      5787      5790      5791      5787      5789
      5791      5787      5788      5793      5797      5798      5794      5793      5796
      5794      5793      5795      5795      5793      5796      5797      5793      5796
      5797      5793      5795      5797      5793      5794      5799      5803      5804
      5800      5799      5802      5800      5799      5801      5801      5799      5802
      5803      5799      5802      5803      5799      5801      5803      5799      5800
      5805      5809      5810      5806      5805      5808      5806      5805      5807
      5807      5805      5808      5809      5805      5808      5809      5805      5807
      5809      5805      5806      5811      5815      5816      5812      5811      5814
      5812      5811      5813      5813      5811      5814      5815      5811      5814
      5815      5811      5813      5815      5811      5812      5817      5821      5822
      5818      5817      5820      5818      5817      5819      5819      5817      5820
      5821      5817      5820      5821      5817      5819      5821      5817      5818
      5823      5827      5828      5824      5823      5826      5824      5823      5825
      5825      5823      5826      5827      5823      5826      5827      5823      5825
      5827      5823      5824      5829      5833      5834      5830      5829      5832
      5830      5829      5831      5831      5829      5832      5833      5829      5832
      5833      5829      5831      5833      5829      5830      5835      5839      5840
      5836      5835      5838      5836      5835      5837      5837      5835      5838
      5839      5835      5838      5839      5835      5837      5839      5835      5836
      5841      5845      5846      5842      5841      5844      5842      5841      5843
      5843      5841      5844      5845      5841      5844      5845      5841      5843
      5845      5841      5842      5847      5851      5852      5848      5847      5850
      5848      5847      5849      5849      5847      5850      5851      5847      5850
      5851      5847      5849      5851      5847      5848      5853      5857      5858
      5854      5853      5856      5854      5853      5855      5855      5853      5856
      5857      5853      5856      5857      5853      5855      5857      5853      5854
      5859      5863      5864      5860      5859      5862      5860      5859      5861
      5861      5859      5862      5863      5859      5862      5863      5859      5861
      5863      5859      5860      5865      5869      5870      5866      5865      5868
      5866      5865      5867      5867      5865      5868      5869      5865      5868
      5869      5865      5867      5869      5865      5866      5871      5875      5876
      5872      5871      5874      5872      5871      5873      5873      5871      5874
      5875      5871      5874      5875      5871      5873      5875      5871      5872
      5877      5881      5882      5878      5877      5880      5878      5877      5879
      5879      5877      5880      5881      5877      5880      5881      5877      5879
      5881      5877      5878      5883      5887      5888      5884      5883      5886
      5884      5883      5885      5885      5883      5886      5887      5883      5886
      5887      5883      5885      5887      5883      5884      5889      5893      5894
      5890      5889      5892      5890      5889      5891      5891      5889      5892
      5893      5889      5892      5893      5889      5891      5893      5889      5890
      5895      5899      5900      5896      5895      5898      5896      5895      5897
      5897      5895      5898      5899      5895      5898      5899      5895      5897
      5899      5895      5896      5901      5905      5906      5902      5901      5904
      5902      5901      5903      5903      5901      5904      5905      5901      5904
      5905      5901      5903      5905      5901      5902      5907      5911      5912
      5908      5907      5910      5908      5907      5909      5909      5907      5910
      5911      5907      5910      5911      5907      5909      5911      5907      5908
      5913      5917      5918      5914      5913      5916      5914      5913      5915
      5915      5913      5916      5917      5913      5916      5917      5913      5915
      5917      5913      5914      5919      5923      5924      5920      5919      5922
      5920      5919      5921      5921      5919      5922      5923      5919      5922
      5923      5919      5921      5923      5919      5920      5925      5929      5930
      5926      5925      5928      5926      5925      5927      5927      5925      5928
      5929      5925      5928      5929      5925      5927      5929      5925      5926
      5931      5935      5936      5932      5931      5934      5932      5931      5933
      5933      5931      5934      5935      5931      5934      5935      5931      5933
      5935      5931      5932      5937      5941      5942      5938      5937      5940
      5938      5937      5939      5939      5937      5940      5941      5937      5940
      5941      5937      5939      5941      5937      5938      5943      5947      5948
      5944      5943      5946      5944      5943      5945      5945      5943      5946
      5947      5943      5946      5947      5943      5945      5947      5943      5944
      5949      5953      5954      5950      5949      5952      5950      5949      5951
      5951      5949      5952      5953      5949      5952      5953      5949      5951
      5953      5949      5950      5955      5959      5960      5956      5955      5958
      5956      5955      5957      5957      5955      5958      5959      5955      5958
      5959      5955      5957      5959      5955      5956      5961      5965      5966
      5962      5961      5964      5962      5961      5963      5963      5961      5964
      5965      5961      5964      5965      5961      5963      5965      5961      5962
      5967      5971      5972      5968      5967      5970      5968      5967      5969
      5969      5967      5970      5971      5967      5970      5971      5967      5969
      5971      5967      5968      5973      5977      5978      5974      5973      5976
      5974      5973      5975      5975      5973      5976      5977      5973      5976
      5977      5973      5975      5977      5973      5974      5979      5983      5984
      5980      5979      5982      5980      5979      5981      5981      5979      5982
      5983      5979      5982      5983      5979      5981      5983      5979      5980
      5985      5989      5990      5986      5985      5988      5986      5985      5987
      5987      5985      5988      5989      5985      5988      5989      5985      5987
      5989      5985      5986      5991      5995      5996      5992      5991      5994
      5992      5991      5993      5993      5991      5994      5995      5991      5994
      5995      5991      5993      5995      5991      5992      5997      6001      6002
      5998      5997      6000      5998      5997      5999      5999      5997      6000
      6001      5997      6000      6001      5997      5999      6001      5997      5998
      6003      6007      6008      6004      6003      6006      6004      6003      6005
      6005      6003      6006      6007      6003      6006      6007      6003      6005
      6007      6003      6004      6009      6013      6014      6010      6009      6012
      6010      6009      6011      6011      6009      6012      6013      6009      6012
      6013      6009      6011      6013      6009      6010      6015      6019      6020
      6016      6015      6018      6016      6015      6017      6017      6015      6018
      6019      6015      6018      6019      6015      6017      6019      6015      6016
      6021      6025      6026      6022      6021      6024      6022      6021      6023
      6023      6021      6024      6025      6021      6024      6025      6021      6023
      6025      6021      6022      6027      6031      6032      6028      6027      6030
      6028      6027      6029      6029      6027      6030      6031      6027      6030
      6031      6027      6029      6031      6027      6028      6033      6037      6038
      6034      6033      6036      6034      6033      6035      6035      6033      6036
      6037      6033      6036      6037      6033      6035      6037      6033      6034
      6039      6043      6044      6040      6039      6042      6040      6039      6041
      6041      6039      6042      6043      6039      6042      6043      6039      6041
      6043      6039      6040      6045      6049      6050      6046      6045      6048
      6046      6045      6047      6047      6045      6048      6049      6045      6048
      6049      6045      6047      6049      6045      6046      6051      6055      6056
      6052      6051      6054      6052      6051      6053      6053      6051      6054
      6055      6051      6054      6055      6051      6053      6055      6051      6052
      6057      6061      6062      6058      6057      6060      6058      6057      6059
      6059      6057      6060      6061      6057      6060      6061      6057      6059
      6061      6057      6058      6063      6067      6068      6064      6063      6066
      6064      6063      6065      6065      6063      6066      6067      6063      6066
      6067      6063      6065      6067      6063      6064      6069      6073      6074
      6070      6069      6072      6070      6069      6071      6071      6069      6072
      6073      6069      6072      6073      6069      6071      6073      6069      6070
      6075      6079      6080      6076      6075      6078      6076      6075      6077
      6077      6075      6078      6079      6075      6078      6079      6075      6077
      6079      6075      6076      6081      6085      6086      6082      6081      6084
      6082      6081      6083      6083      6081      6084      6085      6081      6084
      6085      6081      6083      6085      6081      6082      6087      6091      6092
      6088      6087      6090      6088      6087      6089      6089      6087      6090
      6091      6087      6090      6091      6087      6089      6091      6087      6088
      6093      6097      6098      6094      6093      6096      6094      6093      6095
      6095      6093      6096      6097      6093      6096      6097      6093      6095
      6097      6093      6094      6099      6103      6104      6100      6099      6102
      6100      6099      6101      6101      6099      6102      6103      6099      6102
      6103      6099      6101      6103      6099      6100      6105      6109      6110
      6106      6105      6108      6106      6105      6107      6107      6105      6108
      6109      6105      6108      6109      6105      6107      6109      6105      6106
      6111      6115      6116      6112      6111      6114      6112      6111      6113
      6113      6111      6114      6115      6111      6114      6115      6111      6113
      6115      6111      6112      6117      6121      6122      6118      6117      6120
      6118      6117      6119      6119      6117      6120      6121      6117      6120
      6121      6117      6119      6121      6117      6118      6123      6127      6128
      6124      6123      6126      6124      6123      6125      6125      6123      6126
      6127      6123      6126      6127      6123      6125      6127      6123      6124
      6129      6133      6134      6130      6129      6132      6130      6129      6131
      6131      6129      6132      6133      6129      6132      6133      6129      6131
      6133      6129      6130      6135      6139      6140      6136      6135      6138
      6136      6135      6137      6137      6135      6138      6139      6135      6138
      6139      6135      6137      6139      6135      6136      6141      6145      6146
      6142      6141      6144      6142      6141      6143      6143      6141      6144
      6145      6141      6144      6145      6141      6143      6145      6141      6142
      6147      6151      6152      6148      6147      6150      6148      6147      6149
      6149      6147      6150      6151      6147      6150      6151      6147      6149
      6151      6147      6148      6153      6157      6158      6154      6153      6156
      6154      6153      6155      6155      6153      6156      6157      6153      6156
      6157      6153      6155      6157      6153      6154      6159      6163      6164
      6160      6159      6162      6160      6159      6161      6161      6159      6162
      6163      6159      6162      6163      6159      6161      6163      6159      6160
      6165      6169      6170      6166      6165      6168      6166      6165      6167
      6167      6165      6168      6169      6165      6168      6169      6165      6167
      6169      6165      6166      6171      6175      6176      6172      6171      6174
      6172      6171      6173      6173      6171      6174      6175      6171      6174
      6175      6171      6173      6175      6171      6172      6177      6181      6182
      6178      6177      6180      6178      6177      6179      6179      6177      6180
      6181      6177      6180      6181      6177      6179      6181      6177      6178
      6183      6187      6188      6184      6183      6186      6184      6183      6185
      6185      6183      6186      6187      6183      6186      6187      6183      6185
      6187      6183      6184      6189      6193      6194      6190      6189      6192
      6190      6189      6191      6191      6189      6192      6193      6189      6192
      6193      6189      6191      6193      6189      6190      6195      6199      6200
      6196      6195      6198      6196      6195      6197      6197      6195      6198
      6199      6195      6198      6199      6195      6197      6199      6195      6196
      6201      6205      6206      6202      6201      6204      6202      6201      6203
      6203      6201      6204      6205      6201      6204      6205      6201      6203
      6205      6201      6202      6207      6211      6212      6208      6207      6210
      6208      6207      6209      6209      6207      6210      6211      6207      6210
      6211      6207      6209      6211      6207      6208      6213      6217      6218
      6214      6213      6216      6214      6213      6215      6215      6213      6216
      6217      6213      6216      6217      6213      6215      6217      6213      6214
      6219      6223      6224      6220      6219      6222      6220      6219      6221
      6221      6219      6222      6223      6219      6222      6223      6219      6221
      6223      6219      6220      6225      6229      6230      6226      6225      6228
      6226      6225      6227      6227      6225      6228      6229      6225      6228
      6229      6225      6227      6229      6225      6226      6231      6235      6236
      6232      6231      6234      6232      6231      6233      6233      6231      6234
      6235      6231      6234      6235      6231      6233      6235      6231      6232
      6237      6241      6242      6238      6237      6240      6238      6237      6239
      6239      6237      6240      6241      6237      6240      6241      6237      6239
      6241      6237      6238      6243      6247      6248      6244      6243      6246
      6244      6243      6245      6245      6243      6246      6247      6243      6246
      6247      6243      6245      6247      6243      6244      6249      6253      6254
      6250      6249      6252      6250      6249      6251      6251      6249      6252
      6253      6249      6252      6253      6249      6251      6253      6249      6250
      6255      6259      6260      6256      6255      6258      6256      6255      6257
      6257      6255      6258      6259      6255      6258      6259      6255      6257
      6259      6255      6256      6261      6265      6266      6262      6261      6264
      6262      6261      6263      6263      6261      6264      6265      6261      6264
      6265      6261      6263      6265      6261      6262      6267      6271      6272
      6268      6267      6270      6268      6267      6269      6269      6267      6270
      6271      6267      6270      6271      6267      6269      6271      6267      6268
      6273      6277      6278      6274      6273      6276      6274      6273      6275
      6275      6273      6276      6277      6273      6276      6277      6273      6275
      6277      6273      6274      6279      6283      6284      6280      6279      6282
      6280      6279      6281      6281      6279      6282      6283      6279      6282
      6283      6279      6281      6283      6279      6280      6285      6289      6290
      6286      6285      6288      6286      6285      6287      6287      6285      6288
      6289      6285      6288      6289      6285      6287      6289      6285      6286
      6291      6295      6296      6292      6291      6294      6292      6291      6293
      6293      6291      6294      6295      6291      6294      6295      6291      6293
      6295      6291      6292      6297      6301      6302      6298      6297      6300
      6298      6297      6299      6299      6297      6300      6301      6297      6300
      6301      6297      6299      6301      6297      6298      6303      6307      6308
      6304      6303      6306      6304      6303      6305      6305      6303      6306
      6307      6303      6306      6307      6303      6305      6307      6303      6304
      6309      6313      6314      6310      6309      6312      6310      6309      6311
      6311      6309      6312      6313      6309      6312      6313      6309      6311
      6313      6309      6310      6315      6319      6320      6316      6315      6318
      6316      6315      6317      6317      6315      6318      6319      6315      6318
      6319      6315      6317      6319      6315      6316      6321      6325      6326
      6322      6321      6324      6322      6321      6323      6323      6321      6324
      6325      6321      6324      6325      6321      6323      6325      6321      6322
      6327      6331      6332      6328      6327      6330      6328      6327      6329
      6329      6327      6330      6331      6327      6330      6331      6327      6329
      6331      6327      6328      6333      6337      6338      6334      6333      6336
      6334      6333      6335      6335      6333      6336      6337      6333      6336
      6337      6333      6335      6337      6333      6334      6339      6343      6344
      6340      6339      6342      6340      6339      6341      6341      6339      6342
      6343      6339      6342      6343      6339      6341      6343      6339      6340
      6345      6349      6350      6346      6345      6348      6346      6345      6347
      6347      6345      6348      6349      6345      6348      6349      6345      6347
      6349      6345      6346      6351      6355      6356      6352      6351      6354
      6352      6351      6353      6353      6351      6354      6355      6351      6354
      6355      6351      6353      6355      6351      6352      6357      6361      6362
      6358      6357      6360      6358      6357      6359      6359      6357      6360
      6361      6357      6360      6361      6357      6359      6361      6357      6358
      6363      6367      6368      6364      6363      6366      6364      6363      6365
      6365      6363      6366      6367      6363      6366      6367      6363      6365
      6367      6363      6364      6369      6373      6374      6370      6369      6372
      6370      6369      6371      6371      6369      6372      6373      6369      6372
      6373      6369      6371      6373      6369      6370      6375      6379      6380
      6376      6375      6378      6376      6375      6377      6377      6375      6378
      6379      6375      6378      6379      6375      6377      6379      6375      6376
      6381      6385      6386      6382      6381      6384      6382      6381      6383
      6383      6381      6384      6385      6381      6384      6385      6381      6383
      6385      6381      6382      6387      6391      6392      6388      6387      6390
      6388      6387      6389      6389      6387      6390      6391      6387      6390
      6391      6387      6389      6391      6387      6388      6393      6397      6398
      6394      6393      6396      6394      6393      6395      6395      6393      6396
      6397      6393      6396      6397      6393      6395      6397      6393      6394
      6399      6403      6404      6400      6399      6402      6400      6399      6401
      6401      6399      6402      6403      6399      6402      6403      6399      6401
      6403      6399      6400      6405      6409      6410      6406      6405      6408
      6406      6405      6407      6407      6405      6408      6409      6405      6408
      6409      6405      6407      6409      6405      6406      6411      6415      6416
      6412      6411      6414      6412      6411      6413      6413      6411      6414
      6415      6411      6414      6415      6411      6413      6415      6411      6412
      6417      6421      6422      6418      6417      6420      6418      6417      6419
      6419      6417      6420      6421      6417      6420      6421      6417      6419
      6421      6417      6418      6423      6427      6428      6424      6423      6426
      6424      6423      6425      6425      6423      6426      6427      6423      6426
      6427      6423      6425      6427      6423      6424      6429      6433      6434
      6430      6429      6432      6430      6429      6431      6431      6429      6432
      6433      6429      6432      6433      6429      6431      6433      6429      6430
      6435      6439      6440      6436      6435      6438      6436      6435      6437
      6437      6435      6438      6439      6435      6438      6439      6435      6437
      6439      6435      6436      6441      6445      6446      6442      6441      6444
      6442      6441      6443      6443      6441      6444      6445      6441      6444
      6445      6441      6443      6445      6441      6442      6447      6451      6452
      6448      6447      6450      6448      6447      6449      6449      6447      6450
      6451      6447      6450      6451      6447      6449      6451      6447      6448
      6453      6457      6458      6454      6453      6456      6454      6453      6455
      6455      6453      6456      6457      6453      6456      6457      6453      6455
      6457      6453      6454      6459      6463      6464      6460      6459      6462
      6460      6459      6461      6461      6459      6462      6463      6459      6462
      6463      6459      6461      6463      6459      6460      6465      6469      6470
      6466      6465      6468      6466      6465      6467      6467      6465      6468
      6469      6465      6468      6469      6465      6467      6469      6465      6466
      6471      6475      6476      6472      6471      6474      6472      6471      6473
      6473      6471      6474      6475      6471      6474      6475      6471      6473
      6475      6471      6472      6477      6481      6482      6478      6477      6480
      6478      6477      6479      6479      6477      6480      6481      6477      6480
      6481      6477      6479      6481      6477      6478      6483      6487      6488
      6484      6483      6486      6484      6483      6485      6485      6483      6486
      6487      6483      6486      6487      6483      6485      6487      6483      6484
      6489      6493      6494      6490      6489      6492      6490      6489      6491
      6491      6489      6492      6493      6489      6492      6493      6489      6491
      6493      6489      6490      6495      6499      6500      6496      6495      6498
      6496      6495      6497      6497      6495      6498      6499      6495      6498
      6499      6495      6497      6499      6495      6496      6501      6505      6506
      6502      6501      6504      6502      6501      6503      6503      6501      6504
      6505      6501      6504      6505      6501      6503      6505      6501      6502
      6507      6511      6512      6508      6507      6510      6508      6507      6509
      6509      6507      6510      6511      6507      6510      6511      6507      6509
      6511      6507      6508      6513      6517      6518      6514      6513      6516
      6514      6513      6515      6515      6513      6516      6517      6513      6516
      6517      6513      6515      6517      6513      6514      6519      6523      6524
      6520      6519      6522      6520      6519      6521      6521      6519      6522
      6523      6519      6522      6523      6519      6521      6523      6519      6520
      6525      6529      6530      6526      6525      6528      6526      6525      6527
      6527      6525      6528      6529      6525      6528      6529      6525      6527
      6529      6525      6526      6531      6535      6536      6532      6531      6534
      6532      6531      6533      6533      6531      6534      6535      6531      6534
      6535      6531      6533      6535      6531      6532      6537      6541      6542
      6538      6537      6540      6538      6537      6539      6539      6537      6540
      6541      6537      6540      6541      6537      6539      6541      6537      6538
      6543      6547      6548      6544      6543      6546      6544      6543      6545
      6545      6543      6546      6547      6543      6546      6547      6543      6545
      6547      6543      6544      6549      6553      6554      6550      6549      6552
      6550      6549      6551      6551      6549      6552      6553      6549      6552
      6553      6549      6551      6553      6549      6550      6555      6559      6560
      6556      6555      6558      6556      6555      6557      6557      6555      6558
      6559      6555      6558      6559      6555      6557      6559      6555      6556
      6561      6565      6566      6562      6561      6564      6562      6561      6563
      6563      6561      6564      6565      6561      6564      6565      6561      6563
      6565      6561      6562      6567      6571      6572      6568      6567      6570
      6568      6567      6569      6569      6567      6570      6571      6567      6570
      6571      6567      6569      6571      6567      6568      6573      6577      6578
      6574      6573      6576      6574      6573      6575      6575      6573      6576
      6577      6573      6576      6577      6573      6575      6577      6573      6574
      6579      6583      6584      6580      6579      6582      6580      6579      6581
      6581      6579      6582      6583      6579      6582      6583      6579      6581
      6583      6579      6580      6585      6589      6590      6586      6585      6588
      6586      6585      6587      6587      6585      6588      6589      6585      6588
      6589      6585      6587      6589      6585      6586      6591      6595      6596
      6592      6591      6594      6592      6591      6593      6593      6591      6594
      6595      6591      6594      6595      6591      6593      6595      6591      6592
      6597      6601      6602      6598      6597      6600      6598      6597      6599
      6599      6597      6600      6601      6597      6600      6601      6597      6599
      6601      6597      6598      6603      6607      6608      6604      6603      6606
      6604      6603      6605      6605      6603      6606      6607      6603      6606
      6607      6603      6605      6607      6603      6604      6609      6613      6614
      6610      6609      6612      6610      6609      6611      6611      6609      6612
      6613      6609      6612      6613      6609      6611      6613      6609      6610
      6615      6619      6620      6616      6615      6618      6616      6615      6617
      6617      6615      6618      6619      6615      6618      6619      6615      6617
      6619      6615      6616      6621      6625      6626      6622      6621      6624
      6622      6621      6623      6623      6621      6624      6625      6621      6624
      6625      6621      6623      6625      6621      6622      6627      6631      6632
      6628      6627      6630      6628      6627      6629      6629      6627      6630
      6631      6627      6630      6631      6627      6629      6631      6627      6628
      6633      6637      6638      6634      6633      6636      6634      6633      6635
      6635      6633      6636      6637      6633      6636      6637      6633      6635
      6637      6633      6634      6639      6643      6644      6640      6639      6642
      6640      6639      6641      6641      6639      6642      6643      6639      6642
      6643      6639      6641      6643      6639      6640      6645      6649      6650
      6646      6645      6648      6646      6645      6647      6647      6645      6648
      6649      6645      6648      6649      6645      6647      6649      6645      6646
      6651      6655      6656      6652      6651      6654      6652      6651      6653
      6653      6651      6654      6655      6651      6654      6655      6651      6653
      6655      6651      6652      6657      6661      6662      6658      6657      6660
      6658      6657      6659      6659      6657      6660      6661      6657      6660
      6661      6657      6659      6661      6657      6658      6663      6667      6668
      6664      6663      6666      6664      6663      6665      6665      6663      6666
      6667      6663      6666      6667      6663      6665      6667      6663      6664
      6669      6673      6674      6670      6669      6672      6670      6669      6671
      6671      6669      6672      6673      6669      6672      6673      6669      6671
      6673      6669      6670      6675      6679      6680      6676      6675      6678
      6676      6675      6677      6677      6675      6678      6679      6675      6678
      6679      6675      6677      6679      6675      6676      6681      6685      6686
      6682      6681      6684      6682      6681      6683      6683      6681      6684
      6685      6681      6684      6685      6681      6683      6685      6681      6682
      6687      6691      6692      6688      6687      6690      6688      6687      6689
      6689      6687      6690      6691      6687      6690      6691      6687      6689
      6691      6687      6688      6693      6697      6698      6694      6693      6696
      6694      6693      6695      6695      6693      6696      6697      6693      6696
      6697      6693      6695      6697      6693      6694      6699      6703      6704
      6700      6699      6702      6700      6699      6701      6701      6699      6702
      6703      6699      6702      6703      6699      6701      6703      6699      6700
      6705      6709      6710      6706      6705      6708      6706      6705      6707
      6707      6705      6708      6709      6705      6708      6709      6705      6707
      6709      6705      6706      6711      6715      6716      6712      6711      6714
      6712      6711      6713      6713      6711      6714      6715      6711      6714
      6715      6711      6713      6715      6711      6712      6717      6721      6722
      6718      6717      6720      6718      6717      6719      6719      6717      6720
      6721      6717      6720      6721      6717      6719      6721      6717      6718
      6723      6727      6728      6724      6723      6726      6724      6723      6725
      6725      6723      6726      6727      6723      6726      6727      6723      6725
      6727      6723      6724      6729      6733      6734      6730      6729      6732
      6730      6729      6731      6731      6729      6732      6733      6729      6732
      6733      6729      6731      6733      6729      6730      6735      6739      6740
      6736      6735      6738      6736      6735      6737      6737      6735      6738
      6739      6735      6738      6739      6735      6737      6739      6735      6736
      6741      6745      6746      6742      6741      6744      6742      6741      6743
      6743      6741      6744      6745      6741      6744      6745      6741      6743
      6745      6741      6742      6747      6751      6752      6748      6747      6750
      6748      6747      6749      6749      6747      6750      6751      6747      6750
      6751      6747      6749      6751      6747      6748      6753      6757      6758
      6754      6753      6756      6754      6753      6755      6755      6753      6756
      6757      6753      6756      6757      6753      6755      6757      6753      6754
      6759      6763      6764      6760      6759      6762      6760      6759      6761
      6761      6759      6762      6763      6759      6762      6763      6759      6761
      6763      6759      6760      6765      6769      6770      6766      6765      6768
      6766      6765      6767      6767      6765      6768      6769      6765      6768
      6769      6765      6767      6769      6765      6766      6771      6775      6776
      6772      6771      6774      6772      6771      6773      6773      6771      6774
      6775      6771      6774      6775      6771      6773      6775      6771      6772
      6777      6781      6782      6778      6777      6780      6778      6777      6779
      6779      6777      6780      6781      6777      6780      6781      6777      6779
      6781      6777      6778      6783      6787      6788      6784      6783      6786
      6784      6783      6785      6785      6783      6786      6787      6783      6786
      6787      6783      6785      6787      6783      6784      6789      6793      6794
      6790      6789      6792      6790      6789      6791      6791      6789      6792
      6793      6789      6792      6793      6789      6791      6793      6789      6790
      6795      6799      6800      6796      6795      6798      6796      6795      6797
      6797      6795      6798      6799      6795      6798      6799      6795      6797
      6799      6795      6796      6801      6805      6806      6802      6801      6804
      6802      6801      6803      6803      6801      6804      6805      6801      6804
      6805      6801      6803      6805      6801      6802      6807      6811      6812
      6808      6807      6810      6808      6807      6809      6809      6807      6810
      6811      6807      6810      6811      6807      6809      6811      6807      6808
      6813      6817      6818      6814      6813      6816      6814      6813      6815
      6815      6813      6816      6817      6813      6816      6817      6813      6815
      6817      6813      6814      6819      6823      6824      6820      6819      6822
      6820      6819      6821      6821      6819      6822      6823      6819      6822
      6823      6819      6821      6823      6819      6820      6825      6829      6830
      6826      6825      6828      6826      6825      6827      6827      6825      6828
      6829      6825      6828      6829      6825      6827      6829      6825      6826
      6831      6835      6836      6832      6831      6834      6832      6831      6833
      6833      6831      6834      6835      6831      6834      6835      6831      6833
      6835      6831      6832      6837      6841      6842      6838      6837      6840
      6838      6837      6839      6839      6837      6840      6841      6837      6840
      6841      6837      6839      6841      6837      6838      6843      6847      6848
      6844      6843      6846      6844      6843      6845      6845      6843      6846
      6847      6843      6846      6847      6843      6845      6847      6843      6844
      6849      6853      6854      6850      6849      6852      6850      6849      6851
      6851      6849      6852      6853      6849      6852      6853      6849      6851
      6853      6849      6850      6855      6859      6860      6856      6855      6858
      6856      6855      6857      6857      6855      6858      6859      6855      6858
      6859      6855      6857      6859      6855      6856      6861      6865      6866
      6862      6861      6864      6862      6861      6863      6863      6861      6864
      6865      6861      6864      6865      6861      6863      6865      6861      6862
      6867      6871      6872      6868      6867      6870      6868      6867      6869
      6869      6867      6870      6871      6867      6870      6871      6867      6869
      6871      6867      6868      6873      6877      6878      6874      6873      6876
      6874      6873      6875      6875      6873      6876      6877      6873      6876
      6877      6873      6875      6877      6873      6874      6879      6883      6884
      6880      6879      6882      6880      6879      6881      6881      6879      6882
      6883      6879      6882      6883      6879      6881      6883      6879      6880
      6885      6889      6890      6886      6885      6888      6886      6885      6887
      6887      6885      6888      6889      6885      6888      6889      6885      6887
      6889      6885      6886      6891      6895      6896      6892      6891      6894
      6892      6891      6893      6893      6891      6894      6895      6891      6894
      6895      6891      6893      6895      6891      6892      6897      6901      6902
      6898      6897      6900      6898      6897      6899      6899      6897      6900
      6901      6897      6900      6901      6897      6899      6901      6897      6898
      6903      6907      6908      6904      6903      6906      6904      6903      6905
      6905      6903      6906      6907      6903      6906      6907      6903      6905
      6907      6903      6904      6909      6913      6914      6910      6909      6912
      6910      6909      6911      6911      6909      6912      6913      6909      6912
      6913      6909      6911      6913      6909      6910      6915      6919      6920
      6916      6915      6918      6916      6915      6917      6917      6915      6918
      6919      6915      6918      6919      6915      6917      6919      6915      6916
      6921      6925      6926      6922      6921      6924      6922      6921      6923
      6923      6921      6924      6925      6921      6924      6925      6921      6923
      6925      6921      6922      6927      6931      6932      6928      6927      6930
      6928      6927      6929      6929      6927      6930      6931      6927      6930
      6931      6927      6929      6931      6927      6928      6933      6937      6938
      6934      6933      6936      6934      6933      6935      6935      6933      6936
      6937      6933      6936      6937      6933      6935      6937      6933      6934
      6939      6943      6944      6940      6939      6942      6940      6939      6941
      6941      6939      6942      6943      6939      6942      6943      6939      6941
      6943      6939      6940      6945      6949      6950      6946      6945      6948
      6946      6945      6947      6947      6945      6948      6949      6945      6948
      6949      6945      6947      6949      6945      6946      6951      6955      6956
      6952      6951      6954      6952      6951      6953      6953      6951      6954
      6955      6951      6954      6955      6951      6953      6955      6951      6952
      6957      6961      6962      6958      6957      6960      6958      6957      6959
      6959      6957      6960      6961      6957      6960      6961      6957      6959
      6961      6957      6958      6963      6967      6968      6964      6963      6966
      6964      6963      6965      6965      6963      6966      6967      6963      6966
      6967      6963      6965      6967      6963      6964      6969      6973      6974
      6970      6969      6972      6970      6969      6971      6971      6969      6972
      6973      6969      6972      6973      6969      6971      6973      6969      6970
      6975      6979      6980      6976      6975      6978      6976      6975      6977
      6977      6975      6978      6979      6975      6978      6979      6975      6977
      6979      6975      6976      6981      6985      6986      6982      6981      6984
      6982      6981      6983      6983      6981      6984      6985      6981      6984
      6985      6981      6983      6985      6981      6982      6987      6991      6992
      6988      6987      6990      6988      6987      6989      6989      6987      6990
      6991      6987      6990      6991      6987      6989      6991      6987      6988
      6993      6997      6998      6994      6993      6996      6994      6993      6995
      6995      6993      6996      6997      6993      6996      6997      6993      6995
      6997      6993      6994      6999      7003      7004      7000      6999      7002
      7000      6999      7001      7001      6999      7002      7003      6999      7002
      7003      6999      7001      7003      6999      7000      7005      7009      7010
      7006      7005      7008      7006      7005      7007      7007      7005      7008
      7009      7005      7008      7009      7005      7007      7009      7005      7006
      7011      7015      7016      7012      7011      7014      7012      7011      7013
      7013      7011      7014      7015      7011      7014      7015      7011      7013
      7015      7011      7012      7017      7021      7022      7018      7017      7020
      7018      7017      7019      7019      7017      7020      7021      7017      7020
      7021      7017      7019      7021      7017      7018      7023      7027      7028
      7024      7023      7026      7024      7023      7025      7025      7023      7026
      7027      7023      7026      7027      7023      7025      7027      7023      7024
      7029      7033      7034      7030      7029      7032      7030      7029      7031
      7031      7029      7032      7033      7029      7032      7033      7029      7031
      7033      7029      7030      7035      7039      7040      7036      7035      7038
      7036      7035      7037      7037      7035      7038      7039      7035      7038
      7039      7035      7037      7039      7035      7036      7041      7045      7046
      7042      7041      7044      7042      7041      7043      7043      7041      7044
      7045      7041      7044      7045      7041      7043      7045      7041      7042
      7047      7051      7052      7048      7047      7050      7048      7047      7049
      7049      7047      7050      7051      7047      7050      7051      7047      7049
      7051      7047      7048      7053      7057      7058      7054      7053      7056
      7054      7053      7055      7055      7053      7056      7057      7053      7056
      7057      7053      7055      7057      7053      7054      7059      7063      7064
      7060      7059      7062      7060      7059      7061      7061      7059      7062
      7063      7059      7062      7063      7059      7061      7063      7059      7060
      7065      7069      7070      7066      7065      7068      7066      7065      7067
      7067      7065      7068      7069      7065      7068      7069      7065      7067
      7069      7065      7066      7071      7075      7076      7072      7071      7074
      7072      7071      7073      7073      7071      7074      7075      7071      7074
      7075      7071      7073      7075      7071      7072      7077      7081      7082
      7078      7077      7080      7078      7077      7079      7079      7077      7080
      7081      7077      7080      7081      7077      7079      7081      7077      7078
      7083      7087      7088      7084      7083      7086      7084      7083      7085
      7085      7083      7086      7087      7083      7086      7087      7083      7085
      7087      7083      7084      7089      7093      7094      7090      7089      7092
      7090      7089      7091      7091      7089      7092      7093      7089      7092
      7093      7089      7091      7093      7089      7090      7095      7099      7100
      7096      7095      7098      7096      7095      7097      7097      7095      7098
      7099      7095      7098      7099      7095      7097      7099      7095      7096
      7101      7105      7106      7102      7101      7104      7102      7101      7103
      7103      7101      7104      7105      7101      7104      7105      7101      7103
      7105      7101      7102      7107      7111      7112      7108      7107      7110
      7108      7107      7109      7109      7107      7110      7111      7107      7110
      7111      7107      7109      7111      7107      7108      7113      7117      7118
      7114      7113      7116      7114      7113      7115      7115      7113      7116
      7117      7113      7116      7117      7113      7115      7117      7113      7114
      7119      7123      7124      7120      7119      7122      7120      7119      7121
      7121      7119      7122      7123      7119      7122      7123      7119      7121
      7123      7119      7120      7125      7129      7130      7126      7125      7128
      7126      7125      7127      7127      7125      7128      7129      7125      7128
      7129      7125      7127      7129      7125      7126      7131      7135      7136
      7132      7131      7134      7132      7131      7133      7133      7131      7134
      7135      7131      7134      7135      7131      7133      7135      7131      7132
      7137      7141      7142      7138      7137      7140      7138      7137      7139
      7139      7137      7140      7141      7137      7140      7141      7137      7139
      7141      7137      7138      7143      7147      7148      7144      7143      7146
      7144      7143      7145      7145      7143      7146      7147      7143      7146
      7147      7143      7145      7147      7143      7144      7149      7153      7154
      7150      7149      7152      7150      7149      7151      7151      7149      7152
      7153      7149      7152      7153      7149      7151      7153      7149      7150
      7155      7159      7160      7156      7155      7158      7156      7155      7157
      7157      7155      7158      7159      7155      7158      7159      7155      7157
      7159      7155      7156      7161      7165      7166      7162      7161      7164
      7162      7161      7163      7163      7161      7164      7165      7161      7164
      7165      7161      7163      7165      7161      7162      7167      7171      7172
      7168      7167      7170      7168      7167      7169      7169      7167      7170
      7171      7167      7170      7171      7167      7169      7171      7167      7168
      7173      7177      7178      7174      7173      7176      7174      7173      7175
      7175      7173      7176      7177      7173      7176      7177      7173      7175
      7177      7173      7174      7179      7183      7184      7180      7179      7182
      7180      7179      7181      7181      7179      7182      7183      7179      7182
      7183      7179      7181      7183      7179      7180      7185      7189      7190
      7186      7185      7188      7186      7185      7187      7187      7185      7188
      7189      7185      7188      7189      7185      7187      7189      7185      7186
      7191      7195      7196      7192      7191      7194      7192      7191      7193
      7193      7191      7194      7195      7191      7194      7195      7191      7193
      7195      7191      7192      7197      7201      7202      7198      7197      7200
      7198      7197      7199      7199      7197      7200      7201      7197      7200
      7201      7197      7199      7201      7197      7198      7203      7207      7208
      7204      7203      7206      7204      7203      7205      7205      7203      7206
      7207      7203      7206      7207      7203      7205      7207      7203      7204
      7209      7213      7214      7210      7209      7212      7210      7209      7211
      7211      7209      7212      7213      7209      7212      7213      7209      7211
      7213      7209      7210      7215      7219      7220      7216      7215      7218
      7216      7215      7217      7217      7215      7218      7219      7215      7218
      7219      7215      7217      7219      7215      7216      7221      7225      7226
      7222      7221      7224      7222      7221      7223      7223      7221      7224
      7225      7221      7224      7225      7221      7223      7225      7221      7222
      7227      7231      7232      7228      7227      7230      7228      7227      7229
      7229      7227      7230      7231      7227      7230      7231      7227      7229
      7231      7227      7228      7233      7237      7238      7234      7233      7236
      7234      7233      7235      7235      7233      7236      7237      7233      7236
      7237      7233      7235      7237      7233      7234      7239      7243      7244
      7240      7239      7242      7240      7239      7241      7241      7239      7242
      7243      7239      7242      7243      7239      7241      7243      7239      7240
      7245      7249      7250      7246      7245      7248      7246      7245      7247
      7247      7245      7248      7249      7245      7248      7249      7245      7247
      7249      7245      7246      7251      7255      7256      7252      7251      7254
      7252      7251      7253      7253      7251      7254      7255      7251      7254
      7255      7251      7253      7255      7251      7252      7257      7261      7262
      7258      7257      7260      7258      7257      7259      7259      7257      7260
      7261      7257      7260      7261      7257      7259      7261      7257      7258
      7263      7267      7268      7264      7263      7266      7264      7263      7265
      7265      7263      7266      7267      7263      7266      7267      7263      7265
      7267      7263      7264      7269      7273      7274      7270      7269      7272
      7270      7269      7271      7271      7269      7272      7273      7269      7272
      7273      7269      7271      7273      7269      7270      7275      7279      7280
      7276      7275      7278      7276      7275      7277      7277      7275      7278
      7279      7275      7278      7279      7275      7277      7279      7275      7276
      7281      7285      7286      7282      7281      7284      7282      7281      7283
      7283      7281      7284      7285      7281      7284      7285      7281      7283
      7285      7281      7282      7287      7291      7292      7288      7287      7290
      7288      7287      7289      7289      7287      7290      7291      7287      7290
      7291      7287      7289      7291      7287      7288      7293      7297      7298
      7294      7293      7296      7294      7293      7295      7295      7293      7296
      7297      7293      7296      7297      7293      7295      7297      7293      7294
      7299      7303      7304      7300      7299      7302      7300      7299      7301
      7301      7299      7302      7303      7299      7302      7303      7299      7301
      7303      7299      7300      7305      7309      7310      7306      7305      7308
      7306      7305      7307      7307      7305      7308      7309      7305      7308
      7309      7305      7307      7309      7305      7306      7311      7315      7316
      7312      7311      7314      7312      7311      7313      7313      7311      7314
      7315      7311      7314      7315      7311      7313      7315      7311      7312
      7317      7321      7322      7318      7317      7320      7318      7317      7319
      7319      7317      7320      7321      7317      7320      7321      7317      7319
      7321      7317      7318      7323      7327      7328      7324      7323      7326
      7324      7323      7325      7325      7323      7326      7327      7323      7326
      7327      7323      7325      7327      7323      7324      7329      7333      7334
      7330      7329      7332      7330      7329      7331      7331      7329      7332
      7333      7329      7332      7333      7329      7331      7333      7329      7330
      7335      7339      7340      7336      7335      7338      7336      7335      7337
      7337      7335      7338      7339      7335      7338      7339      7335      7337
      7339      7335      7336      7341      7345      7346      7342      7341      7344
      7342      7341      7343      7343      7341      7344      7345      7341      7344
      7345      7341      7343      7345      7341      7342      7347      7351      7352
      7348      7347      7350      7348      7347      7349      7349      7347      7350
      7351      7347      7350      7351      7347      7349      7351      7347      7348
      7353      7357      7358      7354      7353      7356      7354      7353      7355
      7355      7353      7356      7357      7353      7356      7357      7353      7355
      7357      7353      7354      7359      7363      7364      7360      7359      7362
      7360      7359      7361      7361      7359      7362      7363      7359      7362
      7363      7359      7361      7363      7359      7360      7365      7369      7370
      7366      7365      7368      7366      7365      7367      7367      7365      7368
      7369      7365      7368      7369      7365      7367      7369      7365      7366
      7371      7375      7376      7372      7371      7374      7372      7371      7373
      7373      7371      7374      7375      7371      7374      7375      7371      7373
      7375      7371      7372      7377      7381      7382      7378      7377      7380
      7378      7377      7379      7379      7377      7380      7381      7377      7380
      7381      7377      7379      7381      7377      7378      7383      7387      7388
      7384      7383      7386      7384      7383      7385      7385      7383      7386
      7387      7383      7386      7387      7383      7385      7387      7383      7384
      7389      7393      7394      7390      7389      7392      7390      7389      7391
      7391      7389      7392      7393      7389      7392      7393      7389      7391
      7393      7389      7390      7395      7399      7400      7396      7395      7398
      7396      7395      7397      7397      7395      7398      7399      7395      7398
      7399      7395      7397      7399      7395      7396      7401      7405      7406
      7402      7401      7404      7402      7401      7403      7403      7401      7404
      7405      7401      7404      7405      7401      7403      7405      7401      7402
      7407      7411      7412      7408      7407      7410      7408      7407      7409
      7409      7407      7410      7411      7407      7410      7411      7407      7409
      7411      7407      7408      7413      7417      7418      7414      7413      7416
      7414      7413      7415      7415      7413      7416      7417      7413      7416
      7417      7413      7415      7417      7413      7414      7419      7423      7424
      7420      7419      7422      7420      7419      7421      7421      7419      7422
      7423      7419      7422      7423      7419      7421      7423      7419      7420
      7425      7429      7430      7426      7425      7428      7426      7425      7427
      7427      7425      7428      7429      7425      7428      7429      7425      7427
      7429      7425      7426      7431      7435      7436      7432      7431      7434
      7432      7431      7433      7433      7431      7434      7435      7431      7434
      7435      7431      7433      7435      7431      7432      7437      7441      7442
      7438      7437      7440      7438      7437      7439      7439      7437      7440
      7441      7437      7440      7441      7437      7439      7441      7437      7438
      7443      7447      7448      7444      7443      7446      7444      7443      7445
      7445      7443      7446      7447      7443      7446      7447      7443      7445
      7447      7443      7444      7449      7453      7454      7450      7449      7452
      7450      7449      7451      7451      7449      7452      7453      7449      7452
      7453      7449      7451      7453      7449      7450      7455      7459      7460
      7456      7455      7458      7456      7455      7457      7457      7455      7458
      7459      7455      7458      7459      7455      7457      7459      7455      7456
      7461      7465      7466      7462      7461      7464      7462      7461      7463
      7463      7461      7464      7465      7461      7464      7465      7461      7463
      7465      7461      7462      7467      7471      7472      7468      7467      7470
      7468      7467      7469      7469      7467      7470      7471      7467      7470
      7471      7467      7469      7471      7467      7468      7473      7477      7478
      7474      7473      7476      7474      7473      7475      7475      7473      7476
      7477      7473      7476      7477      7473      7475      7477      7473      7474
      7479      7483      7484      7480      7479      7482      7480      7479      7481
      7481      7479      7482      7483      7479      7482      7483      7479      7481
      7483      7479      7480      7485      7489      7490      7486      7485      7488
      7486      7485      7487      7487      7485      7488      7489      7485      7488
      7489      7485      7487      7489      7485      7486      7491      7495      7496
      7492      7491      7494      7492      7491      7493      7493      7491      7494
      7495      7491      7494      7495      7491      7493      7495      7491      7492
      7497      7501      7502      7498      7497      7500      7498      7497      7499
      7499      7497      7500      7501      7497      7500      7501      7497      7499
      7501      7497      7498      7503      7507      7508      7504      7503      7506
      7504      7503      7505      7505      7503      7506      7507      7503      7506
      7507      7503      7505      7507      7503      7504      7509      7513      7514
      7510      7509      7512      7510      7509      7511      7511      7509      7512
      7513      7509      7512      7513      7509      7511      7513      7509      7510
      7515      7519      7520      7516      7515      7518      7516      7515      7517
      7517      7515      7518      7519      7515      7518      7519      7515      7517
      7519      7515      7516      7521      7525      7526      7522      7521      7524
      7522      7521      7523      7523      7521      7524      7525      7521      7524
      7525      7521      7523      7525      7521      7522      7527      7531      7532
      7528      7527      7530      7528      7527      7529      7529      7527      7530
      7531      7527      7530      7531      7527      7529      7531      7527      7528
      7533      7537      7538      7534      7533      7536      7534      7533      7535
      7535      7533      7536      7537      7533      7536      7537      7533      7535
      7537      7533      7534      7539      7543      7544      7540      7539      7542
      7540      7539      7541      7541      7539      7542      7543      7539      7542
      7543      7539      7541      7543      7539      7540      7545      7549      7550
      7546      7545      7548      7546      7545      7547      7547      7545      7548
      7549      7545      7548      7549      7545      7547      7549      7545      7546
      7551      7555      7556      7552      7551      7554      7552      7551      7553
      7553      7551      7554      7555      7551      7554      7555      7551      7553
      7555      7551      7552      7557      7561      7562      7558      7557      7560
      7558      7557      7559      7559      7557      7560      7561      7557      7560
      7561      7557      7559      7561      7557      7558      7563      7567      7568
      7564      7563      7566      7564      7563      7565      7565      7563      7566
      7567      7563      7566      7567      7563      7565      7567      7563      7564
      7569      7573      7574      7570      7569      7572      7570      7569      7571
      7571      7569      7572      7573      7569      7572      7573      7569      7571
      7573      7569      7570      7575      7579      7580      7576      7575      7578
      7576      7575      7577      7577      7575      7578      7579      7575      7578
      7579      7575      7577      7579      7575      7576      7581      7585      7586
      7582      7581      7584      7582      7581      7583      7583      7581      7584
      7585      7581      7584      7585      7581      7583      7585      7581      7582
      7587      7591      7592      7588      7587      7590      7588      7587      7589
      7589      7587      7590      7591      7587      7590      7591      7587      7589
      7591      7587      7588      7593      7597      7598      7594      7593      7596
      7594      7593      7595      7595      7593      7596      7597      7593      7596
      7597      7593      7595      7597      7593      7594      7599      7603      7604
      7600      7599      7602      7600      7599      7601      7601      7599      7602
      7603      7599      7602      7603      7599      7601      7603      7599      7600
      7605      7609      7610      7606      7605      7608      7606      7605      7607
      7607      7605      7608      7609      7605      7608      7609      7605      7607
      7609      7605      7606      7611      7615      7616      7612      7611      7614
      7612      7611      7613      7613      7611      7614      7615      7611      7614
      7615      7611      7613      7615      7611      7612      7617      7621      7622
      7618      7617      7620      7618      7617      7619      7619      7617      7620
      7621      7617      7620      7621      7617      7619      7621      7617      7618
      7623      7627      7628      7624      7623      7626      7624      7623      7625
      7625      7623      7626      7627      7623      7626      7627      7623      7625
      7627      7623      7624      7629      7633      7634      7630      7629      7632
      7630      7629      7631      7631      7629      7632      7633      7629      7632
      7633      7629      7631      7633      7629      7630      7635      7639      7640
      7636      7635      7638      7636      7635      7637      7637      7635      7638
      7639      7635      7638      7639      7635      7637      7639      7635      7636
      7641      7645      7646      7642      7641      7644      7642      7641      7643
      7643      7641      7644      7645      7641      7644      7645      7641      7643
      7645      7641      7642      7647      7651      7652      7648      7647      7650
      7648      7647      7649      7649      7647      7650      7651      7647      7650
      7651      7647      7649      7651      7647      7648      7653      7657      7658
      7654      7653      7656      7654      7653      7655      7655      7653      7656
      7657      7653      7656      7657      7653      7655      7657      7653      7654
      7659      7663      7664      7660      7659      7662      7660      7659      7661
      7661      7659      7662      7663      7659      7662      7663      7659      7661
      7663      7659      7660      7665      7669      7670      7666      7665      7668
      7666      7665      7667      7667      7665      7668      7669      7665      7668
      7669      7665      7667      7669      7665      7666      7671      7675      7676
      7672      7671      7674      7672      7671      7673      7673      7671      7674
      7675      7671      7674      7675      7671      7673      7675      7671      7672
      7677      7681      7682      7678      7677      7680      7678      7677      7679
      7679      7677      7680      7681      7677      7680      7681      7677      7679
      7681      7677      7678      7683      7687      7688      7684      7683      7686
      7684      7683      7685      7685      7683      7686      7687      7683      7686
      7687      7683      7685      7687      7683      7684      7689      7693      7694
      7690      7689      7692      7690      7689      7691      7691      7689      7692
      7693      7689      7692      7693      7689      7691      7693      7689      7690
      7695      7699      7700      7696      7695      7698      7696      7695      7697
      7697      7695      7698      7699      7695      7698      7699      7695      7697
      7699      7695      7696      7701      7705      7706      7702      7701      7704
      7702      7701      7703      7703      7701      7704      7705      7701      7704
      7705      7701      7703      7705      7701      7702      7707      7711      7712
      7708      7707      7710      7708      7707      7709      7709      7707      7710
      7711      7707      7710      7711      7707      7709      7711      7707      7708
      7713      7717      7718      7714      7713      7716      7714      7713      7715
      7715      7713      7716      7717      7713      7716      7717      7713      7715
      7717      7713      7714      7719      7723      7724      7720      7719      7722
      7720      7719      7721      7721      7719      7722      7723      7719      7722
      7723      7719      7721      7723      7719      7720      7725      7729      7730
      7726      7725      7728      7726      7725      7727      7727      7725      7728
      7729      7725      7728      7729      7725      7727      7729      7725      7726
      7731      7735      7736      7732      7731      7734      7732      7731      7733
      7733      7731      7734      7735      7731      7734      7735      7731      7733
      7735      7731      7732      7737      7741      7742      7738      7737      7740
      7738      7737      7739      7739      7737      7740      7741      7737      7740
      7741      7737      7739      7741      7737      7738      7743      7747      7748
      7744      7743      7746      7744      7743      7745      7745      7743      7746
      7747      7743      7746      7747      7743      7745      7747      7743      7744
      7749      7753      7754      7750      7749      7752      7750      7749      7751
      7751      7749      7752      7753      7749      7752      7753      7749      7751
      7753      7749      7750      7755      7759      7760      7756      7755      7758
      7756      7755      7757      7757      7755      7758      7759      7755      7758
      7759      7755      7757      7759      7755      7756      7761      7765      7766
      7762      7761      7764      7762      7761      7763      7763      7761      7764
      7765      7761      7764      7765      7761      7763      7765      7761      7762
      7767      7771      7772      7768      7767      7770      7768      7767      7769
      7769      7767      7770      7771      7767      7770      7771      7767      7769
      7771      7767      7768      7773      7777      7778      7774      7773      7776
      7774      7773      7775      7775      7773      7776      7777      7773      7776
      7777      7773      7775      7777      7773      7774      7779      7783      7784
      7780      7779      7782      7780      7779      7781      7781      7779      7782
      7783      7779      7782      7783      7779      7781      7783      7779      7780
      7785      7789      7790      7786      7785      7788      7786      7785      7787
      7787      7785      7788      7789      7785      7788      7789      7785      7787
      7789      7785      7786      7791      7795      7796      7792      7791      7794
      7792      7791      7793      7793      7791      7794      7795      7791      7794
      7795      7791      7793      7795      7791      7792      7797      7801      7802
      7798      7797      7800      7798      7797      7799      7799      7797      7800
      7801      7797      7800      7801      7797      7799      7801      7797      7798
      7803      7807      7808      7804      7803      7806      7804      7803      7805
      7805      7803      7806      7807      7803      7806      7807      7803      7805
      7807      7803      7804      7809      7813      7814      7810      7809      7812
      7810      7809      7811      7811      7809      7812      7813      7809      7812
      7813      7809      7811      7813      7809      7810      7815      7819      7820
      7816      7815      7818      7816      7815      7817      7817      7815      7818
      7819      7815      7818      7819      7815      7817      7819      7815      7816
      7821      7825      7826      7822      7821      7824      7822      7821      7823
      7823      7821      7824      7825      7821      7824      7825      7821      7823
      7825      7821      7822      7827      7831      7832      7828      7827      7830
      7828      7827      7829      7829      7827      7830      7831      7827      7830
      7831      7827      7829      7831      7827      7828      7833      7837      7838
      7834      7833      7836      7834      7833      7835      7835      7833      7836
      7837      7833      7836      7837      7833      7835      7837      7833      7834
      7839      7843      7844      7840      7839      7842      7840      7839      7841
      7841      7839      7842      7843      7839      7842      7843      7839      7841
      7843      7839      7840      7845      7849      7850      7846      7845      7848
      7846      7845      7847      7847      7845      7848      7849      7845      7848
      7849      7845      7847      7849      7845      7846      7851      7855      7856
      7852      7851      7854      7852      7851      7853      7853      7851      7854
      7855      7851      7854      7855      7851      7853      7855      7851      7852
      7857      7861      7862      7858      7857      7860      7858      7857      7859
      7859      7857      7860      7861      7857      7860      7861      7857      7859
      7861      7857      7858      7863      7867      7868      7864      7863      7866
      7864      7863      7865      7865      7863      7866      7867      7863      7866
      7867      7863      7865      7867      7863      7864      7869      7873      7874
      7870      7869      7872      7870      7869      7871      7871      7869      7872
      7873      7869      7872      7873      7869      7871      7873      7869      7870
      7875      7879      7880      7876      7875      7878      7876      7875      7877
      7877      7875      7878      7879      7875      7878      7879      7875      7877
      7879      7875      7876      7881      7885      7886      7882      7881      7884
      7882      7881      7883      7883      7881      7884      7885      7881      7884
      7885      7881      7883      7885      7881      7882      7887      7891      7892
      7888      7887      7890      7888      7887      7889      7889      7887      7890
      7891      7887      7890      7891      7887      7889      7891      7887      7888
      7893      7897      7898      7894      7893      7896      7894      7893      7895
      7895      7893      7896      7897      7893      7896      7897      7893      7895
      7897      7893      7894      7899      7903      7904      7900      7899      7902
      7900      7899      7901      7901      7899      7902      7903      7899      7902
      7903      7899      7901      7903      7899      7900      7905      7909      7910
      7906      7905      7908      7906      7905      7907      7907      7905      7908
      7909      7905      7908      7909      7905      7907      7909      7905      7906
      7911      7915      7916      7912      7911      7914      7912      7911      7913
      7913      7911      7914      7915      7911      7914      7915      7911      7913
      7915      7911      7912      7917      7921      7922      7918      7917      7920
      7918      7917      7919      7919      7917      7920      7921      7917      7920
      7921      7917      7919      7921      7917      7918      7923      7927      7928
      7924      7923      7926      7924      7923      7925      7925      7923      7926
      7927      7923      7926      7927      7923      7925      7927      7923      7924
      7929      7933      7934      7930      7929      7932      7930      7929      7931
      7931      7929      7932      7933      7929      7932      7933      7929      7931
      7933      7929      7930      7935      7939      7940      7936      7935      7938
      7936      7935      7937      7937      7935      7938      7939      7935      7938
      7939      7935      7937      7939      7935      7936      7941      7945      7946
      7942      7941      7944      7942      7941      7943      7943      7941      7944
      7945      7941      7944      7945      7941      7943      7945      7941      7942
      7947      7951      7952      7948      7947      7950      7948      7947      7949
      7949      7947      7950      7951      7947      7950      7951      7947      7949
      7951      7947      7948      7953      7957      7958      7954      7953      7956
      7954      7953      7955      7955      7953      7956      7957      7953      7956
      7957      7953      7955      7957      7953      7954      7959      7963      7964
      7960      7959      7962      7960      7959      7961      7961      7959      7962
      7963      7959      7962      7963      7959      7961      7963      7959      7960
      7965      7969      7970      7966      7965      7968      7966      7965      7967
      7967      7965      7968      7969      7965      7968      7969      7965      7967
      7969      7965      7966      7971      7975      7976      7972      7971      7974
      7972      7971      7973      7973      7971      7974      7975      7971      7974
      7975      7971      7973      7975      7971      7972      7977      7981      7982
      7978      7977      7980      7978      7977      7979      7979      7977      7980
      7981      7977      7980      7981      7977      7979      7981      7977      7978
      7983      7987      7988      7984      7983      7986      7984      7983      7985
      7985      7983      7986      7987      7983      7986      7987      7983      7985
      7987      7983      7984      7989      7993      7994      7990      7989      7992
      7990      7989      7991      7991      7989      7992      7993      7989      7992
      7993      7989      7991      7993      7989      7990      7995      7999      8000
      7996      7995      7998      7996      7995      7997      7997      7995      7998
      7999      7995      7998      7999      7995      7997      7999      7995      7996
      8001      8005      8006      8002      8001      8004      8002      8001      8003
      8003      8001      8004      8005      8001      8004      8005      8001      8003
      8005      8001      8002      8007      8011      8012      8008      8007      8010
      8008      8007      8009      8009      8007      8010      8011      8007      8010
      8011      8007      8009      8011      8007      8008      8013      8017      8018
      8014      8013      8016      8014      8013      8015      8015      8013      8016
      8017      8013      8016      8017      8013      8015      8017      8013      8014
      8019      8023      8024      8020      8019      8022      8020      8019      8021
      8021      8019      8022      8023      8019      8022      8023      8019      8021
      8023      8019      8020      8025      8029      8030      8026      8025      8028
      8026      8025      8027      8027      8025      8028      8029      8025      8028
      8029      8025      8027      8029      8025      8026      8031      8035      8036
      8032      8031      8034      8032      8031      8033      8033      8031      8034
      8035      8031      8034      8035      8031      8033      8035      8031      8032
      8037      8041      8042      8038      8037      8040      8038      8037      8039
      8039      8037      8040      8041      8037      8040      8041      8037      8039
      8041      8037      8038      8043      8047      8048      8044      8043      8046
      8044      8043      8045      8045      8043      8046      8047      8043      8046
      8047      8043      8045      8047      8043      8044      8049      8053      8054
      8050      8049      8052      8050      8049      8051      8051      8049      8052
      8053      8049      8052      8053      8049      8051      8053      8049      8050
      8055      8059      8060      8056      8055      8058      8056      8055      8057
      8057      8055      8058      8059      8055      8058      8059      8055      8057
      8059      8055      8056      8061      8065      8066      8062      8061      8064
      8062      8061      8063      8063      8061      8064      8065      8061      8064
      8065      8061      8063      8065      8061      8062      8067      8071      8072
      8068      8067      8070      8068      8067      8069      8069      8067      8070
      8071      8067      8070      8071      8067      8069      8071      8067      8068
      8073      8077      8078      8074      8073      8076      8074      8073      8075
      8075      8073      8076      8077      8073      8076      8077      8073      8075
      8077      8073      8074      8079      8083      8084      8080      8079      8082
      8080      8079      8081      8081      8079      8082      8083      8079      8082
      8083      8079      8081      8083      8079      8080      8085      8089      8090
      8086      8085      8088      8086      8085      8087      8087      8085      8088
      8089      8085      8088      8089      8085      8087      8089      8085      8086
      8091      8095      8096      8092      8091      8094      8092      8091      8093
      8093      8091      8094      8095      8091      8094      8095      8091      8093
      8095      8091      8092      8097      8101      8102      8098      8097      8100
      8098      8097      8099      8099      8097      8100      8101      8097      8100
      8101      8097      8099      8101      8097      8098      8103      8107      8108
      8104      8103      8106      8104      8103      8105      8105      8103      8106
      8107      8103      8106      8107      8103      8105      8107      8103      8104
      8109      8113      8114      8110      8109      8112      8110      8109      8111
      8111      8109      8112      8113      8109      8112      8113      8109      8111
      8113      8109      8110      8115      8119      8120      8116      8115      8118
      8116      8115      8117      8117      8115      8118      8119      8115      8118
      8119      8115      8117      8119      8115      8116      8121      8125      8126
      8122      8121      8124      8122      8121      8123      8123      8121      8124
      8125      8121      8124      8125      8121      8123      8125      8121      8122
      8127      8131      8132      8128      8127      8130      8128      8127      8129
      8129      8127      8130      8131      8127      8130      8131      8127      8129
      8131      8127      8128      8133      8137      8138      8134      8133      8136
      8134      8133      8135      8135      8133      8136      8137      8133      8136
      8137      8133      8135      8137      8133      8134      8139      8143      8144
      8140      8139      8142      8140      8139      8141      8141      8139      8142
      8143      8139      8142      8143      8139      8141      8143      8139      8140
      8145      8149      8150      8146      8145      8148      8146      8145      8147
      8147      8145      8148      8149      8145      8148      8149      8145      8147
      8149      8145      8146      8151      8155      8156      8152      8151      8154
      8152      8151      8153      8153      8151      8154      8155      8151      8154
      8155      8151      8153      8155      8151      8152      8157      8161      8162
      8158      8157      8160      8158      8157      8159      8159      8157      8160
      8161      8157      8160      8161      8157      8159      8161      8157      8158
      8163      8167      8168      8164      8163      8166      8164      8163      8165
      8165      8163      8166      8167      8163      8166      8167      8163      8165
      8167      8163      8164      8169      8173      8174      8170      8169      8172
      8170      8169      8171      8171      8169      8172      8173      8169      8172
      8173      8169      8171      8173      8169      8170      8175      8179      8180
      8176      8175      8178      8176      8175      8177      8177      8175      8178
      8179      8175      8178      8179      8175      8177      8179      8175      8176
      8181      8185      8186      8182      8181      8184      8182      8181      8183
      8183      8181      8184      8185      8181      8184      8185      8181      8183
      8185      8181      8182      8187      8191      8192      8188      8187      8190
      8188      8187      8189      8189      8187      8190      8191      8187      8190
      8191      8187      8189      8191      8187      8188      8193      8197      8198
      8194      8193      8196      8194      8193      8195      8195      8193      8196
      8197      8193      8196      8197      8193      8195      8197      8193      8194
      8199      8203      8204      8200      8199      8202      8200      8199      8201
      8201      8199      8202      8203      8199      8202      8203      8199      8201
      8203      8199      8200      8205      8209      8210      8206      8205      8208
      8206      8205      8207      8207      8205      8208      8209      8205      8208
      8209      8205      8207      8209      8205      8206      8211      8215      8216
      8212      8211      8214      8212      8211      8213      8213      8211      8214
      8215      8211      8214      8215      8211      8213      8215      8211      8212
      8217      8221      8222      8218      8217      8220      8218      8217      8219
      8219      8217      8220      8221      8217      8220      8221      8217      8219
      8221      8217      8218      8223      8227      8228      8224      8223      8226
      8224      8223      8225      8225      8223      8226      8227      8223      8226
      8227      8223      8225      8227      8223      8224      8229      8233      8234
      8230      8229      8232      8230      8229      8231      8231      8229      8232
      8233      8229      8232      8233      8229      8231      8233      8229      8230
      8235      8239      8240      8236      8235      8238      8236      8235      8237
      8237      8235      8238      8239      8235      8238      8239      8235      8237
      8239      8235      8236      8241      8245      8246      8242      8241      8244
      8242      8241      8243      8243      8241      8244      8245      8241      8244
      8245      8241      8243      8245      8241      8242      8247      8251      8252
      8248      8247      8250      8248      8247      8249      8249      8247      8250
      8251      8247      8250      8251      8247      8249      8251      8247      8248
      8253      8257      8258      8254      8253      8256      8254      8253      8255
      8255      8253      8256      8257      8253      8256      8257      8253      8255
      8257      8253      8254      8259      8263      8264      8260      8259      8262
      8260      8259      8261      8261      8259      8262      8263      8259      8262
      8263      8259      8261      8263      8259      8260      8265      8269      8270
      8266      8265      8268      8266      8265      8267      8267      8265      8268
      8269      8265      8268      8269      8265      8267      8269      8265      8266
      8271      8275      8276      8272      8271      8274      8272      8271      8273
      8273      8271      8274      8275      8271      8274      8275      8271      8273
      8275      8271      8272      8277      8281      8282      8278      8277      8280
      8278      8277      8279      8279      8277      8280      8281      8277      8280
      8281      8277      8279      8281      8277      8278      8283      8287      8288
      8284      8283      8286      8284      8283      8285      8285      8283      8286
      8287      8283      8286      8287      8283      8285      8287      8283      8284
      8289      8293      8294      8290      8289      8292      8290      8289      8291
      8291      8289      8292      8293      8289      8292      8293      8289      8291
      8293      8289      8290      8295      8299      8300      8296      8295      8298
      8296      8295      8297      8297      8295      8298      8299      8295      8298
      8299      8295      8297      8299      8295      8296      8301      8305      8306
      8302      8301      8304      8302      8301      8303      8303      8301      8304
      8305      8301      8304      8305      8301      8303      8305      8301      8302
      8307      8311      8312      8308      8307      8310      8308      8307      8309
      8309      8307      8310      8311      8307      8310      8311      8307      8309
      8311      8307      8308      8313      8317      8318      8314      8313      8316
      8314      8313      8315      8315      8313      8316      8317      8313      8316
      8317      8313      8315      8317      8313      8314      8319      8323      8324
      8320      8319      8322      8320      8319      8321      8321      8319      8322
      8323      8319      8322      8323      8319      8321      8323      8319      8320
      8325      8329      8330      8326      8325      8328      8326      8325      8327
      8327      8325      8328      8329      8325      8328      8329      8325      8327
      8329      8325      8326      8331      8335      8336      8332      8331      8334
      8332      8331      8333      8333      8331      8334      8335      8331      8334
      8335      8331      8333      8335      8331      8332      8337      8341      8342
      8338      8337      8340      8338      8337      8339      8339      8337      8340
      8341      8337      8340      8341      8337      8339      8341      8337      8338
      8343      8347      8348      8344      8343      8346      8344      8343      8345
      8345      8343      8346      8347      8343      8346      8347      8343      8345
      8347      8343      8344      8349      8353      8354      8350      8349      8352
      8350      8349      8351      8351      8349      8352      8353      8349      8352
      8353      8349      8351      8353      8349      8350      8355      8359      8360
      8356      8355      8358      8356      8355      8357      8357      8355      8358
      8359      8355      8358      8359      8355      8357      8359      8355      8356
      8361      8365      8366      8362      8361      8364      8362      8361      8363
      8363      8361      8364      8365      8361      8364      8365      8361      8363
      8365      8361      8362      8367      8371      8372      8368      8367      8370
      8368      8367      8369      8369      8367      8370      8371      8367      8370
      8371      8367      8369      8371      8367      8368      8373      8377      8378
      8374      8373      8376      8374      8373      8375      8375      8373      8376
      8377      8373      8376      8377      8373      8375      8377      8373      8374
      8379      8383      8384      8380      8379      8382      8380      8379      8381
      8381      8379      8382      8383      8379      8382      8383      8379      8381
      8383      8379      8380      8385      8389      8390      8386      8385      8388
      8386      8385      8387      8387      8385      8388      8389      8385      8388
      8389      8385      8387      8389      8385      8386      8391      8395      8396
      8392      8391      8394      8392      8391      8393      8393      8391      8394
      8395      8391      8394      8395      8391      8393      8395      8391      8392
      8397      8401      8402      8398      8397      8400      8398      8397      8399
      8399      8397      8400      8401      8397      8400      8401      8397      8399
      8401      8397      8398      8403      8407      8408      8404      8403      8406
      8404      8403      8405      8405      8403      8406      8407      8403      8406
      8407      8403      8405      8407      8403      8404      8409      8413      8414
      8410      8409      8412      8410      8409      8411      8411      8409      8412
      8413      8409      8412      8413      8409      8411      8413      8409      8410
      8415      8419      8420      8416      8415      8418      8416      8415      8417
      8417      8415      8418      8419      8415      8418      8419      8415      8417
      8419      8415      8416      8421      8425      8426      8422      8421      8424
      8422      8421      8423      8423      8421      8424      8425      8421      8424
      8425      8421      8423      8425      8421      8422      8427      8431      8432
      8428      8427      8430      8428      8427      8429      8429      8427      8430
      8431      8427      8430      8431      8427      8429      8431      8427      8428
      8433      8437      8438      8434      8433      8436      8434      8433      8435
      8435      8433      8436      8437      8433      8436      8437      8433      8435
      8437      8433      8434      8439      8443      8444      8440      8439      8442
      8440      8439      8441      8441      8439      8442      8443      8439      8442
      8443      8439      8441      8443      8439      8440      8445      8449      8450
      8446      8445      8448      8446      8445      8447      8447      8445      8448
      8449      8445      8448      8449      8445      8447      8449      8445      8446
      8451      8455      8456      8452      8451      8454      8452      8451      8453
      8453      8451      8454      8455      8451      8454      8455      8451      8453
      8455      8451      8452      8457      8461      8462      8458      8457      8460
      8458      8457      8459      8459      8457      8460      8461      8457      8460
      8461      8457      8459      8461      8457      8458      8463      8467      8468
      8464      8463      8466      8464      8463      8465      8465      8463      8466
      8467      8463      8466      8467      8463      8465      8467      8463      8464
      8469      8473      8474      8470      8469      8472      8470      8469      8471
      8471      8469      8472      8473      8469      8472      8473      8469      8471
      8473      8469      8470      8475      8479      8480      8476      8475      8478
      8476      8475      8477      8477      8475      8478      8479      8475      8478
      8479      8475      8477      8479      8475      8476      8481      8485      8486
      8482      8481      8484      8482      8481      8483      8483      8481      8484
      8485      8481      8484      8485      8481      8483      8485      8481      8482
      8487      8491      8492      8488      8487      8490      8488      8487      8489
      8489      8487      8490      8491      8487      8490      8491      8487      8489
      8491      8487      8488      8493      8497      8498      8494      8493      8496
      8494      8493      8495      8495      8493      8496      8497      8493      8496
      8497      8493      8495      8497      8493      8494      8499      8503      8504
      8500      8499      8502      8500      8499      8501      8501      8499      8502
      8503      8499      8502      8503      8499      8501      8503      8499      8500
      8505      8509      8510      8506      8505      8508      8506      8505      8507
      8507      8505      8508      8509      8505      8508      8509      8505      8507
      8509      8505      8506      8511      8515      8516      8512      8511      8514
      8512      8511      8513      8513      8511      8514      8515      8511      8514
      8515      8511      8513      8515      8511      8512      8517      8521      8522
      8518      8517      8520      8518      8517      8519      8519      8517      8520
      8521      8517      8520      8521      8517      8519      8521      8517      8518
      8523      8527      8528      8524      8523      8526      8524      8523      8525
      8525      8523      8526      8527      8523      8526      8527      8523      8525
      8527      8523      8524      8529      8533      8534      8530      8529      8532
      8530      8529      8531      8531      8529      8532      8533      8529      8532
      8533      8529      8531      8533      8529      8530      8535      8539      8540
      8536      8535      8538      8536      8535      8537      8537      8535      8538
      8539      8535      8538      8539      8535      8537      8539      8535      8536
      8541      8545      8546      8542      8541      8544      8542      8541      8543
      8543      8541      8544      8545      8541      8544      8545      8541      8543
      8545      8541      8542      8547      8551      8552      8548      8547      8550
      8548      8547      8549      8549      8547      8550      8551      8547      8550
      8551      8547      8549      8551      8547      8548      8553      8557      8558
      8554      8553      8556      8554      8553      8555      8555      8553      8556
      8557      8553      8556      8557      8553      8555      8557      8553      8554
      8559      8563      8564      8560      8559      8562      8560      8559      8561
      8561      8559      8562      8563      8559      8562      8563      8559      8561
      8563      8559      8560      8565      8569      8570      8566      8565      8568
      8566      8565      8567      8567      8565      8568      8569      8565      8568
      8569      8565      8567      8569      8565      8566      8571      8575      8576
      8572      8571      8574      8572      8571      8573      8573      8571      8574
      8575      8571      8574      8575      8571      8573      8575      8571      8572
      8577      8581      8582      8578      8577      8580      8578      8577      8579
      8579      8577      8580      8581      8577      8580      8581      8577      8579
      8581      8577      8578      8583      8587      8588      8584      8583      8586
      8584      8583      8585      8585      8583      8586      8587      8583      8586
      8587      8583      8585      8587      8583      8584      8589      8593      8594
      8590      8589      8592      8590      8589      8591      8591      8589      8592
      8593      8589      8592      8593      8589      8591      8593      8589      8590
      8595      8599      8600      8596      8595      8598      8596      8595      8597
      8597      8595      8598      8599      8595      8598      8599      8595      8597
      8599      8595      8596      8601      8605      8606      8602      8601      8604
      8602      8601      8603      8603      8601      8604      8605      8601      8604
      8605      8601      8603      8605      8601      8602      8607      8611      8612
      8608      8607      8610      8608      8607      8609      8609      8607      8610
      8611      8607      8610      8611      8607      8609      8611      8607      8608
      8613      8617      8618      8614      8613      8616      8614      8613      8615
      8615      8613      8616      8617      8613      8616      8617      8613      8615
      8617      8613      8614      8619      8623      8624      8620      8619      8622
      8620      8619      8621      8621      8619      8622      8623      8619      8622
      8623      8619      8621      8623      8619      8620      8625      8629      8630
      8626      8625      8628      8626      8625      8627      8627      8625      8628
      8629      8625      8628      8629      8625      8627      8629      8625      8626
      8631      8635      8636      8632      8631      8634      8632      8631      8633
      8633      8631      8634      8635      8631      8634      8635      8631      8633
      8635      8631      8632      8637      8641      8642      8638      8637      8640
      8638      8637      8639      8639      8637      8640      8641      8637      8640
      8641      8637      8639      8641      8637      8638      8643      8647      8648
      8644      8643      8646      8644      8643      8645      8645      8643      8646
      8647      8643      8646      8647      8643      8645      8647      8643      8644
      8649      8653      8654      8650      8649      8652      8650      8649      8651
      8651      8649      8652      8653      8649      8652      8653      8649      8651
      8653      8649      8650      8655      8659      8660      8656      8655      8658
      8656      8655      8657      8657      8655      8658      8659      8655      8658
      8659      8655      8657      8659      8655      8656      8661      8665      8666
      8662      8661      8664      8662      8661      8663      8663      8661      8664
      8665      8661      8664      8665      8661      8663      8665      8661      8662
      8667      8671      8672      8668      8667      8670      8668      8667      8669
      8669      8667      8670      8671      8667      8670      8671      8667      8669
      8671      8667      8668      8673      8677      8678      8674      8673      8676
      8674      8673      8675      8675      8673      8676      8677      8673      8676
      8677      8673      8675      8677      8673      8674      8679      8683      8684
      8680      8679      8682      8680      8679      8681      8681      8679      8682
      8683      8679      8682      8683      8679      8681      8683      8679      8680
      8685      8689      8690      8686      8685      8688      8686      8685      8687
      8687      8685      8688      8689      8685      8688      8689      8685      8687
      8689      8685      8686      8691      8695      8696      8692      8691      8694
      8692      8691      8693      8693      8691      8694      8695      8691      8694
      8695      8691      8693      8695      8691      8692      8697      8701      8702
      8698      8697      8700      8698      8697      8699      8699      8697      8700
      8701      8697      8700      8701      8697      8699      8701      8697      8698
      8703      8707      8708      8704      8703      8706      8704      8703      8705
      8705      8703      8706      8707      8703      8706      8707      8703      8705
      8707      8703      8704      8709      8713      8714      8710      8709      8712
      8710      8709      8711      8711      8709      8712      8713      8709      8712
      8713      8709      8711      8713      8709      8710      8715      8719      8720
      8716      8715      8718      8716      8715      8717      8717      8715      8718
      8719      8715      8718      8719      8715      8717      8719      8715      8716
      8721      8725      8726      8722      8721      8724      8722      8721      8723
      8723      8721      8724      8725      8721      8724      8725      8721      8723
      8725      8721      8722      8727      8731      8732      8728      8727      8730
      8728      8727      8729      8729      8727      8730      8731      8727      8730
      8731      8727      8729      8731      8727      8728      8733      8737      8738
      8734      8733      8736      8734      8733      8735      8735      8733      8736
      8737      8733      8736      8737      8733      8735      8737      8733      8734
      8739      8743      8744      8740      8739      8742      8740      8739      8741
      8741      8739      8742      8743      8739      8742      8743      8739      8741
      8743      8739      8740      8745      8749      8750      8746      8745      8748
      8746      8745      8747      8747      8745      8748      8749      8745      8748
      8749      8745      8747      8749      8745      8746      8751      8755      8756
      8752      8751      8754      8752      8751      8753      8753      8751      8754
      8755      8751      8754      8755      8751      8753      8755      8751      8752
      8757      8761      8762      8758      8757      8760      8758      8757      8759
      8759      8757      8760      8761      8757      8760      8761      8757      8759
      8761      8757      8758      8763      8767      8768      8764      8763      8766
      8764      8763      8765      8765      8763      8766      8767      8763      8766
      8767      8763      8765      8767      8763      8764      8769      8773      8774
      8770      8769      8772      8770      8769      8771      8771      8769      8772
      8773      8769      8772      8773      8769      8771      8773      8769      8770
      8775      8779      8780      8776      8775      8778      8776      8775      8777
      8777      8775      8778      8779      8775      8778      8779      8775      8777
      8779      8775      8776      8781      8785      8786      8782      8781      8784
      8782      8781      8783      8783      8781      8784      8785      8781      8784
      8785      8781      8783      8785      8781      8782      8787      8791      8792
      8788      8787      8790      8788      8787      8789      8789      8787      8790
      8791      8787      8790      8791      8787      8789      8791      8787      8788
      8793      8797      8798      8794      8793      8796      8794      8793      8795
      8795      8793      8796      8797      8793      8796      8797      8793      8795
      8797      8793      8794      8799      8803      8804      8800      8799      8802
      8800      8799      8801      8801      8799      8802      8803      8799      8802
      8803      8799      8801      8803      8799      8800      8805      8809      8810
      8806      8805      8808      8806      8805      8807      8807      8805      8808
      8809      8805      8808      8809      8805      8807      8809      8805      8806
      8811      8815      8816      8812      8811      8814      8812      8811      8813
      8813      8811      8814      8815      8811      8814      8815      8811      8813
      8815      8811      8812      8817      8821      8822      8818      8817      8820
      8818      8817      8819      8819      8817      8820      8821      8817      8820
      8821      8817      8819      8821      8817      8818      8823      8827      8828
      8824      8823      8826      8824      8823      8825      8825      8823      8826
      8827      8823      8826      8827      8823      8825      8827      8823      8824
      8829      8833      8834      8830      8829      8832      8830      8829      8831
      8831      8829      8832      8833      8829      8832      8833      8829      8831
      8833      8829      8830      8835      8839      8840      8836      8835      8838
      8836      8835      8837      8837      8835      8838      8839      8835      8838
      8839      8835      8837      8839      8835      8836      8841      8845      8846
      8842      8841      8844      8842      8841      8843      8843      8841      8844
      8845      8841      8844      8845      8841      8843      8845      8841      8842
      8847      8851      8852      8848      8847      8850      8848      8847      8849
      8849      8847      8850      8851      8847      8850      8851      8847      8849
      8851      8847      8848      8853      8857      8858      8854      8853      8856
      8854      8853      8855      8855      8853      8856      8857      8853      8856
      8857      8853      8855      8857      8853      8854      8859      8863      8864
      8860      8859      8862      8860      8859      8861      8861      8859      8862
      8863      8859      8862      8863      8859      8861      8863      8859      8860
      8865      8869      8870      8866      8865      8868      8866      8865      8867
      8867      8865      8868      8869      8865      8868      8869      8865      8867
      8869      8865      8866      8871      8875      8876      8872      8871      8874
      8872      8871      8873      8873      8871      8874      8875      8871      8874
      8875      8871      8873      8875      8871      8872      8877      8881      8882
      8878      8877      8880      8878      8877      8879      8879      8877      8880
      8881      8877      8880      8881      8877      8879      8881      8877      8878
      8883      8887      8888      8884      8883      8886      8884      8883      8885
      8885      8883      8886      8887      8883      8886      8887      8883      8885
      8887      8883      8884      8889      8893      8894      8890      8889      8892
      8890      8889      8891      8891      8889      8892      8893      8889      8892
      8893      8889      8891      8893      8889      8890      8895      8899      8900
      8896      8895      8898      8896      8895      8897      8897      8895      8898
      8899      8895      8898      8899      8895      8897      8899      8895      8896
      8901      8905      8906      8902      8901      8904      8902      8901      8903
      8903      8901      8904      8905      8901      8904      8905      8901      8903
      8905      8901      8902      8907      8911      8912      8908      8907      8910
      8908      8907      8909      8909      8907      8910      8911      8907      8910
      8911      8907      8909      8911      8907      8908      8913      8917      8918
      8914      8913      8916      8914      8913      8915      8915      8913      8916
      8917      8913      8916      8917      8913      8915      8917      8913      8914
      8919      8923      8924      8920      8919      8922      8920      8919      8921
      8921      8919      8922      8923      8919      8922      8923      8919      8921
      8923      8919      8920      8925      8929      8930      8926      8925      8928
      8926      8925      8927      8927      8925      8928      8929      8925      8928
      8929      8925      8927      8929      8925      8926      8931      8935      8936
      8932      8931      8934      8932      8931      8933      8933      8931      8934
      8935      8931      8934      8935      8931      8933      8935      8931      8932
      8937      8941      8942      8938      8937      8940      8938      8937      8939
      8939      8937      8940      8941      8937      8940      8941      8937      8939
      8941      8937      8938      8943      8947      8948      8944      8943      8946
      8944      8943      8945      8945      8943      8946      8947      8943      8946
      8947      8943      8945      8947      8943      8944      8949      8953      8954
      8950      8949      8952      8950      8949      8951      8951      8949      8952
      8953      8949      8952      8953      8949      8951      8953      8949      8950
      8955      8959      8960      8956      8955      8958      8956      8955      8957
      8957      8955      8958      8959      8955      8958      8959      8955      8957
      8959      8955      8956      8961      8965      8966      8962      8961      8964
      8962      8961      8963      8963      8961      8964      8965      8961      8964
      8965      8961      8963      8965      8961      8962      8967      8971      8972
      8968      8967      8970      8968      8967      8969      8969      8967      8970
      8971      8967      8970      8971      8967      8969      8971      8967      8968
      8973      8977      8978      8974      8973      8976      8974      8973      8975
      8975      8973      8976      8977      8973      8976      8977      8973      8975
      8977      8973      8974      8979      8983      8984      8980      8979      8982
      8980      8979      8981      8981      8979      8982      8983      8979      8982
      8983      8979      8981      8983      8979      8980      8985      8989      8990
      8986      8985      8988      8986      8985      8987      8987      8985      8988
      8989      8985      8988      8989      8985      8987      8989      8985      8986
      8991      8995      8996      8992      8991      8994      8992      8991      8993
      8993      8991      8994      8995      8991      8994      8995      8991      8993
      8995      8991      8992      8997      9001      9002      8998      8997      9000
      8998      8997      8999      8999      8997      9000      9001      8997      9000
      9001      8997      8999      9001      8997      8998      9003      9007      9008
      9004      9003      9006      9004      9003      9005      9005      9003      9006
      9007      9003      9006      9007      9003      9005      9007      9003      9004
      9009      9013      9014      9010      9009      9012      9010      9009      9011
      9011      9009      9012      9013      9009      9012      9013      9009      9011
      9013      9009      9010      9015      9019      9020      9016      9015      9018
      9016      9015      9017      9017      9015      9018      9019      9015      9018
      9019      9015      9017      9019      9015      9016      9021      9025      9026
      9022      9021      9024      9022      9021      9023      9023      9021      9024
      9025      9021      9024      9025      9021      9023      9025      9021      9022
      9027      9031      9032      9028      9027      9030      9028      9027      9029
      9029      9027      9030      9031      9027      9030      9031      9027      9029
      9031      9027      9028      9033      9037      9038      9034      9033      9036
      9034      9033      9035      9035      9033      9036      9037      9033      9036
      9037      9033      9035      9037      9033      9034      9039      9043      9044
      9040      9039      9042      9040      9039      9041      9041      9039      9042
      9043      9039      9042      9043      9039      9041      9043      9039      9040
      9045      9049      9050      9046      9045      9048      9046      9045      9047
      9047      9045      9048      9049      9045      9048      9049      9045      9047
      9049      9045      9046      9051      9055      9056      9052      9051      9054
      9052      9051      9053      9053      9051      9054      9055      9051      9054
      9055      9051      9053      9055      9051      9052      9057      9061      9062
      9058      9057      9060      9058      9057      9059      9059      9057      9060
      9061      9057      9060      9061      9057      9059      9061      9057      9058
      9063      9067      9068      9064      9063      9066      9064      9063      9065
      9065      9063      9066      9067      9063      9066      9067      9063      9065
      9067      9063      9064      9069      9073      9074      9070      9069      9072
      9070      9069      9071      9071      9069      9072      9073      9069      9072
      9073      9069      9071      9073      9069      9070      9075      9079      9080
      9076      9075      9078      9076      9075      9077      9077      9075      9078
      9079      9075      9078      9079      9075      9077      9079      9075      9076
      9081      9085      9086      9082      9081      9084      9082      9081      9083
      9083      9081      9084      9085      9081      9084      9085      9081      9083
      9085      9081      9082      9087      9091      9092      9088      9087      9090
      9088      9087      9089      9089      9087      9090      9091      9087      9090
      9091      9087      9089      9091      9087      9088      9093      9097      9098
      9094      9093      9096      9094      9093      9095      9095      9093      9096
      9097      9093      9096      9097      9093      9095      9097      9093      9094
      9099      9103      9104      9100      9099      9102      9100      9099      9101
      9101      9099      9102      9103      9099      9102      9103      9099      9101
      9103      9099      9100      9105      9109      9110      9106      9105      9108
      9106      9105      9107      9107      9105      9108      9109      9105      9108
      9109      9105      9107      9109      9105      9106      9111      9115      9116
      9112      9111      9114      9112      9111      9113      9113      9111      9114
      9115      9111      9114      9115      9111      9113      9115      9111      9112
      9117      9121      9122      9118      9117      9120      9118      9117      9119
      9119      9117      9120      9121      9117      9120      9121      9117      9119
      9121      9117      9118      9123      9127      9128      9124      9123      9126
      9124      9123      9125      9125      9123      9126      9127      9123      9126
      9127      9123      9125      9127      9123      9124      9129      9133      9134
      9130      9129      9132      9130      9129      9131      9131      9129      9132
      9133      9129      9132      9133      9129      9131      9133      9129      9130
      9135      9139      9140      9136      9135      9138      9136      9135      9137
      9137      9135      9138      9139      9135      9138      9139      9135      9137
      9139      9135      9136      9141      9145      9146      9142      9141      9144
      9142      9141      9143      9143      9141      9144      9145      9141      9144
      9145      9141      9143      9145      9141      9142      9147      9151      9152
      9148      9147      9150      9148      9147      9149      9149      9147      9150
      9151      9147      9150      9151      9147      9149      9151      9147      9148
      9153      9157      9158      9154      9153      9156      9154      9153      9155
      9155      9153      9156      9157      9153      9156      9157      9153      9155
      9157      9153      9154      9159      9163      9164      9160      9159      9162
      9160      9159      9161      9161      9159      9162      9163      9159      9162
      9163      9159      9161      9163      9159      9160      9165      9169      9170
      9166      9165      9168      9166      9165      9167      9167      9165      9168
      9169      9165      9168      9169      9165      9167      9169      9165      9166
      9171      9175      9176      9172      9171      9174      9172      9171      9173
      9173      9171      9174      9175      9171      9174      9175      9171      9173
      9175      9171      9172      9177      9181      9182      9178      9177      9180
      9178      9177      9179      9179      9177      9180      9181      9177      9180
      9181      9177      9179      9181      9177      9178      9183      9187      9188
      9184      9183      9186      9184      9183      9185      9185      9183      9186
      9187      9183      9186      9187      9183      9185      9187      9183      9184
      9189      9193      9194      9190      9189      9192      9190      9189      9191
      9191      9189      9192      9193      9189      9192      9193      9189      9191
      9193      9189      9190      9195      9199      9200      9196      9195      9198
      9196      9195      9197      9197      9195      9198      9199      9195      9198
      9199      9195      9197      9199      9195      9196      9201      9205      9206
      9202      9201      9204      9202      9201      9203      9203      9201      9204
      9205      9201      9204      9205      9201      9203      9205      9201      9202
      9207      9211      9212      9208      9207      9210      9208      9207      9209
      9209      9207      9210      9211      9207      9210      9211      9207      9209
      9211      9207      9208      9213      9217      9218      9214      9213      9216
      9214      9213      9215      9215      9213      9216      9217      9213      9216
      9217      9213      9215      9217      9213      9214      9219      9223      9224
      9220      9219      9222      9220      9219      9221      9221      9219      9222
      9223      9219      9222      9223      9219      9221      9223      9219      9220
      9225      9229      9230      9226      9225      9228      9226      9225      9227
      9227      9225      9228      9229      9225      9228      9229      9225      9227
      9229      9225      9226      9231      9235      9236      9232      9231      9234
      9232      9231      9233      9233      9231      9234      9235      9231      9234
      9235      9231      9233      9235      9231      9232      9237      9241      9242
      9238      9237      9240      9238      9237      9239      9239      9237      9240
      9241      9237      9240      9241      9237      9239      9241      9237      9238
      9243      9247      9248      9244      9243      9246      9244      9243      9245
      9245      9243      9246      9247      9243      9246      9247      9243      9245
      9247      9243      9244      9249      9253      9254      9250      9249      9252
      9250      9249      9251      9251      9249      9252      9253      9249      9252
      9253      9249      9251      9253      9249      9250      9255      9259      9260
      9256      9255      9258      9256      9255      9257      9257      9255      9258
      9259      9255      9258      9259      9255      9257      9259      9255      9256
      9261      9265      9266      9262      9261      9264      9262      9261      9263
      9263      9261      9264      9265      9261      9264      9265      9261      9263
      9265      9261      9262      9267      9271      9272      9268      9267      9270
      9268      9267      9269      9269      9267      9270      9271      9267      9270
      9271      9267      9269      9271      9267      9268      9273      9277      9278
      9274      9273      9276      9274      9273      9275      9275      9273      9276
      9277      9273      9276      9277      9273      9275      9277      9273      9274
      9279      9283      9284      9280      9279      9282      9280      9279      9281
      9281      9279      9282      9283      9279      9282      9283      9279      9281
      9283      9279      9280      9285      9289      9290      9286      9285      9288
      9286      9285      9287      9287      9285      9288      9289      9285      9288
      9289      9285      9287      9289      9285      9286      9291      9295      9296
      9292      9291      9294      9292      9291      9293      9293      9291      9294
      9295      9291      9294      9295      9291      9293      9295      9291      9292
      9297      9301      9302      9298      9297      9300      9298      9297      9299
      9299      9297      9300      9301      9297      9300      9301      9297      9299
      9301      9297      9298      9303      9307      9308      9304      9303      9306
      9304      9303      9305      9305      9303      9306      9307      9303      9306
      9307      9303      9305      9307      9303      9304      9309      9313      9314
      9310      9309      9312      9310      9309      9311      9311      9309      9312
      9313      9309      9312      9313      9309      9311      9313      9309      9310
      9315      9319      9320      9316      9315      9318      9316      9315      9317
      9317      9315      9318      9319      9315      9318      9319      9315      9317
      9319      9315      9316      9321      9325      9326      9322      9321      9324
      9322      9321      9323      9323      9321      9324      9325      9321      9324
      9325      9321      9323      9325      9321      9322      9327      9331      9332
      9328      9327      9330      9328      9327      9329      9329      9327      9330
      9331      9327      9330      9331      9327      9329      9331      9327      9328
      9333      9337      9338      9334      9333      9336      9334      9333      9335
      9335      9333      9336      9337      9333      9336      9337      9333      9335
      9337      9333      9334      9339      9343      9344      9340      9339      9342
      9340      9339      9341      9341      9339      9342      9343      9339      9342
      9343      9339      9341      9343      9339      9340      9345      9349      9350
      9346      9345      9348      9346      9345      9347      9347      9345      9348
      9349      9345      9348      9349      9345      9347      9349      9345      9346
      9351      9355      9356      9352      9351      9354      9352      9351      9353
      9353      9351      9354      9355      9351      9354      9355      9351      9353
      9355      9351      9352      9357      9361      9362      9358      9357      9360
      9358      9357      9359      9359      9357      9360      9361      9357      9360
      9361      9357      9359      9361      9357      9358      9363      9367      9368
      9364      9363      9366      9364      9363      9365      9365      9363      9366
      9367      9363      9366      9367      9363      9365      9367      9363      9364
      9369      9373      9374      9370      9369      9372      9370      9369      9371
      9371      9369      9372      9373      9369      9372      9373      9369      9371
      9373      9369      9370      9375      9379      9380      9376      9375      9378
      9376      9375      9377      9377      9375      9378      9379      9375      9378
      9379      9375      9377      9379      9375      9376      9381      9385      9386
      9382      9381      9384      9382      9381      9383      9383      9381      9384
      9385      9381      9384      9385      9381      9383      9385      9381      9382
      9387      9391      9392      9388      9387      9390      9388      9387      9389
      9389      9387      9390      9391      9387      9390      9391      9387      9389
      9391      9387      9388      9393      9397      9398      9394      9393      9396
      9394      9393      9395      9395      9393      9396      9397      9393      9396
      9397      9393      9395      9397      9393      9394      9399      9403      9404
      9400      9399      9402      9400      9399      9401      9401      9399      9402
      9403      9399      9402      9403      9399      9401      9403      9399      9400
      9405      9409      9410      9406      9405      9408      9406      9405      9407
      9407      9405      9408      9409      9405      9408      9409      9405      9407
      9409      9405      9406      9411      9415      9416      9412      9411      9414
      9412      9411      9413      9413      9411      9414      9415      9411      9414
      9415      9411      9413      9415      9411      9412      9417      9421      9422
      9418      9417      9420      9418      9417      9419      9419      9417      9420
      9421      9417      9420      9421      9417      9419      9421      9417      9418
      9423      9427      9428      9424      9423      9426      9424      9423      9425
      9425      9423      9426      9427      9423      9426      9427      9423      9425
      9427      9423      9424      9429      9433      9434      9430      9429      9432
      9430      9429      9431      9431      9429      9432      9433      9429      9432
      9433      9429      9431      9433      9429      9430      9435      9439      9440
      9436      9435      9438      9436      9435      9437      9437      9435      9438
      9439      9435      9438      9439      9435      9437      9439      9435      9436
      9441      9445      9446      9442      9441      9444      9442      9441      9443
      9443      9441      9444      9445      9441      9444      9445      9441      9443
      9445      9441      9442      9447      9451      9452      9448      9447      9450
      9448      9447      9449      9449      9447      9450      9451      9447      9450
      9451      9447      9449      9451      9447      9448      9453      9457      9458
      9454      9453      9456      9454      9453      9455      9455      9453      9456
      9457      9453      9456      9457      9453      9455      9457      9453      9454
      9459      9463      9464      9460      9459      9462      9460      9459      9461
      9461      9459      9462      9463      9459      9462      9463      9459      9461
      9463      9459      9460      9465      9469      9470      9466      9465      9468
      9466      9465      9467      9467      9465      9468      9469      9465      9468
      9469      9465      9467      9469      9465      9466      9471      9475      9476
      9472      9471      9474      9472      9471      9473      9473      9471      9474
      9475      9471      9474      9475      9471      9473      9475      9471      9472
      9477      9481      9482      9478      9477      9480      9478      9477      9479
      9479      9477      9480      9481      9477      9480      9481      9477      9479
      9481      9477      9478      9483      9487      9488      9484      9483      9486
      9484      9483      9485      9485      9483      9486      9487      9483      9486
      9487      9483      9485      9487      9483      9484      9489      9493      9494
      9490      9489      9492      9490      9489      9491      9491      9489      9492
      9493      9489      9492      9493      9489      9491      9493      9489      9490
      9495      9499      9500      9496      9495      9498      9496      9495      9497
      9497      9495      9498      9499      9495      9498      9499      9495      9497
      9499      9495      9496      9501      9505      9506      9502      9501      9504
      9502      9501      9503      9503      9501      9504      9505      9501      9504
      9505      9501      9503      9505      9501      9502      9507      9511      9512
      9508      9507      9510      9508      9507      9509      9509      9507      9510
      9511      9507      9510      9511      9507      9509      9511      9507      9508
      9513      9517      9518      9514      9513      9516      9514      9513      9515
      9515      9513      9516      9517      9513      9516      9517      9513      9515
      9517      9513      9514      9519      9523      9524      9520      9519      9522
      9520      9519      9521      9521      9519      9522      9523      9519      9522
      9523      9519      9521      9523      9519      9520      9525      9529      9530
      9526      9525      9528      9526      9525      9527      9527      9525      9528
      9529      9525      9528      9529      9525      9527      9529      9525      9526
      9531      9535      9536      9532      9531      9534      9532      9531      9533
      9533      9531      9534      9535      9531      9534      9535      9531      9533
      9535      9531      9532      9537      9541      9542      9538      9537      9540
      9538      9537      9539      9539      9537      9540      9541      9537      9540
      9541      9537      9539      9541      9537      9538      9543      9547      9548
      9544      9543      9546      9544      9543      9545      9545      9543      9546
      9547      9543      9546      9547      9543      9545      9547      9543      9544
      9549      9553      9554      9550      9549      9552      9550      9549      9551
      9551      9549      9552      9553      9549      9552      9553      9549      9551
      9553      9549      9550      9555      9559      9560      9556      9555      9558
      9556      9555      9557      9557      9555      9558      9559      9555      9558
      9559      9555      9557      9559      9555      9556      9561      9565      9566
      9562      9561      9564      9562      9561      9563      9563      9561      9564
      9565      9561      9564      9565      9561      9563      9565      9561      9562
      9567      9571      9572      9568      9567      9570      9568      9567      9569
      9569      9567      9570      9571      9567      9570      9571      9567      9569
      9571      9567      9568      9573      9577      9578      9574      9573      9576
      9574      9573      9575      9575      9573      9576      9577      9573      9576
      9577      9573      9575      9577      9573      9574      9579      9583      9584
      9580      9579      9582      9580      9579      9581      9581      9579      9582
      9583      9579      9582      9583      9579      9581      9583      9579      9580
      9585      9589      9590      9586      9585      9588      9586      9585      9587
      9587      9585      9588      9589      9585      9588      9589      9585      9587
      9589      9585      9586      9591      9595      9596      9592      9591      9594
      9592      9591      9593      9593      9591      9594      9595      9591      9594
      9595      9591      9593      9595      9591      9592      9597      9601      9602
      9598      9597      9600      9598      9597      9599      9599      9597      9600
      9601      9597      9600      9601      9597      9599      9601      9597      9598
      9603      9607      9608      9604      9603      9606      9604      9603      9605
      9605      9603      9606      9607      9603      9606      9607      9603      9605
      9607      9603      9604      9609      9613      9614      9610      9609      9612
      9610      9609      9611      9611      9609      9612      9613      9609      9612
      9613      9609      9611      9613      9609      9610      9615      9619      9620
      9616      9615      9618      9616      9615      9617      9617      9615      9618
      9619      9615      9618      9619      9615      9617      9619      9615      9616
      9621      9625      9626      9622      9621      9624      9622      9621      9623
      9623      9621      9624      9625      9621      9624      9625      9621      9623
      9625      9621      9622      9627      9631      9632      9628      9627      9630
      9628      9627      9629      9629      9627      9630      9631      9627      9630
      9631      9627      9629      9631      9627      9628      9633      9637      9638
      9634      9633      9636      9634      9633      9635      9635      9633      9636
      9637      9633      9636      9637      9633      9635      9637      9633      9634
      9639      9643      9644      9640      9639      9642      9640      9639      9641
      9641      9639      9642      9643      9639      9642      9643      9639      9641
      9643      9639      9640      9645      9649      9650      9646      9645      9648
      9646      9645      9647      9647      9645      9648      9649      9645      9648
      9649      9645      9647      9649      9645      9646      9651      9655      9656
      9652      9651      9654      9652      9651      9653      9653      9651      9654
      9655      9651      9654      9655      9651      9653      9655      9651      9652
      9657      9661      9662      9658      9657      9660      9658      9657      9659
      9659      9657      9660      9661      9657      9660      9661      9657      9659
      9661      9657      9658      9663      9667      9668      9664      9663      9666
      9664      9663      9665      9665      9663      9666      9667      9663      9666
      9667      9663      9665      9667      9663      9664      9669      9673      9674
      9670      9669      9672      9670      9669      9671      9671      9669      9672
      9673      9669      9672      9673      9669      9671      9673      9669      9670
      9675      9679      9680      9676      9675      9678      9676      9675      9677
      9677      9675      9678      9679      9675      9678      9679      9675      9677
      9679      9675      9676      9681      9685      9686      9682      9681      9684
      9682      9681      9683      9683      9681      9684      9685      9681      9684
      9685      9681      9683      9685      9681      9682      9687      9691      9692
      9688      9687      9690      9688      9687      9689      9689      9687      9690
      9691      9687      9690      9691      9687      9689      9691      9687      9688
      9693      9697      9698      9694      9693      9696      9694      9693      9695
      9695      9693      9696      9697      9693      9696      9697      9693      9695
      9697      9693      9694      9699      9703      9704      9700      9699      9702
      9700      9699      9701      9701      9699      9702      9703      9699      9702
      9703      9699      9701      9703      9699      9700      9705      9709      9710
      9706      9705      9708      9706      9705      9707      9707      9705      9708
      9709      9705      9708      9709      9705      9707      9709      9705      9706
      9711      9715      9716      9712      9711      9714      9712      9711      9713
      9713      9711      9714      9715      9711      9714      9715      9711      9713
      9715      9711      9712      9717      9721      9722      9718      9717      9720
      9718      9717      9719      9719      9717      9720      9721      9717      9720
      9721      9717      9719      9721      9717      9718      9723      9727      9728
      9724      9723      9726      9724      9723      9725      9725      9723      9726
      9727      9723      9726      9727      9723      9725      9727      9723      9724
      9729      9733      9734      9730      9729      9732      9730      9729      9731
      9731      9729      9732      9733      9729      9732      9733      9729      9731
      9733      9729      9730      9735      9739      9740      9736      9735      9738
      9736      9735      9737      9737      9735      9738      9739      9735      9738
      9739      9735      9737      9739      9735      9736      9741      9745      9746
      9742      9741      9744      9742      9741      9743      9743      9741      9744
      9745      9741      9744      9745      9741      9743      9745      9741      9742
      9747      9751      9752      9748      9747      9750      9748      9747      9749
      9749      9747      9750      9751      9747      9750      9751      9747      9749
      9751      9747      9748      9753      9757      9758      9754      9753      9756
      9754      9753      9755      9755      9753      9756      9757      9753      9756
      9757      9753      9755      9757      9753      9754      9759      9763      9764
      9760      9759      9762      9760      9759      9761      9761      9759      9762
      9763      9759      9762      9763      9759      9761      9763      9759      9760
      9765      9769      9770      9766      9765      9768      9766      9765      9767
      9767      9765      9768      9769      9765      9768      9769      9765      9767
      9769      9765      9766      9771      9775      9776      9772      9771      9774
      9772      9771      9773      9773      9771      9774      9775      9771      9774
      9775      9771      9773      9775      9771      9772      9777      9781      9782
      9778      9777      9780      9778      9777      9779      9779      9777      9780
      9781      9777      9780      9781      9777      9779      9781      9777      9778
      9783      9787      9788      9784      9783      9786      9784      9783      9785
      9785      9783      9786      9787      9783      9786      9787      9783      9785
      9787      9783      9784      9789      9793      9794      9790      9789      9792
      9790      9789      9791      9791      9789      9792      9793      9789      9792
      9793      9789      9791      9793      9789      9790      9795      9799      9800
      9796      9795      9798      9796      9795      9797      9797      9795      9798
      9799      9795      9798      9799      9795      9797      9799      9795      9796
      9801      9805      9806      9802      9801      9804      9802      9801      9803
      9803      9801      9804      9805      9801      9804      9805      9801      9803
      9805      9801      9802      9807      9811      9812      9808      9807      9810
      9808      9807      9809      9809      9807      9810      9811      9807      9810
      9811      9807      9809      9811      9807      9808      9813      9817      9818
      9814      9813      9816      9814      9813      9815      9815      9813      9816
      9817      9813      9816      9817      9813      9815      9817      9813      9814
      9819      9823      9824      9820      9819      9822      9820      9819      9821
      9821      9819      9822      9823      9819      9822      9823      9819      9821
      9823      9819      9820      9825      9829      9830      9826      9825      9828
      9826      9825      9827      9827      9825      9828      9829      9825      9828
      9829      9825      9827      9829      9825      9826      9831      9835      9836
      9832      9831      9834      9832      9831      9833      9833      9831      9834
      9835      9831      9834      9835      9831      9833      9835      9831      9832
      9837      9841      9842      9838      9837      9840      9838      9837      9839
      9839      9837      9840      9841      9837      9840      9841      9837      9839
      9841      9837      9838      9843      9847      9848      9844      9843      9846
      9844      9843      9845      9845      9843      9846      9847      9843      9846
      9847      9843      9845      9847      9843      9844      9849      9853      9854
      9850      9849      9852      9850      9849      9851      9851      9849      9852
      9853      9849      9852      9853      9849      9851      9853      9849      9850
      9855      9859      9860      9856      9855      9858      9856      9855      9857
      9857      9855      9858      9859      9855      9858      9859      9855      9857
      9859      9855      9856      9861      9865      9866      9862      9861      9864
      9862      9861      9863      9863      9861      9864      9865      9861      9864
      9865      9861      9863      9865      9861      9862      9867      9871      9872
      9868      9867      9870      9868      9867      9869      9869      9867      9870
      9871      9867      9870      9871      9867      9869      9871      9867      9868
      9873      9877      9878      9874      9873      9876      9874      9873      9875
      9875      9873      9876      9877      9873      9876      9877      9873      9875
      9877      9873      9874      9879      9883      9884      9880      9879      9882
      9880      9879      9881      9881      9879      9882      9883      9879      9882
      9883      9879      9881      9883      9879      9880      9885      9889      9890
      9886      9885      9888      9886      9885      9887      9887      9885      9888
      9889      9885      9888      9889      9885      9887      9889      9885      9886
      9891      9895      9896      9892      9891      9894      9892      9891      9893
      9893      9891      9894      9895      9891      9894      9895      9891      9893
      9895      9891      9892      9897      9901      9902      9898      9897      9900
      9898      9897      9899      9899      9897      9900      9901      9897      9900
      9901      9897      9899      9901      9897      9898      9903      9907      9908
      9904      9903      9906      9904      9903      9905      9905      9903      9906
      9907      9903      9906      9907      9903      9905      9907      9903      9904
      9909      9913      9914      9910      9909      9912      9910      9909      9911
      9911      9909      9912      9913      9909      9912      9913      9909      9911
      9913      9909      9910      9915      9919      9920      9916      9915      9918
      9916      9915      9917      9917      9915      9918      9919      9915      9918
      9919      9915      9917      9919      9915      9916      9921      9925      9926
      9922      9921      9924      9922      9921      9923      9923      9921      9924
      9925      9921      9924      9925      9921      9923      9925      9921      9922
      9927      9931      9932      9928      9927      9930      9928      9927      9929
      9929      9927      9930      9931      9927      9930      9931      9927      9929
      9931      9927      9928      9933      9937      9938      9934      9933      9936
      9934      9933      9935      9935      9933      9936      9937      9933      9936
      9937      9933      9935      9937      9933      9934      9939      9943      9944
      9940      9939      9942      9940      9939      9941      9941      9939      9942
      9943      9939      9942      9943      9939      9941      9943      9939      9940
      9945      9949      9950      9946      9945      9948      9946      9945      9947
      9947      9945      9948      9949      9945      9948      9949      9945      9947
      9949      9945      9946      9951      9955      9956      9952      9951      9954
      9952      9951      9953      9953      9951      9954      9955      9951      9954
      9955      9951      9953      9955      9951      9952      9957      9961      9962
      9958      9957      9960      9958      9957      9959      9959      9957      9960
      9961      9957      9960      9961      9957      9959      9961      9957      9958
      9963      9967      9968      9964      9963      9966      9964      9963      9965
      9965      9963      9966      9967      9963      9966      9967      9963      9965
      9967      9963      9964      9969      9973      9974      9970      9969      9972
      9970      9969      9971      9971      9969      9972      9973      9969      9972
      9973      9969      9971      9973      9969      9970      9975      9979      9980
      9976      9975      9978      9976      9975      9977      9977      9975      9978
      9979      9975      9978      9979      9975      9977      9979      9975      9976
      9981      9985      9986      9982      9981      9984      9982      9981      9983
      9983      9981      9984      9985      9981      9984      9985      9981      9983
      9985      9981      9982      9987      9991      9992      9988      9987      9990
      9988      9987      9989      9989      9987      9990      9991      9987      9990
      9991      9987      9989      9991      9987      9988      9993      9997      9998
      9994      9993      9996      9994      9993      9995      9995      9993      9996
      9997      9993      9996      9997      9993      9995      9997      9993      9994
      9999     10003     10004     10000      9999     10002     10000      9999     10001
     10001      9999     10002     10003      9999     10002     10003      9999     10001
     10003      9999     10000     10005     10009     10010     10006     10005     10008
     10006     10005     10007     10007     10005     10008     10009     10005     10008
     10009     10005     10007     10009     10005     10006     10011     10015     10016
     10012     10011     10014     10012     10011     10013     10013     10011     10014
     10015     10011     10014     10015     10011     10013     10015     10011     10012
     10017     10021     10022     10018     10017     10020     10018     10017     10019
     10019     10017     10020     10021     10017     10020     10021     10017     10019
     10021     10017     10018     10023     10027     10028     10024     10023     10026
     10024     10023     10025     10025     10023     10026     10027     10023     10026
     10027     10023     10025     10027     10023     10024     10029     10033     10034
     10030     10029     10032     10030     10029     10031     10031     10029     10032
     10033     10029     10032     10033     10029     10031     10033     10029     10030
     10035     10039     10040     10036     10035     10038     10036     10035     10037
     10037     10035     10038     10039     10035     10038     10039     10035     10037
     10039     10035     10036     10041     10045     10046     10042     10041     10044
     10042     10041     10043     10043     10041     10044     10045     10041     10044
     10045     10041     10043     10045     10041     10042     10047     10051     10052
     10048     10047     10050     10048     10047     10049     10049     10047     10050
     10051     10047     10050     10051     10047     10049     10051     10047     10048
     10053     10057     10058     10054     10053     10056     10054     10053     10055
     10055     10053     10056     10057     10053     10056     10057     10053     10055
     10057     10053     10054     10059     10063     10064     10060     10059     10062
     10060     10059     10061     10061     10059     10062     10063     10059     10062
     10063     10059     10061     10063     10059     10060     10065     10069     10070
     10066     10065     10068     10066     10065     10067     10067     10065     10068
     10069     10065     10068     10069     10065     10067     10069     10065     10066
     10071     10075     10076     10072     10071     10074     10072     10071     10073
     10073     10071     10074     10075     10071     10074     10075     10071     10073
     10075     10071     10072     10077     10081     10082     10078     10077     10080
     10078     10077     10079     10079     10077     10080     10081     10077     10080
     10081     10077     10079     10081     10077     10078     10083     10087     10088
     10084     10083     10086     10084     10083     10085     10085     10083     10086
     10087     10083     10086     10087     10083     10085     10087     10083     10084
     10089     10093     10094     10090     10089     10092     10090     10089     10091
     10091     10089     10092     10093     10089     10092     10093     10089     10091
     10093     10089     10090     10095     10099     10100     10096     10095     10098
     10096     10095     10097     10097     10095     10098     10099     10095     10098
     10099     10095     10097     10099     10095     10096     10101     10105     10106
     10102     10101     10104     10102     10101     10103     10103     10101     10104
     10105     10101     10104     10105     10101     10103     10105     10101     10102
     10107     10111     10112     10108     10107     10110     10108     10107     10109
     10109     10107     10110     10111     10107     10110     10111     10107     10109
     10111     10107     10108     10113     10117     10118     10114     10113     10116
     10114     10113     10115     10115     10113     10116     10117     10113     10116
     10117     10113     10115     10117     10113     10114     10119     10123     10124
     10120     10119     10122     10120     10119     10121     10121     10119     10122
     10123     10119     10122     10123     10119     10121     10123     10119     10120
     10125     10129     10130     10126     10125     10128     10126     10125     10127
     10127     10125     10128     10129     10125     10128     10129     10125     10127
     10129     10125     10126     10131     10135     10136     10132     10131     10134
     10132     10131     10133     10133     10131     10134     10135     10131     10134
     10135     10131     10133     10135     10131     10132     10137     10141     10142
     10138     10137     10140     10138     10137     10139     10139     10137     10140
     10141     10137     10140     10141     10137     10139     10141     10137     10138
     10143     10147     10148     10144     10143     10146     10144     10143     10145
     10145     10143     10146     10147     10143     10146     10147     10143     10145
     10147     10143     10144     10149     10153     10154     10150     10149     10152
     10150     10149     10151     10151     10149     10152     10153     10149     10152
     10153     10149     10151     10153     10149     10150     10155     10159     10160
     10156     10155     10158     10156     10155     10157     10157     10155     10158
     10159     10155     10158     10159     10155     10157     10159     10155     10156
     10161     10165     10166     10162     10161     10164     10162     10161     10163
     10163     10161     10164     10165     10161     10164     10165     10161     10163
     10165     10161     10162     10167     10171     10172     10168     10167     10170
     10168     10167     10169     10169     10167     10170     10171     10167     10170
     10171     10167     10169     10171     10167     10168     10173     10177     10178
     10174     10173     10176     10174     10173     10175     10175     10173     10176
     10177     10173     10176     10177     10173     10175     10177     10173     10174
     10179     10183     10184     10180     10179     10182     10180     10179     10181
     10181     10179     10182     10183     10179     10182     10183     10179     10181
     10183     10179     10180     10185     10189     10190     10186     10185     10188
     10186     10185     10187     10187     10185     10188     10189     10185     10188
     10189     10185     10187     10189     10185     10186     10191     10195     10196
     10192     10191     10194     10192     10191     10193     10193     10191     10194
     10195     10191     10194     10195     10191     10193     10195     10191     10192
     10197     10201     10202     10198     10197     10200     10198     10197     10199
     10199     10197     10200     10201     10197     10200     10201     10197     10199
     10201     10197     10198     10203     10207     10208     10204     10203     10206
     10204     10203     10205     10205     10203     10206     10207     10203     10206
     10207     10203     10205     10207     10203     10204     10209     10213     10214
     10210     10209     10212     10210     10209     10211     10211     10209     10212
     10213     10209     10212     10213     10209     10211     10213     10209     10210
     10215     10219     10220     10216     10215     10218     10216     10215     10217
     10217     10215     10218     10219     10215     10218     10219     10215     10217
     10219     10215     10216     10221     10225     10226     10222     10221     10224
     10222     10221     10223     10223     10221     10224     10225     10221     10224
     10225     10221     10223     10225     10221     10222     10227     10231     10232
     10228     10227     10230     10228     10227     10229     10229     10227     10230
     10231     10227     10230     10231     10227     10229     10231     10227     10228
     10233     10237     10238     10234     10233     10236     10234     10233     10235
     10235     10233     10236     10237     10233     10236     10237     10233     10235
     10237     10233     10234     10239     10243     10244     10240     10239     10242
     10240     10239     10241     10241     10239     10242     10243     10239     10242
     10243     10239     10241     10243     10239     10240     10245     10249     10250
     10246     10245     10248     10246     10245     10247     10247     10245     10248
     10249     10245     10248     10249     10245     10247     10249     10245     10246
     10251     10255     10256     10252     10251     10254     10252     10251     10253
     10253     10251     10254     10255     10251     10254     10255     10251     10253
     10255     10251     10252     10257     10261     10262     10258     10257     10260
     10258     10257     10259     10259     10257     10260     10261     10257     10260
     10261     10257     10259     10261     10257     10258     10263     10267     10268
     10264     10263     10266     10264     10263     10265     10265     10263     10266
     10267     10263     10266     10267     10263     10265     10267     10263     10264
     10269     10273     10274     10270     10269     10272     10270     10269     10271
     10271     10269     10272     10273     10269     10272     10273     10269     10271
     10273     10269     10270     10275     10279     10280     10276     10275     10278
     10276     10275     10277     10277     10275     10278     10279     10275     10278
     10279     10275     10277     10279     10275     10276     10281     10285     10286
     10282     10281     10284     10282     10281     10283     10283     10281     10284
     10285     10281     10284     10285     10281     10283     10285     10281     10282
     10287     10291     10292     10288     10287     10290     10288     10287     10289
     10289     10287     10290     10291     10287     10290     10291     10287     10289
     10291     10287     10288     10293     10297     10298     10294     10293     10296
     10294     10293     10295     10295     10293     10296     10297     10293     10296
     10297     10293     10295     10297     10293     10294     10299     10303     10304
     10300     10299     10302     10300     10299     10301     10301     10299     10302
     10303     10299     10302     10303     10299     10301     10303     10299     10300
     10305     10309     10310     10306     10305     10308     10306     10305     10307
     10307     10305     10308     10309     10305     10308     10309     10305     10307
     10309     10305     10306     10311     10315     10316     10312     10311     10314
     10312     10311     10313     10313     10311     10314     10315     10311     10314
     10315     10311     10313     10315     10311     10312     10317     10321     10322
     10318     10317     10320     10318     10317     10319     10319     10317     10320
     10321     10317     10320     10321     10317     10319     10321     10317     10318
     10323     10327     10328     10324     10323     10326     10324     10323     10325
     10325     10323     10326     10327     10323     10326     10327     10323     10325
     10327     10323     10324     10329     10333     10334     10330     10329     10332
     10330     10329     10331     10331     10329     10332     10333     10329     10332
     10333     10329     10331     10333     10329     10330     10335     10339     10340
     10336     10335     10338     10336     10335     10337     10337     10335     10338
     10339     10335     10338     10339     10335     10337     10339     10335     10336
     10341     10345     10346     10342     10341     10344     10342     10341     10343
     10343     10341     10344     10345     10341     10344     10345     10341     10343
     10345     10341     10342     10347     10351     10352     10348     10347     10350
     10348     10347     10349     10349     10347     10350     10351     10347     10350
     10351     10347     10349     10351     10347     10348     10353     10357     10358
     10354     10353     10356     10354     10353     10355     10355     10353     10356
     10357     10353     10356     10357     10353     10355     10357     10353     10354
     10359     10363     10364     10360     10359     10362     10360     10359     10361
     10361     10359     10362     10363     10359     10362     10363     10359     10361
     10363     10359     10360     10365     10369     10370     10366     10365     10368
     10366     10365     10367     10367     10365     10368     10369     10365     10368
     10369     10365     10367     10369     10365     10366     10371     10375     10376
     10372     10371     10374     10372     10371     10373     10373     10371     10374
     10375     10371     10374     10375     10371     10373     10375     10371     10372
     10377     10381     10382     10378     10377     10380     10378     10377     10379
     10379     10377     10380     10381     10377     10380     10381     10377     10379
     10381     10377     10378     10383     10387     10388     10384     10383     10386
     10384     10383     10385     10385     10383     10386     10387     10383     10386
     10387     10383     10385     10387     10383     10384     10389     10393     10394
     10390     10389     10392     10390     10389     10391     10391     10389     10392
     10393     10389     10392     10393     10389     10391     10393     10389     10390
     10395     10399     10400     10396     10395     10398     10396     10395     10397
     10397     10395     10398     10399     10395     10398     10399     10395     10397
     10399     10395     10396     10401     10405     10406     10402     10401     10404
     10402     10401     10403     10403     10401     10404     10405     10401     10404
     10405     10401     10403     10405     10401     10402     10407     10411     10412
     10408     10407     10410     10408     10407     10409     10409     10407     10410
     10411     10407     10410     10411     10407     10409     10411     10407     10408
     10413     10417     10418     10414     10413     10416     10414     10413     10415
     10415     10413     10416     10417     10413     10416     10417     10413     10415
     10417     10413     10414     10419     10423     10424     10420     10419     10422
     10420     10419     10421     10421     10419     10422     10423     10419     10422
     10423     10419     10421     10423     10419     10420     10425     10429     10430
     10426     10425     10428     10426     10425     10427     10427     10425     10428
     10429     10425     10428     10429     10425     10427     10429     10425     10426
     10431     10435     10436     10432     10431     10434     10432     10431     10433
     10433     10431     10434     10435     10431     10434     10435     10431     10433
     10435     10431     10432     10437     10441     10442     10438     10437     10440
     10438     10437     10439     10439     10437     10440     10441     10437     10440
     10441     10437     10439     10441     10437     10438     10443     10447     10448
     10444     10443     10446     10444     10443     10445     10445     10443     10446
     10447     10443     10446     10447     10443     10445     10447     10443     10444
     10449     10453     10454     10450     10449     10452     10450     10449     10451
     10451     10449     10452     10453     10449     10452     10453     10449     10451
     10453     10449     10450     10455     10459     10460     10456     10455     10458
     10456     10455     10457     10457     10455     10458     10459     10455     10458
     10459     10455     10457     10459     10455     10456     10461     10465     10466
     10462     10461     10464     10462     10461     10463     10463     10461     10464
     10465     10461     10464     10465     10461     10463     10465     10461     10462
     10467     10471     10472     10468     10467     10470     10468     10467     10469
     10469     10467     10470     10471     10467     10470     10471     10467     10469
     10471     10467     10468     10473     10477     10478     10474     10473     10476
     10474     10473     10475     10475     10473     10476     10477     10473     10476
     10477     10473     10475     10477     10473     10474     10479     10483     10484
     10480     10479     10482     10480     10479     10481     10481     10479     10482
     10483     10479     10482     10483     10479     10481     10483     10479     10480
     10485     10489     10490     10486     10485     10488     10486     10485     10487
     10487     10485     10488     10489     10485     10488     10489     10485     10487
     10489     10485     10486     10491     10495     10496     10492     10491     10494
     10492     10491     10493     10493     10491     10494     10495     10491     10494
     10495     10491     10493     10495     10491     10492     10497     10501     10502
     10498     10497     10500     10498     10497     10499     10499     10497     10500
     10501     10497     10500     10501     10497     10499     10501     10497     10498
     10503     10507     10508     10504     10503     10506     10504     10503     10505
     10505     10503     10506     10507     10503     10506     10507     10503     10505
     10507     10503     10504     10509     10513     10514     10510     10509     10512
     10510     10509     10511     10511     10509     10512     10513     10509     10512
     10513     10509     10511     10513     10509     10510     10515     10519     10520
     10516     10515     10518     10516     10515     10517     10517     10515     10518
     10519     10515     10518     10519     10515     10517     10519     10515     10516
     10521     10525     10526     10522     10521     10524     10522     10521     10523
     10523     10521     10524     10525     10521     10524     10525     10521     10523
     10525     10521     10522     10527     10531     10532     10528     10527     10530
     10528     10527     10529     10529     10527     10530     10531     10527     10530
     10531     10527     10529     10531     10527     10528     10533     10537     10538
     10534     10533     10536     10534     10533     10535     10535     10533     10536
     10537     10533     10536     10537     10533     10535     10537     10533     10534
     10539     10543     10544     10540     10539     10542     10540     10539     10541
     10541     10539     10542     10543     10539     10542     10543     10539     10541
     10543     10539     10540     10545     10549     10550     10546     10545     10548
     10546     10545     10547     10547     10545     10548     10549     10545     10548
     10549     10545     10547     10549     10545     10546     10551     10555     10556
     10552     10551     10554     10552     10551     10553     10553     10551     10554
     10555     10551     10554     10555     10551     10553     10555     10551     10552
     10557     10561     10562     10558     10557     10560     10558     10557     10559
     10559     10557     10560     10561     10557     10560     10561     10557     10559
     10561     10557     10558     10563     10567     10568     10564     10563     10566
     10564     10563     10565     10565     10563     10566     10567     10563     10566
     10567     10563     10565     10567     10563     10564     10569     10573     10574
     10570     10569     10572     10570     10569     10571     10571     10569     10572
     10573     10569     10572     10573     10569     10571     10573     10569     10570
     10575     10579     10580     10576     10575     10578     10576     10575     10577
     10577     10575     10578     10579     10575     10578     10579     10575     10577
     10579     10575     10576     10581     10585     10586     10582     10581     10584
     10582     10581     10583     10583     10581     10584     10585     10581     10584
     10585     10581     10583     10585     10581     10582     10587     10591     10592
     10588     10587     10590     10588     10587     10589     10589     10587     10590
     10591     10587     10590     10591     10587     10589     10591     10587     10588
     10593     10597     10598     10594     10593     10596     10594     10593     10595
     10595     10593     10596     10597     10593     10596     10597     10593     10595
     10597     10593     10594     10599     10603     10604     10600     10599     10602
     10600     10599     10601     10601     10599     10602     10603     10599     10602
     10603     10599     10601     10603     10599     10600     10605     10609     10610
     10606     10605     10608     10606     10605     10607     10607     10605     10608
     10609     10605     10608     10609     10605     10607     10609     10605     10606
     10611     10615     10616     10612     10611     10614     10612     10611     10613
     10613     10611     10614     10615     10611     10614     10615     10611     10613
     10615     10611     10612     10617     10621     10622     10618     10617     10620
     10618     10617     10619     10619     10617     10620     10621     10617     10620
     10621     10617     10619     10621     10617     10618     10623     10627     10628
     10624     10623     10626     10624     10623     10625     10625     10623     10626
     10627     10623     10626     10627     10623     10625     10627     10623     10624
     10629     10633     10634     10630     10629     10632     10630     10629     10631
     10631     10629     10632     10633     10629     10632     10633     10629     10631
     10633     10629     10630     10635     10639     10640     10636     10635     10638
     10636     10635     10637     10637     10635     10638     10639     10635     10638
     10639     10635     10637     10639     10635     10636     10641     10645     10646
     10642     10641     10644     10642     10641     10643     10643     10641     10644
     10645     10641     10644     10645     10641     10643     10645     10641     10642
     10647     10651     10652     10648     10647     10650     10648     10647     10649
     10649     10647     10650     10651     10647     10650     10651     10647     10649
     10651     10647     10648     10653     10657     10658     10654     10653     10656
     10654     10653     10655     10655     10653     10656     10657     10653     10656
     10657     10653     10655     10657     10653     10654     10659     10663     10664
     10660     10659     10662     10660     10659     10661     10661     10659     10662
     10663     10659     10662     10663     10659     10661     10663     10659     10660
     10665     10669     10670     10666     10665     10668     10666     10665     10667
     10667     10665     10668     10669     10665     10668     10669     10665     10667
     10669     10665     10666     10671     10675     10676     10672     10671     10674
     10672     10671     10673     10673     10671     10674     10675     10671     10674
     10675     10671     10673     10675     10671     10672     10677     10681     10682
     10678     10677     10680     10678     10677     10679     10679     10677     10680
     10681     10677     10680     10681     10677     10679     10681     10677     10678
     10683     10687     10688     10684     10683     10686     10684     10683     10685
     10685     10683     10686     10687     10683     10686     10687     10683     10685
     10687     10683     10684     10689     10693     10694     10690     10689     10692
     10690     10689     10691     10691     10689     10692     10693     10689     10692
     10693     10689     10691     10693     10689     10690     10695     10699     10700
     10696     10695     10698     10696     10695     10697     10697     10695     10698
     10699     10695     10698     10699     10695     10697     10699     10695     10696
     10701     10705     10706     10702     10701     10704     10702     10701     10703
     10703     10701     10704     10705     10701     10704     10705     10701     10703
     10705     10701     10702     10707     10711     10712     10708     10707     10710
     10708     10707     10709     10709     10707     10710     10711     10707     10710
     10711     10707     10709     10711     10707     10708     10713     10717     10718
     10714     10713     10716     10714     10713     10715     10715     10713     10716
     10717     10713     10716     10717     10713     10715     10717     10713     10714
     10719     10723     10724     10720     10719     10722     10720     10719     10721
     10721     10719     10722     10723     10719     10722     10723     10719     10721
     10723     10719     10720     10725     10729     10730     10726     10725     10728
     10726     10725     10727     10727     10725     10728     10729     10725     10728
     10729     10725     10727     10729     10725     10726     10731     10735     10736
     10732     10731     10734     10732     10731     10733     10733     10731     10734
     10735     10731     10734     10735     10731     10733     10735     10731     10732
     10737     10741     10742     10738     10737     10740     10738     10737     10739
     10739     10737     10740     10741     10737     10740     10741     10737     10739
     10741     10737     10738     10743     10747     10748     10744     10743     10746
     10744     10743     10745     10745     10743     10746     10747     10743     10746
     10747     10743     10745     10747     10743     10744     10749     10753     10754
     10750     10749     10752     10750     10749     10751     10751     10749     10752
     10753     10749     10752     10753     10749     10751     10753     10749     10750
     10755     10759     10760     10756     10755     10758     10756     10755     10757
     10757     10755     10758     10759     10755     10758     10759     10755     10757
     10759     10755     10756     10761     10765     10766     10762     10761     10764
     10762     10761     10763     10763     10761     10764     10765     10761     10764
     10765     10761     10763     10765     10761     10762     10767     10771     10772
     10768     10767     10770     10768     10767     10769     10769     10767     10770
     10771     10767     10770     10771     10767     10769     10771     10767     10768
     10773     10777     10778     10774     10773     10776     10774     10773     10775
     10775     10773     10776     10777     10773     10776     10777     10773     10775
     10777     10773     10774     10779     10783     10784     10780     10779     10782
     10780     10779     10781     10781     10779     10782     10783     10779     10782
     10783     10779     10781     10783     10779     10780     10785     10789     10790
     10786     10785     10788     10786     10785     10787     10787     10785     10788
     10789     10785     10788     10789     10785     10787     10789     10785     10786
     10791     10795     10796     10792     10791     10794     10792     10791     10793
     10793     10791     10794     10795     10791     10794     10795     10791     10793
     10795     10791     10792     10797     10801     10802     10798     10797     10800
     10798     10797     10799     10799     10797     10800     10801     10797     10800
     10801     10797     10799     10801     10797     10798     10803     10807     10808
     10804     10803     10806     10804     10803     10805     10805     10803     10806
     10807     10803     10806     10807     10803     10805     10807     10803     10804
     10809     10813     10814     10810     10809     10812     10810     10809     10811
     10811     10809     10812     10813     10809     10812     10813     10809     10811
     10813     10809     10810     10815     10819     10820     10816     10815     10818
     10816     10815     10817     10817     10815     10818     10819     10815     10818
     10819     10815     10817     10819     10815     10816     10821     10825     10826
     10822     10821     10824     10822     10821     10823     10823     10821     10824
     10825     10821     10824     10825     10821     10823     10825     10821     10822
     10827     10831     10832     10828     10827     10830     10828     10827     10829
     10829     10827     10830     10831     10827     10830     10831     10827     10829
     10831     10827     10828     10833     10837     10838     10834     10833     10836
     10834     10833     10835     10835     10833     10836     10837     10833     10836
     10837     10833     10835     10837     10833     10834     10839     10843     10844
     10840     10839     10842     10840     10839     10841     10841     10839     10842
     10843     10839     10842     10843     10839     10841     10843     10839     10840
     10845     10849     10850     10846     10845     10848     10846     10845     10847
     10847     10845     10848     10849     10845     10848     10849     10845     10847
     10849     10845     10846     10851     10855     10856     10852     10851     10854
     10852     10851     10853     10853     10851     10854     10855     10851     10854
     10855     10851     10853     10855     10851     10852     10857     10861     10862
     10858     10857     10860     10858     10857     10859     10859     10857     10860
     10861     10857     10860     10861     10857     10859     10861     10857     10858
     10863     10867     10868     10864     10863     10866     10864     10863     10865
     10865     10863     10866     10867     10863     10866     10867     10863     10865
     10867     10863     10864     10869     10873     10874     10870     10869     10872
     10870     10869     10871     10871     10869     10872     10873     10869     10872
     10873     10869     10871     10873     10869     10870     10875     10879     10880
     10876     10875     10878     10876     10875     10877     10877     10875     10878
     10879     10875     10878     10879     10875     10877     10879     10875     10876
     10881     10885     10886     10882     10881     10884     10882     10881     10883
     10883     10881     10884     10885     10881     10884     10885     10881     10883
     10885     10881     10882     10887     10891     10892     10888     10887     10890
     10888     10887     10889     10889     10887     10890     10891     10887     10890
     10891     10887     10889     10891     10887     10888     10893     10897     10898
     10894     10893     10896     10894     10893     10895     10895     10893     10896
     10897     10893     10896     10897     10893     10895     10897     10893     10894
     10899     10903     10904     10900     10899     10902     10900     10899     10901
     10901     10899     10902     10903     10899     10902     10903     10899     10901
     10903     10899     10900     10905     10909     10910     10906     10905     10908
     10906     10905     10907     10907     10905     10908     10909     10905     10908
     10909     10905     10907     10909     10905     10906     10911     10915     10916
     10912     10911     10914     10912     10911     10913     10913     10911     10914
     10915     10911     10914     10915     10911     10913     10915     10911     10912
     10917     10921     10922     10918     10917     10920     10918     10917     10919
     10919     10917     10920     10921     10917     10920     10921     10917     10919
     10921     10917     10918     10923     10927     10928     10924     10923     10926
     10924     10923     10925     10925     10923     10926     10927     10923     10926
     10927     10923     10925     10927     10923     10924     10929     10933     10934
     10930     10929     10932     10930     10929     10931     10931     10929     10932
     10933     10929     10932     10933     10929     10931     10933     10929     10930
     10935     10939     10940     10936     10935     10938     10936     10935     10937
     10937     10935     10938     10939     10935     10938     10939     10935     10937
     10939     10935     10936     10941     10945     10946     10942     10941     10944
     10942     10941     10943     10943     10941     10944     10945     10941     10944
     10945     10941     10943     10945     10941     10942     10947     10951     10952
     10948     10947     10950     10948     10947     10949     10949     10947     10950
     10951     10947     10950     10951     10947     10949     10951     10947     10948
     10953     10957     10958     10954     10953     10956     10954     10953     10955
     10955     10953     10956     10957     10953     10956     10957     10953     10955
     10957     10953     10954     10959     10963     10964     10960     10959     10962
     10960     10959     10961     10961     10959     10962     10963     10959     10962
     10963     10959     10961     10963     10959     10960     10965     10969     10970
     10966     10965     10968     10966     10965     10967     10967     10965     10968
     10969     10965     10968     10969     10965     10967     10969     10965     10966
     10971     10975     10976     10972     10971     10974     10972     10971     10973
     10973     10971     10974     10975     10971     10974     10975     10971     10973
     10975     10971     10972     10977     10981     10982     10978     10977     10980
     10978     10977     10979     10979     10977     10980     10981     10977     10980
     10981     10977     10979     10981     10977     10978     10983     10987     10988
     10984     10983     10986     10984     10983     10985     10985     10983     10986
     10987     10983     10986     10987     10983     10985     10987     10983     10984
     10989     10993     10994     10990     10989     10992     10990     10989     10991
     10991     10989     10992     10993     10989     10992     10993     10989     10991
     10993     10989     10990     10995     10999     11000     10996     10995     10998
     10996     10995     10997     10997     10995     10998     10999     10995     10998
     10999     10995     10997     10999     10995     10996     11001     11005     11006
     11002     11001     11004     11002     11001     11003     11003     11001     11004
     11005     11001     11004     11005     11001     11003     11005     11001     11002
     11007     11011     11012     11008     11007     11010     11008     11007     11009
     11009     11007     11010     11011     11007     11010     11011     11007     11009
     11011     11007     11008     11013     11017     11018     11014     11013     11016
     11014     11013     11015     11015     11013     11016     11017     11013     11016
     11017     11013     11015     11017     11013     11014     11019     11023     11024
     11020     11019     11022     11020     11019     11021     11021     11019     11022
     11023     11019     11022     11023     11019     11021     11023     11019     11020
     11025     11029     11030     11026     11025     11028     11026     11025     11027
     11027     11025     11028     11029     11025     11028     11029     11025     11027
     11029     11025     11026     11031     11035     11036     11032     11031     11034
     11032     11031     11033     11033     11031     11034     11035     11031     11034
     11035     11031     11033     11035     11031     11032     11037     11041     11042
     11038     11037     11040     11038     11037     11039     11039     11037     11040
     11041     11037     11040     11041     11037     11039     11041     11037     11038
     11043     11047     11048     11044     11043     11046     11044     11043     11045
     11045     11043     11046     11047     11043     11046     11047     11043     11045
     11047     11043     11044     11049     11053     11054     11050     11049     11052
     11050     11049     11051     11051     11049     11052     11053     11049     11052
     11053     11049     11051     11053     11049     11050     11055     11059     11060
     11056     11055     11058     11056     11055     11057     11057     11055     11058
     11059     11055     11058     11059     11055     11057     11059     11055     11056
     11061     11065     11066     11062     11061     11064     11062     11061     11063
     11063     11061     11064     11065     11061     11064     11065     11061     11063
     11065     11061     11062     11067     11071     11072     11068     11067     11070
     11068     11067     11069     11069     11067     11070     11071     11067     11070
     11071     11067     11069     11071     11067     11068     11073     11077     11078
     11074     11073     11076     11074     11073     11075     11075     11073     11076
     11077     11073     11076     11077     11073     11075     11077     11073     11074
     11079     11083     11084     11080     11079     11082     11080     11079     11081
     11081     11079     11082     11083     11079     11082     11083     11079     11081
     11083     11079     11080     11085     11089     11090     11086     11085     11088
     11086     11085     11087     11087     11085     11088     11089     11085     11088
     11089     11085     11087     11089     11085     11086     11091     11095     11096
     11092     11091     11094     11092     11091     11093     11093     11091     11094
     11095     11091     11094     11095     11091     11093     11095     11091     11092
     11097     11101     11102     11098     11097     11100     11098     11097     11099
     11099     11097     11100     11101     11097     11100     11101     11097     11099
     11101     11097     11098     11103     11107     11108     11104     11103     11106
     11104     11103     11105     11105     11103     11106     11107     11103     11106
     11107     11103     11105     11107     11103     11104     11109     11113     11114
     11110     11109     11112     11110     11109     11111     11111     11109     11112
     11113     11109     11112     11113     11109     11111     11113     11109     11110
     11115     11119     11120     11116     11115     11118     11116     11115     11117
     11117     11115     11118     11119     11115     11118     11119     11115     11117
     11119     11115     11116     11121     11125     11126     11122     11121     11124
     11122     11121     11123     11123     11121     11124     11125     11121     11124
     11125     11121     11123     11125     11121     11122     11127     11131     11132
     11128     11127     11130     11128     11127     11129     11129     11127     11130
     11131     11127     11130     11131     11127     11129     11131     11127     11128
     11133     11137     11138     11134     11133     11136     11134     11133     11135
     11135     11133     11136     11137     11133     11136     11137     11133     11135
     11137     11133     11134     11139     11143     11144     11140     11139     11142
     11140     11139     11141     11141     11139     11142     11143     11139     11142
     11143     11139     11141     11143     11139     11140     11145     11149     11150
     11146     11145     11148     11146     11145     11147     11147     11145     11148
     11149     11145     11148     11149     11145     11147     11149     11145     11146
     11151     11155     11156     11152     11151     11154     11152     11151     11153
     11153     11151     11154     11155     11151     11154     11155     11151     11153
     11155     11151     11152     11157     11161     11162     11158     11157     11160
     11158     11157     11159     11159     11157     11160     11161     11157     11160
     11161     11157     11159     11161     11157     11158     11163     11167     11168
     11164     11163     11166     11164     11163     11165     11165     11163     11166
     11167     11163     11166     11167     11163     11165     11167     11163     11164
     11169     11173     11174     11170     11169     11172     11170     11169     11171
     11171     11169     11172     11173     11169     11172     11173     11169     11171
     11173     11169     11170     11175     11179     11180     11176     11175     11178
     11176     11175     11177     11177     11175     11178     11179     11175     11178
     11179     11175     11177     11179     11175     11176     11181     11185     11186
     11182     11181     11184     11182     11181     11183     11183     11181     11184
     11185     11181     11184     11185     11181     11183     11185     11181     11182
     11187     11191     11192     11188     11187     11190     11188     11187     11189
     11189     11187     11190     11191     11187     11190     11191     11187     11189
     11191     11187     11188     11193     11197     11198     11194     11193     11196
     11194     11193     11195     11195     11193     11196     11197     11193     11196
     11197     11193     11195     11197     11193     11194     11199     11203     11204
     11200     11199     11202     11200     11199     11201     11201     11199     11202
     11203     11199     11202     11203     11199     11201     11203     11199     11200
     11205     11209     11210     11206     11205     11208     11206     11205     11207
     11207     11205     11208     11209     11205     11208     11209     11205     11207
     11209     11205     11206     11211     11215     11216     11212     11211     11214
     11212     11211     11213     11213     11211     11214     11215     11211     11214
     11215     11211     11213     11215     11211     11212     11217     11221     11222
     11218     11217     11220     11218     11217     11219     11219     11217     11220
     11221     11217     11220     11221     11217     11219     11221     11217     11218
     11223     11227     11228     11224     11223     11226     11224     11223     11225
     11225     11223     11226     11227     11223     11226     11227     11223     11225
     11227     11223     11224     11229     11233     11234     11230     11229     11232
     11230     11229     11231     11231     11229     11232     11233     11229     11232
     11233     11229     11231     11233     11229     11230     11235     11239     11240
     11236     11235     11238     11236     11235     11237     11237     11235     11238
     11239     11235     11238     11239     11235     11237     11239     11235     11236
     11241     11245     11246     11242     11241     11244     11242     11241     11243
     11243     11241     11244     11245     11241     11244     11245     11241     11243
     11245     11241     11242     11247     11251     11252     11248     11247     11250
     11248     11247     11249     11249     11247     11250     11251     11247     11250
     11251     11247     11249     11251     11247     11248     11253     11257     11258
     11254     11253     11256     11254     11253     11255     11255     11253     11256
     11257     11253     11256     11257     11253     11255     11257     11253     11254
     11259     11263     11264     11260     11259     11262     11260     11259     11261
     11261     11259     11262     11263     11259     11262     11263     11259     11261
     11263     11259     11260     11265     11269     11270     11266     11265     11268
     11266     11265     11267     11267     11265     11268     11269     11265     11268
     11269     11265     11267     11269     11265     11266     11271     11275     11276
     11272     11271     11274     11272     11271     11273     11273     11271     11274
     11275     11271     11274     11275     11271     11273     11275     11271     11272
     11277     11281     11282     11278     11277     11280     11278     11277     11279
     11279     11277     11280     11281     11277     11280     11281     11277     11279
     11281     11277     11278     11283     11287     11288     11284     11283     11286
     11284     11283     11285     11285     11283     11286     11287     11283     11286
     11287     11283     11285     11287     11283     11284     11289     11293     11294
     11290     11289     11292     11290     11289     11291     11291     11289     11292
     11293     11289     11292     11293     11289     11291     11293     11289     11290
     11295     11299     11300     11296     11295     11298     11296     11295     11297
     11297     11295     11298     11299     11295     11298     11299     11295     11297
     11299     11295     11296     11301     11305     11306     11302     11301     11304
     11302     11301     11303     11303     11301     11304     11305     11301     11304
     11305     11301     11303     11305     11301     11302     11307     11311     11312
     11308     11307     11310     11308     11307     11309     11309     11307     11310
     11311     11307     11310     11311     11307     11309     11311     11307     11308
     11313     11317     11318     11314     11313     11316     11314     11313     11315
     11315     11313     11316     11317     11313     11316     11317     11313     11315
     11317     11313     11314     11319     11323     11324     11320     11319     11322
     11320     11319     11321     11321     11319     11322     11323     11319     11322
     11323     11319     11321     11323     11319     11320     11325     11329     11330
     11326     11325     11328     11326     11325     11327     11327     11325     11328
     11329     11325     11328     11329     11325     11327     11329     11325     11326
     11331     11335     11336     11332     11331     11334     11332     11331     11333
     11333     11331     11334     11335     11331     11334     11335     11331     11333
     11335     11331     11332     11337     11341     11342     11338     11337     11340
     11338     11337     11339     11339     11337     11340     11341     11337     11340
     11341     11337     11339     11341     11337     11338     11343     11347     11348
     11344     11343     11346     11344     11343     11345     11345     11343     11346
     11347     11343     11346     11347     11343     11345     11347     11343     11344
     11349     11353     11354     11350     11349     11352     11350     11349     11351
     11351     11349     11352     11353     11349     11352     11353     11349     11351
     11353     11349     11350     11355     11359     11360     11356     11355     11358
     11356     11355     11357     11357     11355     11358     11359     11355     11358
     11359     11355     11357     11359     11355     11356     11361     11365     11366
     11362     11361     11364     11362     11361     11363     11363     11361     11364
     11365     11361     11364     11365     11361     11363     11365     11361     11362
     11367     11371     11372     11368     11367     11370     11368     11367     11369
     11369     11367     11370     11371     11367     11370     11371     11367     11369
     11371     11367     11368     11373     11377     11378     11374     11373     11376
     11374     11373     11375     11375     11373     11376     11377     11373     11376
     11377     11373     11375     11377     11373     11374     11379     11383     11384
     11380     11379     11382     11380     11379     11381     11381     11379     11382
     11383     11379     11382     11383     11379     11381     11383     11379     11380
     11385     11389     11390     11386     11385     11388     11386     11385     11387
     11387     11385     11388     11389     11385     11388     11389     11385     11387
     11389     11385     11386     11391     11395     11396     11392     11391     11394
     11392     11391     11393     11393     11391     11394     11395     11391     11394
     11395     11391     11393     11395     11391     11392     11397     11401     11402
     11398     11397     11400     11398     11397     11399     11399     11397     11400
     11401     11397     11400     11401     11397     11399     11401     11397     11398
     11403     11407     11408     11404     11403     11406     11404     11403     11405
     11405     11403     11406     11407     11403     11406     11407     11403     11405
     11407     11403     11404     11409     11413     11414     11410     11409     11412
     11410     11409     11411     11411     11409     11412     11413     11409     11412
     11413     11409     11411     11413     11409     11410     11415     11419     11420
     11416     11415     11418     11416     11415     11417     11417     11415     11418
     11419     11415     11418     11419     11415     11417     11419     11415     11416
     11421     11425     11426     11422     11421     11424     11422     11421     11423
     11423     11421     11424     11425     11421     11424     11425     11421     11423
     11425     11421     11422     11427     11431     11432     11428     11427     11430
     11428     11427     11429     11429     11427     11430     11431     11427     11430
     11431     11427     11429     11431     11427     11428     11433     11437     11438
     11434     11433     11436     11434     11433     11435     11435     11433     11436
     11437     11433     11436     11437     11433     11435     11437     11433     11434
     11439     11443     11444     11440     11439     11442     11440     11439     11441
     11441     11439     11442     11443     11439     11442     11443     11439     11441
     11443     11439     11440     11445     11449     11450     11446     11445     11448
     11446     11445     11447     11447     11445     11448     11449     11445     11448
     11449     11445     11447     11449     11445     11446     11451     11455     11456
     11452     11451     11454     11452     11451     11453     11453     11451     11454
     11455     11451     11454     11455     11451     11453     11455     11451     11452
     11457     11461     11462     11458     11457     11460     11458     11457     11459
     11459     11457     11460     11461     11457     11460     11461     11457     11459
     11461     11457     11458     11463     11467     11468     11464     11463     11466
     11464     11463     11465     11465     11463     11466     11467     11463     11466
     11467     11463     11465     11467     11463     11464     11469     11473     11474
     11470     11469     11472     11470     11469     11471     11471     11469     11472
     11473     11469     11472     11473     11469     11471     11473     11469     11470
     11475     11479     11480     11476     11475     11478     11476     11475     11477
     11477     11475     11478     11479     11475     11478     11479     11475     11477
     11479     11475     11476     11481     11485     11486     11482     11481     11484
     11482     11481     11483     11483     11481     11484     11485     11481     11484
     11485     11481     11483     11485     11481     11482     11487     11491     11492
     11488     11487     11490     11488     11487     11489     11489     11487     11490
     11491     11487     11490     11491     11487     11489     11491     11487     11488
     11493     11497     11498     11494     11493     11496     11494     11493     11495
     11495     11493     11496     11497     11493     11496     11497     11493     11495
     11497     11493     11494     11499     11503     11504     11500     11499     11502
     11500     11499     11501     11501     11499     11502     11503     11499     11502
     11503     11499     11501     11503     11499     11500     11505     11509     11510
     11506     11505     11508     11506     11505     11507     11507     11505     11508
     11509     11505     11508     11509     11505     11507     11509     11505     11506
     11511     11515     11516     11512     11511     11514     11512     11511     11513
     11513     11511     11514     11515     11511     11514     11515     11511     11513
     11515     11511     11512     11517     11521     11522     11518     11517     11520
     11518     11517     11519     11519     11517     11520     11521     11517     11520
     11521     11517     11519     11521     11517     11518     11523     11527     11528
     11524     11523     11526     11524     11523     11525     11525     11523     11526
     11527     11523     11526     11527     11523     11525     11527     11523     11524
     11529     11533     11534     11530     11529     11532     11530     11529     11531
     11531     11529     11532     11533     11529     11532     11533     11529     11531
     11533     11529     11530     11535     11539     11540     11536     11535     11538
     11536     11535     11537     11537     11535     11538     11539     11535     11538
     11539     11535     11537     11539     11535     11536     11541     11545     11546
     11542     11541     11544     11542     11541     11543     11543     11541     11544
     11545     11541     11544     11545     11541     11543     11545     11541     11542
     11547     11551     11552     11548     11547     11550     11548     11547     11549
     11549     11547     11550     11551     11547     11550     11551     11547     11549
     11551     11547     11548     11553     11557     11558     11554     11553     11556
     11554     11553     11555     11555     11553     11556     11557     11553     11556
     11557     11553     11555     11557     11553     11554     11559     11563     11564
     11560     11559     11562     11560     11559     11561     11561     11559     11562
     11563     11559     11562     11563     11559     11561     11563     11559     11560
     11565     11569     11570     11566     11565     11568     11566     11565     11567
     11567     11565     11568     11569     11565     11568     11569     11565     11567
     11569     11565     11566     11571     11575     11576     11572     11571     11574
     11572     11571     11573     11573     11571     11574     11575     11571     11574
     11575     11571     11573     11575     11571     11572     11577     11581     11582
     11578     11577     11580     11578     11577     11579     11579     11577     11580
     11581     11577     11580     11581     11577     11579     11581     11577     11578
     11583     11587     11588     11584     11583     11586     11584     11583     11585
     11585     11583     11586     11587     11583     11586     11587     11583     11585
     11587     11583     11584     11589     11593     11594     11590     11589     11592
     11590     11589     11591     11591     11589     11592     11593     11589     11592
     11593     11589     11591     11593     11589     11590     11595     11599     11600
     11596     11595     11598     11596     11595     11597     11597     11595     11598
     11599     11595     11598     11599     11595     11597     11599     11595     11596
     11601     11605     11606     11602     11601     11604     11602     11601     11603
     11603     11601     11604     11605     11601     11604     11605     11601     11603
     11605     11601     11602     11607     11611     11612     11608     11607     11610
     11608     11607     11609     11609     11607     11610     11611     11607     11610
     11611     11607     11609     11611     11607     11608     11613     11617     11618
     11614     11613     11616     11614     11613     11615     11615     11613     11616
     11617     11613     11616     11617     11613     11615     11617     11613     11614
     11619     11623     11624     11620     11619     11622     11620     11619     11621
     11621     11619     11622     11623     11619     11622     11623     11619     11621
     11623     11619     11620     11625     11629     11630     11626     11625     11628
     11626     11625     11627     11627     11625     11628     11629     11625     11628
     11629     11625     11627     11629     11625     11626     11631     11635     11636
     11632     11631     11634     11632     11631     11633     11633     11631     11634
     11635     11631     11634     11635     11631     11633     11635     11631     11632
     11637     11641     11642     11638     11637     11640     11638     11637     11639
     11639     11637     11640     11641     11637     11640     11641     11637     11639
     11641     11637     11638     11643     11647     11648     11644     11643     11646
     11644     11643     11645     11645     11643     11646     11647     11643     11646
     11647     11643     11645     11647     11643     11644     11649     11653     11654
     11650     11649     11652     11650     11649     11651     11651     11649     11652
     11653     11649     11652     11653     11649     11651     11653     11649     11650
     11655     11659     11660     11656     11655     11658     11656     11655     11657
     11657     11655     11658     11659     11655     11658     11659     11655     11657
     11659     11655     11656     11661     11665     11666     11662     11661     11664
     11662     11661     11663     11663     11661     11664     11665     11661     11664
     11665     11661     11663     11665     11661     11662     11667     11671     11672
     11668     11667     11670     11668     11667     11669     11669     11667     11670
     11671     11667     11670     11671     11667     11669     11671     11667     11668
     11673     11677     11678     11674     11673     11676     11674     11673     11675
     11675     11673     11676     11677     11673     11676     11677     11673     11675
     11677     11673     11674     11679     11683     11684     11680     11679     11682
     11680     11679     11681     11681     11679     11682     11683     11679     11682
     11683     11679     11681     11683     11679     11680     11685     11689     11690
     11686     11685     11688     11686     11685     11687     11687     11685     11688
     11689     11685     11688     11689     11685     11687     11689     11685     11686
     11691     11695     11696     11692     11691     11694     11692     11691     11693
     11693     11691     11694     11695     11691     11694     11695     11691     11693
     11695     11691     11692     11697     11701     11702     11698     11697     11700
     11698     11697     11699     11699     11697     11700     11701     11697     11700
     11701     11697     11699     11701     11697     11698     11703     11707     11708
     11704     11703     11706     11704     11703     11705     11705     11703     11706
     11707     11703     11706     11707     11703     11705     11707     11703     11704
     11709     11713     11714     11710     11709     11712     11710     11709     11711
     11711     11709     11712     11713     11709     11712     11713     11709     11711
     11713     11709     11710     11715     11719     11720     11716     11715     11718
     11716     11715     11717     11717     11715     11718     11719     11715     11718
     11719     11715     11717     11719     11715     11716     11721     11725     11726
     11722     11721     11724     11722     11721     11723     11723     11721     11724
     11725     11721     11724     11725     11721     11723     11725     11721     11722
     11727     11731     11732     11728     11727     11730     11728     11727     11729
     11729     11727     11730     11731     11727     11730     11731     11727     11729
     11731     11727     11728     11733     11737     11738     11734     11733     11736
     11734     11733     11735     11735     11733     11736     11737     11733     11736
     11737     11733     11735     11737     11733     11734     11739     11743     11744
     11740     11739     11742     11740     11739     11741     11741     11739     11742
     11743     11739     11742     11743     11739     11741     11743     11739     11740
     11745     11749     11750     11746     11745     11748     11746     11745     11747
     11747     11745     11748     11749     11745     11748     11749     11745     11747
     11749     11745     11746     11751     11755     11756     11752     11751     11754
     11752     11751     11753     11753     11751     11754     11755     11751     11754
     11755     11751     11753     11755     11751     11752     11757     11761     11762
     11758     11757     11760     11758     11757     11759     11759     11757     11760
     11761     11757     11760     11761     11757     11759     11761     11757     11758
     11763     11767     11768     11764     11763     11766     11764     11763     11765
     11765     11763     11766     11767     11763     11766     11767     11763     11765
     11767     11763     11764     11769     11773     11774     11770     11769     11772
     11770     11769     11771     11771     11769     11772     11773     11769     11772
     11773     11769     11771     11773     11769     11770     11775     11779     11780
     11776     11775     11778     11776     11775     11777     11777     11775     11778
     11779     11775     11778     11779     11775     11777     11779     11775     11776
     11781     11785     11786     11782     11781     11784     11782     11781     11783
     11783     11781     11784     11785     11781     11784     11785     11781     11783
     11785     11781     11782     11787     11791     11792     11788     11787     11790
     11788     11787     11789     11789     11787     11790     11791     11787     11790
     11791     11787     11789     11791     11787     11788     11793     11797     11798
     11794     11793     11796     11794     11793     11795     11795     11793     11796
     11797     11793     11796     11797     11793     11795     11797     11793     11794
     11799     11803     11804     11800     11799     11802     11800     11799     11801
     11801     11799     11802     11803     11799     11802     11803     11799     11801
     11803     11799     11800     11805     11809     11810     11806     11805     11808
     11806     11805     11807     11807     11805     11808     11809     11805     11808
     11809     11805     11807     11809     11805     11806     11811     11815     11816
     11812     11811     11814     11812     11811     11813     11813     11811     11814
     11815     11811     11814     11815     11811     11813     11815     11811     11812
     11817     11821     11822     11818     11817     11820     11818     11817     11819
     11819     11817     11820     11821     11817     11820     11821     11817     11819
     11821     11817     11818     11823     11827     11828     11824     11823     11826
     11824     11823     11825     11825     11823     11826     11827     11823     11826
     11827     11823     11825     11827     11823     11824     11829     11833     11834
     11830     11829     11832     11830     11829     11831     11831     11829     11832
     11833     11829     11832     11833     11829     11831     11833     11829     11830
     11835     11839     11840     11836     11835     11838     11836     11835     11837
     11837     11835     11838     11839     11835     11838     11839     11835     11837
     11839     11835     11836     11841     11845     11846     11842     11841     11844
     11842     11841     11843     11843     11841     11844     11845     11841     11844
     11845     11841     11843     11845     11841     11842     11847     11851     11852
     11848     11847     11850     11848     11847     11849     11849     11847     11850
     11851     11847     11850     11851     11847     11849     11851     11847     11848
     11853     11857     11858     11854     11853     11856     11854     11853     11855
     11855     11853     11856     11857     11853     11856     11857     11853     11855
     11857     11853     11854     11859     11863     11864     11860     11859     11862
     11860     11859     11861     11861     11859     11862     11863     11859     11862
     11863     11859     11861     11863     11859     11860     11865     11869     11870
     11866     11865     11868     11866     11865     11867     11867     11865     11868
     11869     11865     11868     11869     11865     11867     11869     11865     11866
     11871     11875     11876     11872     11871     11874     11872     11871     11873
     11873     11871     11874     11875     11871     11874     11875     11871     11873
     11875     11871     11872     11877     11881     11882     11878     11877     11880
     11878     11877     11879     11879     11877     11880     11881     11877     11880
     11881     11877     11879     11881     11877     11878     11883     11887     11888
     11884     11883     11886     11884     11883     11885     11885     11883     11886
     11887     11883     11886     11887     11883     11885     11887     11883     11884
     11889     11893     11894     11890     11889     11892     11890     11889     11891
     11891     11889     11892     11893     11889     11892     11893     11889     11891
     11893     11889     11890     11895     11899     11900     11896     11895     11898
     11896     11895     11897     11897     11895     11898     11899     11895     11898
     11899     11895     11897     11899     11895     11896     11901     11905     11906
     11902     11901     11904     11902     11901     11903     11903     11901     11904
     11905     11901     11904     11905     11901     11903     11905     11901     11902
     11907     11911     11912     11908     11907     11910     11908     11907     11909
     11909     11907     11910     11911     11907     11910     11911     11907     11909
     11911     11907     11908     11913     11917     11918     11914     11913     11916
     11914     11913     11915     11915     11913     11916     11917     11913     11916
     11917     11913     11915     11917     11913     11914     11919     11923     11924
     11920     11919     11922     11920     11919     11921     11921     11919     11922
     11923     11919     11922     11923     11919     11921     11923     11919     11920
     11925     11929     11930     11926     11925     11928     11926     11925     11927
     11927     11925     11928     11929     11925     11928     11929     11925     11927
     11929     11925     11926     11931     11935     11936     11932     11931     11934
     11932     11931     11933     11933     11931     11934     11935     11931     11934
     11935     11931     11933     11935     11931     11932     11937     11941     11942
     11938     11937     11940     11938     11937     11939     11939     11937     11940
     11941     11937     11940     11941     11937     11939     11941     11937     11938
     11943     11947     11948     11944     11943     11946     11944     11943     11945
     11945     11943     11946     11947     11943     11946     11947     11943     11945
     11947     11943     11944     11949     11953     11954     11950     11949     11952
     11950     11949     11951     11951     11949     11952     11953     11949     11952
     11953     11949     11951     11953     11949     11950     11955     11959     11960
     11956     11955     11958     11956     11955     11957     11957     11955     11958
     11959     11955     11958     11959     11955     11957     11959     11955     11956
     11961     11965     11966     11962     11961     11964     11962     11961     11963
     11963     11961     11964     11965     11961     11964     11965     11961     11963
     11965     11961     11962     11967     11971     11972     11968     11967     11970
     11968     11967     11969     11969     11967     11970     11971     11967     11970
     11971     11967     11969     11971     11967     11968     11973     11977     11978
     11974     11973     11976     11974     11973     11975     11975     11973     11976
     11977     11973     11976     11977     11973     11975     11977     11973     11974
     11979     11983     11984     11980     11979     11982     11980     11979     11981
     11981     11979     11982     11983     11979     11982     11983     11979     11981
     11983     11979     11980     11985     11989     11990     11986     11985     11988
     11986     11985     11987     11987     11985     11988     11989     11985     11988
     11989     11985     11987     11989     11985     11986     11991     11995     11996
     11992     11991     11994     11992     11991     11993     11993     11991     11994
     11995     11991     11994     11995     11991     11993     11995     11991     11992
     11997     12001     12002     11998     11997     12000     11998     11997     11999
     11999     11997     12000     12001     11997     12000     12001     11997     11999
     12001     11997     11998     12003     12007     12008     12004     12003     12006
     12004     12003     12005     12005     12003     12006     12007     12003     12006
     12007     12003     12005     12007     12003     12004     12009     12013     12014
     12010     12009     12012     12010     12009     12011     12011     12009     12012
     12013     12009     12012     12013     12009     12011     12013     12009     12010
     12015     12019     12020     12016     12015     12018     12016     12015     12017
     12017     12015     12018     12019     12015     12018     12019     12015     12017
     12019     12015     12016     12021     12025     12026     12022     12021     12024
     12022     12021     12023     12023     12021     12024     12025     12021     12024
     12025     12021     12023     12025     12021     12022     12027     12031     12032
     12028     12027     12030     12028     12027     12029     12029     12027     12030
     12031     12027     12030     12031     12027     12029     12031     12027     12028
     12033     12037     12038     12034     12033     12036     12034     12033     12035
     12035     12033     12036     12037     12033     12036     12037     12033     12035
     12037     12033     12034     12039     12043     12044     12040     12039     12042
     12040     12039     12041     12041     12039     12042     12043     12039     12042
     12043     12039     12041     12043     12039     12040     12045     12049     12050
     12046     12045     12048     12046     12045     12047     12047     12045     12048
     12049     12045     12048     12049     12045     12047     12049     12045     12046
     12051     12055     12056     12052     12051     12054     12052     12051     12053
     12053     12051     12054     12055     12051     12054     12055     12051     12053
     12055     12051     12052     12057     12061     12062     12058     12057     12060
     12058     12057     12059     12059     12057     12060     12061     12057     12060
     12061     12057     12059     12061     12057     12058     12063     12067     12068
     12064     12063     12066     12064     12063     12065     12065     12063     12066
     12067     12063     12066     12067     12063     12065     12067     12063     12064
     12069     12073     12074     12070     12069     12072     12070     12069     12071
     12071     12069     12072     12073     12069     12072     12073     12069     12071
     12073     12069     12070     12075     12079     12080     12076     12075     12078
     12076     12075     12077     12077     12075     12078     12079     12075     12078
     12079     12075     12077     12079     12075     12076     12081     12085     12086
     12082     12081     12084     12082     12081     12083     12083     12081     12084
     12085     12081     12084     12085     12081     12083     12085     12081     12082
     12087     12091     12092     12088     12087     12090     12088     12087     12089
     12089     12087     12090     12091     12087     12090     12091     12087     12089
     12091     12087     12088     12093     12097     12098     12094     12093     12096
     12094     12093     12095     12095     12093     12096     12097     12093     12096
     12097     12093     12095     12097     12093     12094     12099     12103     12104
     12100     12099     12102     12100     12099     12101     12101     12099     12102
     12103     12099     12102     12103     12099     12101     12103     12099     12100
     12105     12109     12110     12106     12105     12108     12106     12105     12107
     12107     12105     12108     12109     12105     12108     12109     12105     12107
     12109     12105     12106     12111     12115     12116     12112     12111     12114
     12112     12111     12113     12113     12111     12114     12115     12111     12114
     12115     12111     12113     12115     12111     12112     12117     12121     12122
     12118     12117     12120     12118     12117     12119     12119     12117     12120
     12121     12117     12120     12121     12117     12119     12121     12117     12118
     12123     12127     12128     12124     12123     12126     12124     12123     12125
     12125     12123     12126     12127     12123     12126     12127     12123     12125
     12127     12123     12124     12129     12133     12134     12130     12129     12132
     12130     12129     12131     12131     12129     12132     12133     12129     12132
     12133     12129     12131     12133     12129     12130     12135     12139     12140
     12136     12135     12138     12136     12135     12137     12137     12135     12138
     12139     12135     12138     12139     12135     12137     12139     12135     12136
     12141     12145     12146     12142     12141     12144     12142     12141     12143
     12143     12141     12144     12145     12141     12144     12145     12141     12143
     12145     12141     12142     12147     12151     12152     12148     12147     12150
     12148     12147     12149     12149     12147     12150     12151     12147     12150
     12151     12147     12149     12151     12147     12148     12153     12157     12158
     12154     12153     12156     12154     12153     12155     12155     12153     12156
     12157     12153     12156     12157     12153     12155     12157     12153     12154
     12159     12163     12164     12160     12159     12162     12160     12159     12161
     12161     12159     12162     12163     12159     12162     12163     12159     12161
     12163     12159     12160     12165     12169     12170     12166     12165     12168
     12166     12165     12167     12167     12165     12168     12169     12165     12168
     12169     12165     12167     12169     12165     12166     12171     12175     12176
     12172     12171     12174     12172     12171     12173     12173     12171     12174
     12175     12171     12174     12175     12171     12173     12175     12171     12172
     12177     12181     12182     12178     12177     12180     12178     12177     12179
     12179     12177     12180     12181     12177     12180     12181     12177     12179
     12181     12177     12178     12183     12187     12188     12184     12183     12186
     12184     12183     12185     12185     12183     12186     12187     12183     12186
     12187     12183     12185     12187     12183     12184     12189     12193     12194
     12190     12189     12192     12190     12189     12191     12191     12189     12192
     12193     12189     12192     12193     12189     12191     12193     12189     12190
     12195     12199     12200     12196     12195     12198     12196     12195     12197
     12197     12195     12198     12199     12195     12198     12199     12195     12197
     12199     12195     12196     12201     12205     12206     12202     12201     12204
     12202     12201     12203     12203     12201     12204     12205     12201     12204
     12205     12201     12203     12205     12201     12202     12207     12211     12212
     12208     12207     12210     12208     12207     12209     12209     12207     12210
     12211     12207     12210     12211     12207     12209     12211     12207     12208
     12213     12217     12218     12214     12213     12216     12214     12213     12215
     12215     12213     12216     12217     12213     12216     12217     12213     12215
     12217     12213     12214     12219     12223     12224     12220     12219     12222
     12220     12219     12221     12221     12219     12222     12223     12219     12222
     12223     12219     12221     12223     12219     12220     12225     12229     12230
     12226     12225     12228     12226     12225     12227     12227     12225     12228
     12229     12225     12228     12229     12225     12227     12229     12225     12226
     12231     12235     12236     12232     12231     12234     12232     12231     12233
     12233     12231     12234     12235     12231     12234     12235     12231     12233
     12235     12231     12232     12237     12241     12242     12238     12237     12240
     12238     12237     12239     12239     12237     12240     12241     12237     12240
     12241     12237     12239     12241     12237     12238     12243     12247     12248
     12244     12243     12246     12244     12243     12245     12245     12243     12246
     12247     12243     12246     12247     12243     12245     12247     12243     12244
     12249     12253     12254     12250     12249     12252     12250     12249     12251
     12251     12249     12252     12253     12249     12252     12253     12249     12251
     12253     12249     12250     12255     12259     12260     12256     12255     12258
     12256     12255     12257     12257     12255     12258     12259     12255     12258
     12259     12255     12257     12259     12255     12256     12261     12265     12266
     12262     12261     12264     12262     12261     12263     12263     12261     12264
     12265     12261     12264     12265     12261     12263     12265     12261     12262
     12267     12271     12272     12268     12267     12270     12268     12267     12269
     12269     12267     12270     12271     12267     12270     12271     12267     12269
     12271     12267     12268     12273     12277     12278     12274     12273     12276
     12274     12273     12275     12275     12273     12276     12277     12273     12276
     12277     12273     12275     12277     12273     12274     12279     12283     12284
     12280     12279     12282     12280     12279     12281     12281     12279     12282
     12283     12279     12282     12283     12279     12281     12283     12279     12280
     12285     12289     12290     12286     12285     12288     12286     12285     12287
     12287     12285     12288     12289     12285     12288     12289     12285     12287
     12289     12285     12286     12291     12295     12296     12292     12291     12294
     12292     12291     12293     12293     12291     12294     12295     12291     12294
     12295     12291     12293     12295     12291     12292     12297     12301     12302
     12298     12297     12300     12298     12297     12299     12299     12297     12300
     12301     12297     12300     12301     12297     12299     12301     12297     12298
     12303     12307     12308     12304     12303     12306     12304     12303     12305
     12305     12303     12306     12307     12303     12306     12307     12303     12305
     12307     12303     12304     12309     12313     12314     12310     12309     12312
     12310     12309     12311     12311     12309     12312     12313     12309     12312
     12313     12309     12311     12313     12309     12310     12315     12319     12320
     12316     12315     12318     12316     12315     12317     12317     12315     12318
     12319     12315     12318     12319     12315     12317     12319     12315     12316
     12321     12325     12326     12322     12321     12324     12322     12321     12323
     12323     12321     12324     12325     12321     12324     12325     12321     12323
     12325     12321     12322     12327     12331     12332     12328     12327     12330
     12328     12327     12329     12329     12327     12330     12331     12327     12330
     12331     12327     12329     12331     12327     12328     12333     12337     12338
     12334     12333     12336     12334     12333     12335     12335     12333     12336
     12337     12333     12336     12337     12333     12335     12337     12333     12334
     12339     12343     12344     12340     12339     12342     12340     12339     12341
     12341     12339     12342     12343     12339     12342     12343     12339     12341
     12343     12339     12340     12345     12349     12350     12346     12345     12348
     12346     12345     12347     12347     12345     12348     12349     12345     12348
     12349     12345     12347     12349     12345     12346     12351     12355     12356
     12352     12351     12354     12352     12351     12353     12353     12351     12354
     12355     12351     12354     12355     12351     12353     12355     12351     12352
     12357     12361     12362     12358     12357     12360     12358     12357     12359
     12359     12357     12360     12361     12357     12360     12361     12357     12359
     12361     12357     12358     12363     12367     12368     12364     12363     12366
     12364     12363     12365     12365     12363     12366     12367     12363     12366
     12367     12363     12365     12367     12363     12364     12369     12373     12374
     12370     12369     12372     12370     12369     12371     12371     12369     12372
     12373     12369     12372     12373     12369     12371     12373     12369     12370
     12375     12379     12380     12376     12375     12378     12376     12375     12377
     12377     12375     12378     12379     12375     12378     12379     12375     12377
     12379     12375     12376     12381     12385     12386     12382     12381     12384
     12382     12381     12383     12383     12381     12384     12385     12381     12384
     12385     12381     12383     12385     12381     12382     12387     12391     12392
     12388     12387     12390     12388     12387     12389     12389     12387     12390
     12391     12387     12390     12391     12387     12389     12391     12387     12388
     12393     12397     12398     12394     12393     12396     12394     12393     12395
     12395     12393     12396     12397     12393     12396     12397     12393     12395
     12397     12393     12394     12399     12403     12404     12400     12399     12402
     12400     12399     12401     12401     12399     12402     12403     12399     12402
     12403     12399     12401     12403     12399     12400     12405     12409     12410
     12406     12405     12408     12406     12405     12407     12407     12405     12408
     12409     12405     12408     12409     12405     12407     12409     12405     12406
     12411     12415     12416     12412     12411     12414     12412     12411     12413
     12413     12411     12414     12415     12411     12414     12415     12411     12413
     12415     12411     12412     12417     12421     12422     12418     12417     12420
     12418     12417     12419     12419     12417     12420     12421     12417     12420
     12421     12417     12419     12421     12417     12418     12423     12427     12428
     12424     12423     12426     12424     12423     12425     12425     12423     12426
     12427     12423     12426     12427     12423     12425     12427     12423     12424
     12429     12433     12434     12430     12429     12432     12430     12429     12431
     12431     12429     12432     12433     12429     12432     12433     12429     12431
     12433     12429     12430     12435     12439     12440     12436     12435     12438
     12436     12435     12437     12437     12435     12438     12439     12435     12438
     12439     12435     12437     12439     12435     12436     12441     12445     12446
     12442     12441     12444     12442     12441     12443     12443     12441     12444
     12445     12441     12444     12445     12441     12443     12445     12441     12442
     12447     12451     12452     12448     12447     12450     12448     12447     12449
     12449     12447     12450     12451     12447     12450     12451     12447     12449
     12451     12447     12448     12453     12457     12458     12454     12453     12456
     12454     12453     12455     12455     12453     12456     12457     12453     12456
     12457     12453     12455     12457     12453     12454     12459     12463     12464
     12460     12459     12462     12460     12459     12461     12461     12459     12462
     12463     12459     12462     12463     12459     12461     12463     12459     12460
     12465     12469     12470     12466     12465     12468     12466     12465     12467
     12467     12465     12468     12469     12465     12468     12469     12465     12467
     12469     12465     12466     12471     12475     12476     12472     12471     12474
     12472     12471     12473     12473     12471     12474     12475     12471     12474
     12475     12471     12473     12475     12471     12472     12477     12481     12482
     12478     12477     12480     12478     12477     12479     12479     12477     12480
     12481     12477     12480     12481     12477     12479     12481     12477     12478
     12483     12487     12488     12484     12483     12486     12484     12483     12485
     12485     12483     12486     12487     12483     12486     12487     12483     12485
     12487     12483     12484     12489     12493     12494     12490     12489     12492
     12490     12489     12491     12491     12489     12492     12493     12489     12492
     12493     12489     12491     12493     12489     12490     12495     12499     12500
     12496     12495     12498     12496     12495     12497     12497     12495     12498
     12499     12495     12498     12499     12495     12497     12499     12495     12496
     12501     12505     12506     12502     12501     12504     12502     12501     12503
     12503     12501     12504     12505     12501     12504     12505     12501     12503
     12505     12501     12502     12507     12511     12512     12508     12507     12510
     12508     12507     12509     12509     12507     12510     12511     12507     12510
     12511     12507     12509     12511     12507     12508     12513     12517     12518
     12514     12513     12516     12514     12513     12515     12515     12513     12516
     12517     12513     12516     12517     12513     12515     12517     12513     12514
     12519     12523     12524     12520     12519     12522     12520     12519     12521
     12521     12519     12522     12523     12519     12522     12523     12519     12521
     12523     12519     12520     12525     12529     12530     12526     12525     12528
     12526     12525     12527     12527     12525     12528     12529     12525     12528
     12529     12525     12527     12529     12525     12526     12531     12535     12536
     12532     12531     12534     12532     12531     12533     12533     12531     12534
     12535     12531     12534     12535     12531     12533     12535     12531     12532
     12537     12541     12542     12538     12537     12540     12538     12537     12539
     12539     12537     12540     12541     12537     12540     12541     12537     12539
     12541     12537     12538     12543     12547     12548     12544     12543     12546
     12544     12543     12545     12545     12543     12546     12547     12543     12546
     12547     12543     12545     12547     12543     12544     12549     12553     12554
     12550     12549     12552     12550     12549     12551     12551     12549     12552
     12553     12549     12552     12553     12549     12551     12553     12549     12550
     12555     12559     12560     12556     12555     12558     12556     12555     12557
     12557     12555     12558     12559     12555     12558     12559     12555     12557
     12559     12555     12556     12561     12565     12566     12562     12561     12564
     12562     12561     12563     12563     12561     12564     12565     12561     12564
     12565     12561     12563     12565     12561     12562     12567     12571     12572
     12568     12567     12570     12568     12567     12569     12569     12567     12570
     12571     12567     12570     12571     12567     12569     12571     12567     12568
     12573     12577     12578     12574     12573     12576     12574     12573     12575
     12575     12573     12576     12577     12573     12576     12577     12573     12575
     12577     12573     12574     12579     12583     12584     12580     12579     12582
     12580     12579     12581     12581     12579     12582     12583     12579     12582
     12583     12579     12581     12583     12579     12580     12585     12589     12590
     12586     12585     12588     12586     12585     12587     12587     12585     12588
     12589     12585     12588     12589     12585     12587     12589     12585     12586
     12591     12595     12596     12592     12591     12594     12592     12591     12593
     12593     12591     12594     12595     12591     12594     12595     12591     12593
     12595     12591     12592     12597     12601     12602     12598     12597     12600
     12598     12597     12599     12599     12597     12600     12601     12597     12600
     12601     12597     12599     12601     12597     12598     12603     12607     12608
     12604     12603     12606     12604     12603     12605     12605     12603     12606
     12607     12603     12606     12607     12603     12605     12607     12603     12604
     12609     12613     12614     12610     12609     12612     12610     12609     12611
     12611     12609     12612     12613     12609     12612     12613     12609     12611
     12613     12609     12610     12615     12619     12620     12616     12615     12618
     12616     12615     12617     12617     12615     12618     12619     12615     12618
     12619     12615     12617     12619     12615     12616     12621     12625     12626
     12622     12621     12624     12622     12621     12623     12623     12621     12624
     12625     12621     12624     12625     12621     12623     12625     12621     12622
     12627     12631     12632     12628     12627     12630     12628     12627     12629
     12629     12627     12630     12631     12627     12630     12631     12627     12629
     12631     12627     12628     12633     12637     12638     12634     12633     12636
     12634     12633     12635     12635     12633     12636     12637     12633     12636
     12637     12633     12635     12637     12633     12634     12639     12643     12644
     12640     12639     12642     12640     12639     12641     12641     12639     12642
     12643     12639     12642     12643     12639     12641     12643     12639     12640
     12645     12649     12650     12646     12645     12648     12646     12645     12647
     12647     12645     12648     12649     12645     12648     12649     12645     12647
     12649     12645     12646     12651     12655     12656     12652     12651     12654
     12652     12651     12653     12653     12651     12654     12655     12651     12654
     12655     12651     12653     12655     12651     12652     12657     12661     12662
     12658     12657     12660     12658     12657     12659     12659     12657     12660
     12661     12657     12660     12661     12657     12659     12661     12657     12658
     12663     12667     12668     12664     12663     12666     12664     12663     12665
     12665     12663     12666     12667     12663     12666     12667     12663     12665
     12667     12663     12664     12669     12673     12674     12670     12669     12672
     12670     12669     12671     12671     12669     12672     12673     12669     12672
     12673     12669     12671     12673     12669     12670     12675     12679     12680
     12676     12675     12678     12676     12675     12677     12677     12675     12678
     12679     12675     12678     12679     12675     12677     12679     12675     12676
     12681     12685     12686     12682     12681     12684     12682     12681     12683
     12683     12681     12684     12685     12681     12684     12685     12681     12683
     12685     12681     12682     12687     12691     12692     12688     12687     12690
     12688     12687     12689     12689     12687     12690     12691     12687     12690
     12691     12687     12689     12691     12687     12688     12693     12697     12698
     12694     12693     12696     12694     12693     12695     12695     12693     12696
     12697     12693     12696     12697     12693     12695     12697     12693     12694
     12699     12703     12704     12700     12699     12702     12700     12699     12701
     12701     12699     12702     12703     12699     12702     12703     12699     12701
     12703     12699     12700     12705     12709     12710     12706     12705     12708
     12706     12705     12707     12707     12705     12708     12709     12705     12708
     12709     12705     12707     12709     12705     12706     12711     12715     12716
     12712     12711     12714     12712     12711     12713     12713     12711     12714
     12715     12711     12714     12715     12711     12713     12715     12711     12712
     12717     12721     12722     12718     12717     12720     12718     12717     12719
     12719     12717     12720     12721     12717     12720     12721     12717     12719
     12721     12717     12718     12723     12727     12728     12724     12723     12726
     12724     12723     12725     12725     12723     12726     12727     12723     12726
     12727     12723     12725     12727     12723     12724     12729     12733     12734
     12730     12729     12732     12730     12729     12731     12731     12729     12732
     12733     12729     12732     12733     12729     12731     12733     12729     12730
     12735     12739     12740     12736     12735     12738     12736     12735     12737
     12737     12735     12738     12739     12735     12738     12739     12735     12737
     12739     12735     12736     12741     12745     12746     12742     12741     12744
     12742     12741     12743     12743     12741     12744     12745     12741     12744
     12745     12741     12743     12745     12741     12742     12747     12751     12752
     12748     12747     12750     12748     12747     12749     12749     12747     12750
     12751     12747     12750     12751     12747     12749     12751     12747     12748
     12753     12757     12758     12754     12753     12756     12754     12753     12755
     12755     12753     12756     12757     12753     12756     12757     12753     12755
     12757     12753     12754     12759     12763     12764     12760     12759     12762
     12760     12759     12761     12761     12759     12762     12763     12759     12762
     12763     12759     12761     12763     12759     12760     12765     12769     12770
     12766     12765     12768     12766     12765     12767     12767     12765     12768
     12769     12765     12768     12769     12765     12767     12769     12765     12766
     12771     12775     12776     12772     12771     12774     12772     12771     12773
     12773     12771     12774     12775     12771     12774     12775     12771     12773
     12775     12771     12772     12777     12781     12782     12778     12777     12780
     12778     12777     12779     12779     12777     12780     12781     12777     12780
     12781     12777     12779     12781     12777     12778     12783     12787     12788
     12784     12783     12786     12784     12783     12785     12785     12783     12786
     12787     12783     12786     12787     12783     12785     12787     12783     12784
     12789     12793     12794     12790     12789     12792     12790     12789     12791
     12791     12789     12792     12793     12789     12792     12793     12789     12791
     12793     12789     12790     12795     12799     12800     12796     12795     12798
     12796     12795     12797     12797     12795     12798     12799     12795     12798
     12799     12795     12797     12799     12795     12796     12801     12805     12806
     12802     12801     12804     12802     12801     12803     12803     12801     12804
     12805     12801     12804     12805     12801     12803     12805     12801     12802
     12807     12811     12812     12808     12807     12810     12808     12807     12809
     12809     12807     12810     12811     12807     12810     12811     12807     12809
     12811     12807     12808     12813     12817     12818     12814     12813     12816
     12814     12813     12815     12815     12813     12816     12817     12813     12816
     12817     12813     12815     12817     12813     12814     12819     12823     12824
     12820     12819     12822     12820     12819     12821     12821     12819     12822
     12823     12819     12822     12823     12819     12821     12823     12819     12820
     12825     12829     12830     12826     12825     12828     12826     12825     12827
     12827     12825     12828     12829     12825     12828     12829     12825     12827
     12829     12825     12826     12831     12835     12836     12832     12831     12834
     12832     12831     12833     12833     12831     12834     12835     12831     12834
     12835     12831     12833     12835     12831     12832     12837     12841     12842
     12838     12837     12840     12838     12837     12839     12839     12837     12840
     12841     12837     12840     12841     12837     12839     12841     12837     12838
     12843     12847     12848     12844     12843     12846     12844     12843     12845
     12845     12843     12846     12847     12843     12846     12847     12843     12845
     12847     12843     12844     12849     12853     12854     12850     12849     12852
     12850     12849     12851     12851     12849     12852     12853     12849     12852
     12853     12849     12851     12853     12849     12850     12855     12859     12860
     12856     12855     12858     12856     12855     12857     12857     12855     12858
     12859     12855     12858     12859     12855     12857     12859     12855     12856
     12861     12865     12866     12862     12861     12864     12862     12861     12863
     12863     12861     12864     12865     12861     12864     12865     12861     12863
     12865     12861     12862     12867     12871     12872     12868     12867     12870
     12868     12867     12869     12869     12867     12870     12871     12867     12870
     12871     12867     12869     12871     12867     12868     12873     12877     12878
     12874     12873     12876     12874     12873     12875     12875     12873     12876
     12877     12873     12876     12877     12873     12875     12877     12873     12874
     12879     12883     12884     12880     12879     12882     12880     12879     12881
     12881     12879     12882     12883     12879     12882     12883     12879     12881
     12883     12879     12880     12885     12889     12890     12886     12885     12888
     12886     12885     12887     12887     12885     12888     12889     12885     12888
     12889     12885     12887     12889     12885     12886     12891     12895     12896
     12892     12891     12894     12892     12891     12893     12893     12891     12894
     12895     12891     12894     12895     12891     12893     12895     12891     12892
     12897     12901     12902     12898     12897     12900     12898     12897     12899
     12899     12897     12900     12901     12897     12900     12901     12897     12899
     12901     12897     12898     12903     12907     12908     12904     12903     12906
     12904     12903     12905     12905     12903     12906     12907     12903     12906
     12907     12903     12905     12907     12903     12904     12909     12913     12914
     12910     12909     12912     12910     12909     12911     12911     12909     12912
     12913     12909     12912     12913     12909     12911     12913     12909     12910
     12915     12919     12920     12916     12915     12918     12916     12915     12917
     12917     12915     12918     12919     12915     12918     12919     12915     12917
     12919     12915     12916     12921     12925     12926     12922     12921     12924
     12922     12921     12923     12923     12921     12924     12925     12921     12924
     12925     12921     12923     12925     12921     12922     12927     12931     12932
     12928     12927     12930     12928     12927     12929     12929     12927     12930
     12931     12927     12930     12931     12927     12929     12931     12927     12928
     12933     12937     12938     12934     12933     12936     12934     12933     12935
     12935     12933     12936     12937     12933     12936     12937     12933     12935
     12937     12933     12934     12939     12943     12944     12940     12939     12942
     12940     12939     12941     12941     12939     12942     12943     12939     12942
     12943     12939     12941     12943     12939     12940     12945     12949     12950
     12946     12945     12948     12946     12945     12947     12947     12945     12948
     12949     12945     12948     12949     12945     12947     12949     12945     12946
     12951     12955     12956     12952     12951     12954     12952     12951     12953
     12953     12951     12954     12955     12951     12954     12955     12951     12953
     12955     12951     12952     12957     12961     12962     12958     12957     12960
     12958     12957     12959     12959     12957     12960     12961     12957     12960
     12961     12957     12959     12961     12957     12958     12963     12967     12968
     12964     12963     12966     12964     12963     12965     12965     12963     12966
     12967     12963     12966     12967     12963     12965     12967     12963     12964
     12969     12973     12974     12970     12969     12972     12970     12969     12971
     12971     12969     12972     12973     12969     12972     12973     12969     12971
     12973     12969     12970     12975     12979     12980     12976     12975     12978
     12976     12975     12977     12977     12975     12978     12979     12975     12978
     12979     12975     12977     12979     12975     12976     12981     12985     12986
     12982     12981     12984     12982     12981     12983     12983     12981     12984
     12985     12981     12984     12985     12981     12983     12985     12981     12982
     12987     12991     12992     12988     12987     12990     12988     12987     12989
     12989     12987     12990     12991     12987     12990     12991     12987     12989
     12991     12987     12988     12993     12997     12998     12994     12993     12996
     12994     12993     12995     12995     12993     12996     12997     12993     12996
     12997     12993     12995     12997     12993     12994     12999     13003     13004
     13000     12999     13002     13000     12999     13001     13001     12999     13002
     13003     12999     13002     13003     12999     13001     13003     12999     13000
     13005     13009     13010     13006     13005     13008     13006     13005     13007
     13007     13005     13008     13009     13005     13008     13009     13005     13007
     13009     13005     13006     13011     13015     13016     13012     13011     13014
     13012     13011     13013     13013     13011     13014     13015     13011     13014
     13015     13011     13013     13015     13011     13012     13017     13021     13022
     13018     13017     13020     13018     13017     13019     13019     13017     13020
     13021     13017     13020     13021     13017     13019     13021     13017     13018
     13023     13027     13028     13024     13023     13026     13024     13023     13025
     13025     13023     13026     13027     13023     13026     13027     13023     13025
     13027     13023     13024     13029     13033     13034     13030     13029     13032
     13030     13029     13031     13031     13029     13032     13033     13029     13032
     13033     13029     13031     13033     13029     13030     13035     13039     13040
     13036     13035     13038     13036     13035     13037     13037     13035     13038
     13039     13035     13038     13039     13035     13037     13039     13035     13036
     13041     13045     13046     13042     13041     13044     13042     13041     13043
     13043     13041     13044     13045     13041     13044     13045     13041     13043
     13045     13041     13042     13047     13051     13052     13048     13047     13050
     13048     13047     13049     13049     13047     13050     13051     13047     13050
     13051     13047     13049     13051     13047     13048     13053     13057     13058
     13054     13053     13056     13054     13053     13055     13055     13053     13056
     13057     13053     13056     13057     13053     13055     13057     13053     13054
     13059     13063     13064     13060     13059     13062     13060     13059     13061
     13061     13059     13062     13063     13059     13062     13063     13059     13061
     13063     13059     13060     13065     13069     13070     13066     13065     13068
     13066     13065     13067     13067     13065     13068     13069     13065     13068
     13069     13065     13067     13069     13065     13066     13071     13075     13076
     13072     13071     13074     13072     13071     13073     13073     13071     13074
     13075     13071     13074     13075     13071     13073     13075     13071     13072
     13077     13081     13082     13078     13077     13080     13078     13077     13079
     13079     13077     13080     13081     13077     13080     13081     13077     13079
     13081     13077     13078     13083     13087     13088     13084     13083     13086
     13084     13083     13085     13085     13083     13086     13087     13083     13086
     13087     13083     13085     13087     13083     13084     13089     13093     13094
     13090     13089     13092     13090     13089     13091     13091     13089     13092
     13093     13089     13092     13093     13089     13091     13093     13089     13090
     13095     13099     13100     13096     13095     13098     13096     13095     13097
     13097     13095     13098     13099     13095     13098     13099     13095     13097
     13099     13095     13096     13101     13105     13106     13102     13101     13104
     13102     13101     13103     13103     13101     13104     13105     13101     13104
     13105     13101     13103     13105     13101     13102     13107     13111     13112
     13108     13107     13110     13108     13107     13109     13109     13107     13110
     13111     13107     13110     13111     13107     13109     13111     13107     13108
     13113     13117     13118     13114     13113     13116     13114     13113     13115
     13115     13113     13116     13117     13113     13116     13117     13113     13115
     13117     13113     13114     13119     13123     13124     13120     13119     13122
     13120     13119     13121     13121     13119     13122     13123     13119     13122
     13123     13119     13121     13123     13119     13120     13125     13129     13130
     13126     13125     13128     13126     13125     13127     13127     13125     13128
     13129     13125     13128     13129     13125     13127     13129     13125     13126
     13131     13135     13136     13132     13131     13134     13132     13131     13133
     13133     13131     13134     13135     13131     13134     13135     13131     13133
     13135     13131     13132     13137     13141     13142     13138     13137     13140
     13138     13137     13139     13139     13137     13140     13141     13137     13140
     13141     13137     13139     13141     13137     13138     13143     13147     13148
     13144     13143     13146     13144     13143     13145     13145     13143     13146
     13147     13143     13146     13147     13143     13145     13147     13143     13144
     13149     13153     13154     13150     13149     13152     13150     13149     13151
     13151     13149     13152     13153     13149     13152     13153     13149     13151
     13153     13149     13150     13155     13159     13160     13156     13155     13158
     13156     13155     13157     13157     13155     13158     13159     13155     13158
     13159     13155     13157     13159     13155     13156     13161     13165     13166
     13162     13161     13164     13162     13161     13163     13163     13161     13164
     13165     13161     13164     13165     13161     13163     13165     13161     13162
     13167     13171     13172     13168     13167     13170     13168     13167     13169
     13169     13167     13170     13171     13167     13170     13171     13167     13169
     13171     13167     13168     13173     13177     13178     13174     13173     13176
     13174     13173     13175     13175     13173     13176     13177     13173     13176
     13177     13173     13175     13177     13173     13174     13179     13183     13184
     13180     13179     13182     13180     13179     13181     13181     13179     13182
     13183     13179     13182     13183     13179     13181     13183     13179     13180
     13185     13189     13190     13186     13185     13188     13186     13185     13187
     13187     13185     13188     13189     13185     13188     13189     13185     13187
     13189     13185     13186     13191     13195     13196     13192     13191     13194
     13192     13191     13193     13193     13191     13194     13195     13191     13194
     13195     13191     13193     13195     13191     13192     13197     13201     13202
     13198     13197     13200     13198     13197     13199     13199     13197     13200
     13201     13197     13200     13201     13197     13199     13201     13197     13198
     13203     13207     13208     13204     13203     13206     13204     13203     13205
     13205     13203     13206     13207     13203     13206     13207     13203     13205
     13207     13203     13204     13209     13213     13214     13210     13209     13212
     13210     13209     13211     13211     13209     13212     13213     13209     13212
     13213     13209     13211     13213     13209     13210     13215     13219     13220
     13216     13215     13218     13216     13215     13217     13217     13215     13218
     13219     13215     13218     13219     13215     13217     13219     13215     13216
     13221     13225     13226     13222     13221     13224     13222     13221     13223
     13223     13221     13224     13225     13221     13224     13225     13221     13223
     13225     13221     13222     13227     13231     13232     13228     13227     13230
     13228     13227     13229     13229     13227     13230     13231     13227     13230
     13231     13227     13229     13231     13227     13228     13233     13237     13238
     13234     13233     13236     13234     13233     13235     13235     13233     13236
     13237     13233     13236     13237     13233     13235     13237     13233     13234
     13239     13243     13244     13240     13239     13242     13240     13239     13241
     13241     13239     13242     13243     13239     13242     13243     13239     13241
     13243     13239     13240     13245     13249     13250     13246     13245     13248
     13246     13245     13247     13247     13245     13248     13249     13245     13248
     13249     13245     13247     13249     13245     13246     13251     13255     13256
     13252     13251     13254     13252     13251     13253     13253     13251     13254
     13255     13251     13254     13255     13251     13253     13255     13251     13252
     13257     13261     13262     13258     13257     13260     13258     13257     13259
     13259     13257     13260     13261     13257     13260     13261     13257     13259
     13261     13257     13258     13263     13267     13268     13264     13263     13266
     13264     13263     13265     13265     13263     13266     13267     13263     13266
     13267     13263     13265     13267     13263     13264     13269     13273     13274
     13270     13269     13272     13270     13269     13271     13271     13269     13272
     13273     13269     13272     13273     13269     13271     13273     13269     13270
     13275     13279     13280     13276     13275     13278     13276     13275     13277
     13277     13275     13278     13279     13275     13278     13279     13275     13277
     13279     13275     13276     13281     13285     13286     13282     13281     13284
     13282     13281     13283     13283     13281     13284     13285     13281     13284
     13285     13281     13283     13285     13281     13282     13287     13291     13292
     13288     13287     13290     13288     13287     13289     13289     13287     13290
     13291     13287     13290     13291     13287     13289     13291     13287     13288
     13293     13297     13298     13294     13293     13296     13294     13293     13295
     13295     13293     13296     13297     13293     13296     13297     13293     13295
     13297     13293     13294     13299     13303     13304     13300     13299     13302
     13300     13299     13301     13301     13299     13302     13303     13299     13302
     13303     13299     13301     13303     13299     13300     13305     13309     13310
     13306     13305     13308     13306     13305     13307     13307     13305     13308
     13309     13305     13308     13309     13305     13307     13309     13305     13306
     13311     13315     13316     13312     13311     13314     13312     13311     13313
     13313     13311     13314     13315     13311     13314     13315     13311     13313
     13315     13311     13312     13317     13321     13322     13318     13317     13320
     13318     13317     13319     13319     13317     13320     13321     13317     13320
     13321     13317     13319     13321     13317     13318     13323     13327     13328
     13324     13323     13326     13324     13323     13325     13325     13323     13326
     13327     13323     13326     13327     13323     13325     13327     13323     13324
     13329     13333     13334     13330     13329     13332     13330     13329     13331
     13331     13329     13332     13333     13329     13332     13333     13329     13331
     13333     13329     13330     13335     13339     13340     13336     13335     13338
     13336     13335     13337     13337     13335     13338     13339     13335     13338
     13339     13335     13337     13339     13335     13336     13341     13345     13346
     13342     13341     13344     13342     13341     13343     13343     13341     13344
     13345     13341     13344     13345     13341     13343     13345     13341     13342
     13347     13351     13352     13348     13347     13350     13348     13347     13349
     13349     13347     13350     13351     13347     13350     13351     13347     13349
     13351     13347     13348     13353     13357     13358     13354     13353     13356
     13354     13353     13355     13355     13353     13356     13357     13353     13356
     13357     13353     13355     13357     13353     13354     13359     13363     13364
     13360     13359     13362     13360     13359     13361     13361     13359     13362
     13363     13359     13362     13363     13359     13361     13363     13359     13360
     13365     13369     13370     13366     13365     13368     13366     13365     13367
     13367     13365     13368     13369     13365     13368     13369     13365     13367
     13369     13365     13366     13371     13375     13376     13372     13371     13374
     13372     13371     13373     13373     13371     13374     13375     13371     13374
     13375     13371     13373     13375     13371     13372     13377     13381     13382
     13378     13377     13380     13378     13377     13379     13379     13377     13380
     13381     13377     13380     13381     13377     13379     13381     13377     13378
     13383     13387     13388     13384     13383     13386     13384     13383     13385
     13385     13383     13386     13387     13383     13386     13387     13383     13385
     13387     13383     13384     13389     13393     13394     13390     13389     13392
     13390     13389     13391     13391     13389     13392     13393     13389     13392
     13393     13389     13391     13393     13389     13390     13395     13399     13400
     13396     13395     13398     13396     13395     13397     13397     13395     13398
     13399     13395     13398     13399     13395     13397     13399     13395     13396
     13401     13405     13406     13402     13401     13404     13402     13401     13403
     13403     13401     13404     13405     13401     13404     13405     13401     13403
     13405     13401     13402     13407     13411     13412     13408     13407     13410
     13408     13407     13409     13409     13407     13410     13411     13407     13410
     13411     13407     13409     13411     13407     13408     13413     13417     13418
     13414     13413     13416     13414     13413     13415     13415     13413     13416
     13417     13413     13416     13417     13413     13415     13417     13413     13414
     13419     13423     13424     13420     13419     13422     13420     13419     13421
     13421     13419     13422     13423     13419     13422     13423     13419     13421
     13423     13419     13420     13425     13429     13430     13426     13425     13428
     13426     13425     13427     13427     13425     13428     13429     13425     13428
     13429     13425     13427     13429     13425     13426     13431     13435     13436
     13432     13431     13434     13432     13431     13433     13433     13431     13434
     13435     13431     13434     13435     13431     13433     13435     13431     13432
     13437     13441     13442     13438     13437     13440     13438     13437     13439
     13439     13437     13440     13441     13437     13440     13441     13437     13439
     13441     13437     13438     13443     13447     13448     13444     13443     13446
     13444     13443     13445     13445     13443     13446     13447     13443     13446
     13447     13443     13445     13447     13443     13444     13449     13453     13454
     13450     13449     13452     13450     13449     13451     13451     13449     13452
     13453     13449     13452     13453     13449     13451     13453     13449     13450
     13455     13459     13460     13456     13455     13458     13456     13455     13457
     13457     13455     13458     13459     13455     13458     13459     13455     13457
     13459     13455     13456     13461     13465     13466     13462     13461     13464
     13462     13461     13463     13463     13461     13464     13465     13461     13464
     13465     13461     13463     13465     13461     13462     13467     13471     13472
     13468     13467     13470     13468     13467     13469     13469     13467     13470
     13471     13467     13470     13471     13467     13469     13471     13467     13468
     13473     13477     13478     13474     13473     13476     13474     13473     13475
     13475     13473     13476     13477     13473     13476     13477     13473     13475
     13477     13473     13474     13479     13483     13484     13480     13479     13482
     13480     13479     13481     13481     13479     13482     13483     13479     13482
     13483     13479     13481     13483     13479     13480     13485     13489     13490
     13486     13485     13488     13486     13485     13487     13487     13485     13488
     13489     13485     13488     13489     13485     13487     13489     13485     13486
     13491     13495     13496     13492     13491     13494     13492     13491     13493
     13493     13491     13494     13495     13491     13494     13495     13491     13493
     13495     13491     13492     13497     13501     13502     13498     13497     13500
     13498     13497     13499     13499     13497     13500     13501     13497     13500
     13501     13497     13499     13501     13497     13498     13503     13507     13508
     13504     13503     13506     13504     13503     13505     13505     13503     13506
     13507     13503     13506     13507     13503     13505     13507     13503     13504
     13509     13513     13514     13510     13509     13512     13510     13509     13511
     13511     13509     13512     13513     13509     13512     13513     13509     13511
     13513     13509     13510     13515     13519     13520     13516     13515     13518
     13516     13515     13517     13517     13515     13518     13519     13515     13518
     13519     13515     13517     13519     13515     13516     13521     13525     13526
     13522     13521     13524     13522     13521     13523     13523     13521     13524
     13525     13521     13524     13525     13521     13523     13525     13521     13522
     13527     13531     13532     13528     13527     13530     13528     13527     13529
     13529     13527     13530     13531     13527     13530     13531     13527     13529
     13531     13527     13528     13533     13537     13538     13534     13533     13536
     13534     13533     13535     13535     13533     13536     13537     13533     13536
     13537     13533     13535     13537     13533     13534     13539     13543     13544
     13540     13539     13542     13540     13539     13541     13541     13539     13542
     13543     13539     13542     13543     13539     13541     13543     13539     13540
     13545     13549     13550     13546     13545     13548     13546     13545     13547
     13547     13545     13548     13549     13545     13548     13549     13545     13547
     13549     13545     13546     13551     13555     13556     13552     13551     13554
     13552     13551     13553     13553     13551     13554     13555     13551     13554
     13555     13551     13553     13555     13551     13552     13557     13561     13562
     13558     13557     13560     13558     13557     13559     13559     13557     13560
     13561     13557     13560     13561     13557     13559     13561     13557     13558
     13563     13567     13568     13564     13563     13566     13564     13563     13565
     13565     13563     13566     13567     13563     13566     13567     13563     13565
     13567     13563     13564     13569     13573     13574     13570     13569     13572
     13570     13569     13571     13571     13569     13572     13573     13569     13572
     13573     13569     13571     13573     13569     13570     13575     13579     13580
     13576     13575     13578     13576     13575     13577     13577     13575     13578
     13579     13575     13578     13579     13575     13577     13579     13575     13576
     13581     13585     13586     13582     13581     13584     13582     13581     13583
     13583     13581     13584     13585     13581     13584     13585     13581     13583
     13585     13581     13582     13587     13591     13592     13588     13587     13590
     13588     13587     13589     13589     13587     13590     13591     13587     13590
     13591     13587     13589     13591     13587     13588     13593     13597     13598
     13594     13593     13596     13594     13593     13595     13595     13593     13596
     13597     13593     13596     13597     13593     13595     13597     13593     13594
     13599     13603     13604     13600     13599     13602     13600     13599     13601
     13601     13599     13602     13603     13599     13602     13603     13599     13601
     13603     13599     13600     13605     13609     13610     13606     13605     13608
     13606     13605     13607     13607     13605     13608     13609     13605     13608
     13609     13605     13607     13609     13605     13606     13611     13615     13616
     13612     13611     13614     13612     13611     13613     13613     13611     13614
     13615     13611     13614     13615     13611     13613     13615     13611     13612
     13617     13621     13622     13618     13617     13620     13618     13617     13619
     13619     13617     13620     13621     13617     13620     13621     13617     13619
     13621     13617     13618     13623     13627     13628     13624     13623     13626
     13624     13623     13625     13625     13623     13626     13627     13623     13626
     13627     13623     13625     13627     13623     13624     13629     13633     13634
     13630     13629     13632     13630     13629     13631     13631     13629     13632
     13633     13629     13632     13633     13629     13631     13633     13629     13630
     13635     13639     13640     13636     13635     13638     13636     13635     13637
     13637     13635     13638     13639     13635     13638     13639     13635     13637
     13639     13635     13636     13641     13645     13646     13642     13641     13644
     13642     13641     13643     13643     13641     13644     13645     13641     13644
     13645     13641     13643     13645     13641     13642     13647     13651     13652
     13648     13647     13650     13648     13647     13649     13649     13647     13650
     13651     13647     13650     13651     13647     13649     13651     13647     13648
     13653     13657     13658     13654     13653     13656     13654     13653     13655
     13655     13653     13656     13657     13653     13656     13657     13653     13655
     13657     13653     13654     13659     13663     13664     13660     13659     13662
     13660     13659     13661     13661     13659     13662     13663     13659     13662
     13663     13659     13661     13663     13659     13660     13665     13669     13670
     13666     13665     13668     13666     13665     13667     13667     13665     13668
     13669     13665     13668     13669     13665     13667     13669     13665     13666
     13671     13675     13676     13672     13671     13674     13672     13671     13673
     13673     13671     13674     13675     13671     13674     13675     13671     13673
     13675     13671     13672     13677     13681     13682     13678     13677     13680
     13678     13677     13679     13679     13677     13680     13681     13677     13680
     13681     13677     13679     13681     13677     13678     13683     13687     13688
     13684     13683     13686     13684     13683     13685     13685     13683     13686
     13687     13683     13686     13687     13683     13685     13687     13683     13684
     13689     13693     13694     13690     13689     13692     13690     13689     13691
     13691     13689     13692     13693     13689     13692     13693     13689     13691
     13693     13689     13690     13695     13699     13700     13696     13695     13698
     13696     13695     13697     13697     13695     13698     13699     13695     13698
     13699     13695     13697     13699     13695     13696     13701     13705     13706
     13702     13701     13704     13702     13701     13703     13703     13701     13704
     13705     13701     13704     13705     13701     13703     13705     13701     13702
     13707     13711     13712     13708     13707     13710     13708     13707     13709
     13709     13707     13710     13711     13707     13710     13711     13707     13709
     13711     13707     13708     13713     13717     13718     13714     13713     13716
     13714     13713     13715     13715     13713     13716     13717     13713     13716
     13717     13713     13715     13717     13713     13714     13719     13723     13724
     13720     13719     13722     13720     13719     13721     13721     13719     13722
     13723     13719     13722     13723     13719     13721     13723     13719     13720
     13725     13729     13730     13726     13725     13728     13726     13725     13727
     13727     13725     13728     13729     13725     13728     13729     13725     13727
     13729     13725     13726     13731     13735     13736     13732     13731     13734
     13732     13731     13733     13733     13731     13734     13735     13731     13734
     13735     13731     13733     13735     13731     13732     13737     13741     13742
     13738     13737     13740     13738     13737     13739     13739     13737     13740
     13741     13737     13740     13741     13737     13739     13741     13737     13738
     13743     13747     13748     13744     13743     13746     13744     13743     13745
     13745     13743     13746     13747     13743     13746     13747     13743     13745
     13747     13743     13744     13749     13753     13754     13750     13749     13752
     13750     13749     13751     13751     13749     13752     13753     13749     13752
     13753     13749     13751     13753     13749     13750     13755     13759     13760
     13756     13755     13758     13756     13755     13757     13757     13755     13758
     13759     13755     13758     13759     13755     13757     13759     13755     13756
     13761     13765     13766     13762     13761     13764     13762     13761     13763
     13763     13761     13764     13765     13761     13764     13765     13761     13763
     13765     13761     13762     13767     13771     13772     13768     13767     13770
     13768     13767     13769     13769     13767     13770     13771     13767     13770
     13771     13767     13769     13771     13767     13768     13773     13777     13778
     13774     13773     13776     13774     13773     13775     13775     13773     13776
     13777     13773     13776     13777     13773     13775     13777     13773     13774
     13779     13783     13784     13780     13779     13782     13780     13779     13781
     13781     13779     13782     13783     13779     13782     13783     13779     13781
     13783     13779     13780     13785     13789     13790     13786     13785     13788
     13786     13785     13787     13787     13785     13788     13789     13785     13788
     13789     13785     13787     13789     13785     13786     13791     13795     13796
     13792     13791     13794     13792     13791     13793     13793     13791     13794
     13795     13791     13794     13795     13791     13793     13795     13791     13792
     13797     13801     13802     13798     13797     13800     13798     13797     13799
     13799     13797     13800     13801     13797     13800     13801     13797     13799
     13801     13797     13798     13803     13807     13808     13804     13803     13806
     13804     13803     13805     13805     13803     13806     13807     13803     13806
     13807     13803     13805     13807     13803     13804     13809     13813     13814
     13810     13809     13812     13810     13809     13811     13811     13809     13812
     13813     13809     13812     13813     13809     13811     13813     13809     13810
     13815     13819     13820     13816     13815     13818     13816     13815     13817
     13817     13815     13818     13819     13815     13818     13819     13815     13817
     13819     13815     13816     13821     13825     13826     13822     13821     13824
     13822     13821     13823     13823     13821     13824     13825     13821     13824
     13825     13821     13823     13825     13821     13822     13827     13831     13832
     13828     13827     13830     13828     13827     13829     13829     13827     13830
     13831     13827     13830     13831     13827     13829     13831     13827     13828
     13833     13837     13838     13834     13833     13836     13834     13833     13835
     13835     13833     13836     13837     13833     13836     13837     13833     13835
     13837     13833     13834     13839     13843     13844     13840     13839     13842
     13840     13839     13841     13841     13839     13842     13843     13839     13842
     13843     13839     13841     13843     13839     13840     13845     13849     13850
     13846     13845     13848     13846     13845     13847     13847     13845     13848
     13849     13845     13848     13849     13845     13847     13849     13845     13846
     13851     13855     13856     13852     13851     13854     13852     13851     13853
     13853     13851     13854     13855     13851     13854     13855     13851     13853
     13855     13851     13852     13857     13861     13862     13858     13857     13860
     13858     13857     13859     13859     13857     13860     13861     13857     13860
     13861     13857     13859     13861     13857     13858     13863     13867     13868
     13864     13863     13866     13864     13863     13865     13865     13863     13866
     13867     13863     13866     13867     13863     13865     13867     13863     13864
     13869     13873     13874     13870     13869     13872     13870     13869     13871
     13871     13869     13872     13873     13869     13872     13873     13869     13871
     13873     13869     13870     13875     13879     13880     13876     13875     13878
     13876     13875     13877     13877     13875     13878     13879     13875     13878
     13879     13875     13877     13879     13875     13876     13881     13885     13886
     13882     13881     13884     13882     13881     13883     13883     13881     13884
     13885     13881     13884     13885     13881     13883     13885     13881     13882
     13887     13891     13892     13888     13887     13890     13888     13887     13889
     13889     13887     13890     13891     13887     13890     13891     13887     13889
     13891     13887     13888     13893     13897     13898     13894     13893     13896
     13894     13893     13895     13895     13893     13896     13897     13893     13896
     13897     13893     13895     13897     13893     13894     13899     13903     13904
     13900     13899     13902     13900     13899     13901     13901     13899     13902
     13903     13899     13902     13903     13899     13901     13903     13899     13900
     13905     13909     13910     13906     13905     13908     13906     13905     13907
     13907     13905     13908     13909     13905     13908     13909     13905     13907
     13909     13905     13906     13911     13915     13916     13912     13911     13914
     13912     13911     13913     13913     13911     13914     13915     13911     13914
     13915     13911     13913     13915     13911     13912     13917     13921     13922
     13918     13917     13920     13918     13917     13919     13919     13917     13920
     13921     13917     13920     13921     13917     13919     13921     13917     13918
     13923     13927     13928     13924     13923     13926     13924     13923     13925
     13925     13923     13926     13927     13923     13926     13927     13923     13925
     13927     13923     13924     13929     13933     13934     13930     13929     13932
     13930     13929     13931     13931     13929     13932     13933     13929     13932
     13933     13929     13931     13933     13929     13930     13935     13939     13940
     13936     13935     13938     13936     13935     13937     13937     13935     13938
     13939     13935     13938     13939     13935     13937     13939     13935     13936
     13941     13945     13946     13942     13941     13944     13942     13941     13943
     13943     13941     13944     13945     13941     13944     13945     13941     13943
     13945     13941     13942     13947     13951     13952     13948     13947     13950
     13948     13947     13949     13949     13947     13950     13951     13947     13950
     13951     13947     13949     13951     13947     13948     13953     13957     13958
     13954     13953     13956     13954     13953     13955     13955     13953     13956
     13957     13953     13956     13957     13953     13955     13957     13953     13954
     13959     13963     13964     13960     13959     13962     13960     13959     13961
     13961     13959     13962     13963     13959     13962     13963     13959     13961
     13963     13959     13960     13965     13969     13970     13966     13965     13968
     13966     13965     13967     13967     13965     13968     13969     13965     13968
     13969     13965     13967     13969     13965     13966     13971     13975     13976
     13972     13971     13974     13972     13971     13973     13973     13971     13974
     13975     13971     13974     13975     13971     13973     13975     13971     13972
     13977     13981     13982     13978     13977     13980     13978     13977     13979
     13979     13977     13980     13981     13977     13980     13981     13977     13979
     13981     13977     13978     13983     13987     13988     13984     13983     13986
     13984     13983     13985     13985     13983     13986     13987     13983     13986
     13987     13983     13985     13987     13983     13984     13989     13993     13994
     13990     13989     13992     13990     13989     13991     13991     13989     13992
     13993     13989     13992     13993     13989     13991     13993     13989     13990
     13995     13999     14000     13996     13995     13998     13996     13995     13997
     13997     13995     13998     13999     13995     13998     13999     13995     13997
     13999     13995     13996     14001     14005     14006     14002     14001     14004
     14002     14001     14003     14003     14001     14004     14005     14001     14004
     14005     14001     14003     14005     14001     14002     14007     14011     14012
     14008     14007     14010     14008     14007     14009     14009     14007     14010
     14011     14007     14010     14011     14007     14009     14011     14007     14008
     14013     14017     14018     14014     14013     14016     14014     14013     14015
     14015     14013     14016     14017     14013     14016     14017     14013     14015
     14017     14013     14014     14019     14023     14024     14020     14019     14022
     14020     14019     14021     14021     14019     14022     14023     14019     14022
     14023     14019     14021     14023     14019     14020     14025     14029     14030
     14026     14025     14028     14026     14025     14027     14027     14025     14028
     14029     14025     14028     14029     14025     14027     14029     14025     14026
     14031     14035     14036     14032     14031     14034     14032     14031     14033
     14033     14031     14034     14035     14031     14034     14035     14031     14033
     14035     14031     14032     14037     14041     14042     14038     14037     14040
     14038     14037     14039     14039     14037     14040     14041     14037     14040
     14041     14037     14039     14041     14037     14038     14043     14047     14048
     14044     14043     14046     14044     14043     14045     14045     14043     14046
     14047     14043     14046     14047     14043     14045     14047     14043     14044
     14049     14053     14054     14050     14049     14052     14050     14049     14051
     14051     14049     14052     14053     14049     14052     14053     14049     14051
     14053     14049     14050     14055     14059     14060     14056     14055     14058
     14056     14055     14057     14057     14055     14058     14059     14055     14058
     14059     14055     14057     14059     14055     14056     14061     14065     14066
     14062     14061     14064     14062     14061     14063     14063     14061     14064
     14065     14061     14064     14065     14061     14063     14065     14061     14062
     14067     14071     14072     14068     14067     14070     14068     14067     14069
     14069     14067     14070     14071     14067     14070     14071     14067     14069
     14071     14067     14068     14073     14077     14078     14074     14073     14076
     14074     14073     14075     14075     14073     14076     14077     14073     14076
     14077     14073     14075     14077     14073     14074     14079     14083     14084
     14080     14079     14082     14080     14079     14081     14081     14079     14082
     14083     14079     14082     14083     14079     14081     14083     14079     14080
     14085     14089     14090     14086     14085     14088     14086     14085     14087
     14087     14085     14088     14089     14085     14088     14089     14085     14087
     14089     14085     14086     14091     14095     14096     14092     14091     14094
     14092     14091     14093     14093     14091     14094     14095     14091     14094
     14095     14091     14093     14095     14091     14092     14097     14101     14102
     14098     14097     14100     14098     14097     14099     14099     14097     14100
     14101     14097     14100     14101     14097     14099     14101     14097     14098
     14103     14107     14108     14104     14103     14106     14104     14103     14105
     14105     14103     14106     14107     14103     14106     14107     14103     14105
     14107     14103     14104     14109     14113     14114     14110     14109     14112
     14110     14109     14111     14111     14109     14112     14113     14109     14112
     14113     14109     14111     14113     14109     14110     14115     14119     14120
     14116     14115     14118     14116     14115     14117     14117     14115     14118
     14119     14115     14118     14119     14115     14117     14119     14115     14116
     14121     14125     14126     14122     14121     14124     14122     14121     14123
     14123     14121     14124     14125     14121     14124     14125     14121     14123
     14125     14121     14122     14127     14131     14132     14128     14127     14130
     14128     14127     14129     14129     14127     14130     14131     14127     14130
     14131     14127     14129     14131     14127     14128     14133     14137     14138
     14134     14133     14136     14134     14133     14135     14135     14133     14136
     14137     14133     14136     14137     14133     14135     14137     14133     14134
     14139     14143     14144     14140     14139     14142     14140     14139     14141
     14141     14139     14142     14143     14139     14142     14143     14139     14141
     14143     14139     14140     14145     14149     14150     14146     14145     14148
     14146     14145     14147     14147     14145     14148     14149     14145     14148
     14149     14145     14147     14149     14145     14146     14151     14155     14156
     14152     14151     14154     14152     14151     14153     14153     14151     14154
     14155     14151     14154     14155     14151     14153     14155     14151     14152
     14157     14161     14162     14158     14157     14160     14158     14157     14159
     14159     14157     14160     14161     14157     14160     14161     14157     14159
     14161     14157     14158     14163     14167     14168     14164     14163     14166
     14164     14163     14165     14165     14163     14166     14167     14163     14166
     14167     14163     14165     14167     14163     14164     14169     14173     14174
     14170     14169     14172     14170     14169     14171     14171     14169     14172
     14173     14169     14172     14173     14169     14171     14173     14169     14170
     14175     14179     14180     14176     14175     14178     14176     14175     14177
     14177     14175     14178     14179     14175     14178     14179     14175     14177
     14179     14175     14176     14181     14185     14186     14182     14181     14184
     14182     14181     14183     14183     14181     14184     14185     14181     14184
     14185     14181     14183     14185     14181     14182     14187     14191     14192
     14188     14187     14190     14188     14187     14189     14189     14187     14190
     14191     14187     14190     14191     14187     14189     14191     14187     14188
     14193     14197     14198     14194     14193     14196     14194     14193     14195
     14195     14193     14196     14197     14193     14196     14197     14193     14195
     14197     14193     14194     14199     14203     14204     14200     14199     14202
     14200     14199     14201     14201     14199     14202     14203     14199     14202
     14203     14199     14201     14203     14199     14200     14205     14209     14210
     14206     14205     14208     14206     14205     14207     14207     14205     14208
     14209     14205     14208     14209     14205     14207     14209     14205     14206
     14211     14215     14216     14212     14211     14214     14212     14211     14213
     14213     14211     14214     14215     14211     14214     14215     14211     14213
     14215     14211     14212     14217     14221     14222     14218     14217     14220
     14218     14217     14219     14219     14217     14220     14221     14217     14220
     14221     14217     14219     14221     14217     14218     14223     14227     14228
     14224     14223     14226     14224     14223     14225     14225     14223     14226
     14227     14223     14226     14227     14223     14225     14227     14223     14224
     14229     14233     14234     14230     14229     14232     14230     14229     14231
     14231     14229     14232     14233     14229     14232     14233     14229     14231
     14233     14229     14230     14235     14239     14240     14236     14235     14238
     14236     14235     14237     14237     14235     14238     14239     14235     14238
     14239     14235     14237     14239     14235     14236     14241     14245     14246
     14242     14241     14244     14242     14241     14243     14243     14241     14244
     14245     14241     14244     14245     14241     14243     14245     14241     14242
     14247     14251     14252     14248     14247     14250     14248     14247     14249
     14249     14247     14250     14251     14247     14250     14251     14247     14249
     14251     14247     14248     14253     14257     14258     14254     14253     14256
     14254     14253     14255     14255     14253     14256     14257     14253     14256
     14257     14253     14255     14257     14253     14254     14259     14263     14264
     14260     14259     14262     14260     14259     14261     14261     14259     14262
     14263     14259     14262     14263     14259     14261     14263     14259     14260
     14265     14269     14270     14266     14265     14268     14266     14265     14267
     14267     14265     14268     14269     14265     14268     14269     14265     14267
     14269     14265     14266     14271     14275     14276     14272     14271     14274
     14272     14271     14273     14273     14271     14274     14275     14271     14274
     14275     14271     14273     14275     14271     14272     14277     14281     14282
     14278     14277     14280     14278     14277     14279     14279     14277     14280
     14281     14277     14280     14281     14277     14279     14281     14277     14278
     14283     14287     14288     14284     14283     14286     14284     14283     14285
     14285     14283     14286     14287     14283     14286     14287     14283     14285
     14287     14283     14284     14289     14293     14294     14290     14289     14292
     14290     14289     14291     14291     14289     14292     14293     14289     14292
     14293     14289     14291     14293     14289     14290     14295     14299     14300
     14296     14295     14298     14296     14295     14297     14297     14295     14298
     14299     14295     14298     14299     14295     14297     14299     14295     14296
     14301     14305     14306     14302     14301     14304     14302     14301     14303
     14303     14301     14304     14305     14301     14304     14305     14301     14303
     14305     14301     14302     14307     14311     14312     14308     14307     14310
     14308     14307     14309     14309     14307     14310     14311     14307     14310
     14311     14307     14309     14311     14307     14308     14313     14317     14318
     14314     14313     14316     14314     14313     14315     14315     14313     14316
     14317     14313     14316     14317     14313     14315     14317     14313     14314
     14319     14323     14324     14320     14319     14322     14320     14319     14321
     14321     14319     14322     14323     14319     14322     14323     14319     14321
     14323     14319     14320     14325     14329     14330     14326     14325     14328
     14326     14325     14327     14327     14325     14328     14329     14325     14328
     14329     14325     14327     14329     14325     14326     14331     14335     14336
     14332     14331     14334     14332     14331     14333     14333     14331     14334
     14335     14331     14334     14335     14331     14333     14335     14331     14332
     14337     14341     14342     14338     14337     14340     14338     14337     14339
     14339     14337     14340     14341     14337     14340     14341     14337     14339
     14341     14337     14338     14343     14347     14348     14344     14343     14346
     14344     14343     14345     14345     14343     14346     14347     14343     14346
     14347     14343     14345     14347     14343     14344     14349     14353     14354
     14350     14349     14352     14350     14349     14351     14351     14349     14352
     14353     14349     14352     14353     14349     14351     14353     14349     14350
     14355     14359     14360     14356     14355     14358     14356     14355     14357
     14357     14355     14358     14359     14355     14358     14359     14355     14357
     14359     14355     14356     14361     14365     14366     14362     14361     14364
     14362     14361     14363     14363     14361     14364     14365     14361     14364
     14365     14361     14363     14365     14361     14362     14367     14371     14372
     14368     14367     14370     14368     14367     14369     14369     14367     14370
     14371     14367     14370     14371     14367     14369     14371     14367     14368
     14373     14377     14378     14374     14373     14376     14374     14373     14375
     14375     14373     14376     14377     14373     14376     14377     14373     14375
     14377     14373     14374     14379     14383     14384     14380     14379     14382
     14380     14379     14381     14381     14379     14382     14383     14379     14382
     14383     14379     14381     14383     14379     14380     14385     14389     14390
     14386     14385     14388     14386     14385     14387     14387     14385     14388
     14389     14385     14388     14389     14385     14387     14389     14385     14386
     14391     14395     14396     14392     14391     14394     14392     14391     14393
     14393     14391     14394     14395     14391     14394     14395     14391     14393
     14395     14391     14392     14397     14401     14402     14398     14397     14400
     14398     14397     14399     14399     14397     14400     14401     14397     14400
     14401     14397     14399     14401     14397     14398     14403     14407     14408
     14404     14403     14406     14404     14403     14405     14405     14403     14406
     14407     14403     14406     14407     14403     14405     14407     14403     14404
     14409     14413     14414     14410     14409     14412     14410     14409     14411
     14411     14409     14412     14413     14409     14412     14413     14409     14411
     14413     14409     14410     14415     14419     14420     14416     14415     14418
     14416     14415     14417     14417     14415     14418     14419     14415     14418
     14419     14415     14417     14419     14415     14416     14421     14425     14426
     14422     14421     14424     14422     14421     14423     14423     14421     14424
     14425     14421     14424     14425     14421     14423     14425     14421     14422
     14427     14431     14432     14428     14427     14430     14428     14427     14429
     14429     14427     14430     14431     14427     14430     14431     14427     14429
     14431     14427     14428     14433     14437     14438     14434     14433     14436
     14434     14433     14435     14435     14433     14436     14437     14433     14436
     14437     14433     14435     14437     14433     14434     14439     14443     14444
     14440     14439     14442     14440     14439     14441     14441     14439     14442
     14443     14439     14442     14443     14439     14441     14443     14439     14440
     14445     14449     14450     14446     14445     14448     14446     14445     14447
     14447     14445     14448     14449     14445     14448     14449     14445     14447
     14449     14445     14446     14451     14455     14456     14452     14451     14454
     14452     14451     14453     14453     14451     14454     14455     14451     14454
     14455     14451     14453     14455     14451     14452     14457     14461     14462
     14458     14457     14460     14458     14457     14459     14459     14457     14460
     14461     14457     14460     14461     14457     14459     14461     14457     14458
     14463     14467     14468     14464     14463     14466     14464     14463     14465
     14465     14463     14466     14467     14463     14466     14467     14463     14465
     14467     14463     14464     14469     14473     14474     14470     14469     14472
     14470     14469     14471     14471     14469     14472     14473     14469     14472
     14473     14469     14471     14473     14469     14470     14475     14479     14480
     14476     14475     14478     14476     14475     14477     14477     14475     14478
     14479     14475     14478     14479     14475     14477     14479     14475     14476
     14481     14485     14486     14482     14481     14484     14482     14481     14483
     14483     14481     14484     14485     14481     14484     14485     14481     14483
     14485     14481     14482     14487     14491     14492     14488     14487     14490
     14488     14487     14489     14489     14487     14490     14491     14487     14490
     14491     14487     14489     14491     14487     14488     14493     14497     14498
     14494     14493     14496     14494     14493     14495     14495     14493     14496
     14497     14493     14496     14497     14493     14495     14497     14493     14494
     14499     14503     14504     14500     14499     14502     14500     14499     14501
     14501     14499     14502     14503     14499     14502     14503     14499     14501
     14503     14499     14500     14505     14509     14510     14506     14505     14508
     14506     14505     14507     14507     14505     14508     14509     14505     14508
     14509     14505     14507     14509     14505     14506     14511     14515     14516
     14512     14511     14514     14512     14511     14513     14513     14511     14514
     14515     14511     14514     14515     14511     14513     14515     14511     14512
     14517     14521     14522     14518     14517     14520     14518     14517     14519
     14519     14517     14520     14521     14517     14520     14521     14517     14519
     14521     14517     14518     14523     14527     14528     14524     14523     14526
     14524     14523     14525     14525     14523     14526     14527     14523     14526
     14527     14523     14525     14527     14523     14524     14529     14533     14534
     14530     14529     14532     14530     14529     14531     14531     14529     14532
     14533     14529     14532     14533     14529     14531     14533     14529     14530
     14535     14539     14540     14536     14535     14538     14536     14535     14537
     14537     14535     14538     14539     14535     14538     14539     14535     14537
     14539     14535     14536     14541     14545     14546     14542     14541     14544
     14542     14541     14543     14543     14541     14544     14545     14541     14544
     14545     14541     14543     14545     14541     14542     14547     14551     14552
     14548     14547     14550     14548     14547     14549     14549     14547     14550
     14551     14547     14550     14551     14547     14549     14551     14547     14548
     14553     14557     14558     14554     14553     14556     14554     14553     14555
     14555     14553     14556     14557     14553     14556     14557     14553     14555
     14557     14553     14554     14559     14563     14564     14560     14559     14562
     14560     14559     14561     14561     14559     14562     14563     14559     14562
     14563     14559     14561     14563     14559     14560     14565     14569     14570
     14566     14565     14568     14566     14565     14567     14567     14565     14568
     14569     14565     14568     14569     14565     14567     14569     14565     14566
     14571     14575     14576     14572     14571     14574     14572     14571     14573
     14573     14571     14574     14575     14571     14574     14575     14571     14573
     14575     14571     14572     14577     14581     14582     14578     14577     14580
     14578     14577     14579     14579     14577     14580     14581     14577     14580
     14581     14577     14579     14581     14577     14578     14583     14587     14588
     14584     14583     14586     14584     14583     14585     14585     14583     14586
     14587     14583     14586     14587     14583     14585     14587     14583     14584
     14589     14593     14594     14590     14589     14592     14590     14589     14591
     14591     14589     14592     14593     14589     14592     14593     14589     14591
     14593     14589     14590     14595     14599     14600     14596     14595     14598
     14596     14595     14597     14597     14595     14598     14599     14595     14598
     14599     14595     14597     14599     14595     14596     14601     14605     14606
     14602     14601     14604     14602     14601     14603     14603     14601     14604
     14605     14601     14604     14605     14601     14603     14605     14601     14602
     14607     14611     14612     14608     14607     14610     14608     14607     14609
     14609     14607     14610     14611     14607     14610     14611     14607     14609
     14611     14607     14608     14613     14617     14618     14614     14613     14616
     14614     14613     14615     14615     14613     14616     14617     14613     14616
     14617     14613     14615     14617     14613     14614     14619     14623     14624
     14620     14619     14622     14620     14619     14621     14621     14619     14622
     14623     14619     14622     14623     14619     14621     14623     14619     14620
     14625     14629     14630     14626     14625     14628     14626     14625     14627
     14627     14625     14628     14629     14625     14628     14629     14625     14627
     14629     14625     14626     14631     14635     14636     14632     14631     14634
     14632     14631     14633     14633     14631     14634     14635     14631     14634
     14635     14631     14633     14635     14631     14632     14637     14641     14642
     14638     14637     14640     14638     14637     14639     14639     14637     14640
     14641     14637     14640     14641     14637     14639     14641     14637     14638
     14643     14647     14648     14644     14643     14646     14644     14643     14645
     14645     14643     14646     14647     14643     14646     14647     14643     14645
     14647     14643     14644     14649     14653     14654     14650     14649     14652
     14650     14649     14651     14651     14649     14652     14653     14649     14652
     14653     14649     14651     14653     14649     14650     14655     14659     14660
     14656     14655     14658     14656     14655     14657     14657     14655     14658
     14659     14655     14658     14659     14655     14657     14659     14655     14656
     14661     14665     14666     14662     14661     14664     14662     14661     14663
     14663     14661     14664     14665     14661     14664     14665     14661     14663
     14665     14661     14662     14667     14671     14672     14668     14667     14670
     14668     14667     14669     14669     14667     14670     14671     14667     14670
     14671     14667     14669     14671     14667     14668     14673     14677     14678
     14674     14673     14676     14674     14673     14675     14675     14673     14676
     14677     14673     14676     14677     14673     14675     14677     14673     14674
     14679     14683     14684     14680     14679     14682     14680     14679     14681
     14681     14679     14682     14683     14679     14682     14683     14679     14681
     14683     14679     14680     14685     14689     14690     14686     14685     14688
     14686     14685     14687     14687     14685     14688     14689     14685     14688
     14689     14685     14687     14689     14685     14686     14691     14695     14696
     14692     14691     14694     14692     14691     14693     14693     14691     14694
     14695     14691     14694     14695     14691     14693     14695     14691     14692
     14697     14701     14702     14698     14697     14700     14698     14697     14699
     14699     14697     14700     14701     14697     14700     14701     14697     14699
     14701     14697     14698     14703     14707     14708     14704     14703     14706
     14704     14703     14705     14705     14703     14706     14707     14703     14706
     14707     14703     14705     14707     14703     14704     14709     14713     14714
     14710     14709     14712     14710     14709     14711     14711     14709     14712
     14713     14709     14712     14713     14709     14711     14713     14709     14710
     14715     14719     14720     14716     14715     14718     14716     14715     14717
     14717     14715     14718     14719     14715     14718     14719     14715     14717
     14719     14715     14716     14721     14725     14726     14722     14721     14724
     14722     14721     14723     14723     14721     14724     14725     14721     14724
     14725     14721     14723     14725     14721     14722     14727     14731     14732
     14728     14727     14730     14728     14727     14729     14729     14727     14730
     14731     14727     14730     14731     14727     14729     14731     14727     14728
     14733     14737     14738     14734     14733     14736     14734     14733     14735
     14735     14733     14736     14737     14733     14736     14737     14733     14735
     14737     14733     14734     14739     14743     14744     14740     14739     14742
     14740     14739     14741     14741     14739     14742     14743     14739     14742
     14743     14739     14741     14743     14739     14740     14745     14749     14750
     14746     14745     14748     14746     14745     14747     14747     14745     14748
     14749     14745     14748     14749     14745     14747     14749     14745     14746
     14751     14755     14756     14752     14751     14754     14752     14751     14753
     14753     14751     14754     14755     14751     14754     14755     14751     14753
     14755     14751     14752     14757     14761     14762     14758     14757     14760
     14758     14757     14759     14759     14757     14760     14761     14757     14760
     14761     14757     14759     14761     14757     14758     14763     14767     14768
     14764     14763     14766     14764     14763     14765     14765     14763     14766
     14767     14763     14766     14767     14763     14765     14767     14763     14764
     14769     14773     14774     14770     14769     14772     14770     14769     14771
     14771     14769     14772     14773     14769     14772     14773     14769     14771
     14773     14769     14770     14775     14779     14780     14776     14775     14778
     14776     14775     14777     14777     14775     14778     14779     14775     14778
     14779     14775     14777     14779     14775     14776     14781     14785     14786
     14782     14781     14784     14782     14781     14783     14783     14781     14784
     14785     14781     14784     14785     14781     14783     14785     14781     14782
     14787     14791     14792     14788     14787     14790     14788     14787     14789
     14789     14787     14790     14791     14787     14790     14791     14787     14789
     14791     14787     14788     14793     14797     14798     14794     14793     14796
     14794     14793     14795     14795     14793     14796     14797     14793     14796
     14797     14793     14795     14797     14793     14794     14799     14803     14804
     14800     14799     14802     14800     14799     14801     14801     14799     14802
     14803     14799     14802     14803     14799     14801     14803     14799     14800
     14805     14809     14810     14806     14805     14808     14806     14805     14807
     14807     14805     14808     14809     14805     14808     14809     14805     14807
     14809     14805     14806     14811     14815     14816     14812     14811     14814
     14812     14811     14813     14813     14811     14814     14815     14811     14814
     14815     14811     14813     14815     14811     14812     14817     14821     14822
     14818     14817     14820     14818     14817     14819     14819     14817     14820
     14821     14817     14820     14821     14817     14819     14821     14817     14818
     14823     14827     14828     14824     14823     14826     14824     14823     14825
     14825     14823     14826     14827     14823     14826     14827     14823     14825
     14827     14823     14824     14829     14833     14834     14830     14829     14832
     14830     14829     14831     14831     14829     14832     14833     14829     14832
     14833     14829     14831     14833     14829     14830     14835     14839     14840
     14836     14835     14838     14836     14835     14837     14837     14835     14838
     14839     14835     14838     14839     14835     14837     14839     14835     14836
     14841     14845     14846     14842     14841     14844     14842     14841     14843
     14843     14841     14844     14845     14841     14844     14845     14841     14843
     14845     14841     14842     14847     14851     14852     14848     14847     14850
     14848     14847     14849     14849     14847     14850     14851     14847     14850
     14851     14847     14849     14851     14847     14848     14853     14857     14858
     14854     14853     14856     14854     14853     14855     14855     14853     14856
     14857     14853     14856     14857     14853     14855     14857     14853     14854
     14859     14863     14864     14860     14859     14862     14860     14859     14861
     14861     14859     14862     14863     14859     14862     14863     14859     14861
     14863     14859     14860     14865     14869     14870     14866     14865     14868
     14866     14865     14867     14867     14865     14868     14869     14865     14868
     14869     14865     14867     14869     14865     14866     14871     14875     14876
     14872     14871     14874     14872     14871     14873     14873     14871     14874
     14875     14871     14874     14875     14871     14873     14875     14871     14872
     14877     14881     14882     14878     14877     14880     14878     14877     14879
     14879     14877     14880     14881     14877     14880     14881     14877     14879
     14881     14877     14878     14883     14887     14888     14884     14883     14886
     14884     14883     14885     14885     14883     14886     14887     14883     14886
     14887     14883     14885     14887     14883     14884     14889     14893     14894
     14890     14889     14892     14890     14889     14891     14891     14889     14892
     14893     14889     14892     14893     14889     14891     14893     14889     14890
     14895     14899     14900     14896     14895     14898     14896     14895     14897
     14897     14895     14898     14899     14895     14898     14899     14895     14897
     14899     14895     14896     14901     14905     14906     14902     14901     14904
     14902     14901     14903     14903     14901     14904     14905     14901     14904
     14905     14901     14903     14905     14901     14902     14907     14911     14912
     14908     14907     14910     14908     14907     14909     14909     14907     14910
     14911     14907     14910     14911     14907     14909     14911     14907     14908
     14913     14917     14918     14914     14913     14916     14914     14913     14915
     14915     14913     14916     14917     14913     14916     14917     14913     14915
     14917     14913     14914     14919     14923     14924     14920     14919     14922
     14920     14919     14921     14921     14919     14922     14923     14919     14922
     14923     14919     14921     14923     14919     14920     14925     14929     14930
     14926     14925     14928     14926     14925     14927     14927     14925     14928
     14929     14925     14928     14929     14925     14927     14929     14925     14926
     14931     14935     14936     14932     14931     14934     14932     14931     14933
     14933     14931     14934     14935     14931     14934     14935     14931     14933
     14935     14931     14932     14937     14941     14942     14938     14937     14940
     14938     14937     14939     14939     14937     14940     14941     14937     14940
     14941     14937     14939     14941     14937     14938     14943     14947     14948
     14944     14943     14946     14944     14943     14945     14945     14943     14946
     14947     14943     14946     14947     14943     14945     14947     14943     14944
     14949     14953     14954     14950     14949     14952     14950     14949     14951
     14951     14949     14952     14953     14949     14952     14953     14949     14951
     14953     14949     14950     14955     14959     14960     14956     14955     14958
     14956     14955     14957     14957     14955     14958     14959     14955     14958
     14959     14955     14957     14959     14955     14956     14961     14965     14966
     14962     14961     14964     14962     14961     14963     14963     14961     14964
     14965     14961     14964     14965     14961     14963     14965     14961     14962
     14967     14971     14972     14968     14967     14970     14968     14967     14969
     14969     14967     14970     14971     14967     14970     14971     14967     14969
     14971     14967     14968     14973     14977     14978     14974     14973     14976
     14974     14973     14975     14975     14973     14976     14977     14973     14976
     14977     14973     14975     14977     14973     14974     14979     14983     14984
     14980     14979     14982     14980     14979     14981     14981     14979     14982
     14983     14979     14982     14983     14979     14981     14983     14979     14980
     14985     14989     14990     14986     14985     14988     14986     14985     14987
     14987     14985     14988     14989     14985     14988     14989     14985     14987
     14989     14985     14986     14991     14995     14996     14992     14991     14994
     14992     14991     14993     14993     14991     14994     14995     14991     14994
     14995     14991     14993     14995     14991     14992     14997     15001     15002
     14998     14997     15000     14998     14997     14999     14999     14997     15000
     15001     14997     15000     15001     14997     14999     15001     14997     14998
     15003     15007     15008     15004     15003     15006     15004     15003     15005
     15005     15003     15006     15007     15003     15006     15007     15003     15005
     15007     15003     15004     15009     15013     15014     15010     15009     15012
     15010     15009     15011     15011     15009     15012     15013     15009     15012
     15013     15009     15011     15013     15009     15010     15015     15019     15020
     15016     15015     15018     15016     15015     15017     15017     15015     15018
     15019     15015     15018     15019     15015     15017     15019     15015     15016
     15021     15025     15026     15022     15021     15024     15022     15021     15023
     15023     15021     15024     15025     15021     15024     15025     15021     15023
     15025     15021     15022     15027     15031     15032     15028     15027     15030
     15028     15027     15029     15029     15027     15030     15031     15027     15030
     15031     15027     15029     15031     15027     15028     15033     15037     15038
     15034     15033     15036     15034     15033     15035     15035     15033     15036
     15037     15033     15036     15037     15033     15035     15037     15033     15034
     15039     15043     15044     15040     15039     15042     15040     15039     15041
     15041     15039     15042     15043     15039     15042     15043     15039     15041
     15043     15039     15040     15045     15049     15050     15046     15045     15048
     15046     15045     15047     15047     15045     15048     15049     15045     15048
     15049     15045     15047     15049     15045     15046     15051     15055     15056
     15052     15051     15054     15052     15051     15053     15053     15051     15054
     15055     15051     15054     15055     15051     15053     15055     15051     15052
     15057     15061     15062     15058     15057     15060     15058     15057     15059
     15059     15057     15060     15061     15057     15060     15061     15057     15059
     15061     15057     15058     15063     15067     15068     15064     15063     15066
     15064     15063     15065     15065     15063     15066     15067     15063     15066
     15067     15063     15065     15067     15063     15064     15069     15073     15074
     15070     15069     15072     15070     15069     15071     15071     15069     15072
     15073     15069     15072     15073     15069     15071     15073     15069     15070
     15075     15079     15080     15076     15075     15078     15076     15075     15077
     15077     15075     15078     15079     15075     15078     15079     15075     15077
     15079     15075     15076     15081     15085     15086     15082     15081     15084
     15082     15081     15083     15083     15081     15084     15085     15081     15084
     15085     15081     15083     15085     15081     15082     15087     15091     15092
     15088     15087     15090     15088     15087     15089     15089     15087     15090
     15091     15087     15090     15091     15087     15089     15091     15087     15088
     15093     15097     15098     15094     15093     15096     15094     15093     15095
     15095     15093     15096     15097     15093     15096     15097     15093     15095
     15097     15093     15094     15099     15103     15104     15100     15099     15102
     15100     15099     15101     15101     15099     15102     15103     15099     15102
     15103     15099     15101     15103     15099     15100     15105     15109     15110
     15106     15105     15108     15106     15105     15107     15107     15105     15108
     15109     15105     15108     15109     15105     15107     15109     15105     15106
     15111     15115     15116     15112     15111     15114     15112     15111     15113
     15113     15111     15114     15115     15111     15114     15115     15111     15113
     15115     15111     15112     15117     15121     15122     15118     15117     15120
     15118     15117     15119     15119     15117     15120     15121     15117     15120
     15121     15117     15119     15121     15117     15118     15123     15127     15128
     15124     15123     15126     15124     15123     15125     15125     15123     15126
     15127     15123     15126     15127     15123     15125     15127     15123     15124
     15129     15133     15134     15130     15129     15132     15130     15129     15131
     15131     15129     15132     15133     15129     15132     15133     15129     15131
     15133     15129     15130     15135     15139     15140     15136     15135     15138
     15136     15135     15137     15137     15135     15138     15139     15135     15138
     15139     15135     15137     15139     15135     15136     15141     15145     15146
     15142     15141     15144     15142     15141     15143     15143     15141     15144
     15145     15141     15144     15145     15141     15143     15145     15141     15142
     15147     15151     15152     15148     15147     15150     15148     15147     15149
     15149     15147     15150     15151     15147     15150     15151     15147     15149
     15151     15147     15148     15153     15157     15158     15154     15153     15156
     15154     15153     15155     15155     15153     15156     15157     15153     15156
     15157     15153     15155     15157     15153     15154     15159     15163     15164
     15160     15159     15162     15160     15159     15161     15161     15159     15162
     15163     15159     15162     15163     15159     15161     15163     15159     15160
     15165     15169     15170     15166     15165     15168     15166     15165     15167
     15167     15165     15168     15169     15165     15168     15169     15165     15167
     15169     15165     15166     15171     15175     15176     15172     15171     15174
     15172     15171     15173     15173     15171     15174     15175     15171     15174
     15175     15171     15173     15175     15171     15172     15177     15181     15182
     15178     15177     15180     15178     15177     15179     15179     15177     15180
     15181     15177     15180     15181     15177     15179     15181     15177     15178
     15183     15187     15188     15184     15183     15186     15184     15183     15185
     15185     15183     15186     15187     15183     15186     15187     15183     15185
     15187     15183     15184     15189     15193     15194     15190     15189     15192
     15190     15189     15191     15191     15189     15192     15193     15189     15192
     15193     15189     15191     15193     15189     15190     15195     15199     15200
     15196     15195     15198     15196     15195     15197     15197     15195     15198
     15199     15195     15198     15199     15195     15197     15199     15195     15196
     15201     15205     15206     15202     15201     15204     15202     15201     15203
     15203     15201     15204     15205     15201     15204     15205     15201     15203
     15205     15201     15202     15207     15211     15212     15208     15207     15210
     15208     15207     15209     15209     15207     15210     15211     15207     15210
     15211     15207     15209     15211     15207     15208     15213     15217     15218
     15214     15213     15216     15214     15213     15215     15215     15213     15216
     15217     15213     15216     15217     15213     15215     15217     15213     15214
     15219     15223     15224     15220     15219     15222     15220     15219     15221
     15221     15219     15222     15223     15219     15222     15223     15219     15221
     15223     15219     15220     15225     15229     15230     15226     15225     15228
     15226     15225     15227     15227     15225     15228     15229     15225     15228
     15229     15225     15227     15229     15225     15226     15231     15235     15236
     15232     15231     15234     15232     15231     15233     15233     15231     15234
     15235     15231     15234     15235     15231     15233     15235     15231     15232
     15237     15241     15242     15238     15237     15240     15238     15237     15239
     15239     15237     15240     15241     15237     15240     15241     15237     15239
     15241     15237     15238     15243     15247     15248     15244     15243     15246
     15244     15243     15245     15245     15243     15246     15247     15243     15246
     15247     15243     15245     15247     15243     15244     15249     15253     15254
     15250     15249     15252     15250     15249     15251     15251     15249     15252
     15253     15249     15252     15253     15249     15251     15253     15249     15250
     15255     15259     15260     15256     15255     15258     15256     15255     15257
     15257     15255     15258     15259     15255     15258     15259     15255     15257
     15259     15255     15256     15261     15265     15266     15262     15261     15264
     15262     15261     15263     15263     15261     15264     15265     15261     15264
     15265     15261     15263     15265     15261     15262     15267     15271     15272
     15268     15267     15270     15268     15267     15269     15269     15267     15270
     15271     15267     15270     15271     15267     15269     15271     15267     15268
     15273     15277     15278     15274     15273     15276     15274     15273     15275
     15275     15273     15276     15277     15273     15276     15277     15273     15275
     15277     15273     15274     15279     15283     15284     15280     15279     15282
     15280     15279     15281     15281     15279     15282     15283     15279     15282
     15283     15279     15281     15283     15279     15280     15285     15289     15290
     15286     15285     15288     15286     15285     15287     15287     15285     15288
     15289     15285     15288     15289     15285     15287     15289     15285     15286
     15291     15295     15296     15292     15291     15294     15292     15291     15293
     15293     15291     15294     15295     15291     15294     15295     15291     15293
     15295     15291     15292     15297     15301     15302     15298     15297     15300
     15298     15297     15299     15299     15297     15300     15301     15297     15300
     15301     15297     15299     15301     15297     15298     15303     15307     15308
     15304     15303     15306     15304     15303     15305     15305     15303     15306
     15307     15303     15306     15307     15303     15305     15307     15303     15304
     15309     15313     15314     15310     15309     15312     15310     15309     15311
     15311     15309     15312     15313     15309     15312     15313     15309     15311
     15313     15309     15310     15315     15319     15320     15316     15315     15318
     15316     15315     15317     15317     15315     15318     15319     15315     15318
     15319     15315     15317     15319     15315     15316     15321     15325     15326
     15322     15321     15324     15322     15321     15323     15323     15321     15324
     15325     15321     15324     15325     15321     15323     15325     15321     15322
     15327     15331     15332     15328     15327     15330     15328     15327     15329
     15329     15327     15330     15331     15327     15330     15331     15327     15329
     15331     15327     15328     15333     15337     15338     15334     15333     15336
     15334     15333     15335     15335     15333     15336     15337     15333     15336
     15337     15333     15335     15337     15333     15334     15339     15343     15344
     15340     15339     15342     15340     15339     15341     15341     15339     15342
     15343     15339     15342     15343     15339     15341     15343     15339     15340
     15345     15349     15350     15346     15345     15348     15346     15345     15347
     15347     15345     15348     15349     15345     15348     15349     15345     15347
     15349     15345     15346     15351     15355     15356     15352     15351     15354
     15352     15351     15353     15353     15351     15354     15355     15351     15354
     15355     15351     15353     15355     15351     15352     15357     15361     15362
     15358     15357     15360     15358     15357     15359     15359     15357     15360
     15361     15357     15360     15361     15357     15359     15361     15357     15358
     15363     15367     15368     15364     15363     15366     15364     15363     15365
     15365     15363     15366     15367     15363     15366     15367     15363     15365
     15367     15363     15364     15369     15373     15374     15370     15369     15372
     15370     15369     15371     15371     15369     15372     15373     15369     15372
     15373     15369     15371     15373     15369     15370     15375     15379     15380
     15376     15375     15378     15376     15375     15377     15377     15375     15378
     15379     15375     15378     15379     15375     15377     15379     15375     15376
     15381     15385     15386     15382     15381     15384     15382     15381     15383
     15383     15381     15384     15385     15381     15384     15385     15381     15383
     15385     15381     15382     15387     15391     15392     15388     15387     15390
     15388     15387     15389     15389     15387     15390     15391     15387     15390
     15391     15387     15389     15391     15387     15388     15393     15397     15398
     15394     15393     15396     15394     15393     15395     15395     15393     15396
     15397     15393     15396     15397     15393     15395     15397     15393     15394
     15399     15403     15404     15400     15399     15402     15400     15399     15401
     15401     15399     15402     15403     15399     15402     15403     15399     15401
     15403     15399     15400     15405     15409     15410     15406     15405     15408
     15406     15405     15407     15407     15405     15408     15409     15405     15408
     15409     15405     15407     15409     15405     15406     15411     15415     15416
     15412     15411     15414     15412     15411     15413     15413     15411     15414
     15415     15411     15414     15415     15411     15413     15415     15411     15412
     15417     15421     15422     15418     15417     15420     15418     15417     15419
     15419     15417     15420     15421     15417     15420     15421     15417     15419
     15421     15417     15418     15423     15427     15428     15424     15423     15426
     15424     15423     15425     15425     15423     15426     15427     15423     15426
     15427     15423     15425     15427     15423     15424     15429     15433     15434
     15430     15429     15432     15430     15429     15431     15431     15429     15432
     15433     15429     15432     15433     15429     15431     15433     15429     15430
     15435     15439     15440     15436     15435     15438     15436     15435     15437
     15437     15435     15438     15439     15435     15438     15439     15435     15437
     15439     15435     15436     15441     15445     15446     15442     15441     15444
     15442     15441     15443     15443     15441     15444     15445     15441     15444
     15445     15441     15443     15445     15441     15442     15447     15451     15452
     15448     15447     15450     15448     15447     15449     15449     15447     15450
     15451     15447     15450     15451     15447     15449     15451     15447     15448
     15453     15457     15458     15454     15453     15456     15454     15453     15455
     15455     15453     15456     15457     15453     15456     15457     15453     15455
     15457     15453     15454     15459     15463     15464     15460     15459     15462
     15460     15459     15461     15461     15459     15462     15463     15459     15462
     15463     15459     15461     15463     15459     15460     15465     15469     15470
     15466     15465     15468     15466     15465     15467     15467     15465     15468
     15469     15465     15468     15469     15465     15467     15469     15465     15466
     15471     15475     15476     15472     15471     15474     15472     15471     15473
     15473     15471     15474     15475     15471     15474     15475     15471     15473
     15475     15471     15472     15477     15481     15482     15478     15477     15480
     15478     15477     15479     15479     15477     15480     15481     15477     15480
     15481     15477     15479     15481     15477     15478     15483     15487     15488
     15484     15483     15486     15484     15483     15485     15485     15483     15486
     15487     15483     15486     15487     15483     15485     15487     15483     15484
     15489     15493     15494     15490     15489     15492     15490     15489     15491
     15491     15489     15492     15493     15489     15492     15493     15489     15491
     15493     15489     15490     15495     15499     15500     15496     15495     15498
     15496     15495     15497     15497     15495     15498     15499     15495     15498
     15499     15495     15497     15499     15495     15496     15501     15505     15506
     15502     15501     15504     15502     15501     15503     15503     15501     15504
     15505     15501     15504     15505     15501     15503     15505     15501     15502
     15507     15511     15512     15508     15507     15510     15508     15507     15509
     15509     15507     15510     15511     15507     15510     15511     15507     15509
     15511     15507     15508     15513     15517     15518     15514     15513     15516
     15514     15513     15515     15515     15513     15516     15517     15513     15516
     15517     15513     15515     15517     15513     15514     15519     15523     15524
     15520     15519     15522     15520     15519     15521     15521     15519     15522
     15523     15519     15522     15523     15519     15521     15523     15519     15520
     15525     15529     15530     15526     15525     15528     15526     15525     15527
     15527     15525     15528     15529     15525     15528     15529     15525     15527
     15529     15525     15526     15531     15535     15536     15532     15531     15534
     15532     15531     15533     15533     15531     15534     15535     15531     15534
     15535     15531     15533     15535     15531     15532     15537     15541     15542
     15538     15537     15540     15538     15537     15539     15539     15537     15540
     15541     15537     15540     15541     15537     15539     15541     15537     15538
     15543     15547     15548     15544     15543     15546     15544     15543     15545
     15545     15543     15546     15547     15543     15546     15547     15543     15545
     15547     15543     15544     15549     15553     15554     15550     15549     15552
     15550     15549     15551     15551     15549     15552     15553     15549     15552
     15553     15549     15551     15553     15549     15550     15555     15559     15560
     15556     15555     15558     15556     15555     15557     15557     15555     15558
     15559     15555     15558     15559     15555     15557     15559     15555     15556
     15561     15565     15566     15562     15561     15564     15562     15561     15563
     15563     15561     15564     15565     15561     15564     15565     15561     15563
     15565     15561     15562     15567     15571     15572     15568     15567     15570
     15568     15567     15569     15569     15567     15570     15571     15567     15570
     15571     15567     15569     15571     15567     15568     15573     15577     15578
     15574     15573     15576     15574     15573     15575     15575     15573     15576
     15577     15573     15576     15577     15573     15575     15577     15573     15574
     15579     15583     15584     15580     15579     15582     15580     15579     15581
     15581     15579     15582     15583     15579     15582     15583     15579     15581
     15583     15579     15580     15585     15589     15590     15586     15585     15588
     15586     15585     15587     15587     15585     15588     15589     15585     15588
     15589     15585     15587     15589     15585     15586     15591     15595     15596
     15592     15591     15594     15592     15591     15593     15593     15591     15594
     15595     15591     15594     15595     15591     15593     15595     15591     15592
     15597     15601     15602     15598     15597     15600     15598     15597     15599
     15599     15597     15600     15601     15597     15600     15601     15597     15599
     15601     15597     15598     15603     15607     15608     15604     15603     15606
     15604     15603     15605     15605     15603     15606     15607     15603     15606
     15607     15603     15605     15607     15603     15604     15609     15613     15614
     15610     15609     15612     15610     15609     15611     15611     15609     15612
     15613     15609     15612     15613     15609     15611     15613     15609     15610
     15615     15619     15620     15616     15615     15618     15616     15615     15617
     15617     15615     15618     15619     15615     15618     15619     15615     15617
     15619     15615     15616     15621     15625     15626     15622     15621     15624
     15622     15621     15623     15623     15621     15624     15625     15621     15624
     15625     15621     15623     15625     15621     15622     15627     15631     15632
     15628     15627     15630     15628     15627     15629     15629     15627     15630
     15631     15627     15630     15631     15627     15629     15631     15627     15628
     15633     15637     15638     15634     15633     15636     15634     15633     15635
     15635     15633     15636     15637     15633     15636     15637     15633     15635
     15637     15633     15634     15639     15643     15644     15640     15639     15642
     15640     15639     15641     15641     15639     15642     15643     15639     15642
     15643     15639     15641     15643     15639     15640     15645     15649     15650
     15646     15645     15648     15646     15645     15647     15647     15645     15648
     15649     15645     15648     15649     15645     15647     15649     15645     15646
     15651     15655     15656     15652     15651     15654     15652     15651     15653
     15653     15651     15654     15655     15651     15654     15655     15651     15653
     15655     15651     15652     15657     15661     15662     15658     15657     15660
     15658     15657     15659     15659     15657     15660     15661     15657     15660
     15661     15657     15659     15661     15657     15658     15663     15667     15668
     15664     15663     15666     15664     15663     15665     15665     15663     15666
     15667     15663     15666     15667     15663     15665     15667     15663     15664
     15669     15673     15674     15670     15669     15672     15670     15669     15671
     15671     15669     15672     15673     15669     15672     15673     15669     15671
     15673     15669     15670     15675     15679     15680     15676     15675     15678
     15676     15675     15677     15677     15675     15678     15679     15675     15678
     15679     15675     15677     15679     15675     15676     15681     15685     15686
     15682     15681     15684     15682     15681     15683     15683     15681     15684
     15685     15681     15684     15685     15681     15683     15685     15681     15682
     15687     15691     15692     15688     15687     15690     15688     15687     15689
     15689     15687     15690     15691     15687     15690     15691     15687     15689
     15691     15687     15688     15693     15697     15698     15694     15693     15696
     15694     15693     15695     15695     15693     15696     15697     15693     15696
     15697     15693     15695     15697     15693     15694     15699     15703     15704
     15700     15699     15702     15700     15699     15701     15701     15699     15702
     15703     15699     15702     15703     15699     15701     15703     15699     15700
     15705     15709     15710     15706     15705     15708     15706     15705     15707
     15707     15705     15708     15709     15705     15708     15709     15705     15707
     15709     15705     15706     15711     15715     15716     15712     15711     15714
     15712     15711     15713     15713     15711     15714     15715     15711     15714
     15715     15711     15713     15715     15711     15712     15717     15721     15722
     15718     15717     15720     15718     15717     15719     15719     15717     15720
     15721     15717     15720     15721     15717     15719     15721     15717     15718
     15723     15727     15728     15724     15723     15726     15724     15723     15725
     15725     15723     15726     15727     15723     15726     15727     15723     15725
     15727     15723     15724     15729     15733     15734     15730     15729     15732
     15730     15729     15731     15731     15729     15732     15733     15729     15732
     15733     15729     15731     15733     15729     15730     15735     15739     15740
     15736     15735     15738     15736     15735     15737     15737     15735     15738
     15739     15735     15738     15739     15735     15737     15739     15735     15736
     15741     15745     15746     15742     15741     15744     15742     15741     15743
     15743     15741     15744     15745     15741     15744     15745     15741     15743
     15745     15741     15742     15747     15751     15752     15748     15747     15750
     15748     15747     15749     15749     15747     15750     15751     15747     15750
     15751     15747     15749     15751     15747     15748     15753     15757     15758
     15754     15753     15756     15754     15753     15755     15755     15753     15756
     15757     15753     15756     15757     15753     15755     15757     15753     15754
     15759     15763     15764     15760     15759     15762     15760     15759     15761
     15761     15759     15762     15763     15759     15762     15763     15759     15761
     15763     15759     15760     15765     15769     15770     15766     15765     15768
     15766     15765     15767     15767     15765     15768     15769     15765     15768
     15769     15765     15767     15769     15765     15766     15771     15775     15776
     15772     15771     15774     15772     15771     15773     15773     15771     15774
     15775     15771     15774     15775     15771     15773     15775     15771     15772
     15777     15781     15782     15778     15777     15780     15778     15777     15779
     15779     15777     15780     15781     15777     15780     15781     15777     15779
     15781     15777     15778     15783     15787     15788     15784     15783     15786
     15784     15783     15785     15785     15783     15786     15787     15783     15786
     15787     15783     15785     15787     15783     15784     15789     15793     15794
     15790     15789     15792     15790     15789     15791     15791     15789     15792
     15793     15789     15792     15793     15789     15791     15793     15789     15790
     15795     15799     15800     15796     15795     15798     15796     15795     15797
     15797     15795     15798     15799     15795     15798     15799     15795     15797
     15799     15795     15796     15801     15805     15806     15802     15801     15804
     15802     15801     15803     15803     15801     15804     15805     15801     15804
     15805     15801     15803     15805     15801     15802     15807     15811     15812
     15808     15807     15810     15808     15807     15809     15809     15807     15810
     15811     15807     15810     15811     15807     15809     15811     15807     15808
     15813     15817     15818     15814     15813     15816     15814     15813     15815
     15815     15813     15816     15817     15813     15816     15817     15813     15815
     15817     15813     15814     15819     15823     15824     15820     15819     15822
     15820     15819     15821     15821     15819     15822     15823     15819     15822
     15823     15819     15821     15823     15819     15820     15825     15829     15830
     15826     15825     15828     15826     15825     15827     15827     15825     15828
     15829     15825     15828     15829     15825     15827     15829     15825     15826
     15831     15835     15836     15832     15831     15834     15832     15831     15833
     15833     15831     15834     15835     15831     15834     15835     15831     15833
     15835     15831     15832     15837     15841     15842     15838     15837     15840
     15838     15837     15839     15839     15837     15840     15841     15837     15840
     15841     15837     15839     15841     15837     15838     15843     15847     15848
     15844     15843     15846     15844     15843     15845     15845     15843     15846
     15847     15843     15846     15847     15843     15845     15847     15843     15844
     15849     15853     15854     15850     15849     15852     15850     15849     15851
     15851     15849     15852     15853     15849     15852     15853     15849     15851
     15853     15849     15850     15855     15859     15860     15856     15855     15858
     15856     15855     15857     15857     15855     15858     15859     15855     15858
     15859     15855     15857     15859     15855     15856     15861     15865     15866
     15862     15861     15864     15862     15861     15863     15863     15861     15864
     15865     15861     15864     15865     15861     15863     15865     15861     15862
     15867     15871     15872     15868     15867     15870     15868     15867     15869
     15869     15867     15870     15871     15867     15870     15871     15867     15869
     15871     15867     15868     15873     15877     15878     15874     15873     15876
     15874     15873     15875     15875     15873     15876     15877     15873     15876
     15877     15873     15875     15877     15873     15874     15879     15883     15884
     15880     15879     15882     15880     15879     15881     15881     15879     15882
     15883     15879     15882     15883     15879     15881     15883     15879     15880
     15885     15889     15890     15886     15885     15888     15886     15885     15887
     15887     15885     15888     15889     15885     15888     15889     15885     15887
     15889     15885     15886     15891     15895     15896     15892     15891     15894
     15892     15891     15893     15893     15891     15894     15895     15891     15894
     15895     15891     15893     15895     15891     15892     15897     15901     15902
     15898     15897     15900     15898     15897     15899     15899     15897     15900
     15901     15897     15900     15901     15897     15899     15901     15897     15898
     15903     15907     15908     15904     15903     15906     15904     15903     15905
     15905     15903     15906     15907     15903     15906     15907     15903     15905
     15907     15903     15904     15909     15913     15914     15910     15909     15912
     15910     15909     15911     15911     15909     15912     15913     15909     15912
     15913     15909     15911     15913     15909     15910     15915     15919     15920
     15916     15915     15918     15916     15915     15917     15917     15915     15918
     15919     15915     15918     15919     15915     15917     15919     15915     15916
     15921     15925     15926     15922     15921     15924     15922     15921     15923
     15923     15921     15924     15925     15921     15924     15925     15921     15923
     15925     15921     15922     15927     15931     15932     15928     15927     15930
     15928     15927     15929     15929     15927     15930     15931     15927     15930
     15931     15927     15929     15931     15927     15928     15933     15937     15938
     15934     15933     15936     15934     15933     15935     15935     15933     15936
     15937     15933     15936     15937     15933     15935     15937     15933     15934
     15939     15943     15944     15940     15939     15942     15940     15939     15941
     15941     15939     15942     15943     15939     15942     15943     15939     15941
     15943     15939     15940     15945     15949     15950     15946     15945     15948
     15946     15945     15947     15947     15945     15948     15949     15945     15948
     15949     15945     15947     15949     15945     15946     15951     15955     15956
     15952     15951     15954     15952     15951     15953     15953     15951     15954
     15955     15951     15954     15955     15951     15953     15955     15951     15952
     15957     15961     15962     15958     15957     15960     15958     15957     15959
     15959     15957     15960     15961     15957     15960     15961     15957     15959
     15961     15957     15958     15963     15967     15968     15964     15963     15966
     15964     15963     15965     15965     15963     15966     15967     15963     15966
     15967     15963     15965     15967     15963     15964     15969     15973     15974
     15970     15969     15972     15970     15969     15971     15971     15969     15972
     15973     15969     15972     15973     15969     15971     15973     15969     15970
     15975     15979     15980     15976     15975     15978     15976     15975     15977
     15977     15975     15978     15979     15975     15978     15979     15975     15977
     15979     15975     15976     15981     15985     15986     15982     15981     15984
     15982     15981     15983     15983     15981     15984     15985     15981     15984
     15985     15981     15983     15985     15981     15982     15987     15991     15992
     15988     15987     15990     15988     15987     15989     15989     15987     15990
     15991     15987     15990     15991     15987     15989     15991     15987     15988
     15993     15997     15998     15994     15993     15996     15994     15993     15995
     15995     15993     15996     15997     15993     15996     15997     15993     15995
     15997     15993     15994     15999     16003     16004     16000     15999     16002
     16000     15999     16001     16001     15999     16002     16003     15999     16002
     16003     15999     16001     16003     15999     16000     16005     16009     16010
     16006     16005     16008     16006     16005     16007     16007     16005     16008
     16009     16005     16008     16009     16005     16007     16009     16005     16006
     16011     16015     16016     16012     16011     16014     16012     16011     16013
     16013     16011     16014     16015     16011     16014     16015     16011     16013
     16015     16011     16012     16017     16021     16022     16018     16017     16020
     16018     16017     16019     16019     16017     16020     16021     16017     16020
     16021     16017     16019     16021     16017     16018     16023     16027     16028
     16024     16023     16026     16024     16023     16025     16025     16023     16026
     16027     16023     16026     16027     16023     16025     16027     16023     16024
     16029     16033     16034     16030     16029     16032     16030     16029     16031
     16031     16029     16032     16033     16029     16032     16033     16029     16031
     16033     16029     16030     16035     16039     16040     16036     16035     16038
     16036     16035     16037     16037     16035     16038     16039     16035     16038
     16039     16035     16037     16039     16035     16036     16041     16045     16046
     16042     16041     16044     16042     16041     16043     16043     16041     16044
     16045     16041     16044     16045     16041     16043     16045     16041     16042
     16047     16051     16052     16048     16047     16050     16048     16047     16049
     16049     16047     16050     16051     16047     16050     16051     16047     16049
     16051     16047     16048     16053     16057     16058     16054     16053     16056
     16054     16053     16055     16055     16053     16056     16057     16053     16056
     16057     16053     16055     16057     16053     16054     16059     16063     16064
     16060     16059     16062     16060     16059     16061     16061     16059     16062
     16063     16059     16062     16063     16059     16061     16063     16059     16060
     16065     16069     16070     16066     16065     16068     16066     16065     16067
     16067     16065     16068     16069     16065     16068     16069     16065     16067
     16069     16065     16066     16071     16075     16076     16072     16071     16074
     16072     16071     16073     16073     16071     16074     16075     16071     16074
     16075     16071     16073     16075     16071     16072     16077     16081     16082
     16078     16077     16080     16078     16077     16079     16079     16077     16080
     16081     16077     16080     16081     16077     16079     16081     16077     16078
     16083     16087     16088     16084     16083     16086     16084     16083     16085
     16085     16083     16086     16087     16083     16086     16087     16083     16085
     16087     16083     16084     16089     16093     16094     16090     16089     16092
     16090     16089     16091     16091     16089     16092     16093     16089     16092
     16093     16089     16091     16093     16089     16090     16095     16099     16100
     16096     16095     16098     16096     16095     16097     16097     16095     16098
     16099     16095     16098     16099     16095     16097     16099     16095     16096
     16101     16105     16106     16102     16101     16104     16102     16101     16103
     16103     16101     16104     16105     16101     16104     16105     16101     16103
     16105     16101     16102     16107     16111     16112     16108     16107     16110
     16108     16107     16109     16109     16107     16110     16111     16107     16110
     16111     16107     16109     16111     16107     16108     16113     16117     16118
     16114     16113     16116     16114     16113     16115     16115     16113     16116
     16117     16113     16116     16117     16113     16115     16117     16113     16114
     16119     16123     16124     16120     16119     16122     16120     16119     16121
     16121     16119     16122     16123     16119     16122     16123     16119     16121
     16123     16119     16120     16125     16129     16130     16126     16125     16128
     16126     16125     16127     16127     16125     16128     16129     16125     16128
     16129     16125     16127     16129     16125     16126     16131     16135     16136
     16132     16131     16134     16132     16131     16133     16133     16131     16134
     16135     16131     16134     16135     16131     16133     16135     16131     16132
     16137     16141     16142     16138     16137     16140     16138     16137     16139
     16139     16137     16140     16141     16137     16140     16141     16137     16139
     16141     16137     16138     16143     16147     16148     16144     16143     16146
     16144     16143     16145     16145     16143     16146     16147     16143     16146
     16147     16143     16145     16147     16143     16144     16149     16153     16154
     16150     16149     16152     16150     16149     16151     16151     16149     16152
     16153     16149     16152     16153     16149     16151     16153     16149     16150
     16155     16159     16160     16156     16155     16158     16156     16155     16157
     16157     16155     16158     16159     16155     16158     16159     16155     16157
     16159     16155     16156     16161     16165     16166     16162     16161     16164
     16162     16161     16163     16163     16161     16164     16165     16161     16164
     16165     16161     16163     16165     16161     16162     16167     16171     16172
     16168     16167     16170     16168     16167     16169     16169     16167     16170
     16171     16167     16170     16171     16167     16169     16171     16167     16168
     16173     16177     16178     16174     16173     16176     16174     16173     16175
     16175     16173     16176     16177     16173     16176     16177     16173     16175
     16177     16173     16174     16179     16183     16184     16180     16179     16182
     16180     16179     16181     16181     16179     16182     16183     16179     16182
     16183     16179     16181     16183     16179     16180     16185     16189     16190
     16186     16185     16188     16186     16185     16187     16187     16185     16188
     16189     16185     16188     16189     16185     16187     16189     16185     16186
     16191     16195     16196     16192     16191     16194     16192     16191     16193
     16193     16191     16194     16195     16191     16194     16195     16191     16193
     16195     16191     16192     16197     16201     16202     16198     16197     16200
     16198     16197     16199     16199     16197     16200     16201     16197     16200
     16201     16197     16199     16201     16197     16198     16203     16207     16208
     16204     16203     16206     16204     16203     16205     16205     16203     16206
     16207     16203     16206     16207     16203     16205     16207     16203     16204
     16209     16213     16214     16210     16209     16212     16210     16209     16211
     16211     16209     16212     16213     16209     16212     16213     16209     16211
     16213     16209     16210     16215     16219     16220     16216     16215     16218
     16216     16215     16217     16217     16215     16218     16219     16215     16218
     16219     16215     16217     16219     16215     16216     16221     16225     16226
     16222     16221     16224     16222     16221     16223     16223     16221     16224
     16225     16221     16224     16225     16221     16223     16225     16221     16222
     16227     16231     16232     16228     16227     16230     16228     16227     16229
     16229     16227     16230     16231     16227     16230     16231     16227     16229
     16231     16227     16228     16233     16237     16238     16234     16233     16236
     16234     16233     16235     16235     16233     16236     16237     16233     16236
     16237     16233     16235     16237     16233     16234     16239     16243     16244
     16240     16239     16242     16240     16239     16241     16241     16239     16242
     16243     16239     16242     16243     16239     16241     16243     16239     16240
     16245     16249     16250     16246     16245     16248     16246     16245     16247
     16247     16245     16248     16249     16245     16248     16249     16245     16247
     16249     16245     16246     16251     16255     16256     16252     16251     16254
     16252     16251     16253     16253     16251     16254     16255     16251     16254
     16255     16251     16253     16255     16251     16252     16257     16261     16262
     16258     16257     16260     16258     16257     16259     16259     16257     16260
     16261     16257     16260     16261     16257     16259     16261     16257     16258
     16263     16267     16268     16264     16263     16266     16264     16263     16265
     16265     16263     16266     16267     16263     16266     16267     16263     16265
     16267     16263     16264     16269     16273     16274     16270     16269     16272
     16270     16269     16271     16271     16269     16272     16273     16269     16272
     16273     16269     16271     16273     16269     16270     16275     16279     16280
     16276     16275     16278     16276     16275     16277     16277     16275     16278
     16279     16275     16278     16279     16275     16277     16279     16275     16276
     16281     16285     16286     16282     16281     16284     16282     16281     16283
     16283     16281     16284     16285     16281     16284     16285     16281     16283
     16285     16281     16282     16287     16291     16292     16288     16287     16290
     16288     16287     16289     16289     16287     16290     16291     16287     16290
     16291     16287     16289     16291     16287     16288     16293     16297     16298
     16294     16293     16296     16294     16293     16295     16295     16293     16296
     16297     16293     16296     16297     16293     16295     16297     16293     16294
     16299     16303     16304     16300     16299     16302     16300     16299     16301
     16301     16299     16302     16303     16299     16302     16303     16299     16301
     16303     16299     16300     16305     16309     16310     16306     16305     16308
     16306     16305     16307     16307     16305     16308     16309     16305     16308
     16309     16305     16307     16309     16305     16306     16311     16315     16316
     16312     16311     16314     16312     16311     16313     16313     16311     16314
     16315     16311     16314     16315     16311     16313     16315     16311     16312
     16317     16321     16322     16318     16317     16320     16318     16317     16319
     16319     16317     16320     16321     16317     16320     16321     16317     16319
     16321     16317     16318     16323     16327     16328     16324     16323     16326
     16324     16323     16325     16325     16323     16326     16327     16323     16326
     16327     16323     16325     16327     16323     16324     16329     16333     16334
     16330     16329     16332     16330     16329     16331     16331     16329     16332
     16333     16329     16332     16333     16329     16331     16333     16329     16330
     16335     16339     16340     16336     16335     16338     16336     16335     16337
     16337     16335     16338     16339     16335     16338     16339     16335     16337
     16339     16335     16336     16341     16345     16346     16342     16341     16344
     16342     16341     16343     16343     16341     16344     16345     16341     16344
     16345     16341     16343     16345     16341     16342     16347     16351     16352
     16348     16347     16350     16348     16347     16349     16349     16347     16350
     16351     16347     16350     16351     16347     16349     16351     16347     16348
     16353     16357     16358     16354     16353     16356     16354     16353     16355
     16355     16353     16356     16357     16353     16356     16357     16353     16355
     16357     16353     16354     16359     16363     16364     16360     16359     16362
     16360     16359     16361     16361     16359     16362     16363     16359     16362
     16363     16359     16361     16363     16359     16360     16365     16369     16370
     16366     16365     16368     16366     16365     16367     16367     16365     16368
     16369     16365     16368     16369     16365     16367     16369     16365     16366
     16371     16375     16376     16372     16371     16374     16372     16371     16373
     16373     16371     16374     16375     16371     16374     16375     16371     16373
     16375     16371     16372     16377     16381     16382     16378     16377     16380
     16378     16377     16379     16379     16377     16380     16381     16377     16380
     16381     16377     16379     16381     16377     16378     16383     16387     16388
     16384     16383     16386     16384     16383     16385     16385     16383     16386
     16387     16383     16386     16387     16383     16385     16387     16383     16384
     16389     16393     16394     16390     16389     16392     16390     16389     16391
     16391     16389     16392     16393     16389     16392     16393     16389     16391
     16393     16389     16390     16395     16399     16400     16396     16395     16398
     16396     16395     16397     16397     16395     16398     16399     16395     16398
     16399     16395     16397     16399     16395     16396     16401     16405     16406
     16402     16401     16404     16402     16401     16403     16403     16401     16404
     16405     16401     16404     16405     16401     16403     16405     16401     16402
     16407     16411     16412     16408     16407     16410     16408     16407     16409
     16409     16407     16410     16411     16407     16410     16411     16407     16409
     16411     16407     16408     16413     16417     16418     16414     16413     16416
     16414     16413     16415     16415     16413     16416     16417     16413     16416
     16417     16413     16415     16417     16413     16414     16419     16423     16424
     16420     16419     16422     16420     16419     16421     16421     16419     16422
     16423     16419     16422     16423     16419     16421     16423     16419     16420
     16425     16429     16430     16426     16425     16428     16426     16425     16427
     16427     16425     16428     16429     16425     16428     16429     16425     16427
     16429     16425     16426     16431     16435     16436     16432     16431     16434
     16432     16431     16433     16433     16431     16434     16435     16431     16434
     16435     16431     16433     16435     16431     16432     16437     16441     16442
     16438     16437     16440     16438     16437     16439     16439     16437     16440
     16441     16437     16440     16441     16437     16439     16441     16437     16438
     16443     16447     16448     16444     16443     16446     16444     16443     16445
     16445     16443     16446     16447     16443     16446     16447     16443     16445
     16447     16443     16444     16449     16453     16454     16450     16449     16452
     16450     16449     16451     16451     16449     16452     16453     16449     16452
     16453     16449     16451     16453     16449     16450     16455     16459     16460
     16456     16455     16458     16456     16455     16457     16457     16455     16458
     16459     16455     16458     16459     16455     16457     16459     16455     16456
     16461     16465     16466     16462     16461     16464     16462     16461     16463
     16463     16461     16464     16465     16461     16464     16465     16461     16463
     16465     16461     16462     16467     16471     16472     16468     16467     16470
     16468     16467     16469     16469     16467     16470     16471     16467     16470
     16471     16467     16469     16471     16467     16468     16473     16477     16478
     16474     16473     16476     16474     16473     16475     16475     16473     16476
     16477     16473     16476     16477     16473     16475     16477     16473     16474
     16479     16483     16484     16480     16479     16482     16480     16479     16481
     16481     16479     16482     16483     16479     16482     16483     16479     16481
     16483     16479     16480     16485     16489     16490     16486     16485     16488
     16486     16485     16487     16487     16485     16488     16489     16485     16488
     16489     16485     16487     16489     16485     16486     16491     16495     16496
     16492     16491     16494     16492     16491     16493     16493     16491     16494
     16495     16491     16494     16495     16491     16493     16495     16491     16492
     16497     16501     16502     16498     16497     16500     16498     16497     16499
     16499     16497     16500     16501     16497     16500     16501     16497     16499
     16501     16497     16498     16503     16507     16508     16504     16503     16506
     16504     16503     16505     16505     16503     16506     16507     16503     16506
     16507     16503     16505     16507     16503     16504     16509     16513     16514
     16510     16509     16512     16510     16509     16511     16511     16509     16512
     16513     16509     16512     16513     16509     16511     16513     16509     16510
     16515     16519     16520     16516     16515     16518     16516     16515     16517
     16517     16515     16518     16519     16515     16518     16519     16515     16517
     16519     16515     16516     16521     16525     16526     16522     16521     16524
     16522     16521     16523     16523     16521     16524     16525     16521     16524
     16525     16521     16523     16525     16521     16522     16527     16531     16532
     16528     16527     16530     16528     16527     16529     16529     16527     16530
     16531     16527     16530     16531     16527     16529     16531     16527     16528
     16533     16537     16538     16534     16533     16536     16534     16533     16535
     16535     16533     16536     16537     16533     16536     16537     16533     16535
     16537     16533     16534     16539     16543     16544     16540     16539     16542
     16540     16539     16541     16541     16539     16542     16543     16539     16542
     16543     16539     16541     16543     16539     16540     16545     16549     16550
     16546     16545     16548     16546     16545     16547     16547     16545     16548
     16549     16545     16548     16549     16545     16547     16549     16545     16546
     16551     16555     16556     16552     16551     16554     16552     16551     16553
     16553     16551     16554     16555     16551     16554     16555     16551     16553
     16555     16551     16552     16557     16561     16562     16558     16557     16560
     16558     16557     16559     16559     16557     16560     16561     16557     16560
     16561     16557     16559     16561     16557     16558     16563     16567     16568
     16564     16563     16566     16564     16563     16565     16565     16563     16566
     16567     16563     16566     16567     16563     16565     16567     16563     16564
     16569     16573     16574     16570     16569     16572     16570     16569     16571
     16571     16569     16572     16573     16569     16572     16573     16569     16571
     16573     16569     16570     16575     16579     16580     16576     16575     16578
     16576     16575     16577     16577     16575     16578     16579     16575     16578
     16579     16575     16577     16579     16575     16576     16581     16585     16586
     16582     16581     16584     16582     16581     16583     16583     16581     16584
     16585     16581     16584     16585     16581     16583     16585     16581     16582
     16587     16591     16592     16588     16587     16590     16588     16587     16589
     16589     16587     16590     16591     16587     16590     16591     16587     16589
     16591     16587     16588     16593     16597     16598     16594     16593     16596
     16594     16593     16595     16595     16593     16596     16597     16593     16596
     16597     16593     16595     16597     16593     16594     16599     16603     16604
     16600     16599     16602     16600     16599     16601     16601     16599     16602
     16603     16599     16602     16603     16599     16601     16603     16599     16600
     16605     16609     16610     16606     16605     16608     16606     16605     16607
     16607     16605     16608     16609     16605     16608     16609     16605     16607
     16609     16605     16606     16611     16615     16616     16612     16611     16614
     16612     16611     16613     16613     16611     16614     16615     16611     16614
     16615     16611     16613     16615     16611     16612     16617     16621     16622
     16618     16617     16620     16618     16617     16619     16619     16617     16620
     16621     16617     16620     16621     16617     16619     16621     16617     16618
     16623     16627     16628     16624     16623     16626     16624     16623     16625
     16625     16623     16626     16627     16623     16626     16627     16623     16625
     16627     16623     16624     16629     16633     16634     16630     16629     16632
     16630     16629     16631     16631     16629     16632     16633     16629     16632
     16633     16629     16631     16633     16629     16630     16635     16639     16640
     16636     16635     16638     16636     16635     16637     16637     16635     16638
     16639     16635     16638     16639     16635     16637     16639     16635     16636
     16641     16645     16646     16642     16641     16644     16642     16641     16643
     16643     16641     16644     16645     16641     16644     16645     16641     16643
     16645     16641     16642     16647     16651     16652     16648     16647     16650
     16648     16647     16649     16649     16647     16650     16651     16647     16650
     16651     16647     16649     16651     16647     16648     16653     16657     16658
     16654     16653     16656     16654     16653     16655     16655     16653     16656
     16657     16653     16656     16657     16653     16655     16657     16653     16654
     16659     16663     16664     16660     16659     16662     16660     16659     16661
     16661     16659     16662     16663     16659     16662     16663     16659     16661
     16663     16659     16660     16665     16669     16670     16666     16665     16668
     16666     16665     16667     16667     16665     16668     16669     16665     16668
     16669     16665     16667     16669     16665     16666     16671     16675     16676
     16672     16671     16674     16672     16671     16673     16673     16671     16674
     16675     16671     16674     16675     16671     16673     16675     16671     16672
     16677     16681     16682     16678     16677     16680     16678     16677     16679
     16679     16677     16680     16681     16677     16680     16681     16677     16679
     16681     16677     16678     16683     16687     16688     16684     16683     16686
     16684     16683     16685     16685     16683     16686     16687     16683     16686
     16687     16683     16685     16687     16683     16684     16689     16693     16694
     16690     16689     16692     16690     16689     16691     16691     16689     16692
     16693     16689     16692     16693     16689     16691     16693     16689     16690
     16695     16699     16700     16696     16695     16698     16696     16695     16697
     16697     16695     16698     16699     16695     16698     16699     16695     16697
     16699     16695     16696     16701     16705     16706     16702     16701     16704
     16702     16701     16703     16703     16701     16704     16705     16701     16704
     16705     16701     16703     16705     16701     16702     16707     16711     16712
     16708     16707     16710     16708     16707     16709     16709     16707     16710
     16711     16707     16710     16711     16707     16709     16711     16707     16708
     16713     16717     16718     16714     16713     16716     16714     16713     16715
     16715     16713     16716     16717     16713     16716     16717     16713     16715
     16717     16713     16714     16719     16723     16724     16720     16719     16722
     16720     16719     16721     16721     16719     16722     16723     16719     16722
     16723     16719     16721     16723     16719     16720     16725     16729     16730
     16726     16725     16728     16726     16725     16727     16727     16725     16728
     16729     16725     16728     16729     16725     16727     16729     16725     16726
     16731     16735     16736     16732     16731     16734     16732     16731     16733
     16733     16731     16734     16735     16731     16734     16735     16731     16733
     16735     16731     16732     16737     16741     16742     16738     16737     16740
     16738     16737     16739     16739     16737     16740     16741     16737     16740
     16741     16737     16739     16741     16737     16738     16743     16747     16748
     16744     16743     16746     16744     16743     16745     16745     16743     16746
     16747     16743     16746     16747     16743     16745     16747     16743     16744
     16749     16753     16754     16750     16749     16752     16750     16749     16751
     16751     16749     16752     16753     16749     16752     16753     16749     16751
     16753     16749     16750     16755     16759     16760     16756     16755     16758
     16756     16755     16757     16757     16755     16758     16759     16755     16758
     16759     16755     16757     16759     16755     16756     16761     16765     16766
     16762     16761     16764     16762     16761     16763     16763     16761     16764
     16765     16761     16764     16765     16761     16763     16765     16761     16762
     16767     16771     16772     16768     16767     16770     16768     16767     16769
     16769     16767     16770     16771     16767     16770     16771     16767     16769
     16771     16767     16768     16773     16777     16778     16774     16773     16776
     16774     16773     16775     16775     16773     16776     16777     16773     16776
     16777     16773     16775     16777     16773     16774     16779     16783     16784
     16780     16779     16782     16780     16779     16781     16781     16779     16782
     16783     16779     16782     16783     16779     16781     16783     16779     16780
     16785     16789     16790     16786     16785     16788     16786     16785     16787
     16787     16785     16788     16789     16785     16788     16789     16785     16787
     16789     16785     16786     16791     16795     16796     16792     16791     16794
     16792     16791     16793     16793     16791     16794     16795     16791     16794
     16795     16791     16793     16795     16791     16792     16797     16801     16802
     16798     16797     16800     16798     16797     16799     16799     16797     16800
     16801     16797     16800     16801     16797     16799     16801     16797     16798
     16803     16807     16808     16804     16803     16806     16804     16803     16805
     16805     16803     16806     16807     16803     16806     16807     16803     16805
     16807     16803     16804     16809     16813     16814     16810     16809     16812
     16810     16809     16811     16811     16809     16812     16813     16809     16812
     16813     16809     16811     16813     16809     16810     16815     16819     16820
     16816     16815     16818     16816     16815     16817     16817     16815     16818
     16819     16815     16818     16819     16815     16817     16819     16815     16816
     16821     16825     16826     16822     16821     16824     16822     16821     16823
     16823     16821     16824     16825     16821     16824     16825     16821     16823
     16825     16821     16822     16827     16831     16832     16828     16827     16830
     16828     16827     16829     16829     16827     16830     16831     16827     16830
     16831     16827     16829     16831     16827     16828     16833     16837     16838
     16834     16833     16836     16834     16833     16835     16835     16833     16836
     16837     16833     16836     16837     16833     16835     16837     16833     16834
     16839     16843     16844     16840     16839     16842     16840     16839     16841
     16841     16839     16842     16843     16839     16842     16843     16839     16841
     16843     16839     16840     16845     16849     16850     16846     16845     16848
     16846     16845     16847     16847     16845     16848     16849     16845     16848
     16849     16845     16847     16849     16845     16846     16851     16855     16856
     16852     16851     16854     16852     16851     16853     16853     16851     16854
     16855     16851     16854     16855     16851     16853     16855     16851     16852
     16857     16861     16862     16858     16857     16860     16858     16857     16859
     16859     16857     16860     16861     16857     16860     16861     16857     16859
     16861     16857     16858     16863     16867     16868     16864     16863     16866
     16864     16863     16865     16865     16863     16866     16867     16863     16866
     16867     16863     16865     16867     16863     16864     16869     16873     16874
     16870     16869     16872     16870     16869     16871     16871     16869     16872
     16873     16869     16872     16873     16869     16871     16873     16869     16870
     16875     16879     16880     16876     16875     16878     16876     16875     16877
     16877     16875     16878     16879     16875     16878     16879     16875     16877
     16879     16875     16876     16881     16885     16886     16882     16881     16884
     16882     16881     16883     16883     16881     16884     16885     16881     16884
     16885     16881     16883     16885     16881     16882     16887     16891     16892
     16888     16887     16890     16888     16887     16889     16889     16887     16890
     16891     16887     16890     16891     16887     16889     16891     16887     16888
     16893     16897     16898     16894     16893     16896     16894     16893     16895
     16895     16893     16896     16897     16893     16896     16897     16893     16895
     16897     16893     16894     16899     16903     16904     16900     16899     16902
     16900     16899     16901     16901     16899     16902     16903     16899     16902
     16903     16899     16901     16903     16899     16900     16905     16909     16910
     16906     16905     16908     16906     16905     16907     16907     16905     16908
     16909     16905     16908     16909     16905     16907     16909     16905     16906
     16911     16915     16916     16912     16911     16914     16912     16911     16913
     16913     16911     16914     16915     16911     16914     16915     16911     16913
     16915     16911     16912     16917     16921     16922     16918     16917     16920
     16918     16917     16919     16919     16917     16920     16921     16917     16920
     16921     16917     16919     16921     16917     16918     16923     16927     16928
     16924     16923     16926     16924     16923     16925     16925     16923     16926
     16927     16923     16926     16927     16923     16925     16927     16923     16924
     16929     16933     16934     16930     16929     16932     16930     16929     16931
     16931     16929     16932     16933     16929     16932     16933     16929     16931
     16933     16929     16930     16935     16939     16940     16936     16935     16938
     16936     16935     16937     16937     16935     16938     16939     16935     16938
     16939     16935     16937     16939     16935     16936     16941     16945     16946
     16942     16941     16944     16942     16941     16943     16943     16941     16944
     16945     16941     16944     16945     16941     16943     16945     16941     16942
     16947     16951     16952     16948     16947     16950     16948     16947     16949
     16949     16947     16950     16951     16947     16950     16951     16947     16949
     16951     16947     16948     16953     16957     16958     16954     16953     16956
     16954     16953     16955     16955     16953     16956     16957     16953     16956
     16957     16953     16955     16957     16953     16954     16959     16963     16964
     16960     16959     16962     16960     16959     16961     16961     16959     16962
     16963     16959     16962     16963     16959     16961     16963     16959     16960
     16965     16969     16970     16966     16965     16968     16966     16965     16967
     16967     16965     16968     16969     16965     16968     16969     16965     16967
     16969     16965     16966     16971     16975     16976     16972     16971     16974
     16972     16971     16973     16973     16971     16974     16975     16971     16974
     16975     16971     16973     16975     16971     16972     16977     16981     16982
     16978     16977     16980     16978     16977     16979     16979     16977     16980
     16981     16977     16980     16981     16977     16979     16981     16977     16978
     16983     16987     16988     16984     16983     16986     16984     16983     16985
     16985     16983     16986     16987     16983     16986     16987     16983     16985
     16987     16983     16984     16989     16993     16994     16990     16989     16992
     16990     16989     16991     16991     16989     16992     16993     16989     16992
     16993     16989     16991     16993     16989     16990     16995     16999     17000
     16996     16995     16998     16996     16995     16997     16997     16995     16998
     16999     16995     16998     16999     16995     16997     16999     16995     16996
     17001     17005     17006     17002     17001     17004     17002     17001     17003
     17003     17001     17004     17005     17001     17004     17005     17001     17003
     17005     17001     17002     17007     17011     17012     17008     17007     17010
     17008     17007     17009     17009     17007     17010     17011     17007     17010
     17011     17007     17009     17011     17007     17008     17013     17017     17018
     17014     17013     17016     17014     17013     17015     17015     17013     17016
     17017     17013     17016     17017     17013     17015     17017     17013     17014
     17019     17023     17024     17020     17019     17022     17020     17019     17021
     17021     17019     17022     17023     17019     17022     17023     17019     17021
     17023     17019     17020     17025     17029     17030     17026     17025     17028
     17026     17025     17027     17027     17025     17028     17029     17025     17028
     17029     17025     17027     17029     17025     17026     17031     17035     17036
     17032     17031     17034     17032     17031     17033     17033     17031     17034
     17035     17031     17034     17035     17031     17033     17035     17031     17032
     17037     17041     17042     17038     17037     17040     17038     17037     17039
     17039     17037     17040     17041     17037     17040     17041     17037     17039
     17041     17037     17038     17043     17047     17048     17044     17043     17046
     17044     17043     17045     17045     17043     17046     17047     17043     17046
     17047     17043     17045     17047     17043     17044     17049     17053     17054
     17050     17049     17052     17050     17049     17051     17051     17049     17052
     17053     17049     17052     17053     17049     17051     17053     17049     17050
     17055     17059     17060     17056     17055     17058     17056     17055     17057
     17057     17055     17058     17059     17055     17058     17059     17055     17057
     17059     17055     17056     17061     17065     17066     17062     17061     17064
     17062     17061     17063     17063     17061     17064     17065     17061     17064
     17065     17061     17063     17065     17061     17062     17067     17071     17072
     17068     17067     17070     17068     17067     17069     17069     17067     17070
     17071     17067     17070     17071     17067     17069     17071     17067     17068
     17073     17077     17078     17074     17073     17076     17074     17073     17075
     17075     17073     17076     17077     17073     17076     17077     17073     17075
     17077     17073     17074     17079     17083     17084     17080     17079     17082
     17080     17079     17081     17081     17079     17082     17083     17079     17082
     17083     17079     17081     17083     17079     17080     17085     17089     17090
     17086     17085     17088     17086     17085     17087     17087     17085     17088
     17089     17085     17088     17089     17085     17087     17089     17085     17086
     17091     17095     17096     17092     17091     17094     17092     17091     17093
     17093     17091     17094     17095     17091     17094     17095     17091     17093
     17095     17091     17092     17097     17101     17102     17098     17097     17100
     17098     17097     17099     17099     17097     17100     17101     17097     17100
     17101     17097     17099     17101     17097     17098     17103     17107     17108
     17104     17103     17106     17104     17103     17105     17105     17103     17106
     17107     17103     17106     17107     17103     17105     17107     17103     17104
     17109     17113     17114     17110     17109     17112     17110     17109     17111
     17111     17109     17112     17113     17109     17112     17113     17109     17111
     17113     17109     17110     17115     17119     17120     17116     17115     17118
     17116     17115     17117     17117     17115     17118     17119     17115     17118
     17119     17115     17117     17119     17115     17116     17121     17125     17126
     17122     17121     17124     17122     17121     17123     17123     17121     17124
     17125     17121     17124     17125     17121     17123     17125     17121     17122
     17127     17131     17132     17128     17127     17130     17128     17127     17129
     17129     17127     17130     17131     17127     17130     17131     17127     17129
     17131     17127     17128     17133     17137     17138     17134     17133     17136
     17134     17133     17135     17135     17133     17136     17137     17133     17136
     17137     17133     17135     17137     17133     17134     17139     17143     17144
     17140     17139     17142     17140     17139     17141     17141     17139     17142
     17143     17139     17142     17143     17139     17141     17143     17139     17140
     17145     17149     17150     17146     17145     17148     17146     17145     17147
     17147     17145     17148     17149     17145     17148     17149     17145     17147
     17149     17145     17146     17151     17155     17156     17152     17151     17154
     17152     17151     17153     17153     17151     17154     17155     17151     17154
     17155     17151     17153     17155     17151     17152     17157     17161     17162
     17158     17157     17160     17158     17157     17159     17159     17157     17160
     17161     17157     17160     17161     17157     17159     17161     17157     17158
     17163     17167     17168     17164     17163     17166     17164     17163     17165
     17165     17163     17166     17167     17163     17166     17167     17163     17165
     17167     17163     17164     17169     17173     17174     17170     17169     17172
     17170     17169     17171     17171     17169     17172     17173     17169     17172
     17173     17169     17171     17173     17169     17170     17175     17179     17180
     17176     17175     17178     17176     17175     17177     17177     17175     17178
     17179     17175     17178     17179     17175     17177     17179     17175     17176
     17181     17185     17186     17182     17181     17184     17182     17181     17183
     17183     17181     17184     17185     17181     17184     17185     17181     17183
     17185     17181     17182     17187     17191     17192     17188     17187     17190
     17188     17187     17189     17189     17187     17190     17191     17187     17190
     17191     17187     17189     17191     17187     17188     17193     17197     17198
     17194     17193     17196     17194     17193     17195     17195     17193     17196
     17197     17193     17196     17197     17193     17195     17197     17193     17194
     17199     17203     17204     17200     17199     17202     17200     17199     17201
     17201     17199     17202     17203     17199     17202     17203     17199     17201
     17203     17199     17200     17205     17209     17210     17206     17205     17208
     17206     17205     17207     17207     17205     17208     17209     17205     17208
     17209     17205     17207     17209     17205     17206     17211     17215     17216
     17212     17211     17214     17212     17211     17213     17213     17211     17214
     17215     17211     17214     17215     17211     17213     17215     17211     17212
     17217     17221     17222     17218     17217     17220     17218     17217     17219
     17219     17217     17220     17221     17217     17220     17221     17217     17219
     17221     17217     17218     17223     17227     17228     17224     17223     17226
     17224     17223     17225     17225     17223     17226     17227     17223     17226
     17227     17223     17225     17227     17223     17224     17229     17233     17234
     17230     17229     17232     17230     17229     17231     17231     17229     17232
     17233     17229     17232     17233     17229     17231     17233     17229     17230
     17235     17239     17240     17236     17235     17238     17236     17235     17237
     17237     17235     17238     17239     17235     17238     17239     17235     17237
     17239     17235     17236     17241     17245     17246     17242     17241     17244
     17242     17241     17243     17243     17241     17244     17245     17241     17244
     17245     17241     17243     17245     17241     17242     17247     17251     17252
     17248     17247     17250     17248     17247     17249     17249     17247     17250
     17251     17247     17250     17251     17247     17249     17251     17247     17248
     17253     17257     17258     17254     17253     17256     17254     17253     17255
     17255     17253     17256     17257     17253     17256     17257     17253     17255
     17257     17253     17254     17259     17263     17264     17260     17259     17262
     17260     17259     17261     17261     17259     17262     17263     17259     17262
     17263     17259     17261     17263     17259     17260     17265     17269     17270
     17266     17265     17268     17266     17265     17267     17267     17265     17268
     17269     17265     17268     17269     17265     17267     17269     17265     17266
     17271     17275     17276     17272     17271     17274     17272     17271     17273
     17273     17271     17274     17275     17271     17274     17275     17271     17273
     17275     17271     17272     17277     17281     17282     17278     17277     17280
     17278     17277     17279     17279     17277     17280     17281     17277     17280
     17281     17277     17279     17281     17277     17278     17283     17287     17288
     17284     17283     17286     17284     17283     17285     17285     17283     17286
     17287     17283     17286     17287     17283     17285     17287     17283     17284
     17289     17293     17294     17290     17289     17292     17290     17289     17291
     17291     17289     17292     17293     17289     17292     17293     17289     17291
     17293     17289     17290     17295     17299     17300     17296     17295     17298
     17296     17295     17297     17297     17295     17298     17299     17295     17298
     17299     17295     17297     17299     17295     17296     17301     17305     17306
     17302     17301     17304     17302     17301     17303     17303     17301     17304
     17305     17301     17304     17305     17301     17303     17305     17301     17302
     17307     17311     17312     17308     17307     17310     17308     17307     17309
     17309     17307     17310     17311     17307     17310     17311     17307     17309
     17311     17307     17308     17313     17317     17318     17314     17313     17316
     17314     17313     17315     17315     17313     17316     17317     17313     17316
     17317     17313     17315     17317     17313     17314     17319     17323     17324
     17320     17319     17322     17320     17319     17321     17321     17319     17322
     17323     17319     17322     17323     17319     17321     17323     17319     17320
     17325     17329     17330     17326     17325     17328     17326     17325     17327
     17327     17325     17328     17329     17325     17328     17329     17325     17327
     17329     17325     17326     17331     17335     17336     17332     17331     17334
     17332     17331     17333     17333     17331     17334     17335     17331     17334
     17335     17331     17333     17335     17331     17332     17337     17341     17342
     17338     17337     17340     17338     17337     17339     17339     17337     17340
     17341     17337     17340     17341     17337     17339     17341     17337     17338
     17343     17347     17348     17344     17343     17346     17344     17343     17345
     17345     17343     17346     17347     17343     17346     17347     17343     17345
     17347     17343     17344     17349     17353     17354     17350     17349     17352
     17350     17349     17351     17351     17349     17352     17353     17349     17352
     17353     17349     17351     17353     17349     17350     17355     17359     17360
     17356     17355     17358     17356     17355     17357     17357     17355     17358
     17359     17355     17358     17359     17355     17357     17359     17355     17356
     17361     17365     17366     17362     17361     17364     17362     17361     17363
     17363     17361     17364     17365     17361     17364     17365     17361     17363
     17365     17361     17362     17367     17371     17372     17368     17367     17370
     17368     17367     17369     17369     17367     17370     17371     17367     17370
     17371     17367     17369     17371     17367     17368     17373     17377     17378
     17374     17373     17376     17374     17373     17375     17375     17373     17376
     17377     17373     17376     17377     17373     17375     17377     17373     17374
     17379     17383     17384     17380     17379     17382     17380     17379     17381
     17381     17379     17382     17383     17379     17382     17383     17379     17381
     17383     17379     17380     17385     17389     17390     17386     17385     17388
     17386     17385     17387     17387     17385     17388     17389     17385     17388
     17389     17385     17387     17389     17385     17386     17391     17395     17396
     17392     17391     17394     17392     17391     17393     17393     17391     17394
     17395     17391     17394     17395     17391     17393     17395     17391     17392
     17397     17401     17402     17398     17397     17400     17398     17397     17399
     17399     17397     17400     17401     17397     17400     17401     17397     17399
     17401     17397     17398     17403     17407     17408     17404     17403     17406
     17404     17403     17405     17405     17403     17406     17407     17403     17406
     17407     17403     17405     17407     17403     17404     17409     17413     17414
     17410     17409     17412     17410     17409     17411     17411     17409     17412
     17413     17409     17412     17413     17409     17411     17413     17409     17410
     17415     17419     17420     17416     17415     17418     17416     17415     17417
     17417     17415     17418     17419     17415     17418     17419     17415     17417
     17419     17415     17416     17421     17425     17426     17422     17421     17424
     17422     17421     17423     17423     17421     17424     17425     17421     17424
     17425     17421     17423     17425     17421     17422     17427     17431     17432
     17428     17427     17430     17428     17427     17429     17429     17427     17430
     17431     17427     17430     17431     17427     17429     17431     17427     17428
     17433     17437     17438     17434     17433     17436     17434     17433     17435
     17435     17433     17436     17437     17433     17436     17437     17433     17435
     17437     17433     17434     17439     17443     17444     17440     17439     17442
     17440     17439     17441     17441     17439     17442     17443     17439     17442
     17443     17439     17441     17443     17439     17440     17445     17449     17450
     17446     17445     17448     17446     17445     17447     17447     17445     17448
     17449     17445     17448     17449     17445     17447     17449     17445     17446
     17451     17455     17456     17452     17451     17454     17452     17451     17453
     17453     17451     17454     17455     17451     17454     17455     17451     17453
     17455     17451     17452     17457     17461     17462     17458     17457     17460
     17458     17457     17459     17459     17457     17460     17461     17457     17460
     17461     17457     17459     17461     17457     17458     17463     17467     17468
     17464     17463     17466     17464     17463     17465     17465     17463     17466
     17467     17463     17466     17467     17463     17465     17467     17463     17464
     17469     17473     17474     17470     17469     17472     17470     17469     17471
     17471     17469     17472     17473     17469     17472     17473     17469     17471
     17473     17469     17470     17475     17479     17480     17476     17475     17478
     17476     17475     17477     17477     17475     17478     17479     17475     17478
     17479     17475     17477     17479     17475     17476     17481     17485     17486
     17482     17481     17484     17482     17481     17483     17483     17481     17484
     17485     17481     17484     17485     17481     17483     17485     17481     17482
     17487     17491     17492     17488     17487     17490     17488     17487     17489
     17489     17487     17490     17491     17487     17490     17491     17487     17489
     17491     17487     17488     17493     17497     17498     17494     17493     17496
     17494     17493     17495     17495     17493     17496     17497     17493     17496
     17497     17493     17495     17497     17493     17494     17499     17503     17504
     17500     17499     17502     17500     17499     17501     17501     17499     17502
     17503     17499     17502     17503     17499     17501     17503     17499     17500
     17505     17509     17510     17506     17505     17508     17506     17505     17507
     17507     17505     17508     17509     17505     17508     17509     17505     17507
     17509     17505     17506     17511     17515     17516     17512     17511     17514
     17512     17511     17513     17513     17511     17514     17515     17511     17514
     17515     17511     17513     17515     17511     17512     17517     17521     17522
     17518     17517     17520     17518     17517     17519     17519     17517     17520
     17521     17517     17520     17521     17517     17519     17521     17517     17518
     17523     17527     17528     17524     17523     17526     17524     17523     17525
     17525     17523     17526     17527     17523     17526     17527     17523     17525
     17527     17523     17524     17529     17533     17534     17530     17529     17532
     17530     17529     17531     17531     17529     17532     17533     17529     17532
     17533     17529     17531     17533     17529     17530     17535     17539     17540
     17536     17535     17538     17536     17535     17537     17537     17535     17538
     17539     17535     17538     17539     17535     17537     17539     17535     17536
     17541     17545     17546     17542     17541     17544     17542     17541     17543
     17543     17541     17544     17545     17541     17544     17545     17541     17543
     17545     17541     17542     17547     17551     17552     17548     17547     17550
     17548     17547     17549     17549     17547     17550     17551     17547     17550
     17551     17547     17549     17551     17547     17548     17553     17557     17558
     17554     17553     17556     17554     17553     17555     17555     17553     17556
     17557     17553     17556     17557     17553     17555     17557     17553     17554
     17559     17563     17564     17560     17559     17562     17560     17559     17561
     17561     17559     17562     17563     17559     17562     17563     17559     17561
     17563     17559     17560     17565     17569     17570     17566     17565     17568
     17566     17565     17567     17567     17565     17568     17569     17565     17568
     17569     17565     17567     17569     17565     17566     17571     17575     17576
     17572     17571     17574     17572     17571     17573     17573     17571     17574
     17575     17571     17574     17575     17571     17573     17575     17571     17572
     17577     17581     17582     17578     17577     17580     17578     17577     17579
     17579     17577     17580     17581     17577     17580     17581     17577     17579
     17581     17577     17578     17583     17587     17588     17584     17583     17586
     17584     17583     17585     17585     17583     17586     17587     17583     17586
     17587     17583     17585     17587     17583     17584     17589     17593     17594
     17590     17589     17592     17590     17589     17591     17591     17589     17592
     17593     17589     17592     17593     17589     17591     17593     17589     17590
     17595     17599     17600     17596     17595     17598     17596     17595     17597
     17597     17595     17598     17599     17595     17598     17599     17595     17597
     17599     17595     17596     17601     17605     17606     17602     17601     17604
     17602     17601     17603     17603     17601     17604     17605     17601     17604
     17605     17601     17603     17605     17601     17602     17607     17611     17612
     17608     17607     17610     17608     17607     17609     17609     17607     17610
     17611     17607     17610     17611     17607     17609     17611     17607     17608
     17613     17617     17618     17614     17613     17616     17614     17613     17615
     17615     17613     17616     17617     17613     17616     17617     17613     17615
     17617     17613     17614     17619     17623     17624     17620     17619     17622
     17620     17619     17621     17621     17619     17622     17623     17619     17622
     17623     17619     17621     17623     17619     17620     17625     17629     17630
     17626     17625     17628     17626     17625     17627     17627     17625     17628
     17629     17625     17628     17629     17625     17627     17629     17625     17626
     17631     17635     17636     17632     17631     17634     17632     17631     17633
     17633     17631     17634     17635     17631     17634     17635     17631     17633
     17635     17631     17632     17637     17641     17642     17638     17637     17640
     17638     17637     17639     17639     17637     17640     17641     17637     17640
     17641     17637     17639     17641     17637     17638     17643     17647     17648
     17644     17643     17646     17644     17643     17645     17645     17643     17646
     17647     17643     17646     17647     17643     17645     17647     17643     17644
     17649     17653     17654     17650     17649     17652     17650     17649     17651
     17651     17649     17652     17653     17649     17652     17653     17649     17651
     17653     17649     17650     17655     17659     17660     17656     17655     17658
     17656     17655     17657     17657     17655     17658     17659     17655     17658
     17659     17655     17657     17659     17655     17656     17661     17665     17666
     17662     17661     17664     17662     17661     17663     17663     17661     17664
     17665     17661     17664     17665     17661     17663     17665     17661     17662
     17667     17671     17672     17668     17667     17670     17668     17667     17669
     17669     17667     17670     17671     17667     17670     17671     17667     17669
     17671     17667     17668     17673     17677     17678     17674     17673     17676
     17674     17673     17675     17675     17673     17676     17677     17673     17676
     17677     17673     17675     17677     17673     17674     17679     17683     17684
     17680     17679     17682     17680     17679     17681     17681     17679     17682
     17683     17679     17682     17683     17679     17681     17683     17679     17680
     17685     17689     17690     17686     17685     17688     17686     17685     17687
     17687     17685     17688     17689     17685     17688     17689     17685     17687
     17689     17685     17686     17691     17695     17696     17692     17691     17694
     17692     17691     17693     17693     17691     17694     17695     17691     17694
     17695     17691     17693     17695     17691     17692     17697     17701     17702
     17698     17697     17700     17698     17697     17699     17699     17697     17700
     17701     17697     17700     17701     17697     17699     17701     17697     17698
     17703     17707     17708     17704     17703     17706     17704     17703     17705
     17705     17703     17706     17707     17703     17706     17707     17703     17705
     17707     17703     17704     17709     17713     17714     17710     17709     17712
     17710     17709     17711     17711     17709     17712     17713     17709     17712
     17713     17709     17711     17713     17709     17710     17715     17719     17720
     17716     17715     17718     17716     17715     17717     17717     17715     17718
     17719     17715     17718     17719     17715     17717     17719     17715     17716
     17721     17725     17726     17722     17721     17724     17722     17721     17723
     17723     17721     17724     17725     17721     17724     17725     17721     17723
     17725     17721     17722     17727     17731     17732     17728     17727     17730
     17728     17727     17729     17729     17727     17730     17731     17727     17730
     17731     17727     17729     17731     17727     17728     17733     17737     17738
     17734     17733     17736     17734     17733     17735     17735     17733     17736
     17737     17733     17736     17737     17733     17735     17737     17733     17734
     17739     17743     17744     17740     17739     17742     17740     17739     17741
     17741     17739     17742     17743     17739     17742     17743     17739     17741
     17743     17739     17740     17745     17749     17750     17746     17745     17748
     17746     17745     17747     17747     17745     17748     17749     17745     17748
     17749     17745     17747     17749     17745     17746     17751     17755     17756
     17752     17751     17754     17752     17751     17753     17753     17751     17754
     17755     17751     17754     17755     17751     17753     17755     17751     17752
     17757     17761     17762     17758     17757     17760     17758     17757     17759
     17759     17757     17760     17761     17757     17760     17761     17757     17759
     17761     17757     17758     17763     17767     17768     17764     17763     17766
     17764     17763     17765     17765     17763     17766     17767     17763     17766
     17767     17763     17765     17767     17763     17764     17769     17773     17774
     17770     17769     17772     17770     17769     17771     17771     17769     17772
     17773     17769     17772     17773     17769     17771     17773     17769     17770
     17775     17779     17780     17776     17775     17778     17776     17775     17777
     17777     17775     17778     17779     17775     17778     17779     17775     17777
     17779     17775     17776     17781     17785     17786     17782     17781     17784
     17782     17781     17783     17783     17781     17784     17785     17781     17784
     17785     17781     17783     17785     17781     17782     17787     17791     17792
     17788     17787     17790     17788     17787     17789     17789     17787     17790
     17791     17787     17790     17791     17787     17789     17791     17787     17788
     17793     17797     17798     17794     17793     17796     17794     17793     17795
     17795     17793     17796     17797     17793     17796     17797     17793     17795
     17797     17793     17794     17799     17803     17804     17800     17799     17802
     17800     17799     17801     17801     17799     17802     17803     17799     17802
     17803     17799     17801     17803     17799     17800     17805     17809     17810
     17806     17805     17808     17806     17805     17807     17807     17805     17808
     17809     17805     17808     17809     17805     17807     17809     17805     17806
     17811     17815     17816     17812     17811     17814     17812     17811     17813
     17813     17811     17814     17815     17811     17814     17815     17811     17813
     17815     17811     17812     17817     17821     17822     17818     17817     17820
     17818     17817     17819     17819     17817     17820     17821     17817     17820
     17821     17817     17819     17821     17817     17818     17823     17827     17828
     17824     17823     17826     17824     17823     17825     17825     17823     17826
     17827     17823     17826     17827     17823     17825     17827     17823     17824
     17829     17833     17834     17830     17829     17832     17830     17829     17831
     17831     17829     17832     17833     17829     17832     17833     17829     17831
     17833     17829     17830     17835     17839     17840     17836     17835     17838
     17836     17835     17837     17837     17835     17838     17839     17835     17838
     17839     17835     17837     17839     17835     17836     17841     17845     17846
     17842     17841     17844     17842     17841     17843     17843     17841     17844
     17845     17841     17844     17845     17841     17843     17845     17841     17842
     17847     17851     17852     17848     17847     17850     17848     17847     17849
     17849     17847     17850     17851     17847     17850     17851     17847     17849
     17851     17847     17848     17853     17857     17858     17854     17853     17856
     17854     17853     17855     17855     17853     17856     17857     17853     17856
     17857     17853     17855     17857     17853     17854     17859     17863     17864
     17860     17859     17862     17860     17859     17861     17861     17859     17862
     17863     17859     17862     17863     17859     17861     17863     17859     17860
     17865     17869     17870     17866     17865     17868     17866     17865     17867
     17867     17865     17868     17869     17865     17868     17869     17865     17867
     17869     17865     17866     17871     17875     17876     17872     17871     17874
     17872     17871     17873     17873     17871     17874     17875     17871     17874
     17875     17871     17873     17875     17871     17872     17877     17881     17882
     17878     17877     17880     17878     17877     17879     17879     17877     17880
     17881     17877     17880     17881     17877     17879     17881     17877     17878
     17883     17887     17888     17884     17883     17886     17884     17883     17885
     17885     17883     17886     17887     17883     17886     17887     17883     17885
     17887     17883     17884     17889     17893     17894     17890     17889     17892
     17890     17889     17891     17891     17889     17892     17893     17889     17892
     17893     17889     17891     17893     17889     17890     17895     17899     17900
     17896     17895     17898     17896     17895     17897     17897     17895     17898
     17899     17895     17898     17899     17895     17897     17899     17895     17896
     17901     17905     17906     17902     17901     17904     17902     17901     17903
     17903     17901     17904     17905     17901     17904     17905     17901     17903
     17905     17901     17902     17907     17911     17912     17908     17907     17910
     17908     17907     17909     17909     17907     17910     17911     17907     17910
     17911     17907     17909     17911     17907     17908     17913     17917     17918
     17914     17913     17916     17914     17913     17915     17915     17913     17916
     17917     17913     17916     17917     17913     17915     17917     17913     17914
     17919     17923     17924     17920     17919     17922     17920     17919     17921
     17921     17919     17922     17923     17919     17922     17923     17919     17921
     17923     17919     17920     17925     17929     17930     17926     17925     17928
     17926     17925     17927     17927     17925     17928     17929     17925     17928
     17929     17925     17927     17929     17925     17926     17931     17935     17936
     17932     17931     17934     17932     17931     17933     17933     17931     17934
     17935     17931     17934     17935     17931     17933     17935     17931     17932
     17937     17941     17942     17938     17937     17940     17938     17937     17939
     17939     17937     17940     17941     17937     17940     17941     17937     17939
     17941     17937     17938     17943     17947     17948     17944     17943     17946
     17944     17943     17945     17945     17943     17946     17947     17943     17946
     17947     17943     17945     17947     17943     17944     17949     17953     17954
     17950     17949     17952     17950     17949     17951     17951     17949     17952
     17953     17949     17952     17953     17949     17951     17953     17949     17950
     17955     17959     17960     17956     17955     17958     17956     17955     17957
     17957     17955     17958     17959     17955     17958     17959     17955     17957
     17959     17955     17956     17961     17965     17966     17962     17961     17964
     17962     17961     17963     17963     17961     17964     17965     17961     17964
     17965     17961     17963     17965     17961     17962     17967     17971     17972
     17968     17967     17970     17968     17967     17969     17969     17967     17970
     17971     17967     17970     17971     17967     17969     17971     17967     17968
     17973     17977     17978     17974     17973     17976     17974     17973     17975
     17975     17973     17976     17977     17973     17976     17977     17973     17975
     17977     17973     17974     17979     17983     17984     17980     17979     17982
     17980     17979     17981     17981     17979     17982     17983     17979     17982
     17983     17979     17981     17983     17979     17980     17985     17989     17990
     17986     17985     17988     17986     17985     17987     17987     17985     17988
     17989     17985     17988     17989     17985     17987     17989     17985     17986
     17991     17995     17996     17992     17991     17994     17992     17991     17993
     17993     17991     17994     17995     17991     17994     17995     17991     17993
     17995     17991     17992     17997     18001     18002     17998     17997     18000
     17998     17997     17999     17999     17997     18000     18001     17997     18000
     18001     17997     17999     18001     17997     17998     18003     18007     18008
     18004     18003     18006     18004     18003     18005     18005     18003     18006
     18007     18003     18006     18007     18003     18005     18007     18003     18004
     18009     18013     18014     18010     18009     18012     18010     18009     18011
     18011     18009     18012     18013     18009     18012     18013     18009     18011
     18013     18009     18010     18015     18019     18020     18016     18015     18018
     18016     18015     18017     18017     18015     18018     18019     18015     18018
     18019     18015     18017     18019     18015     18016     18021     18025     18026
     18022     18021     18024     18022     18021     18023     18023     18021     18024
     18025     18021     18024     18025     18021     18023     18025     18021     18022
     18027     18031     18032     18028     18027     18030     18028     18027     18029
     18029     18027     18030     18031     18027     18030     18031     18027     18029
     18031     18027     18028     18033     18037     18038     18034     18033     18036
     18034     18033     18035     18035     18033     18036     18037     18033     18036
     18037     18033     18035     18037     18033     18034     18039     18043     18044
     18040     18039     18042     18040     18039     18041     18041     18039     18042
     18043     18039     18042     18043     18039     18041     18043     18039     18040
     18045     18049     18050     18046     18045     18048     18046     18045     18047
     18047     18045     18048     18049     18045     18048     18049     18045     18047
     18049     18045     18046     18051     18055     18056     18052     18051     18054
     18052     18051     18053     18053     18051     18054     18055     18051     18054
     18055     18051     18053     18055     18051     18052     18057     18061     18062
     18058     18057     18060     18058     18057     18059     18059     18057     18060
     18061     18057     18060     18061     18057     18059     18061     18057     18058
     18063     18067     18068     18064     18063     18066     18064     18063     18065
     18065     18063     18066     18067     18063     18066     18067     18063     18065
     18067     18063     18064     18069     18073     18074     18070     18069     18072
     18070     18069     18071     18071     18069     18072     18073     18069     18072
     18073     18069     18071     18073     18069     18070     18075     18079     18080
     18076     18075     18078     18076     18075     18077     18077     18075     18078
     18079     18075     18078     18079     18075     18077     18079     18075     18076
     18081     18085     18086     18082     18081     18084     18082     18081     18083
     18083     18081     18084     18085     18081     18084     18085     18081     18083
     18085     18081     18082     18087     18091     18092     18088     18087     18090
     18088     18087     18089     18089     18087     18090     18091     18087     18090
     18091     18087     18089     18091     18087     18088     18093     18097     18098
     18094     18093     18096     18094     18093     18095     18095     18093     18096
     18097     18093     18096     18097     18093     18095     18097     18093     18094
     18099     18103     18104     18100     18099     18102     18100     18099     18101
     18101     18099     18102     18103     18099     18102     18103     18099     18101
     18103     18099     18100     18105     18109     18110     18106     18105     18108
     18106     18105     18107     18107     18105     18108     18109     18105     18108
     18109     18105     18107     18109     18105     18106     18111     18115     18116
     18112     18111     18114     18112     18111     18113     18113     18111     18114
     18115     18111     18114     18115     18111     18113     18115     18111     18112
     18117     18121     18122     18118     18117     18120     18118     18117     18119
     18119     18117     18120     18121     18117     18120     18121     18117     18119
     18121     18117     18118     18123     18127     18128     18124     18123     18126
     18124     18123     18125     18125     18123     18126     18127     18123     18126
     18127     18123     18125     18127     18123     18124     18129     18133     18134
     18130     18129     18132     18130     18129     18131     18131     18129     18132
     18133     18129     18132     18133     18129     18131     18133     18129     18130
     18135     18139     18140     18136     18135     18138     18136     18135     18137
     18137     18135     18138     18139     18135     18138     18139     18135     18137
     18139     18135     18136     18141     18145     18146     18142     18141     18144
     18142     18141     18143     18143     18141     18144     18145     18141     18144
     18145     18141     18143     18145     18141     18142     18147     18151     18152
     18148     18147     18150     18148     18147     18149     18149     18147     18150
     18151     18147     18150     18151     18147     18149     18151     18147     18148
     18153     18157     18158     18154     18153     18156     18154     18153     18155
     18155     18153     18156     18157     18153     18156     18157     18153     18155
     18157     18153     18154     18159     18163     18164     18160     18159     18162
     18160     18159     18161     18161     18159     18162     18163     18159     18162
     18163     18159     18161     18163     18159     18160     18165     18169     18170
     18166     18165     18168     18166     18165     18167     18167     18165     18168
     18169     18165     18168     18169     18165     18167     18169     18165     18166
     18171     18175     18176     18172     18171     18174     18172     18171     18173
     18173     18171     18174     18175     18171     18174     18175     18171     18173
     18175     18171     18172     18177     18181     18182     18178     18177     18180
     18178     18177     18179     18179     18177     18180     18181     18177     18180
     18181     18177     18179     18181     18177     18178     18183     18187     18188
     18184     18183     18186     18184     18183     18185     18185     18183     18186
     18187     18183     18186     18187     18183     18185     18187     18183     18184
     18189     18193     18194     18190     18189     18192     18190     18189     18191
     18191     18189     18192     18193     18189     18192     18193     18189     18191
     18193     18189     18190     18195     18199     18200     18196     18195     18198
     18196     18195     18197     18197     18195     18198     18199     18195     18198
     18199     18195     18197     18199     18195     18196     18201     18205     18206
     18202     18201     18204     18202     18201     18203     18203     18201     18204
     18205     18201     18204     18205     18201     18203     18205     18201     18202
     18207     18211     18212     18208     18207     18210     18208     18207     18209
     18209     18207     18210     18211     18207     18210     18211     18207     18209
     18211     18207     18208     18213     18217     18218     18214     18213     18216
     18214     18213     18215     18215     18213     18216     18217     18213     18216
     18217     18213     18215     18217     18213     18214     18219     18223     18224
     18220     18219     18222     18220     18219     18221     18221     18219     18222
     18223     18219     18222     18223     18219     18221     18223     18219     18220
     18225     18229     18230     18226     18225     18228     18226     18225     18227
     18227     18225     18228     18229     18225     18228     18229     18225     18227
     18229     18225     18226     18231     18235     18236     18232     18231     18234
     18232     18231     18233     18233     18231     18234     18235     18231     18234
     18235     18231     18233     18235     18231     18232     18237     18241     18242
     18238     18237     18240     18238     18237     18239     18239     18237     18240
     18241     18237     18240     18241     18237     18239     18241     18237     18238
     18243     18247     18248     18244     18243     18246     18244     18243     18245
     18245     18243     18246     18247     18243     18246     18247     18243     18245
     18247     18243     18244     18249     18253     18254     18250     18249     18252
     18250     18249     18251     18251     18249     18252     18253     18249     18252
     18253     18249     18251     18253     18249     18250     18255     18259     18260
     18256     18255     18258     18256     18255     18257     18257     18255     18258
     18259     18255     18258     18259     18255     18257     18259     18255     18256
     18261     18265     18266     18262     18261     18264     18262     18261     18263
     18263     18261     18264     18265     18261     18264     18265     18261     18263
     18265     18261     18262     18267     18271     18272     18268     18267     18270
     18268     18267     18269     18269     18267     18270     18271     18267     18270
     18271     18267     18269     18271     18267     18268     18273     18277     18278
     18274     18273     18276     18274     18273     18275     18275     18273     18276
     18277     18273     18276     18277     18273     18275     18277     18273     18274
     18279     18283     18284     18280     18279     18282     18280     18279     18281
     18281     18279     18282     18283     18279     18282     18283     18279     18281
     18283     18279     18280     18285     18289     18290     18286     18285     18288
     18286     18285     18287     18287     18285     18288     18289     18285     18288
     18289     18285     18287     18289     18285     18286     18291     18295     18296
     18292     18291     18294     18292     18291     18293     18293     18291     18294
     18295     18291     18294     18295     18291     18293     18295     18291     18292
     18297     18301     18302     18298     18297     18300     18298     18297     18299
     18299     18297     18300     18301     18297     18300     18301     18297     18299
     18301     18297     18298     18303     18307     18308     18304     18303     18306
     18304     18303     18305     18305     18303     18306     18307     18303     18306
     18307     18303     18305     18307     18303     18304     18309     18313     18314
     18310     18309     18312     18310     18309     18311     18311     18309     18312
     18313     18309     18312     18313     18309     18311     18313     18309     18310
     18315     18319     18320     18316     18315     18318     18316     18315     18317
     18317     18315     18318     18319     18315     18318     18319     18315     18317
     18319     18315     18316     18321     18325     18326     18322     18321     18324
     18322     18321     18323     18323     18321     18324     18325     18321     18324
     18325     18321     18323     18325     18321     18322     18327     18331     18332
     18328     18327     18330     18328     18327     18329     18329     18327     18330
     18331     18327     18330     18331     18327     18329     18331     18327     18328
     18333     18337     18338     18334     18333     18336     18334     18333     18335
     18335     18333     18336     18337     18333     18336     18337     18333     18335
     18337     18333     18334     18339     18343     18344     18340     18339     18342
     18340     18339     18341     18341     18339     18342     18343     18339     18342
     18343     18339     18341     18343     18339     18340     18345     18349     18350
     18346     18345     18348     18346     18345     18347     18347     18345     18348
     18349     18345     18348     18349     18345     18347     18349     18345     18346
     18351     18355     18356     18352     18351     18354     18352     18351     18353
     18353     18351     18354     18355     18351     18354     18355     18351     18353
     18355     18351     18352     18357     18361     18362     18358     18357     18360
     18358     18357     18359     18359     18357     18360     18361     18357     18360
     18361     18357     18359     18361     18357     18358     18363     18367     18368
     18364     18363     18366     18364     18363     18365     18365     18363     18366
     18367     18363     18366     18367     18363     18365     18367     18363     18364
     18369     18373     18374     18370     18369     18372     18370     18369     18371
     18371     18369     18372     18373     18369     18372     18373     18369     18371
     18373     18369     18370     18375     18379     18380     18376     18375     18378
     18376     18375     18377     18377     18375     18378     18379     18375     18378
     18379     18375     18377     18379     18375     18376     18381     18385     18386
     18382     18381     18384     18382     18381     18383     18383     18381     18384
     18385     18381     18384     18385     18381     18383     18385     18381     18382
     18387     18391     18392     18388     18387     18390     18388     18387     18389
     18389     18387     18390     18391     18387     18390     18391     18387     18389
     18391     18387     18388     18393     18397     18398     18394     18393     18396
     18394     18393     18395     18395     18393     18396     18397     18393     18396
     18397     18393     18395     18397     18393     18394     18399     18403     18404
     18400     18399     18402     18400     18399     18401     18401     18399     18402
     18403     18399     18402     18403     18399     18401     18403     18399     18400
     18405     18409     18410     18406     18405     18408     18406     18405     18407
     18407     18405     18408     18409     18405     18408     18409     18405     18407
     18409     18405     18406     18411     18415     18416     18412     18411     18414
     18412     18411     18413     18413     18411     18414     18415     18411     18414
     18415     18411     18413     18415     18411     18412     18417     18421     18422
     18418     18417     18420     18418     18417     18419     18419     18417     18420
     18421     18417     18420     18421     18417     18419     18421     18417     18418
     18423     18427     18428     18424     18423     18426     18424     18423     18425
     18425     18423     18426     18427     18423     18426     18427     18423     18425
     18427     18423     18424     18429     18433     18434     18430     18429     18432
     18430     18429     18431     18431     18429     18432     18433     18429     18432
     18433     18429     18431     18433     18429     18430     18435     18439     18440
     18436     18435     18438     18436     18435     18437     18437     18435     18438
     18439     18435     18438     18439     18435     18437     18439     18435     18436
     18441     18445     18446     18442     18441     18444     18442     18441     18443
     18443     18441     18444     18445     18441     18444     18445     18441     18443
     18445     18441     18442     18447     18451     18452     18448     18447     18450
     18448     18447     18449     18449     18447     18450     18451     18447     18450
     18451     18447     18449     18451     18447     18448     18453     18457     18458
     18454     18453     18456     18454     18453     18455     18455     18453     18456
     18457     18453     18456     18457     18453     18455     18457     18453     18454
     18459     18463     18464     18460     18459     18462     18460     18459     18461
     18461     18459     18462     18463     18459     18462     18463     18459     18461
     18463     18459     18460     18465     18469     18470     18466     18465     18468
     18466     18465     18467     18467     18465     18468     18469     18465     18468
     18469     18465     18467     18469     18465     18466     18471     18475     18476
     18472     18471     18474     18472     18471     18473     18473     18471     18474
     18475     18471     18474     18475     18471     18473     18475     18471     18472
     18477     18481     18482     18478     18477     18480     18478     18477     18479
     18479     18477     18480     18481     18477     18480     18481     18477     18479
     18481     18477     18478     18483     18487     18488     18484     18483     18486
     18484     18483     18485     18485     18483     18486     18487     18483     18486
     18487     18483     18485     18487     18483     18484     18489     18493     18494
     18490     18489     18492     18490     18489     18491     18491     18489     18492
     18493     18489     18492     18493     18489     18491     18493     18489     18490
     18495     18499     18500     18496     18495     18498     18496     18495     18497
     18497     18495     18498     18499     18495     18498     18499     18495     18497
     18499     18495     18496     18501     18505     18506     18502     18501     18504
     18502     18501     18503     18503     18501     18504     18505     18501     18504
     18505     18501     18503     18505     18501     18502     18507     18511     18512
     18508     18507     18510     18508     18507     18509     18509     18507     18510
     18511     18507     18510     18511     18507     18509     18511     18507     18508
     18513     18517     18518     18514     18513     18516     18514     18513     18515
     18515     18513     18516     18517     18513     18516     18517     18513     18515
     18517     18513     18514     18519     18523     18524     18520     18519     18522
     18520     18519     18521     18521     18519     18522     18523     18519     18522
     18523     18519     18521     18523     18519     18520     18525     18529     18530
     18526     18525     18528     18526     18525     18527     18527     18525     18528
     18529     18525     18528     18529     18525     18527     18529     18525     18526
     18531     18535     18536     18532     18531     18534     18532     18531     18533
     18533     18531     18534     18535     18531     18534     18535     18531     18533
     18535     18531     18532     18537     18541     18542     18538     18537     18540
     18538     18537     18539     18539     18537     18540     18541     18537     18540
     18541     18537     18539     18541     18537     18538     18543     18547     18548
     18544     18543     18546     18544     18543     18545     18545     18543     18546
     18547     18543     18546     18547     18543     18545     18547     18543     18544
     18549     18553     18554     18550     18549     18552     18550     18549     18551
     18551     18549     18552     18553     18549     18552     18553     18549     18551
     18553     18549     18550     18555     18559     18560     18556     18555     18558
     18556     18555     18557     18557     18555     18558     18559     18555     18558
     18559     18555     18557     18559     18555     18556     18561     18565     18566
     18562     18561     18564     18562     18561     18563     18563     18561     18564
     18565     18561     18564     18565     18561     18563     18565     18561     18562
     18567     18571     18572     18568     18567     18570     18568     18567     18569
     18569     18567     18570     18571     18567     18570     18571     18567     18569
     18571     18567     18568     18573     18577     18578     18574     18573     18576
     18574     18573     18575     18575     18573     18576     18577     18573     18576
     18577     18573     18575     18577     18573     18574     18579     18583     18584
     18580     18579     18582     18580     18579     18581     18581     18579     18582
     18583     18579     18582     18583     18579     18581     18583     18579     18580
     18585     18589     18590     18586     18585     18588     18586     18585     18587
     18587     18585     18588     18589     18585     18588     18589     18585     18587
     18589     18585     18586     18591     18595     18596     18592     18591     18594
     18592     18591     18593     18593     18591     18594     18595     18591     18594
     18595     18591     18593     18595     18591     18592     18597     18601     18602
     18598     18597     18600     18598     18597     18599     18599     18597     18600
     18601     18597     18600     18601     18597     18599     18601     18597     18598
     18603     18607     18608     18604     18603     18606     18604     18603     18605
     18605     18603     18606     18607     18603     18606     18607     18603     18605
     18607     18603     18604     18609     18613     18614     18610     18609     18612
     18610     18609     18611     18611     18609     18612     18613     18609     18612
     18613     18609     18611     18613     18609     18610     18615     18619     18620
     18616     18615     18618     18616     18615     18617     18617     18615     18618
     18619     18615     18618     18619     18615     18617     18619     18615     18616
     18621     18625     18626     18622     18621     18624     18622     18621     18623
     18623     18621     18624     18625     18621     18624     18625     18621     18623
     18625     18621     18622     18627     18631     18632     18628     18627     18630
     18628     18627     18629     18629     18627     18630     18631     18627     18630
     18631     18627     18629     18631     18627     18628     18633     18637     18638
     18634     18633     18636     18634     18633     18635     18635     18633     18636
     18637     18633     18636     18637     18633     18635     18637     18633     18634
     18639     18643     18644     18640     18639     18642     18640     18639     18641
     18641     18639     18642     18643     18639     18642     18643     18639     18641
     18643     18639     18640     18645     18649     18650     18646     18645     18648
     18646     18645     18647     18647     18645     18648     18649     18645     18648
     18649     18645     18647     18649     18645     18646     18651     18655     18656
     18652     18651     18654     18652     18651     18653     18653     18651     18654
     18655     18651     18654     18655     18651     18653     18655     18651     18652
     18657     18661     18662     18658     18657     18660     18658     18657     18659
     18659     18657     18660     18661     18657     18660     18661     18657     18659
     18661     18657     18658     18663     18667     18668     18664     18663     18666
     18664     18663     18665     18665     18663     18666     18667     18663     18666
     18667     18663     18665     18667     18663     18664     18669     18673     18674
     18670     18669     18672     18670     18669     18671     18671     18669     18672
     18673     18669     18672     18673     18669     18671     18673     18669     18670
     18675     18679     18680     18676     18675     18678     18676     18675     18677
     18677     18675     18678     18679     18675     18678     18679     18675     18677
     18679     18675     18676     18681     18685     18686     18682     18681     18684
     18682     18681     18683     18683     18681     18684     18685     18681     18684
     18685     18681     18683     18685     18681     18682     18687     18691     18692
     18688     18687     18690     18688     18687     18689     18689     18687     18690
     18691     18687     18690     18691     18687     18689     18691     18687     18688
     18693     18697     18698     18694     18693     18696     18694     18693     18695
     18695     18693     18696     18697     18693     18696     18697     18693     18695
     18697     18693     18694     18699     18703     18704     18700     18699     18702
     18700     18699     18701     18701     18699     18702     18703     18699     18702
     18703     18699     18701     18703     18699     18700     18705     18709     18710
     18706     18705     18708     18706     18705     18707     18707     18705     18708
     18709     18705     18708     18709     18705     18707     18709     18705     18706
     18711     18715     18716     18712     18711     18714     18712     18711     18713
     18713     18711     18714     18715     18711     18714     18715     18711     18713
     18715     18711     18712     18717     18721     18722     18718     18717     18720
     18718     18717     18719     18719     18717     18720     18721     18717     18720
     18721     18717     18719     18721     18717     18718     18723     18727     18728
     18724     18723     18726     18724     18723     18725     18725     18723     18726
     18727     18723     18726     18727     18723     18725     18727     18723     18724
     18729     18733     18734     18730     18729     18732     18730     18729     18731
     18731     18729     18732     18733     18729     18732     18733     18729     18731
     18733     18729     18730     18735     18739     18740     18736     18735     18738
     18736     18735     18737     18737     18735     18738     18739     18735     18738
     18739     18735     18737     18739     18735     18736     18741     18745     18746
     18742     18741     18744     18742     18741     18743     18743     18741     18744
     18745     18741     18744     18745     18741     18743     18745     18741     18742
     18747     18751     18752     18748     18747     18750     18748     18747     18749
     18749     18747     18750     18751     18747     18750     18751     18747     18749
     18751     18747     18748     18753     18757     18758     18754     18753     18756
     18754     18753     18755     18755     18753     18756     18757     18753     18756
     18757     18753     18755     18757     18753     18754     18759     18763     18764
     18760     18759     18762     18760     18759     18761     18761     18759     18762
     18763     18759     18762     18763     18759     18761     18763     18759     18760
     18765     18769     18770     18766     18765     18768     18766     18765     18767
     18767     18765     18768     18769     18765     18768     18769     18765     18767
     18769     18765     18766     18771     18775     18776     18772     18771     18774
     18772     18771     18773     18773     18771     18774     18775     18771     18774
     18775     18771     18773     18775     18771     18772     18777     18781     18782
     18778     18777     18780     18778     18777     18779     18779     18777     18780
     18781     18777     18780     18781     18777     18779     18781     18777     18778
     18783     18787     18788     18784     18783     18786     18784     18783     18785
     18785     18783     18786     18787     18783     18786     18787     18783     18785
     18787     18783     18784     18789     18793     18794     18790     18789     18792
     18790     18789     18791     18791     18789     18792     18793     18789     18792
     18793     18789     18791     18793     18789     18790     18795     18799     18800
     18796     18795     18798     18796     18795     18797     18797     18795     18798
     18799     18795     18798     18799     18795     18797     18799     18795     18796
     18801     18805     18806     18802     18801     18804     18802     18801     18803
     18803     18801     18804     18805     18801     18804     18805     18801     18803
     18805     18801     18802     18807     18811     18812     18808     18807     18810
     18808     18807     18809     18809     18807     18810     18811     18807     18810
     18811     18807     18809     18811     18807     18808     18813     18817     18818
     18814     18813     18816     18814     18813     18815     18815     18813     18816
     18817     18813     18816     18817     18813     18815     18817     18813     18814
     18819     18823     18824     18820     18819     18822     18820     18819     18821
     18821     18819     18822     18823     18819     18822     18823     18819     18821
     18823     18819     18820     18825     18829     18830     18826     18825     18828
     18826     18825     18827     18827     18825     18828     18829     18825     18828
     18829     18825     18827     18829     18825     18826     18831     18835     18836
     18832     18831     18834     18832     18831     18833     18833     18831     18834
     18835     18831     18834     18835     18831     18833     18835     18831     18832
     18837     18841     18842     18838     18837     18840     18838     18837     18839
     18839     18837     18840     18841     18837     18840     18841     18837     18839
     18841     18837     18838     18843     18847     18848     18844     18843     18846
     18844     18843     18845     18845     18843     18846     18847     18843     18846
     18847     18843     18845     18847     18843     18844     18849     18853     18854
     18850     18849     18852     18850     18849     18851     18851     18849     18852
     18853     18849     18852     18853     18849     18851     18853     18849     18850
     18855     18859     18860     18856     18855     18858     18856     18855     18857
     18857     18855     18858     18859     18855     18858     18859     18855     18857
     18859     18855     18856     18861     18865     18866     18862     18861     18864
     18862     18861     18863     18863     18861     18864     18865     18861     18864
     18865     18861     18863     18865     18861     18862     18867     18871     18872
     18868     18867     18870     18868     18867     18869     18869     18867     18870
     18871     18867     18870     18871     18867     18869     18871     18867     18868
     18873     18877     18878     18874     18873     18876     18874     18873     18875
     18875     18873     18876     18877     18873     18876     18877     18873     18875
     18877     18873     18874     18879     18883     18884     18880     18879     18882
     18880     18879     18881     18881     18879     18882     18883     18879     18882
     18883     18879     18881     18883     18879     18880     18885     18889     18890
     18886     18885     18888     18886     18885     18887     18887     18885     18888
     18889     18885     18888     18889     18885     18887     18889     18885     18886
     18891     18895     18896     18892     18891     18894     18892     18891     18893
     18893     18891     18894     18895     18891     18894     18895     18891     18893
     18895     18891     18892     18897     18901     18902     18898     18897     18900
     18898     18897     18899     18899     18897     18900     18901     18897     18900
     18901     18897     18899     18901     18897     18898     18903     18907     18908
     18904     18903     18906     18904     18903     18905     18905     18903     18906
     18907     18903     18906     18907     18903     18905     18907     18903     18904
     18909     18913     18914     18910     18909     18912     18910     18909     18911
     18911     18909     18912     18913     18909     18912     18913     18909     18911
     18913     18909     18910     18915     18919     18920     18916     18915     18918
     18916     18915     18917     18917     18915     18918     18919     18915     18918
     18919     18915     18917     18919     18915     18916     18921     18925     18926
     18922     18921     18924     18922     18921     18923     18923     18921     18924
     18925     18921     18924     18925     18921     18923     18925     18921     18922
     18927     18931     18932     18928     18927     18930     18928     18927     18929
     18929     18927     18930     18931     18927     18930     18931     18927     18929
     18931     18927     18928     18933     18937     18938     18934     18933     18936
     18934     18933     18935     18935     18933     18936     18937     18933     18936
     18937     18933     18935     18937     18933     18934     18939     18943     18944
     18940     18939     18942     18940     18939     18941     18941     18939     18942
     18943     18939     18942     18943     18939     18941     18943     18939     18940
     18945     18949     18950     18946     18945     18948     18946     18945     18947
     18947     18945     18948     18949     18945     18948     18949     18945     18947
     18949     18945     18946     18951     18955     18956     18952     18951     18954
     18952     18951     18953     18953     18951     18954     18955     18951     18954
     18955     18951     18953     18955     18951     18952     18957     18961     18962
     18958     18957     18960     18958     18957     18959     18959     18957     18960
     18961     18957     18960     18961     18957     18959     18961     18957     18958
     18963     18967     18968     18964     18963     18966     18964     18963     18965
     18965     18963     18966     18967     18963     18966     18967     18963     18965
     18967     18963     18964     18969     18973     18974     18970     18969     18972
     18970     18969     18971     18971     18969     18972     18973     18969     18972
     18973     18969     18971     18973     18969     18970     18975     18979     18980
     18976     18975     18978     18976     18975     18977     18977     18975     18978
     18979     18975     18978     18979     18975     18977     18979     18975     18976
     18981     18985     18986     18982     18981     18984     18982     18981     18983
     18983     18981     18984     18985     18981     18984     18985     18981     18983
     18985     18981     18982     18987     18991     18992     18988     18987     18990
     18988     18987     18989     18989     18987     18990     18991     18987     18990
     18991     18987     18989     18991     18987     18988     18993     18997     18998
     18994     18993     18996     18994     18993     18995     18995     18993     18996
     18997     18993     18996     18997     18993     18995     18997     18993     18994
     18999     19003     19004     19000     18999     19002     19000     18999     19001
     19001     18999     19002     19003     18999     19002     19003     18999     19001
     19003     18999     19000     19005     19009     19010     19006     19005     19008
     19006     19005     19007     19007     19005     19008     19009     19005     19008
     19009     19005     19007     19009     19005     19006     19011     19015     19016
     19012     19011     19014     19012     19011     19013     19013     19011     19014
     19015     19011     19014     19015     19011     19013     19015     19011     19012
     19017     19021     19022     19018     19017     19020     19018     19017     19019
     19019     19017     19020     19021     19017     19020     19021     19017     19019
     19021     19017     19018     19023     19027     19028     19024     19023     19026
     19024     19023     19025     19025     19023     19026     19027     19023     19026
     19027     19023     19025     19027     19023     19024     19029     19033     19034
     19030     19029     19032     19030     19029     19031     19031     19029     19032
     19033     19029     19032     19033     19029     19031     19033     19029     19030
     19035     19039     19040     19036     19035     19038     19036     19035     19037
     19037     19035     19038     19039     19035     19038     19039     19035     19037
     19039     19035     19036     19041     19045     19046     19042     19041     19044
     19042     19041     19043     19043     19041     19044     19045     19041     19044
     19045     19041     19043     19045     19041     19042     19047     19051     19052
     19048     19047     19050     19048     19047     19049     19049     19047     19050
     19051     19047     19050     19051     19047     19049     19051     19047     19048
     19053     19057     19058     19054     19053     19056     19054     19053     19055
     19055     19053     19056     19057     19053     19056     19057     19053     19055
     19057     19053     19054     19059     19063     19064     19060     19059     19062
     19060     19059     19061     19061     19059     19062     19063     19059     19062
     19063     19059     19061     19063     19059     19060     19065     19069     19070
     19066     19065     19068     19066     19065     19067     19067     19065     19068
     19069     19065     19068     19069     19065     19067     19069     19065     19066
     19071     19075     19076     19072     19071     19074     19072     19071     19073
     19073     19071     19074     19075     19071     19074     19075     19071     19073
     19075     19071     19072     19077     19081     19082     19078     19077     19080
     19078     19077     19079     19079     19077     19080     19081     19077     19080
     19081     19077     19079     19081     19077     19078     19083     19087     19088
     19084     19083     19086     19084     19083     19085     19085     19083     19086
     19087     19083     19086     19087     19083     19085     19087     19083     19084
     19089     19093     19094     19090     19089     19092     19090     19089     19091
     19091     19089     19092     19093     19089     19092     19093     19089     19091
     19093     19089     19090     19095     19099     19100     19096     19095     19098
     19096     19095     19097     19097     19095     19098     19099     19095     19098
     19099     19095     19097     19099     19095     19096     19101     19105     19106
     19102     19101     19104     19102     19101     19103     19103     19101     19104
     19105     19101     19104     19105     19101     19103     19105     19101     19102
     19107     19111     19112     19108     19107     19110     19108     19107     19109
     19109     19107     19110     19111     19107     19110     19111     19107     19109
     19111     19107     19108     19113     19117     19118     19114     19113     19116
     19114     19113     19115     19115     19113     19116     19117     19113     19116
     19117     19113     19115     19117     19113     19114     19119     19123     19124
     19120     19119     19122     19120     19119     19121     19121     19119     19122
     19123     19119     19122     19123     19119     19121     19123     19119     19120
     19125     19129     19130     19126     19125     19128     19126     19125     19127
     19127     19125     19128     19129     19125     19128     19129     19125     19127
     19129     19125     19126     19131     19135     19136     19132     19131     19134
     19132     19131     19133     19133     19131     19134     19135     19131     19134
     19135     19131     19133     19135     19131     19132     19137     19141     19142
     19138     19137     19140     19138     19137     19139     19139     19137     19140
     19141     19137     19140     19141     19137     19139     19141     19137     19138
     19143     19147     19148     19144     19143     19146     19144     19143     19145
     19145     19143     19146     19147     19143     19146     19147     19143     19145
     19147     19143     19144     19149     19153     19154     19150     19149     19152
     19150     19149     19151     19151     19149     19152     19153     19149     19152
     19153     19149     19151     19153     19149     19150     19155     19159     19160
     19156     19155     19158     19156     19155     19157     19157     19155     19158
     19159     19155     19158     19159     19155     19157     19159     19155     19156
     19161     19165     19166     19162     19161     19164     19162     19161     19163
     19163     19161     19164     19165     19161     19164     19165     19161     19163
     19165     19161     19162     19167     19171     19172     19168     19167     19170
     19168     19167     19169     19169     19167     19170     19171     19167     19170
     19171     19167     19169     19171     19167     19168     19173     19177     19178
     19174     19173     19176     19174     19173     19175     19175     19173     19176
     19177     19173     19176     19177     19173     19175     19177     19173     19174
     19179     19183     19184     19180     19179     19182     19180     19179     19181
     19181     19179     19182     19183     19179     19182     19183     19179     19181
     19183     19179     19180     19185     19189     19190     19186     19185     19188
     19186     19185     19187     19187     19185     19188     19189     19185     19188
     19189     19185     19187     19189     19185     19186     19191     19195     19196
     19192     19191     19194     19192     19191     19193     19193     19191     19194
     19195     19191     19194     19195     19191     19193     19195     19191     19192
     19197     19201     19202     19198     19197     19200     19198     19197     19199
     19199     19197     19200     19201     19197     19200     19201     19197     19199
     19201     19197     19198     19203     19207     19208     19204     19203     19206
     19204     19203     19205     19205     19203     19206     19207     19203     19206
     19207     19203     19205     19207     19203     19204     19209     19213     19214
     19210     19209     19212     19210     19209     19211     19211     19209     19212
     19213     19209     19212     19213     19209     19211     19213     19209     19210
     19215     19219     19220     19216     19215     19218     19216     19215     19217
     19217     19215     19218     19219     19215     19218     19219     19215     19217
     19219     19215     19216     19221     19225     19226     19222     19221     19224
     19222     19221     19223     19223     19221     19224     19225     19221     19224
     19225     19221     19223     19225     19221     19222     19227     19231     19232
     19228     19227     19230     19228     19227     19229     19229     19227     19230
     19231     19227     19230     19231     19227     19229     19231     19227     19228
     19233     19237     19238     19234     19233     19236     19234     19233     19235
     19235     19233     19236     19237     19233     19236     19237     19233     19235
     19237     19233     19234     19239     19243     19244     19240     19239     19242
     19240     19239     19241     19241     19239     19242     19243     19239     19242
     19243     19239     19241     19243     19239     19240     19245     19249     19250
     19246     19245     19248     19246     19245     19247     19247     19245     19248
     19249     19245     19248     19249     19245     19247     19249     19245     19246
     19251     19255     19256     19252     19251     19254     19252     19251     19253
     19253     19251     19254     19255     19251     19254     19255     19251     19253
     19255     19251     19252     19257     19261     19262     19258     19257     19260
     19258     19257     19259     19259     19257     19260     19261     19257     19260
     19261     19257     19259     19261     19257     19258     19263     19267     19268
     19264     19263     19266     19264     19263     19265     19265     19263     19266
     19267     19263     19266     19267     19263     19265     19267     19263     19264
     19269     19273     19274     19270     19269     19272     19270     19269     19271
     19271     19269     19272     19273     19269     19272     19273     19269     19271
     19273     19269     19270     19275     19279     19280     19276     19275     19278
     19276     19275     19277     19277     19275     19278     19279     19275     19278
     19279     19275     19277     19279     19275     19276     19281     19285     19286
     19282     19281     19284     19282     19281     19283     19283     19281     19284
     19285     19281     19284     19285     19281     19283     19285     19281     19282
     19287     19291     19292     19288     19287     19290     19288     19287     19289
     19289     19287     19290     19291     19287     19290     19291     19287     19289
     19291     19287     19288     19293     19297     19298     19294     19293     19296
     19294     19293     19295     19295     19293     19296     19297     19293     19296
     19297     19293     19295     19297     19293     19294     19299     19303     19304
     19300     19299     19302     19300     19299     19301     19301     19299     19302
     19303     19299     19302     19303     19299     19301     19303     19299     19300
     19305     19309     19310     19306     19305     19308     19306     19305     19307
     19307     19305     19308     19309     19305     19308     19309     19305     19307
     19309     19305     19306     19311     19315     19316     19312     19311     19314
     19312     19311     19313     19313     19311     19314     19315     19311     19314
     19315     19311     19313     19315     19311     19312     19317     19321     19322
     19318     19317     19320     19318     19317     19319     19319     19317     19320
     19321     19317     19320     19321     19317     19319     19321     19317     19318
     19323     19327     19328     19324     19323     19326     19324     19323     19325
     19325     19323     19326     19327     19323     19326     19327     19323     19325
     19327     19323     19324     19329     19333     19334     19330     19329     19332
     19330     19329     19331     19331     19329     19332     19333     19329     19332
     19333     19329     19331     19333     19329     19330     19335     19339     19340
     19336     19335     19338     19336     19335     19337     19337     19335     19338
     19339     19335     19338     19339     19335     19337     19339     19335     19336
     19341     19345     19346     19342     19341     19344     19342     19341     19343
     19343     19341     19344     19345     19341     19344     19345     19341     19343
     19345     19341     19342     19347     19351     19352     19348     19347     19350
     19348     19347     19349     19349     19347     19350     19351     19347     19350
     19351     19347     19349     19351     19347     19348     19353     19357     19358
     19354     19353     19356     19354     19353     19355     19355     19353     19356
     19357     19353     19356     19357     19353     19355     19357     19353     19354
     19359     19363     19364     19360     19359     19362     19360     19359     19361
     19361     19359     19362     19363     19359     19362     19363     19359     19361
     19363     19359     19360     19365     19369     19370     19366     19365     19368
     19366     19365     19367     19367     19365     19368     19369     19365     19368
     19369     19365     19367     19369     19365     19366     19371     19375     19376
     19372     19371     19374     19372     19371     19373     19373     19371     19374
     19375     19371     19374     19375     19371     19373     19375     19371     19372
     19377     19381     19382     19378     19377     19380     19378     19377     19379
     19379     19377     19380     19381     19377     19380     19381     19377     19379
     19381     19377     19378     19383     19387     19388     19384     19383     19386
     19384     19383     19385     19385     19383     19386     19387     19383     19386
     19387     19383     19385     19387     19383     19384     19389     19393     19394
     19390     19389     19392     19390     19389     19391     19391     19389     19392
     19393     19389     19392     19393     19389     19391     19393     19389     19390
     19395     19399     19400     19396     19395     19398     19396     19395     19397
     19397     19395     19398     19399     19395     19398     19399     19395     19397
     19399     19395     19396     19401     19405     19406     19402     19401     19404
     19402     19401     19403     19403     19401     19404     19405     19401     19404
     19405     19401     19403     19405     19401     19402     19407     19411     19412
     19408     19407     19410     19408     19407     19409     19409     19407     19410
     19411     19407     19410     19411     19407     19409     19411     19407     19408
     19413     19417     19418     19414     19413     19416     19414     19413     19415
     19415     19413     19416     19417     19413     19416     19417     19413     19415
     19417     19413     19414     19419     19423     19424     19420     19419     19422
     19420     19419     19421     19421     19419     19422     19423     19419     19422
     19423     19419     19421     19423     19419     19420     19425     19429     19430
     19426     19425     19428     19426     19425     19427     19427     19425     19428
     19429     19425     19428     19429     19425     19427     19429     19425     19426
     19431     19435     19436     19432     19431     19434     19432     19431     19433
     19433     19431     19434     19435     19431     19434     19435     19431     19433
     19435     19431     19432     19437     19441     19442     19438     19437     19440
     19438     19437     19439     19439     19437     19440     19441     19437     19440
     19441     19437     19439     19441     19437     19438     19443     19447     19448
     19444     19443     19446     19444     19443     19445     19445     19443     19446
     19447     19443     19446     19447     19443     19445     19447     19443     19444
     19449     19453     19454     19450     19449     19452     19450     19449     19451
     19451     19449     19452     19453     19449     19452     19453     19449     19451
     19453     19449     19450     19455     19459     19460     19456     19455     19458
     19456     19455     19457     19457     19455     19458     19459     19455     19458
     19459     19455     19457     19459     19455     19456     19461     19465     19466
     19462     19461     19464     19462     19461     19463     19463     19461     19464
     19465     19461     19464     19465     19461     19463     19465     19461     19462
     19467     19471     19472     19468     19467     19470     19468     19467     19469
     19469     19467     19470     19471     19467     19470     19471     19467     19469
     19471     19467     19468     19473     19477     19478     19474     19473     19476
     19474     19473     19475     19475     19473     19476     19477     19473     19476
     19477     19473     19475     19477     19473     19474     19479     19483     19484
     19480     19479     19482     19480     19479     19481     19481     19479     19482
     19483     19479     19482     19483     19479     19481     19483     19479     19480
     19485     19489     19490     19486     19485     19488     19486     19485     19487
     19487     19485     19488     19489     19485     19488     19489     19485     19487
     19489     19485     19486     19491     19495     19496     19492     19491     19494
     19492     19491     19493     19493     19491     19494     19495     19491     19494
     19495     19491     19493     19495     19491     19492     19497     19501     19502
     19498     19497     19500     19498     19497     19499     19499     19497     19500
     19501     19497     19500     19501     19497     19499     19501     19497     19498
     19503     19507     19508     19504     19503     19506     19504     19503     19505
     19505     19503     19506     19507     19503     19506     19507     19503     19505
     19507     19503     19504     19509     19513     19514     19510     19509     19512
     19510     19509     19511     19511     19509     19512     19513     19509     19512
     19513     19509     19511     19513     19509     19510     19515     19519     19520
     19516     19515     19518     19516     19515     19517     19517     19515     19518
     19519     19515     19518     19519     19515     19517     19519     19515     19516
     19521     19525     19526     19522     19521     19524     19522     19521     19523
     19523     19521     19524     19525     19521     19524     19525     19521     19523
     19525     19521     19522     19527     19531     19532     19528     19527     19530
     19528     19527     19529     19529     19527     19530     19531     19527     19530
     19531     19527     19529     19531     19527     19528     19533     19537     19538
     19534     19533     19536     19534     19533     19535     19535     19533     19536
     19537     19533     19536     19537     19533     19535     19537     19533     19534
     19539     19543     19544     19540     19539     19542     19540     19539     19541
     19541     19539     19542     19543     19539     19542     19543     19539     19541
     19543     19539     19540     19545     19549     19550     19546     19545     19548
     19546     19545     19547     19547     19545     19548     19549     19545     19548
     19549     19545     19547     19549     19545     19546     19551     19555     19556
     19552     19551     19554     19552     19551     19553     19553     19551     19554
     19555     19551     19554     19555     19551     19553     19555     19551     19552
     19557     19561     19562     19558     19557     19560     19558     19557     19559
     19559     19557     19560     19561     19557     19560     19561     19557     19559
     19561     19557     19558     19563     19567     19568     19564     19563     19566
     19564     19563     19565     19565     19563     19566     19567     19563     19566
     19567     19563     19565     19567     19563     19564     19569     19573     19574
     19570     19569     19572     19570     19569     19571     19571     19569     19572
     19573     19569     19572     19573     19569     19571     19573     19569     19570
     19575     19579     19580     19576     19575     19578     19576     19575     19577
     19577     19575     19578     19579     19575     19578     19579     19575     19577
     19579     19575     19576     19581     19585     19586     19582     19581     19584
     19582     19581     19583     19583     19581     19584     19585     19581     19584
     19585     19581     19583     19585     19581     19582     19587     19591     19592
     19588     19587     19590     19588     19587     19589     19589     19587     19590
     19591     19587     19590     19591     19587     19589     19591     19587     19588
     19593     19597     19598     19594     19593     19596     19594     19593     19595
     19595     19593     19596     19597     19593     19596     19597     19593     19595
     19597     19593     19594     19599     19603     19604     19600     19599     19602
     19600     19599     19601     19601     19599     19602     19603     19599     19602
     19603     19599     19601     19603     19599     19600     19605     19609     19610
     19606     19605     19608     19606     19605     19607     19607     19605     19608
     19609     19605     19608     19609     19605     19607     19609     19605     19606
     19611     19615     19616     19612     19611     19614     19612     19611     19613
     19613     19611     19614     19615     19611     19614     19615     19611     19613
     19615     19611     19612     19617     19621     19622     19618     19617     19620
     19618     19617     19619     19619     19617     19620     19621     19617     19620
     19621     19617     19619     19621     19617     19618     19623     19627     19628
     19624     19623     19626     19624     19623     19625     19625     19623     19626
     19627     19623     19626     19627     19623     19625     19627     19623     19624
     19629     19633     19634     19630     19629     19632     19630     19629     19631
     19631     19629     19632     19633     19629     19632     19633     19629     19631
     19633     19629     19630     19635     19639     19640     19636     19635     19638
     19636     19635     19637     19637     19635     19638     19639     19635     19638
     19639     19635     19637     19639     19635     19636     19641     19645     19646
     19642     19641     19644     19642     19641     19643     19643     19641     19644
     19645     19641     19644     19645     19641     19643     19645     19641     19642
     19647     19651     19652     19648     19647     19650     19648     19647     19649
     19649     19647     19650     19651     19647     19650     19651     19647     19649
     19651     19647     19648     19653     19657     19658     19654     19653     19656
     19654     19653     19655     19655     19653     19656     19657     19653     19656
     19657     19653     19655     19657     19653     19654     19659     19663     19664
     19660     19659     19662     19660     19659     19661     19661     19659     19662
     19663     19659     19662     19663     19659     19661     19663     19659     19660
     19665     19669     19670     19666     19665     19668     19666     19665     19667
     19667     19665     19668     19669     19665     19668     19669     19665     19667
     19669     19665     19666     19671     19675     19676     19672     19671     19674
     19672     19671     19673     19673     19671     19674     19675     19671     19674
     19675     19671     19673     19675     19671     19672     19677     19681     19682
     19678     19677     19680     19678     19677     19679     19679     19677     19680
     19681     19677     19680     19681     19677     19679     19681     19677     19678
     19683     19687     19688     19684     19683     19686     19684     19683     19685
     19685     19683     19686     19687     19683     19686     19687     19683     19685
     19687     19683     19684     19689     19693     19694     19690     19689     19692
     19690     19689     19691     19691     19689     19692     19693     19689     19692
     19693     19689     19691     19693     19689     19690     19695     19699     19700
     19696     19695     19698     19696     19695     19697     19697     19695     19698
     19699     19695     19698     19699     19695     19697     19699     19695     19696
     19701     19705     19706     19702     19701     19704     19702     19701     19703
     19703     19701     19704     19705     19701     19704     19705     19701     19703
     19705     19701     19702     19707     19711     19712     19708     19707     19710
     19708     19707     19709     19709     19707     19710     19711     19707     19710
     19711     19707     19709     19711     19707     19708     19713     19717     19718
     19714     19713     19716     19714     19713     19715     19715     19713     19716
     19717     19713     19716     19717     19713     19715     19717     19713     19714
     19719     19723     19724     19720     19719     19722     19720     19719     19721
     19721     19719     19722     19723     19719     19722     19723     19719     19721
     19723     19719     19720     19725     19729     19730     19726     19725     19728
     19726     19725     19727     19727     19725     19728     19729     19725     19728
     19729     19725     19727     19729     19725     19726     19731     19735     19736
     19732     19731     19734     19732     19731     19733     19733     19731     19734
     19735     19731     19734     19735     19731     19733     19735     19731     19732
     19737     19741     19742     19738     19737     19740     19738     19737     19739
     19739     19737     19740     19741     19737     19740     19741     19737     19739
     19741     19737     19738     19743     19747     19748     19744     19743     19746
     19744     19743     19745     19745     19743     19746     19747     19743     19746
     19747     19743     19745     19747     19743     19744     19749     19753     19754
     19750     19749     19752     19750     19749     19751     19751     19749     19752
     19753     19749     19752     19753     19749     19751     19753     19749     19750
     19755     19759     19760     19756     19755     19758     19756     19755     19757
     19757     19755     19758     19759     19755     19758     19759     19755     19757
     19759     19755     19756     19761     19765     19766     19762     19761     19764
     19762     19761     19763     19763     19761     19764     19765     19761     19764
     19765     19761     19763     19765     19761     19762     19767     19771     19772
     19768     19767     19770     19768     19767     19769     19769     19767     19770
     19771     19767     19770     19771     19767     19769     19771     19767     19768
     19773     19777     19778     19774     19773     19776     19774     19773     19775
     19775     19773     19776     19777     19773     19776     19777     19773     19775
     19777     19773     19774     19779     19783     19784     19780     19779     19782
     19780     19779     19781     19781     19779     19782     19783     19779     19782
     19783     19779     19781     19783     19779     19780     19785     19789     19790
     19786     19785     19788     19786     19785     19787     19787     19785     19788
     19789     19785     19788     19789     19785     19787     19789     19785     19786
     19791     19795     19796     19792     19791     19794     19792     19791     19793
     19793     19791     19794     19795     19791     19794     19795     19791     19793
     19795     19791     19792     19797     19801     19802     19798     19797     19800
     19798     19797     19799     19799     19797     19800     19801     19797     19800
     19801     19797     19799     19801     19797     19798     19803     19807     19808
     19804     19803     19806     19804     19803     19805     19805     19803     19806
     19807     19803     19806     19807     19803     19805     19807     19803     19804
     19809     19813     19814     19810     19809     19812     19810     19809     19811
     19811     19809     19812     19813     19809     19812     19813     19809     19811
     19813     19809     19810     19815     19819     19820     19816     19815     19818
     19816     19815     19817     19817     19815     19818     19819     19815     19818
     19819     19815     19817     19819     19815     19816     19821     19825     19826
     19822     19821     19824     19822     19821     19823     19823     19821     19824
     19825     19821     19824     19825     19821     19823     19825     19821     19822
     19827     19831     19832     19828     19827     19830     19828     19827     19829
     19829     19827     19830     19831     19827     19830     19831     19827     19829
     19831     19827     19828     19833     19837     19838     19834     19833     19836
     19834     19833     19835     19835     19833     19836     19837     19833     19836
     19837     19833     19835     19837     19833     19834     19839     19843     19844
     19840     19839     19842     19840     19839     19841     19841     19839     19842
     19843     19839     19842     19843     19839     19841     19843     19839     19840
     19845     19849     19850     19846     19845     19848     19846     19845     19847
     19847     19845     19848     19849     19845     19848     19849     19845     19847
     19849     19845     19846     19851     19855     19856     19852     19851     19854
     19852     19851     19853     19853     19851     19854     19855     19851     19854
     19855     19851     19853     19855     19851     19852     19857     19861     19862
     19858     19857     19860     19858     19857     19859     19859     19857     19860
     19861     19857     19860     19861     19857     19859     19861     19857     19858
     19863     19867     19868     19864     19863     19866     19864     19863     19865
     19865     19863     19866     19867     19863     19866     19867     19863     19865
     19867     19863     19864     19869     19873     19874     19870     19869     19872
     19870     19869     19871     19871     19869     19872     19873     19869     19872
     19873     19869     19871     19873     19869     19870     19875     19879     19880
     19876     19875     19878     19876     19875     19877     19877     19875     19878
     19879     19875     19878     19879     19875     19877     19879     19875     19876
     19881     19885     19886     19882     19881     19884     19882     19881     19883
     19883     19881     19884     19885     19881     19884     19885     19881     19883
     19885     19881     19882     19887     19891     19892     19888     19887     19890
     19888     19887     19889     19889     19887     19890     19891     19887     19890
     19891     19887     19889     19891     19887     19888     19893     19897     19898
     19894     19893     19896     19894     19893     19895     19895     19893     19896
     19897     19893     19896     19897     19893     19895     19897     19893     19894
     19899     19903     19904     19900     19899     19902     19900     19899     19901
     19901     19899     19902     19903     19899     19902     19903     19899     19901
     19903     19899     19900     19905     19909     19910     19906     19905     19908
     19906     19905     19907     19907     19905     19908     19909     19905     19908
     19909     19905     19907     19909     19905     19906     19911     19915     19916
     19912     19911     19914     19912     19911     19913     19913     19911     19914
     19915     19911     19914     19915     19911     19913     19915     19911     19912
     19917     19921     19922     19918     19917     19920     19918     19917     19919
     19919     19917     19920     19921     19917     19920     19921     19917     19919
     19921     19917     19918     19923     19927     19928     19924     19923     19926
     19924     19923     19925     19925     19923     19926     19927     19923     19926
     19927     19923     19925     19927     19923     19924     19929     19933     19934
     19930     19929     19932     19930     19929     19931     19931     19929     19932
     19933     19929     19932     19933     19929     19931     19933     19929     19930
     19935     19939     19940     19936     19935     19938     19936     19935     19937
     19937     19935     19938     19939     19935     19938     19939     19935     19937
     19939     19935     19936     19941     19945     19946     19942     19941     19944
     19942     19941     19943     19943     19941     19944     19945     19941     19944
     19945     19941     19943     19945     19941     19942     19947     19951     19952
     19948     19947     19950     19948     19947     19949     19949     19947     19950
     19951     19947     19950     19951     19947     19949     19951     19947     19948
     19953     19957     19958     19954     19953     19956     19954     19953     19955
     19955     19953     19956     19957     19953     19956     19957     19953     19955
     19957     19953     19954     19959     19963     19964     19960     19959     19962
     19960     19959     19961     19961     19959     19962     19963     19959     19962
     19963     19959     19961     19963     19959     19960     19965     19969     19970
     19966     19965     19968     19966     19965     19967     19967     19965     19968
     19969     19965     19968     19969     19965     19967     19969     19965     19966
     19971     19975     19976     19972     19971     19974     19972     19971     19973
     19973     19971     19974     19975     19971     19974     19975     19971     19973
     19975     19971     19972     19977     19981     19982     19978     19977     19980
     19978     19977     19979     19979     19977     19980     19981     19977     19980
     19981     19977     19979     19981     19977     19978     19983     19987     19988
     19984     19983     19986     19984     19983     19985     19985     19983     19986
     19987     19983     19986     19987     19983     19985     19987     19983     19984
     19989     19993     19994     19990     19989     19992     19990     19989     19991
     19991     19989     19992     19993     19989     19992     19993     19989     19991
     19993     19989     19990     19995     19999     20000     19996     19995     19998
     19996     19995     19997     19997     19995     19998     19999     19995     19998
     19999     19995     19997     19999     19995     19996     20001     20005     20006
     20002     20001     20004     20002     20001     20003     20003     20001     20004
     20005     20001     20004     20005     20001     20003     20005     20001     20002
     20007     20011     20012     20008     20007     20010     20008     20007     20009
     20009     20007     20010     20011     20007     20010     20011     20007     20009
     20011     20007     20008     20013     20017     20018     20014     20013     20016
     20014     20013     20015     20015     20013     20016     20017     20013     20016
     20017     20013     20015     20017     20013     20014     20019     20023     20024
     20020     20019     20022     20020     20019     20021     20021     20019     20022
     20023     20019     20022     20023     20019     20021     20023     20019     20020
     20025     20029     20030     20026     20025     20028     20026     20025     20027
     20027     20025     20028     20029     20025     20028     20029     20025     20027
     20029     20025     20026     20031     20035     20036     20032     20031     20034
     20032     20031     20033     20033     20031     20034     20035     20031     20034
     20035     20031     20033     20035     20031     20032     20037     20041     20042
     20038     20037     20040     20038     20037     20039     20039     20037     20040
     20041     20037     20040     20041     20037     20039     20041     20037     20038
     20043     20047     20048     20044     20043     20046     20044     20043     20045
     20045     20043     20046     20047     20043     20046     20047     20043     20045
     20047     20043     20044     20049     20053     20054     20050     20049     20052
     20050     20049     20051     20051     20049     20052     20053     20049     20052
     20053     20049     20051     20053     20049     20050     20055     20059     20060
     20056     20055     20058     20056     20055     20057     20057     20055     20058
     20059     20055     20058     20059     20055     20057     20059     20055     20056
     20061     20065     20066     20062     20061     20064     20062     20061     20063
     20063     20061     20064     20065     20061     20064     20065     20061     20063
     20065     20061     20062     20067     20071     20072     20068     20067     20070
     20068     20067     20069     20069     20067     20070     20071     20067     20070
     20071     20067     20069     20071     20067     20068     20073     20077     20078
     20074     20073     20076     20074     20073     20075     20075     20073     20076
     20077     20073     20076     20077     20073     20075     20077     20073     20074
     20079     20083     20084     20080     20079     20082     20080     20079     20081
     20081     20079     20082     20083     20079     20082     20083     20079     20081
     20083     20079     20080     20085     20089     20090     20086     20085     20088
     20086     20085     20087     20087     20085     20088     20089     20085     20088
     20089     20085     20087     20089     20085     20086     20091     20095     20096
     20092     20091     20094     20092     20091     20093     20093     20091     20094
     20095     20091     20094     20095     20091     20093     20095     20091     20092
     20097     20101     20102     20098     20097     20100     20098     20097     20099
     20099     20097     20100     20101     20097     20100     20101     20097     20099
     20101     20097     20098     20103     20107     20108     20104     20103     20106
     20104     20103     20105     20105     20103     20106     20107     20103     20106
     20107     20103     20105     20107     20103     20104     20109     20113     20114
     20110     20109     20112     20110     20109     20111     20111     20109     20112
     20113     20109     20112     20113     20109     20111     20113     20109     20110
     20115     20119     20120     20116     20115     20118     20116     20115     20117
     20117     20115     20118     20119     20115     20118     20119     20115     20117
     20119     20115     20116     20121     20125     20126     20122     20121     20124
     20122     20121     20123     20123     20121     20124     20125     20121     20124
     20125     20121     20123     20125     20121     20122     20127     20131     20132
     20128     20127     20130     20128     20127     20129     20129     20127     20130
     20131     20127     20130     20131     20127     20129     20131     20127     20128
     20133     20137     20138     20134     20133     20136     20134     20133     20135
     20135     20133     20136     20137     20133     20136     20137     20133     20135
     20137     20133     20134     20139     20143     20144     20140     20139     20142
     20140     20139     20141     20141     20139     20142     20143     20139     20142
     20143     20139     20141     20143     20139     20140     20145     20149     20150
     20146     20145     20148     20146     20145     20147     20147     20145     20148
     20149     20145     20148     20149     20145     20147     20149     20145     20146
     20151     20155     20156     20152     20151     20154     20152     20151     20153
     20153     20151     20154     20155     20151     20154     20155     20151     20153
     20155     20151     20152     20157     20161     20162     20158     20157     20160
     20158     20157     20159     20159     20157     20160     20161     20157     20160
     20161     20157     20159     20161     20157     20158     20163     20167     20168
     20164     20163     20166     20164     20163     20165     20165     20163     20166
     20167     20163     20166     20167     20163     20165     20167     20163     20164
     20169     20173     20174     20170     20169     20172     20170     20169     20171
     20171     20169     20172     20173     20169     20172     20173     20169     20171
     20173     20169     20170     20175     20179     20180     20176     20175     20178
     20176     20175     20177     20177     20175     20178     20179     20175     20178
     20179     20175     20177     20179     20175     20176     20181     20185     20186
     20182     20181     20184     20182     20181     20183     20183     20181     20184
     20185     20181     20184     20185     20181     20183     20185     20181     20182
     20187     20191     20192     20188     20187     20190     20188     20187     20189
     20189     20187     20190     20191     20187     20190     20191     20187     20189
     20191     20187     20188     20193     20197     20198     20194     20193     20196
     20194     20193     20195     20195     20193     20196     20197     20193     20196
     20197     20193     20195     20197     20193     20194     20199     20203     20204
     20200     20199     20202     20200     20199     20201     20201     20199     20202
     20203     20199     20202     20203     20199     20201     20203     20199     20200
     20205     20209     20210     20206     20205     20208     20206     20205     20207
     20207     20205     20208     20209     20205     20208     20209     20205     20207
     20209     20205     20206     20211     20215     20216     20212     20211     20214
     20212     20211     20213     20213     20211     20214     20215     20211     20214
     20215     20211     20213     20215     20211     20212     20217     20221     20222
     20218     20217     20220     20218     20217     20219     20219     20217     20220
     20221     20217     20220     20221     20217     20219     20221     20217     20218
     20223     20227     20228     20224     20223     20226     20224     20223     20225
     20225     20223     20226     20227     20223     20226     20227     20223     20225
     20227     20223     20224     20229     20233     20234     20230     20229     20232
     20230     20229     20231     20231     20229     20232     20233     20229     20232
     20233     20229     20231     20233     20229     20230     20235     20239     20240
     20236     20235     20238     20236     20235     20237     20237     20235     20238
     20239     20235     20238     20239     20235     20237     20239     20235     20236
     20241     20245     20246     20242     20241     20244     20242     20241     20243
     20243     20241     20244     20245     20241     20244     20245     20241     20243
     20245     20241     20242     20247     20251     20252     20248     20247     20250
     20248     20247     20249     20249     20247     20250     20251     20247     20250
     20251     20247     20249     20251     20247     20248     20253     20257     20258
     20254     20253     20256     20254     20253     20255     20255     20253     20256
     20257     20253     20256     20257     20253     20255     20257     20253     20254
     20259     20263     20264     20260     20259     20262     20260     20259     20261
     20261     20259     20262     20263     20259     20262     20263     20259     20261
     20263     20259     20260     20265     20269     20270     20266     20265     20268
     20266     20265     20267     20267     20265     20268     20269     20265     20268
     20269     20265     20267     20269     20265     20266     20271     20275     20276
     20272     20271     20274     20272     20271     20273     20273     20271     20274
     20275     20271     20274     20275     20271     20273     20275     20271     20272
     20277     20281     20282     20278     20277     20280     20278     20277     20279
     20279     20277     20280     20281     20277     20280     20281     20277     20279
     20281     20277     20278     20283     20287     20288     20284     20283     20286
     20284     20283     20285     20285     20283     20286     20287     20283     20286
     20287     20283     20285     20287     20283     20284     20289     20293     20294
     20290     20289     20292     20290     20289     20291     20291     20289     20292
     20293     20289     20292     20293     20289     20291     20293     20289     20290
     20295     20299     20300     20296     20295     20298     20296     20295     20297
     20297     20295     20298     20299     20295     20298     20299     20295     20297
     20299     20295     20296     20301     20305     20306     20302     20301     20304
     20302     20301     20303     20303     20301     20304     20305     20301     20304
     20305     20301     20303     20305     20301     20302     20307     20311     20312
     20308     20307     20310     20308     20307     20309     20309     20307     20310
     20311     20307     20310     20311     20307     20309     20311     20307     20308
     20313     20317     20318     20314     20313     20316     20314     20313     20315
     20315     20313     20316     20317     20313     20316     20317     20313     20315
     20317     20313     20314     20319     20323     20324     20320     20319     20322
     20320     20319     20321     20321     20319     20322     20323     20319     20322
     20323     20319     20321     20323     20319     20320     20325     20329     20330
     20326     20325     20328     20326     20325     20327     20327     20325     20328
     20329     20325     20328     20329     20325     20327     20329     20325     20326
     20331     20335     20336     20332     20331     20334     20332     20331     20333
     20333     20331     20334     20335     20331     20334     20335     20331     20333
     20335     20331     20332     20337     20341     20342     20338     20337     20340
     20338     20337     20339     20339     20337     20340     20341     20337     20340
     20341     20337     20339     20341     20337     20338     20343     20347     20348
     20344     20343     20346     20344     20343     20345     20345     20343     20346
     20347     20343     20346     20347     20343     20345     20347     20343     20344
     20349     20353     20354     20350     20349     20352     20350     20349     20351
     20351     20349     20352     20353     20349     20352     20353     20349     20351
     20353     20349     20350     20355     20359     20360     20356     20355     20358
     20356     20355     20357     20357     20355     20358     20359     20355     20358
     20359     20355     20357     20359     20355     20356     20361     20365     20366
     20362     20361     20364     20362     20361     20363     20363     20361     20364
     20365     20361     20364     20365     20361     20363     20365     20361     20362
     20367     20371     20372     20368     20367     20370     20368     20367     20369
     20369     20367     20370     20371     20367     20370     20371     20367     20369
     20371     20367     20368     20373     20377     20378     20374     20373     20376
     20374     20373     20375     20375     20373     20376     20377     20373     20376
     20377     20373     20375     20377     20373     20374     20379     20383     20384
     20380     20379     20382     20380     20379     20381     20381     20379     20382
     20383     20379     20382     20383     20379     20381     20383     20379     20380
     20385     20389     20390     20386     20385     20388     20386     20385     20387
     20387     20385     20388     20389     20385     20388     20389     20385     20387
     20389     20385     20386     20391     20395     20396     20392     20391     20394
     20392     20391     20393     20393     20391     20394     20395     20391     20394
     20395     20391     20393     20395     20391     20392     20397     20401     20402
     20398     20397     20400     20398     20397     20399     20399     20397     20400
     20401     20397     20400     20401     20397     20399     20401     20397     20398
     20403     20407     20408     20404     20403     20406     20404     20403     20405
     20405     20403     20406     20407     20403     20406     20407     20403     20405
     20407     20403     20404     20409     20413     20414     20410     20409     20412
     20410     20409     20411     20411     20409     20412     20413     20409     20412
     20413     20409     20411     20413     20409     20410     20415     20419     20420
     20416     20415     20418     20416     20415     20417     20417     20415     20418
     20419     20415     20418     20419     20415     20417     20419     20415     20416
     20421     20425     20426     20422     20421     20424     20422     20421     20423
     20423     20421     20424     20425     20421     20424     20425     20421     20423
     20425     20421     20422     20427     20431     20432     20428     20427     20430
     20428     20427     20429     20429     20427     20430     20431     20427     20430
     20431     20427     20429     20431     20427     20428     20433     20437     20438
     20434     20433     20436     20434     20433     20435     20435     20433     20436
     20437     20433     20436     20437     20433     20435     20437     20433     20434
     20439     20443     20444     20440     20439     20442     20440     20439     20441
     20441     20439     20442     20443     20439     20442     20443     20439     20441
     20443     20439     20440     20445     20449     20450     20446     20445     20448
     20446     20445     20447     20447     20445     20448     20449     20445     20448
     20449     20445     20447     20449     20445     20446     20451     20455     20456
     20452     20451     20454     20452     20451     20453     20453     20451     20454
     20455     20451     20454     20455     20451     20453     20455     20451     20452
     20457     20461     20462     20458     20457     20460     20458     20457     20459
     20459     20457     20460     20461     20457     20460     20461     20457     20459
     20461     20457     20458     20463     20467     20468     20464     20463     20466
     20464     20463     20465     20465     20463     20466     20467     20463     20466
     20467     20463     20465     20467     20463     20464     20469     20473     20474
     20470     20469     20472     20470     20469     20471     20471     20469     20472
     20473     20469     20472     20473     20469     20471     20473     20469     20470
     20475     20479     20480     20476     20475     20478     20476     20475     20477
     20477     20475     20478     20479     20475     20478     20479     20475     20477
     20479     20475     20476     20481     20485     20486     20482     20481     20484
     20482     20481     20483     20483     20481     20484     20485     20481     20484
     20485     20481     20483     20485     20481     20482     20487     20491     20492
     20488     20487     20490     20488     20487     20489     20489     20487     20490
     20491     20487     20490     20491     20487     20489     20491     20487     20488
     20493     20497     20498     20494     20493     20496     20494     20493     20495
     20495     20493     20496     20497     20493     20496     20497     20493     20495
     20497     20493     20494     20499     20503     20504     20500     20499     20502
     20500     20499     20501     20501     20499     20502     20503     20499     20502
     20503     20499     20501     20503     20499     20500     20505     20509     20510
     20506     20505     20508     20506     20505     20507     20507     20505     20508
     20509     20505     20508     20509     20505     20507     20509     20505     20506
     20511     20515     20516     20512     20511     20514     20512     20511     20513
     20513     20511     20514     20515     20511     20514     20515     20511     20513
     20515     20511     20512     20517     20521     20522     20518     20517     20520
     20518     20517     20519     20519     20517     20520     20521     20517     20520
     20521     20517     20519     20521     20517     20518     20523     20527     20528
     20524     20523     20526     20524     20523     20525     20525     20523     20526
     20527     20523     20526     20527     20523     20525     20527     20523     20524
     20529     20533     20534     20530     20529     20532     20530     20529     20531
     20531     20529     20532     20533     20529     20532     20533     20529     20531
     20533     20529     20530     20535     20539     20540     20536     20535     20538
     20536     20535     20537     20537     20535     20538     20539     20535     20538
     20539     20535     20537     20539     20535     20536     20541     20545     20546
     20542     20541     20544     20542     20541     20543     20543     20541     20544
     20545     20541     20544     20545     20541     20543     20545     20541     20542
     20547     20551     20552     20548     20547     20550     20548     20547     20549
     20549     20547     20550     20551     20547     20550     20551     20547     20549
     20551     20547     20548     20553     20557     20558     20554     20553     20556
     20554     20553     20555     20555     20553     20556     20557     20553     20556
     20557     20553     20555     20557     20553     20554     20559     20563     20564
     20560     20559     20562     20560     20559     20561     20561     20559     20562
     20563     20559     20562     20563     20559     20561     20563     20559     20560
     20565     20569     20570     20566     20565     20568     20566     20565     20567
     20567     20565     20568     20569     20565     20568     20569     20565     20567
     20569     20565     20566     20571     20575     20576     20572     20571     20574
     20572     20571     20573     20573     20571     20574     20575     20571     20574
     20575     20571     20573     20575     20571     20572     20577     20581     20582
     20578     20577     20580     20578     20577     20579     20579     20577     20580
     20581     20577     20580     20581     20577     20579     20581     20577     20578
     20583     20587     20588     20584     20583     20586     20584     20583     20585
     20585     20583     20586     20587     20583     20586     20587     20583     20585
     20587     20583     20584     20589     20593     20594     20590     20589     20592
     20590     20589     20591     20591     20589     20592     20593     20589     20592
     20593     20589     20591     20593     20589     20590     20595     20599     20600
     20596     20595     20598     20596     20595     20597     20597     20595     20598
     20599     20595     20598     20599     20595     20597     20599     20595     20596
     20601     20605     20606     20602     20601     20604     20602     20601     20603
     20603     20601     20604     20605     20601     20604     20605     20601     20603
     20605     20601     20602     20607     20611     20612     20608     20607     20610
     20608     20607     20609     20609     20607     20610     20611     20607     20610
     20611     20607     20609     20611     20607     20608     20613     20617     20618
     20614     20613     20616     20614     20613     20615     20615     20613     20616
     20617     20613     20616     20617     20613     20615     20617     20613     20614
     20619     20623     20624     20620     20619     20622     20620     20619     20621
     20621     20619     20622     20623     20619     20622     20623     20619     20621
     20623     20619     20620     20625     20629     20630     20626     20625     20628
     20626     20625     20627     20627     20625     20628     20629     20625     20628
     20629     20625     20627     20629     20625     20626     20631     20635     20636
     20632     20631     20634     20632     20631     20633     20633     20631     20634
     20635     20631     20634     20635     20631     20633     20635     20631     20632
     20637     20641     20642     20638     20637     20640     20638     20637     20639
     20639     20637     20640     20641     20637     20640     20641     20637     20639
     20641     20637     20638     20643     20647     20648     20644     20643     20646
     20644     20643     20645     20645     20643     20646     20647     20643     20646
     20647     20643     20645     20647     20643     20644     20649     20653     20654
     20650     20649     20652     20650     20649     20651     20651     20649     20652
     20653     20649     20652     20653     20649     20651     20653     20649     20650
     20655     20659     20660     20656     20655     20658     20656     20655     20657
     20657     20655     20658     20659     20655     20658     20659     20655     20657
     20659     20655     20656     20661     20665     20666     20662     20661     20664
     20662     20661     20663     20663     20661     20664     20665     20661     20664
     20665     20661     20663     20665     20661     20662     20667     20671     20672
     20668     20667     20670     20668     20667     20669     20669     20667     20670
     20671     20667     20670     20671     20667     20669     20671     20667     20668
     20673     20677     20678     20674     20673     20676     20674     20673     20675
     20675     20673     20676     20677     20673     20676     20677     20673     20675
     20677     20673     20674     20679     20683     20684     20680     20679     20682
     20680     20679     20681     20681     20679     20682     20683     20679     20682
     20683     20679     20681     20683     20679     20680     20685     20689     20690
     20686     20685     20688     20686     20685     20687     20687     20685     20688
     20689     20685     20688     20689     20685     20687     20689     20685     20686
     20691     20695     20696     20692     20691     20694     20692     20691     20693
     20693     20691     20694     20695     20691     20694     20695     20691     20693
     20695     20691     20692     20697     20701     20702     20698     20697     20700
     20698     20697     20699     20699     20697     20700     20701     20697     20700
     20701     20697     20699     20701     20697     20698     20703     20707     20708
     20704     20703     20706     20704     20703     20705     20705     20703     20706
     20707     20703     20706     20707     20703     20705     20707     20703     20704
     20709     20713     20714     20710     20709     20712     20710     20709     20711
     20711     20709     20712     20713     20709     20712     20713     20709     20711
     20713     20709     20710     20715     20719     20720     20716     20715     20718
     20716     20715     20717     20717     20715     20718     20719     20715     20718
     20719     20715     20717     20719     20715     20716     20721     20725     20726
     20722     20721     20724     20722     20721     20723     20723     20721     20724
     20725     20721     20724     20725     20721     20723     20725     20721     20722
     20727     20731     20732     20728     20727     20730     20728     20727     20729
     20729     20727     20730     20731     20727     20730     20731     20727     20729
     20731     20727     20728     20733     20737     20738     20734     20733     20736
     20734     20733     20735     20735     20733     20736     20737     20733     20736
     20737     20733     20735     20737     20733     20734     20739     20743     20744
     20740     20739     20742     20740     20739     20741     20741     20739     20742
     20743     20739     20742     20743     20739     20741     20743     20739     20740
     20745     20749     20750     20746     20745     20748     20746     20745     20747
     20747     20745     20748     20749     20745     20748     20749     20745     20747
     20749     20745     20746     20751     20755     20756     20752     20751     20754
     20752     20751     20753     20753     20751     20754     20755     20751     20754
     20755     20751     20753     20755     20751     20752     20757     20761     20762
     20758     20757     20760     20758     20757     20759     20759     20757     20760
     20761     20757     20760     20761     20757     20759     20761     20757     20758
     20763     20767     20768     20764     20763     20766     20764     20763     20765
     20765     20763     20766     20767     20763     20766     20767     20763     20765
     20767     20763     20764     20769     20773     20774     20770     20769     20772
     20770     20769     20771     20771     20769     20772     20773     20769     20772
     20773     20769     20771     20773     20769     20770     20775     20779     20780
     20776     20775     20778     20776     20775     20777     20777     20775     20778
     20779     20775     20778     20779     20775     20777     20779     20775     20776
     20781     20785     20786     20782     20781     20784     20782     20781     20783
     20783     20781     20784     20785     20781     20784     20785     20781     20783
     20785     20781     20782     20787     20791     20792     20788     20787     20790
     20788     20787     20789     20789     20787     20790     20791     20787     20790
     20791     20787     20789     20791     20787     20788     20793     20797     20798
     20794     20793     20796     20794     20793     20795     20795     20793     20796
     20797     20793     20796     20797     20793     20795     20797     20793     20794
     20799     20803     20804     20800     20799     20802     20800     20799     20801
     20801     20799     20802     20803     20799     20802     20803     20799     20801
     20803     20799     20800     20805     20809     20810     20806     20805     20808
     20806     20805     20807     20807     20805     20808     20809     20805     20808
     20809     20805     20807     20809     20805     20806     20811     20815     20816
     20812     20811     20814     20812     20811     20813     20813     20811     20814
     20815     20811     20814     20815     20811     20813     20815     20811     20812
     20817     20821     20822     20818     20817     20820     20818     20817     20819
     20819     20817     20820     20821     20817     20820     20821     20817     20819
     20821     20817     20818     20823     20827     20828     20824     20823     20826
     20824     20823     20825     20825     20823     20826     20827     20823     20826
     20827     20823     20825     20827     20823     20824     20829     20833     20834
     20830     20829     20832     20830     20829     20831     20831     20829     20832
     20833     20829     20832     20833     20829     20831     20833     20829     20830
     20835     20839     20840     20836     20835     20838     20836     20835     20837
     20837     20835     20838     20839     20835     20838     20839     20835     20837
     20839     20835     20836     20841     20845     20846     20842     20841     20844
     20842     20841     20843     20843     20841     20844     20845     20841     20844
     20845     20841     20843     20845     20841     20842     20847     20851     20852
     20848     20847     20850     20848     20847     20849     20849     20847     20850
     20851     20847     20850     20851     20847     20849     20851     20847     20848
     20853     20857     20858     20854     20853     20856     20854     20853     20855
     20855     20853     20856     20857     20853     20856     20857     20853     20855
     20857     20853     20854     20859     20863     20864     20860     20859     20862
     20860     20859     20861     20861     20859     20862     20863     20859     20862
     20863     20859     20861     20863     20859     20860     20865     20869     20870
     20866     20865     20868     20866     20865     20867     20867     20865     20868
     20869     20865     20868     20869     20865     20867     20869     20865     20866
     20871     20875     20876     20872     20871     20874     20872     20871     20873
     20873     20871     20874     20875     20871     20874     20875     20871     20873
     20875     20871     20872     20877     20881     20882     20878     20877     20880
     20878     20877     20879     20879     20877     20880     20881     20877     20880
     20881     20877     20879     20881     20877     20878     20883     20887     20888
     20884     20883     20886     20884     20883     20885     20885     20883     20886
     20887     20883     20886     20887     20883     20885     20887     20883     20884
     20889     20893     20894     20890     20889     20892     20890     20889     20891
     20891     20889     20892     20893     20889     20892     20893     20889     20891
     20893     20889     20890     20895     20899     20900     20896     20895     20898
     20896     20895     20897     20897     20895     20898     20899     20895     20898
     20899     20895     20897     20899     20895     20896     20901     20905     20906
     20902     20901     20904     20902     20901     20903     20903     20901     20904
     20905     20901     20904     20905     20901     20903     20905     20901     20902
     20907     20911     20912     20908     20907     20910     20908     20907     20909
     20909     20907     20910     20911     20907     20910     20911     20907     20909
     20911     20907     20908     20913     20917     20918     20914     20913     20916
     20914     20913     20915     20915     20913     20916     20917     20913     20916
     20917     20913     20915     20917     20913     20914     20919     20923     20924
     20920     20919     20922     20920     20919     20921     20921     20919     20922
     20923     20919     20922     20923     20919     20921     20923     20919     20920
     20925     20929     20930     20926     20925     20928     20926     20925     20927
     20927     20925     20928     20929     20925     20928     20929     20925     20927
     20929     20925     20926     20931     20935     20936     20932     20931     20934
     20932     20931     20933     20933     20931     20934     20935     20931     20934
     20935     20931     20933     20935     20931     20932     20937     20941     20942
     20938     20937     20940     20938     20937     20939     20939     20937     20940
     20941     20937     20940     20941     20937     20939     20941     20937     20938
     20943     20947     20948     20944     20943     20946     20944     20943     20945
     20945     20943     20946     20947     20943     20946     20947     20943     20945
     20947     20943     20944     20949     20953     20954     20950     20949     20952
     20950     20949     20951     20951     20949     20952     20953     20949     20952
     20953     20949     20951     20953     20949     20950     20955     20959     20960
     20956     20955     20958     20956     20955     20957     20957     20955     20958
     20959     20955     20958     20959     20955     20957     20959     20955     20956
     20961     20965     20966     20962     20961     20964     20962     20961     20963
     20963     20961     20964     20965     20961     20964     20965     20961     20963
     20965     20961     20962     20967     20971     20972     20968     20967     20970
     20968     20967     20969     20969     20967     20970     20971     20967     20970
     20971     20967     20969     20971     20967     20968     20973     20977     20978
     20974     20973     20976     20974     20973     20975     20975     20973     20976
     20977     20973     20976     20977     20973     20975     20977     20973     20974
     20979     20983     20984     20980     20979     20982     20980     20979     20981
     20981     20979     20982     20983     20979     20982     20983     20979     20981
     20983     20979     20980     20985     20989     20990     20986     20985     20988
     20986     20985     20987     20987     20985     20988     20989     20985     20988
     20989     20985     20987     20989     20985     20986     20991     20995     20996
     20992     20991     20994     20992     20991     20993     20993     20991     20994
     20995     20991     20994     20995     20991     20993     20995     20991     20992
     20997     21001     21002     20998     20997     21000     20998     20997     20999
     20999     20997     21000     21001     20997     21000     21001     20997     20999
     21001     20997     20998     21003     21007     21008     21004     21003     21006
     21004     21003     21005     21005     21003     21006     21007     21003     21006
     21007     21003     21005     21007     21003     21004     21009     21013     21014
     21010     21009     21012     21010     21009     21011     21011     21009     21012
     21013     21009     21012     21013     21009     21011     21013     21009     21010
     21015     21019     21020     21016     21015     21018     21016     21015     21017
     21017     21015     21018     21019     21015     21018     21019     21015     21017
     21019     21015     21016     21021     21025     21026     21022     21021     21024
     21022     21021     21023     21023     21021     21024     21025     21021     21024
     21025     21021     21023     21025     21021     21022     21027     21031     21032
     21028     21027     21030     21028     21027     21029     21029     21027     21030
     21031     21027     21030     21031     21027     21029     21031     21027     21028
     21033     21037     21038     21034     21033     21036     21034     21033     21035
     21035     21033     21036     21037     21033     21036     21037     21033     21035
     21037     21033     21034     21039     21043     21044     21040     21039     21042
     21040     21039     21041     21041     21039     21042     21043     21039     21042
     21043     21039     21041     21043     21039     21040     21045     21049     21050
     21046     21045     21048     21046     21045     21047     21047     21045     21048
     21049     21045     21048     21049     21045     21047     21049     21045     21046
     21051     21055     21056     21052     21051     21054     21052     21051     21053
     21053     21051     21054     21055     21051     21054     21055     21051     21053
     21055     21051     21052     21057     21061     21062     21058     21057     21060
     21058     21057     21059     21059     21057     21060     21061     21057     21060
     21061     21057     21059     21061     21057     21058     21063     21067     21068
     21064     21063     21066     21064     21063     21065     21065     21063     21066
     21067     21063     21066     21067     21063     21065     21067     21063     21064
     21069     21073     21074     21070     21069     21072     21070     21069     21071
     21071     21069     21072     21073     21069     21072     21073     21069     21071
     21073     21069     21070     21075     21079     21080     21076     21075     21078
     21076     21075     21077     21077     21075     21078     21079     21075     21078
     21079     21075     21077     21079     21075     21076     21081     21085     21086
     21082     21081     21084     21082     21081     21083     21083     21081     21084
     21085     21081     21084     21085     21081     21083     21085     21081     21082
     21087     21091     21092     21088     21087     21090     21088     21087     21089
     21089     21087     21090     21091     21087     21090     21091     21087     21089
     21091     21087     21088     21093     21097     21098     21094     21093     21096
     21094     21093     21095     21095     21093     21096     21097     21093     21096
     21097     21093     21095     21097     21093     21094     21099     21103     21104
     21100     21099     21102     21100     21099     21101     21101     21099     21102
     21103     21099     21102     21103     21099     21101     21103     21099     21100
     21105     21109     21110     21106     21105     21108     21106     21105     21107
     21107     21105     21108     21109     21105     21108     21109     21105     21107
     21109     21105     21106     21111     21115     21116     21112     21111     21114
     21112     21111     21113     21113     21111     21114     21115     21111     21114
     21115     21111     21113     21115     21111     21112     21117     21121     21122
     21118     21117     21120     21118     21117     21119     21119     21117     21120
     21121     21117     21120     21121     21117     21119     21121     21117     21118
     21123     21127     21128     21124     21123     21126     21124     21123     21125
     21125     21123     21126     21127     21123     21126     21127     21123     21125
     21127     21123     21124     21129     21133     21134     21130     21129     21132
     21130     21129     21131     21131     21129     21132     21133     21129     21132
     21133     21129     21131     21133     21129     21130     21135     21139     21140
     21136     21135     21138     21136     21135     21137     21137     21135     21138
     21139     21135     21138     21139     21135     21137     21139     21135     21136
     21141     21145     21146     21142     21141     21144     21142     21141     21143
     21143     21141     21144     21145     21141     21144     21145     21141     21143
     21145     21141     21142     21147     21151     21152     21148     21147     21150
     21148     21147     21149     21149     21147     21150     21151     21147     21150
     21151     21147     21149     21151     21147     21148     21153     21157     21158
     21154     21153     21156     21154     21153     21155     21155     21153     21156
     21157     21153     21156     21157     21153     21155     21157     21153     21154
     21159     21163     21164     21160     21159     21162     21160     21159     21161
     21161     21159     21162     21163     21159     21162     21163     21159     21161
     21163     21159     21160     21165     21169     21170     21166     21165     21168
     21166     21165     21167     21167     21165     21168     21169     21165     21168
     21169     21165     21167     21169     21165     21166     21171     21175     21176
     21172     21171     21174     21172     21171     21173     21173     21171     21174
     21175     21171     21174     21175     21171     21173     21175     21171     21172
     21177     21181     21182     21178     21177     21180     21178     21177     21179
     21179     21177     21180     21181     21177     21180     21181     21177     21179
     21181     21177     21178     21183     21187     21188     21184     21183     21186
     21184     21183     21185     21185     21183     21186     21187     21183     21186
     21187     21183     21185     21187     21183     21184     21189     21193     21194
     21190     21189     21192     21190     21189     21191     21191     21189     21192
     21193     21189     21192     21193     21189     21191     21193     21189     21190
     21195     21199     21200     21196     21195     21198     21196     21195     21197
     21197     21195     21198     21199     21195     21198     21199     21195     21197
     21199     21195     21196     21201     21205     21206     21202     21201     21204
     21202     21201     21203     21203     21201     21204     21205     21201     21204
     21205     21201     21203     21205     21201     21202     21207     21211     21212
     21208     21207     21210     21208     21207     21209     21209     21207     21210
     21211     21207     21210     21211     21207     21209     21211     21207     21208
     21213     21217     21218     21214     21213     21216     21214     21213     21215
     21215     21213     21216     21217     21213     21216     21217     21213     21215
     21217     21213     21214     21219     21223     21224     21220     21219     21222
     21220     21219     21221     21221     21219     21222     21223     21219     21222
     21223     21219     21221     21223     21219     21220     21225     21229     21230
     21226     21225     21228     21226     21225     21227     21227     21225     21228
     21229     21225     21228     21229     21225     21227     21229     21225     21226
     21231     21235     21236     21232     21231     21234     21232     21231     21233
     21233     21231     21234     21235     21231     21234     21235     21231     21233
     21235     21231     21232     21237     21241     21242     21238     21237     21240
     21238     21237     21239     21239     21237     21240     21241     21237     21240
     21241     21237     21239     21241     21237     21238     21243     21247     21248
     21244     21243     21246     21244     21243     21245     21245     21243     21246
     21247     21243     21246     21247     21243     21245     21247     21243     21244
     21249     21253     21254     21250     21249     21252     21250     21249     21251
     21251     21249     21252     21253     21249     21252     21253     21249     21251
     21253     21249     21250     21255     21259     21260     21256     21255     21258
     21256     21255     21257     21257     21255     21258     21259     21255     21258
     21259     21255     21257     21259     21255     21256     21261     21265     21266
     21262     21261     21264     21262     21261     21263     21263     21261     21264
     21265     21261     21264     21265     21261     21263     21265     21261     21262
     21267     21271     21272     21268     21267     21270     21268     21267     21269
     21269     21267     21270     21271     21267     21270     21271     21267     21269
     21271     21267     21268     21273     21277     21278     21274     21273     21276
     21274     21273     21275     21275     21273     21276     21277     21273     21276
     21277     21273     21275     21277     21273     21274     21279     21283     21284
     21280     21279     21282     21280     21279     21281     21281     21279     21282
     21283     21279     21282     21283     21279     21281     21283     21279     21280
     21285     21289     21290     21286     21285     21288     21286     21285     21287
     21287     21285     21288     21289     21285     21288     21289     21285     21287
     21289     21285     21286     21291     21295     21296     21292     21291     21294
     21292     21291     21293     21293     21291     21294     21295     21291     21294
     21295     21291     21293     21295     21291     21292     21297     21301     21302
     21298     21297     21300     21298     21297     21299     21299     21297     21300
     21301     21297     21300     21301     21297     21299     21301     21297     21298
     21303     21307     21308     21304     21303     21306     21304     21303     21305
     21305     21303     21306     21307     21303     21306     21307     21303     21305
     21307     21303     21304     21309     21313     21314     21310     21309     21312
     21310     21309     21311     21311     21309     21312     21313     21309     21312
     21313     21309     21311     21313     21309     21310     21315     21319     21320
     21316     21315     21318     21316     21315     21317     21317     21315     21318
     21319     21315     21318     21319     21315     21317     21319     21315     21316
     21321     21325     21326     21322     21321     21324     21322     21321     21323
     21323     21321     21324     21325     21321     21324     21325     21321     21323
     21325     21321     21322     21327     21331     21332     21328     21327     21330
     21328     21327     21329     21329     21327     21330     21331     21327     21330
     21331     21327     21329     21331     21327     21328     21333     21337     21338
     21334     21333     21336     21334     21333     21335     21335     21333     21336
     21337     21333     21336     21337     21333     21335     21337     21333     21334
     21339     21343     21344     21340     21339     21342     21340     21339     21341
     21341     21339     21342     21343     21339     21342     21343     21339     21341
     21343     21339     21340     21345     21349     21350     21346     21345     21348
     21346     21345     21347     21347     21345     21348     21349     21345     21348
     21349     21345     21347     21349     21345     21346     21351     21355     21356
     21352     21351     21354     21352     21351     21353     21353     21351     21354
     21355     21351     21354     21355     21351     21353     21355     21351     21352
     21357     21361     21362     21358     21357     21360     21358     21357     21359
     21359     21357     21360     21361     21357     21360     21361     21357     21359
     21361     21357     21358     21363     21367     21368     21364     21363     21366
     21364     21363     21365     21365     21363     21366     21367     21363     21366
     21367     21363     21365     21367     21363     21364     21369     21373     21374
     21370     21369     21372     21370     21369     21371     21371     21369     21372
     21373     21369     21372     21373     21369     21371     21373     21369     21370
     21375     21379     21380     21376     21375     21378     21376     21375     21377
     21377     21375     21378     21379     21375     21378     21379     21375     21377
     21379     21375     21376     21381     21385     21386     21382     21381     21384
     21382     21381     21383     21383     21381     21384     21385     21381     21384
     21385     21381     21383     21385     21381     21382     21387     21391     21392
     21388     21387     21390     21388     21387     21389     21389     21387     21390
     21391     21387     21390     21391     21387     21389     21391     21387     21388
     21393     21397     21398     21394     21393     21396     21394     21393     21395
     21395     21393     21396     21397     21393     21396     21397     21393     21395
     21397     21393     21394     21399     21403     21404     21400     21399     21402
     21400     21399     21401     21401     21399     21402     21403     21399     21402
     21403     21399     21401     21403     21399     21400     21405     21409     21410
     21406     21405     21408     21406     21405     21407     21407     21405     21408
     21409     21405     21408     21409     21405     21407     21409     21405     21406
     21411     21415     21416     21412     21411     21414     21412     21411     21413
     21413     21411     21414     21415     21411     21414     21415     21411     21413
     21415     21411     21412     21417     21421     21422     21418     21417     21420
     21418     21417     21419     21419     21417     21420     21421     21417     21420
     21421     21417     21419     21421     21417     21418     21423     21427     21428
     21424     21423     21426     21424     21423     21425     21425     21423     21426
     21427     21423     21426     21427     21423     21425     21427     21423     21424
     21429     21433     21434     21430     21429     21432     21430     21429     21431
     21431     21429     21432     21433     21429     21432     21433     21429     21431
     21433     21429     21430     21435     21439     21440     21436     21435     21438
     21436     21435     21437     21437     21435     21438     21439     21435     21438
     21439     21435     21437     21439     21435     21436     21441     21445     21446
     21442     21441     21444     21442     21441     21443     21443     21441     21444
     21445     21441     21444     21445     21441     21443     21445     21441     21442
     21447     21451     21452     21448     21447     21450     21448     21447     21449
     21449     21447     21450     21451     21447     21450     21451     21447     21449
     21451     21447     21448     21453     21457     21458     21454     21453     21456
     21454     21453     21455     21455     21453     21456     21457     21453     21456
     21457     21453     21455     21457     21453     21454     21459     21463     21464
     21460     21459     21462     21460     21459     21461     21461     21459     21462
     21463     21459     21462     21463     21459     21461     21463     21459     21460
     21465     21469     21470     21466     21465     21468     21466     21465     21467
     21467     21465     21468     21469     21465     21468     21469     21465     21467
     21469     21465     21466     21471     21475     21476     21472     21471     21474
     21472     21471     21473     21473     21471     21474     21475     21471     21474
     21475     21471     21473     21475     21471     21472     21477     21481     21482
     21478     21477     21480     21478     21477     21479     21479     21477     21480
     21481     21477     21480     21481     21477     21479     21481     21477     21478
     21483     21487     21488     21484     21483     21486     21484     21483     21485
     21485     21483     21486     21487     21483     21486     21487     21483     21485
     21487     21483     21484     21489     21493     21494     21490     21489     21492
     21490     21489     21491     21491     21489     21492     21493     21489     21492
     21493     21489     21491     21493     21489     21490     21495     21499     21500
     21496     21495     21498     21496     21495     21497     21497     21495     21498
     21499     21495     21498     21499     21495     21497     21499     21495     21496
     21501     21505     21506     21502     21501     21504     21502     21501     21503
     21503     21501     21504     21505     21501     21504     21505     21501     21503
     21505     21501     21502     21507     21511     21512     21508     21507     21510
     21508     21507     21509     21509     21507     21510     21511     21507     21510
     21511     21507     21509     21511     21507     21508     21513     21517     21518
     21514     21513     21516     21514     21513     21515     21515     21513     21516
     21517     21513     21516     21517     21513     21515     21517     21513     21514
     21519     21523     21524     21520     21519     21522     21520     21519     21521
     21521     21519     21522     21523     21519     21522     21523     21519     21521
     21523     21519     21520     21525     21529     21530     21526     21525     21528
     21526     21525     21527     21527     21525     21528     21529     21525     21528
     21529     21525     21527     21529     21525     21526     21531     21535     21536
     21532     21531     21534     21532     21531     21533     21533     21531     21534
     21535     21531     21534     21535     21531     21533     21535     21531     21532
     21537     21541     21542     21538     21537     21540     21538     21537     21539
     21539     21537     21540     21541     21537     21540     21541     21537     21539
     21541     21537     21538     21543     21547     21548     21544     21543     21546
     21544     21543     21545     21545     21543     21546     21547     21543     21546
     21547     21543     21545     21547     21543     21544     21549     21553     21554
     21550     21549     21552     21550     21549     21551     21551     21549     21552
     21553     21549     21552     21553     21549     21551     21553     21549     21550
     21555     21559     21560     21556     21555     21558     21556     21555     21557
     21557     21555     21558     21559     21555     21558     21559     21555     21557
     21559     21555     21556     21561     21565     21566     21562     21561     21564
     21562     21561     21563     21563     21561     21564     21565     21561     21564
     21565     21561     21563     21565     21561     21562     21567     21571     21572
     21568     21567     21570     21568     21567     21569     21569     21567     21570
     21571     21567     21570     21571     21567     21569     21571     21567     21568
     21573     21577     21578     21574     21573     21576     21574     21573     21575
     21575     21573     21576     21577     21573     21576     21577     21573     21575
     21577     21573     21574     21579     21583     21584     21580     21579     21582
     21580     21579     21581     21581     21579     21582     21583     21579     21582
     21583     21579     21581     21583     21579     21580     21585     21589     21590
     21586     21585     21588     21586     21585     21587     21587     21585     21588
     21589     21585     21588     21589     21585     21587     21589     21585     21586
     21591     21595     21596     21592     21591     21594     21592     21591     21593
     21593     21591     21594     21595     21591     21594     21595     21591     21593
     21595     21591     21592     21597     21601     21602     21598     21597     21600
     21598     21597     21599     21599     21597     21600     21601     21597     21600
     21601     21597     21599     21601     21597     21598     21603     21607     21608
     21604     21603     21606     21604     21603     21605     21605     21603     21606
     21607     21603     21606     21607     21603     21605     21607     21603     21604
     21609     21613     21614     21610     21609     21612     21610     21609     21611
     21611     21609     21612     21613     21609     21612     21613     21609     21611
     21613     21609     21610     21615     21619     21620     21616     21615     21618
     21616     21615     21617     21617     21615     21618     21619     21615     21618
     21619     21615     21617     21619     21615     21616     21621     21625     21626
     21622     21621     21624     21622     21621     21623     21623     21621     21624
     21625     21621     21624     21625     21621     21623     21625     21621     21622
     21627     21631     21632     21628     21627     21630     21628     21627     21629
     21629     21627     21630     21631     21627     21630     21631     21627     21629
     21631     21627     21628     21633     21637     21638     21634     21633     21636
     21634     21633     21635     21635     21633     21636     21637     21633     21636
     21637     21633     21635     21637     21633     21634     21639     21643     21644
     21640     21639     21642     21640     21639     21641     21641     21639     21642
     21643     21639     21642     21643     21639     21641     21643     21639     21640
     21645     21649     21650     21646     21645     21648     21646     21645     21647
     21647     21645     21648     21649     21645     21648     21649     21645     21647
     21649     21645     21646     21651     21655     21656     21652     21651     21654
     21652     21651     21653     21653     21651     21654     21655     21651     21654
     21655     21651     21653     21655     21651     21652     21657     21661     21662
     21658     21657     21660     21658     21657     21659     21659     21657     21660
     21661     21657     21660     21661     21657     21659     21661     21657     21658
     21663     21667     21668     21664     21663     21666     21664     21663     21665
     21665     21663     21666     21667     21663     21666     21667     21663     21665
     21667     21663     21664     21669     21673     21674     21670     21669     21672
     21670     21669     21671     21671     21669     21672     21673     21669     21672
     21673     21669     21671     21673     21669     21670     21675     21679     21680
     21676     21675     21678     21676     21675     21677     21677     21675     21678
     21679     21675     21678     21679     21675     21677     21679     21675     21676
     21681     21685     21686     21682     21681     21684     21682     21681     21683
     21683     21681     21684     21685     21681     21684     21685     21681     21683
     21685     21681     21682     21687     21691     21692     21688     21687     21690
     21688     21687     21689     21689     21687     21690     21691     21687     21690
     21691     21687     21689     21691     21687     21688     21693     21697     21698
     21694     21693     21696     21694     21693     21695     21695     21693     21696
     21697     21693     21696     21697     21693     21695     21697     21693     21694
     21699     21703     21704     21700     21699     21702     21700     21699     21701
     21701     21699     21702     21703     21699     21702     21703     21699     21701
     21703     21699     21700     21705     21709     21710     21706     21705     21708
     21706     21705     21707     21707     21705     21708     21709     21705     21708
     21709     21705     21707     21709     21705     21706     21711     21715     21716
     21712     21711     21714     21712     21711     21713     21713     21711     21714
     21715     21711     21714     21715     21711     21713     21715     21711     21712
     21717     21721     21722     21718     21717     21720     21718     21717     21719
     21719     21717     21720     21721     21717     21720     21721     21717     21719
     21721     21717     21718     21723     21727     21728     21724     21723     21726
     21724     21723     21725     21725     21723     21726     21727     21723     21726
     21727     21723     21725     21727     21723     21724     21729     21733     21734
     21730     21729     21732     21730     21729     21731     21731     21729     21732
     21733     21729     21732     21733     21729     21731     21733     21729     21730
     21735     21739     21740     21736     21735     21738     21736     21735     21737
     21737     21735     21738     21739     21735     21738     21739     21735     21737
     21739     21735     21736     21741     21745     21746     21742     21741     21744
     21742     21741     21743     21743     21741     21744     21745     21741     21744
     21745     21741     21743     21745     21741     21742     21747     21751     21752
     21748     21747     21750     21748     21747     21749     21749     21747     21750
     21751     21747     21750     21751     21747     21749     21751     21747     21748
     21753     21757     21758     21754     21753     21756     21754     21753     21755
     21755     21753     21756     21757     21753     21756     21757     21753     21755
     21757     21753     21754     21759     21763     21764     21760     21759     21762
     21760     21759     21761     21761     21759     21762     21763     21759     21762
     21763     21759     21761     21763     21759     21760     21765     21769     21770
     21766     21765     21768     21766     21765     21767     21767     21765     21768
     21769     21765     21768     21769     21765     21767     21769     21765     21766
     21771     21775     21776     21772     21771     21774     21772     21771     21773
     21773     21771     21774     21775     21771     21774     21775     21771     21773
     21775     21771     21772     21777     21781     21782     21778     21777     21780
     21778     21777     21779     21779     21777     21780     21781     21777     21780
     21781     21777     21779     21781     21777     21778     21783     21787     21788
     21784     21783     21786     21784     21783     21785     21785     21783     21786
     21787     21783     21786     21787     21783     21785     21787     21783     21784
     21789     21793     21794     21790     21789     21792     21790     21789     21791
     21791     21789     21792     21793     21789     21792     21793     21789     21791
     21793     21789     21790     21795     21799     21800     21796     21795     21798
     21796     21795     21797     21797     21795     21798     21799     21795     21798
     21799     21795     21797     21799     21795     21796     21801     21805     21806
     21802     21801     21804     21802     21801     21803     21803     21801     21804
     21805     21801     21804     21805     21801     21803     21805     21801     21802
     21807     21811     21812     21808     21807     21810     21808     21807     21809
     21809     21807     21810     21811     21807     21810     21811     21807     21809
     21811     21807     21808     21813     21817     21818     21814     21813     21816
     21814     21813     21815     21815     21813     21816     21817     21813     21816
     21817     21813     21815     21817     21813     21814     21819     21823     21824
     21820     21819     21822     21820     21819     21821     21821     21819     21822
     21823     21819     21822     21823     21819     21821     21823     21819     21820
     21825     21829     21830     21826     21825     21828     21826     21825     21827
     21827     21825     21828     21829     21825     21828     21829     21825     21827
     21829     21825     21826     21831     21835     21836     21832     21831     21834
     21832     21831     21833     21833     21831     21834     21835     21831     21834
     21835     21831     21833     21835     21831     21832     21837     21841     21842
     21838     21837     21840     21838     21837     21839     21839     21837     21840
     21841     21837     21840     21841     21837     21839     21841     21837     21838
     21843     21847     21848     21844     21843     21846     21844     21843     21845
     21845     21843     21846     21847     21843     21846     21847     21843     21845
     21847     21843     21844     21849     21853     21854     21850     21849     21852
     21850     21849     21851     21851     21849     21852     21853     21849     21852
     21853     21849     21851     21853     21849     21850     21855     21859     21860
     21856     21855     21858     21856     21855     21857     21857     21855     21858
     21859     21855     21858     21859     21855     21857     21859     21855     21856
     21861     21865     21866     21862     21861     21864     21862     21861     21863
     21863     21861     21864     21865     21861     21864     21865     21861     21863
     21865     21861     21862     21867     21871     21872     21868     21867     21870
     21868     21867     21869     21869     21867     21870     21871     21867     21870
     21871     21867     21869     21871     21867     21868     21873     21877     21878
     21874     21873     21876     21874     21873     21875     21875     21873     21876
     21877     21873     21876     21877     21873     21875     21877     21873     21874
     21879     21883     21884     21880     21879     21882     21880     21879     21881
     21881     21879     21882     21883     21879     21882     21883     21879     21881
     21883     21879     21880     21885     21889     21890     21886     21885     21888
     21886     21885     21887     21887     21885     21888     21889     21885     21888
     21889     21885     21887     21889     21885     21886     21891     21895     21896
     21892     21891     21894     21892     21891     21893     21893     21891     21894
     21895     21891     21894     21895     21891     21893     21895     21891     21892
     21897     21901     21902     21898     21897     21900     21898     21897     21899
     21899     21897     21900     21901     21897     21900     21901     21897     21899
     21901     21897     21898     21903     21907     21908     21904     21903     21906
     21904     21903     21905     21905     21903     21906     21907     21903     21906
     21907     21903     21905     21907     21903     21904     21909     21913     21914
     21910     21909     21912     21910     21909     21911     21911     21909     21912
     21913     21909     21912     21913     21909     21911     21913     21909     21910
     21915     21919     21920     21916     21915     21918     21916     21915     21917
     21917     21915     21918     21919     21915     21918     21919     21915     21917
     21919     21915     21916     21921     21925     21926     21922     21921     21924
     21922     21921     21923     21923     21921     21924     21925     21921     21924
     21925     21921     21923     21925     21921     21922     21927     21931     21932
     21928     21927     21930     21928     21927     21929     21929     21927     21930
     21931     21927     21930     21931     21927     21929     21931     21927     21928
     21933     21937     21938     21934     21933     21936     21934     21933     21935
     21935     21933     21936     21937     21933     21936     21937     21933     21935
     21937     21933     21934     21939     21943     21944     21940     21939     21942
     21940     21939     21941     21941     21939     21942     21943     21939     21942
     21943     21939     21941     21943     21939     21940     21945     21949     21950
     21946     21945     21948     21946     21945     21947     21947     21945     21948
     21949     21945     21948     21949     21945     21947     21949     21945     21946
     21951     21955     21956     21952     21951     21954     21952     21951     21953
     21953     21951     21954     21955     21951     21954     21955     21951     21953
     21955     21951     21952     21957     21961     21962     21958     21957     21960
     21958     21957     21959     21959     21957     21960     21961     21957     21960
     21961     21957     21959     21961     21957     21958     21963     21967     21968
     21964     21963     21966     21964     21963     21965     21965     21963     21966
     21967     21963     21966     21967     21963     21965     21967     21963     21964
     21969     21973     21974     21970     21969     21972     21970     21969     21971
     21971     21969     21972     21973     21969     21972     21973     21969     21971
     21973     21969     21970     21975     21979     21980     21976     21975     21978
     21976     21975     21977     21977     21975     21978     21979     21975     21978
     21979     21975     21977     21979     21975     21976     21981     21985     21986
     21982     21981     21984     21982     21981     21983     21983     21981     21984
     21985     21981     21984     21985     21981     21983     21985     21981     21982
     21987     21991     21992     21988     21987     21990     21988     21987     21989
     21989     21987     21990     21991     21987     21990     21991     21987     21989
     21991     21987     21988     21993     21997     21998     21994     21993     21996
     21994     21993     21995     21995     21993     21996     21997     21993     21996
     21997     21993     21995     21997     21993     21994     21999     22003     22004
     22000     21999     22002     22000     21999     22001     22001     21999     22002
     22003     21999     22002     22003     21999     22001     22003     21999     22000
     22005     22009     22010     22006     22005     22008     22006     22005     22007
     22007     22005     22008     22009     22005     22008     22009     22005     22007
     22009     22005     22006     22011     22015     22016     22012     22011     22014
     22012     22011     22013     22013     22011     22014     22015     22011     22014
     22015     22011     22013     22015     22011     22012     22017     22021     22022
     22018     22017     22020     22018     22017     22019     22019     22017     22020
     22021     22017     22020     22021     22017     22019     22021     22017     22018
     22023     22027     22028     22024     22023     22026     22024     22023     22025
     22025     22023     22026     22027     22023     22026     22027     22023     22025
     22027     22023     22024     22029     22033     22034     22030     22029     22032
     22030     22029     22031     22031     22029     22032     22033     22029     22032
     22033     22029     22031     22033     22029     22030     22035     22039     22040
     22036     22035     22038     22036     22035     22037     22037     22035     22038
     22039     22035     22038     22039     22035     22037     22039     22035     22036
     22041     22045     22046     22042     22041     22044     22042     22041     22043
     22043     22041     22044     22045     22041     22044     22045     22041     22043
     22045     22041     22042     22047     22051     22052     22048     22047     22050
     22048     22047     22049     22049     22047     22050     22051     22047     22050
     22051     22047     22049     22051     22047     22048     22053     22057     22058
     22054     22053     22056     22054     22053     22055     22055     22053     22056
     22057     22053     22056     22057     22053     22055     22057     22053     22054
     22059     22063     22064     22060     22059     22062     22060     22059     22061
     22061     22059     22062     22063     22059     22062     22063     22059     22061
     22063     22059     22060     22065     22069     22070     22066     22065     22068
     22066     22065     22067     22067     22065     22068     22069     22065     22068
     22069     22065     22067     22069     22065     22066     22071     22075     22076
     22072     22071     22074     22072     22071     22073     22073     22071     22074
     22075     22071     22074     22075     22071     22073     22075     22071     22072
     22077     22081     22082     22078     22077     22080     22078     22077     22079
     22079     22077     22080     22081     22077     22080     22081     22077     22079
     22081     22077     22078     22083     22087     22088     22084     22083     22086
     22084     22083     22085     22085     22083     22086     22087     22083     22086
     22087     22083     22085     22087     22083     22084     22089     22093     22094
     22090     22089     22092     22090     22089     22091     22091     22089     22092
     22093     22089     22092     22093     22089     22091     22093     22089     22090
     22095     22099     22100     22096     22095     22098     22096     22095     22097
     22097     22095     22098     22099     22095     22098     22099     22095     22097
     22099     22095     22096     22101     22105     22106     22102     22101     22104
     22102     22101     22103     22103     22101     22104     22105     22101     22104
     22105     22101     22103     22105     22101     22102     22107     22111     22112
     22108     22107     22110     22108     22107     22109     22109     22107     22110
     22111     22107     22110     22111     22107     22109     22111     22107     22108
     22113     22117     22118     22114     22113     22116     22114     22113     22115
     22115     22113     22116     22117     22113     22116     22117     22113     22115
     22117     22113     22114     22119     22123     22124     22120     22119     22122
     22120     22119     22121     22121     22119     22122     22123     22119     22122
     22123     22119     22121     22123     22119     22120     22125     22129     22130
     22126     22125     22128     22126     22125     22127     22127     22125     22128
     22129     22125     22128     22129     22125     22127     22129     22125     22126
     22131     22135     22136     22132     22131     22134     22132     22131     22133
     22133     22131     22134     22135     22131     22134     22135     22131     22133
     22135     22131     22132     22137     22141     22142     22138     22137     22140
     22138     22137     22139     22139     22137     22140     22141     22137     22140
     22141     22137     22139     22141     22137     22138     22143     22147     22148
     22144     22143     22146     22144     22143     22145     22145     22143     22146
     22147     22143     22146     22147     22143     22145     22147     22143     22144
     22149     22153     22154     22150     22149     22152     22150     22149     22151
     22151     22149     22152     22153     22149     22152     22153     22149     22151
     22153     22149     22150     22155     22159     22160     22156     22155     22158
     22156     22155     22157     22157     22155     22158     22159     22155     22158
     22159     22155     22157     22159     22155     22156     22161     22165     22166
     22162     22161     22164     22162     22161     22163     22163     22161     22164
     22165     22161     22164     22165     22161     22163     22165     22161     22162
     22167     22171     22172     22168     22167     22170     22168     22167     22169
     22169     22167     22170     22171     22167     22170     22171     22167     22169
     22171     22167     22168     22173     22177     22178     22174     22173     22176
     22174     22173     22175     22175     22173     22176     22177     22173     22176
     22177     22173     22175     22177     22173     22174     22179     22183     22184
     22180     22179     22182     22180     22179     22181     22181     22179     22182
     22183     22179     22182     22183     22179     22181     22183     22179     22180
     22185     22189     22190     22186     22185     22188     22186     22185     22187
     22187     22185     22188     22189     22185     22188     22189     22185     22187
     22189     22185     22186     22191     22195     22196     22192     22191     22194
     22192     22191     22193     22193     22191     22194     22195     22191     22194
     22195     22191     22193     22195     22191     22192     22197     22201     22202
     22198     22197     22200     22198     22197     22199     22199     22197     22200
     22201     22197     22200     22201     22197     22199     22201     22197     22198
     22203     22207     22208     22204     22203     22206     22204     22203     22205
     22205     22203     22206     22207     22203     22206     22207     22203     22205
     22207     22203     22204     22209     22213     22214     22210     22209     22212
     22210     22209     22211     22211     22209     22212     22213     22209     22212
     22213     22209     22211     22213     22209     22210     22215     22219     22220
     22216     22215     22218     22216     22215     22217     22217     22215     22218
     22219     22215     22218     22219     22215     22217     22219     22215     22216
     22221     22225     22226     22222     22221     22224     22222     22221     22223
     22223     22221     22224     22225     22221     22224     22225     22221     22223
     22225     22221     22222     22227     22231     22232     22228     22227     22230
     22228     22227     22229     22229     22227     22230     22231     22227     22230
     22231     22227     22229     22231     22227     22228     22233     22237     22238
     22234     22233     22236     22234     22233     22235     22235     22233     22236
     22237     22233     22236     22237     22233     22235     22237     22233     22234
     22239     22243     22244     22240     22239     22242     22240     22239     22241
     22241     22239     22242     22243     22239     22242     22243     22239     22241
     22243     22239     22240     22245     22249     22250     22246     22245     22248
     22246     22245     22247     22247     22245     22248     22249     22245     22248
     22249     22245     22247     22249     22245     22246     22251     22255     22256
     22252     22251     22254     22252     22251     22253     22253     22251     22254
     22255     22251     22254     22255     22251     22253     22255     22251     22252
     22257     22261     22262     22258     22257     22260     22258     22257     22259
     22259     22257     22260     22261     22257     22260     22261     22257     22259
     22261     22257     22258     22263     22267     22268     22264     22263     22266
     22264     22263     22265     22265     22263     22266     22267     22263     22266
     22267     22263     22265     22267     22263     22264     22269     22273     22274
     22270     22269     22272     22270     22269     22271     22271     22269     22272
     22273     22269     22272     22273     22269     22271     22273     22269     22270
     22275     22279     22280     22276     22275     22278     22276     22275     22277
     22277     22275     22278     22279     22275     22278     22279     22275     22277
     22279     22275     22276     22281     22285     22286     22282     22281     22284
     22282     22281     22283     22283     22281     22284     22285     22281     22284
     22285     22281     22283     22285     22281     22282     22287     22291     22292
     22288     22287     22290     22288     22287     22289     22289     22287     22290
     22291     22287     22290     22291     22287     22289     22291     22287     22288
     22293     22297     22298     22294     22293     22296     22294     22293     22295
     22295     22293     22296     22297     22293     22296     22297     22293     22295
     22297     22293     22294     22299     22303     22304     22300     22299     22302
     22300     22299     22301     22301     22299     22302     22303     22299     22302
     22303     22299     22301     22303     22299     22300     22305     22309     22310
     22306     22305     22308     22306     22305     22307     22307     22305     22308
     22309     22305     22308     22309     22305     22307     22309     22305     22306
     22311     22315     22316     22312     22311     22314     22312     22311     22313
     22313     22311     22314     22315     22311     22314     22315     22311     22313
     22315     22311     22312     22317     22321     22322     22318     22317     22320
     22318     22317     22319     22319     22317     22320     22321     22317     22320
     22321     22317     22319     22321     22317     22318     22323     22327     22328
     22324     22323     22326     22324     22323     22325     22325     22323     22326
     22327     22323     22326     22327     22323     22325     22327     22323     22324
     22329     22333     22334     22330     22329     22332     22330     22329     22331
     22331     22329     22332     22333     22329     22332     22333     22329     22331
     22333     22329     22330     22335     22339     22340     22336     22335     22338
     22336     22335     22337     22337     22335     22338     22339     22335     22338
     22339     22335     22337     22339     22335     22336     22341     22345     22346
     22342     22341     22344     22342     22341     22343     22343     22341     22344
     22345     22341     22344     22345     22341     22343     22345     22341     22342
     22347     22351     22352     22348     22347     22350     22348     22347     22349
     22349     22347     22350     22351     22347     22350     22351     22347     22349
     22351     22347     22348     22353     22357     22358     22354     22353     22356
     22354     22353     22355     22355     22353     22356     22357     22353     22356
     22357     22353     22355     22357     22353     22354     22359     22363     22364
     22360     22359     22362     22360     22359     22361     22361     22359     22362
     22363     22359     22362     22363     22359     22361     22363     22359     22360
     22365     22369     22370     22366     22365     22368     22366     22365     22367
     22367     22365     22368     22369     22365     22368     22369     22365     22367
     22369     22365     22366     22371     22375     22376     22372     22371     22374
     22372     22371     22373     22373     22371     22374     22375     22371     22374
     22375     22371     22373     22375     22371     22372     22377     22381     22382
     22378     22377     22380     22378     22377     22379     22379     22377     22380
     22381     22377     22380     22381     22377     22379     22381     22377     22378
     22383     22387     22388     22384     22383     22386     22384     22383     22385
     22385     22383     22386     22387     22383     22386     22387     22383     22385
     22387     22383     22384     22389     22393     22394     22390     22389     22392
     22390     22389     22391     22391     22389     22392     22393     22389     22392
     22393     22389     22391     22393     22389     22390     22395     22399     22400
     22396     22395     22398     22396     22395     22397     22397     22395     22398
     22399     22395     22398     22399     22395     22397     22399     22395     22396
     22401     22405     22406     22402     22401     22404     22402     22401     22403
     22403     22401     22404     22405     22401     22404     22405     22401     22403
     22405     22401     22402     22407     22411     22412     22408     22407     22410
     22408     22407     22409     22409     22407     22410     22411     22407     22410
     22411     22407     22409     22411     22407     22408     22413     22417     22418
     22414     22413     22416     22414     22413     22415     22415     22413     22416
     22417     22413     22416     22417     22413     22415     22417     22413     22414
     22419     22423     22424     22420     22419     22422     22420     22419     22421
     22421     22419     22422     22423     22419     22422     22423     22419     22421
     22423     22419     22420     22425     22429     22430     22426     22425     22428
     22426     22425     22427     22427     22425     22428     22429     22425     22428
     22429     22425     22427     22429     22425     22426     22431     22435     22436
     22432     22431     22434     22432     22431     22433     22433     22431     22434
     22435     22431     22434     22435     22431     22433     22435     22431     22432
     22437     22441     22442     22438     22437     22440     22438     22437     22439
     22439     22437     22440     22441     22437     22440     22441     22437     22439
     22441     22437     22438     22443     22447     22448     22444     22443     22446
     22444     22443     22445     22445     22443     22446     22447     22443     22446
     22447     22443     22445     22447     22443     22444     22449     22453     22454
     22450     22449     22452     22450     22449     22451     22451     22449     22452
     22453     22449     22452     22453     22449     22451     22453     22449     22450
     22455     22459     22460     22456     22455     22458     22456     22455     22457
     22457     22455     22458     22459     22455     22458     22459     22455     22457
     22459     22455     22456     22461     22465     22466     22462     22461     22464
     22462     22461     22463     22463     22461     22464     22465     22461     22464
     22465     22461     22463     22465     22461     22462     22467     22471     22472
     22468     22467     22470     22468     22467     22469     22469     22467     22470
     22471     22467     22470     22471     22467     22469     22471     22467     22468
     22473     22477     22478     22474     22473     22476     22474     22473     22475
     22475     22473     22476     22477     22473     22476     22477     22473     22475
     22477     22473     22474     22479     22483     22484     22480     22479     22482
     22480     22479     22481     22481     22479     22482     22483     22479     22482
     22483     22479     22481     22483     22479     22480     22485     22489     22490
     22486     22485     22488     22486     22485     22487     22487     22485     22488
     22489     22485     22488     22489     22485     22487     22489     22485     22486
     22491     22495     22496     22492     22491     22494     22492     22491     22493
     22493     22491     22494     22495     22491     22494     22495     22491     22493
     22495     22491     22492     22497     22501     22502     22498     22497     22500
     22498     22497     22499     22499     22497     22500     22501     22497     22500
     22501     22497     22499     22501     22497     22498     22503     22507     22508
     22504     22503     22506     22504     22503     22505     22505     22503     22506
     22507     22503     22506     22507     22503     22505     22507     22503     22504
     22509     22513     22514     22510     22509     22512     22510     22509     22511
     22511     22509     22512     22513     22509     22512     22513     22509     22511
     22513     22509     22510     22515     22519     22520     22516     22515     22518
     22516     22515     22517     22517     22515     22518     22519     22515     22518
     22519     22515     22517     22519     22515     22516     22521     22525     22526
     22522     22521     22524     22522     22521     22523     22523     22521     22524
     22525     22521     22524     22525     22521     22523     22525     22521     22522
     22527     22531     22532     22528     22527     22530     22528     22527     22529
     22529     22527     22530     22531     22527     22530     22531     22527     22529
     22531     22527     22528     22533     22537     22538     22534     22533     22536
     22534     22533     22535     22535     22533     22536     22537     22533     22536
     22537     22533     22535     22537     22533     22534     22539     22543     22544
     22540     22539     22542     22540     22539     22541     22541     22539     22542
     22543     22539     22542     22543     22539     22541     22543     22539     22540
     22545     22549     22550     22546     22545     22548     22546     22545     22547
     22547     22545     22548     22549     22545     22548     22549     22545     22547
     22549     22545     22546     22551     22555     22556     22552     22551     22554
     22552     22551     22553     22553     22551     22554     22555     22551     22554
     22555     22551     22553     22555     22551     22552     22557     22561     22562
     22558     22557     22560     22558     22557     22559     22559     22557     22560
     22561     22557     22560     22561     22557     22559     22561     22557     22558
     22563     22567     22568     22564     22563     22566     22564     22563     22565
     22565     22563     22566     22567     22563     22566     22567     22563     22565
     22567     22563     22564     22569     22573     22574     22570     22569     22572
     22570     22569     22571     22571     22569     22572     22573     22569     22572
     22573     22569     22571     22573     22569     22570     22575     22579     22580
     22576     22575     22578     22576     22575     22577     22577     22575     22578
     22579     22575     22578     22579     22575     22577     22579     22575     22576
     22581     22585     22586     22582     22581     22584     22582     22581     22583
     22583     22581     22584     22585     22581     22584     22585     22581     22583
     22585     22581     22582     22587     22591     22592     22588     22587     22590
     22588     22587     22589     22589     22587     22590     22591     22587     22590
     22591     22587     22589     22591     22587     22588     22593     22597     22598
     22594     22593     22596     22594     22593     22595     22595     22593     22596
     22597     22593     22596     22597     22593     22595     22597     22593     22594
     22599     22603     22604     22600     22599     22602     22600     22599     22601
     22601     22599     22602     22603     22599     22602     22603     22599     22601
     22603     22599     22600     22605     22609     22610     22606     22605     22608
     22606     22605     22607     22607     22605     22608     22609     22605     22608
     22609     22605     22607     22609     22605     22606     22611     22615     22616
     22612     22611     22614     22612     22611     22613     22613     22611     22614
     22615     22611     22614     22615     22611     22613     22615     22611     22612
     22617     22621     22622     22618     22617     22620     22618     22617     22619
     22619     22617     22620     22621     22617     22620     22621     22617     22619
     22621     22617     22618     22623     22627     22628     22624     22623     22626
     22624     22623     22625     22625     22623     22626     22627     22623     22626
     22627     22623     22625     22627     22623     22624     22629     22633     22634
     22630     22629     22632     22630     22629     22631     22631     22629     22632
     22633     22629     22632     22633     22629     22631     22633     22629     22630
     22635     22639     22640     22636     22635     22638     22636     22635     22637
     22637     22635     22638     22639     22635     22638     22639     22635     22637
     22639     22635     22636     22641     22645     22646     22642     22641     22644
     22642     22641     22643     22643     22641     22644     22645     22641     22644
     22645     22641     22643     22645     22641     22642     22647     22651     22652
     22648     22647     22650     22648     22647     22649     22649     22647     22650
     22651     22647     22650     22651     22647     22649     22651     22647     22648
     22653     22657     22658     22654     22653     22656     22654     22653     22655
     22655     22653     22656     22657     22653     22656     22657     22653     22655
     22657     22653     22654     22659     22663     22664     22660     22659     22662
     22660     22659     22661     22661     22659     22662     22663     22659     22662
     22663     22659     22661     22663     22659     22660     22665     22669     22670
     22666     22665     22668     22666     22665     22667     22667     22665     22668
     22669     22665     22668     22669     22665     22667     22669     22665     22666
     22671     22675     22676     22672     22671     22674     22672     22671     22673
     22673     22671     22674     22675     22671     22674     22675     22671     22673
     22675     22671     22672     22677     22681     22682     22678     22677     22680
     22678     22677     22679     22679     22677     22680     22681     22677     22680
     22681     22677     22679     22681     22677     22678     22683     22687     22688
     22684     22683     22686     22684     22683     22685     22685     22683     22686
     22687     22683     22686     22687     22683     22685     22687     22683     22684
     22689     22693     22694     22690     22689     22692     22690     22689     22691
     22691     22689     22692     22693     22689     22692     22693     22689     22691
     22693     22689     22690     22695     22699     22700     22696     22695     22698
     22696     22695     22697     22697     22695     22698     22699     22695     22698
     22699     22695     22697     22699     22695     22696     22701     22705     22706
     22702     22701     22704     22702     22701     22703     22703     22701     22704
     22705     22701     22704     22705     22701     22703     22705     22701     22702
     22707     22711     22712     22708     22707     22710     22708     22707     22709
     22709     22707     22710     22711     22707     22710     22711     22707     22709
     22711     22707     22708     22713     22717     22718     22714     22713     22716
     22714     22713     22715     22715     22713     22716     22717     22713     22716
     22717     22713     22715     22717     22713     22714     22719     22723     22724
     22720     22719     22722     22720     22719     22721     22721     22719     22722
     22723     22719     22722     22723     22719     22721     22723     22719     22720
     22725     22729     22730     22726     22725     22728     22726     22725     22727
     22727     22725     22728     22729     22725     22728     22729     22725     22727
     22729     22725     22726     22731     22735     22736     22732     22731     22734
     22732     22731     22733     22733     22731     22734     22735     22731     22734
     22735     22731     22733     22735     22731     22732     22737     22741     22742
     22738     22737     22740     22738     22737     22739     22739     22737     22740
     22741     22737     22740     22741     22737     22739     22741     22737     22738
     22743     22747     22748     22744     22743     22746     22744     22743     22745
     22745     22743     22746     22747     22743     22746     22747     22743     22745
     22747     22743     22744     22749     22753     22754     22750     22749     22752
     22750     22749     22751     22751     22749     22752     22753     22749     22752
     22753     22749     22751     22753     22749     22750     22755     22759     22760
     22756     22755     22758     22756     22755     22757     22757     22755     22758
     22759     22755     22758     22759     22755     22757     22759     22755     22756
     22761     22765     22766     22762     22761     22764     22762     22761     22763
     22763     22761     22764     22765     22761     22764     22765     22761     22763
     22765     22761     22762     22767     22771     22772     22768     22767     22770
     22768     22767     22769     22769     22767     22770     22771     22767     22770
     22771     22767     22769     22771     22767     22768     22773     22777     22778
     22774     22773     22776     22774     22773     22775     22775     22773     22776
     22777     22773     22776     22777     22773     22775     22777     22773     22774
     22779     22783     22784     22780     22779     22782     22780     22779     22781
     22781     22779     22782     22783     22779     22782     22783     22779     22781
     22783     22779     22780     22785     22789     22790     22786     22785     22788
     22786     22785     22787     22787     22785     22788     22789     22785     22788
     22789     22785     22787     22789     22785     22786     22791     22795     22796
     22792     22791     22794     22792     22791     22793     22793     22791     22794
     22795     22791     22794     22795     22791     22793     22795     22791     22792
     22797     22801     22802     22798     22797     22800     22798     22797     22799
     22799     22797     22800     22801     22797     22800     22801     22797     22799
     22801     22797     22798     22803     22807     22808     22804     22803     22806
     22804     22803     22805     22805     22803     22806     22807     22803     22806
     22807     22803     22805     22807     22803     22804     22809     22813     22814
     22810     22809     22812     22810     22809     22811     22811     22809     22812
     22813     22809     22812     22813     22809     22811     22813     22809     22810
     22815     22819     22820     22816     22815     22818     22816     22815     22817
     22817     22815     22818     22819     22815     22818     22819     22815     22817
     22819     22815     22816     22821     22825     22826     22822     22821     22824
     22822     22821     22823     22823     22821     22824     22825     22821     22824
     22825     22821     22823     22825     22821     22822     22827     22831     22832
     22828     22827     22830     22828     22827     22829     22829     22827     22830
     22831     22827     22830     22831     22827     22829     22831     22827     22828
     22833     22837     22838     22834     22833     22836     22834     22833     22835
     22835     22833     22836     22837     22833     22836     22837     22833     22835
     22837     22833     22834     22839     22843     22844     22840     22839     22842
     22840     22839     22841     22841     22839     22842     22843     22839     22842
     22843     22839     22841     22843     22839     22840     22845     22849     22850
     22846     22845     22848     22846     22845     22847     22847     22845     22848
     22849     22845     22848     22849     22845     22847     22849     22845     22846
     22851     22855     22856     22852     22851     22854     22852     22851     22853
     22853     22851     22854     22855     22851     22854     22855     22851     22853
     22855     22851     22852     22857     22861     22862     22858     22857     22860
     22858     22857     22859     22859     22857     22860     22861     22857     22860
     22861     22857     22859     22861     22857     22858     22863     22867     22868
     22864     22863     22866     22864     22863     22865     22865     22863     22866
     22867     22863     22866     22867     22863     22865     22867     22863     22864
     22869     22873     22874     22870     22869     22872     22870     22869     22871
     22871     22869     22872     22873     22869     22872     22873     22869     22871
     22873     22869     22870     22875     22879     22880     22876     22875     22878
     22876     22875     22877     22877     22875     22878     22879     22875     22878
     22879     22875     22877     22879     22875     22876     22881     22885     22886
     22882     22881     22884     22882     22881     22883     22883     22881     22884
     22885     22881     22884     22885     22881     22883     22885     22881     22882
     22887     22891     22892     22888     22887     22890     22888     22887     22889
     22889     22887     22890     22891     22887     22890     22891     22887     22889
     22891     22887     22888     22893     22897     22898     22894     22893     22896
     22894     22893     22895     22895     22893     22896     22897     22893     22896
     22897     22893     22895     22897     22893     22894     22899     22903     22904
     22900     22899     22902     22900     22899     22901     22901     22899     22902
     22903     22899     22902     22903     22899     22901     22903     22899     22900
     22905     22909     22910     22906     22905     22908     22906     22905     22907
     22907     22905     22908     22909     22905     22908     22909     22905     22907
     22909     22905     22906     22911     22915     22916     22912     22911     22914
     22912     22911     22913     22913     22911     22914     22915     22911     22914
     22915     22911     22913     22915     22911     22912     22917     22921     22922
     22918     22917     22920     22918     22917     22919     22919     22917     22920
     22921     22917     22920     22921     22917     22919     22921     22917     22918
     22923     22927     22928     22924     22923     22926     22924     22923     22925
     22925     22923     22926     22927     22923     22926     22927     22923     22925
     22927     22923     22924     22929     22933     22934     22930     22929     22932
     22930     22929     22931     22931     22929     22932     22933     22929     22932
     22933     22929     22931     22933     22929     22930     22935     22939     22940
     22936     22935     22938     22936     22935     22937     22937     22935     22938
     22939     22935     22938     22939     22935     22937     22939     22935     22936
     22941     22945     22946     22942     22941     22944     22942     22941     22943
     22943     22941     22944     22945     22941     22944     22945     22941     22943
     22945     22941     22942     22947     22951     22952     22948     22947     22950
     22948     22947     22949     22949     22947     22950     22951     22947     22950
     22951     22947     22949     22951     22947     22948     22953     22957     22958
     22954     22953     22956     22954     22953     22955     22955     22953     22956
     22957     22953     22956     22957     22953     22955     22957     22953     22954
     22959     22963     22964     22960     22959     22962     22960     22959     22961
     22961     22959     22962     22963     22959     22962     22963     22959     22961
     22963     22959     22960     22965     22969     22970     22966     22965     22968
     22966     22965     22967     22967     22965     22968     22969     22965     22968
     22969     22965     22967     22969     22965     22966     22971     22975     22976
     22972     22971     22974     22972     22971     22973     22973     22971     22974
     22975     22971     22974     22975     22971     22973     22975     22971     22972
     22977     22981     22982     22978     22977     22980     22978     22977     22979
     22979     22977     22980     22981     22977     22980     22981     22977     22979
     22981     22977     22978     22983     22987     22988     22984     22983     22986
     22984     22983     22985     22985     22983     22986     22987     22983     22986
     22987     22983     22985     22987     22983     22984     22989     22993     22994
     22990     22989     22992     22990     22989     22991     22991     22989     22992
     22993     22989     22992     22993     22989     22991     22993     22989     22990
     22995     22999     23000     22996     22995     22998     22996     22995     22997
     22997     22995     22998     22999     22995     22998     22999     22995     22997
     22999     22995     22996     23001     23005     23006     23002     23001     23004
     23002     23001     23003     23003     23001     23004     23005     23001     23004
     23005     23001     23003     23005     23001     23002     23007     23011     23012
     23008     23007     23010     23008     23007     23009     23009     23007     23010
     23011     23007     23010     23011     23007     23009     23011     23007     23008
     23013     23017     23018     23014     23013     23016     23014     23013     23015
     23015     23013     23016     23017     23013     23016     23017     23013     23015
     23017     23013     23014     23019     23023     23024     23020     23019     23022
     23020     23019     23021     23021     23019     23022     23023     23019     23022
     23023     23019     23021     23023     23019     23020     23025     23029     23030
     23026     23025     23028     23026     23025     23027     23027     23025     23028
     23029     23025     23028     23029     23025     23027     23029     23025     23026
     23031     23035     23036     23032     23031     23034     23032     23031     23033
     23033     23031     23034     23035     23031     23034     23035     23031     23033
     23035     23031     23032     23037     23041     23042     23038     23037     23040
     23038     23037     23039     23039     23037     23040     23041     23037     23040
     23041     23037     23039     23041     23037     23038     23043     23047     23048
     23044     23043     23046     23044     23043     23045     23045     23043     23046
     23047     23043     23046     23047     23043     23045     23047     23043     23044
     23049     23053     23054     23050     23049     23052     23050     23049     23051
     23051     23049     23052     23053     23049     23052     23053     23049     23051
     23053     23049     23050     23055     23059     23060     23056     23055     23058
     23056     23055     23057     23057     23055     23058     23059     23055     23058
     23059     23055     23057     23059     23055     23056     23061     23065     23066
     23062     23061     23064     23062     23061     23063     23063     23061     23064
     23065     23061     23064     23065     23061     23063     23065     23061     23062
     23067     23071     23072     23068     23067     23070     23068     23067     23069
     23069     23067     23070     23071     23067     23070     23071     23067     23069
     23071     23067     23068     23073     23077     23078     23074     23073     23076
     23074     23073     23075     23075     23073     23076     23077     23073     23076
     23077     23073     23075     23077     23073     23074     23079     23083     23084
     23080     23079     23082     23080     23079     23081     23081     23079     23082
     23083     23079     23082     23083     23079     23081     23083     23079     23080
     23085     23089     23090     23086     23085     23088     23086     23085     23087
     23087     23085     23088     23089     23085     23088     23089     23085     23087
     23089     23085     23086     23091     23095     23096     23092     23091     23094
     23092     23091     23093     23093     23091     23094     23095     23091     23094
     23095     23091     23093     23095     23091     23092     23097     23101     23102
     23098     23097     23100     23098     23097     23099     23099     23097     23100
     23101     23097     23100     23101     23097     23099     23101     23097     23098
     23103     23107     23108     23104     23103     23106     23104     23103     23105
     23105     23103     23106     23107     23103     23106     23107     23103     23105
     23107     23103     23104     23109     23113     23114     23110     23109     23112
     23110     23109     23111     23111     23109     23112     23113     23109     23112
     23113     23109     23111     23113     23109     23110     23115     23119     23120
     23116     23115     23118     23116     23115     23117     23117     23115     23118
     23119     23115     23118     23119     23115     23117     23119     23115     23116
     23121     23125     23126     23122     23121     23124     23122     23121     23123
     23123     23121     23124     23125     23121     23124     23125     23121     23123
     23125     23121     23122     23127     23131     23132     23128     23127     23130
     23128     23127     23129     23129     23127     23130     23131     23127     23130
     23131     23127     23129     23131     23127     23128     23133     23137     23138
     23134     23133     23136     23134     23133     23135     23135     23133     23136
     23137     23133     23136     23137     23133     23135     23137     23133     23134
     23139     23143     23144     23140     23139     23142     23140     23139     23141
     23141     23139     23142     23143     23139     23142     23143     23139     23141
     23143     23139     23140     23145     23149     23150     23146     23145     23148
     23146     23145     23147     23147     23145     23148     23149     23145     23148
     23149     23145     23147     23149     23145     23146     23151     23155     23156
     23152     23151     23154     23152     23151     23153     23153     23151     23154
     23155     23151     23154     23155     23151     23153     23155     23151     23152
     23157     23161     23162     23158     23157     23160     23158     23157     23159
     23159     23157     23160     23161     23157     23160     23161     23157     23159
     23161     23157     23158     23163     23167     23168     23164     23163     23166
     23164     23163     23165     23165     23163     23166     23167     23163     23166
     23167     23163     23165     23167     23163     23164     23169     23173     23174
     23170     23169     23172     23170     23169     23171     23171     23169     23172
     23173     23169     23172     23173     23169     23171     23173     23169     23170
     23175     23179     23180     23176     23175     23178     23176     23175     23177
     23177     23175     23178     23179     23175     23178     23179     23175     23177
     23179     23175     23176     23181     23185     23186     23182     23181     23184
     23182     23181     23183     23183     23181     23184     23185     23181     23184
     23185     23181     23183     23185     23181     23182     23187     23191     23192
     23188     23187     23190     23188     23187     23189     23189     23187     23190
     23191     23187     23190     23191     23187     23189     23191     23187     23188
     23193     23197     23198     23194     23193     23196     23194     23193     23195
     23195     23193     23196     23197     23193     23196     23197     23193     23195
     23197     23193     23194     23199     23203     23204     23200     23199     23202
     23200     23199     23201     23201     23199     23202     23203     23199     23202
     23203     23199     23201     23203     23199     23200     23205     23209     23210
     23206     23205     23208     23206     23205     23207     23207     23205     23208
     23209     23205     23208     23209     23205     23207     23209     23205     23206
     23211     23215     23216     23212     23211     23214     23212     23211     23213
     23213     23211     23214     23215     23211     23214     23215     23211     23213
     23215     23211     23212     23217     23221     23222     23218     23217     23220
     23218     23217     23219     23219     23217     23220     23221     23217     23220
     23221     23217     23219     23221     23217     23218     23223     23227     23228
     23224     23223     23226     23224     23223     23225     23225     23223     23226
     23227     23223     23226     23227     23223     23225     23227     23223     23224
     23229     23233     23234     23230     23229     23232     23230     23229     23231
     23231     23229     23232     23233     23229     23232     23233     23229     23231
     23233     23229     23230     23235     23239     23240     23236     23235     23238
     23236     23235     23237     23237     23235     23238     23239     23235     23238
     23239     23235     23237     23239     23235     23236     23241     23245     23246
     23242     23241     23244     23242     23241     23243     23243     23241     23244
     23245     23241     23244     23245     23241     23243     23245     23241     23242
     23247     23251     23252     23248     23247     23250     23248     23247     23249
     23249     23247     23250     23251     23247     23250     23251     23247     23249
     23251     23247     23248     23253     23257     23258     23254     23253     23256
     23254     23253     23255     23255     23253     23256     23257     23253     23256
     23257     23253     23255     23257     23253     23254     23259     23263     23264
     23260     23259     23262     23260     23259     23261     23261     23259     23262
     23263     23259     23262     23263     23259     23261     23263     23259     23260
     23265     23269     23270     23266     23265     23268     23266     23265     23267
     23267     23265     23268     23269     23265     23268     23269     23265     23267
     23269     23265     23266     23271     23275     23276     23272     23271     23274
     23272     23271     23273     23273     23271     23274     23275     23271     23274
     23275     23271     23273     23275     23271     23272     23277     23281     23282
     23278     23277     23280     23278     23277     23279     23279     23277     23280
     23281     23277     23280     23281     23277     23279     23281     23277     23278
     23283     23287     23288     23284     23283     23286     23284     23283     23285
     23285     23283     23286     23287     23283     23286     23287     23283     23285
     23287     23283     23284     23289     23293     23294     23290     23289     23292
     23290     23289     23291     23291     23289     23292     23293     23289     23292
     23293     23289     23291     23293     23289     23290     23295     23299     23300
     23296     23295     23298     23296     23295     23297     23297     23295     23298
     23299     23295     23298     23299     23295     23297     23299     23295     23296
     23301     23305     23306     23302     23301     23304     23302     23301     23303
     23303     23301     23304     23305     23301     23304     23305     23301     23303
     23305     23301     23302     23307     23311     23312     23308     23307     23310
     23308     23307     23309     23309     23307     23310     23311     23307     23310
     23311     23307     23309     23311     23307     23308     23313     23317     23318
     23314     23313     23316     23314     23313     23315     23315     23313     23316
     23317     23313     23316     23317     23313     23315     23317     23313     23314
     23319     23323     23324     23320     23319     23322     23320     23319     23321
     23321     23319     23322     23323     23319     23322     23323     23319     23321
     23323     23319     23320     23325     23329     23330     23326     23325     23328
     23326     23325     23327     23327     23325     23328     23329     23325     23328
     23329     23325     23327     23329     23325     23326     23331     23335     23336
     23332     23331     23334     23332     23331     23333     23333     23331     23334
     23335     23331     23334     23335     23331     23333     23335     23331     23332
     23337     23341     23342     23338     23337     23340     23338     23337     23339
     23339     23337     23340     23341     23337     23340     23341     23337     23339
     23341     23337     23338     23343     23347     23348     23344     23343     23346
     23344     23343     23345     23345     23343     23346     23347     23343     23346
     23347     23343     23345     23347     23343     23344     23349     23353     23354
     23350     23349     23352     23350     23349     23351     23351     23349     23352
     23353     23349     23352     23353     23349     23351     23353     23349     23350
     23355     23359     23360     23356     23355     23358     23356     23355     23357
     23357     23355     23358     23359     23355     23358     23359     23355     23357
     23359     23355     23356     23361     23365     23366     23362     23361     23364
     23362     23361     23363     23363     23361     23364     23365     23361     23364
     23365     23361     23363     23365     23361     23362     23367     23371     23372
     23368     23367     23370     23368     23367     23369     23369     23367     23370
     23371     23367     23370     23371     23367     23369     23371     23367     23368
     23373     23377     23378     23374     23373     23376     23374     23373     23375
     23375     23373     23376     23377     23373     23376     23377     23373     23375
     23377     23373     23374     23379     23383     23384     23380     23379     23382
     23380     23379     23381     23381     23379     23382     23383     23379     23382
     23383     23379     23381     23383     23379     23380     23385     23389     23390
     23386     23385     23388     23386     23385     23387     23387     23385     23388
     23389     23385     23388     23389     23385     23387     23389     23385     23386
     23391     23395     23396     23392     23391     23394     23392     23391     23393
     23393     23391     23394     23395     23391     23394     23395     23391     23393
     23395     23391     23392     23397     23401     23402     23398     23397     23400
     23398     23397     23399     23399     23397     23400     23401     23397     23400
     23401     23397     23399     23401     23397     23398     23403     23407     23408
     23404     23403     23406     23404     23403     23405     23405     23403     23406
     23407     23403     23406     23407     23403     23405     23407     23403     23404
     23409     23413     23414     23410     23409     23412     23410     23409     23411
     23411     23409     23412     23413     23409     23412     23413     23409     23411
     23413     23409     23410     23415     23419     23420     23416     23415     23418
     23416     23415     23417     23417     23415     23418     23419     23415     23418
     23419     23415     23417     23419     23415     23416     23421     23425     23426
     23422     23421     23424     23422     23421     23423     23423     23421     23424
     23425     23421     23424     23425     23421     23423     23425     23421     23422
     23427     23431     23432     23428     23427     23430     23428     23427     23429
     23429     23427     23430     23431     23427     23430     23431     23427     23429
     23431     23427     23428     23433     23437     23438     23434     23433     23436
     23434     23433     23435     23435     23433     23436     23437     23433     23436
     23437     23433     23435     23437     23433     23434     23439     23443     23444
     23440     23439     23442     23440     23439     23441     23441     23439     23442
     23443     23439     23442     23443     23439     23441     23443     23439     23440
     23445     23449     23450     23446     23445     23448     23446     23445     23447
     23447     23445     23448     23449     23445     23448     23449     23445     23447
     23449     23445     23446     23451     23455     23456     23452     23451     23454
     23452     23451     23453     23453     23451     23454     23455     23451     23454
     23455     23451     23453     23455     23451     23452     23457     23461     23462
     23458     23457     23460     23458     23457     23459     23459     23457     23460
     23461     23457     23460     23461     23457     23459     23461     23457     23458
     23463     23467     23468     23464     23463     23466     23464     23463     23465
     23465     23463     23466     23467     23463     23466     23467     23463     23465
     23467     23463     23464     23469     23473     23474     23470     23469     23472
     23470     23469     23471     23471     23469     23472     23473     23469     23472
     23473     23469     23471     23473     23469     23470     23475     23479     23480
     23476     23475     23478     23476     23475     23477     23477     23475     23478
     23479     23475     23478     23479     23475     23477     23479     23475     23476
     23481     23485     23486     23482     23481     23484     23482     23481     23483
     23483     23481     23484     23485     23481     23484     23485     23481     23483
     23485     23481     23482     23487     23491     23492     23488     23487     23490
     23488     23487     23489     23489     23487     23490     23491     23487     23490
     23491     23487     23489     23491     23487     23488     23493     23497     23498
     23494     23493     23496     23494     23493     23495     23495     23493     23496
     23497     23493     23496     23497     23493     23495     23497     23493     23494
     23499     23503     23504     23500     23499     23502     23500     23499     23501
     23501     23499     23502     23503     23499     23502     23503     23499     23501
     23503     23499     23500     23505     23509     23510     23506     23505     23508
     23506     23505     23507     23507     23505     23508     23509     23505     23508
     23509     23505     23507     23509     23505     23506     23511     23515     23516
     23512     23511     23514     23512     23511     23513     23513     23511     23514
     23515     23511     23514     23515     23511     23513     23515     23511     23512
     23517     23521     23522     23518     23517     23520     23518     23517     23519
     23519     23517     23520     23521     23517     23520     23521     23517     23519
     23521     23517     23518     23523     23527     23528     23524     23523     23526
     23524     23523     23525     23525     23523     23526     23527     23523     23526
     23527     23523     23525     23527     23523     23524     23529     23533     23534
     23530     23529     23532     23530     23529     23531     23531     23529     23532
     23533     23529     23532     23533     23529     23531     23533     23529     23530
     23535     23539     23540     23536     23535     23538     23536     23535     23537
     23537     23535     23538     23539     23535     23538     23539     23535     23537
     23539     23535     23536     23541     23545     23546     23542     23541     23544
     23542     23541     23543     23543     23541     23544     23545     23541     23544
     23545     23541     23543     23545     23541     23542     23547     23551     23552
     23548     23547     23550     23548     23547     23549     23549     23547     23550
     23551     23547     23550     23551     23547     23549     23551     23547     23548
     23553     23557     23558     23554     23553     23556     23554     23553     23555
     23555     23553     23556     23557     23553     23556     23557     23553     23555
     23557     23553     23554     23559     23563     23564     23560     23559     23562
     23560     23559     23561     23561     23559     23562     23563     23559     23562
     23563     23559     23561     23563     23559     23560     23565     23569     23570
     23566     23565     23568     23566     23565     23567     23567     23565     23568
     23569     23565     23568     23569     23565     23567     23569     23565     23566
     23571     23575     23576     23572     23571     23574     23572     23571     23573
     23573     23571     23574     23575     23571     23574     23575     23571     23573
     23575     23571     23572     23577     23581     23582     23578     23577     23580
     23578     23577     23579     23579     23577     23580     23581     23577     23580
     23581     23577     23579     23581     23577     23578     23583     23587     23588
     23584     23583     23586     23584     23583     23585     23585     23583     23586
     23587     23583     23586     23587     23583     23585     23587     23583     23584
     23589     23593     23594     23590     23589     23592     23590     23589     23591
     23591     23589     23592     23593     23589     23592     23593     23589     23591
     23593     23589     23590     23595     23599     23600     23596     23595     23598
     23596     23595     23597     23597     23595     23598     23599     23595     23598
     23599     23595     23597     23599     23595     23596     23601     23605     23606
     23602     23601     23604     23602     23601     23603     23603     23601     23604
     23605     23601     23604     23605     23601     23603     23605     23601     23602
     23607     23611     23612     23608     23607     23610     23608     23607     23609
     23609     23607     23610     23611     23607     23610     23611     23607     23609
     23611     23607     23608     23613     23617     23618     23614     23613     23616
     23614     23613     23615     23615     23613     23616     23617     23613     23616
     23617     23613     23615     23617     23613     23614     23619     23623     23624
     23620     23619     23622     23620     23619     23621     23621     23619     23622
     23623     23619     23622     23623     23619     23621     23623     23619     23620
     23625     23629     23630     23626     23625     23628     23626     23625     23627
     23627     23625     23628     23629     23625     23628     23629     23625     23627
     23629     23625     23626     23631     23635     23636     23632     23631     23634
     23632     23631     23633     23633     23631     23634     23635     23631     23634
     23635     23631     23633     23635     23631     23632     23637     23641     23642
     23638     23637     23640     23638     23637     23639     23639     23637     23640
     23641     23637     23640     23641     23637     23639     23641     23637     23638
     23643     23647     23648     23644     23643     23646     23644     23643     23645
     23645     23643     23646     23647     23643     23646     23647     23643     23645
     23647     23643     23644     23649     23653     23654     23650     23649     23652
     23650     23649     23651     23651     23649     23652     23653     23649     23652
     23653     23649     23651     23653     23649     23650     23655     23659     23660
     23656     23655     23658     23656     23655     23657     23657     23655     23658
     23659     23655     23658     23659     23655     23657     23659     23655     23656
     23661     23665     23666     23662     23661     23664     23662     23661     23663
     23663     23661     23664     23665     23661     23664     23665     23661     23663
     23665     23661     23662     23667     23671     23672     23668     23667     23670
     23668     23667     23669     23669     23667     23670     23671     23667     23670
     23671     23667     23669     23671     23667     23668     23673     23677     23678
     23674     23673     23676     23674     23673     23675     23675     23673     23676
     23677     23673     23676     23677     23673     23675     23677     23673     23674
     23679     23683     23684     23680     23679     23682     23680     23679     23681
     23681     23679     23682     23683     23679     23682     23683     23679     23681
     23683     23679     23680     23685     23689     23690     23686     23685     23688
     23686     23685     23687     23687     23685     23688     23689     23685     23688
     23689     23685     23687     23689     23685     23686     23691     23695     23696
     23692     23691     23694     23692     23691     23693     23693     23691     23694
     23695     23691     23694     23695     23691     23693     23695     23691     23692
     23697     23701     23702     23698     23697     23700     23698     23697     23699
     23699     23697     23700     23701     23697     23700     23701     23697     23699
     23701     23697     23698     23703     23707     23708     23704     23703     23706
     23704     23703     23705     23705     23703     23706     23707     23703     23706
     23707     23703     23705     23707     23703     23704     23709     23713     23714
     23710     23709     23712     23710     23709     23711     23711     23709     23712
     23713     23709     23712     23713     23709     23711     23713     23709     23710
     23715     23719     23720     23716     23715     23718     23716     23715     23717
     23717     23715     23718     23719     23715     23718     23719     23715     23717
     23719     23715     23716     23721     23725     23726     23722     23721     23724
     23722     23721     23723     23723     23721     23724     23725     23721     23724
     23725     23721     23723     23725     23721     23722     23727     23731     23732
     23728     23727     23730     23728     23727     23729     23729     23727     23730
     23731     23727     23730     23731     23727     23729     23731     23727     23728
     23733     23737     23738     23734     23733     23736     23734     23733     23735
     23735     23733     23736     23737     23733     23736     23737     23733     23735
     23737     23733     23734     23739     23743     23744     23740     23739     23742
     23740     23739     23741     23741     23739     23742     23743     23739     23742
     23743     23739     23741     23743     23739     23740     23745     23749     23750
     23746     23745     23748     23746     23745     23747     23747     23745     23748
     23749     23745     23748     23749     23745     23747     23749     23745     23746
     23751     23755     23756     23752     23751     23754     23752     23751     23753
     23753     23751     23754     23755     23751     23754     23755     23751     23753
     23755     23751     23752     23757     23761     23762     23758     23757     23760
     23758     23757     23759     23759     23757     23760     23761     23757     23760
     23761     23757     23759     23761     23757     23758     23763     23767     23768
     23764     23763     23766     23764     23763     23765     23765     23763     23766
     23767     23763     23766     23767     23763     23765     23767     23763     23764
     23769     23773     23774     23770     23769     23772     23770     23769     23771
     23771     23769     23772     23773     23769     23772     23773     23769     23771
     23773     23769     23770     23775     23779     23780     23776     23775     23778
     23776     23775     23777     23777     23775     23778     23779     23775     23778
     23779     23775     23777     23779     23775     23776     23781     23785     23786
     23782     23781     23784     23782     23781     23783     23783     23781     23784
     23785     23781     23784     23785     23781     23783     23785     23781     23782
     23787     23791     23792     23788     23787     23790     23788     23787     23789
     23789     23787     23790     23791     23787     23790     23791     23787     23789
     23791     23787     23788     23793     23797     23798     23794     23793     23796
     23794     23793     23795     23795     23793     23796     23797     23793     23796
     23797     23793     23795     23797     23793     23794     23799     23803     23804
     23800     23799     23802     23800     23799     23801     23801     23799     23802
     23803     23799     23802     23803     23799     23801     23803     23799     23800
     23805     23809     23810     23806     23805     23808     23806     23805     23807
     23807     23805     23808     23809     23805     23808     23809     23805     23807
     23809     23805     23806     23811     23815     23816     23812     23811     23814
     23812     23811     23813     23813     23811     23814     23815     23811     23814
     23815     23811     23813     23815     23811     23812     23817     23821     23822
     23818     23817     23820     23818     23817     23819     23819     23817     23820
     23821     23817     23820     23821     23817     23819     23821     23817     23818
     23823     23827     23828     23824     23823     23826     23824     23823     23825
     23825     23823     23826     23827     23823     23826     23827     23823     23825
     23827     23823     23824     23829     23833     23834     23830     23829     23832
     23830     23829     23831     23831     23829     23832     23833     23829     23832
     23833     23829     23831     23833     23829     23830     23835     23839     23840
     23836     23835     23838     23836     23835     23837     23837     23835     23838
     23839     23835     23838     23839     23835     23837     23839     23835     23836
     23841     23845     23846     23842     23841     23844     23842     23841     23843
     23843     23841     23844     23845     23841     23844     23845     23841     23843
     23845     23841     23842     23847     23851     23852     23848     23847     23850
     23848     23847     23849     23849     23847     23850     23851     23847     23850
     23851     23847     23849     23851     23847     23848     23853     23857     23858
     23854     23853     23856     23854     23853     23855     23855     23853     23856
     23857     23853     23856     23857     23853     23855     23857     23853     23854
     23859     23863     23864     23860     23859     23862     23860     23859     23861
     23861     23859     23862     23863     23859     23862     23863     23859     23861
     23863     23859     23860     23865     23869     23870     23866     23865     23868
     23866     23865     23867     23867     23865     23868     23869     23865     23868
     23869     23865     23867     23869     23865     23866     23871     23875     23876
     23872     23871     23874     23872     23871     23873     23873     23871     23874
     23875     23871     23874     23875     23871     23873     23875     23871     23872
     23877     23881     23882     23878     23877     23880     23878     23877     23879
     23879     23877     23880     23881     23877     23880     23881     23877     23879
     23881     23877     23878     23883     23887     23888     23884     23883     23886
     23884     23883     23885     23885     23883     23886     23887     23883     23886
     23887     23883     23885     23887     23883     23884     23889     23893     23894
     23890     23889     23892     23890     23889     23891     23891     23889     23892
     23893     23889     23892     23893     23889     23891     23893     23889     23890
     23895     23899     23900     23896     23895     23898     23896     23895     23897
     23897     23895     23898     23899     23895     23898     23899     23895     23897
     23899     23895     23896     23901     23905     23906     23902     23901     23904
     23902     23901     23903     23903     23901     23904     23905     23901     23904
     23905     23901     23903     23905     23901     23902     23907     23911     23912
     23908     23907     23910     23908     23907     23909     23909     23907     23910
     23911     23907     23910     23911     23907     23909     23911     23907     23908
     23913     23917     23918     23914     23913     23916     23914     23913     23915
     23915     23913     23916     23917     23913     23916     23917     23913     23915
     23917     23913     23914     23919     23923     23924     23920     23919     23922
     23920     23919     23921     23921     23919     23922     23923     23919     23922
     23923     23919     23921     23923     23919     23920     23925     23929     23930
     23926     23925     23928     23926     23925     23927     23927     23925     23928
     23929     23925     23928     23929     23925     23927     23929     23925     23926
     23931     23935     23936     23932     23931     23934     23932     23931     23933
     23933     23931     23934     23935     23931     23934     23935     23931     23933
     23935     23931     23932     23937     23941     23942     23938     23937     23940
     23938     23937     23939     23939     23937     23940     23941     23937     23940
     23941     23937     23939     23941     23937     23938     23943     23947     23948
     23944     23943     23946     23944     23943     23945     23945     23943     23946
     23947     23943     23946     23947     23943     23945     23947     23943     23944
     23949     23953     23954     23950     23949     23952     23950     23949     23951
     23951     23949     23952     23953     23949     23952     23953     23949     23951
     23953     23949     23950     23955     23959     23960     23956     23955     23958
     23956     23955     23957     23957     23955     23958     23959     23955     23958
     23959     23955     23957     23959     23955     23956     23961     23965     23966
     23962     23961     23964     23962     23961     23963     23963     23961     23964
     23965     23961     23964     23965     23961     23963     23965     23961     23962
     23967     23971     23972     23968     23967     23970     23968     23967     23969
     23969     23967     23970     23971     23967     23970     23971     23967     23969
     23971     23967     23968     23973     23977     23978     23974     23973     23976
     23974     23973     23975     23975     23973     23976     23977     23973     23976
     23977     23973     23975     23977     23973     23974     23979     23983     23984
     23980     23979     23982     23980     23979     23981     23981     23979     23982
     23983     23979     23982     23983     23979     23981     23983     23979     23980
     23985     23989     23990     23986     23985     23988     23986     23985     23987
     23987     23985     23988     23989     23985     23988     23989     23985     23987
     23989     23985     23986     23991     23995     23996     23992     23991     23994
     23992     23991     23993     23993     23991     23994     23995     23991     23994
     23995     23991     23993     23995     23991     23992     23997     24001     24002
     23998     23997     24000     23998     23997     23999     23999     23997     24000
     24001     23997     24000     24001     23997     23999     24001     23997     23998
     24003     24007     24008     24004     24003     24006     24004     24003     24005
     24005     24003     24006     24007     24003     24006     24007     24003     24005
     24007     24003     24004     24009     24013     24014     24010     24009     24012
     24010     24009     24011     24011     24009     24012     24013     24009     24012
     24013     24009     24011     24013     24009     24010     24015     24019     24020
     24016     24015     24018     24016     24015     24017     24017     24015     24018
     24019     24015     24018     24019     24015     24017     24019     24015     24016
     24021     24025     24026     24022     24021     24024     24022     24021     24023
     24023     24021     24024     24025     24021     24024     24025     24021     24023
     24025     24021     24022     24027     24031     24032     24028     24027     24030
     24028     24027     24029     24029     24027     24030     24031     24027     24030
     24031     24027     24029     24031     24027     24028     24033     24037     24038
     24034     24033     24036     24034     24033     24035     24035     24033     24036
     24037     24033     24036     24037     24033     24035     24037     24033     24034
     24039     24043     24044     24040     24039     24042     24040     24039     24041
     24041     24039     24042     24043     24039     24042     24043     24039     24041
     24043     24039     24040     24045     24049     24050     24046     24045     24048
     24046     24045     24047     24047     24045     24048     24049     24045     24048
     24049     24045     24047     24049     24045     24046     24051     24055     24056
     24052     24051     24054     24052     24051     24053     24053     24051     24054
     24055     24051     24054     24055     24051     24053     24055     24051     24052
     24057     24061     24062     24058     24057     24060     24058     24057     24059
     24059     24057     24060     24061     24057     24060     24061     24057     24059
     24061     24057     24058     24063     24067     24068     24064     24063     24066
     24064     24063     24065     24065     24063     24066     24067     24063     24066
     24067     24063     24065     24067     24063     24064     24069     24073     24074
     24070     24069     24072     24070     24069     24071     24071     24069     24072
     24073     24069     24072     24073     24069     24071     24073     24069     24070
     24075     24079     24080     24076     24075     24078     24076     24075     24077
     24077     24075     24078     24079     24075     24078     24079     24075     24077
     24079     24075     24076     24081     24085     24086     24082     24081     24084
     24082     24081     24083     24083     24081     24084     24085     24081     24084
     24085     24081     24083     24085     24081     24082     24087     24091     24092
     24088     24087     24090     24088     24087     24089     24089     24087     24090
     24091     24087     24090     24091     24087     24089     24091     24087     24088
     24093     24097     24098     24094     24093     24096     24094     24093     24095
     24095     24093     24096     24097     24093     24096     24097     24093     24095
     24097     24093     24094     24099     24103     24104     24100     24099     24102
     24100     24099     24101     24101     24099     24102     24103     24099     24102
     24103     24099     24101     24103     24099     24100     24105     24109     24110
     24106     24105     24108     24106     24105     24107     24107     24105     24108
     24109     24105     24108     24109     24105     24107     24109     24105     24106
     24111     24115     24116     24112     24111     24114     24112     24111     24113
     24113     24111     24114     24115     24111     24114     24115     24111     24113
     24115     24111     24112     24117     24121     24122     24118     24117     24120
     24118     24117     24119     24119     24117     24120     24121     24117     24120
     24121     24117     24119     24121     24117     24118     24123     24127     24128
     24124     24123     24126     24124     24123     24125     24125     24123     24126
     24127     24123     24126     24127     24123     24125     24127     24123     24124
     24129     24133     24134     24130     24129     24132     24130     24129     24131
     24131     24129     24132     24133     24129     24132     24133     24129     24131
     24133     24129     24130     24135     24139     24140     24136     24135     24138
     24136     24135     24137     24137     24135     24138     24139     24135     24138
     24139     24135     24137     24139     24135     24136     24141     24145     24146
     24142     24141     24144     24142     24141     24143     24143     24141     24144
     24145     24141     24144     24145     24141     24143     24145     24141     24142
     24147     24151     24152     24148     24147     24150     24148     24147     24149
     24149     24147     24150     24151     24147     24150     24151     24147     24149
     24151     24147     24148     24153     24157     24158     24154     24153     24156
     24154     24153     24155     24155     24153     24156     24157     24153     24156
     24157     24153     24155     24157     24153     24154     24159     24163     24164
     24160     24159     24162     24160     24159     24161     24161     24159     24162
     24163     24159     24162     24163     24159     24161     24163     24159     24160
     24165     24169     24170     24166     24165     24168     24166     24165     24167
     24167     24165     24168     24169     24165     24168     24169     24165     24167
     24169     24165     24166     24171     24175     24176     24172     24171     24174
     24172     24171     24173     24173     24171     24174     24175     24171     24174
     24175     24171     24173     24175     24171     24172     24177     24181     24182
     24178     24177     24180     24178     24177     24179     24179     24177     24180
     24181     24177     24180     24181     24177     24179     24181     24177     24178
     24183     24187     24188     24184     24183     24186     24184     24183     24185
     24185     24183     24186     24187     24183     24186     24187     24183     24185
     24187     24183     24184     24189     24193     24194     24190     24189     24192
     24190     24189     24191     24191     24189     24192     24193     24189     24192
     24193     24189     24191     24193     24189     24190     24195     24199     24200
     24196     24195     24198     24196     24195     24197     24197     24195     24198
     24199     24195     24198     24199     24195     24197     24199     24195     24196
     24201     24205     24206     24202     24201     24204     24202     24201     24203
     24203     24201     24204     24205     24201     24204     24205     24201     24203
     24205     24201     24202     24207     24211     24212     24208     24207     24210
     24208     24207     24209     24209     24207     24210     24211     24207     24210
     24211     24207     24209     24211     24207     24208     24213     24217     24218
     24214     24213     24216     24214     24213     24215     24215     24213     24216
     24217     24213     24216     24217     24213     24215     24217     24213     24214
     24219     24223     24224     24220     24219     24222     24220     24219     24221
     24221     24219     24222     24223     24219     24222     24223     24219     24221
     24223     24219     24220     24225     24229     24230     24226     24225     24228
     24226     24225     24227     24227     24225     24228     24229     24225     24228
     24229     24225     24227     24229     24225     24226     24231     24235     24236
     24232     24231     24234     24232     24231     24233     24233     24231     24234
     24235     24231     24234     24235     24231     24233     24235     24231     24232
     24237     24241     24242     24238     24237     24240     24238     24237     24239
     24239     24237     24240     24241     24237     24240     24241     24237     24239
     24241     24237     24238     24243     24247     24248     24244     24243     24246
     24244     24243     24245     24245     24243     24246     24247     24243     24246
     24247     24243     24245     24247     24243     24244     24249     24253     24254
     24250     24249     24252     24250     24249     24251     24251     24249     24252
     24253     24249     24252     24253     24249     24251     24253     24249     24250
     24255     24259     24260     24256     24255     24258     24256     24255     24257
     24257     24255     24258     24259     24255     24258     24259     24255     24257
     24259     24255     24256     24261     24265     24266     24262     24261     24264
     24262     24261     24263     24263     24261     24264     24265     24261     24264
     24265     24261     24263     24265     24261     24262     24267     24271     24272
     24268     24267     24270     24268     24267     24269     24269     24267     24270
     24271     24267     24270     24271     24267     24269     24271     24267     24268
     24273     24277     24278     24274     24273     24276     24274     24273     24275
     24275     24273     24276     24277     24273     24276     24277     24273     24275
     24277     24273     24274     24279     24283     24284     24280     24279     24282
     24280     24279     24281     24281     24279     24282     24283     24279     24282
     24283     24279     24281     24283     24279     24280     24285     24289     24290
     24286     24285     24288     24286     24285     24287     24287     24285     24288
     24289     24285     24288     24289     24285     24287     24289     24285     24286
     24291     24295     24296     24292     24291     24294     24292     24291     24293
     24293     24291     24294     24295     24291     24294     24295     24291     24293
     24295     24291     24292     24297     24301     24302     24298     24297     24300
     24298     24297     24299     24299     24297     24300     24301     24297     24300
     24301     24297     24299     24301     24297     24298     24303     24307     24308
     24304     24303     24306     24304     24303     24305     24305     24303     24306
     24307     24303     24306     24307     24303     24305     24307     24303     24304
     24309     24313     24314     24310     24309     24312     24310     24309     24311
     24311     24309     24312     24313     24309     24312     24313     24309     24311
     24313     24309     24310     24315     24319     24320     24316     24315     24318
     24316     24315     24317     24317     24315     24318     24319     24315     24318
     24319     24315     24317     24319     24315     24316     24321     24325     24326
     24322     24321     24324     24322     24321     24323     24323     24321     24324
     24325     24321     24324     24325     24321     24323     24325     24321     24322
     24327     24331     24332     24328     24327     24330     24328     24327     24329
     24329     24327     24330     24331     24327     24330     24331     24327     24329
     24331     24327     24328     24333     24337     24338     24334     24333     24336
     24334     24333     24335     24335     24333     24336     24337     24333     24336
     24337     24333     24335     24337     24333     24334     24339     24343     24344
     24340     24339     24342     24340     24339     24341     24341     24339     24342
     24343     24339     24342     24343     24339     24341     24343     24339     24340
     24345     24349     24350     24346     24345     24348     24346     24345     24347
     24347     24345     24348     24349     24345     24348     24349     24345     24347
     24349     24345     24346     24351     24355     24356     24352     24351     24354
     24352     24351     24353     24353     24351     24354     24355     24351     24354
     24355     24351     24353     24355     24351     24352     24357     24361     24362
     24358     24357     24360     24358     24357     24359     24359     24357     24360
     24361     24357     24360     24361     24357     24359     24361     24357     24358
     24363     24367     24368     24364     24363     24366     24364     24363     24365
     24365     24363     24366     24367     24363     24366     24367     24363     24365
     24367     24363     24364     24369     24373     24374     24370     24369     24372
     24370     24369     24371     24371     24369     24372     24373     24369     24372
     24373     24369     24371     24373     24369     24370     24375     24379     24380
     24376     24375     24378     24376     24375     24377     24377     24375     24378
     24379     24375     24378     24379     24375     24377     24379     24375     24376
     24381     24385     24386     24382     24381     24384     24382     24381     24383
     24383     24381     24384     24385     24381     24384     24385     24381     24383
     24385     24381     24382     24387     24391     24392     24388     24387     24390
     24388     24387     24389     24389     24387     24390     24391     24387     24390
     24391     24387     24389     24391     24387     24388     24393     24397     24398
     24394     24393     24396     24394     24393     24395     24395     24393     24396
     24397     24393     24396     24397     24393     24395     24397     24393     24394
     24399     24403     24404     24400     24399     24402     24400     24399     24401
     24401     24399     24402     24403     24399     24402     24403     24399     24401
     24403     24399     24400     24405     24409     24410     24406     24405     24408
     24406     24405     24407     24407     24405     24408     24409     24405     24408
     24409     24405     24407     24409     24405     24406     24411     24415     24416
     24412     24411     24414     24412     24411     24413     24413     24411     24414
     24415     24411     24414     24415     24411     24413     24415     24411     24412
     24417     24421     24422     24418     24417     24420     24418     24417     24419
     24419     24417     24420     24421     24417     24420     24421     24417     24419
     24421     24417     24418     24423     24427     24428     24424     24423     24426
     24424     24423     24425     24425     24423     24426     24427     24423     24426
     24427     24423     24425     24427     24423     24424     24429     24433     24434
     24430     24429     24432     24430     24429     24431     24431     24429     24432
     24433     24429     24432     24433     24429     24431     24433     24429     24430
     24435     24439     24440     24436     24435     24438     24436     24435     24437
     24437     24435     24438     24439     24435     24438     24439     24435     24437
     24439     24435     24436     24441     24445     24446     24442     24441     24444
     24442     24441     24443     24443     24441     24444     24445     24441     24444
     24445     24441     24443     24445     24441     24442     24447     24451     24452
     24448     24447     24450     24448     24447     24449     24449     24447     24450
     24451     24447     24450     24451     24447     24449     24451     24447     24448
     24453     24457     24458     24454     24453     24456     24454     24453     24455
     24455     24453     24456     24457     24453     24456     24457     24453     24455
     24457     24453     24454     24459     24463     24464     24460     24459     24462
     24460     24459     24461     24461     24459     24462     24463     24459     24462
     24463     24459     24461     24463     24459     24460     24465     24469     24470
     24466     24465     24468     24466     24465     24467     24467     24465     24468
     24469     24465     24468     24469     24465     24467     24469     24465     24466
     24471     24475     24476     24472     24471     24474     24472     24471     24473
     24473     24471     24474     24475     24471     24474     24475     24471     24473
     24475     24471     24472     24477     24481     24482     24478     24477     24480
     24478     24477     24479     24479     24477     24480     24481     24477     24480
     24481     24477     24479     24481     24477     24478     24483     24487     24488
     24484     24483     24486     24484     24483     24485     24485     24483     24486
     24487     24483     24486     24487     24483     24485     24487     24483     24484
     24489     24493     24494     24490     24489     24492     24490     24489     24491
     24491     24489     24492     24493     24489     24492     24493     24489     24491
     24493     24489     24490     24495     24499     24500     24496     24495     24498
     24496     24495     24497     24497     24495     24498     24499     24495     24498
     24499     24495     24497     24499     24495     24496     24501     24505     24506
     24502     24501     24504     24502     24501     24503     24503     24501     24504
     24505     24501     24504     24505     24501     24503     24505     24501     24502
     24507     24511     24512     24508     24507     24510     24508     24507     24509
     24509     24507     24510     24511     24507     24510     24511     24507     24509
     24511     24507     24508     24513     24517     24518     24514     24513     24516
     24514     24513     24515     24515     24513     24516     24517     24513     24516
     24517     24513     24515     24517     24513     24514     24519     24523     24524
     24520     24519     24522     24520     24519     24521     24521     24519     24522
     24523     24519     24522     24523     24519     24521     24523     24519     24520
     24525     24529     24530     24526     24525     24528     24526     24525     24527
     24527     24525     24528     24529     24525     24528     24529     24525     24527
     24529     24525     24526     24531     24535     24536     24532     24531     24534
     24532     24531     24533     24533     24531     24534     24535     24531     24534
     24535     24531     24533     24535     24531     24532     24537     24541     24542
     24538     24537     24540     24538     24537     24539     24539     24537     24540
     24541     24537     24540     24541     24537     24539     24541     24537     24538
     24543     24547     24548     24544     24543     24546     24544     24543     24545
     24545     24543     24546     24547     24543     24546     24547     24543     24545
     24547     24543     24544     24549     24553     24554     24550     24549     24552
     24550     24549     24551     24551     24549     24552     24553     24549     24552
     24553     24549     24551     24553     24549     24550     24555     24559     24560
     24556     24555     24558     24556     24555     24557     24557     24555     24558
     24559     24555     24558     24559     24555     24557     24559     24555     24556
     24561     24565     24566     24562     24561     24564     24562     24561     24563
     24563     24561     24564     24565     24561     24564     24565     24561     24563
     24565     24561     24562     24567     24571     24572     24568     24567     24570
     24568     24567     24569     24569     24567     24570     24571     24567     24570
     24571     24567     24569     24571     24567     24568     24573     24577     24578
     24574     24573     24576     24574     24573     24575     24575     24573     24576
     24577     24573     24576     24577     24573     24575     24577     24573     24574
     24579     24583     24584     24580     24579     24582     24580     24579     24581
     24581     24579     24582     24583     24579     24582     24583     24579     24581
     24583     24579     24580     24585     24589     24590     24586     24585     24588
     24586     24585     24587     24587     24585     24588     24589     24585     24588
     24589     24585     24587     24589     24585     24586     24591     24595     24596
     24592     24591     24594     24592     24591     24593     24593     24591     24594
     24595     24591     24594     24595     24591     24593     24595     24591     24592
     24597     24601     24602     24598     24597     24600     24598     24597     24599
     24599     24597     24600     24601     24597     24600     24601     24597     24599
     24601     24597     24598     24603     24607     24608     24604     24603     24606
     24604     24603     24605     24605     24603     24606     24607     24603     24606
     24607     24603     24605     24607     24603     24604     24609     24613     24614
     24610     24609     24612     24610     24609     24611     24611     24609     24612
     24613     24609     24612     24613     24609     24611     24613     24609     24610
     24615     24619     24620     24616     24615     24618     24616     24615     24617
     24617     24615     24618     24619     24615     24618     24619     24615     24617
     24619     24615     24616     24621     24625     24626     24622     24621     24624
     24622     24621     24623     24623     24621     24624     24625     24621     24624
     24625     24621     24623     24625     24621     24622     24627     24631     24632
     24628     24627     24630     24628     24627     24629     24629     24627     24630
     24631     24627     24630     24631     24627     24629     24631     24627     24628
     24633     24637     24638     24634     24633     24636     24634     24633     24635
     24635     24633     24636     24637     24633     24636     24637     24633     24635
     24637     24633     24634     24639     24643     24644     24640     24639     24642
     24640     24639     24641     24641     24639     24642     24643     24639     24642
     24643     24639     24641     24643     24639     24640     24645     24649     24650
     24646     24645     24648     24646     24645     24647     24647     24645     24648
     24649     24645     24648     24649     24645     24647     24649     24645     24646
     24651     24655     24656     24652     24651     24654     24652     24651     24653
     24653     24651     24654     24655     24651     24654     24655     24651     24653
     24655     24651     24652     24657     24661     24662     24658     24657     24660
     24658     24657     24659     24659     24657     24660     24661     24657     24660
     24661     24657     24659     24661     24657     24658     24663     24667     24668
     24664     24663     24666     24664     24663     24665     24665     24663     24666
     24667     24663     24666     24667     24663     24665     24667     24663     24664
     24669     24673     24674     24670     24669     24672     24670     24669     24671
     24671     24669     24672     24673     24669     24672     24673     24669     24671
     24673     24669     24670     24675     24679     24680     24676     24675     24678
     24676     24675     24677     24677     24675     24678     24679     24675     24678
     24679     24675     24677     24679     24675     24676     24681     24685     24686
     24682     24681     24684     24682     24681     24683     24683     24681     24684
     24685     24681     24684     24685     24681     24683     24685     24681     24682
     24687     24691     24692     24688     24687     24690     24688     24687     24689
     24689     24687     24690     24691     24687     24690     24691     24687     24689
     24691     24687     24688     24693     24697     24698     24694     24693     24696
     24694     24693     24695     24695     24693     24696     24697     24693     24696
     24697     24693     24695     24697     24693     24694     24699     24703     24704
     24700     24699     24702     24700     24699     24701     24701     24699     24702
     24703     24699     24702     24703     24699     24701     24703     24699     24700
     24705     24709     24710     24706     24705     24708     24706     24705     24707
     24707     24705     24708     24709     24705     24708     24709     24705     24707
     24709     24705     24706     24711     24715     24716     24712     24711     24714
     24712     24711     24713     24713     24711     24714     24715     24711     24714
     24715     24711     24713     24715     24711     24712     24717     24721     24722
     24718     24717     24720     24718     24717     24719     24719     24717     24720
     24721     24717     24720     24721     24717     24719     24721     24717     24718
     24723     24727     24728     24724     24723     24726     24724     24723     24725
     24725     24723     24726     24727     24723     24726     24727     24723     24725
     24727     24723     24724     24729     24733     24734     24730     24729     24732
     24730     24729     24731     24731     24729     24732     24733     24729     24732
     24733     24729     24731     24733     24729     24730     24735     24739     24740
     24736     24735     24738     24736     24735     24737     24737     24735     24738
     24739     24735     24738     24739     24735     24737     24739     24735     24736
     24741     24745     24746     24742     24741     24744     24742     24741     24743
     24743     24741     24744     24745     24741     24744     24745     24741     24743
     24745     24741     24742     24747     24751     24752     24748     24747     24750
     24748     24747     24749     24749     24747     24750     24751     24747     24750
     24751     24747     24749     24751     24747     24748     24753     24757     24758
     24754     24753     24756     24754     24753     24755     24755     24753     24756
     24757     24753     24756     24757     24753     24755     24757     24753     24754
     24759     24763     24764     24760     24759     24762     24760     24759     24761
     24761     24759     24762     24763     24759     24762     24763     24759     24761
     24763     24759     24760     24765     24769     24770     24766     24765     24768
     24766     24765     24767     24767     24765     24768     24769     24765     24768
     24769     24765     24767     24769     24765     24766     24771     24775     24776
     24772     24771     24774     24772     24771     24773     24773     24771     24774
     24775     24771     24774     24775     24771     24773     24775     24771     24772
     24777     24781     24782     24778     24777     24780     24778     24777     24779
     24779     24777     24780     24781     24777     24780     24781     24777     24779
     24781     24777     24778     24783     24787     24788     24784     24783     24786
     24784     24783     24785     24785     24783     24786     24787     24783     24786
     24787     24783     24785     24787     24783     24784     24789     24793     24794
     24790     24789     24792     24790     24789     24791     24791     24789     24792
     24793     24789     24792     24793     24789     24791     24793     24789     24790
     24795     24799     24800     24796     24795     24798     24796     24795     24797
     24797     24795     24798     24799     24795     24798     24799     24795     24797
     24799     24795     24796     24801     24805     24806     24802     24801     24804
     24802     24801     24803     24803     24801     24804     24805     24801     24804
     24805     24801     24803     24805     24801     24802     24807     24811     24812
     24808     24807     24810     24808     24807     24809     24809     24807     24810
     24811     24807     24810     24811     24807     24809     24811     24807     24808
     24813     24817     24818     24814     24813     24816     24814     24813     24815
     24815     24813     24816     24817     24813     24816     24817     24813     24815
     24817     24813     24814     24819     24823     24824     24820     24819     24822
     24820     24819     24821     24821     24819     24822     24823     24819     24822
     24823     24819     24821     24823     24819     24820     24825     24829     24830
     24826     24825     24828     24826     24825     24827     24827     24825     24828
     24829     24825     24828     24829     24825     24827     24829     24825     24826
     24831     24835     24836     24832     24831     24834     24832     24831     24833
     24833     24831     24834     24835     24831     24834     24835     24831     24833
     24835     24831     24832     24837     24841     24842     24838     24837     24840
     24838     24837     24839     24839     24837     24840     24841     24837     24840
     24841     24837     24839     24841     24837     24838     24843     24847     24848
     24844     24843     24846     24844     24843     24845     24845     24843     24846
     24847     24843     24846     24847     24843     24845     24847     24843     24844
     24849     24853     24854     24850     24849     24852     24850     24849     24851
     24851     24849     24852     24853     24849     24852     24853     24849     24851
     24853     24849     24850     24855     24859     24860     24856     24855     24858
     24856     24855     24857     24857     24855     24858     24859     24855     24858
     24859     24855     24857     24859     24855     24856     24861     24865     24866
     24862     24861     24864     24862     24861     24863     24863     24861     24864
     24865     24861     24864     24865     24861     24863     24865     24861     24862
     24867     24871     24872     24868     24867     24870     24868     24867     24869
     24869     24867     24870     24871     24867     24870     24871     24867     24869
     24871     24867     24868     24873     24877     24878     24874     24873     24876
     24874     24873     24875     24875     24873     24876     24877     24873     24876
     24877     24873     24875     24877     24873     24874     24879     24883     24884
     24880     24879     24882     24880     24879     24881     24881     24879     24882
     24883     24879     24882     24883     24879     24881     24883     24879     24880
     24885     24889     24890     24886     24885     24888     24886     24885     24887
     24887     24885     24888     24889     24885     24888     24889     24885     24887
     24889     24885     24886     24891     24895     24896     24892     24891     24894
     24892     24891     24893     24893     24891     24894     24895     24891     24894
     24895     24891     24893     24895     24891     24892     24897     24901     24902
     24898     24897     24900     24898     24897     24899     24899     24897     24900
     24901     24897     24900     24901     24897     24899     24901     24897     24898
     24903     24907     24908     24904     24903     24906     24904     24903     24905
     24905     24903     24906     24907     24903     24906     24907     24903     24905
     24907     24903     24904     24909     24913     24914     24910     24909     24912
     24910     24909     24911     24911     24909     24912     24913     24909     24912
     24913     24909     24911     24913     24909     24910     24915     24919     24920
     24916     24915     24918     24916     24915     24917     24917     24915     24918
     24919     24915     24918     24919     24915     24917     24919     24915     24916
     24921     24925     24926     24922     24921     24924     24922     24921     24923
     24923     24921     24924     24925     24921     24924     24925     24921     24923
     24925     24921     24922     24927     24931     24932     24928     24927     24930
     24928     24927     24929     24929     24927     24930     24931     24927     24930
     24931     24927     24929     24931     24927     24928     24933     24937     24938
     24934     24933     24936     24934     24933     24935     24935     24933     24936
     24937     24933     24936     24937     24933     24935     24937     24933     24934
     24939     24943     24944     24940     24939     24942     24940     24939     24941
     24941     24939     24942     24943     24939     24942     24943     24939     24941
     24943     24939     24940     24945     24949     24950     24946     24945     24948
     24946     24945     24947     24947     24945     24948     24949     24945     24948
     24949     24945     24947     24949     24945     24946     24951     24955     24956
     24952     24951     24954     24952     24951     24953     24953     24951     24954
     24955     24951     24954     24955     24951     24953     24955     24951     24952
     24957     24961     24962     24958     24957     24960     24958     24957     24959
     24959     24957     24960     24961     24957     24960     24961     24957     24959
     24961     24957     24958     24963     24967     24968     24964     24963     24966
     24964     24963     24965     24965     24963     24966     24967     24963     24966
     24967     24963     24965     24967     24963     24964     24969     24973     24974
     24970     24969     24972     24970     24969     24971     24971     24969     24972
     24973     24969     24972     24973     24969     24971     24973     24969     24970
     24975     24979     24980     24976     24975     24978     24976     24975     24977
     24977     24975     24978     24979     24975     24978     24979     24975     24977
     24979     24975     24976     24981     24985     24986     24982     24981     24984
     24982     24981     24983     24983     24981     24984     24985     24981     24984
     24985     24981     24983     24985     24981     24982     24987     24991     24992
     24988     24987     24990     24988     24987     24989     24989     24987     24990
     24991     24987     24990     24991     24987     24989     24991     24987     24988
     24993     24997     24998     24994     24993     24996     24994     24993     24995
     24995     24993     24996     24997     24993     24996     24997     24993     24995
     24997     24993     24994     24999     25003     25004     25000     24999     25002
     25000     24999     25001     25001     24999     25002     25003     24999     25002
     25003     24999     25001     25003     24999     25000     25005     25009     25010
     25006     25005     25008     25006     25005     25007     25007     25005     25008
     25009     25005     25008     25009     25005     25007     25009     25005     25006
     25011     25015     25016     25012     25011     25014     25012     25011     25013
     25013     25011     25014     25015     25011     25014     25015     25011     25013
     25015     25011     25012     25017     25021     25022     25018     25017     25020
     25018     25017     25019     25019     25017     25020     25021     25017     25020
     25021     25017     25019     25021     25017     25018     25023     25027     25028
     25024     25023     25026     25024     25023     25025     25025     25023     25026
     25027     25023     25026     25027     25023     25025     25027     25023     25024
     25029     25033     25034     25030     25029     25032     25030     25029     25031
     25031     25029     25032     25033     25029     25032     25033     25029     25031
     25033     25029     25030     25035     25039     25040     25036     25035     25038
     25036     25035     25037     25037     25035     25038     25039     25035     25038
     25039     25035     25037     25039     25035     25036     25041     25045     25046
     25042     25041     25044     25042     25041     25043     25043     25041     25044
     25045     25041     25044     25045     25041     25043     25045     25041     25042
     25047     25051     25052     25048     25047     25050     25048     25047     25049
     25049     25047     25050     25051     25047     25050     25051     25047     25049
     25051     25047     25048     25053     25057     25058     25054     25053     25056
     25054     25053     25055     25055     25053     25056     25057     25053     25056
     25057     25053     25055     25057     25053     25054     25059     25063     25064
     25060     25059     25062     25060     25059     25061     25061     25059     25062
     25063     25059     25062     25063     25059     25061     25063     25059     25060
     25065     25069     25070     25066     25065     25068     25066     25065     25067
     25067     25065     25068     25069     25065     25068     25069     25065     25067
     25069     25065     25066     25071     25075     25076     25072     25071     25074
     25072     25071     25073     25073     25071     25074     25075     25071     25074
     25075     25071     25073     25075     25071     25072     25077     25081     25082
     25078     25077     25080     25078     25077     25079     25079     25077     25080
     25081     25077     25080     25081     25077     25079     25081     25077     25078
     25083     25087     25088     25084     25083     25086     25084     25083     25085
     25085     25083     25086     25087     25083     25086     25087     25083     25085
     25087     25083     25084     25089     25093     25094     25090     25089     25092
     25090     25089     25091     25091     25089     25092     25093     25089     25092
     25093     25089     25091     25093     25089     25090     25095     25099     25100
     25096     25095     25098     25096     25095     25097     25097     25095     25098
     25099     25095     25098     25099     25095     25097     25099     25095     25096
     25101     25105     25106     25102     25101     25104     25102     25101     25103
     25103     25101     25104     25105     25101     25104     25105     25101     25103
     25105     25101     25102     25107     25111     25112     25108     25107     25110
     25108     25107     25109     25109     25107     25110     25111     25107     25110
     25111     25107     25109     25111     25107     25108     25113     25117     25118
     25114     25113     25116     25114     25113     25115     25115     25113     25116
     25117     25113     25116     25117     25113     25115     25117     25113     25114
     25119     25123     25124     25120     25119     25122     25120     25119     25121
     25121     25119     25122     25123     25119     25122     25123     25119     25121
     25123     25119     25120     25125     25129     25130     25126     25125     25128
     25126     25125     25127     25127     25125     25128     25129     25125     25128
     25129     25125     25127     25129     25125     25126     25131     25135     25136
     25132     25131     25134     25132     25131     25133     25133     25131     25134
     25135     25131     25134     25135     25131     25133     25135     25131     25132
     25137     25141     25142     25138     25137     25140     25138     25137     25139
     25139     25137     25140     25141     25137     25140     25141     25137     25139
     25141     25137     25138     25143     25147     25148     25144     25143     25146
     25144     25143     25145     25145     25143     25146     25147     25143     25146
     25147     25143     25145     25147     25143     25144     25149     25153     25154
     25150     25149     25152     25150     25149     25151     25151     25149     25152
     25153     25149     25152     25153     25149     25151     25153     25149     25150
     25155     25159     25160     25156     25155     25158     25156     25155     25157
     25157     25155     25158     25159     25155     25158     25159     25155     25157
     25159     25155     25156     25161     25165     25166     25162     25161     25164
     25162     25161     25163     25163     25161     25164     25165     25161     25164
     25165     25161     25163     25165     25161     25162     25167     25171     25172
     25168     25167     25170     25168     25167     25169     25169     25167     25170
     25171     25167     25170     25171     25167     25169     25171     25167     25168
     25173     25177     25178     25174     25173     25176     25174     25173     25175
     25175     25173     25176     25177     25173     25176     25177     25173     25175
     25177     25173     25174     25179     25183     25184     25180     25179     25182
     25180     25179     25181     25181     25179     25182     25183     25179     25182
     25183     25179     25181     25183     25179     25180     25185     25189     25190
     25186     25185     25188     25186     25185     25187     25187     25185     25188
     25189     25185     25188     25189     25185     25187     25189     25185     25186
     25191     25195     25196     25192     25191     25194     25192     25191     25193
     25193     25191     25194     25195     25191     25194     25195     25191     25193
     25195     25191     25192     25197     25201     25202     25198     25197     25200
     25198     25197     25199     25199     25197     25200     25201     25197     25200
     25201     25197     25199     25201     25197     25198     25203     25207     25208
     25204     25203     25206     25204     25203     25205     25205     25203     25206
     25207     25203     25206     25207     25203     25205     25207     25203     25204
     25209     25213     25214     25210     25209     25212     25210     25209     25211
     25211     25209     25212     25213     25209     25212     25213     25209     25211
     25213     25209     25210     25215     25219     25220     25216     25215     25218
     25216     25215     25217     25217     25215     25218     25219     25215     25218
     25219     25215     25217     25219     25215     25216     25221     25225     25226
     25222     25221     25224     25222     25221     25223     25223     25221     25224
     25225     25221     25224     25225     25221     25223     25225     25221     25222
     25227     25231     25232     25228     25227     25230     25228     25227     25229
     25229     25227     25230     25231     25227     25230     25231     25227     25229
     25231     25227     25228     25233     25237     25238     25234     25233     25236
     25234     25233     25235     25235     25233     25236     25237     25233     25236
     25237     25233     25235     25237     25233     25234     25239     25243     25244
     25240     25239     25242     25240     25239     25241     25241     25239     25242
     25243     25239     25242     25243     25239     25241     25243     25239     25240
     25245     25249     25250     25246     25245     25248     25246     25245     25247
     25247     25245     25248     25249     25245     25248     25249     25245     25247
     25249     25245     25246     25251     25255     25256     25252     25251     25254
     25252     25251     25253     25253     25251     25254     25255     25251     25254
     25255     25251     25253     25255     25251     25252     25257     25261     25262
     25258     25257     25260     25258     25257     25259     25259     25257     25260
     25261     25257     25260     25261     25257     25259     25261     25257     25258
     25263     25267     25268     25264     25263     25266     25264     25263     25265
     25265     25263     25266     25267     25263     25266     25267     25263     25265
     25267     25263     25264     25269     25273     25274     25270     25269     25272
     25270     25269     25271     25271     25269     25272     25273     25269     25272
     25273     25269     25271     25273     25269     25270     25275     25279     25280
     25276     25275     25278     25276     25275     25277     25277     25275     25278
     25279     25275     25278     25279     25275     25277     25279     25275     25276
     25281     25285     25286     25282     25281     25284     25282     25281     25283
     25283     25281     25284     25285     25281     25284     25285     25281     25283
     25285     25281     25282     25287     25291     25292     25288     25287     25290
     25288     25287     25289     25289     25287     25290     25291     25287     25290
     25291     25287     25289     25291     25287     25288     25293     25297     25298
     25294     25293     25296     25294     25293     25295     25295     25293     25296
     25297     25293     25296     25297     25293     25295     25297     25293     25294
     25299     25303     25304     25300     25299     25302     25300     25299     25301
     25301     25299     25302     25303     25299     25302     25303     25299     25301
     25303     25299     25300     25305     25309     25310     25306     25305     25308
     25306     25305     25307     25307     25305     25308     25309     25305     25308
     25309     25305     25307     25309     25305     25306     25311     25315     25316
     25312     25311     25314     25312     25311     25313     25313     25311     25314
     25315     25311     25314     25315     25311     25313     25315     25311     25312
     25317     25321     25322     25318     25317     25320     25318     25317     25319
     25319     25317     25320     25321     25317     25320     25321     25317     25319
     25321     25317     25318     25323     25327     25328     25324     25323     25326
     25324     25323     25325     25325     25323     25326     25327     25323     25326
     25327     25323     25325     25327     25323     25324     25329     25333     25334
     25330     25329     25332     25330     25329     25331     25331     25329     25332
     25333     25329     25332     25333     25329     25331     25333     25329     25330
     25335     25339     25340     25336     25335     25338     25336     25335     25337
     25337     25335     25338     25339     25335     25338     25339     25335     25337
     25339     25335     25336     25341     25345     25346     25342     25341     25344
     25342     25341     25343     25343     25341     25344     25345     25341     25344
     25345     25341     25343     25345     25341     25342     25347     25351     25352
     25348     25347     25350     25348     25347     25349     25349     25347     25350
     25351     25347     25350     25351     25347     25349     25351     25347     25348
     25353     25357     25358     25354     25353     25356     25354     25353     25355
     25355     25353     25356     25357     25353     25356     25357     25353     25355
     25357     25353     25354     25359     25363     25364     25360     25359     25362
     25360     25359     25361     25361     25359     25362     25363     25359     25362
     25363     25359     25361     25363     25359     25360     25365     25369     25370
     25366     25365     25368     25366     25365     25367     25367     25365     25368
     25369     25365     25368     25369     25365     25367     25369     25365     25366
     25371     25375     25376     25372     25371     25374     25372     25371     25373
     25373     25371     25374     25375     25371     25374     25375     25371     25373
     25375     25371     25372     25377     25381     25382     25378     25377     25380
     25378     25377     25379     25379     25377     25380     25381     25377     25380
     25381     25377     25379     25381     25377     25378     25383     25387     25388
     25384     25383     25386     25384     25383     25385     25385     25383     25386
     25387     25383     25386     25387     25383     25385     25387     25383     25384
     25389     25393     25394     25390     25389     25392     25390     25389     25391
     25391     25389     25392     25393     25389     25392     25393     25389     25391
     25393     25389     25390     25395     25399     25400     25396     25395     25398
     25396     25395     25397     25397     25395     25398     25399     25395     25398
     25399     25395     25397     25399     25395     25396     25401     25405     25406
     25402     25401     25404     25402     25401     25403     25403     25401     25404
     25405     25401     25404     25405     25401     25403     25405     25401     25402
     25407     25411     25412     25408     25407     25410     25408     25407     25409
     25409     25407     25410     25411     25407     25410     25411     25407     25409
     25411     25407     25408     25413     25417     25418     25414     25413     25416
     25414     25413     25415     25415     25413     25416     25417     25413     25416
     25417     25413     25415     25417     25413     25414     25419     25423     25424
     25420     25419     25422     25420     25419     25421     25421     25419     25422
     25423     25419     25422     25423     25419     25421     25423     25419     25420
     25425     25429     25430     25426     25425     25428     25426     25425     25427
     25427     25425     25428     25429     25425     25428     25429     25425     25427
     25429     25425     25426     25431     25435     25436     25432     25431     25434
     25432     25431     25433     25433     25431     25434     25435     25431     25434
     25435     25431     25433     25435     25431     25432     25437     25441     25442
     25438     25437     25440     25438     25437     25439     25439     25437     25440
     25441     25437     25440     25441     25437     25439     25441     25437     25438
     25443     25447     25448     25444     25443     25446     25444     25443     25445
     25445     25443     25446     25447     25443     25446     25447     25443     25445
     25447     25443     25444     25449     25453     25454     25450     25449     25452
     25450     25449     25451     25451     25449     25452     25453     25449     25452
     25453     25449     25451     25453     25449     25450     25455     25459     25460
     25456     25455     25458     25456     25455     25457     25457     25455     25458
     25459     25455     25458     25459     25455     25457     25459     25455     25456
     25461     25465     25466     25462     25461     25464     25462     25461     25463
     25463     25461     25464     25465     25461     25464     25465     25461     25463
     25465     25461     25462     25467     25471     25472     25468     25467     25470
     25468     25467     25469     25469     25467     25470     25471     25467     25470
     25471     25467     25469     25471     25467     25468     25473     25477     25478
     25474     25473     25476     25474     25473     25475     25475     25473     25476
     25477     25473     25476     25477     25473     25475     25477     25473     25474
     25479     25483     25484     25480     25479     25482     25480     25479     25481
     25481     25479     25482     25483     25479     25482     25483     25479     25481
     25483     25479     25480     25485     25489     25490     25486     25485     25488
     25486     25485     25487     25487     25485     25488     25489     25485     25488
     25489     25485     25487     25489     25485     25486     25491     25495     25496
     25492     25491     25494     25492     25491     25493     25493     25491     25494
     25495     25491     25494     25495     25491     25493     25495     25491     25492
     25497     25501     25502     25498     25497     25500     25498     25497     25499
     25499     25497     25500     25501     25497     25500     25501     25497     25499
     25501     25497     25498     25503     25507     25508     25504     25503     25506
     25504     25503     25505     25505     25503     25506     25507     25503     25506
     25507     25503     25505     25507     25503     25504     25509     25513     25514
     25510     25509     25512     25510     25509     25511     25511     25509     25512
     25513     25509     25512     25513     25509     25511     25513     25509     25510
     25515     25519     25520     25516     25515     25518     25516     25515     25517
     25517     25515     25518     25519     25515     25518     25519     25515     25517
     25519     25515     25516     25521     25525     25526     25522     25521     25524
     25522     25521     25523     25523     25521     25524     25525     25521     25524
     25525     25521     25523     25525     25521     25522     25527     25531     25532
     25528     25527     25530     25528     25527     25529     25529     25527     25530
     25531     25527     25530     25531     25527     25529     25531     25527     25528
     25533     25537     25538     25534     25533     25536     25534     25533     25535
     25535     25533     25536     25537     25533     25536     25537     25533     25535
     25537     25533     25534     25539     25543     25544     25540     25539     25542
     25540     25539     25541     25541     25539     25542     25543     25539     25542
     25543     25539     25541     25543     25539     25540     25545     25549     25550
     25546     25545     25548     25546     25545     25547     25547     25545     25548
     25549     25545     25548     25549     25545     25547     25549     25545     25546
     25551     25555     25556     25552     25551     25554     25552     25551     25553
     25553     25551     25554     25555     25551     25554     25555     25551     25553
     25555     25551     25552     25557     25561     25562     25558     25557     25560
     25558     25557     25559     25559     25557     25560     25561     25557     25560
     25561     25557     25559     25561     25557     25558     25563     25567     25568
     25564     25563     25566     25564     25563     25565     25565     25563     25566
     25567     25563     25566     25567     25563     25565     25567     25563     25564
     25569     25573     25574     25570     25569     25572     25570     25569     25571
     25571     25569     25572     25573     25569     25572     25573     25569     25571
     25573     25569     25570     25575     25579     25580     25576     25575     25578
     25576     25575     25577     25577     25575     25578     25579     25575     25578
     25579     25575     25577     25579     25575     25576     25581     25585     25586
     25582     25581     25584     25582     25581     25583     25583     25581     25584
     25585     25581     25584     25585     25581     25583     25585     25581     25582
     25587     25591     25592     25588     25587     25590     25588     25587     25589
     25589     25587     25590     25591     25587     25590     25591     25587     25589
     25591     25587     25588     25593     25597     25598     25594     25593     25596
     25594     25593     25595     25595     25593     25596     25597     25593     25596
     25597     25593     25595     25597     25593     25594     25599     25603     25604
     25600     25599     25602     25600     25599     25601     25601     25599     25602
     25603     25599     25602     25603     25599     25601     25603     25599     25600
     25605     25609     25610     25606     25605     25608     25606     25605     25607
     25607     25605     25608     25609     25605     25608     25609     25605     25607
     25609     25605     25606     25611     25615     25616     25612     25611     25614
     25612     25611     25613     25613     25611     25614     25615     25611     25614
     25615     25611     25613     25615     25611     25612     25617     25621     25622
     25618     25617     25620     25618     25617     25619     25619     25617     25620
     25621     25617     25620     25621     25617     25619     25621     25617     25618
     25623     25627     25628     25624     25623     25626     25624     25623     25625
     25625     25623     25626     25627     25623     25626     25627     25623     25625
     25627     25623     25624     25629     25633     25634     25630     25629     25632
     25630     25629     25631     25631     25629     25632     25633     25629     25632
     25633     25629     25631     25633     25629     25630     25635     25639     25640
     25636     25635     25638     25636     25635     25637     25637     25635     25638
     25639     25635     25638     25639     25635     25637     25639     25635     25636
     25641     25645     25646     25642     25641     25644     25642     25641     25643
     25643     25641     25644     25645     25641     25644     25645     25641     25643
     25645     25641     25642     25647     25651     25652     25648     25647     25650
     25648     25647     25649     25649     25647     25650     25651     25647     25650
     25651     25647     25649     25651     25647     25648     25653     25657     25658
     25654     25653     25656     25654     25653     25655     25655     25653     25656
     25657     25653     25656     25657     25653     25655     25657     25653     25654
     25659     25663     25664     25660     25659     25662     25660     25659     25661
     25661     25659     25662     25663     25659     25662     25663     25659     25661
     25663     25659     25660     25665     25669     25670     25666     25665     25668
     25666     25665     25667     25667     25665     25668     25669     25665     25668
     25669     25665     25667     25669     25665     25666     25671     25675     25676
     25672     25671     25674     25672     25671     25673     25673     25671     25674
     25675     25671     25674     25675     25671     25673     25675     25671     25672
     25677     25681     25682     25678     25677     25680     25678     25677     25679
     25679     25677     25680     25681     25677     25680     25681     25677     25679
     25681     25677     25678     25683     25687     25688     25684     25683     25686
     25684     25683     25685     25685     25683     25686     25687     25683     25686
     25687     25683     25685     25687     25683     25684     25689     25693     25694
     25690     25689     25692     25690     25689     25691     25691     25689     25692
     25693     25689     25692     25693     25689     25691     25693     25689     25690
     25695     25699     25700     25696     25695     25698     25696     25695     25697
     25697     25695     25698     25699     25695     25698     25699     25695     25697
     25699     25695     25696     25701     25705     25706     25702     25701     25704
     25702     25701     25703     25703     25701     25704     25705     25701     25704
     25705     25701     25703     25705     25701     25702     25707     25711     25712
     25708     25707     25710     25708     25707     25709     25709     25707     25710
     25711     25707     25710     25711     25707     25709     25711     25707     25708
     25713     25717     25718     25714     25713     25716     25714     25713     25715
     25715     25713     25716     25717     25713     25716     25717     25713     25715
     25717     25713     25714     25719     25723     25724     25720     25719     25722
     25720     25719     25721     25721     25719     25722     25723     25719     25722
     25723     25719     25721     25723     25719     25720     25725     25729     25730
     25726     25725     25728     25726     25725     25727     25727     25725     25728
     25729     25725     25728     25729     25725     25727     25729     25725     25726
     25731     25735     25736     25732     25731     25734     25732     25731     25733
     25733     25731     25734     25735     25731     25734     25735     25731     25733
     25735     25731     25732     25737     25741     25742     25738     25737     25740
     25738     25737     25739     25739     25737     25740     25741     25737     25740
     25741     25737     25739     25741     25737     25738     25743     25747     25748
     25744     25743     25746     25744     25743     25745     25745     25743     25746
     25747     25743     25746     25747     25743     25745     25747     25743     25744
     25749     25753     25754     25750     25749     25752     25750     25749     25751
     25751     25749     25752     25753     25749     25752     25753     25749     25751
     25753     25749     25750     25755     25759     25760     25756     25755     25758
     25756     25755     25757     25757     25755     25758     25759     25755     25758
     25759     25755     25757     25759     25755     25756     25761     25765     25766
     25762     25761     25764     25762     25761     25763     25763     25761     25764
     25765     25761     25764     25765     25761     25763     25765     25761     25762
     25767     25771     25772     25768     25767     25770     25768     25767     25769
     25769     25767     25770     25771     25767     25770     25771     25767     25769
     25771     25767     25768     25773     25777     25778     25774     25773     25776
     25774     25773     25775     25775     25773     25776     25777     25773     25776
     25777     25773     25775     25777     25773     25774     25779     25783     25784
     25780     25779     25782     25780     25779     25781     25781     25779     25782
     25783     25779     25782     25783     25779     25781     25783     25779     25780
     25785     25789     25790     25786     25785     25788     25786     25785     25787
     25787     25785     25788     25789     25785     25788     25789     25785     25787
     25789     25785     25786     25791     25795     25796     25792     25791     25794
     25792     25791     25793     25793     25791     25794     25795     25791     25794
     25795     25791     25793     25795     25791     25792     25797     25801     25802
     25798     25797     25800     25798     25797     25799     25799     25797     25800
     25801     25797     25800     25801     25797     25799     25801     25797     25798
     25803     25807     25808     25804     25803     25806     25804     25803     25805
     25805     25803     25806     25807     25803     25806     25807     25803     25805
     25807     25803     25804     25809     25813     25814     25810     25809     25812
     25810     25809     25811     25811     25809     25812     25813     25809     25812
     25813     25809     25811     25813     25809     25810     25815     25819     25820
     25816     25815     25818     25816     25815     25817     25817     25815     25818
     25819     25815     25818     25819     25815     25817     25819     25815     25816
     25821     25825     25826     25822     25821     25824     25822     25821     25823
     25823     25821     25824     25825     25821     25824     25825     25821     25823
     25825     25821     25822     25827     25831     25832     25828     25827     25830
     25828     25827     25829     25829     25827     25830     25831     25827     25830
     25831     25827     25829     25831     25827     25828     25833     25837     25838
     25834     25833     25836     25834     25833     25835     25835     25833     25836
     25837     25833     25836     25837     25833     25835     25837     25833     25834
     25839     25843     25844     25840     25839     25842     25840     25839     25841
     25841     25839     25842     25843     25839     25842     25843     25839     25841
     25843     25839     25840     25845     25849     25850     25846     25845     25848
     25846     25845     25847     25847     25845     25848     25849     25845     25848
     25849     25845     25847     25849     25845     25846     25851     25855     25856
     25852     25851     25854     25852     25851     25853     25853     25851     25854
     25855     25851     25854     25855     25851     25853     25855     25851     25852
     25857     25861     25862     25858     25857     25860     25858     25857     25859
     25859     25857     25860     25861     25857     25860     25861     25857     25859
     25861     25857     25858     25863     25867     25868     25864     25863     25866
     25864     25863     25865     25865     25863     25866     25867     25863     25866
     25867     25863     25865     25867     25863     25864     25869     25873     25874
     25870     25869     25872     25870     25869     25871     25871     25869     25872
     25873     25869     25872     25873     25869     25871     25873     25869     25870
     25875     25879     25880     25876     25875     25878     25876     25875     25877
     25877     25875     25878     25879     25875     25878     25879     25875     25877
     25879     25875     25876     25881     25885     25886     25882     25881     25884
     25882     25881     25883     25883     25881     25884     25885     25881     25884
     25885     25881     25883     25885     25881     25882     25887     25891     25892
     25888     25887     25890     25888     25887     25889     25889     25887     25890
     25891     25887     25890     25891     25887     25889     25891     25887     25888
     25893     25897     25898     25894     25893     25896     25894     25893     25895
     25895     25893     25896     25897     25893     25896     25897     25893     25895
     25897     25893     25894     25899     25903     25904     25900     25899     25902
     25900     25899     25901     25901     25899     25902     25903     25899     25902
     25903     25899     25901     25903     25899     25900     25905     25909     25910
     25906     25905     25908     25906     25905     25907     25907     25905     25908
     25909     25905     25908     25909     25905     25907     25909     25905     25906
     25911     25915     25916     25912     25911     25914     25912     25911     25913
     25913     25911     25914     25915     25911     25914     25915     25911     25913
     25915     25911     25912     25917     25921     25922     25918     25917     25920
     25918     25917     25919     25919     25917     25920     25921     25917     25920
     25921     25917     25919     25921     25917     25918     25923     25927     25928
     25924     25923     25926     25924     25923     25925     25925     25923     25926
     25927     25923     25926     25927     25923     25925     25927     25923     25924
     25929     25933     25934     25930     25929     25932     25930     25929     25931
     25931     25929     25932     25933     25929     25932     25933     25929     25931
     25933     25929     25930     25935     25939     25940     25936     25935     25938
     25936     25935     25937     25937     25935     25938     25939     25935     25938
     25939     25935     25937     25939     25935     25936     25941     25945     25946
     25942     25941     25944     25942     25941     25943     25943     25941     25944
     25945     25941     25944     25945     25941     25943     25945     25941     25942
     25947     25951     25952     25948     25947     25950     25948     25947     25949
     25949     25947     25950     25951     25947     25950     25951     25947     25949
     25951     25947     25948     25953     25957     25958     25954     25953     25956
     25954     25953     25955     25955     25953     25956     25957     25953     25956
     25957     25953     25955     25957     25953     25954     25959     25963     25964
     25960     25959     25962     25960     25959     25961     25961     25959     25962
     25963     25959     25962     25963     25959     25961     25963     25959     25960
     25965     25969     25970     25966     25965     25968     25966     25965     25967
     25967     25965     25968     25969     25965     25968     25969     25965     25967
     25969     25965     25966     25971     25975     25976     25972     25971     25974
     25972     25971     25973     25973     25971     25974     25975     25971     25974
     25975     25971     25973     25975     25971     25972     25977     25981     25982
     25978     25977     25980     25978     25977     25979     25979     25977     25980
     25981     25977     25980     25981     25977     25979     25981     25977     25978
     25983     25987     25988     25984     25983     25986     25984     25983     25985
     25985     25983     25986     25987     25983     25986     25987     25983     25985
     25987     25983     25984     25989     25993     25994     25990     25989     25992
     25990     25989     25991     25991     25989     25992     25993     25989     25992
     25993     25989     25991     25993     25989     25990     25995     25999     26000
     25996     25995     25998     25996     25995     25997     25997     25995     25998
     25999     25995     25998     25999     25995     25997     25999     25995     25996
     26001     26005     26006     26002     26001     26004     26002     26001     26003
     26003     26001     26004     26005     26001     26004     26005     26001     26003
     26005     26001     26002     26007     26011     26012     26008     26007     26010
     26008     26007     26009     26009     26007     26010     26011     26007     26010
     26011     26007     26009     26011     26007     26008     26013     26017     26018
     26014     26013     26016     26014     26013     26015     26015     26013     26016
     26017     26013     26016     26017     26013     26015     26017     26013     26014
     26019     26023     26024     26020     26019     26022     26020     26019     26021
     26021     26019     26022     26023     26019     26022     26023     26019     26021
     26023     26019     26020     26025     26029     26030     26026     26025     26028
     26026     26025     26027     26027     26025     26028     26029     26025     26028
     26029     26025     26027     26029     26025     26026     26031     26035     26036
     26032     26031     26034     26032     26031     26033     26033     26031     26034
     26035     26031     26034     26035     26031     26033     26035     26031     26032
     26037     26041     26042     26038     26037     26040     26038     26037     26039
     26039     26037     26040     26041     26037     26040     26041     26037     26039
     26041     26037     26038     26043     26047     26048     26044     26043     26046
     26044     26043     26045     26045     26043     26046     26047     26043     26046
     26047     26043     26045     26047     26043     26044     26049     26053     26054
     26050     26049     26052     26050     26049     26051     26051     26049     26052
     26053     26049     26052     26053     26049     26051     26053     26049     26050
     26055     26059     26060     26056     26055     26058     26056     26055     26057
     26057     26055     26058     26059     26055     26058     26059     26055     26057
     26059     26055     26056     26061     26065     26066     26062     26061     26064
     26062     26061     26063     26063     26061     26064     26065     26061     26064
     26065     26061     26063     26065     26061     26062     26067     26071     26072
     26068     26067     26070     26068     26067     26069     26069     26067     26070
     26071     26067     26070     26071     26067     26069     26071     26067     26068
     26073     26077     26078     26074     26073     26076     26074     26073     26075
     26075     26073     26076     26077     26073     26076     26077     26073     26075
     26077     26073     26074     26079     26083     26084     26080     26079     26082
     26080     26079     26081     26081     26079     26082     26083     26079     26082
     26083     26079     26081     26083     26079     26080     26085     26089     26090
     26086     26085     26088     26086     26085     26087     26087     26085     26088
     26089     26085     26088     26089     26085     26087     26089     26085     26086
     26091     26095     26096     26092     26091     26094     26092     26091     26093
     26093     26091     26094     26095     26091     26094     26095     26091     26093
     26095     26091     26092     26097     26101     26102     26098     26097     26100
     26098     26097     26099     26099     26097     26100     26101     26097     26100
     26101     26097     26099     26101     26097     26098     26103     26107     26108
     26104     26103     26106     26104     26103     26105     26105     26103     26106
     26107     26103     26106     26107     26103     26105     26107     26103     26104
     26109     26113     26114     26110     26109     26112     26110     26109     26111
     26111     26109     26112     26113     26109     26112     26113     26109     26111
     26113     26109     26110     26115     26119     26120     26116     26115     26118
     26116     26115     26117     26117     26115     26118     26119     26115     26118
     26119     26115     26117     26119     26115     26116     26121     26125     26126
     26122     26121     26124     26122     26121     26123     26123     26121     26124
     26125     26121     26124     26125     26121     26123     26125     26121     26122
     26127     26131     26132     26128     26127     26130     26128     26127     26129
     26129     26127     26130     26131     26127     26130     26131     26127     26129
     26131     26127     26128     26133     26137     26138     26134     26133     26136
     26134     26133     26135     26135     26133     26136     26137     26133     26136
     26137     26133     26135     26137     26133     26134     26139     26143     26144
     26140     26139     26142     26140     26139     26141     26141     26139     26142
     26143     26139     26142     26143     26139     26141     26143     26139     26140
     26145     26149     26150     26146     26145     26148     26146     26145     26147
     26147     26145     26148     26149     26145     26148     26149     26145     26147
     26149     26145     26146     26151     26155     26156     26152     26151     26154
     26152     26151     26153     26153     26151     26154     26155     26151     26154
     26155     26151     26153     26155     26151     26152     26157     26161     26162
     26158     26157     26160     26158     26157     26159     26159     26157     26160
     26161     26157     26160     26161     26157     26159     26161     26157     26158
     26163     26167     26168     26164     26163     26166     26164     26163     26165
     26165     26163     26166     26167     26163     26166     26167     26163     26165
     26167     26163     26164     26169     26173     26174     26170     26169     26172
     26170     26169     26171     26171     26169     26172     26173     26169     26172
     26173     26169     26171     26173     26169     26170     26175     26179     26180
     26176     26175     26178     26176     26175     26177     26177     26175     26178
     26179     26175     26178     26179     26175     26177     26179     26175     26176
     26181     26185     26186     26182     26181     26184     26182     26181     26183
     26183     26181     26184     26185     26181     26184     26185     26181     26183
     26185     26181     26182     26187     26191     26192     26188     26187     26190
     26188     26187     26189     26189     26187     26190     26191     26187     26190
     26191     26187     26189     26191     26187     26188     26193     26197     26198
     26194     26193     26196     26194     26193     26195     26195     26193     26196
     26197     26193     26196     26197     26193     26195     26197     26193     26194
     26199     26203     26204     26200     26199     26202     26200     26199     26201
     26201     26199     26202     26203     26199     26202     26203     26199     26201
     26203     26199     26200     26205     26209     26210     26206     26205     26208
     26206     26205     26207     26207     26205     26208     26209     26205     26208
     26209     26205     26207     26209     26205     26206     26211     26215     26216
     26212     26211     26214     26212     26211     26213     26213     26211     26214
     26215     26211     26214     26215     26211     26213     26215     26211     26212
     26217     26221     26222     26218     26217     26220     26218     26217     26219
     26219     26217     26220     26221     26217     26220     26221     26217     26219
     26221     26217     26218     26223     26227     26228     26224     26223     26226
     26224     26223     26225     26225     26223     26226     26227     26223     26226
     26227     26223     26225     26227     26223     26224     26229     26233     26234
     26230     26229     26232     26230     26229     26231     26231     26229     26232
     26233     26229     26232     26233     26229     26231     26233     26229     26230
     26235     26239     26240     26236     26235     26238     26236     26235     26237
     26237     26235     26238     26239     26235     26238     26239     26235     26237
     26239     26235     26236     26241     26245     26246     26242     26241     26244
     26242     26241     26243     26243     26241     26244     26245     26241     26244
     26245     26241     26243     26245     26241     26242     26247     26251     26252
     26248     26247     26250     26248     26247     26249     26249     26247     26250
     26251     26247     26250     26251     26247     26249     26251     26247     26248
     26253     26257     26258     26254     26253     26256     26254     26253     26255
     26255     26253     26256     26257     26253     26256     26257     26253     26255
     26257     26253     26254     26259     26263     26264     26260     26259     26262
     26260     26259     26261     26261     26259     26262     26263     26259     26262
     26263     26259     26261     26263     26259     26260     26265     26269     26270
     26266     26265     26268     26266     26265     26267     26267     26265     26268
     26269     26265     26268     26269     26265     26267     26269     26265     26266
     26271     26275     26276     26272     26271     26274     26272     26271     26273
     26273     26271     26274     26275     26271     26274     26275     26271     26273
     26275     26271     26272     26277     26281     26282     26278     26277     26280
     26278     26277     26279     26279     26277     26280     26281     26277     26280
     26281     26277     26279     26281     26277     26278     26283     26287     26288
     26284     26283     26286     26284     26283     26285     26285     26283     26286
     26287     26283     26286     26287     26283     26285     26287     26283     26284
     26289     26293     26294     26290     26289     26292     26290     26289     26291
     26291     26289     26292     26293     26289     26292     26293     26289     26291
     26293     26289     26290     26295     26299     26300     26296     26295     26298
     26296     26295     26297     26297     26295     26298     26299     26295     26298
     26299     26295     26297     26299     26295     26296     26301     26305     26306
     26302     26301     26304     26302     26301     26303     26303     26301     26304
     26305     26301     26304     26305     26301     26303     26305     26301     26302
     26307     26311     26312     26308     26307     26310     26308     26307     26309
     26309     26307     26310     26311     26307     26310     26311     26307     26309
     26311     26307     26308     26313     26317     26318     26314     26313     26316
     26314     26313     26315     26315     26313     26316     26317     26313     26316
     26317     26313     26315     26317     26313     26314     26319     26323     26324
     26320     26319     26322     26320     26319     26321     26321     26319     26322
     26323     26319     26322     26323     26319     26321     26323     26319     26320
     26325     26329     26330     26326     26325     26328     26326     26325     26327
     26327     26325     26328     26329     26325     26328     26329     26325     26327
     26329     26325     26326     26331     26335     26336     26332     26331     26334
     26332     26331     26333     26333     26331     26334     26335     26331     26334
     26335     26331     26333     26335     26331     26332     26337     26341     26342
     26338     26337     26340     26338     26337     26339     26339     26337     26340
     26341     26337     26340     26341     26337     26339     26341     26337     26338
     26343     26347     26348     26344     26343     26346     26344     26343     26345
     26345     26343     26346     26347     26343     26346     26347     26343     26345
     26347     26343     26344     26349     26353     26354     26350     26349     26352
     26350     26349     26351     26351     26349     26352     26353     26349     26352
     26353     26349     26351     26353     26349     26350     26355     26359     26360
     26356     26355     26358     26356     26355     26357     26357     26355     26358
     26359     26355     26358     26359     26355     26357     26359     26355     26356
     26361     26365     26366     26362     26361     26364     26362     26361     26363
     26363     26361     26364     26365     26361     26364     26365     26361     26363
     26365     26361     26362     26367     26371     26372     26368     26367     26370
     26368     26367     26369     26369     26367     26370     26371     26367     26370
     26371     26367     26369     26371     26367     26368     26373     26377     26378
     26374     26373     26376     26374     26373     26375     26375     26373     26376
     26377     26373     26376     26377     26373     26375     26377     26373     26374
     26379     26383     26384     26380     26379     26382     26380     26379     26381
     26381     26379     26382     26383     26379     26382     26383     26379     26381
     26383     26379     26380     26385     26389     26390     26386     26385     26388
     26386     26385     26387     26387     26385     26388     26389     26385     26388
     26389     26385     26387     26389     26385     26386     26391     26395     26396
     26392     26391     26394     26392     26391     26393     26393     26391     26394
     26395     26391     26394     26395     26391     26393     26395     26391     26392
     26397     26401     26402     26398     26397     26400     26398     26397     26399
     26399     26397     26400     26401     26397     26400     26401     26397     26399
     26401     26397     26398     26403     26407     26408     26404     26403     26406
     26404     26403     26405     26405     26403     26406     26407     26403     26406
     26407     26403     26405     26407     26403     26404     26409     26413     26414
     26410     26409     26412     26410     26409     26411     26411     26409     26412
     26413     26409     26412     26413     26409     26411     26413     26409     26410
     26415     26419     26420     26416     26415     26418     26416     26415     26417
     26417     26415     26418     26419     26415     26418     26419     26415     26417
     26419     26415     26416     26421     26425     26426     26422     26421     26424
     26422     26421     26423     26423     26421     26424     26425     26421     26424
     26425     26421     26423     26425     26421     26422     26427     26431     26432
     26428     26427     26430     26428     26427     26429     26429     26427     26430
     26431     26427     26430     26431     26427     26429     26431     26427     26428
     26433     26437     26438     26434     26433     26436     26434     26433     26435
     26435     26433     26436     26437     26433     26436     26437     26433     26435
     26437     26433     26434     26439     26443     26444     26440     26439     26442
     26440     26439     26441     26441     26439     26442     26443     26439     26442
     26443     26439     26441     26443     26439     26440     26445     26449     26450
     26446     26445     26448     26446     26445     26447     26447     26445     26448
     26449     26445     26448     26449     26445     26447     26449     26445     26446
     26451     26455     26456     26452     26451     26454     26452     26451     26453
     26453     26451     26454     26455     26451     26454     26455     26451     26453
     26455     26451     26452     26457     26461     26462     26458     26457     26460
     26458     26457     26459     26459     26457     26460     26461     26457     26460
     26461     26457     26459     26461     26457     26458     26463     26467     26468
     26464     26463     26466     26464     26463     26465     26465     26463     26466
     26467     26463     26466     26467     26463     26465     26467     26463     26464
     26469     26473     26474     26470     26469     26472     26470     26469     26471
     26471     26469     26472     26473     26469     26472     26473     26469     26471
     26473     26469     26470     26475     26479     26480     26476     26475     26478
     26476     26475     26477     26477     26475     26478     26479     26475     26478
     26479     26475     26477     26479     26475     26476     26481     26485     26486
     26482     26481     26484     26482     26481     26483     26483     26481     26484
     26485     26481     26484     26485     26481     26483     26485     26481     26482
     26487     26491     26492     26488     26487     26490     26488     26487     26489
     26489     26487     26490     26491     26487     26490     26491     26487     26489
     26491     26487     26488     26493     26497     26498     26494     26493     26496
     26494     26493     26495     26495     26493     26496     26497     26493     26496
     26497     26493     26495     26497     26493     26494     26499     26503     26504
     26500     26499     26502     26500     26499     26501     26501     26499     26502
     26503     26499     26502     26503     26499     26501     26503     26499     26500
     26505     26509     26510     26506     26505     26508     26506     26505     26507
     26507     26505     26508     26509     26505     26508     26509     26505     26507
     26509     26505     26506     26511     26515     26516     26512     26511     26514
     26512     26511     26513     26513     26511     26514     26515     26511     26514
     26515     26511     26513     26515     26511     26512     26517     26521     26522
     26518     26517     26520     26518     26517     26519     26519     26517     26520
     26521     26517     26520     26521     26517     26519     26521     26517     26518
     26523     26527     26528     26524     26523     26526     26524     26523     26525
     26525     26523     26526     26527     26523     26526     26527     26523     26525
     26527     26523     26524     26529     26533     26534     26530     26529     26532
     26530     26529     26531     26531     26529     26532     26533     26529     26532
     26533     26529     26531     26533     26529     26530     26535     26539     26540
     26536     26535     26538     26536     26535     26537     26537     26535     26538
     26539     26535     26538     26539     26535     26537     26539     26535     26536
     26541     26545     26546     26542     26541     26544     26542     26541     26543
     26543     26541     26544     26545     26541     26544     26545     26541     26543
     26545     26541     26542     26547     26551     26552     26548     26547     26550
     26548     26547     26549     26549     26547     26550     26551     26547     26550
     26551     26547     26549     26551     26547     26548     26553     26557     26558
     26554     26553     26556     26554     26553     26555     26555     26553     26556
     26557     26553     26556     26557     26553     26555     26557     26553     26554
     26559     26563     26564     26560     26559     26562     26560     26559     26561
     26561     26559     26562     26563     26559     26562     26563     26559     26561
     26563     26559     26560     26565     26569     26570     26566     26565     26568
     26566     26565     26567     26567     26565     26568     26569     26565     26568
     26569     26565     26567     26569     26565     26566     26571     26575     26576
     26572     26571     26574     26572     26571     26573     26573     26571     26574
     26575     26571     26574     26575     26571     26573     26575     26571     26572
     26577     26581     26582     26578     26577     26580     26578     26577     26579
     26579     26577     26580     26581     26577     26580     26581     26577     26579
     26581     26577     26578     26583     26587     26588     26584     26583     26586
     26584     26583     26585     26585     26583     26586     26587     26583     26586
     26587     26583     26585     26587     26583     26584     26589     26593     26594
     26590     26589     26592     26590     26589     26591     26591     26589     26592
     26593     26589     26592     26593     26589     26591     26593     26589     26590
     26595     26599     26600     26596     26595     26598     26596     26595     26597
     26597     26595     26598     26599     26595     26598     26599     26595     26597
     26599     26595     26596     26601     26605     26606     26602     26601     26604
     26602     26601     26603     26603     26601     26604     26605     26601     26604
     26605     26601     26603     26605     26601     26602     26607     26611     26612
     26608     26607     26610     26608     26607     26609     26609     26607     26610
     26611     26607     26610     26611     26607     26609     26611     26607     26608
     26613     26617     26618     26614     26613     26616     26614     26613     26615
     26615     26613     26616     26617     26613     26616     26617     26613     26615
     26617     26613     26614     26619     26623     26624     26620     26619     26622
     26620     26619     26621     26621     26619     26622     26623     26619     26622
     26623     26619     26621     26623     26619     26620     26625     26629     26630
     26626     26625     26628     26626     26625     26627     26627     26625     26628
     26629     26625     26628     26629     26625     26627     26629     26625     26626
     26631     26635     26636     26632     26631     26634     26632     26631     26633
     26633     26631     26634     26635     26631     26634     26635     26631     26633
     26635     26631     26632     26637     26641     26642     26638     26637     26640
     26638     26637     26639     26639     26637     26640     26641     26637     26640
     26641     26637     26639     26641     26637     26638     26643     26647     26648
     26644     26643     26646     26644     26643     26645     26645     26643     26646
     26647     26643     26646     26647     26643     26645     26647     26643     26644
     26649     26653     26654     26650     26649     26652     26650     26649     26651
     26651     26649     26652     26653     26649     26652     26653     26649     26651
     26653     26649     26650     26655     26659     26660     26656     26655     26658
     26656     26655     26657     26657     26655     26658     26659     26655     26658
     26659     26655     26657     26659     26655     26656     26661     26665     26666
     26662     26661     26664     26662     26661     26663     26663     26661     26664
     26665     26661     26664     26665     26661     26663     26665     26661     26662
     26667     26671     26672     26668     26667     26670     26668     26667     26669
     26669     26667     26670     26671     26667     26670     26671     26667     26669
     26671     26667     26668     26673     26677     26678     26674     26673     26676
     26674     26673     26675     26675     26673     26676     26677     26673     26676
     26677     26673     26675     26677     26673     26674     26679     26683     26684
     26680     26679     26682     26680     26679     26681     26681     26679     26682
     26683     26679     26682     26683     26679     26681     26683     26679     26680
     26685     26689     26690     26686     26685     26688     26686     26685     26687
     26687     26685     26688     26689     26685     26688     26689     26685     26687
     26689     26685     26686     26691     26695     26696     26692     26691     26694
     26692     26691     26693     26693     26691     26694     26695     26691     26694
     26695     26691     26693     26695     26691     26692     26697     26701     26702
     26698     26697     26700     26698     26697     26699     26699     26697     26700
     26701     26697     26700     26701     26697     26699     26701     26697     26698
     26703     26707     26708     26704     26703     26706     26704     26703     26705
     26705     26703     26706     26707     26703     26706     26707     26703     26705
     26707     26703     26704     26709     26713     26714     26710     26709     26712
     26710     26709     26711     26711     26709     26712     26713     26709     26712
     26713     26709     26711     26713     26709     26710     26715     26719     26720
     26716     26715     26718     26716     26715     26717     26717     26715     26718
     26719     26715     26718     26719     26715     26717     26719     26715     26716
     26721     26725     26726     26722     26721     26724     26722     26721     26723
     26723     26721     26724     26725     26721     26724     26725     26721     26723
     26725     26721     26722     26727     26731     26732     26728     26727     26730
     26728     26727     26729     26729     26727     26730     26731     26727     26730
     26731     26727     26729     26731     26727     26728     26733     26737     26738
     26734     26733     26736     26734     26733     26735     26735     26733     26736
     26737     26733     26736     26737     26733     26735     26737     26733     26734
     26739     26743     26744     26740     26739     26742     26740     26739     26741
     26741     26739     26742     26743     26739     26742     26743     26739     26741
     26743     26739     26740     26745     26749     26750     26746     26745     26748
     26746     26745     26747     26747     26745     26748     26749     26745     26748
     26749     26745     26747     26749     26745     26746     26751     26755     26756
     26752     26751     26754     26752     26751     26753     26753     26751     26754
     26755     26751     26754     26755     26751     26753     26755     26751     26752
     26757     26761     26762     26758     26757     26760     26758     26757     26759
     26759     26757     26760     26761     26757     26760     26761     26757     26759
     26761     26757     26758     26763     26767     26768     26764     26763     26766
     26764     26763     26765     26765     26763     26766     26767     26763     26766
     26767     26763     26765     26767     26763     26764     26769     26773     26774
     26770     26769     26772     26770     26769     26771     26771     26769     26772
     26773     26769     26772     26773     26769     26771     26773     26769     26770
     26775     26779     26780     26776     26775     26778     26776     26775     26777
     26777     26775     26778     26779     26775     26778     26779     26775     26777
     26779     26775     26776     26781     26785     26786     26782     26781     26784
     26782     26781     26783     26783     26781     26784     26785     26781     26784
     26785     26781     26783     26785     26781     26782     26787     26791     26792
     26788     26787     26790     26788     26787     26789     26789     26787     26790
     26791     26787     26790     26791     26787     26789     26791     26787     26788
     26793     26797     26798     26794     26793     26796     26794     26793     26795
     26795     26793     26796     26797     26793     26796     26797     26793     26795
     26797     26793     26794     26799     26803     26804     26800     26799     26802
     26800     26799     26801     26801     26799     26802     26803     26799     26802
     26803     26799     26801     26803     26799     26800     26805     26809     26810
     26806     26805     26808     26806     26805     26807     26807     26805     26808
     26809     26805     26808     26809     26805     26807     26809     26805     26806
     26811     26815     26816     26812     26811     26814     26812     26811     26813
     26813     26811     26814     26815     26811     26814     26815     26811     26813
     26815     26811     26812     26817     26821     26822     26818     26817     26820
     26818     26817     26819     26819     26817     26820     26821     26817     26820
     26821     26817     26819     26821     26817     26818     26823     26827     26828
     26824     26823     26826     26824     26823     26825     26825     26823     26826
     26827     26823     26826     26827     26823     26825     26827     26823     26824
     26829     26833     26834     26830     26829     26832     26830     26829     26831
     26831     26829     26832     26833     26829     26832     26833     26829     26831
     26833     26829     26830     26835     26839     26840     26836     26835     26838
     26836     26835     26837     26837     26835     26838     26839     26835     26838
     26839     26835     26837     26839     26835     26836     26841     26845     26846
     26842     26841     26844     26842     26841     26843     26843     26841     26844
     26845     26841     26844     26845     26841     26843     26845     26841     26842
     26847     26851     26852     26848     26847     26850     26848     26847     26849
     26849     26847     26850     26851     26847     26850     26851     26847     26849
     26851     26847     26848     26853     26857     26858     26854     26853     26856
     26854     26853     26855     26855     26853     26856     26857     26853     26856
     26857     26853     26855     26857     26853     26854     26859     26863     26864
     26860     26859     26862     26860     26859     26861     26861     26859     26862
     26863     26859     26862     26863     26859     26861     26863     26859     26860
     26865     26869     26870     26866     26865     26868     26866     26865     26867
     26867     26865     26868     26869     26865     26868     26869     26865     26867
     26869     26865     26866     26871     26875     26876     26872     26871     26874
     26872     26871     26873     26873     26871     26874     26875     26871     26874
     26875     26871     26873     26875     26871     26872     26877     26881     26882
     26878     26877     26880     26878     26877     26879     26879     26877     26880
     26881     26877     26880     26881     26877     26879     26881     26877     26878
     26883     26887     26888     26884     26883     26886     26884     26883     26885
     26885     26883     26886     26887     26883     26886     26887     26883     26885
     26887     26883     26884     26889     26893     26894     26890     26889     26892
     26890     26889     26891     26891     26889     26892     26893     26889     26892
     26893     26889     26891     26893     26889     26890     26895     26899     26900
     26896     26895     26898     26896     26895     26897     26897     26895     26898
     26899     26895     26898     26899     26895     26897     26899     26895     26896
     26901     26905     26906     26902     26901     26904     26902     26901     26903
     26903     26901     26904     26905     26901     26904     26905     26901     26903
     26905     26901     26902     26907     26911     26912     26908     26907     26910
     26908     26907     26909     26909     26907     26910     26911     26907     26910
     26911     26907     26909     26911     26907     26908     26913     26917     26918
     26914     26913     26916     26914     26913     26915     26915     26913     26916
     26917     26913     26916     26917     26913     26915     26917     26913     26914
     26919     26923     26924     26920     26919     26922     26920     26919     26921
     26921     26919     26922     26923     26919     26922     26923     26919     26921
     26923     26919     26920     26925     26929     26930     26926     26925     26928
     26926     26925     26927     26927     26925     26928     26929     26925     26928
     26929     26925     26927     26929     26925     26926     26931     26935     26936
     26932     26931     26934     26932     26931     26933     26933     26931     26934
     26935     26931     26934     26935     26931     26933     26935     26931     26932
     26937     26941     26942     26938     26937     26940     26938     26937     26939
     26939     26937     26940     26941     26937     26940     26941     26937     26939
     26941     26937     26938     26943     26947     26948     26944     26943     26946
     26944     26943     26945     26945     26943     26946     26947     26943     26946
     26947     26943     26945     26947     26943     26944     26949     26953     26954
     26950     26949     26952     26950     26949     26951     26951     26949     26952
     26953     26949     26952     26953     26949     26951     26953     26949     26950
     26955     26959     26960     26956     26955     26958     26956     26955     26957
     26957     26955     26958     26959     26955     26958     26959     26955     26957
     26959     26955     26956     26961     26965     26966     26962     26961     26964
     26962     26961     26963     26963     26961     26964     26965     26961     26964
     26965     26961     26963     26965     26961     26962     26967     26971     26972
     26968     26967     26970     26968     26967     26969     26969     26967     26970
     26971     26967     26970     26971     26967     26969     26971     26967     26968
     26973     26977     26978     26974     26973     26976     26974     26973     26975
     26975     26973     26976     26977     26973     26976     26977     26973     26975
     26977     26973     26974     26979     26983     26984     26980     26979     26982
     26980     26979     26981     26981     26979     26982     26983     26979     26982
     26983     26979     26981     26983     26979     26980     26985     26989     26990
     26986     26985     26988     26986     26985     26987     26987     26985     26988
     26989     26985     26988     26989     26985     26987     26989     26985     26986
     26991     26995     26996     26992     26991     26994     26992     26991     26993
     26993     26991     26994     26995     26991     26994     26995     26991     26993
     26995     26991     26992     26997     27001     27002     26998     26997     27000
     26998     26997     26999     26999     26997     27000     27001     26997     27000
     27001     26997     26999     27001     26997     26998     27003     27007     27008
     27004     27003     27006     27004     27003     27005     27005     27003     27006
     27007     27003     27006     27007     27003     27005     27007     27003     27004
     27009     27013     27014     27010     27009     27012     27010     27009     27011
     27011     27009     27012     27013     27009     27012     27013     27009     27011
     27013     27009     27010     27015     27019     27020     27016     27015     27018
     27016     27015     27017     27017     27015     27018     27019     27015     27018
     27019     27015     27017     27019     27015     27016     27021     27025     27026
     27022     27021     27024     27022     27021     27023     27023     27021     27024
     27025     27021     27024     27025     27021     27023     27025     27021     27022
     27027     27031     27032     27028     27027     27030     27028     27027     27029
     27029     27027     27030     27031     27027     27030     27031     27027     27029
     27031     27027     27028     27033     27037     27038     27034     27033     27036
     27034     27033     27035     27035     27033     27036     27037     27033     27036
     27037     27033     27035     27037     27033     27034     27039     27043     27044
     27040     27039     27042     27040     27039     27041     27041     27039     27042
     27043     27039     27042     27043     27039     27041     27043     27039     27040
     27045     27049     27050     27046     27045     27048     27046     27045     27047
     27047     27045     27048     27049     27045     27048     27049     27045     27047
     27049     27045     27046     27051     27055     27056     27052     27051     27054
     27052     27051     27053     27053     27051     27054     27055     27051     27054
     27055     27051     27053     27055     27051     27052     27057     27061     27062
     27058     27057     27060     27058     27057     27059     27059     27057     27060
     27061     27057     27060     27061     27057     27059     27061     27057     27058
     27063     27067     27068     27064     27063     27066     27064     27063     27065
     27065     27063     27066     27067     27063     27066     27067     27063     27065
     27067     27063     27064     27069     27073     27074     27070     27069     27072
     27070     27069     27071     27071     27069     27072     27073     27069     27072
     27073     27069     27071     27073     27069     27070     27075     27079     27080
     27076     27075     27078     27076     27075     27077     27077     27075     27078
     27079     27075     27078     27079     27075     27077     27079     27075     27076
     27081     27085     27086     27082     27081     27084     27082     27081     27083
     27083     27081     27084     27085     27081     27084     27085     27081     27083
     27085     27081     27082     27087     27091     27092     27088     27087     27090
     27088     27087     27089     27089     27087     27090     27091     27087     27090
     27091     27087     27089     27091     27087     27088     27093     27097     27098
     27094     27093     27096     27094     27093     27095     27095     27093     27096
     27097     27093     27096     27097     27093     27095     27097     27093     27094
     27099     27103     27104     27100     27099     27102     27100     27099     27101
     27101     27099     27102     27103     27099     27102     27103     27099     27101
     27103     27099     27100     27105     27109     27110     27106     27105     27108
     27106     27105     27107     27107     27105     27108     27109     27105     27108
     27109     27105     27107     27109     27105     27106     27111     27115     27116
     27112     27111     27114     27112     27111     27113     27113     27111     27114
     27115     27111     27114     27115     27111     27113     27115     27111     27112
     27117     27121     27122     27118     27117     27120     27118     27117     27119
     27119     27117     27120     27121     27117     27120     27121     27117     27119
     27121     27117     27118     27123     27127     27128     27124     27123     27126
     27124     27123     27125     27125     27123     27126     27127     27123     27126
     27127     27123     27125     27127     27123     27124     27129     27133     27134
     27130     27129     27132     27130     27129     27131     27131     27129     27132
     27133     27129     27132     27133     27129     27131     27133     27129     27130
     27135     27139     27140     27136     27135     27138     27136     27135     27137
     27137     27135     27138     27139     27135     27138     27139     27135     27137
     27139     27135     27136     27141     27145     27146     27142     27141     27144
     27142     27141     27143     27143     27141     27144     27145     27141     27144
     27145     27141     27143     27145     27141     27142     27147     27151     27152
     27148     27147     27150     27148     27147     27149     27149     27147     27150
     27151     27147     27150     27151     27147     27149     27151     27147     27148
     27153     27157     27158     27154     27153     27156     27154     27153     27155
     27155     27153     27156     27157     27153     27156     27157     27153     27155
     27157     27153     27154     27159     27163     27164     27160     27159     27162
     27160     27159     27161     27161     27159     27162     27163     27159     27162
     27163     27159     27161     27163     27159     27160     27165     27169     27170
     27166     27165     27168     27166     27165     27167     27167     27165     27168
     27169     27165     27168     27169     27165     27167     27169     27165     27166
     27171     27175     27176     27172     27171     27174     27172     27171     27173
     27173     27171     27174     27175     27171     27174     27175     27171     27173
     27175     27171     27172     27177     27181     27182     27178     27177     27180
     27178     27177     27179     27179     27177     27180     27181     27177     27180
     27181     27177     27179     27181     27177     27178     27183     27187     27188
     27184     27183     27186     27184     27183     27185     27185     27183     27186
     27187     27183     27186     27187     27183     27185     27187     27183     27184
     27189     27193     27194     27190     27189     27192     27190     27189     27191
     27191     27189     27192     27193     27189     27192     27193     27189     27191
     27193     27189     27190     27195     27199     27200     27196     27195     27198
     27196     27195     27197     27197     27195     27198     27199     27195     27198
     27199     27195     27197     27199     27195     27196     27201     27205     27206
     27202     27201     27204     27202     27201     27203     27203     27201     27204
     27205     27201     27204     27205     27201     27203     27205     27201     27202
     27207     27211     27212     27208     27207     27210     27208     27207     27209
     27209     27207     27210     27211     27207     27210     27211     27207     27209
     27211     27207     27208     27213     27217     27218     27214     27213     27216
     27214     27213     27215     27215     27213     27216     27217     27213     27216
     27217     27213     27215     27217     27213     27214     27219     27223     27224
     27220     27219     27222     27220     27219     27221     27221     27219     27222
     27223     27219     27222     27223     27219     27221     27223     27219     27220
     27225     27229     27230     27226     27225     27228     27226     27225     27227
     27227     27225     27228     27229     27225     27228     27229     27225     27227
     27229     27225     27226     27231     27235     27236     27232     27231     27234
     27232     27231     27233     27233     27231     27234     27235     27231     27234
     27235     27231     27233     27235     27231     27232     27237     27241     27242
     27238     27237     27240     27238     27237     27239     27239     27237     27240
     27241     27237     27240     27241     27237     27239     27241     27237     27238
     27243     27247     27248     27244     27243     27246     27244     27243     27245
     27245     27243     27246     27247     27243     27246     27247     27243     27245
     27247     27243     27244     27249     27253     27254     27250     27249     27252
     27250     27249     27251     27251     27249     27252     27253     27249     27252
     27253     27249     27251     27253     27249     27250     27255     27259     27260
     27256     27255     27258     27256     27255     27257     27257     27255     27258
     27259     27255     27258     27259     27255     27257     27259     27255     27256
     27261     27265     27266     27262     27261     27264     27262     27261     27263
     27263     27261     27264     27265     27261     27264     27265     27261     27263
     27265     27261     27262     27267     27271     27272     27268     27267     27270
     27268     27267     27269     27269     27267     27270     27271     27267     27270
     27271     27267     27269     27271     27267     27268     27273     27277     27278
     27274     27273     27276     27274     27273     27275     27275     27273     27276
     27277     27273     27276     27277     27273     27275     27277     27273     27274
     27279     27283     27284     27280     27279     27282     27280     27279     27281
     27281     27279     27282     27283     27279     27282     27283     27279     27281
     27283     27279     27280     27285     27289     27290     27286     27285     27288
     27286     27285     27287     27287     27285     27288     27289     27285     27288
     27289     27285     27287     27289     27285     27286     27291     27295     27296
     27292     27291     27294     27292     27291     27293     27293     27291     27294
     27295     27291     27294     27295     27291     27293     27295     27291     27292
     27297     27301     27302     27298     27297     27300     27298     27297     27299
     27299     27297     27300     27301     27297     27300     27301     27297     27299
     27301     27297     27298     27303     27307     27308     27304     27303     27306
     27304     27303     27305     27305     27303     27306     27307     27303     27306
     27307     27303     27305     27307     27303     27304     27309     27313     27314
     27310     27309     27312     27310     27309     27311     27311     27309     27312
     27313     27309     27312     27313     27309     27311     27313     27309     27310
     27315     27319     27320     27316     27315     27318     27316     27315     27317
     27317     27315     27318     27319     27315     27318     27319     27315     27317
     27319     27315     27316     27321     27325     27326     27322     27321     27324
     27322     27321     27323     27323     27321     27324     27325     27321     27324
     27325     27321     27323     27325     27321     27322     27327     27331     27332
     27328     27327     27330     27328     27327     27329     27329     27327     27330
     27331     27327     27330     27331     27327     27329     27331     27327     27328
     27333     27337     27338     27334     27333     27336     27334     27333     27335
     27335     27333     27336     27337     27333     27336     27337     27333     27335
     27337     27333     27334     27339     27343     27344     27340     27339     27342
     27340     27339     27341     27341     27339     27342     27343     27339     27342
     27343     27339     27341     27343     27339     27340     27345     27349     27350
     27346     27345     27348     27346     27345     27347     27347     27345     27348
     27349     27345     27348     27349     27345     27347     27349     27345     27346
     27351     27355     27356     27352     27351     27354     27352     27351     27353
     27353     27351     27354     27355     27351     27354     27355     27351     27353
     27355     27351     27352     27357     27361     27362     27358     27357     27360
     27358     27357     27359     27359     27357     27360     27361     27357     27360
     27361     27357     27359     27361     27357     27358     27363     27367     27368
     27364     27363     27366     27364     27363     27365     27365     27363     27366
     27367     27363     27366     27367     27363     27365     27367     27363     27364
     27369     27373     27374     27370     27369     27372     27370     27369     27371
     27371     27369     27372     27373     27369     27372     27373     27369     27371
     27373     27369     27370     27375     27379     27380     27376     27375     27378
     27376     27375     27377     27377     27375     27378     27379     27375     27378
     27379     27375     27377     27379     27375     27376     27381     27385     27386
     27382     27381     27384     27382     27381     27383     27383     27381     27384
     27385     27381     27384     27385     27381     27383     27385     27381     27382
     27387     27391     27392     27388     27387     27390     27388     27387     27389
     27389     27387     27390     27391     27387     27390     27391     27387     27389
     27391     27387     27388     27393     27397     27398     27394     27393     27396
     27394     27393     27395     27395     27393     27396     27397     27393     27396
     27397     27393     27395     27397     27393     27394     27399     27403     27404
     27400     27399     27402     27400     27399     27401     27401     27399     27402
     27403     27399     27402     27403     27399     27401     27403     27399     27400
     27405     27409     27410     27406     27405     27408     27406     27405     27407
     27407     27405     27408     27409     27405     27408     27409     27405     27407
     27409     27405     27406     27411     27415     27416     27412     27411     27414
     27412     27411     27413     27413     27411     27414     27415     27411     27414
     27415     27411     27413     27415     27411     27412     27417     27421     27422
     27418     27417     27420     27418     27417     27419     27419     27417     27420
     27421     27417     27420     27421     27417     27419     27421     27417     27418
     27423     27427     27428     27424     27423     27426     27424     27423     27425
     27425     27423     27426     27427     27423     27426     27427     27423     27425
     27427     27423     27424     27429     27433     27434     27430     27429     27432
     27430     27429     27431     27431     27429     27432     27433     27429     27432
     27433     27429     27431     27433     27429     27430     27435     27439     27440
     27436     27435     27438     27436     27435     27437     27437     27435     27438
     27439     27435     27438     27439     27435     27437     27439     27435     27436
     27441     27445     27446     27442     27441     27444     27442     27441     27443
     27443     27441     27444     27445     27441     27444     27445     27441     27443
     27445     27441     27442     27447     27451     27452     27448     27447     27450
     27448     27447     27449     27449     27447     27450     27451     27447     27450
     27451     27447     27449     27451     27447     27448     27453     27457     27458
     27454     27453     27456     27454     27453     27455     27455     27453     27456
     27457     27453     27456     27457     27453     27455     27457     27453     27454
     27459     27463     27464     27460     27459     27462     27460     27459     27461
     27461     27459     27462     27463     27459     27462     27463     27459     27461
     27463     27459     27460     27465     27469     27470     27466     27465     27468
     27466     27465     27467     27467     27465     27468     27469     27465     27468
     27469     27465     27467     27469     27465     27466     27471     27475     27476
     27472     27471     27474     27472     27471     27473     27473     27471     27474
     27475     27471     27474     27475     27471     27473     27475     27471     27472
     27477     27481     27482     27478     27477     27480     27478     27477     27479
     27479     27477     27480     27481     27477     27480     27481     27477     27479
     27481     27477     27478     27483     27487     27488     27484     27483     27486
     27484     27483     27485     27485     27483     27486     27487     27483     27486
     27487     27483     27485     27487     27483     27484     27489     27493     27494
     27490     27489     27492     27490     27489     27491     27491     27489     27492
     27493     27489     27492     27493     27489     27491     27493     27489     27490
     27495     27499     27500     27496     27495     27498     27496     27495     27497
     27497     27495     27498     27499     27495     27498     27499     27495     27497
     27499     27495     27496     27501     27505     27506     27502     27501     27504
     27502     27501     27503     27503     27501     27504     27505     27501     27504
     27505     27501     27503     27505     27501     27502     27507     27511     27512
     27508     27507     27510     27508     27507     27509     27509     27507     27510
     27511     27507     27510     27511     27507     27509     27511     27507     27508
     27513     27517     27518     27514     27513     27516     27514     27513     27515
     27515     27513     27516     27517     27513     27516     27517     27513     27515
     27517     27513     27514     27519     27523     27524     27520     27519     27522
     27520     27519     27521     27521     27519     27522     27523     27519     27522
     27523     27519     27521     27523     27519     27520     27525     27529     27530
     27526     27525     27528     27526     27525     27527     27527     27525     27528
     27529     27525     27528     27529     27525     27527     27529     27525     27526
     27531     27535     27536     27532     27531     27534     27532     27531     27533
     27533     27531     27534     27535     27531     27534     27535     27531     27533
     27535     27531     27532     27537     27541     27542     27538     27537     27540
     27538     27537     27539     27539     27537     27540     27541     27537     27540
     27541     27537     27539     27541     27537     27538     27543     27547     27548
     27544     27543     27546     27544     27543     27545     27545     27543     27546
     27547     27543     27546     27547     27543     27545     27547     27543     27544
     27549     27553     27554     27550     27549     27552     27550     27549     27551
     27551     27549     27552     27553     27549     27552     27553     27549     27551
     27553     27549     27550     27555     27559     27560     27556     27555     27558
     27556     27555     27557     27557     27555     27558     27559     27555     27558
     27559     27555     27557     27559     27555     27556     27561     27565     27566
     27562     27561     27564     27562     27561     27563     27563     27561     27564
     27565     27561     27564     27565     27561     27563     27565     27561     27562
     27567     27571     27572     27568     27567     27570     27568     27567     27569
     27569     27567     27570     27571     27567     27570     27571     27567     27569
     27571     27567     27568     27573     27577     27578     27574     27573     27576
     27574     27573     27575     27575     27573     27576     27577     27573     27576
     27577     27573     27575     27577     27573     27574     27579     27583     27584
     27580     27579     27582     27580     27579     27581     27581     27579     27582
     27583     27579     27582     27583     27579     27581     27583     27579     27580
     27585     27589     27590     27586     27585     27588     27586     27585     27587
     27587     27585     27588     27589     27585     27588     27589     27585     27587
     27589     27585     27586     27591     27595     27596     27592     27591     27594
     27592     27591     27593     27593     27591     27594     27595     27591     27594
     27595     27591     27593     27595     27591     27592     27597     27601     27602
     27598     27597     27600     27598     27597     27599     27599     27597     27600
     27601     27597     27600     27601     27597     27599     27601     27597     27598
     27603     27607     27608     27604     27603     27606     27604     27603     27605
     27605     27603     27606     27607     27603     27606     27607     27603     27605
     27607     27603     27604     27609     27613     27614     27610     27609     27612
     27610     27609     27611     27611     27609     27612     27613     27609     27612
     27613     27609     27611     27613     27609     27610     27615     27619     27620
     27616     27615     27618     27616     27615     27617     27617     27615     27618
     27619     27615     27618     27619     27615     27617     27619     27615     27616
     27621     27625     27626     27622     27621     27624     27622     27621     27623
     27623     27621     27624     27625     27621     27624     27625     27621     27623
     27625     27621     27622     27627     27631     27632     27628     27627     27630
     27628     27627     27629     27629     27627     27630     27631     27627     27630
     27631     27627     27629     27631     27627     27628     27633     27637     27638
     27634     27633     27636     27634     27633     27635     27635     27633     27636
     27637     27633     27636     27637     27633     27635     27637     27633     27634
     27639     27643     27644     27640     27639     27642     27640     27639     27641
     27641     27639     27642     27643     27639     27642     27643     27639     27641
     27643     27639     27640     27645     27649     27650     27646     27645     27648
     27646     27645     27647     27647     27645     27648     27649     27645     27648
     27649     27645     27647     27649     27645     27646     27651     27655     27656
     27652     27651     27654     27652     27651     27653     27653     27651     27654
     27655     27651     27654     27655     27651     27653     27655     27651     27652
     27657     27661     27662     27658     27657     27660     27658     27657     27659
     27659     27657     27660     27661     27657     27660     27661     27657     27659
     27661     27657     27658     27663     27667     27668     27664     27663     27666
     27664     27663     27665     27665     27663     27666     27667     27663     27666
     27667     27663     27665     27667     27663     27664     27669     27673     27674
     27670     27669     27672     27670     27669     27671     27671     27669     27672
     27673     27669     27672     27673     27669     27671     27673     27669     27670
     27675     27679     27680     27676     27675     27678     27676     27675     27677
     27677     27675     27678     27679     27675     27678     27679     27675     27677
     27679     27675     27676     27681     27685     27686     27682     27681     27684
     27682     27681     27683     27683     27681     27684     27685     27681     27684
     27685     27681     27683     27685     27681     27682     27687     27691     27692
     27688     27687     27690     27688     27687     27689     27689     27687     27690
     27691     27687     27690     27691     27687     27689     27691     27687     27688
     27693     27697     27698     27694     27693     27696     27694     27693     27695
     27695     27693     27696     27697     27693     27696     27697     27693     27695
     27697     27693     27694     27699     27703     27704     27700     27699     27702
     27700     27699     27701     27701     27699     27702     27703     27699     27702
     27703     27699     27701     27703     27699     27700     27705     27709     27710
     27706     27705     27708     27706     27705     27707     27707     27705     27708
     27709     27705     27708     27709     27705     27707     27709     27705     27706
     27711     27715     27716     27712     27711     27714     27712     27711     27713
     27713     27711     27714     27715     27711     27714     27715     27711     27713
     27715     27711     27712     27717     27721     27722     27718     27717     27720
     27718     27717     27719     27719     27717     27720     27721     27717     27720
     27721     27717     27719     27721     27717     27718     27723     27727     27728
     27724     27723     27726     27724     27723     27725     27725     27723     27726
     27727     27723     27726     27727     27723     27725     27727     27723     27724
     27729     27733     27734     27730     27729     27732     27730     27729     27731
     27731     27729     27732     27733     27729     27732     27733     27729     27731
     27733     27729     27730     27735     27739     27740     27736     27735     27738
     27736     27735     27737     27737     27735     27738     27739     27735     27738
     27739     27735     27737     27739     27735     27736     27741     27745     27746
     27742     27741     27744     27742     27741     27743     27743     27741     27744
     27745     27741     27744     27745     27741     27743     27745     27741     27742
     27747     27751     27752     27748     27747     27750     27748     27747     27749
     27749     27747     27750     27751     27747     27750     27751     27747     27749
     27751     27747     27748     27753     27757     27758     27754     27753     27756
     27754     27753     27755     27755     27753     27756     27757     27753     27756
     27757     27753     27755     27757     27753     27754     27759     27763     27764
     27760     27759     27762     27760     27759     27761     27761     27759     27762
     27763     27759     27762     27763     27759     27761     27763     27759     27760
     27765     27769     27770     27766     27765     27768     27766     27765     27767
     27767     27765     27768     27769     27765     27768     27769     27765     27767
     27769     27765     27766     27771     27775     27776     27772     27771     27774
     27772     27771     27773     27773     27771     27774     27775     27771     27774
     27775     27771     27773     27775     27771     27772     27777     27781     27782
     27778     27777     27780     27778     27777     27779     27779     27777     27780
     27781     27777     27780     27781     27777     27779     27781     27777     27778
     27783     27787     27788     27784     27783     27786     27784     27783     27785
     27785     27783     27786     27787     27783     27786     27787     27783     27785
     27787     27783     27784     27789     27793     27794     27790     27789     27792
     27790     27789     27791     27791     27789     27792     27793     27789     27792
     27793     27789     27791     27793     27789     27790     27795     27799     27800
     27796     27795     27798     27796     27795     27797     27797     27795     27798
     27799     27795     27798     27799     27795     27797     27799     27795     27796
     27801     27805     27806     27802     27801     27804     27802     27801     27803
     27803     27801     27804     27805     27801     27804     27805     27801     27803
     27805     27801     27802     27807     27811     27812     27808     27807     27810
     27808     27807     27809     27809     27807     27810     27811     27807     27810
     27811     27807     27809     27811     27807     27808     27813     27817     27818
     27814     27813     27816     27814     27813     27815     27815     27813     27816
     27817     27813     27816     27817     27813     27815     27817     27813     27814
     27819     27823     27824     27820     27819     27822     27820     27819     27821
     27821     27819     27822     27823     27819     27822     27823     27819     27821
     27823     27819     27820     27825     27829     27830     27826     27825     27828
     27826     27825     27827     27827     27825     27828     27829     27825     27828
     27829     27825     27827     27829     27825     27826     27831     27835     27836
     27832     27831     27834     27832     27831     27833     27833     27831     27834
     27835     27831     27834     27835     27831     27833     27835     27831     27832
     27837     27841     27842     27838     27837     27840     27838     27837     27839
     27839     27837     27840     27841     27837     27840     27841     27837     27839
     27841     27837     27838     27843     27847     27848     27844     27843     27846
     27844     27843     27845     27845     27843     27846     27847     27843     27846
     27847     27843     27845     27847     27843     27844     27849     27853     27854
     27850     27849     27852     27850     27849     27851     27851     27849     27852
     27853     27849     27852     27853     27849     27851     27853     27849     27850
     27855     27859     27860     27856     27855     27858     27856     27855     27857
     27857     27855     27858     27859     27855     27858     27859     27855     27857
     27859     27855     27856     27861     27865     27866     27862     27861     27864
     27862     27861     27863     27863     27861     27864     27865     27861     27864
     27865     27861     27863     27865     27861     27862     27867     27871     27872
     27868     27867     27870     27868     27867     27869     27869     27867     27870
     27871     27867     27870     27871     27867     27869     27871     27867     27868
     27873     27877     27878     27874     27873     27876     27874     27873     27875
     27875     27873     27876     27877     27873     27876     27877     27873     27875
     27877     27873     27874     27879     27883     27884     27880     27879     27882
     27880     27879     27881     27881     27879     27882     27883     27879     27882
     27883     27879     27881     27883     27879     27880     27885     27889     27890
     27886     27885     27888     27886     27885     27887     27887     27885     27888
     27889     27885     27888     27889     27885     27887     27889     27885     27886
     27891     27895     27896     27892     27891     27894     27892     27891     27893
     27893     27891     27894     27895     27891     27894     27895     27891     27893
     27895     27891     27892     27897     27901     27902     27898     27897     27900
     27898     27897     27899     27899     27897     27900     27901     27897     27900
     27901     27897     27899     27901     27897     27898     27903     27907     27908
     27904     27903     27906     27904     27903     27905     27905     27903     27906
     27907     27903     27906     27907     27903     27905     27907     27903     27904
     27909     27913     27914     27910     27909     27912     27910     27909     27911
     27911     27909     27912     27913     27909     27912     27913     27909     27911
     27913     27909     27910     27915     27919     27920     27916     27915     27918
     27916     27915     27917     27917     27915     27918     27919     27915     27918
     27919     27915     27917     27919     27915     27916     27921     27925     27926
     27922     27921     27924     27922     27921     27923     27923     27921     27924
     27925     27921     27924     27925     27921     27923     27925     27921     27922
     27927     27931     27932     27928     27927     27930     27928     27927     27929
     27929     27927     27930     27931     27927     27930     27931     27927     27929
     27931     27927     27928     27933     27937     27938     27934     27933     27936
     27934     27933     27935     27935     27933     27936     27937     27933     27936
     27937     27933     27935     27937     27933     27934     27939     27943     27944
     27940     27939     27942     27940     27939     27941     27941     27939     27942
     27943     27939     27942     27943     27939     27941     27943     27939     27940
     27945     27949     27950     27946     27945     27948     27946     27945     27947
     27947     27945     27948     27949     27945     27948     27949     27945     27947
     27949     27945     27946     27951     27955     27956     27952     27951     27954
     27952     27951     27953     27953     27951     27954     27955     27951     27954
     27955     27951     27953     27955     27951     27952     27957     27961     27962
     27958     27957     27960     27958     27957     27959     27959     27957     27960
     27961     27957     27960     27961     27957     27959     27961     27957     27958
     27963     27967     27968     27964     27963     27966     27964     27963     27965
     27965     27963     27966     27967     27963     27966     27967     27963     27965
     27967     27963     27964     27969     27973     27974     27970     27969     27972
     27970     27969     27971     27971     27969     27972     27973     27969     27972
     27973     27969     27971     27973     27969     27970     27975     27979     27980
     27976     27975     27978     27976     27975     27977     27977     27975     27978
     27979     27975     27978     27979     27975     27977     27979     27975     27976
     27981     27985     27986     27982     27981     27984     27982     27981     27983
     27983     27981     27984     27985     27981     27984     27985     27981     27983
     27985     27981     27982     27987     27991     27992     27988     27987     27990
     27988     27987     27989     27989     27987     27990     27991     27987     27990
     27991     27987     27989     27991     27987     27988     27993     27997     27998
     27994     27993     27996     27994     27993     27995     27995     27993     27996
     27997     27993     27996     27997     27993     27995     27997     27993     27994
     27999     28003     28004     28000     27999     28002     28000     27999     28001
     28001     27999     28002     28003     27999     28002     28003     27999     28001
     28003     27999     28000     28005     28009     28010     28006     28005     28008
     28006     28005     28007     28007     28005     28008     28009     28005     28008
     28009     28005     28007     28009     28005     28006     28011     28015     28016
     28012     28011     28014     28012     28011     28013     28013     28011     28014
     28015     28011     28014     28015     28011     28013     28015     28011     28012
     28017     28021     28022     28018     28017     28020     28018     28017     28019
     28019     28017     28020     28021     28017     28020     28021     28017     28019
     28021     28017     28018     28023     28027     28028     28024     28023     28026
     28024     28023     28025     28025     28023     28026     28027     28023     28026
     28027     28023     28025     28027     28023     28024     28029     28033     28034
     28030     28029     28032     28030     28029     28031     28031     28029     28032
     28033     28029     28032     28033     28029     28031     28033     28029     28030
     28035     28039     28040     28036     28035     28038     28036     28035     28037
     28037     28035     28038     28039     28035     28038     28039     28035     28037
     28039     28035     28036     28041     28045     28046     28042     28041     28044
     28042     28041     28043     28043     28041     28044     28045     28041     28044
     28045     28041     28043     28045     28041     28042     28047     28051     28052
     28048     28047     28050     28048     28047     28049     28049     28047     28050
     28051     28047     28050     28051     28047     28049     28051     28047     28048
     28053     28057     28058     28054     28053     28056     28054     28053     28055
     28055     28053     28056     28057     28053     28056     28057     28053     28055
     28057     28053     28054     28059     28063     28064     28060     28059     28062
     28060     28059     28061     28061     28059     28062     28063     28059     28062
     28063     28059     28061     28063     28059     28060     28065     28069     28070
     28066     28065     28068     28066     28065     28067     28067     28065     28068
     28069     28065     28068     28069     28065     28067     28069     28065     28066
     28071     28075     28076     28072     28071     28074     28072     28071     28073
     28073     28071     28074     28075     28071     28074     28075     28071     28073
     28075     28071     28072     28077     28081     28082     28078     28077     28080
     28078     28077     28079     28079     28077     28080     28081     28077     28080
     28081     28077     28079     28081     28077     28078     28083     28087     28088
     28084     28083     28086     28084     28083     28085     28085     28083     28086
     28087     28083     28086     28087     28083     28085     28087     28083     28084
     28089     28093     28094     28090     28089     28092     28090     28089     28091
     28091     28089     28092     28093     28089     28092     28093     28089     28091
     28093     28089     28090     28095     28099     28100     28096     28095     28098
     28096     28095     28097     28097     28095     28098     28099     28095     28098
     28099     28095     28097     28099     28095     28096     28101     28105     28106
     28102     28101     28104     28102     28101     28103     28103     28101     28104
     28105     28101     28104     28105     28101     28103     28105     28101     28102
     28107     28111     28112     28108     28107     28110     28108     28107     28109
     28109     28107     28110     28111     28107     28110     28111     28107     28109
     28111     28107     28108     28113     28117     28118     28114     28113     28116
     28114     28113     28115     28115     28113     28116     28117     28113     28116
     28117     28113     28115     28117     28113     28114     28119     28123     28124
     28120     28119     28122     28120     28119     28121     28121     28119     28122
     28123     28119     28122     28123     28119     28121     28123     28119     28120
     28125     28129     28130     28126     28125     28128     28126     28125     28127
     28127     28125     28128     28129     28125     28128     28129     28125     28127
     28129     28125     28126     28131     28135     28136     28132     28131     28134
     28132     28131     28133     28133     28131     28134     28135     28131     28134
     28135     28131     28133     28135     28131     28132     28137     28141     28142
     28138     28137     28140     28138     28137     28139     28139     28137     28140
     28141     28137     28140     28141     28137     28139     28141     28137     28138
     28143     28147     28148     28144     28143     28146     28144     28143     28145
     28145     28143     28146     28147     28143     28146     28147     28143     28145
     28147     28143     28144     28149     28153     28154     28150     28149     28152
     28150     28149     28151     28151     28149     28152     28153     28149     28152
     28153     28149     28151     28153     28149     28150     28155     28159     28160
     28156     28155     28158     28156     28155     28157     28157     28155     28158
     28159     28155     28158     28159     28155     28157     28159     28155     28156
     28161     28165     28166     28162     28161     28164     28162     28161     28163
     28163     28161     28164     28165     28161     28164     28165     28161     28163
     28165     28161     28162     28167     28171     28172     28168     28167     28170
     28168     28167     28169     28169     28167     28170     28171     28167     28170
     28171     28167     28169     28171     28167     28168     28173     28177     28178
     28174     28173     28176     28174     28173     28175     28175     28173     28176
     28177     28173     28176     28177     28173     28175     28177     28173     28174
     28179     28183     28184     28180     28179     28182     28180     28179     28181
     28181     28179     28182     28183     28179     28182     28183     28179     28181
     28183     28179     28180     28185     28189     28190     28186     28185     28188
     28186     28185     28187     28187     28185     28188     28189     28185     28188
     28189     28185     28187     28189     28185     28186     28191     28195     28196
     28192     28191     28194     28192     28191     28193     28193     28191     28194
     28195     28191     28194     28195     28191     28193     28195     28191     28192
     28197     28201     28202     28198     28197     28200     28198     28197     28199
     28199     28197     28200     28201     28197     28200     28201     28197     28199
     28201     28197     28198     28203     28207     28208     28204     28203     28206
     28204     28203     28205     28205     28203     28206     28207     28203     28206
     28207     28203     28205     28207     28203     28204     28209     28213     28214
     28210     28209     28212     28210     28209     28211     28211     28209     28212
     28213     28209     28212     28213     28209     28211     28213     28209     28210
     28215     28219     28220     28216     28215     28218     28216     28215     28217
     28217     28215     28218     28219     28215     28218     28219     28215     28217
     28219     28215     28216     28221     28225     28226     28222     28221     28224
     28222     28221     28223     28223     28221     28224     28225     28221     28224
     28225     28221     28223     28225     28221     28222     28227     28231     28232
     28228     28227     28230     28228     28227     28229     28229     28227     28230
     28231     28227     28230     28231     28227     28229     28231     28227     28228
     28233     28237     28238     28234     28233     28236     28234     28233     28235
     28235     28233     28236     28237     28233     28236     28237     28233     28235
     28237     28233     28234     28239     28243     28244     28240     28239     28242
     28240     28239     28241     28241     28239     28242     28243     28239     28242
     28243     28239     28241     28243     28239     28240     28245     28249     28250
     28246     28245     28248     28246     28245     28247     28247     28245     28248
     28249     28245     28248     28249     28245     28247     28249     28245     28246
     28251     28255     28256     28252     28251     28254     28252     28251     28253
     28253     28251     28254     28255     28251     28254     28255     28251     28253
     28255     28251     28252     28257     28261     28262     28258     28257     28260
     28258     28257     28259     28259     28257     28260     28261     28257     28260
     28261     28257     28259     28261     28257     28258     28263     28267     28268
     28264     28263     28266     28264     28263     28265     28265     28263     28266
     28267     28263     28266     28267     28263     28265     28267     28263     28264
     28269     28273     28274     28270     28269     28272     28270     28269     28271
     28271     28269     28272     28273     28269     28272     28273     28269     28271
     28273     28269     28270     28275     28279     28280     28276     28275     28278
     28276     28275     28277     28277     28275     28278     28279     28275     28278
     28279     28275     28277     28279     28275     28276     28281     28285     28286
     28282     28281     28284     28282     28281     28283     28283     28281     28284
     28285     28281     28284     28285     28281     28283     28285     28281     28282
     28287     28291     28292     28288     28287     28290     28288     28287     28289
     28289     28287     28290     28291     28287     28290     28291     28287     28289
     28291     28287     28288     28293     28297     28298     28294     28293     28296
     28294     28293     28295     28295     28293     28296     28297     28293     28296
     28297     28293     28295     28297     28293     28294     28299     28303     28304
     28300     28299     28302     28300     28299     28301     28301     28299     28302
     28303     28299     28302     28303     28299     28301     28303     28299     28300
     28305     28309     28310     28306     28305     28308     28306     28305     28307
     28307     28305     28308     28309     28305     28308     28309     28305     28307
     28309     28305     28306     28311     28315     28316     28312     28311     28314
     28312     28311     28313     28313     28311     28314     28315     28311     28314
     28315     28311     28313     28315     28311     28312     28317     28321     28322
     28318     28317     28320     28318     28317     28319     28319     28317     28320
     28321     28317     28320     28321     28317     28319     28321     28317     28318
     28323     28327     28328     28324     28323     28326     28324     28323     28325
     28325     28323     28326     28327     28323     28326     28327     28323     28325
     28327     28323     28324     28329     28333     28334     28330     28329     28332
     28330     28329     28331     28331     28329     28332     28333     28329     28332
     28333     28329     28331     28333     28329     28330     28335     28339     28340
     28336     28335     28338     28336     28335     28337     28337     28335     28338
     28339     28335     28338     28339     28335     28337     28339     28335     28336
     28341     28345     28346     28342     28341     28344     28342     28341     28343
     28343     28341     28344     28345     28341     28344     28345     28341     28343
     28345     28341     28342     28347     28351     28352     28348     28347     28350
     28348     28347     28349     28349     28347     28350     28351     28347     28350
     28351     28347     28349     28351     28347     28348     28353     28357     28358
     28354     28353     28356     28354     28353     28355     28355     28353     28356
     28357     28353     28356     28357     28353     28355     28357     28353     28354
     28359     28363     28364     28360     28359     28362     28360     28359     28361
     28361     28359     28362     28363     28359     28362     28363     28359     28361
     28363     28359     28360     28365     28369     28370     28366     28365     28368
     28366     28365     28367     28367     28365     28368     28369     28365     28368
     28369     28365     28367     28369     28365     28366     28371     28375     28376
     28372     28371     28374     28372     28371     28373     28373     28371     28374
     28375     28371     28374     28375     28371     28373     28375     28371     28372
     28377     28381     28382     28378     28377     28380     28378     28377     28379
     28379     28377     28380     28381     28377     28380     28381     28377     28379
     28381     28377     28378     28383     28387     28388     28384     28383     28386
     28384     28383     28385     28385     28383     28386     28387     28383     28386
     28387     28383     28385     28387     28383     28384     28389     28393     28394
     28390     28389     28392     28390     28389     28391     28391     28389     28392
     28393     28389     28392     28393     28389     28391     28393     28389     28390
     28395     28399     28400     28396     28395     28398     28396     28395     28397
     28397     28395     28398     28399     28395     28398     28399     28395     28397
     28399     28395     28396     28401     28405     28406     28402     28401     28404
     28402     28401     28403     28403     28401     28404     28405     28401     28404
     28405     28401     28403     28405     28401     28402     28407     28411     28412
     28408     28407     28410     28408     28407     28409     28409     28407     28410
     28411     28407     28410     28411     28407     28409     28411     28407     28408
     28413     28417     28418     28414     28413     28416     28414     28413     28415
     28415     28413     28416     28417     28413     28416     28417     28413     28415
     28417     28413     28414     28419     28423     28424     28420     28419     28422
     28420     28419     28421     28421     28419     28422     28423     28419     28422
     28423     28419     28421     28423     28419     28420     28425     28429     28430
     28426     28425     28428     28426     28425     28427     28427     28425     28428
     28429     28425     28428     28429     28425     28427     28429     28425     28426
     28431     28435     28436     28432     28431     28434     28432     28431     28433
     28433     28431     28434     28435     28431     28434     28435     28431     28433
     28435     28431     28432     28437     28441     28442     28438     28437     28440
     28438     28437     28439     28439     28437     28440     28441     28437     28440
     28441     28437     28439     28441     28437     28438     28443     28447     28448
     28444     28443     28446     28444     28443     28445     28445     28443     28446
     28447     28443     28446     28447     28443     28445     28447     28443     28444
     28449     28453     28454     28450     28449     28452     28450     28449     28451
     28451     28449     28452     28453     28449     28452     28453     28449     28451
     28453     28449     28450     28455     28459     28460     28456     28455     28458
     28456     28455     28457     28457     28455     28458     28459     28455     28458
     28459     28455     28457     28459     28455     28456     28461     28465     28466
     28462     28461     28464     28462     28461     28463     28463     28461     28464
     28465     28461     28464     28465     28461     28463     28465     28461     28462
     28467     28471     28472     28468     28467     28470     28468     28467     28469
     28469     28467     28470     28471     28467     28470     28471     28467     28469
     28471     28467     28468     28473     28477     28478     28474     28473     28476
     28474     28473     28475     28475     28473     28476     28477     28473     28476
     28477     28473     28475     28477     28473     28474     28479     28483     28484
     28480     28479     28482     28480     28479     28481     28481     28479     28482
     28483     28479     28482     28483     28479     28481     28483     28479     28480
     28485     28489     28490     28486     28485     28488     28486     28485     28487
     28487     28485     28488     28489     28485     28488     28489     28485     28487
     28489     28485     28486     28491     28495     28496     28492     28491     28494
     28492     28491     28493     28493     28491     28494     28495     28491     28494
     28495     28491     28493     28495     28491     28492     28497     28501     28502
     28498     28497     28500     28498     28497     28499     28499     28497     28500
     28501     28497     28500     28501     28497     28499     28501     28497     28498
     28503     28507     28508     28504     28503     28506     28504     28503     28505
     28505     28503     28506     28507     28503     28506     28507     28503     28505
     28507     28503     28504     28509     28513     28514     28510     28509     28512
     28510     28509     28511     28511     28509     28512     28513     28509     28512
     28513     28509     28511     28513     28509     28510     28515     28519     28520
     28516     28515     28518     28516     28515     28517     28517     28515     28518
     28519     28515     28518     28519     28515     28517     28519     28515     28516
     28521     28525     28526     28522     28521     28524     28522     28521     28523
     28523     28521     28524     28525     28521     28524     28525     28521     28523
     28525     28521     28522     28527     28531     28532     28528     28527     28530
     28528     28527     28529     28529     28527     28530     28531     28527     28530
     28531     28527     28529     28531     28527     28528     28533     28537     28538
     28534     28533     28536     28534     28533     28535     28535     28533     28536
     28537     28533     28536     28537     28533     28535     28537     28533     28534
     28539     28543     28544     28540     28539     28542     28540     28539     28541
     28541     28539     28542     28543     28539     28542     28543     28539     28541
     28543     28539     28540     28545     28549     28550     28546     28545     28548
     28546     28545     28547     28547     28545     28548     28549     28545     28548
     28549     28545     28547     28549     28545     28546     28551     28555     28556
     28552     28551     28554     28552     28551     28553     28553     28551     28554
     28555     28551     28554     28555     28551     28553     28555     28551     28552
     28557     28561     28562     28558     28557     28560     28558     28557     28559
     28559     28557     28560     28561     28557     28560     28561     28557     28559
     28561     28557     28558     28563     28567     28568     28564     28563     28566
     28564     28563     28565     28565     28563     28566     28567     28563     28566
     28567     28563     28565     28567     28563     28564     28569     28573     28574
     28570     28569     28572     28570     28569     28571     28571     28569     28572
     28573     28569     28572     28573     28569     28571     28573     28569     28570
     28575     28579     28580     28576     28575     28578     28576     28575     28577
     28577     28575     28578     28579     28575     28578     28579     28575     28577
     28579     28575     28576     28581     28585     28586     28582     28581     28584
     28582     28581     28583     28583     28581     28584     28585     28581     28584
     28585     28581     28583     28585     28581     28582     28587     28591     28592
     28588     28587     28590     28588     28587     28589     28589     28587     28590
     28591     28587     28590     28591     28587     28589     28591     28587     28588
     28593     28597     28598     28594     28593     28596     28594     28593     28595
     28595     28593     28596     28597     28593     28596     28597     28593     28595
     28597     28593     28594     28599     28603     28604     28600     28599     28602
     28600     28599     28601     28601     28599     28602     28603     28599     28602
     28603     28599     28601     28603     28599     28600     28605     28609     28610
     28606     28605     28608     28606     28605     28607     28607     28605     28608
     28609     28605     28608     28609     28605     28607     28609     28605     28606
     28611     28615     28616     28612     28611     28614     28612     28611     28613
     28613     28611     28614     28615     28611     28614     28615     28611     28613
     28615     28611     28612     28617     28621     28622     28618     28617     28620
     28618     28617     28619     28619     28617     28620     28621     28617     28620
     28621     28617     28619     28621     28617     28618     28623     28627     28628
     28624     28623     28626     28624     28623     28625     28625     28623     28626
     28627     28623     28626     28627     28623     28625     28627     28623     28624
     28629     28633     28634     28630     28629     28632     28630     28629     28631
     28631     28629     28632     28633     28629     28632     28633     28629     28631
     28633     28629     28630     28635     28639     28640     28636     28635     28638
     28636     28635     28637     28637     28635     28638     28639     28635     28638
     28639     28635     28637     28639     28635     28636     28641     28645     28646
     28642     28641     28644     28642     28641     28643     28643     28641     28644
     28645     28641     28644     28645     28641     28643     28645     28641     28642
     28647     28651     28652     28648     28647     28650     28648     28647     28649
     28649     28647     28650     28651     28647     28650     28651     28647     28649
     28651     28647     28648     28653     28657     28658     28654     28653     28656
     28654     28653     28655     28655     28653     28656     28657     28653     28656
     28657     28653     28655     28657     28653     28654     28659     28663     28664
     28660     28659     28662     28660     28659     28661     28661     28659     28662
     28663     28659     28662     28663     28659     28661     28663     28659     28660
     28665     28669     28670     28666     28665     28668     28666     28665     28667
     28667     28665     28668     28669     28665     28668     28669     28665     28667
     28669     28665     28666     28671     28675     28676     28672     28671     28674
     28672     28671     28673     28673     28671     28674     28675     28671     28674
     28675     28671     28673     28675     28671     28672     28677     28681     28682
     28678     28677     28680     28678     28677     28679     28679     28677     28680
     28681     28677     28680     28681     28677     28679     28681     28677     28678
     28683     28687     28688     28684     28683     28686     28684     28683     28685
     28685     28683     28686     28687     28683     28686     28687     28683     28685
     28687     28683     28684     28689     28693     28694     28690     28689     28692
     28690     28689     28691     28691     28689     28692     28693     28689     28692
     28693     28689     28691     28693     28689     28690     28695     28699     28700
     28696     28695     28698     28696     28695     28697     28697     28695     28698
     28699     28695     28698     28699     28695     28697     28699     28695     28696
     28701     28705     28706     28702     28701     28704     28702     28701     28703
     28703     28701     28704     28705     28701     28704     28705     28701     28703
     28705     28701     28702     28707     28711     28712     28708     28707     28710
     28708     28707     28709     28709     28707     28710     28711     28707     28710
     28711     28707     28709     28711     28707     28708     28713     28717     28718
     28714     28713     28716     28714     28713     28715     28715     28713     28716
     28717     28713     28716     28717     28713     28715     28717     28713     28714
     28719     28723     28724     28720     28719     28722     28720     28719     28721
     28721     28719     28722     28723     28719     28722     28723     28719     28721
     28723     28719     28720     28725     28729     28730     28726     28725     28728
     28726     28725     28727     28727     28725     28728     28729     28725     28728
     28729     28725     28727     28729     28725     28726     28731     28735     28736
     28732     28731     28734     28732     28731     28733     28733     28731     28734
     28735     28731     28734     28735     28731     28733     28735     28731     28732
     28737     28741     28742     28738     28737     28740     28738     28737     28739
     28739     28737     28740     28741     28737     28740     28741     28737     28739
     28741     28737     28738     28743     28747     28748     28744     28743     28746
     28744     28743     28745     28745     28743     28746     28747     28743     28746
     28747     28743     28745     28747     28743     28744     28749     28753     28754
     28750     28749     28752     28750     28749     28751     28751     28749     28752
     28753     28749     28752     28753     28749     28751     28753     28749     28750
     28755     28759     28760     28756     28755     28758     28756     28755     28757
     28757     28755     28758     28759     28755     28758     28759     28755     28757
     28759     28755     28756     28761     28765     28766     28762     28761     28764
     28762     28761     28763     28763     28761     28764     28765     28761     28764
     28765     28761     28763     28765     28761     28762     28767     28771     28772
     28768     28767     28770     28768     28767     28769     28769     28767     28770
     28771     28767     28770     28771     28767     28769     28771     28767     28768
     28773     28777     28778     28774     28773     28776     28774     28773     28775
     28775     28773     28776     28777     28773     28776     28777     28773     28775
     28777     28773     28774     28779     28783     28784     28780     28779     28782
     28780     28779     28781     28781     28779     28782     28783     28779     28782
     28783     28779     28781     28783     28779     28780     28785     28789     28790
     28786     28785     28788     28786     28785     28787     28787     28785     28788
     28789     28785     28788     28789     28785     28787     28789     28785     28786
     28791     28795     28796     28792     28791     28794     28792     28791     28793
     28793     28791     28794     28795     28791     28794     28795     28791     28793
     28795     28791     28792     28797     28801     28802     28798     28797     28800
     28798     28797     28799     28799     28797     28800     28801     28797     28800
     28801     28797     28799     28801     28797     28798     28803     28807     28808
     28804     28803     28806     28804     28803     28805     28805     28803     28806
     28807     28803     28806     28807     28803     28805     28807     28803     28804
     28809     28813     28814     28810     28809     28812     28810     28809     28811
     28811     28809     28812     28813     28809     28812     28813     28809     28811
     28813     28809     28810     28815     28819     28820     28816     28815     28818
     28816     28815     28817     28817     28815     28818     28819     28815     28818
     28819     28815     28817     28819     28815     28816     28821     28825     28826
     28822     28821     28824     28822     28821     28823     28823     28821     28824
     28825     28821     28824     28825     28821     28823     28825     28821     28822
     28827     28831     28832     28828     28827     28830     28828     28827     28829
     28829     28827     28830     28831     28827     28830     28831     28827     28829
     28831     28827     28828     28833     28837     28838     28834     28833     28836
     28834     28833     28835     28835     28833     28836     28837     28833     28836
     28837     28833     28835     28837     28833     28834     28839     28843     28844
     28840     28839     28842     28840     28839     28841     28841     28839     28842
     28843     28839     28842     28843     28839     28841     28843     28839     28840
     28845     28849     28850     28846     28845     28848     28846     28845     28847
     28847     28845     28848     28849     28845     28848     28849     28845     28847
     28849     28845     28846     28851     28855     28856     28852     28851     28854
     28852     28851     28853     28853     28851     28854     28855     28851     28854
     28855     28851     28853     28855     28851     28852     28857     28861     28862
     28858     28857     28860     28858     28857     28859     28859     28857     28860
     28861     28857     28860     28861     28857     28859     28861     28857     28858
     28863     28867     28868     28864     28863     28866     28864     28863     28865
     28865     28863     28866     28867     28863     28866     28867     28863     28865
     28867     28863     28864     28869     28873     28874     28870     28869     28872
     28870     28869     28871     28871     28869     28872     28873     28869     28872
     28873     28869     28871     28873     28869     28870     28875     28879     28880
     28876     28875     28878     28876     28875     28877     28877     28875     28878
     28879     28875     28878     28879     28875     28877     28879     28875     28876
     28881     28885     28886     28882     28881     28884     28882     28881     28883
     28883     28881     28884     28885     28881     28884     28885     28881     28883
     28885     28881     28882     28887     28891     28892     28888     28887     28890
     28888     28887     28889     28889     28887     28890     28891     28887     28890
     28891     28887     28889     28891     28887     28888     28893     28897     28898
     28894     28893     28896     28894     28893     28895     28895     28893     28896
     28897     28893     28896     28897     28893     28895     28897     28893     28894
     28899     28903     28904     28900     28899     28902     28900     28899     28901
     28901     28899     28902     28903     28899     28902     28903     28899     28901
     28903     28899     28900     28905     28909     28910     28906     28905     28908
     28906     28905     28907     28907     28905     28908     28909     28905     28908
     28909     28905     28907     28909     28905     28906     28911     28915     28916
     28912     28911     28914     28912     28911     28913     28913     28911     28914
     28915     28911     28914     28915     28911     28913     28915     28911     28912
     28917     28921     28922     28918     28917     28920     28918     28917     28919
     28919     28917     28920     28921     28917     28920     28921     28917     28919
     28921     28917     28918     28923     28927     28928     28924     28923     28926
     28924     28923     28925     28925     28923     28926     28927     28923     28926
     28927     28923     28925     28927     28923     28924     28929     28933     28934
     28930     28929     28932     28930     28929     28931     28931     28929     28932
     28933     28929     28932     28933     28929     28931     28933     28929     28930
     28935     28939     28940     28936     28935     28938     28936     28935     28937
     28937     28935     28938     28939     28935     28938     28939     28935     28937
     28939     28935     28936     28941     28945     28946     28942     28941     28944
     28942     28941     28943     28943     28941     28944     28945     28941     28944
     28945     28941     28943     28945     28941     28942     28947     28951     28952
     28948     28947     28950     28948     28947     28949     28949     28947     28950
     28951     28947     28950     28951     28947     28949     28951     28947     28948
     28953     28957     28958     28954     28953     28956     28954     28953     28955
     28955     28953     28956     28957     28953     28956     28957     28953     28955
     28957     28953     28954     28959     28963     28964     28960     28959     28962
     28960     28959     28961     28961     28959     28962     28963     28959     28962
     28963     28959     28961     28963     28959     28960     28965     28969     28970
     28966     28965     28968     28966     28965     28967     28967     28965     28968
     28969     28965     28968     28969     28965     28967     28969     28965     28966
     28971     28975     28976     28972     28971     28974     28972     28971     28973
     28973     28971     28974     28975     28971     28974     28975     28971     28973
     28975     28971     28972     28977     28981     28982     28978     28977     28980
     28978     28977     28979     28979     28977     28980     28981     28977     28980
     28981     28977     28979     28981     28977     28978     28983     28987     28988
     28984     28983     28986     28984     28983     28985     28985     28983     28986
     28987     28983     28986     28987     28983     28985     28987     28983     28984
     28989     28993     28994     28990     28989     28992     28990     28989     28991
     28991     28989     28992     28993     28989     28992     28993     28989     28991
     28993     28989     28990     28995     28999     29000     28996     28995     28998
     28996     28995     28997     28997     28995     28998     28999     28995     28998
     28999     28995     28997     28999     28995     28996     29001     29005     29006
     29002     29001     29004     29002     29001     29003     29003     29001     29004
     29005     29001     29004     29005     29001     29003     29005     29001     29002
     29007     29011     29012     29008     29007     29010     29008     29007     29009
     29009     29007     29010     29011     29007     29010     29011     29007     29009
     29011     29007     29008     29013     29017     29018     29014     29013     29016
     29014     29013     29015     29015     29013     29016     29017     29013     29016
     29017     29013     29015     29017     29013     29014     29019     29023     29024
     29020     29019     29022     29020     29019     29021     29021     29019     29022
     29023     29019     29022     29023     29019     29021     29023     29019     29020
     29025     29029     29030     29026     29025     29028     29026     29025     29027
     29027     29025     29028     29029     29025     29028     29029     29025     29027
     29029     29025     29026     29031     29035     29036     29032     29031     29034
     29032     29031     29033     29033     29031     29034     29035     29031     29034
     29035     29031     29033     29035     29031     29032     29037     29041     29042
     29038     29037     29040     29038     29037     29039     29039     29037     29040
     29041     29037     29040     29041     29037     29039     29041     29037     29038
     29043     29047     29048     29044     29043     29046     29044     29043     29045
     29045     29043     29046     29047     29043     29046     29047     29043     29045
     29047     29043     29044     29049     29053     29054     29050     29049     29052
     29050     29049     29051     29051     29049     29052     29053     29049     29052
     29053     29049     29051     29053     29049     29050     29055     29059     29060
     29056     29055     29058     29056     29055     29057     29057     29055     29058
     29059     29055     29058     29059     29055     29057     29059     29055     29056
     29061     29065     29066     29062     29061     29064     29062     29061     29063
     29063     29061     29064     29065     29061     29064     29065     29061     29063
     29065     29061     29062     29067     29071     29072     29068     29067     29070
     29068     29067     29069     29069     29067     29070     29071     29067     29070
     29071     29067     29069     29071     29067     29068     29073     29077     29078
     29074     29073     29076     29074     29073     29075     29075     29073     29076
     29077     29073     29076     29077     29073     29075     29077     29073     29074
     29079     29083     29084     29080     29079     29082     29080     29079     29081
     29081     29079     29082     29083     29079     29082     29083     29079     29081
     29083     29079     29080     29085     29089     29090     29086     29085     29088
     29086     29085     29087     29087     29085     29088     29089     29085     29088
     29089     29085     29087     29089     29085     29086     29091     29095     29096
     29092     29091     29094     29092     29091     29093     29093     29091     29094
     29095     29091     29094     29095     29091     29093     29095     29091     29092
     29097     29101     29102     29098     29097     29100     29098     29097     29099
     29099     29097     29100     29101     29097     29100     29101     29097     29099
     29101     29097     29098     29103     29107     29108     29104     29103     29106
     29104     29103     29105     29105     29103     29106     29107     29103     29106
     29107     29103     29105     29107     29103     29104     29109     29113     29114
     29110     29109     29112     29110     29109     29111     29111     29109     29112
     29113     29109     29112     29113     29109     29111     29113     29109     29110
     29115     29119     29120     29116     29115     29118     29116     29115     29117
     29117     29115     29118     29119     29115     29118     29119     29115     29117
     29119     29115     29116     29121     29125     29126     29122     29121     29124
     29122     29121     29123     29123     29121     29124     29125     29121     29124
     29125     29121     29123     29125     29121     29122     29127     29131     29132
     29128     29127     29130     29128     29127     29129     29129     29127     29130
     29131     29127     29130     29131     29127     29129     29131     29127     29128
     29133     29137     29138     29134     29133     29136     29134     29133     29135
     29135     29133     29136     29137     29133     29136     29137     29133     29135
     29137     29133     29134     29139     29143     29144     29140     29139     29142
     29140     29139     29141     29141     29139     29142     29143     29139     29142
     29143     29139     29141     29143     29139     29140     29145     29149     29150
     29146     29145     29148     29146     29145     29147     29147     29145     29148
     29149     29145     29148     29149     29145     29147     29149     29145     29146
     29151     29155     29156     29152     29151     29154     29152     29151     29153
     29153     29151     29154     29155     29151     29154     29155     29151     29153
     29155     29151     29152     29157     29161     29162     29158     29157     29160
     29158     29157     29159     29159     29157     29160     29161     29157     29160
     29161     29157     29159     29161     29157     29158     29163     29167     29168
     29164     29163     29166     29164     29163     29165     29165     29163     29166
     29167     29163     29166     29167     29163     29165     29167     29163     29164
     29169     29173     29174     29170     29169     29172     29170     29169     29171
     29171     29169     29172     29173     29169     29172     29173     29169     29171
     29173     29169     29170     29175     29179     29180     29176     29175     29178
     29176     29175     29177     29177     29175     29178     29179     29175     29178
     29179     29175     29177     29179     29175     29176     29181     29185     29186
     29182     29181     29184     29182     29181     29183     29183     29181     29184
     29185     29181     29184     29185     29181     29183     29185     29181     29182
     29187     29191     29192     29188     29187     29190     29188     29187     29189
     29189     29187     29190     29191     29187     29190     29191     29187     29189
     29191     29187     29188     29193     29197     29198     29194     29193     29196
     29194     29193     29195     29195     29193     29196     29197     29193     29196
     29197     29193     29195     29197     29193     29194     29199     29203     29204
     29200     29199     29202     29200     29199     29201     29201     29199     29202
     29203     29199     29202     29203     29199     29201     29203     29199     29200
     29205     29209     29210     29206     29205     29208     29206     29205     29207
     29207     29205     29208     29209     29205     29208     29209     29205     29207
     29209     29205     29206     29211     29215     29216     29212     29211     29214
     29212     29211     29213     29213     29211     29214     29215     29211     29214
     29215     29211     29213     29215     29211     29212     29217     29221     29222
     29218     29217     29220     29218     29217     29219     29219     29217     29220
     29221     29217     29220     29221     29217     29219     29221     29217     29218
     29223     29227     29228     29224     29223     29226     29224     29223     29225
     29225     29223     29226     29227     29223     29226     29227     29223     29225
     29227     29223     29224     29229     29233     29234     29230     29229     29232
     29230     29229     29231     29231     29229     29232     29233     29229     29232
     29233     29229     29231     29233     29229     29230     29235     29239     29240
     29236     29235     29238     29236     29235     29237     29237     29235     29238
     29239     29235     29238     29239     29235     29237     29239     29235     29236
     29241     29245     29246     29242     29241     29244     29242     29241     29243
     29243     29241     29244     29245     29241     29244     29245     29241     29243
     29245     29241     29242     29247     29251     29252     29248     29247     29250
     29248     29247     29249     29249     29247     29250     29251     29247     29250
     29251     29247     29249     29251     29247     29248     29253     29257     29258
     29254     29253     29256     29254     29253     29255     29255     29253     29256
     29257     29253     29256     29257     29253     29255     29257     29253     29254
     29259     29263     29264     29260     29259     29262     29260     29259     29261
     29261     29259     29262     29263     29259     29262     29263     29259     29261
     29263     29259     29260     29265     29269     29270     29266     29265     29268
     29266     29265     29267     29267     29265     29268     29269     29265     29268
     29269     29265     29267     29269     29265     29266     29271     29275     29276
     29272     29271     29274     29272     29271     29273     29273     29271     29274
     29275     29271     29274     29275     29271     29273     29275     29271     29272
     29277     29281     29282     29278     29277     29280     29278     29277     29279
     29279     29277     29280     29281     29277     29280     29281     29277     29279
     29281     29277     29278     29283     29287     29288     29284     29283     29286
     29284     29283     29285     29285     29283     29286     29287     29283     29286
     29287     29283     29285     29287     29283     29284     29289     29293     29294
     29290     29289     29292     29290     29289     29291     29291     29289     29292
     29293     29289     29292     29293     29289     29291     29293     29289     29290
     29295     29299     29300     29296     29295     29298     29296     29295     29297
     29297     29295     29298     29299     29295     29298     29299     29295     29297
     29299     29295     29296     29301     29305     29306     29302     29301     29304
     29302     29301     29303     29303     29301     29304     29305     29301     29304
     29305     29301     29303     29305     29301     29302     29307     29311     29312
     29308     29307     29310     29308     29307     29309     29309     29307     29310
     29311     29307     29310     29311     29307     29309     29311     29307     29308
     29313     29317     29318     29314     29313     29316     29314     29313     29315
     29315     29313     29316     29317     29313     29316     29317     29313     29315
     29317     29313     29314     29319     29323     29324     29320     29319     29322
     29320     29319     29321     29321     29319     29322     29323     29319     29322
     29323     29319     29321     29323     29319     29320     29325     29329     29330
     29326     29325     29328     29326     29325     29327     29327     29325     29328
     29329     29325     29328     29329     29325     29327     29329     29325     29326
     29331     29335     29336     29332     29331     29334     29332     29331     29333
     29333     29331     29334     29335     29331     29334     29335     29331     29333
     29335     29331     29332     29337     29341     29342     29338     29337     29340
     29338     29337     29339     29339     29337     29340     29341     29337     29340
     29341     29337     29339     29341     29337     29338     29343     29347     29348
     29344     29343     29346     29344     29343     29345     29345     29343     29346
     29347     29343     29346     29347     29343     29345     29347     29343     29344
     29349     29353     29354     29350     29349     29352     29350     29349     29351
     29351     29349     29352     29353     29349     29352     29353     29349     29351
     29353     29349     29350     29355     29359     29360     29356     29355     29358
     29356     29355     29357     29357     29355     29358     29359     29355     29358
     29359     29355     29357     29359     29355     29356     29361     29365     29366
     29362     29361     29364     29362     29361     29363     29363     29361     29364
     29365     29361     29364     29365     29361     29363     29365     29361     29362
     29367     29371     29372     29368     29367     29370     29368     29367     29369
     29369     29367     29370     29371     29367     29370     29371     29367     29369
     29371     29367     29368     29373     29377     29378     29374     29373     29376
     29374     29373     29375     29375     29373     29376     29377     29373     29376
     29377     29373     29375     29377     29373     29374     29379     29383     29384
     29380     29379     29382     29380     29379     29381     29381     29379     29382
     29383     29379     29382     29383     29379     29381     29383     29379     29380
     29385     29389     29390     29386     29385     29388     29386     29385     29387
     29387     29385     29388     29389     29385     29388     29389     29385     29387
     29389     29385     29386     29391     29395     29396     29392     29391     29394
     29392     29391     29393     29393     29391     29394     29395     29391     29394
     29395     29391     29393     29395     29391     29392     29397     29401     29402
     29398     29397     29400     29398     29397     29399     29399     29397     29400
     29401     29397     29400     29401     29397     29399     29401     29397     29398
     29403     29407     29408     29404     29403     29406     29404     29403     29405
     29405     29403     29406     29407     29403     29406     29407     29403     29405
     29407     29403     29404     29409     29413     29414     29410     29409     29412
     29410     29409     29411     29411     29409     29412     29413     29409     29412
     29413     29409     29411     29413     29409     29410     29415     29419     29420
     29416     29415     29418     29416     29415     29417     29417     29415     29418
     29419     29415     29418     29419     29415     29417     29419     29415     29416
     29421     29425     29426     29422     29421     29424     29422     29421     29423
     29423     29421     29424     29425     29421     29424     29425     29421     29423
     29425     29421     29422     29427     29431     29432     29428     29427     29430
     29428     29427     29429     29429     29427     29430     29431     29427     29430
     29431     29427     29429     29431     29427     29428     29433     29437     29438
     29434     29433     29436     29434     29433     29435     29435     29433     29436
     29437     29433     29436     29437     29433     29435     29437     29433     29434
     29439     29443     29444     29440     29439     29442     29440     29439     29441
     29441     29439     29442     29443     29439     29442     29443     29439     29441
     29443     29439     29440     29445     29449     29450     29446     29445     29448
     29446     29445     29447     29447     29445     29448     29449     29445     29448
     29449     29445     29447     29449     29445     29446     29451     29455     29456
     29452     29451     29454     29452     29451     29453     29453     29451     29454
     29455     29451     29454     29455     29451     29453     29455     29451     29452
     29457     29461     29462     29458     29457     29460     29458     29457     29459
     29459     29457     29460     29461     29457     29460     29461     29457     29459
     29461     29457     29458     29463     29467     29468     29464     29463     29466
     29464     29463     29465     29465     29463     29466     29467     29463     29466
     29467     29463     29465     29467     29463     29464     29469     29473     29474
     29470     29469     29472     29470     29469     29471     29471     29469     29472
     29473     29469     29472     29473     29469     29471     29473     29469     29470
     29475     29479     29480     29476     29475     29478     29476     29475     29477
     29477     29475     29478     29479     29475     29478     29479     29475     29477
     29479     29475     29476     29481     29485     29486     29482     29481     29484
     29482     29481     29483     29483     29481     29484     29485     29481     29484
     29485     29481     29483     29485     29481     29482     29487     29491     29492
     29488     29487     29490     29488     29487     29489     29489     29487     29490
     29491     29487     29490     29491     29487     29489     29491     29487     29488
     29493     29497     29498     29494     29493     29496     29494     29493     29495
     29495     29493     29496     29497     29493     29496     29497     29493     29495
     29497     29493     29494     29499     29503     29504     29500     29499     29502
     29500     29499     29501     29501     29499     29502     29503     29499     29502
     29503     29499     29501     29503     29499     29500     29505     29509     29510
     29506     29505     29508     29506     29505     29507     29507     29505     29508
     29509     29505     29508     29509     29505     29507     29509     29505     29506
     29511     29515     29516     29512     29511     29514     29512     29511     29513
     29513     29511     29514     29515     29511     29514     29515     29511     29513
     29515     29511     29512     29517     29521     29522     29518     29517     29520
     29518     29517     29519     29519     29517     29520     29521     29517     29520
     29521     29517     29519     29521     29517     29518     29523     29527     29528
     29524     29523     29526     29524     29523     29525     29525     29523     29526
     29527     29523     29526     29527     29523     29525     29527     29523     29524
     29529     29533     29534     29530     29529     29532     29530     29529     29531
     29531     29529     29532     29533     29529     29532     29533     29529     29531
     29533     29529     29530     29535     29539     29540     29536     29535     29538
     29536     29535     29537     29537     29535     29538     29539     29535     29538
     29539     29535     29537     29539     29535     29536     29541     29545     29546
     29542     29541     29544     29542     29541     29543     29543     29541     29544
     29545     29541     29544     29545     29541     29543     29545     29541     29542
     29547     29551     29552     29548     29547     29550     29548     29547     29549
     29549     29547     29550     29551     29547     29550     29551     29547     29549
     29551     29547     29548     29553     29557     29558     29554     29553     29556
     29554     29553     29555     29555     29553     29556     29557     29553     29556
     29557     29553     29555     29557     29553     29554     29559     29563     29564
     29560     29559     29562     29560     29559     29561     29561     29559     29562
     29563     29559     29562     29563     29559     29561     29563     29559     29560
     29565     29569     29570     29566     29565     29568     29566     29565     29567
     29567     29565     29568     29569     29565     29568     29569     29565     29567
     29569     29565     29566     29571     29575     29576     29572     29571     29574
     29572     29571     29573     29573     29571     29574     29575     29571     29574
     29575     29571     29573     29575     29571     29572     29577     29581     29582
     29578     29577     29580     29578     29577     29579     29579     29577     29580
     29581     29577     29580     29581     29577     29579     29581     29577     29578
     29583     29587     29588     29584     29583     29586     29584     29583     29585
     29585     29583     29586     29587     29583     29586     29587     29583     29585
     29587     29583     29584     29589     29593     29594     29590     29589     29592
     29590     29589     29591     29591     29589     29592     29593     29589     29592
     29593     29589     29591     29593     29589     29590     29595     29599     29600
     29596     29595     29598     29596     29595     29597     29597     29595     29598
     29599     29595     29598     29599     29595     29597     29599     29595     29596
     29601     29605     29606     29602     29601     29604     29602     29601     29603
     29603     29601     29604     29605     29601     29604     29605     29601     29603
     29605     29601     29602     29607     29611     29612     29608     29607     29610
     29608     29607     29609     29609     29607     29610     29611     29607     29610
     29611     29607     29609     29611     29607     29608     29613     29617     29618
     29614     29613     29616     29614     29613     29615     29615     29613     29616
     29617     29613     29616     29617     29613     29615     29617     29613     29614
     29619     29623     29624     29620     29619     29622     29620     29619     29621
     29621     29619     29622     29623     29619     29622     29623     29619     29621
     29623     29619     29620     29625     29629     29630     29626     29625     29628
     29626     29625     29627     29627     29625     29628     29629     29625     29628
     29629     29625     29627     29629     29625     29626     29631     29635     29636
     29632     29631     29634     29632     29631     29633     29633     29631     29634
     29635     29631     29634     29635     29631     29633     29635     29631     29632
     29637     29641     29642     29638     29637     29640     29638     29637     29639
     29639     29637     29640     29641     29637     29640     29641     29637     29639
     29641     29637     29638     29643     29647     29648     29644     29643     29646
     29644     29643     29645     29645     29643     29646     29647     29643     29646
     29647     29643     29645     29647     29643     29644     29649     29653     29654
     29650     29649     29652     29650     29649     29651     29651     29649     29652
     29653     29649     29652     29653     29649     29651     29653     29649     29650
     29655     29659     29660     29656     29655     29658     29656     29655     29657
     29657     29655     29658     29659     29655     29658     29659     29655     29657
     29659     29655     29656     29661     29665     29666     29662     29661     29664
     29662     29661     29663     29663     29661     29664     29665     29661     29664
     29665     29661     29663     29665     29661     29662     29667     29671     29672
     29668     29667     29670     29668     29667     29669     29669     29667     29670
     29671     29667     29670     29671     29667     29669     29671     29667     29668
     29673     29677     29678     29674     29673     29676     29674     29673     29675
     29675     29673     29676     29677     29673     29676     29677     29673     29675
     29677     29673     29674     29679     29683     29684     29680     29679     29682
     29680     29679     29681     29681     29679     29682     29683     29679     29682
     29683     29679     29681     29683     29679     29680     29685     29689     29690
     29686     29685     29688     29686     29685     29687     29687     29685     29688
     29689     29685     29688     29689     29685     29687     29689     29685     29686
     29691     29695     29696     29692     29691     29694     29692     29691     29693
     29693     29691     29694     29695     29691     29694     29695     29691     29693
     29695     29691     29692     29697     29701     29702     29698     29697     29700
     29698     29697     29699     29699     29697     29700     29701     29697     29700
     29701     29697     29699     29701     29697     29698     29703     29707     29708
     29704     29703     29706     29704     29703     29705     29705     29703     29706
     29707     29703     29706     29707     29703     29705     29707     29703     29704
     29709     29713     29714     29710     29709     29712     29710     29709     29711
     29711     29709     29712     29713     29709     29712     29713     29709     29711
     29713     29709     29710     29715     29719     29720     29716     29715     29718
     29716     29715     29717     29717     29715     29718     29719     29715     29718
     29719     29715     29717     29719     29715     29716     29721     29725     29726
     29722     29721     29724     29722     29721     29723     29723     29721     29724
     29725     29721     29724     29725     29721     29723     29725     29721     29722
     29727     29731     29732     29728     29727     29730     29728     29727     29729
     29729     29727     29730     29731     29727     29730     29731     29727     29729
     29731     29727     29728     29733     29737     29738     29734     29733     29736
     29734     29733     29735     29735     29733     29736     29737     29733     29736
     29737     29733     29735     29737     29733     29734     29739     29743     29744
     29740     29739     29742     29740     29739     29741     29741     29739     29742
     29743     29739     29742     29743     29739     29741     29743     29739     29740
     29745     29749     29750     29746     29745     29748     29746     29745     29747
     29747     29745     29748     29749     29745     29748     29749     29745     29747
     29749     29745     29746     29751     29755     29756     29752     29751     29754
     29752     29751     29753     29753     29751     29754     29755     29751     29754
     29755     29751     29753     29755     29751     29752     29757     29761     29762
     29758     29757     29760     29758     29757     29759     29759     29757     29760
     29761     29757     29760     29761     29757     29759     29761     29757     29758
     29763     29767     29768     29764     29763     29766     29764     29763     29765
     29765     29763     29766     29767     29763     29766     29767     29763     29765
     29767     29763     29764     29769     29773     29774     29770     29769     29772
     29770     29769     29771     29771     29769     29772     29773     29769     29772
     29773     29769     29771     29773     29769     29770     29775     29779     29780
     29776     29775     29778     29776     29775     29777     29777     29775     29778
     29779     29775     29778     29779     29775     29777     29779     29775     29776
     29781     29785     29786     29782     29781     29784     29782     29781     29783
     29783     29781     29784     29785     29781     29784     29785     29781     29783
     29785     29781     29782     29787     29791     29792     29788     29787     29790
     29788     29787     29789     29789     29787     29790     29791     29787     29790
     29791     29787     29789     29791     29787     29788     29793     29797     29798
     29794     29793     29796     29794     29793     29795     29795     29793     29796
     29797     29793     29796     29797     29793     29795     29797     29793     29794
     29799     29803     29804     29800     29799     29802     29800     29799     29801
     29801     29799     29802     29803     29799     29802     29803     29799     29801
     29803     29799     29800     29805     29809     29810     29806     29805     29808
     29806     29805     29807     29807     29805     29808     29809     29805     29808
     29809     29805     29807     29809     29805     29806     29811     29815     29816
     29812     29811     29814     29812     29811     29813     29813     29811     29814
     29815     29811     29814     29815     29811     29813     29815     29811     29812
     29817     29821     29822     29818     29817     29820     29818     29817     29819
     29819     29817     29820     29821     29817     29820     29821     29817     29819
     29821     29817     29818     29823     29827     29828     29824     29823     29826
     29824     29823     29825     29825     29823     29826     29827     29823     29826
     29827     29823     29825     29827     29823     29824     29829     29833     29834
     29830     29829     29832     29830     29829     29831     29831     29829     29832
     29833     29829     29832     29833     29829     29831     29833     29829     29830
     29835     29839     29840     29836     29835     29838     29836     29835     29837
     29837     29835     29838     29839     29835     29838     29839     29835     29837
     29839     29835     29836     29841     29845     29846     29842     29841     29844
     29842     29841     29843     29843     29841     29844     29845     29841     29844
     29845     29841     29843     29845     29841     29842     29847     29851     29852
     29848     29847     29850     29848     29847     29849     29849     29847     29850
     29851     29847     29850     29851     29847     29849     29851     29847     29848
     29853     29857     29858     29854     29853     29856     29854     29853     29855
     29855     29853     29856     29857     29853     29856     29857     29853     29855
     29857     29853     29854     29859     29863     29864     29860     29859     29862
     29860     29859     29861     29861     29859     29862     29863     29859     29862
     29863     29859     29861     29863     29859     29860     29865     29869     29870
     29866     29865     29868     29866     29865     29867     29867     29865     29868
     29869     29865     29868     29869     29865     29867     29869     29865     29866
     29871     29875     29876     29872     29871     29874     29872     29871     29873
     29873     29871     29874     29875     29871     29874     29875     29871     29873
     29875     29871     29872     29877     29881     29882     29878     29877     29880
     29878     29877     29879     29879     29877     29880     29881     29877     29880
     29881     29877     29879     29881     29877     29878     29883     29887     29888
     29884     29883     29886     29884     29883     29885     29885     29883     29886
     29887     29883     29886     29887     29883     29885     29887     29883     29884
     29889     29893     29894     29890     29889     29892     29890     29889     29891
     29891     29889     29892     29893     29889     29892     29893     29889     29891
     29893     29889     29890     29895     29899     29900     29896     29895     29898
     29896     29895     29897     29897     29895     29898     29899     29895     29898
     29899     29895     29897     29899     29895     29896     29901     29905     29906
     29902     29901     29904     29902     29901     29903     29903     29901     29904
     29905     29901     29904     29905     29901     29903     29905     29901     29902
     29907     29911     29912     29908     29907     29910     29908     29907     29909
     29909     29907     29910     29911     29907     29910     29911     29907     29909
     29911     29907     29908     29913     29917     29918     29914     29913     29916
     29914     29913     29915     29915     29913     29916     29917     29913     29916
     29917     29913     29915     29917     29913     29914     29919     29923     29924
     29920     29919     29922     29920     29919     29921     29921     29919     29922
     29923     29919     29922     29923     29919     29921     29923     29919     29920
     29925     29929     29930     29926     29925     29928     29926     29925     29927
     29927     29925     29928     29929     29925     29928     29929     29925     29927
     29929     29925     29926     29931     29935     29936     29932     29931     29934
     29932     29931     29933     29933     29931     29934     29935     29931     29934
     29935     29931     29933     29935     29931     29932     29937     29941     29942
     29938     29937     29940     29938     29937     29939     29939     29937     29940
     29941     29937     29940     29941     29937     29939     29941     29937     29938
     29943     29947     29948     29944     29943     29946     29944     29943     29945
     29945     29943     29946     29947     29943     29946     29947     29943     29945
     29947     29943     29944     29949     29953     29954     29950     29949     29952
     29950     29949     29951     29951     29949     29952     29953     29949     29952
     29953     29949     29951     29953     29949     29950     29955     29959     29960
     29956     29955     29958     29956     29955     29957     29957     29955     29958
     29959     29955     29958     29959     29955     29957     29959     29955     29956
     29961     29965     29966     29962     29961     29964     29962     29961     29963
     29963     29961     29964     29965     29961     29964     29965     29961     29963
     29965     29961     29962     29967     29971     29972     29968     29967     29970
     29968     29967     29969     29969     29967     29970     29971     29967     29970
     29971     29967     29969     29971     29967     29968     29973     29977     29978
     29974     29973     29976     29974     29973     29975     29975     29973     29976
     29977     29973     29976     29977     29973     29975     29977     29973     29974
     29979     29983     29984     29980     29979     29982     29980     29979     29981
     29981     29979     29982     29983     29979     29982     29983     29979     29981
     29983     29979     29980     29985     29989     29990     29986     29985     29988
     29986     29985     29987     29987     29985     29988     29989     29985     29988
     29989     29985     29987     29989     29985     29986     29991     29995     29996
     29992     29991     29994     29992     29991     29993     29993     29991     29994
     29995     29991     29994     29995     29991     29993     29995     29991     29992
     29997     30001     30002     29998     29997     30000     29998     29997     29999
     29999     29997     30000     30001     29997     30000     30001     29997     29999
     30001     29997     29998     30003     30007     30008     30004     30003     30006
     30004     30003     30005     30005     30003     30006     30007     30003     30006
     30007     30003     30005     30007     30003     30004     30009     30013     30014
     30010     30009     30012     30010     30009     30011     30011     30009     30012
     30013     30009     30012     30013     30009     30011     30013     30009     30010
     30015     30019     30020     30016     30015     30018     30016     30015     30017
     30017     30015     30018     30019     30015     30018     30019     30015     30017
     30019     30015     30016     30021     30025     30026     30022     30021     30024
     30022     30021     30023     30023     30021     30024     30025     30021     30024
     30025     30021     30023     30025     30021     30022     30027     30031     30032
     30028     30027     30030     30028     30027     30029     30029     30027     30030
     30031     30027     30030     30031     30027     30029     30031     30027     30028
     30033     30037     30038     30034     30033     30036     30034     30033     30035
     30035     30033     30036     30037     30033     30036     30037     30033     30035
     30037     30033     30034     30039     30043     30044     30040     30039     30042
     30040     30039     30041     30041     30039     30042     30043     30039     30042
     30043     30039     30041     30043     30039     30040     30045     30049     30050
     30046     30045     30048     30046     30045     30047     30047     30045     30048
     30049     30045     30048     30049     30045     30047     30049     30045     30046
     30051     30055     30056     30052     30051     30054     30052     30051     30053
     30053     30051     30054     30055     30051     30054     30055     30051     30053
     30055     30051     30052     30057     30061     30062     30058     30057     30060
     30058     30057     30059     30059     30057     30060     30061     30057     30060
     30061     30057     30059     30061     30057     30058     30063     30067     30068
     30064     30063     30066     30064     30063     30065     30065     30063     30066
     30067     30063     30066     30067     30063     30065     30067     30063     30064
     30069     30073     30074     30070     30069     30072     30070     30069     30071
     30071     30069     30072     30073     30069     30072     30073     30069     30071
     30073     30069     30070     30075     30079     30080     30076     30075     30078
     30076     30075     30077     30077     30075     30078     30079     30075     30078
     30079     30075     30077     30079     30075     30076     30081     30085     30086
     30082     30081     30084     30082     30081     30083     30083     30081     30084
     30085     30081     30084     30085     30081     30083     30085     30081     30082
     30087     30091     30092     30088     30087     30090     30088     30087     30089
     30089     30087     30090     30091     30087     30090     30091     30087     30089
     30091     30087     30088     30093     30097     30098     30094     30093     30096
     30094     30093     30095     30095     30093     30096     30097     30093     30096
     30097     30093     30095     30097     30093     30094     30099     30103     30104
     30100     30099     30102     30100     30099     30101     30101     30099     30102
     30103     30099     30102     30103     30099     30101     30103     30099     30100
     30105     30109     30110     30106     30105     30108     30106     30105     30107
     30107     30105     30108     30109     30105     30108     30109     30105     30107
     30109     30105     30106     30111     30115     30116     30112     30111     30114
     30112     30111     30113     30113     30111     30114     30115     30111     30114
     30115     30111     30113     30115     30111     30112     30117     30121     30122
     30118     30117     30120     30118     30117     30119     30119     30117     30120
     30121     30117     30120     30121     30117     30119     30121     30117     30118
     30123     30127     30128     30124     30123     30126     30124     30123     30125
     30125     30123     30126     30127     30123     30126     30127     30123     30125
     30127     30123     30124     30129     30133     30134     30130     30129     30132
     30130     30129     30131     30131     30129     30132     30133     30129     30132
     30133     30129     30131     30133     30129     30130     30135     30139     30140
     30136     30135     30138     30136     30135     30137     30137     30135     30138
     30139     30135     30138     30139     30135     30137     30139     30135     30136
     30141     30145     30146     30142     30141     30144     30142     30141     30143
     30143     30141     30144     30145     30141     30144     30145     30141     30143
     30145     30141     30142     30147     30151     30152     30148     30147     30150
     30148     30147     30149     30149     30147     30150     30151     30147     30150
     30151     30147     30149     30151     30147     30148     30153     30157     30158
     30154     30153     30156     30154     30153     30155     30155     30153     30156
     30157     30153     30156     30157     30153     30155     30157     30153     30154
     30159     30163     30164     30160     30159     30162     30160     30159     30161
     30161     30159     30162     30163     30159     30162     30163     30159     30161
     30163     30159     30160     30165     30169     30170     30166     30165     30168
     30166     30165     30167     30167     30165     30168     30169     30165     30168
     30169     30165     30167     30169     30165     30166     30171     30175     30176
     30172     30171     30174     30172     30171     30173     30173     30171     30174
     30175     30171     30174     30175     30171     30173     30175     30171     30172
     30177     30181     30182     30178     30177     30180     30178     30177     30179
     30179     30177     30180     30181     30177     30180     30181     30177     30179
     30181     30177     30178     30183     30187     30188     30184     30183     30186
     30184     30183     30185     30185     30183     30186     30187     30183     30186
     30187     30183     30185     30187     30183     30184     30189     30193     30194
     30190     30189     30192     30190     30189     30191     30191     30189     30192
     30193     30189     30192     30193     30189     30191     30193     30189     30190
     30195     30199     30200     30196     30195     30198     30196     30195     30197
     30197     30195     30198     30199     30195     30198     30199     30195     30197
     30199     30195     30196     30201     30205     30206     30202     30201     30204
     30202     30201     30203     30203     30201     30204     30205     30201     30204
     30205     30201     30203     30205     30201     30202     30207     30211     30212
     30208     30207     30210     30208     30207     30209     30209     30207     30210
     30211     30207     30210     30211     30207     30209     30211     30207     30208
     30213     30217     30218     30214     30213     30216     30214     30213     30215
     30215     30213     30216     30217     30213     30216     30217     30213     30215
     30217     30213     30214     30219     30223     30224     30220     30219     30222
     30220     30219     30221     30221     30219     30222     30223     30219     30222
     30223     30219     30221     30223     30219     30220     30225     30229     30230
     30226     30225     30228     30226     30225     30227     30227     30225     30228
     30229     30225     30228     30229     30225     30227     30229     30225     30226
     30231     30235     30236     30232     30231     30234     30232     30231     30233
     30233     30231     30234     30235     30231     30234     30235     30231     30233
     30235     30231     30232     30237     30241     30242     30238     30237     30240
     30238     30237     30239     30239     30237     30240     30241     30237     30240
     30241     30237     30239     30241     30237     30238     30243     30247     30248
     30244     30243     30246     30244     30243     30245     30245     30243     30246
     30247     30243     30246     30247     30243     30245     30247     30243     30244
     30249     30253     30254     30250     30249     30252     30250     30249     30251
     30251     30249     30252     30253     30249     30252     30253     30249     30251
     30253     30249     30250     30255     30259     30260     30256     30255     30258
     30256     30255     30257     30257     30255     30258     30259     30255     30258
     30259     30255     30257     30259     30255     30256     30261     30265     30266
     30262     30261     30264     30262     30261     30263     30263     30261     30264
     30265     30261     30264     30265     30261     30263     30265     30261     30262
     30267     30271     30272     30268     30267     30270     30268     30267     30269
     30269     30267     30270     30271     30267     30270     30271     30267     30269
     30271     30267     30268     30273     30277     30278     30274     30273     30276
     30274     30273     30275     30275     30273     30276     30277     30273     30276
     30277     30273     30275     30277     30273     30274     30279     30283     30284
     30280     30279     30282     30280     30279     30281     30281     30279     30282
     30283     30279     30282     30283     30279     30281     30283     30279     30280
     30285     30289     30290     30286     30285     30288     30286     30285     30287
     30287     30285     30288     30289     30285     30288     30289     30285     30287
     30289     30285     30286     30291     30295     30296     30292     30291     30294
     30292     30291     30293     30293     30291     30294     30295     30291     30294
     30295     30291     30293     30295     30291     30292     30297     30301     30302
     30298     30297     30300     30298     30297     30299     30299     30297     30300
     30301     30297     30300     30301     30297     30299     30301     30297     30298
     30303     30307     30308     30304     30303     30306     30304     30303     30305
     30305     30303     30306     30307     30303     30306     30307     30303     30305
     30307     30303     30304     30309     30313     30314     30310     30309     30312
     30310     30309     30311     30311     30309     30312     30313     30309     30312
     30313     30309     30311     30313     30309     30310     30315     30319     30320
     30316     30315     30318     30316     30315     30317     30317     30315     30318
     30319     30315     30318     30319     30315     30317     30319     30315     30316
     30321     30325     30326     30322     30321     30324     30322     30321     30323
     30323     30321     30324     30325     30321     30324     30325     30321     30323
     30325     30321     30322     30327     30331     30332     30328     30327     30330
     30328     30327     30329     30329     30327     30330     30331     30327     30330
     30331     30327     30329     30331     30327     30328     30333     30337     30338
     30334     30333     30336     30334     30333     30335     30335     30333     30336
     30337     30333     30336     30337     30333     30335     30337     30333     30334
     30339     30343     30344     30340     30339     30342     30340     30339     30341
     30341     30339     30342     30343     30339     30342     30343     30339     30341
     30343     30339     30340     30345     30349     30350     30346     30345     30348
     30346     30345     30347     30347     30345     30348     30349     30345     30348
     30349     30345     30347     30349     30345     30346     30351     30355     30356
     30352     30351     30354     30352     30351     30353     30353     30351     30354
     30355     30351     30354     30355     30351     30353     30355     30351     30352
     30357     30361     30362     30358     30357     30360     30358     30357     30359
     30359     30357     30360     30361     30357     30360     30361     30357     30359
     30361     30357     30358     30363     30367     30368     30364     30363     30366
     30364     30363     30365     30365     30363     30366     30367     30363     30366
     30367     30363     30365     30367     30363     30364     30369     30373     30374
     30370     30369     30372     30370     30369     30371     30371     30369     30372
     30373     30369     30372     30373     30369     30371     30373     30369     30370
     30375     30379     30380     30376     30375     30378     30376     30375     30377
     30377     30375     30378     30379     30375     30378     30379     30375     30377
     30379     30375     30376     30381     30385     30386     30382     30381     30384
     30382     30381     30383     30383     30381     30384     30385     30381     30384
     30385     30381     30383     30385     30381     30382     30387     30391     30392
     30388     30387     30390     30388     30387     30389     30389     30387     30390
     30391     30387     30390     30391     30387     30389     30391     30387     30388
     30393     30397     30398     30394     30393     30396     30394     30393     30395
     30395     30393     30396     30397     30393     30396     30397     30393     30395
     30397     30393     30394     30399     30403     30404     30400     30399     30402
     30400     30399     30401     30401     30399     30402     30403     30399     30402
     30403     30399     30401     30403     30399     30400     30405     30409     30410
     30406     30405     30408     30406     30405     30407     30407     30405     30408
     30409     30405     30408     30409     30405     30407     30409     30405     30406
     30411     30415     30416     30412     30411     30414     30412     30411     30413
     30413     30411     30414     30415     30411     30414     30415     30411     30413
     30415     30411     30412     30417     30421     30422     30418     30417     30420
     30418     30417     30419     30419     30417     30420     30421     30417     30420
     30421     30417     30419     30421     30417     30418     30423     30427     30428
     30424     30423     30426     30424     30423     30425     30425     30423     30426
     30427     30423     30426     30427     30423     30425     30427     30423     30424
     30429     30433     30434     30430     30429     30432     30430     30429     30431
     30431     30429     30432     30433     30429     30432     30433     30429     30431
     30433     30429     30430     30435     30439     30440     30436     30435     30438
     30436     30435     30437     30437     30435     30438     30439     30435     30438
     30439     30435     30437     30439     30435     30436     30441     30445     30446
     30442     30441     30444     30442     30441     30443     30443     30441     30444
     30445     30441     30444     30445     30441     30443     30445     30441     30442
     30447     30451     30452     30448     30447     30450     30448     30447     30449
     30449     30447     30450     30451     30447     30450     30451     30447     30449
     30451     30447     30448     30453     30457     30458     30454     30453     30456
     30454     30453     30455     30455     30453     30456     30457     30453     30456
     30457     30453     30455     30457     30453     30454     30459     30463     30464
     30460     30459     30462     30460     30459     30461     30461     30459     30462
     30463     30459     30462     30463     30459     30461     30463     30459     30460
     30465     30469     30470     30466     30465     30468     30466     30465     30467
     30467     30465     30468     30469     30465     30468     30469     30465     30467
     30469     30465     30466     30471     30475     30476     30472     30471     30474
     30472     30471     30473     30473     30471     30474     30475     30471     30474
     30475     30471     30473     30475     30471     30472     30477     30481     30482
     30478     30477     30480     30478     30477     30479     30479     30477     30480
     30481     30477     30480     30481     30477     30479     30481     30477     30478
     30483     30487     30488     30484     30483     30486     30484     30483     30485
     30485     30483     30486     30487     30483     30486     30487     30483     30485
     30487     30483     30484     30489     30493     30494     30490     30489     30492
     30490     30489     30491     30491     30489     30492     30493     30489     30492
     30493     30489     30491     30493     30489     30490     30495     30499     30500
     30496     30495     30498     30496     30495     30497     30497     30495     30498
     30499     30495     30498     30499     30495     30497     30499     30495     30496
     30501     30505     30506     30502     30501     30504     30502     30501     30503
     30503     30501     30504     30505     30501     30504     30505     30501     30503
     30505     30501     30502     30507     30511     30512     30508     30507     30510
     30508     30507     30509     30509     30507     30510     30511     30507     30510
     30511     30507     30509     30511     30507     30508     30513     30517     30518
     30514     30513     30516     30514     30513     30515     30515     30513     30516
     30517     30513     30516     30517     30513     30515     30517     30513     30514
     30519     30523     30524     30520     30519     30522     30520     30519     30521
     30521     30519     30522     30523     30519     30522     30523     30519     30521
     30523     30519     30520     30525     30529     30530     30526     30525     30528
     30526     30525     30527     30527     30525     30528     30529     30525     30528
     30529     30525     30527     30529     30525     30526     30531     30535     30536
     30532     30531     30534     30532     30531     30533     30533     30531     30534
     30535     30531     30534     30535     30531     30533     30535     30531     30532
     30537     30541     30542     30538     30537     30540     30538     30537     30539
     30539     30537     30540     30541     30537     30540     30541     30537     30539
     30541     30537     30538     30543     30547     30548     30544     30543     30546
     30544     30543     30545     30545     30543     30546     30547     30543     30546
     30547     30543     30545     30547     30543     30544     30549     30553     30554
     30550     30549     30552     30550     30549     30551     30551     30549     30552
     30553     30549     30552     30553     30549     30551     30553     30549     30550
     30555     30559     30560     30556     30555     30558     30556     30555     30557
     30557     30555     30558     30559     30555     30558     30559     30555     30557
     30559     30555     30556     30561     30565     30566     30562     30561     30564
     30562     30561     30563     30563     30561     30564     30565     30561     30564
     30565     30561     30563     30565     30561     30562     30567     30571     30572
     30568     30567     30570     30568     30567     30569     30569     30567     30570
     30571     30567     30570     30571     30567     30569     30571     30567     30568
     30573     30577     30578     30574     30573     30576     30574     30573     30575
     30575     30573     30576     30577     30573     30576     30577     30573     30575
     30577     30573     30574     30579     30583     30584     30580     30579     30582
     30580     30579     30581     30581     30579     30582     30583     30579     30582
     30583     30579     30581     30583     30579     30580     30585     30589     30590
     30586     30585     30588     30586     30585     30587     30587     30585     30588
     30589     30585     30588     30589     30585     30587     30589     30585     30586
     30591     30595     30596     30592     30591     30594     30592     30591     30593
     30593     30591     30594     30595     30591     30594     30595     30591     30593
     30595     30591     30592     30597     30601     30602     30598     30597     30600
     30598     30597     30599     30599     30597     30600     30601     30597     30600
     30601     30597     30599     30601     30597     30598     30603     30607     30608
     30604     30603     30606     30604     30603     30605     30605     30603     30606
     30607     30603     30606     30607     30603     30605     30607     30603     30604
     30609     30613     30614     30610     30609     30612     30610     30609     30611
     30611     30609     30612     30613     30609     30612     30613     30609     30611
     30613     30609     30610     30615     30619     30620     30616     30615     30618
     30616     30615     30617     30617     30615     30618     30619     30615     30618
     30619     30615     30617     30619     30615     30616     30621     30625     30626
     30622     30621     30624     30622     30621     30623     30623     30621     30624
     30625     30621     30624     30625     30621     30623     30625     30621     30622
     30627     30631     30632     30628     30627     30630     30628     30627     30629
     30629     30627     30630     30631     30627     30630     30631     30627     30629
     30631     30627     30628     30633     30637     30638     30634     30633     30636
     30634     30633     30635     30635     30633     30636     30637     30633     30636
     30637     30633     30635     30637     30633     30634     30639     30643     30644
     30640     30639     30642     30640     30639     30641     30641     30639     30642
     30643     30639     30642     30643     30639     30641     30643     30639     30640
     30645     30649     30650     30646     30645     30648     30646     30645     30647
     30647     30645     30648     30649     30645     30648     30649     30645     30647
     30649     30645     30646     30651     30655     30656     30652     30651     30654
     30652     30651     30653     30653     30651     30654     30655     30651     30654
     30655     30651     30653     30655     30651     30652     30657     30661     30662
     30658     30657     30660     30658     30657     30659     30659     30657     30660
     30661     30657     30660     30661     30657     30659     30661     30657     30658
     30663     30667     30668     30664     30663     30666     30664     30663     30665
     30665     30663     30666     30667     30663     30666     30667     30663     30665
     30667     30663     30664     30669     30673     30674     30670     30669     30672
     30670     30669     30671     30671     30669     30672     30673     30669     30672
     30673     30669     30671     30673     30669     30670     30675     30679     30680
     30676     30675     30678     30676     30675     30677     30677     30675     30678
     30679     30675     30678     30679     30675     30677     30679     30675     30676
     30681     30685     30686     30682     30681     30684     30682     30681     30683
     30683     30681     30684     30685     30681     30684     30685     30681     30683
     30685     30681     30682     30687     30691     30692     30688     30687     30690
     30688     30687     30689     30689     30687     30690     30691     30687     30690
     30691     30687     30689     30691     30687     30688     30693     30697     30698
     30694     30693     30696     30694     30693     30695     30695     30693     30696
     30697     30693     30696     30697     30693     30695     30697     30693     30694
     30699     30703     30704     30700     30699     30702     30700     30699     30701
     30701     30699     30702     30703     30699     30702     30703     30699     30701
     30703     30699     30700     30705     30709     30710     30706     30705     30708
     30706     30705     30707     30707     30705     30708     30709     30705     30708
     30709     30705     30707     30709     30705     30706     30711     30715     30716
     30712     30711     30714     30712     30711     30713     30713     30711     30714
     30715     30711     30714     30715     30711     30713     30715     30711     30712
     30717     30721     30722     30718     30717     30720     30718     30717     30719
     30719     30717     30720     30721     30717     30720     30721     30717     30719
     30721     30717     30718     30723     30727     30728     30724     30723     30726
     30724     30723     30725     30725     30723     30726     30727     30723     30726
     30727     30723     30725     30727     30723     30724     30729     30733     30734
     30730     30729     30732     30730     30729     30731     30731     30729     30732
     30733     30729     30732     30733     30729     30731     30733     30729     30730
     30735     30739     30740     30736     30735     30738     30736     30735     30737
     30737     30735     30738     30739     30735     30738     30739     30735     30737
     30739     30735     30736     30741     30745     30746     30742     30741     30744
     30742     30741     30743     30743     30741     30744     30745     30741     30744
     30745     30741     30743     30745     30741     30742     30747     30751     30752
     30748     30747     30750     30748     30747     30749     30749     30747     30750
     30751     30747     30750     30751     30747     30749     30751     30747     30748
     30753     30757     30758     30754     30753     30756     30754     30753     30755
     30755     30753     30756     30757     30753     30756     30757     30753     30755
     30757     30753     30754     30759     30763     30764     30760     30759     30762
     30760     30759     30761     30761     30759     30762     30763     30759     30762
     30763     30759     30761     30763     30759     30760     30765     30769     30770
     30766     30765     30768     30766     30765     30767     30767     30765     30768
     30769     30765     30768     30769     30765     30767     30769     30765     30766
     30771     30775     30776     30772     30771     30774     30772     30771     30773
     30773     30771     30774     30775     30771     30774     30775     30771     30773
     30775     30771     30772     30777     30781     30782     30778     30777     30780
     30778     30777     30779     30779     30777     30780     30781     30777     30780
     30781     30777     30779     30781     30777     30778     30783     30787     30788
     30784     30783     30786     30784     30783     30785     30785     30783     30786
     30787     30783     30786     30787     30783     30785     30787     30783     30784
     30789     30793     30794     30790     30789     30792     30790     30789     30791
     30791     30789     30792     30793     30789     30792     30793     30789     30791
     30793     30789     30790     30795     30799     30800     30796     30795     30798
     30796     30795     30797     30797     30795     30798     30799     30795     30798
     30799     30795     30797     30799     30795     30796     30801     30805     30806
     30802     30801     30804     30802     30801     30803     30803     30801     30804
     30805     30801     30804     30805     30801     30803     30805     30801     30802
     30807     30811     30812     30808     30807     30810     30808     30807     30809
     30809     30807     30810     30811     30807     30810     30811     30807     30809
     30811     30807     30808     30813     30817     30818     30814     30813     30816
     30814     30813     30815     30815     30813     30816     30817     30813     30816
     30817     30813     30815     30817     30813     30814     30819     30823     30824
     30820     30819     30822     30820     30819     30821     30821     30819     30822
     30823     30819     30822     30823     30819     30821     30823     30819     30820
     30825     30829     30830     30826     30825     30828     30826     30825     30827
     30827     30825     30828     30829     30825     30828     30829     30825     30827
     30829     30825     30826     30831     30835     30836     30832     30831     30834
     30832     30831     30833     30833     30831     30834     30835     30831     30834
     30835     30831     30833     30835     30831     30832     30837     30841     30842
     30838     30837     30840     30838     30837     30839     30839     30837     30840
     30841     30837     30840     30841     30837     30839     30841     30837     30838
     30843     30847     30848     30844     30843     30846     30844     30843     30845
     30845     30843     30846     30847     30843     30846     30847     30843     30845
     30847     30843     30844     30849     30853     30854     30850     30849     30852
     30850     30849     30851     30851     30849     30852     30853     30849     30852
     30853     30849     30851     30853     30849     30850     30855     30859     30860
     30856     30855     30858     30856     30855     30857     30857     30855     30858
     30859     30855     30858     30859     30855     30857     30859     30855     30856
     30861     30865     30866     30862     30861     30864     30862     30861     30863
     30863     30861     30864     30865     30861     30864     30865     30861     30863
     30865     30861     30862     30867     30871     30872     30868     30867     30870
     30868     30867     30869     30869     30867     30870     30871     30867     30870
     30871     30867     30869     30871     30867     30868     30873     30877     30878
     30874     30873     30876     30874     30873     30875     30875     30873     30876
     30877     30873     30876     30877     30873     30875     30877     30873     30874
     30879     30883     30884     30880     30879     30882     30880     30879     30881
     30881     30879     30882     30883     30879     30882     30883     30879     30881
     30883     30879     30880     30885     30889     30890     30886     30885     30888
     30886     30885     30887     30887     30885     30888     30889     30885     30888
     30889     30885     30887     30889     30885     30886     30891     30895     30896
     30892     30891     30894     30892     30891     30893     30893     30891     30894
     30895     30891     30894     30895     30891     30893     30895     30891     30892
     30897     30901     30902     30898     30897     30900     30898     30897     30899
     30899     30897     30900     30901     30897     30900     30901     30897     30899
     30901     30897     30898     30903     30907     30908     30904     30903     30906
     30904     30903     30905     30905     30903     30906     30907     30903     30906
     30907     30903     30905     30907     30903     30904     30909     30913     30914
     30910     30909     30912     30910     30909     30911     30911     30909     30912
     30913     30909     30912     30913     30909     30911     30913     30909     30910
     30915     30919     30920     30916     30915     30918     30916     30915     30917
     30917     30915     30918     30919     30915     30918     30919     30915     30917
     30919     30915     30916     30921     30925     30926     30922     30921     30924
     30922     30921     30923     30923     30921     30924     30925     30921     30924
     30925     30921     30923     30925     30921     30922     30927     30931     30932
     30928     30927     30930     30928     30927     30929     30929     30927     30930
     30931     30927     30930     30931     30927     30929     30931     30927     30928
     30933     30937     30938     30934     30933     30936     30934     30933     30935
     30935     30933     30936     30937     30933     30936     30937     30933     30935
     30937     30933     30934     30939     30943     30944     30940     30939     30942
     30940     30939     30941     30941     30939     30942     30943     30939     30942
     30943     30939     30941     30943     30939     30940     30945     30949     30950
     30946     30945     30948     30946     30945     30947     30947     30945     30948
     30949     30945     30948     30949     30945     30947     30949     30945     30946
     30951     30955     30956     30952     30951     30954     30952     30951     30953
     30953     30951     30954     30955     30951     30954     30955     30951     30953
     30955     30951     30952     30957     30961     30962     30958     30957     30960
     30958     30957     30959     30959     30957     30960     30961     30957     30960
     30961     30957     30959     30961     30957     30958     30963     30967     30968
     30964     30963     30966     30964     30963     30965     30965     30963     30966
     30967     30963     30966     30967     30963     30965     30967     30963     30964
     30969     30973     30974     30970     30969     30972     30970     30969     30971
     30971     30969     30972     30973     30969     30972     30973     30969     30971
     30973     30969     30970     30975     30979     30980     30976     30975     30978
     30976     30975     30977     30977     30975     30978     30979     30975     30978
     30979     30975     30977     30979     30975     30976     30981     30985     30986
     30982     30981     30984     30982     30981     30983     30983     30981     30984
     30985     30981     30984     30985     30981     30983     30985     30981     30982
     30987     30991     30992     30988     30987     30990     30988     30987     30989
     30989     30987     30990     30991     30987     30990     30991     30987     30989
     30991     30987     30988     30993     30997     30998     30994     30993     30996
     30994     30993     30995     30995     30993     30996     30997     30993     30996
     30997     30993     30995     30997     30993     30994     30999     31003     31004
     31000     30999     31002     31000     30999     31001     31001     30999     31002
     31003     30999     31002     31003     30999     31001     31003     30999     31000
     31005     31009     31010     31006     31005     31008     31006     31005     31007
     31007     31005     31008     31009     31005     31008     31009     31005     31007
     31009     31005     31006     31011     31015     31016     31012     31011     31014
     31012     31011     31013     31013     31011     31014     31015     31011     31014
     31015     31011     31013     31015     31011     31012     31017     31021     31022
     31018     31017     31020     31018     31017     31019     31019     31017     31020
     31021     31017     31020     31021     31017     31019     31021     31017     31018
     31023     31027     31028     31024     31023     31026     31024     31023     31025
     31025     31023     31026     31027     31023     31026     31027     31023     31025
     31027     31023     31024     31029     31033     31034     31030     31029     31032
     31030     31029     31031     31031     31029     31032     31033     31029     31032
     31033     31029     31031     31033     31029     31030     31035     31039     31040
     31036     31035     31038     31036     31035     31037     31037     31035     31038
     31039     31035     31038     31039     31035     31037     31039     31035     31036
     31041     31045     31046     31042     31041     31044     31042     31041     31043
     31043     31041     31044     31045     31041     31044     31045     31041     31043
     31045     31041     31042     31047     31051     31052     31048     31047     31050
     31048     31047     31049     31049     31047     31050     31051     31047     31050
     31051     31047     31049     31051     31047     31048     31053     31057     31058
     31054     31053     31056     31054     31053     31055     31055     31053     31056
     31057     31053     31056     31057     31053     31055     31057     31053     31054
     31059     31063     31064     31060     31059     31062     31060     31059     31061
     31061     31059     31062     31063     31059     31062     31063     31059     31061
     31063     31059     31060     31065     31069     31070     31066     31065     31068
     31066     31065     31067     31067     31065     31068     31069     31065     31068
     31069     31065     31067     31069     31065     31066     31071     31075     31076
     31072     31071     31074     31072     31071     31073     31073     31071     31074
     31075     31071     31074     31075     31071     31073     31075     31071     31072
     31077     31081     31082     31078     31077     31080     31078     31077     31079
     31079     31077     31080     31081     31077     31080     31081     31077     31079
     31081     31077     31078     31083     31087     31088     31084     31083     31086
     31084     31083     31085     31085     31083     31086     31087     31083     31086
     31087     31083     31085     31087     31083     31084     31089     31093     31094
     31090     31089     31092     31090     31089     31091     31091     31089     31092
     31093     31089     31092     31093     31089     31091     31093     31089     31090
     31095     31099     31100     31096     31095     31098     31096     31095     31097
     31097     31095     31098     31099     31095     31098     31099     31095     31097
     31099     31095     31096     31101     31105     31106     31102     31101     31104
     31102     31101     31103     31103     31101     31104     31105     31101     31104
     31105     31101     31103     31105     31101     31102     31107     31111     31112
     31108     31107     31110     31108     31107     31109     31109     31107     31110
     31111     31107     31110     31111     31107     31109     31111     31107     31108
     31113     31117     31118     31114     31113     31116     31114     31113     31115
     31115     31113     31116     31117     31113     31116     31117     31113     31115
     31117     31113     31114     31119     31123     31124     31120     31119     31122
     31120     31119     31121     31121     31119     31122     31123     31119     31122
     31123     31119     31121     31123     31119     31120     31125     31129     31130
     31126     31125     31128     31126     31125     31127     31127     31125     31128
     31129     31125     31128     31129     31125     31127     31129     31125     31126
     31131     31135     31136     31132     31131     31134     31132     31131     31133
     31133     31131     31134     31135     31131     31134     31135     31131     31133
     31135     31131     31132     31137     31141     31142     31138     31137     31140
     31138     31137     31139     31139     31137     31140     31141     31137     31140
     31141     31137     31139     31141     31137     31138     31143     31147     31148
     31144     31143     31146     31144     31143     31145     31145     31143     31146
     31147     31143     31146     31147     31143     31145     31147     31143     31144
     31149     31153     31154     31150     31149     31152     31150     31149     31151
     31151     31149     31152     31153     31149     31152     31153     31149     31151
     31153     31149     31150     31155     31159     31160     31156     31155     31158
     31156     31155     31157     31157     31155     31158     31159     31155     31158
     31159     31155     31157     31159     31155     31156     31161     31165     31166
     31162     31161     31164     31162     31161     31163     31163     31161     31164
     31165     31161     31164     31165     31161     31163     31165     31161     31162
     31167     31171     31172     31168     31167     31170     31168     31167     31169
     31169     31167     31170     31171     31167     31170     31171     31167     31169
     31171     31167     31168     31173     31177     31178     31174     31173     31176
     31174     31173     31175     31175     31173     31176     31177     31173     31176
     31177     31173     31175     31177     31173     31174     31179     31183     31184
     31180     31179     31182     31180     31179     31181     31181     31179     31182
     31183     31179     31182     31183     31179     31181     31183     31179     31180
     31185     31189     31190     31186     31185     31188     31186     31185     31187
     31187     31185     31188     31189     31185     31188     31189     31185     31187
     31189     31185     31186     31191     31195     31196     31192     31191     31194
     31192     31191     31193     31193     31191     31194     31195     31191     31194
     31195     31191     31193     31195     31191     31192     31197     31201     31202
     31198     31197     31200     31198     31197     31199     31199     31197     31200
     31201     31197     31200     31201     31197     31199     31201     31197     31198
     31203     31207     31208     31204     31203     31206     31204     31203     31205
     31205     31203     31206     31207     31203     31206     31207     31203     31205
     31207     31203     31204     31209     31213     31214     31210     31209     31212
     31210     31209     31211     31211     31209     31212     31213     31209     31212
     31213     31209     31211     31213     31209     31210     31215     31219     31220
     31216     31215     31218     31216     31215     31217     31217     31215     31218
     31219     31215     31218     31219     31215     31217     31219     31215     31216
     31221     31225     31226     31222     31221     31224     31222     31221     31223
     31223     31221     31224     31225     31221     31224     31225     31221     31223
     31225     31221     31222     31227     31231     31232     31228     31227     31230
     31228     31227     31229     31229     31227     31230     31231     31227     31230
     31231     31227     31229     31231     31227     31228     31233     31237     31238
     31234     31233     31236     31234     31233     31235     31235     31233     31236
     31237     31233     31236     31237     31233     31235     31237     31233     31234
     31239     31243     31244     31240     31239     31242     31240     31239     31241
     31241     31239     31242     31243     31239     31242     31243     31239     31241
     31243     31239     31240     31245     31249     31250     31246     31245     31248
     31246     31245     31247     31247     31245     31248     31249     31245     31248
     31249     31245     31247     31249     31245     31246     31251     31255     31256
     31252     31251     31254     31252     31251     31253     31253     31251     31254
     31255     31251     31254     31255     31251     31253     31255     31251     31252
     31257     31261     31262     31258     31257     31260     31258     31257     31259
     31259     31257     31260     31261     31257     31260     31261     31257     31259
     31261     31257     31258     31263     31267     31268     31264     31263     31266
     31264     31263     31265     31265     31263     31266     31267     31263     31266
     31267     31263     31265     31267     31263     31264     31269     31273     31274
     31270     31269     31272     31270     31269     31271     31271     31269     31272
     31273     31269     31272     31273     31269     31271     31273     31269     31270
     31275     31279     31280     31276     31275     31278     31276     31275     31277
     31277     31275     31278     31279     31275     31278     31279     31275     31277
     31279     31275     31276     31281     31285     31286     31282     31281     31284
     31282     31281     31283     31283     31281     31284     31285     31281     31284
     31285     31281     31283     31285     31281     31282     31287     31291     31292
     31288     31287     31290     31288     31287     31289     31289     31287     31290
     31291     31287     31290     31291     31287     31289     31291     31287     31288
     31293     31297     31298     31294     31293     31296     31294     31293     31295
     31295     31293     31296     31297     31293     31296     31297     31293     31295
     31297     31293     31294     31299     31303     31304     31300     31299     31302
     31300     31299     31301     31301     31299     31302     31303     31299     31302
     31303     31299     31301     31303     31299     31300     31305     31309     31310
     31306     31305     31308     31306     31305     31307     31307     31305     31308
     31309     31305     31308     31309     31305     31307     31309     31305     31306
     31311     31315     31316     31312     31311     31314     31312     31311     31313
     31313     31311     31314     31315     31311     31314     31315     31311     31313
     31315     31311     31312     31317     31321     31322     31318     31317     31320
     31318     31317     31319     31319     31317     31320     31321     31317     31320
     31321     31317     31319     31321     31317     31318     31323     31327     31328
     31324     31323     31326     31324     31323     31325     31325     31323     31326
     31327     31323     31326     31327     31323     31325     31327     31323     31324
     31329     31333     31334     31330     31329     31332     31330     31329     31331
     31331     31329     31332     31333     31329     31332     31333     31329     31331
     31333     31329     31330     31335     31339     31340     31336     31335     31338
     31336     31335     31337     31337     31335     31338     31339     31335     31338
     31339     31335     31337     31339     31335     31336     31341     31345     31346
     31342     31341     31344     31342     31341     31343     31343     31341     31344
     31345     31341     31344     31345     31341     31343     31345     31341     31342
     31347     31351     31352     31348     31347     31350     31348     31347     31349
     31349     31347     31350     31351     31347     31350     31351     31347     31349
     31351     31347     31348     31353     31357     31358     31354     31353     31356
     31354     31353     31355     31355     31353     31356     31357     31353     31356
     31357     31353     31355     31357     31353     31354     31359     31363     31364
     31360     31359     31362     31360     31359     31361     31361     31359     31362
     31363     31359     31362     31363     31359     31361     31363     31359     31360
     31365     31369     31370     31366     31365     31368     31366     31365     31367
     31367     31365     31368     31369     31365     31368     31369     31365     31367
     31369     31365     31366     31371     31375     31376     31372     31371     31374
     31372     31371     31373     31373     31371     31374     31375     31371     31374
     31375     31371     31373     31375     31371     31372     31377     31381     31382
     31378     31377     31380     31378     31377     31379     31379     31377     31380
     31381     31377     31380     31381     31377     31379     31381     31377     31378
     31383     31387     31388     31384     31383     31386     31384     31383     31385
     31385     31383     31386     31387     31383     31386     31387     31383     31385
     31387     31383     31384     31389     31393     31394     31390     31389     31392
     31390     31389     31391     31391     31389     31392     31393     31389     31392
     31393     31389     31391     31393     31389     31390     31395     31399     31400
     31396     31395     31398     31396     31395     31397     31397     31395     31398
     31399     31395     31398     31399     31395     31397     31399     31395     31396
     31401     31405     31406     31402     31401     31404     31402     31401     31403
     31403     31401     31404     31405     31401     31404     31405     31401     31403
     31405     31401     31402     31407     31411     31412     31408     31407     31410
     31408     31407     31409     31409     31407     31410     31411     31407     31410
     31411     31407     31409     31411     31407     31408     31413     31417     31418
     31414     31413     31416     31414     31413     31415     31415     31413     31416
     31417     31413     31416     31417     31413     31415     31417     31413     31414
     31419     31423     31424     31420     31419     31422     31420     31419     31421
     31421     31419     31422     31423     31419     31422     31423     31419     31421
     31423     31419     31420     31425     31429     31430     31426     31425     31428
     31426     31425     31427     31427     31425     31428     31429     31425     31428
     31429     31425     31427     31429     31425     31426     31431     31435     31436
     31432     31431     31434     31432     31431     31433     31433     31431     31434
     31435     31431     31434     31435     31431     31433     31435     31431     31432
     31437     31441     31442     31438     31437     31440     31438     31437     31439
     31439     31437     31440     31441     31437     31440     31441     31437     31439
     31441     31437     31438     31443     31447     31448     31444     31443     31446
     31444     31443     31445     31445     31443     31446     31447     31443     31446
     31447     31443     31445     31447     31443     31444     31449     31453     31454
     31450     31449     31452     31450     31449     31451     31451     31449     31452
     31453     31449     31452     31453     31449     31451     31453     31449     31450
     31455     31459     31460     31456     31455     31458     31456     31455     31457
     31457     31455     31458     31459     31455     31458     31459     31455     31457
     31459     31455     31456     31461     31465     31466     31462     31461     31464
     31462     31461     31463     31463     31461     31464     31465     31461     31464
     31465     31461     31463     31465     31461     31462     31467     31471     31472
     31468     31467     31470     31468     31467     31469     31469     31467     31470
     31471     31467     31470     31471     31467     31469     31471     31467     31468
     31473     31477     31478     31474     31473     31476     31474     31473     31475
     31475     31473     31476     31477     31473     31476     31477     31473     31475
     31477     31473     31474     31479     31483     31484     31480     31479     31482
     31480     31479     31481     31481     31479     31482     31483     31479     31482
     31483     31479     31481     31483     31479     31480     31485     31489     31490
     31486     31485     31488     31486     31485     31487     31487     31485     31488
     31489     31485     31488     31489     31485     31487     31489     31485     31486
     31491     31495     31496     31492     31491     31494     31492     31491     31493
     31493     31491     31494     31495     31491     31494     31495     31491     31493
     31495     31491     31492     31497     31501     31502     31498     31497     31500
     31498     31497     31499     31499     31497     31500     31501     31497     31500
     31501     31497     31499     31501     31497     31498     31503     31507     31508
     31504     31503     31506     31504     31503     31505     31505     31503     31506
     31507     31503     31506     31507     31503     31505     31507     31503     31504
     31509     31513     31514     31510     31509     31512     31510     31509     31511
     31511     31509     31512     31513     31509     31512     31513     31509     31511
     31513     31509     31510     31515     31519     31520     31516     31515     31518
     31516     31515     31517     31517     31515     31518     31519     31515     31518
     31519     31515     31517     31519     31515     31516     31521     31525     31526
     31522     31521     31524     31522     31521     31523     31523     31521     31524
     31525     31521     31524     31525     31521     31523     31525     31521     31522
     31527     31531     31532     31528     31527     31530     31528     31527     31529
     31529     31527     31530     31531     31527     31530     31531     31527     31529
     31531     31527     31528     31533     31537     31538     31534     31533     31536
     31534     31533     31535     31535     31533     31536     31537     31533     31536
     31537     31533     31535     31537     31533     31534     31539     31543     31544
     31540     31539     31542     31540     31539     31541     31541     31539     31542
     31543     31539     31542     31543     31539     31541     31543     31539     31540
     31545     31549     31550     31546     31545     31548     31546     31545     31547
     31547     31545     31548     31549     31545     31548     31549     31545     31547
     31549     31545     31546     31551     31555     31556     31552     31551     31554
     31552     31551     31553     31553     31551     31554     31555     31551     31554
     31555     31551     31553     31555     31551     31552     31557     31561     31562
     31558     31557     31560     31558     31557     31559     31559     31557     31560
     31561     31557     31560     31561     31557     31559     31561     31557     31558
     31563     31567     31568     31564     31563     31566     31564     31563     31565
     31565     31563     31566     31567     31563     31566     31567     31563     31565
     31567     31563     31564     31569     31573     31574     31570     31569     31572
     31570     31569     31571     31571     31569     31572     31573     31569     31572
     31573     31569     31571     31573     31569     31570     31575     31579     31580
     31576     31575     31578     31576     31575     31577     31577     31575     31578
     31579     31575     31578     31579     31575     31577     31579     31575     31576
     31581     31585     31586     31582     31581     31584     31582     31581     31583
     31583     31581     31584     31585     31581     31584     31585     31581     31583
     31585     31581     31582     31587     31591     31592     31588     31587     31590
     31588     31587     31589     31589     31587     31590     31591     31587     31590
     31591     31587     31589     31591     31587     31588     31593     31597     31598
     31594     31593     31596     31594     31593     31595     31595     31593     31596
     31597     31593     31596     31597     31593     31595     31597     31593     31594
     31599     31603     31604     31600     31599     31602     31600     31599     31601
     31601     31599     31602     31603     31599     31602     31603     31599     31601
     31603     31599     31600     31605     31609     31610     31606     31605     31608
     31606     31605     31607     31607     31605     31608     31609     31605     31608
     31609     31605     31607     31609     31605     31606     31611     31615     31616
     31612     31611     31614     31612     31611     31613     31613     31611     31614
     31615     31611     31614     31615     31611     31613     31615     31611     31612
     31617     31621     31622     31618     31617     31620     31618     31617     31619
     31619     31617     31620     31621     31617     31620     31621     31617     31619
     31621     31617     31618     31623     31627     31628     31624     31623     31626
     31624     31623     31625     31625     31623     31626     31627     31623     31626
     31627     31623     31625     31627     31623     31624     31629     31633     31634
     31630     31629     31632     31630     31629     31631     31631     31629     31632
     31633     31629     31632     31633     31629     31631     31633     31629     31630
     31635     31639     31640     31636     31635     31638     31636     31635     31637
     31637     31635     31638     31639     31635     31638     31639     31635     31637
     31639     31635     31636     31641     31645     31646     31642     31641     31644
     31642     31641     31643     31643     31641     31644     31645     31641     31644
     31645     31641     31643     31645     31641     31642     31647     31651     31652
     31648     31647     31650     31648     31647     31649     31649     31647     31650
     31651     31647     31650     31651     31647     31649     31651     31647     31648
     31653     31657     31658     31654     31653     31656     31654     31653     31655
     31655     31653     31656     31657     31653     31656     31657     31653     31655
     31657     31653     31654     31659     31663     31664     31660     31659     31662
     31660     31659     31661     31661     31659     31662     31663     31659     31662
     31663     31659     31661     31663     31659     31660     31665     31669     31670
     31666     31665     31668     31666     31665     31667     31667     31665     31668
     31669     31665     31668     31669     31665     31667     31669     31665     31666
     31671     31675     31676     31672     31671     31674     31672     31671     31673
     31673     31671     31674     31675     31671     31674     31675     31671     31673
     31675     31671     31672     31677     31681     31682     31678     31677     31680
     31678     31677     31679     31679     31677     31680     31681     31677     31680
     31681     31677     31679     31681     31677     31678     31683     31687     31688
     31684     31683     31686     31684     31683     31685     31685     31683     31686
     31687     31683     31686     31687     31683     31685     31687     31683     31684
     31689     31693     31694     31690     31689     31692     31690     31689     31691
     31691     31689     31692     31693     31689     31692     31693     31689     31691
     31693     31689     31690     31695     31699     31700     31696     31695     31698
     31696     31695     31697     31697     31695     31698     31699     31695     31698
     31699     31695     31697     31699     31695     31696     31701     31705     31706
     31702     31701     31704     31702     31701     31703     31703     31701     31704
     31705     31701     31704     31705     31701     31703     31705     31701     31702
     31707     31711     31712     31708     31707     31710     31708     31707     31709
     31709     31707     31710     31711     31707     31710     31711     31707     31709
     31711     31707     31708     31713     31717     31718     31714     31713     31716
     31714     31713     31715     31715     31713     31716     31717     31713     31716
     31717     31713     31715     31717     31713     31714     31719     31723     31724
     31720     31719     31722     31720     31719     31721     31721     31719     31722
     31723     31719     31722     31723     31719     31721     31723     31719     31720
     31725     31729     31730     31726     31725     31728     31726     31725     31727
     31727     31725     31728     31729     31725     31728     31729     31725     31727
     31729     31725     31726     31731     31735     31736     31732     31731     31734
     31732     31731     31733     31733     31731     31734     31735     31731     31734
     31735     31731     31733     31735     31731     31732     31737     31741     31742
     31738     31737     31740     31738     31737     31739     31739     31737     31740
     31741     31737     31740     31741     31737     31739     31741     31737     31738
     31743     31747     31748     31744     31743     31746     31744     31743     31745
     31745     31743     31746     31747     31743     31746     31747     31743     31745
     31747     31743     31744     31749     31753     31754     31750     31749     31752
     31750     31749     31751     31751     31749     31752     31753     31749     31752
     31753     31749     31751     31753     31749     31750     31755     31759     31760
     31756     31755     31758     31756     31755     31757     31757     31755     31758
     31759     31755     31758     31759     31755     31757     31759     31755     31756
     31761     31765     31766     31762     31761     31764     31762     31761     31763
     31763     31761     31764     31765     31761     31764     31765     31761     31763
     31765     31761     31762     31767     31771     31772     31768     31767     31770
     31768     31767     31769     31769     31767     31770     31771     31767     31770
     31771     31767     31769     31771     31767     31768     31773     31777     31778
     31774     31773     31776     31774     31773     31775     31775     31773     31776
     31777     31773     31776     31777     31773     31775     31777     31773     31774
     31779     31783     31784     31780     31779     31782     31780     31779     31781
     31781     31779     31782     31783     31779     31782     31783     31779     31781
     31783     31779     31780     31785     31789     31790     31786     31785     31788
     31786     31785     31787     31787     31785     31788     31789     31785     31788
     31789     31785     31787     31789     31785     31786     31791     31795     31796
     31792     31791     31794     31792     31791     31793     31793     31791     31794
     31795     31791     31794     31795     31791     31793     31795     31791     31792
     31797     31801     31802     31798     31797     31800     31798     31797     31799
     31799     31797     31800     31801     31797     31800     31801     31797     31799
     31801     31797     31798     31803     31807     31808     31804     31803     31806
     31804     31803     31805     31805     31803     31806     31807     31803     31806
     31807     31803     31805     31807     31803     31804     31809     31813     31814
     31810     31809     31812     31810     31809     31811     31811     31809     31812
     31813     31809     31812     31813     31809     31811     31813     31809     31810
     31815     31819     31820     31816     31815     31818     31816     31815     31817
     31817     31815     31818     31819     31815     31818     31819     31815     31817
     31819     31815     31816     31821     31825     31826     31822     31821     31824
     31822     31821     31823     31823     31821     31824     31825     31821     31824
     31825     31821     31823     31825     31821     31822     31827     31831     31832
     31828     31827     31830     31828     31827     31829     31829     31827     31830
     31831     31827     31830     31831     31827     31829     31831     31827     31828
     31833     31837     31838     31834     31833     31836     31834     31833     31835
     31835     31833     31836     31837     31833     31836     31837     31833     31835
     31837     31833     31834     31839     31843     31844     31840     31839     31842
     31840     31839     31841     31841     31839     31842     31843     31839     31842
     31843     31839     31841     31843     31839     31840     31845     31849     31850
     31846     31845     31848     31846     31845     31847     31847     31845     31848
     31849     31845     31848     31849     31845     31847     31849     31845     31846
     31851     31855     31856     31852     31851     31854     31852     31851     31853
     31853     31851     31854     31855     31851     31854     31855     31851     31853
     31855     31851     31852     31857     31861     31862     31858     31857     31860
     31858     31857     31859     31859     31857     31860     31861     31857     31860
     31861     31857     31859     31861     31857     31858     31863     31867     31868
     31864     31863     31866     31864     31863     31865     31865     31863     31866
     31867     31863     31866     31867     31863     31865     31867     31863     31864
     31869     31873     31874     31870     31869     31872     31870     31869     31871
     31871     31869     31872     31873     31869     31872     31873     31869     31871
     31873     31869     31870     31875     31879     31880     31876     31875     31878
     31876     31875     31877     31877     31875     31878     31879     31875     31878
     31879     31875     31877     31879     31875     31876     31881     31885     31886
     31882     31881     31884     31882     31881     31883     31883     31881     31884
     31885     31881     31884     31885     31881     31883     31885     31881     31882
     31887     31891     31892     31888     31887     31890     31888     31887     31889
     31889     31887     31890     31891     31887     31890     31891     31887     31889
     31891     31887     31888     31893     31897     31898     31894     31893     31896
     31894     31893     31895     31895     31893     31896     31897     31893     31896
     31897     31893     31895     31897     31893     31894     31899     31903     31904
     31900     31899     31902     31900     31899     31901     31901     31899     31902
     31903     31899     31902     31903     31899     31901     31903     31899     31900
     31905     31909     31910     31906     31905     31908     31906     31905     31907
     31907     31905     31908     31909     31905     31908     31909     31905     31907
     31909     31905     31906     31911     31915     31916     31912     31911     31914
     31912     31911     31913     31913     31911     31914     31915     31911     31914
     31915     31911     31913     31915     31911     31912     31917     31921     31922
     31918     31917     31920     31918     31917     31919     31919     31917     31920
     31921     31917     31920     31921     31917     31919     31921     31917     31918
     31923     31927     31928     31924     31923     31926     31924     31923     31925
     31925     31923     31926     31927     31923     31926     31927     31923     31925
     31927     31923     31924     31929     31933     31934     31930     31929     31932
     31930     31929     31931     31931     31929     31932     31933     31929     31932
     31933     31929     31931     31933     31929     31930     31935     31939     31940
     31936     31935     31938     31936     31935     31937     31937     31935     31938
     31939     31935     31938     31939     31935     31937     31939     31935     31936
     31941     31945     31946     31942     31941     31944     31942     31941     31943
     31943     31941     31944     31945     31941     31944     31945     31941     31943
     31945     31941     31942     31947     31951     31952     31948     31947     31950
     31948     31947     31949     31949     31947     31950     31951     31947     31950
     31951     31947     31949     31951     31947     31948     31953     31957     31958
     31954     31953     31956     31954     31953     31955     31955     31953     31956
     31957     31953     31956     31957     31953     31955     31957     31953     31954
     31959     31963     31964     31960     31959     31962     31960     31959     31961
     31961     31959     31962     31963     31959     31962     31963     31959     31961
     31963     31959     31960     31965     31969     31970     31966     31965     31968
     31966     31965     31967     31967     31965     31968     31969     31965     31968
     31969     31965     31967     31969     31965     31966     31971     31975     31976
     31972     31971     31974     31972     31971     31973     31973     31971     31974
     31975     31971     31974     31975     31971     31973     31975     31971     31972
     31977     31981     31982     31978     31977     31980     31978     31977     31979
     31979     31977     31980     31981     31977     31980     31981     31977     31979
     31981     31977     31978     31983     31987     31988     31984     31983     31986
     31984     31983     31985     31985     31983     31986     31987     31983     31986
     31987     31983     31985     31987     31983     31984     31989     31993     31994
     31990     31989     31992     31990     31989     31991     31991     31989     31992
     31993     31989     31992     31993     31989     31991     31993     31989     31990
     31995     31999     32000     31996     31995     31998     31996     31995     31997
     31997     31995     31998     31999     31995     31998     31999     31995     31997
     31999     31995     31996     32001     32005     32006     32002     32001     32004
     32002     32001     32003     32003     32001     32004     32005     32001     32004
     32005     32001     32003     32005     32001     32002     32007     32011     32012
     32008     32007     32010     32008     32007     32009     32009     32007     32010
     32011     32007     32010     32011     32007     32009     32011     32007     32008
     32013     32017     32018     32014     32013     32016     32014     32013     32015
     32015     32013     32016     32017     32013     32016     32017     32013     32015
     32017     32013     32014     32019     32023     32024     32020     32019     32022
     32020     32019     32021     32021     32019     32022     32023     32019     32022
     32023     32019     32021     32023     32019     32020     32025     32029     32030
     32026     32025     32028     32026     32025     32027     32027     32025     32028
     32029     32025     32028     32029     32025     32027     32029     32025     32026
     32031     32035     32036     32032     32031     32034     32032     32031     32033
     32033     32031     32034     32035     32031     32034     32035     32031     32033
     32035     32031     32032     32037     32041     32042     32038     32037     32040
     32038     32037     32039     32039     32037     32040     32041     32037     32040
     32041     32037     32039     32041     32037     32038     32043     32047     32048
     32044     32043     32046     32044     32043     32045     32045     32043     32046
     32047     32043     32046     32047     32043     32045     32047     32043     32044
     32049     32053     32054     32050     32049     32052     32050     32049     32051
     32051     32049     32052     32053     32049     32052     32053     32049     32051
     32053     32049     32050     32055     32059     32060     32056     32055     32058
     32056     32055     32057     32057     32055     32058     32059     32055     32058
     32059     32055     32057     32059     32055     32056     32061     32065     32066
     32062     32061     32064     32062     32061     32063     32063     32061     32064
     32065     32061     32064     32065     32061     32063     32065     32061     32062
     32067     32071     32072     32068     32067     32070     32068     32067     32069
     32069     32067     32070     32071     32067     32070     32071     32067     32069
     32071     32067     32068     32073     32077     32078     32074     32073     32076
     32074     32073     32075     32075     32073     32076     32077     32073     32076
     32077     32073     32075     32077     32073     32074     32079     32083     32084
     32080     32079     32082     32080     32079     32081     32081     32079     32082
     32083     32079     32082     32083     32079     32081     32083     32079     32080
     32085     32089     32090     32086     32085     32088     32086     32085     32087
     32087     32085     32088     32089     32085     32088     32089     32085     32087
     32089     32085     32086     32091     32095     32096     32092     32091     32094
     32092     32091     32093     32093     32091     32094     32095     32091     32094
     32095     32091     32093     32095     32091     32092     32097     32101     32102
     32098     32097     32100     32098     32097     32099     32099     32097     32100
     32101     32097     32100     32101     32097     32099     32101     32097     32098
     32103     32107     32108     32104     32103     32106     32104     32103     32105
     32105     32103     32106     32107     32103     32106     32107     32103     32105
     32107     32103     32104     32109     32113     32114     32110     32109     32112
     32110     32109     32111     32111     32109     32112     32113     32109     32112
     32113     32109     32111     32113     32109     32110     32115     32119     32120
     32116     32115     32118     32116     32115     32117     32117     32115     32118
     32119     32115     32118     32119     32115     32117     32119     32115     32116
     32121     32125     32126     32122     32121     32124     32122     32121     32123
     32123     32121     32124     32125     32121     32124     32125     32121     32123
     32125     32121     32122     32127     32131     32132     32128     32127     32130
     32128     32127     32129     32129     32127     32130     32131     32127     32130
     32131     32127     32129     32131     32127     32128     32133     32137     32138
     32134     32133     32136     32134     32133     32135     32135     32133     32136
     32137     32133     32136     32137     32133     32135     32137     32133     32134
     32139     32143     32144     32140     32139     32142     32140     32139     32141
     32141     32139     32142     32143     32139     32142     32143     32139     32141
     32143     32139     32140     32145     32149     32150     32146     32145     32148
     32146     32145     32147     32147     32145     32148     32149     32145     32148
     32149     32145     32147     32149     32145     32146     32151     32155     32156
     32152     32151     32154     32152     32151     32153     32153     32151     32154
     32155     32151     32154     32155     32151     32153     32155     32151     32152
     32157     32161     32162     32158     32157     32160     32158     32157     32159
     32159     32157     32160     32161     32157     32160     32161     32157     32159
     32161     32157     32158     32163     32167     32168     32164     32163     32166
     32164     32163     32165     32165     32163     32166     32167     32163     32166
     32167     32163     32165     32167     32163     32164     32169     32173     32174
     32170     32169     32172     32170     32169     32171     32171     32169     32172
     32173     32169     32172     32173     32169     32171     32173     32169     32170
     32175     32179     32180     32176     32175     32178     32176     32175     32177
     32177     32175     32178     32179     32175     32178     32179     32175     32177
     32179     32175     32176     32181     32185     32186     32182     32181     32184
     32182     32181     32183     32183     32181     32184     32185     32181     32184
     32185     32181     32183     32185     32181     32182     32187     32191     32192
     32188     32187     32190     32188     32187     32189     32189     32187     32190
     32191     32187     32190     32191     32187     32189     32191     32187     32188
     32193     32197     32198     32194     32193     32196     32194     32193     32195
     32195     32193     32196     32197     32193     32196     32197     32193     32195
     32197     32193     32194     32199     32203     32204     32200     32199     32202
     32200     32199     32201     32201     32199     32202     32203     32199     32202
     32203     32199     32201     32203     32199     32200     32205     32209     32210
     32206     32205     32208     32206     32205     32207     32207     32205     32208
     32209     32205     32208     32209     32205     32207     32209     32205     32206
     32211     32215     32216     32212     32211     32214     32212     32211     32213
     32213     32211     32214     32215     32211     32214     32215     32211     32213
     32215     32211     32212     32217     32221     32222     32218     32217     32220
     32218     32217     32219     32219     32217     32220     32221     32217     32220
     32221     32217     32219     32221     32217     32218     32223     32227     32228
     32224     32223     32226     32224     32223     32225     32225     32223     32226
     32227     32223     32226     32227     32223     32225     32227     32223     32224
     32229     32233     32234     32230     32229     32232     32230     32229     32231
     32231     32229     32232     32233     32229     32232     32233     32229     32231
     32233     32229     32230     32235     32239     32240     32236     32235     32238
     32236     32235     32237     32237     32235     32238     32239     32235     32238
     32239     32235     32237     32239     32235     32236     32241     32245     32246
     32242     32241     32244     32242     32241     32243     32243     32241     32244
     32245     32241     32244     32245     32241     32243     32245     32241     32242
     32247     32251     32252     32248     32247     32250     32248     32247     32249
     32249     32247     32250     32251     32247     32250     32251     32247     32249
     32251     32247     32248     32253     32257     32258     32254     32253     32256
     32254     32253     32255     32255     32253     32256     32257     32253     32256
     32257     32253     32255     32257     32253     32254     32259     32263     32264
     32260     32259     32262     32260     32259     32261     32261     32259     32262
     32263     32259     32262     32263     32259     32261     32263     32259     32260
     32265     32269     32270     32266     32265     32268     32266     32265     32267
     32267     32265     32268     32269     32265     32268     32269     32265     32267
     32269     32265     32266     32271     32275     32276     32272     32271     32274
     32272     32271     32273     32273     32271     32274     32275     32271     32274
     32275     32271     32273     32275     32271     32272     32277     32281     32282
     32278     32277     32280     32278     32277     32279     32279     32277     32280
     32281     32277     32280     32281     32277     32279     32281     32277     32278
     32283     32287     32288     32284     32283     32286     32284     32283     32285
     32285     32283     32286     32287     32283     32286     32287     32283     32285
     32287     32283     32284     32289     32293     32294     32290     32289     32292
     32290     32289     32291     32291     32289     32292     32293     32289     32292
     32293     32289     32291     32293     32289     32290     32295     32299     32300
     32296     32295     32298     32296     32295     32297     32297     32295     32298
     32299     32295     32298     32299     32295     32297     32299     32295     32296
     32301     32305     32306     32302     32301     32304     32302     32301     32303
     32303     32301     32304     32305     32301     32304     32305     32301     32303
     32305     32301     32302     32307     32311     32312     32308     32307     32310
     32308     32307     32309     32309     32307     32310     32311     32307     32310
     32311     32307     32309     32311     32307     32308     32313     32317     32318
     32314     32313     32316     32314     32313     32315     32315     32313     32316
     32317     32313     32316     32317     32313     32315     32317     32313     32314
     32319     32323     32324     32320     32319     32322     32320     32319     32321
     32321     32319     32322     32323     32319     32322     32323     32319     32321
     32323     32319     32320     32325     32329     32330     32326     32325     32328
     32326     32325     32327     32327     32325     32328     32329     32325     32328
     32329     32325     32327     32329     32325     32326     32331     32335     32336
     32332     32331     32334     32332     32331     32333     32333     32331     32334
     32335     32331     32334     32335     32331     32333     32335     32331     32332
     32337     32341     32342     32338     32337     32340     32338     32337     32339
     32339     32337     32340     32341     32337     32340     32341     32337     32339
     32341     32337     32338     32343     32347     32348     32344     32343     32346
     32344     32343     32345     32345     32343     32346     32347     32343     32346
     32347     32343     32345     32347     32343     32344     32349     32353     32354
     32350     32349     32352     32350     32349     32351     32351     32349     32352
     32353     32349     32352     32353     32349     32351     32353     32349     32350
     32355     32359     32360     32356     32355     32358     32356     32355     32357
     32357     32355     32358     32359     32355     32358     32359     32355     32357
     32359     32355     32356     32361     32365     32366     32362     32361     32364
     32362     32361     32363     32363     32361     32364     32365     32361     32364
     32365     32361     32363     32365     32361     32362     32367     32371     32372
     32368     32367     32370     32368     32367     32369     32369     32367     32370
     32371     32367     32370     32371     32367     32369     32371     32367     32368
     32373     32377     32378     32374     32373     32376     32374     32373     32375
     32375     32373     32376     32377     32373     32376     32377     32373     32375
     32377     32373     32374     32379     32383     32384     32380     32379     32382
     32380     32379     32381     32381     32379     32382     32383     32379     32382
     32383     32379     32381     32383     32379     32380     32385     32389     32390
     32386     32385     32388     32386     32385     32387     32387     32385     32388
     32389     32385     32388     32389     32385     32387     32389     32385     32386
     32391     32395     32396     32392     32391     32394     32392     32391     32393
     32393     32391     32394     32395     32391     32394     32395     32391     32393
     32395     32391     32392     32397     32401     32402     32398     32397     32400
     32398     32397     32399     32399     32397     32400     32401     32397     32400
     32401     32397     32399     32401     32397     32398     32403     32407     32408
     32404     32403     32406     32404     32403     32405     32405     32403     32406
     32407     32403     32406     32407     32403     32405     32407     32403     32404
     32409     32413     32414     32410     32409     32412     32410     32409     32411
     32411     32409     32412     32413     32409     32412     32413     32409     32411
     32413     32409     32410     32415     32419     32420     32416     32415     32418
     32416     32415     32417     32417     32415     32418     32419     32415     32418
     32419     32415     32417     32419     32415     32416     32421     32425     32426
     32422     32421     32424     32422     32421     32423     32423     32421     32424
     32425     32421     32424     32425     32421     32423     32425     32421     32422
     32427     32431     32432     32428     32427     32430     32428     32427     32429
     32429     32427     32430     32431     32427     32430     32431     32427     32429
     32431     32427     32428     32433     32437     32438     32434     32433     32436
     32434     32433     32435     32435     32433     32436     32437     32433     32436
     32437     32433     32435     32437     32433     32434     32439     32443     32444
     32440     32439     32442     32440     32439     32441     32441     32439     32442
     32443     32439     32442     32443     32439     32441     32443     32439     32440
     32445     32449     32450     32446     32445     32448     32446     32445     32447
     32447     32445     32448     32449     32445     32448     32449     32445     32447
     32449     32445     32446     32451     32455     32456     32452     32451     32454
     32452     32451     32453     32453     32451     32454     32455     32451     32454
     32455     32451     32453     32455     32451     32452     32457     32461     32462
     32458     32457     32460     32458     32457     32459     32459     32457     32460
     32461     32457     32460     32461     32457     32459     32461     32457     32458
     32463     32467     32468     32464     32463     32466     32464     32463     32465
     32465     32463     32466     32467     32463     32466     32467     32463     32465
     32467     32463     32464     32469     32473     32474     32470     32469     32472
     32470     32469     32471     32471     32469     32472     32473     32469     32472
     32473     32469     32471     32473     32469     32470     32475     32479     32480
     32476     32475     32478     32476     32475     32477     32477     32475     32478
     32479     32475     32478     32479     32475     32477     32479     32475     32476
     32481     32485     32486     32482     32481     32484     32482     32481     32483
     32483     32481     32484     32485     32481     32484     32485     32481     32483
     32485     32481     32482     32487     32491     32492     32488     32487     32490
     32488     32487     32489     32489     32487     32490     32491     32487     32490
     32491     32487     32489     32491     32487     32488     32493     32497     32498
     32494     32493     32496     32494     32493     32495     32495     32493     32496
     32497     32493     32496     32497     32493     32495     32497     32493     32494
     32499     32503     32504     32500     32499     32502     32500     32499     32501
     32501     32499     32502     32503     32499     32502     32503     32499     32501
     32503     32499     32500     32505     32509     32510     32506     32505     32508
     32506     32505     32507     32507     32505     32508     32509     32505     32508
     32509     32505     32507     32509     32505     32506     32511     32515     32516
     32512     32511     32514     32512     32511     32513     32513     32511     32514
     32515     32511     32514     32515     32511     32513     32515     32511     32512
     32517     32521     32522     32518     32517     32520     32518     32517     32519
     32519     32517     32520     32521     32517     32520     32521     32517     32519
     32521     32517     32518     32523     32527     32528     32524     32523     32526
     32524     32523     32525     32525     32523     32526     32527     32523     32526
     32527     32523     32525     32527     32523     32524     32529     32533     32534
     32530     32529     32532     32530     32529     32531     32531     32529     32532
     32533     32529     32532     32533     32529     32531     32533     32529     32530
     32535     32539     32540     32536     32535     32538     32536     32535     32537
     32537     32535     32538     32539     32535     32538     32539     32535     32537
     32539     32535     32536     32541     32545     32546     32542     32541     32544
     32542     32541     32543     32543     32541     32544     32545     32541     32544
     32545     32541     32543     32545     32541     32542     32547     32551     32552
     32548     32547     32550     32548     32547     32549     32549     32547     32550
     32551     32547     32550     32551     32547     32549     32551     32547     32548
     32553     32557     32558     32554     32553     32556     32554     32553     32555
     32555     32553     32556     32557     32553     32556     32557     32553     32555
     32557     32553     32554     32559     32563     32564     32560     32559     32562
     32560     32559     32561     32561     32559     32562     32563     32559     32562
     32563     32559     32561     32563     32559     32560     32565     32569     32570
     32566     32565     32568     32566     32565     32567     32567     32565     32568
     32569     32565     32568     32569     32565     32567     32569     32565     32566
     32571     32575     32576     32572     32571     32574     32572     32571     32573
     32573     32571     32574     32575     32571     32574     32575     32571     32573
     32575     32571     32572     32577     32581     32582     32578     32577     32580
     32578     32577     32579     32579     32577     32580     32581     32577     32580
     32581     32577     32579     32581     32577     32578     32583     32587     32588
     32584     32583     32586     32584     32583     32585     32585     32583     32586
     32587     32583     32586     32587     32583     32585     32587     32583     32584
     32589     32593     32594     32590     32589     32592     32590     32589     32591
     32591     32589     32592     32593     32589     32592     32593     32589     32591
     32593     32589     32590     32595     32599     32600     32596     32595     32598
     32596     32595     32597     32597     32595     32598     32599     32595     32598
     32599     32595     32597     32599     32595     32596     32601     32605     32606
     32602     32601     32604     32602     32601     32603     32603     32601     32604
     32605     32601     32604     32605     32601     32603     32605     32601     32602
     32607     32611     32612     32608     32607     32610     32608     32607     32609
     32609     32607     32610     32611     32607     32610     32611     32607     32609
     32611     32607     32608     32613     32617     32618     32614     32613     32616
     32614     32613     32615     32615     32613     32616     32617     32613     32616
     32617     32613     32615     32617     32613     32614     32619     32623     32624
     32620     32619     32622     32620     32619     32621     32621     32619     32622
     32623     32619     32622     32623     32619     32621     32623     32619     32620
     32625     32629     32630     32626     32625     32628     32626     32625     32627
     32627     32625     32628     32629     32625     32628     32629     32625     32627
     32629     32625     32626     32631     32635     32636     32632     32631     32634
     32632     32631     32633     32633     32631     32634     32635     32631     32634
     32635     32631     32633     32635     32631     32632     32637     32641     32642
     32638     32637     32640     32638     32637     32639     32639     32637     32640
     32641     32637     32640     32641     32637     32639     32641     32637     32638
     32643     32647     32648     32644     32643     32646     32644     32643     32645
     32645     32643     32646     32647     32643     32646     32647     32643     32645
     32647     32643     32644     32649     32653     32654     32650     32649     32652
     32650     32649     32651     32651     32649     32652     32653     32649     32652
     32653     32649     32651     32653     32649     32650     32655     32659     32660
     32656     32655     32658     32656     32655     32657     32657     32655     32658
     32659     32655     32658     32659     32655     32657     32659     32655     32656
     32661     32665     32666     32662     32661     32664     32662     32661     32663
     32663     32661     32664     32665     32661     32664     32665     32661     32663
     32665     32661     32662     32667     32671     32672     32668     32667     32670
     32668     32667     32669     32669     32667     32670     32671     32667     32670
     32671     32667     32669     32671     32667     32668     32673     32677     32678
     32674     32673     32676     32674     32673     32675     32675     32673     32676
     32677     32673     32676     32677     32673     32675     32677     32673     32674
     32679     32683     32684     32680     32679     32682     32680     32679     32681
     32681     32679     32682     32683     32679     32682     32683     32679     32681
     32683     32679     32680     32685     32689     32690     32686     32685     32688
     32686     32685     32687     32687     32685     32688     32689     32685     32688
     32689     32685     32687     32689     32685     32686     32691     32695     32696
     32692     32691     32694     32692     32691     32693     32693     32691     32694
     32695     32691     32694     32695     32691     32693     32695     32691     32692
     32697     32701     32702     32698     32697     32700     32698     32697     32699
     32699     32697     32700     32701     32697     32700     32701     32697     32699
     32701     32697     32698     32703     32707     32708     32704     32703     32706
     32704     32703     32705     32705     32703     32706     32707     32703     32706
     32707     32703     32705     32707     32703     32704     32709     32713     32714
     32710     32709     32712     32710     32709     32711     32711     32709     32712
     32713     32709     32712     32713     32709     32711     32713     32709     32710
     32715     32719     32720     32716     32715     32718     32716     32715     32717
     32717     32715     32718     32719     32715     32718     32719     32715     32717
     32719     32715     32716     32721     32725     32726     32722     32721     32724
     32722     32721     32723     32723     32721     32724     32725     32721     32724
     32725     32721     32723     32725     32721     32722     32727     32731     32732
     32728     32727     32730     32728     32727     32729     32729     32727     32730
     32731     32727     32730     32731     32727     32729     32731     32727     32728
     32733     32737     32738     32734     32733     32736     32734     32733     32735
     32735     32733     32736     32737     32733     32736     32737     32733     32735
     32737     32733     32734     32739     32743     32744     32740     32739     32742
     32740     32739     32741     32741     32739     32742     32743     32739     32742
     32743     32739     32741     32743     32739     32740     32745     32749     32750
     32746     32745     32748     32746     32745     32747     32747     32745     32748
     32749     32745     32748     32749     32745     32747     32749     32745     32746
     32751     32755     32756     32752     32751     32754     32752     32751     32753
     32753     32751     32754     32755     32751     32754     32755     32751     32753
     32755     32751     32752     32757     32761     32762     32758     32757     32760
     32758     32757     32759     32759     32757     32760     32761     32757     32760
     32761     32757     32759     32761     32757     32758     32763     32767     32768
     32764     32763     32766     32764     32763     32765     32765     32763     32766
     32767     32763     32766     32767     32763     32765     32767     32763     32764
     32769     32773     32774     32770     32769     32772     32770     32769     32771
     32771     32769     32772     32773     32769     32772     32773     32769     32771
     32773     32769     32770     32775     32779     32780     32776     32775     32778
     32776     32775     32777     32777     32775     32778     32779     32775     32778
     32779     32775     32777     32779     32775     32776     32781     32785     32786
     32782     32781     32784     32782     32781     32783     32783     32781     32784
     32785     32781     32784     32785     32781     32783     32785     32781     32782
     32787     32791     32792     32788     32787     32790     32788     32787     32789
     32789     32787     32790     32791     32787     32790     32791     32787     32789
     32791     32787     32788     32793     32797     32798     32794     32793     32796
     32794     32793     32795     32795     32793     32796     32797     32793     32796
     32797     32793     32795     32797     32793     32794     32799     32803     32804
     32800     32799     32802     32800     32799     32801     32801     32799     32802
     32803     32799     32802     32803     32799     32801     32803     32799     32800
     32805     32809     32810     32806     32805     32808     32806     32805     32807
     32807     32805     32808     32809     32805     32808     32809     32805     32807
     32809     32805     32806     32811     32815     32816     32812     32811     32814
     32812     32811     32813     32813     32811     32814     32815     32811     32814
     32815     32811     32813     32815     32811     32812     32817     32821     32822
     32818     32817     32820     32818     32817     32819     32819     32817     32820
     32821     32817     32820     32821     32817     32819     32821     32817     32818
     32823     32827     32828     32824     32823     32826     32824     32823     32825
     32825     32823     32826     32827     32823     32826     32827     32823     32825
     32827     32823     32824     32829     32833     32834     32830     32829     32832
     32830     32829     32831     32831     32829     32832     32833     32829     32832
     32833     32829     32831     32833     32829     32830     32835     32839     32840
     32836     32835     32838     32836     32835     32837     32837     32835     32838
     32839     32835     32838     32839     32835     32837     32839     32835     32836
     32841     32845     32846     32842     32841     32844     32842     32841     32843
     32843     32841     32844     32845     32841     32844     32845     32841     32843
     32845     32841     32842     32847     32851     32852     32848     32847     32850
     32848     32847     32849     32849     32847     32850     32851     32847     32850
     32851     32847     32849     32851     32847     32848     32853     32857     32858
     32854     32853     32856     32854     32853     32855     32855     32853     32856
     32857     32853     32856     32857     32853     32855     32857     32853     32854
     32859     32863     32864     32860     32859     32862     32860     32859     32861
     32861     32859     32862     32863     32859     32862     32863     32859     32861
     32863     32859     32860     32865     32869     32870     32866     32865     32868
     32866     32865     32867     32867     32865     32868     32869     32865     32868
     32869     32865     32867     32869     32865     32866     32871     32875     32876
     32872     32871     32874     32872     32871     32873     32873     32871     32874
     32875     32871     32874     32875     32871     32873     32875     32871     32872
     32877     32881     32882     32878     32877     32880     32878     32877     32879
     32879     32877     32880     32881     32877     32880     32881     32877     32879
     32881     32877     32878     32883     32887     32888     32884     32883     32886
     32884     32883     32885     32885     32883     32886     32887     32883     32886
     32887     32883     32885     32887     32883     32884     32889     32893     32894
     32890     32889     32892     32890     32889     32891     32891     32889     32892
     32893     32889     32892     32893     32889     32891     32893     32889     32890
     32895     32899     32900     32896     32895     32898     32896     32895     32897
     32897     32895     32898     32899     32895     32898     32899     32895     32897
     32899     32895     32896     32901     32905     32906     32902     32901     32904
     32902     32901     32903     32903     32901     32904     32905     32901     32904
     32905     32901     32903     32905     32901     32902     32907     32911     32912
     32908     32907     32910     32908     32907     32909     32909     32907     32910
     32911     32907     32910     32911     32907     32909     32911     32907     32908
     32913     32917     32918     32914     32913     32916     32914     32913     32915
     32915     32913     32916     32917     32913     32916     32917     32913     32915
     32917     32913     32914     32919     32923     32924     32920     32919     32922
     32920     32919     32921     32921     32919     32922     32923     32919     32922
     32923     32919     32921     32923     32919     32920     32925     32929     32930
     32926     32925     32928     32926     32925     32927     32927     32925     32928
     32929     32925     32928     32929     32925     32927     32929     32925     32926
     32931     32935     32936     32932     32931     32934     32932     32931     32933
     32933     32931     32934     32935     32931     32934     32935     32931     32933
     32935     32931     32932     32937     32941     32942     32938     32937     32940
     32938     32937     32939     32939     32937     32940     32941     32937     32940
     32941     32937     32939     32941     32937     32938     32943     32947     32948
     32944     32943     32946     32944     32943     32945     32945     32943     32946
     32947     32943     32946     32947     32943     32945     32947     32943     32944
     32949     32953     32954     32950     32949     32952     32950     32949     32951
     32951     32949     32952     32953     32949     32952     32953     32949     32951
     32953     32949     32950     32955     32959     32960     32956     32955     32958
     32956     32955     32957     32957     32955     32958     32959     32955     32958
     32959     32955     32957     32959     32955     32956     32961     32965     32966
     32962     32961     32964     32962     32961     32963     32963     32961     32964
     32965     32961     32964     32965     32961     32963     32965     32961     32962
     32967     32971     32972     32968     32967     32970     32968     32967     32969
     32969     32967     32970     32971     32967     32970     32971     32967     32969
     32971     32967     32968     32973     32977     32978     32974     32973     32976
     32974     32973     32975     32975     32973     32976     32977     32973     32976
     32977     32973     32975     32977     32973     32974     32979     32983     32984
     32980     32979     32982     32980     32979     32981     32981     32979     32982
     32983     32979     32982     32983     32979     32981     32983     32979     32980
     32985     32989     32990     32986     32985     32988     32986     32985     32987
     32987     32985     32988     32989     32985     32988     32989     32985     32987
     32989     32985     32986     32991     32995     32996     32992     32991     32994
     32992     32991     32993     32993     32991     32994     32995     32991     32994
     32995     32991     32993     32995     32991     32992     32997     33001     33002
     32998     32997     33000     32998     32997     32999     32999     32997     33000
     33001     32997     33000     33001     32997     32999     33001     32997     32998
     33003     33007     33008     33004     33003     33006     33004     33003     33005
     33005     33003     33006     33007     33003     33006     33007     33003     33005
     33007     33003     33004     33009     33013     33014     33010     33009     33012
     33010     33009     33011     33011     33009     33012     33013     33009     33012
     33013     33009     33011     33013     33009     33010     33015     33019     33020
     33016     33015     33018     33016     33015     33017     33017     33015     33018
     33019     33015     33018     33019     33015     33017     33019     33015     33016
     33021     33025     33026     33022     33021     33024     33022     33021     33023
     33023     33021     33024     33025     33021     33024     33025     33021     33023
     33025     33021     33022     33027     33031     33032     33028     33027     33030
     33028     33027     33029     33029     33027     33030     33031     33027     33030
     33031     33027     33029     33031     33027     33028     33033     33037     33038
     33034     33033     33036     33034     33033     33035     33035     33033     33036
     33037     33033     33036     33037     33033     33035     33037     33033     33034
     33039     33043     33044     33040     33039     33042     33040     33039     33041
     33041     33039     33042     33043     33039     33042     33043     33039     33041
     33043     33039     33040     33045     33049     33050     33046     33045     33048
     33046     33045     33047     33047     33045     33048     33049     33045     33048
     33049     33045     33047     33049     33045     33046     33051     33055     33056
     33052     33051     33054     33052     33051     33053     33053     33051     33054
     33055     33051     33054     33055     33051     33053     33055     33051     33052
     33057     33061     33062     33058     33057     33060     33058     33057     33059
     33059     33057     33060     33061     33057     33060     33061     33057     33059
     33061     33057     33058     33063     33067     33068     33064     33063     33066
     33064     33063     33065     33065     33063     33066     33067     33063     33066
     33067     33063     33065     33067     33063     33064     33069     33073     33074
     33070     33069     33072     33070     33069     33071     33071     33069     33072
     33073     33069     33072     33073     33069     33071     33073     33069     33070
     33075     33079     33080     33076     33075     33078     33076     33075     33077
     33077     33075     33078     33079     33075     33078     33079     33075     33077
     33079     33075     33076     33081     33085     33086     33082     33081     33084
     33082     33081     33083     33083     33081     33084     33085     33081     33084
     33085     33081     33083     33085     33081     33082     33087     33091     33092
     33088     33087     33090     33088     33087     33089     33089     33087     33090
     33091     33087     33090     33091     33087     33089     33091     33087     33088
     33093     33097     33098     33094     33093     33096     33094     33093     33095
     33095     33093     33096     33097     33093     33096     33097     33093     33095
     33097     33093     33094     33099     33103     33104     33100     33099     33102
     33100     33099     33101     33101     33099     33102     33103     33099     33102
     33103     33099     33101     33103     33099     33100     33105     33109     33110
     33106     33105     33108     33106     33105     33107     33107     33105     33108
     33109     33105     33108     33109     33105     33107     33109     33105     33106
     33111     33115     33116     33112     33111     33114     33112     33111     33113
     33113     33111     33114     33115     33111     33114     33115     33111     33113
     33115     33111     33112     33117     33121     33122     33118     33117     33120
     33118     33117     33119     33119     33117     33120     33121     33117     33120
     33121     33117     33119     33121     33117     33118     33123     33127     33128
     33124     33123     33126     33124     33123     33125     33125     33123     33126
     33127     33123     33126     33127     33123     33125     33127     33123     33124
     33129     33133     33134     33130     33129     33132     33130     33129     33131
     33131     33129     33132     33133     33129     33132     33133     33129     33131
     33133     33129     33130     33135     33139     33140     33136     33135     33138
     33136     33135     33137     33137     33135     33138     33139     33135     33138
     33139     33135     33137     33139     33135     33136     33141     33145     33146
     33142     33141     33144     33142     33141     33143     33143     33141     33144
     33145     33141     33144     33145     33141     33143     33145     33141     33142
     33147     33151     33152     33148     33147     33150     33148     33147     33149
     33149     33147     33150     33151     33147     33150     33151     33147     33149
     33151     33147     33148     33153     33157     33158     33154     33153     33156
     33154     33153     33155     33155     33153     33156     33157     33153     33156
     33157     33153     33155     33157     33153     33154     33159     33163     33164
     33160     33159     33162     33160     33159     33161     33161     33159     33162
     33163     33159     33162     33163     33159     33161     33163     33159     33160
     33165     33169     33170     33166     33165     33168     33166     33165     33167
     33167     33165     33168     33169     33165     33168     33169     33165     33167
     33169     33165     33166     33171     33175     33176     33172     33171     33174
     33172     33171     33173     33173     33171     33174     33175     33171     33174
     33175     33171     33173     33175     33171     33172     33177     33181     33182
     33178     33177     33180     33178     33177     33179     33179     33177     33180
     33181     33177     33180     33181     33177     33179     33181     33177     33178
     33183     33187     33188     33184     33183     33186     33184     33183     33185
     33185     33183     33186     33187     33183     33186     33187     33183     33185
     33187     33183     33184     33189     33193     33194     33190     33189     33192
     33190     33189     33191     33191     33189     33192     33193     33189     33192
     33193     33189     33191     33193     33189     33190     33195     33199     33200
     33196     33195     33198     33196     33195     33197     33197     33195     33198
     33199     33195     33198     33199     33195     33197     33199     33195     33196
     33201     33205     33206     33202     33201     33204     33202     33201     33203
     33203     33201     33204     33205     33201     33204     33205     33201     33203
     33205     33201     33202     33207     33211     33212     33208     33207     33210
     33208     33207     33209     33209     33207     33210     33211     33207     33210
     33211     33207     33209     33211     33207     33208     33213     33217     33218
     33214     33213     33216     33214     33213     33215     33215     33213     33216
     33217     33213     33216     33217     33213     33215     33217     33213     33214
     33219     33223     33224     33220     33219     33222     33220     33219     33221
     33221     33219     33222     33223     33219     33222     33223     33219     33221
     33223     33219     33220     33225     33229     33230     33226     33225     33228
     33226     33225     33227     33227     33225     33228     33229     33225     33228
     33229     33225     33227     33229     33225     33226     33231     33235     33236
     33232     33231     33234     33232     33231     33233     33233     33231     33234
     33235     33231     33234     33235     33231     33233     33235     33231     33232
     33237     33241     33242     33238     33237     33240     33238     33237     33239
     33239     33237     33240     33241     33237     33240     33241     33237     33239
     33241     33237     33238     33243     33247     33248     33244     33243     33246
     33244     33243     33245     33245     33243     33246     33247     33243     33246
     33247     33243     33245     33247     33243     33244     33249     33253     33254
     33250     33249     33252     33250     33249     33251     33251     33249     33252
     33253     33249     33252     33253     33249     33251     33253     33249     33250
     33255     33259     33260     33256     33255     33258     33256     33255     33257
     33257     33255     33258     33259     33255     33258     33259     33255     33257
     33259     33255     33256     33261     33265     33266     33262     33261     33264
     33262     33261     33263     33263     33261     33264     33265     33261     33264
     33265     33261     33263     33265     33261     33262     33267     33271     33272
     33268     33267     33270     33268     33267     33269     33269     33267     33270
     33271     33267     33270     33271     33267     33269     33271     33267     33268
     33273     33277     33278     33274     33273     33276     33274     33273     33275
     33275     33273     33276     33277     33273     33276     33277     33273     33275
     33277     33273     33274     33279     33283     33284     33280     33279     33282
     33280     33279     33281     33281     33279     33282     33283     33279     33282
     33283     33279     33281     33283     33279     33280     33285     33289     33290
     33286     33285     33288     33286     33285     33287     33287     33285     33288
     33289     33285     33288     33289     33285     33287     33289     33285     33286
     33291     33295     33296     33292     33291     33294     33292     33291     33293
     33293     33291     33294     33295     33291     33294     33295     33291     33293
     33295     33291     33292     33297     33301     33302     33298     33297     33300
     33298     33297     33299     33299     33297     33300     33301     33297     33300
     33301     33297     33299     33301     33297     33298     33303     33307     33308
     33304     33303     33306     33304     33303     33305     33305     33303     33306
     33307     33303     33306     33307     33303     33305     33307     33303     33304
     33309     33313     33314     33310     33309     33312     33310     33309     33311
     33311     33309     33312     33313     33309     33312     33313     33309     33311
     33313     33309     33310     33315     33319     33320     33316     33315     33318
     33316     33315     33317     33317     33315     33318     33319     33315     33318
     33319     33315     33317     33319     33315     33316     33321     33325     33326
     33322     33321     33324     33322     33321     33323     33323     33321     33324
     33325     33321     33324     33325     33321     33323     33325     33321     33322
     33327     33331     33332     33328     33327     33330     33328     33327     33329
     33329     33327     33330     33331     33327     33330     33331     33327     33329
     33331     33327     33328     33333     33337     33338     33334     33333     33336
     33334     33333     33335     33335     33333     33336     33337     33333     33336
     33337     33333     33335     33337     33333     33334     33339     33343     33344
     33340     33339     33342     33340     33339     33341     33341     33339     33342
     33343     33339     33342     33343     33339     33341     33343     33339     33340
     33345     33349     33350     33346     33345     33348     33346     33345     33347
     33347     33345     33348     33349     33345     33348     33349     33345     33347
     33349     33345     33346     33351     33355     33356     33352     33351     33354
     33352     33351     33353     33353     33351     33354     33355     33351     33354
     33355     33351     33353     33355     33351     33352     33357     33361     33362
     33358     33357     33360     33358     33357     33359     33359     33357     33360
     33361     33357     33360     33361     33357     33359     33361     33357     33358
     33363     33367     33368     33364     33363     33366     33364     33363     33365
     33365     33363     33366     33367     33363     33366     33367     33363     33365
     33367     33363     33364     33369     33373     33374     33370     33369     33372
     33370     33369     33371     33371     33369     33372     33373     33369     33372
     33373     33369     33371     33373     33369     33370     33375     33379     33380
     33376     33375     33378     33376     33375     33377     33377     33375     33378
     33379     33375     33378     33379     33375     33377     33379     33375     33376
     33381     33385     33386     33382     33381     33384     33382     33381     33383
     33383     33381     33384     33385     33381     33384     33385     33381     33383
     33385     33381     33382     33387     33391     33392     33388     33387     33390
     33388     33387     33389     33389     33387     33390     33391     33387     33390
     33391     33387     33389     33391     33387     33388     33393     33397     33398
     33394     33393     33396     33394     33393     33395     33395     33393     33396
     33397     33393     33396     33397     33393     33395     33397     33393     33394
     33399     33403     33404     33400     33399     33402     33400     33399     33401
     33401     33399     33402     33403     33399     33402     33403     33399     33401
     33403     33399     33400     33405     33409     33410     33406     33405     33408
     33406     33405     33407     33407     33405     33408     33409     33405     33408
     33409     33405     33407     33409     33405     33406     33411     33415     33416
     33412     33411     33414     33412     33411     33413     33413     33411     33414
     33415     33411     33414     33415     33411     33413     33415     33411     33412
     33417     33421     33422     33418     33417     33420     33418     33417     33419
     33419     33417     33420     33421     33417     33420     33421     33417     33419
     33421     33417     33418     33423     33427     33428     33424     33423     33426
     33424     33423     33425     33425     33423     33426     33427     33423     33426
     33427     33423     33425     33427     33423     33424     33429     33433     33434
     33430     33429     33432     33430     33429     33431     33431     33429     33432
     33433     33429     33432     33433     33429     33431     33433     33429     33430
     33435     33439     33440     33436     33435     33438     33436     33435     33437
     33437     33435     33438     33439     33435     33438     33439     33435     33437
     33439     33435     33436     33441     33445     33446     33442     33441     33444
     33442     33441     33443     33443     33441     33444     33445     33441     33444
     33445     33441     33443     33445     33441     33442     33447     33451     33452
     33448     33447     33450     33448     33447     33449     33449     33447     33450
     33451     33447     33450     33451     33447     33449     33451     33447     33448
     33453     33457     33458     33454     33453     33456     33454     33453     33455
     33455     33453     33456     33457     33453     33456     33457     33453     33455
     33457     33453     33454     33459     33463     33464     33460     33459     33462
     33460     33459     33461     33461     33459     33462     33463     33459     33462
     33463     33459     33461     33463     33459     33460     33465     33469     33470
     33466     33465     33468     33466     33465     33467     33467     33465     33468
     33469     33465     33468     33469     33465     33467     33469     33465     33466
     33471     33475     33476     33472     33471     33474     33472     33471     33473
     33473     33471     33474     33475     33471     33474     33475     33471     33473
     33475     33471     33472     33477     33481     33482     33478     33477     33480
     33478     33477     33479     33479     33477     33480     33481     33477     33480
     33481     33477     33479     33481     33477     33478     33483     33487     33488
     33484     33483     33486     33484     33483     33485     33485     33483     33486
     33487     33483     33486     33487     33483     33485     33487     33483     33484
     33489     33493     33494     33490     33489     33492     33490     33489     33491
     33491     33489     33492     33493     33489     33492     33493     33489     33491
     33493     33489     33490     33495     33499     33500     33496     33495     33498
     33496     33495     33497     33497     33495     33498     33499     33495     33498
     33499     33495     33497     33499     33495     33496     33501     33505     33506
     33502     33501     33504     33502     33501     33503     33503     33501     33504
     33505     33501     33504     33505     33501     33503     33505     33501     33502
     33507     33511     33512     33508     33507     33510     33508     33507     33509
     33509     33507     33510     33511     33507     33510     33511     33507     33509
     33511     33507     33508     33513     33517     33518     33514     33513     33516
     33514     33513     33515     33515     33513     33516     33517     33513     33516
     33517     33513     33515     33517     33513     33514     33519     33523     33524
     33520     33519     33522     33520     33519     33521     33521     33519     33522
     33523     33519     33522     33523     33519     33521     33523     33519     33520
     33525     33529     33530     33526     33525     33528     33526     33525     33527
     33527     33525     33528     33529     33525     33528     33529     33525     33527
     33529     33525     33526     33531     33535     33536     33532     33531     33534
     33532     33531     33533     33533     33531     33534     33535     33531     33534
     33535     33531     33533     33535     33531     33532     33537     33541     33542
     33538     33537     33540     33538     33537     33539     33539     33537     33540
     33541     33537     33540     33541     33537     33539     33541     33537     33538
     33543     33547     33548     33544     33543     33546     33544     33543     33545
     33545     33543     33546     33547     33543     33546     33547     33543     33545
     33547     33543     33544     33549     33553     33554     33550     33549     33552
     33550     33549     33551     33551     33549     33552     33553     33549     33552
     33553     33549     33551     33553     33549     33550     33555     33559     33560
     33556     33555     33558     33556     33555     33557     33557     33555     33558
     33559     33555     33558     33559     33555     33557     33559     33555     33556
     33561     33565     33566     33562     33561     33564     33562     33561     33563
     33563     33561     33564     33565     33561     33564     33565     33561     33563
     33565     33561     33562     33567     33571     33572     33568     33567     33570
     33568     33567     33569     33569     33567     33570     33571     33567     33570
     33571     33567     33569     33571     33567     33568     33573     33577     33578
     33574     33573     33576     33574     33573     33575     33575     33573     33576
     33577     33573     33576     33577     33573     33575     33577     33573     33574
     33579     33583     33584     33580     33579     33582     33580     33579     33581
     33581     33579     33582     33583     33579     33582     33583     33579     33581
     33583     33579     33580     33585     33589     33590     33586     33585     33588
     33586     33585     33587     33587     33585     33588     33589     33585     33588
     33589     33585     33587     33589     33585     33586     33591     33595     33596
     33592     33591     33594     33592     33591     33593     33593     33591     33594
     33595     33591     33594     33595     33591     33593     33595     33591     33592
     33597     33601     33602     33598     33597     33600     33598     33597     33599
     33599     33597     33600     33601     33597     33600     33601     33597     33599
     33601     33597     33598     33603     33607     33608     33604     33603     33606
     33604     33603     33605     33605     33603     33606     33607     33603     33606
     33607     33603     33605     33607     33603     33604     33609     33613     33614
     33610     33609     33612     33610     33609     33611     33611     33609     33612
     33613     33609     33612     33613     33609     33611     33613     33609     33610
     33615     33619     33620     33616     33615     33618     33616     33615     33617
     33617     33615     33618     33619     33615     33618     33619     33615     33617
     33619     33615     33616     33621     33625     33626     33622     33621     33624
     33622     33621     33623     33623     33621     33624     33625     33621     33624
     33625     33621     33623     33625     33621     33622     33627     33631     33632
     33628     33627     33630     33628     33627     33629     33629     33627     33630
     33631     33627     33630     33631     33627     33629     33631     33627     33628
     33633     33637     33638     33634     33633     33636     33634     33633     33635
     33635     33633     33636     33637     33633     33636     33637     33633     33635
     33637     33633     33634     33639     33643     33644     33640     33639     33642
     33640     33639     33641     33641     33639     33642     33643     33639     33642
     33643     33639     33641     33643     33639     33640     33645     33649     33650
     33646     33645     33648     33646     33645     33647     33647     33645     33648
     33649     33645     33648     33649     33645     33647     33649     33645     33646
     33651     33655     33656     33652     33651     33654     33652     33651     33653
     33653     33651     33654     33655     33651     33654     33655     33651     33653
     33655     33651     33652     33657     33661     33662     33658     33657     33660
     33658     33657     33659     33659     33657     33660     33661     33657     33660
     33661     33657     33659     33661     33657     33658     33663     33667     33668
     33664     33663     33666     33664     33663     33665     33665     33663     33666
     33667     33663     33666     33667     33663     33665     33667     33663     33664
     33669     33673     33674     33670     33669     33672     33670     33669     33671
     33671     33669     33672     33673     33669     33672     33673     33669     33671
     33673     33669     33670     33675     33679     33680     33676     33675     33678
     33676     33675     33677     33677     33675     33678     33679     33675     33678
     33679     33675     33677     33679     33675     33676     33681     33685     33686
     33682     33681     33684     33682     33681     33683     33683     33681     33684
     33685     33681     33684     33685     33681     33683     33685     33681     33682
     33687     33691     33692     33688     33687     33690     33688     33687     33689
     33689     33687     33690     33691     33687     33690     33691     33687     33689
     33691     33687     33688     33693     33697     33698     33694     33693     33696
     33694     33693     33695     33695     33693     33696     33697     33693     33696
     33697     33693     33695     33697     33693     33694     33699     33703     33704
     33700     33699     33702     33700     33699     33701     33701     33699     33702
     33703     33699     33702     33703     33699     33701     33703     33699     33700
     33705     33709     33710     33706     33705     33708     33706     33705     33707
     33707     33705     33708     33709     33705     33708     33709     33705     33707
     33709     33705     33706     33711     33715     33716     33712     33711     33714
     33712     33711     33713     33713     33711     33714     33715     33711     33714
     33715     33711     33713     33715     33711     33712     33717     33721     33722
     33718     33717     33720     33718     33717     33719     33719     33717     33720
     33721     33717     33720     33721     33717     33719     33721     33717     33718
     33723     33727     33728     33724     33723     33726     33724     33723     33725
     33725     33723     33726     33727     33723     33726     33727     33723     33725
     33727     33723     33724     33729     33733     33734     33730     33729     33732
     33730     33729     33731     33731     33729     33732     33733     33729     33732
     33733     33729     33731     33733     33729     33730     33735     33739     33740
     33736     33735     33738     33736     33735     33737     33737     33735     33738
     33739     33735     33738     33739     33735     33737     33739     33735     33736
     33741     33745     33746     33742     33741     33744     33742     33741     33743
     33743     33741     33744     33745     33741     33744     33745     33741     33743
     33745     33741     33742     33747     33751     33752     33748     33747     33750
     33748     33747     33749     33749     33747     33750     33751     33747     33750
     33751     33747     33749     33751     33747     33748     33753     33757     33758
     33754     33753     33756     33754     33753     33755     33755     33753     33756
     33757     33753     33756     33757     33753     33755     33757     33753     33754
     33759     33763     33764     33760     33759     33762     33760     33759     33761
     33761     33759     33762     33763     33759     33762     33763     33759     33761
     33763     33759     33760     33765     33769     33770     33766     33765     33768
     33766     33765     33767     33767     33765     33768     33769     33765     33768
     33769     33765     33767     33769     33765     33766     33771     33775     33776
     33772     33771     33774     33772     33771     33773     33773     33771     33774
     33775     33771     33774     33775     33771     33773     33775     33771     33772
     33777     33781     33782     33778     33777     33780     33778     33777     33779
     33779     33777     33780     33781     33777     33780     33781     33777     33779
     33781     33777     33778     33783     33787     33788     33784     33783     33786
     33784     33783     33785     33785     33783     33786     33787     33783     33786
     33787     33783     33785     33787     33783     33784     33789     33793     33794
     33790     33789     33792     33790     33789     33791     33791     33789     33792
     33793     33789     33792     33793     33789     33791     33793     33789     33790
     33795     33799     33800     33796     33795     33798     33796     33795     33797
     33797     33795     33798     33799     33795     33798     33799     33795     33797
     33799     33795     33796     33801     33805     33806     33802     33801     33804
     33802     33801     33803     33803     33801     33804     33805     33801     33804
     33805     33801     33803     33805     33801     33802     33807     33811     33812
     33808     33807     33810     33808     33807     33809     33809     33807     33810
     33811     33807     33810     33811     33807     33809     33811     33807     33808
     33813     33817     33818     33814     33813     33816     33814     33813     33815
     33815     33813     33816     33817     33813     33816     33817     33813     33815
     33817     33813     33814     33819     33823     33824     33820     33819     33822
     33820     33819     33821     33821     33819     33822     33823     33819     33822
     33823     33819     33821     33823     33819     33820     33825     33829     33830
     33826     33825     33828     33826     33825     33827     33827     33825     33828
     33829     33825     33828     33829     33825     33827     33829     33825     33826
     33831     33835     33836     33832     33831     33834     33832     33831     33833
     33833     33831     33834     33835     33831     33834     33835     33831     33833
     33835     33831     33832     33837     33841     33842     33838     33837     33840
     33838     33837     33839     33839     33837     33840     33841     33837     33840
     33841     33837     33839     33841     33837     33838     33843     33847     33848
     33844     33843     33846     33844     33843     33845     33845     33843     33846
     33847     33843     33846     33847     33843     33845     33847     33843     33844
     33849     33853     33854     33850     33849     33852     33850     33849     33851
     33851     33849     33852     33853     33849     33852     33853     33849     33851
     33853     33849     33850     33855     33859     33860     33856     33855     33858
     33856     33855     33857     33857     33855     33858     33859     33855     33858
     33859     33855     33857     33859     33855     33856     33861     33865     33866
     33862     33861     33864     33862     33861     33863     33863     33861     33864
     33865     33861     33864     33865     33861     33863     33865     33861     33862
     33867     33871     33872     33868     33867     33870     33868     33867     33869
     33869     33867     33870     33871     33867     33870     33871     33867     33869
     33871     33867     33868     33873     33877     33878     33874     33873     33876
     33874     33873     33875     33875     33873     33876     33877     33873     33876
     33877     33873     33875     33877     33873     33874     33879     33883     33884
     33880     33879     33882     33880     33879     33881     33881     33879     33882
     33883     33879     33882     33883     33879     33881     33883     33879     33880
     33885     33889     33890     33886     33885     33888     33886     33885     33887
     33887     33885     33888     33889     33885     33888     33889     33885     33887
     33889     33885     33886     33891     33895     33896     33892     33891     33894
     33892     33891     33893     33893     33891     33894     33895     33891     33894
     33895     33891     33893     33895     33891     33892     33897     33901     33902
     33898     33897     33900     33898     33897     33899     33899     33897     33900
     33901     33897     33900     33901     33897     33899     33901     33897     33898
     33903     33907     33908     33904     33903     33906     33904     33903     33905
     33905     33903     33906     33907     33903     33906     33907     33903     33905
     33907     33903     33904     33909     33913     33914     33910     33909     33912
     33910     33909     33911     33911     33909     33912     33913     33909     33912
     33913     33909     33911     33913     33909     33910     33915     33919     33920
     33916     33915     33918     33916     33915     33917     33917     33915     33918
     33919     33915     33918     33919     33915     33917     33919     33915     33916
     33921     33925     33926     33922     33921     33924     33922     33921     33923
     33923     33921     33924     33925     33921     33924     33925     33921     33923
     33925     33921     33922     33927     33931     33932     33928     33927     33930
     33928     33927     33929     33929     33927     33930     33931     33927     33930
     33931     33927     33929     33931     33927     33928     33933     33937     33938
     33934     33933     33936     33934     33933     33935     33935     33933     33936
     33937     33933     33936     33937     33933     33935     33937     33933     33934
     33939     33943     33944     33940     33939     33942     33940     33939     33941
     33941     33939     33942     33943     33939     33942     33943     33939     33941
     33943     33939     33940     33945     33949     33950     33946     33945     33948
     33946     33945     33947     33947     33945     33948     33949     33945     33948
     33949     33945     33947     33949     33945     33946     33951     33955     33956
     33952     33951     33954     33952     33951     33953     33953     33951     33954
     33955     33951     33954     33955     33951     33953     33955     33951     33952
     33957     33961     33962     33958     33957     33960     33958     33957     33959
     33959     33957     33960     33961     33957     33960     33961     33957     33959
     33961     33957     33958     33963     33967     33968     33964     33963     33966
     33964     33963     33965     33965     33963     33966     33967     33963     33966
     33967     33963     33965     33967     33963     33964     33969     33973     33974
     33970     33969     33972     33970     33969     33971     33971     33969     33972
     33973     33969     33972     33973     33969     33971     33973     33969     33970
     33975     33979     33980     33976     33975     33978     33976     33975     33977
     33977     33975     33978     33979     33975     33978     33979     33975     33977
     33979     33975     33976     33981     33985     33986     33982     33981     33984
     33982     33981     33983     33983     33981     33984     33985     33981     33984
     33985     33981     33983     33985     33981     33982     33987     33991     33992
     33988     33987     33990     33988     33987     33989     33989     33987     33990
     33991     33987     33990     33991     33987     33989     33991     33987     33988
     33993     33997     33998     33994     33993     33996     33994     33993     33995
     33995     33993     33996     33997     33993     33996     33997     33993     33995
     33997     33993     33994     33999     34003     34004     34000     33999     34002
     34000     33999     34001     34001     33999     34002     34003     33999     34002
     34003     33999     34001     34003     33999     34000     34005     34009     34010
     34006     34005     34008     34006     34005     34007     34007     34005     34008
     34009     34005     34008     34009     34005     34007     34009     34005     34006
     34011     34015     34016     34012     34011     34014     34012     34011     34013
     34013     34011     34014     34015     34011     34014     34015     34011     34013
     34015     34011     34012     34017     34021     34022     34018     34017     34020
     34018     34017     34019     34019     34017     34020     34021     34017     34020
     34021     34017     34019     34021     34017     34018     34023     34027     34028
     34024     34023     34026     34024     34023     34025     34025     34023     34026
     34027     34023     34026     34027     34023     34025     34027     34023     34024
     34029     34033     34034     34030     34029     34032     34030     34029     34031
     34031     34029     34032     34033     34029     34032     34033     34029     34031
     34033     34029     34030     34035     34039     34040     34036     34035     34038
     34036     34035     34037     34037     34035     34038     34039     34035     34038
     34039     34035     34037     34039     34035     34036     34041     34045     34046
     34042     34041     34044     34042     34041     34043     34043     34041     34044
     34045     34041     34044     34045     34041     34043     34045     34041     34042
     34047     34051     34052     34048     34047     34050     34048     34047     34049
     34049     34047     34050     34051     34047     34050     34051     34047     34049
     34051     34047     34048     34053     34057     34058     34054     34053     34056
     34054     34053     34055     34055     34053     34056     34057     34053     34056
     34057     34053     34055     34057     34053     34054     34059     34063     34064
     34060     34059     34062     34060     34059     34061     34061     34059     34062
     34063     34059     34062     34063     34059     34061     34063     34059     34060
     34065     34069     34070     34066     34065     34068     34066     34065     34067
     34067     34065     34068     34069     34065     34068     34069     34065     34067
     34069     34065     34066     34071     34075     34076     34072     34071     34074
     34072     34071     34073     34073     34071     34074     34075     34071     34074
     34075     34071     34073     34075     34071     34072     34077     34081     34082
     34078     34077     34080     34078     34077     34079     34079     34077     34080
     34081     34077     34080     34081     34077     34079     34081     34077     34078
     34083     34087     34088     34084     34083     34086     34084     34083     34085
     34085     34083     34086     34087     34083     34086     34087     34083     34085
     34087     34083     34084     34089     34093     34094     34090     34089     34092
     34090     34089     34091     34091     34089     34092     34093     34089     34092
     34093     34089     34091     34093     34089     34090     34095     34099     34100
     34096     34095     34098     34096     34095     34097     34097     34095     34098
     34099     34095     34098     34099     34095     34097     34099     34095     34096
     34101     34105     34106     34102     34101     34104     34102     34101     34103
     34103     34101     34104     34105     34101     34104     34105     34101     34103
     34105     34101     34102     34107     34111     34112     34108     34107     34110
     34108     34107     34109     34109     34107     34110     34111     34107     34110
     34111     34107     34109     34111     34107     34108     34113     34117     34118
     34114     34113     34116     34114     34113     34115     34115     34113     34116
     34117     34113     34116     34117     34113     34115     34117     34113     34114
     34119     34123     34124     34120     34119     34122     34120     34119     34121
     34121     34119     34122     34123     34119     34122     34123     34119     34121
     34123     34119     34120     34125     34129     34130     34126     34125     34128
     34126     34125     34127     34127     34125     34128     34129     34125     34128
     34129     34125     34127     34129     34125     34126     34131     34135     34136
     34132     34131     34134     34132     34131     34133     34133     34131     34134
     34135     34131     34134     34135     34131     34133     34135     34131     34132
     34137     34141     34142     34138     34137     34140     34138     34137     34139
     34139     34137     34140     34141     34137     34140     34141     34137     34139
     34141     34137     34138     34143     34147     34148     34144     34143     34146
     34144     34143     34145     34145     34143     34146     34147     34143     34146
     34147     34143     34145     34147     34143     34144     34149     34153     34154
     34150     34149     34152     34150     34149     34151     34151     34149     34152
     34153     34149     34152     34153     34149     34151     34153     34149     34150
     34155     34159     34160     34156     34155     34158     34156     34155     34157
     34157     34155     34158     34159     34155     34158     34159     34155     34157
     34159     34155     34156     34161     34165     34166     34162     34161     34164
     34162     34161     34163     34163     34161     34164     34165     34161     34164
     34165     34161     34163     34165     34161     34162     34167     34171     34172
     34168     34167     34170     34168     34167     34169     34169     34167     34170
     34171     34167     34170     34171     34167     34169     34171     34167     34168
     34173     34177     34178     34174     34173     34176     34174     34173     34175
     34175     34173     34176     34177     34173     34176     34177     34173     34175
     34177     34173     34174     34179     34183     34184     34180     34179     34182
     34180     34179     34181     34181     34179     34182     34183     34179     34182
     34183     34179     34181     34183     34179     34180     34185     34189     34190
     34186     34185     34188     34186     34185     34187     34187     34185     34188
     34189     34185     34188     34189     34185     34187     34189     34185     34186
     34191     34195     34196     34192     34191     34194     34192     34191     34193
     34193     34191     34194     34195     34191     34194     34195     34191     34193
     34195     34191     34192     34197     34201     34202     34198     34197     34200
     34198     34197     34199     34199     34197     34200     34201     34197     34200
     34201     34197     34199     34201     34197     34198     34203     34207     34208
     34204     34203     34206     34204     34203     34205     34205     34203     34206
     34207     34203     34206     34207     34203     34205     34207     34203     34204
     34209     34213     34214     34210     34209     34212     34210     34209     34211
     34211     34209     34212     34213     34209     34212     34213     34209     34211
     34213     34209     34210     34215     34219     34220     34216     34215     34218
     34216     34215     34217     34217     34215     34218     34219     34215     34218
     34219     34215     34217     34219     34215     34216     34221     34225     34226
     34222     34221     34224     34222     34221     34223     34223     34221     34224
     34225     34221     34224     34225     34221     34223     34225     34221     34222
     34227     34231     34232     34228     34227     34230     34228     34227     34229
     34229     34227     34230     34231     34227     34230     34231     34227     34229
     34231     34227     34228     34233     34237     34238     34234     34233     34236
     34234     34233     34235     34235     34233     34236     34237     34233     34236
     34237     34233     34235     34237     34233     34234     34239     34243     34244
     34240     34239     34242     34240     34239     34241     34241     34239     34242
     34243     34239     34242     34243     34239     34241     34243     34239     34240
     34245     34249     34250     34246     34245     34248     34246     34245     34247
     34247     34245     34248     34249     34245     34248     34249     34245     34247
     34249     34245     34246     34251     34255     34256     34252     34251     34254
     34252     34251     34253     34253     34251     34254     34255     34251     34254
     34255     34251     34253     34255     34251     34252     34257     34261     34262
     34258     34257     34260     34258     34257     34259     34259     34257     34260
     34261     34257     34260     34261     34257     34259     34261     34257     34258
     34263     34267     34268     34264     34263     34266     34264     34263     34265
     34265     34263     34266     34267     34263     34266     34267     34263     34265
     34267     34263     34264     34269     34273     34274     34270     34269     34272
     34270     34269     34271     34271     34269     34272     34273     34269     34272
     34273     34269     34271     34273     34269     34270     34275     34279     34280
     34276     34275     34278     34276     34275     34277     34277     34275     34278
     34279     34275     34278     34279     34275     34277     34279     34275     34276
     34281     34285     34286     34282     34281     34284     34282     34281     34283
     34283     34281     34284     34285     34281     34284     34285     34281     34283
     34285     34281     34282     34287     34291     34292     34288     34287     34290
     34288     34287     34289     34289     34287     34290     34291     34287     34290
     34291     34287     34289     34291     34287     34288     34293     34297     34298
     34294     34293     34296     34294     34293     34295     34295     34293     34296
     34297     34293     34296     34297     34293     34295     34297     34293     34294
     34299     34303     34304     34300     34299     34302     34300     34299     34301
     34301     34299     34302     34303     34299     34302     34303     34299     34301
     34303     34299     34300     34305     34309     34310     34306     34305     34308
     34306     34305     34307     34307     34305     34308     34309     34305     34308
     34309     34305     34307     34309     34305     34306     34311     34315     34316
     34312     34311     34314     34312     34311     34313     34313     34311     34314
     34315     34311     34314     34315     34311     34313     34315     34311     34312
     34317     34321     34322     34318     34317     34320     34318     34317     34319
     34319     34317     34320     34321     34317     34320     34321     34317     34319
     34321     34317     34318     34323     34327     34328     34324     34323     34326
     34324     34323     34325     34325     34323     34326     34327     34323     34326
     34327     34323     34325     34327     34323     34324     34329     34333     34334
     34330     34329     34332     34330     34329     34331     34331     34329     34332
     34333     34329     34332     34333     34329     34331     34333     34329     34330
     34335     34339     34340     34336     34335     34338     34336     34335     34337
     34337     34335     34338     34339     34335     34338     34339     34335     34337
     34339     34335     34336     34341     34345     34346     34342     34341     34344
     34342     34341     34343     34343     34341     34344     34345     34341     34344
     34345     34341     34343     34345     34341     34342     34347     34351     34352
     34348     34347     34350     34348     34347     34349     34349     34347     34350
     34351     34347     34350     34351     34347     34349     34351     34347     34348
     34353     34357     34358     34354     34353     34356     34354     34353     34355
     34355     34353     34356     34357     34353     34356     34357     34353     34355
     34357     34353     34354     34359     34363     34364     34360     34359     34362
     34360     34359     34361     34361     34359     34362     34363     34359     34362
     34363     34359     34361     34363     34359     34360     34365     34369     34370
     34366     34365     34368     34366     34365     34367     34367     34365     34368
     34369     34365     34368     34369     34365     34367     34369     34365     34366
     34371     34375     34376     34372     34371     34374     34372     34371     34373
     34373     34371     34374     34375     34371     34374     34375     34371     34373
     34375     34371     34372     34377     34381     34382     34378     34377     34380
     34378     34377     34379     34379     34377     34380     34381     34377     34380
     34381     34377     34379     34381     34377     34378     34383     34387     34388
     34384     34383     34386     34384     34383     34385     34385     34383     34386
     34387     34383     34386     34387     34383     34385     34387     34383     34384
     34389     34393     34394     34390     34389     34392     34390     34389     34391
     34391     34389     34392     34393     34389     34392     34393     34389     34391
     34393     34389     34390     34395     34399     34400     34396     34395     34398
     34396     34395     34397     34397     34395     34398     34399     34395     34398
     34399     34395     34397     34399     34395     34396     34401     34405     34406
     34402     34401     34404     34402     34401     34403     34403     34401     34404
     34405     34401     34404     34405     34401     34403     34405     34401     34402
     34407     34411     34412     34408     34407     34410     34408     34407     34409
     34409     34407     34410     34411     34407     34410     34411     34407     34409
     34411     34407     34408     34413     34417     34418     34414     34413     34416
     34414     34413     34415     34415     34413     34416     34417     34413     34416
     34417     34413     34415     34417     34413     34414     34419     34423     34424
     34420     34419     34422     34420     34419     34421     34421     34419     34422
     34423     34419     34422     34423     34419     34421     34423     34419     34420
     34425     34429     34430     34426     34425     34428     34426     34425     34427
     34427     34425     34428     34429     34425     34428     34429     34425     34427
     34429     34425     34426     34431     34435     34436     34432     34431     34434
     34432     34431     34433     34433     34431     34434     34435     34431     34434
     34435     34431     34433     34435     34431     34432     34437     34441     34442
     34438     34437     34440     34438     34437     34439     34439     34437     34440
     34441     34437     34440     34441     34437     34439     34441     34437     34438
     34443     34447     34448     34444     34443     34446     34444     34443     34445
     34445     34443     34446     34447     34443     34446     34447     34443     34445
     34447     34443     34444     34449     34453     34454     34450     34449     34452
     34450     34449     34451     34451     34449     34452     34453     34449     34452
     34453     34449     34451     34453     34449     34450     34455     34459     34460
     34456     34455     34458     34456     34455     34457     34457     34455     34458
     34459     34455     34458     34459     34455     34457     34459     34455     34456
     34461     34465     34466     34462     34461     34464     34462     34461     34463
     34463     34461     34464     34465     34461     34464     34465     34461     34463
     34465     34461     34462     34467     34471     34472     34468     34467     34470
     34468     34467     34469     34469     34467     34470     34471     34467     34470
     34471     34467     34469     34471     34467     34468     34473     34477     34478
     34474     34473     34476     34474     34473     34475     34475     34473     34476
     34477     34473     34476     34477     34473     34475     34477     34473     34474
     34479     34483     34484     34480     34479     34482     34480     34479     34481
     34481     34479     34482     34483     34479     34482     34483     34479     34481
     34483     34479     34480     34485     34489     34490     34486     34485     34488
     34486     34485     34487     34487     34485     34488     34489     34485     34488
     34489     34485     34487     34489     34485     34486     34491     34495     34496
     34492     34491     34494     34492     34491     34493     34493     34491     34494
     34495     34491     34494     34495     34491     34493     34495     34491     34492
     34497     34501     34502     34498     34497     34500     34498     34497     34499
     34499     34497     34500     34501     34497     34500     34501     34497     34499
     34501     34497     34498     34503     34507     34508     34504     34503     34506
     34504     34503     34505     34505     34503     34506     34507     34503     34506
     34507     34503     34505     34507     34503     34504     34509     34513     34514
     34510     34509     34512     34510     34509     34511     34511     34509     34512
     34513     34509     34512     34513     34509     34511     34513     34509     34510
     34515     34519     34520     34516     34515     34518     34516     34515     34517
     34517     34515     34518     34519     34515     34518     34519     34515     34517
     34519     34515     34516     34521     34525     34526     34522     34521     34524
     34522     34521     34523     34523     34521     34524     34525     34521     34524
     34525     34521     34523     34525     34521     34522     34527     34531     34532
     34528     34527     34530     34528     34527     34529     34529     34527     34530
     34531     34527     34530     34531     34527     34529     34531     34527     34528
     34533     34537     34538     34534     34533     34536     34534     34533     34535
     34535     34533     34536     34537     34533     34536     34537     34533     34535
     34537     34533     34534     34539     34543     34544     34540     34539     34542
     34540     34539     34541     34541     34539     34542     34543     34539     34542
     34543     34539     34541     34543     34539     34540     34545     34549     34550
     34546     34545     34548     34546     34545     34547     34547     34545     34548
     34549     34545     34548     34549     34545     34547     34549     34545     34546
     34551     34555     34556     34552     34551     34554     34552     34551     34553
     34553     34551     34554     34555     34551     34554     34555     34551     34553
     34555     34551     34552     34557     34561     34562     34558     34557     34560
     34558     34557     34559     34559     34557     34560     34561     34557     34560
     34561     34557     34559     34561     34557     34558     34563     34567     34568
     34564     34563     34566     34564     34563     34565     34565     34563     34566
     34567     34563     34566     34567     34563     34565     34567     34563     34564
     34569     34573     34574     34570     34569     34572     34570     34569     34571
     34571     34569     34572     34573     34569     34572     34573     34569     34571
     34573     34569     34570     34575     34579     34580     34576     34575     34578
     34576     34575     34577     34577     34575     34578     34579     34575     34578
     34579     34575     34577     34579     34575     34576     34581     34585     34586
     34582     34581     34584     34582     34581     34583     34583     34581     34584
     34585     34581     34584     34585     34581     34583     34585     34581     34582
     34587     34591     34592     34588     34587     34590     34588     34587     34589
     34589     34587     34590     34591     34587     34590     34591     34587     34589
     34591     34587     34588     34593     34597     34598     34594     34593     34596
     34594     34593     34595     34595     34593     34596     34597     34593     34596
     34597     34593     34595     34597     34593     34594     34599     34603     34604
     34600     34599     34602     34600     34599     34601     34601     34599     34602
     34603     34599     34602     34603     34599     34601     34603     34599     34600
     34605     34609     34610     34606     34605     34608     34606     34605     34607
     34607     34605     34608     34609     34605     34608     34609     34605     34607
     34609     34605     34606     34611     34615     34616     34612     34611     34614
     34612     34611     34613     34613     34611     34614     34615     34611     34614
     34615     34611     34613     34615     34611     34612     34617     34621     34622
     34618     34617     34620     34618     34617     34619     34619     34617     34620
     34621     34617     34620     34621     34617     34619     34621     34617     34618
     34623     34627     34628     34624     34623     34626     34624     34623     34625
     34625     34623     34626     34627     34623     34626     34627     34623     34625
     34627     34623     34624     34629     34633     34634     34630     34629     34632
     34630     34629     34631     34631     34629     34632     34633     34629     34632
     34633     34629     34631     34633     34629     34630     34635     34639     34640
     34636     34635     34638     34636     34635     34637     34637     34635     34638
     34639     34635     34638     34639     34635     34637     34639     34635     34636
     34641     34645     34646     34642     34641     34644     34642     34641     34643
     34643     34641     34644     34645     34641     34644     34645     34641     34643
     34645     34641     34642     34647     34651     34652     34648     34647     34650
     34648     34647     34649     34649     34647     34650     34651     34647     34650
     34651     34647     34649     34651     34647     34648     34653     34657     34658
     34654     34653     34656     34654     34653     34655     34655     34653     34656
     34657     34653     34656     34657     34653     34655     34657     34653     34654
     34659     34663     34664     34660     34659     34662     34660     34659     34661
     34661     34659     34662     34663     34659     34662     34663     34659     34661
     34663     34659     34660     34665     34669     34670     34666     34665     34668
     34666     34665     34667     34667     34665     34668     34669     34665     34668
     34669     34665     34667     34669     34665     34666     34671     34675     34676
     34672     34671     34674     34672     34671     34673     34673     34671     34674
     34675     34671     34674     34675     34671     34673     34675     34671     34672
     34677     34681     34682     34678     34677     34680     34678     34677     34679
     34679     34677     34680     34681     34677     34680     34681     34677     34679
     34681     34677     34678     34683     34687     34688     34684     34683     34686
     34684     34683     34685     34685     34683     34686     34687     34683     34686
     34687     34683     34685     34687     34683     34684     34689     34693     34694
     34690     34689     34692     34690     34689     34691     34691     34689     34692
     34693     34689     34692     34693     34689     34691     34693     34689     34690
     34695     34699     34700     34696     34695     34698     34696     34695     34697
     34697     34695     34698     34699     34695     34698     34699     34695     34697
     34699     34695     34696     34701     34705     34706     34702     34701     34704
     34702     34701     34703     34703     34701     34704     34705     34701     34704
     34705     34701     34703     34705     34701     34702     34707     34711     34712
     34708     34707     34710     34708     34707     34709     34709     34707     34710
     34711     34707     34710     34711     34707     34709     34711     34707     34708
     34713     34717     34718     34714     34713     34716     34714     34713     34715
     34715     34713     34716     34717     34713     34716     34717     34713     34715
     34717     34713     34714     34719     34723     34724     34720     34719     34722
     34720     34719     34721     34721     34719     34722     34723     34719     34722
     34723     34719     34721     34723     34719     34720     34725     34729     34730
     34726     34725     34728     34726     34725     34727     34727     34725     34728
     34729     34725     34728     34729     34725     34727     34729     34725     34726
     34731     34735     34736     34732     34731     34734     34732     34731     34733
     34733     34731     34734     34735     34731     34734     34735     34731     34733
     34735     34731     34732     34737     34741     34742     34738     34737     34740
     34738     34737     34739     34739     34737     34740     34741     34737     34740
     34741     34737     34739     34741     34737     34738     34743     34747     34748
     34744     34743     34746     34744     34743     34745     34745     34743     34746
     34747     34743     34746     34747     34743     34745     34747     34743     34744
     34749     34753     34754     34750     34749     34752     34750     34749     34751
     34751     34749     34752     34753     34749     34752     34753     34749     34751
     34753     34749     34750     34755     34759     34760     34756     34755     34758
     34756     34755     34757     34757     34755     34758     34759     34755     34758
     34759     34755     34757     34759     34755     34756     34761     34765     34766
     34762     34761     34764     34762     34761     34763     34763     34761     34764
     34765     34761     34764     34765     34761     34763     34765     34761     34762
     34767     34771     34772     34768     34767     34770     34768     34767     34769
     34769     34767     34770     34771     34767     34770     34771     34767     34769
     34771     34767     34768     34773     34777     34778     34774     34773     34776
     34774     34773     34775     34775     34773     34776     34777     34773     34776
     34777     34773     34775     34777     34773     34774     34779     34783     34784
     34780     34779     34782     34780     34779     34781     34781     34779     34782
     34783     34779     34782     34783     34779     34781     34783     34779     34780
     34785     34789     34790     34786     34785     34788     34786     34785     34787
     34787     34785     34788     34789     34785     34788     34789     34785     34787
     34789     34785     34786     34791     34795     34796     34792     34791     34794
     34792     34791     34793     34793     34791     34794     34795     34791     34794
     34795     34791     34793     34795     34791     34792     34797     34801     34802
     34798     34797     34800     34798     34797     34799     34799     34797     34800
     34801     34797     34800     34801     34797     34799     34801     34797     34798
     34803     34807     34808     34804     34803     34806     34804     34803     34805
     34805     34803     34806     34807     34803     34806     34807     34803     34805
     34807     34803     34804     34809     34813     34814     34810     34809     34812
     34810     34809     34811     34811     34809     34812     34813     34809     34812
     34813     34809     34811     34813     34809     34810     34815     34819     34820
     34816     34815     34818     34816     34815     34817     34817     34815     34818
     34819     34815     34818     34819     34815     34817     34819     34815     34816
     34821     34825     34826     34822     34821     34824     34822     34821     34823
     34823     34821     34824     34825     34821     34824     34825     34821     34823
     34825     34821     34822     34827     34831     34832     34828     34827     34830
     34828     34827     34829     34829     34827     34830     34831     34827     34830
     34831     34827     34829     34831     34827     34828     34833     34837     34838
     34834     34833     34836     34834     34833     34835     34835     34833     34836
     34837     34833     34836     34837     34833     34835     34837     34833     34834
     34839     34843     34844     34840     34839     34842     34840     34839     34841
     34841     34839     34842     34843     34839     34842     34843     34839     34841
     34843     34839     34840     34845     34849     34850     34846     34845     34848
     34846     34845     34847     34847     34845     34848     34849     34845     34848
     34849     34845     34847     34849     34845     34846     34851     34855     34856
     34852     34851     34854     34852     34851     34853     34853     34851     34854
     34855     34851     34854     34855     34851     34853     34855     34851     34852
     34857     34861     34862     34858     34857     34860     34858     34857     34859
     34859     34857     34860     34861     34857     34860     34861     34857     34859
     34861     34857     34858     34863     34867     34868     34864     34863     34866
     34864     34863     34865     34865     34863     34866     34867     34863     34866
     34867     34863     34865     34867     34863     34864     34869     34873     34874
     34870     34869     34872     34870     34869     34871     34871     34869     34872
     34873     34869     34872     34873     34869     34871     34873     34869     34870
     34875     34879     34880     34876     34875     34878     34876     34875     34877
     34877     34875     34878     34879     34875     34878     34879     34875     34877
     34879     34875     34876     34881     34885     34886     34882     34881     34884
     34882     34881     34883     34883     34881     34884     34885     34881     34884
     34885     34881     34883     34885     34881     34882     34887     34891     34892
     34888     34887     34890     34888     34887     34889     34889     34887     34890
     34891     34887     34890     34891     34887     34889     34891     34887     34888
     34893     34897     34898     34894     34893     34896     34894     34893     34895
     34895     34893     34896     34897     34893     34896     34897     34893     34895
     34897     34893     34894     34899     34903     34904     34900     34899     34902
     34900     34899     34901     34901     34899     34902     34903     34899     34902
     34903     34899     34901     34903     34899     34900     34905     34909     34910
     34906     34905     34908     34906     34905     34907     34907     34905     34908
     34909     34905     34908     34909     34905     34907     34909     34905     34906
     34911     34915     34916     34912     34911     34914     34912     34911     34913
     34913     34911     34914     34915     34911     34914     34915     34911     34913
     34915     34911     34912     34917     34921     34922     34918     34917     34920
     34918     34917     34919     34919     34917     34920     34921     34917     34920
     34921     34917     34919     34921     34917     34918     34923     34927     34928
     34924     34923     34926     34924     34923     34925     34925     34923     34926
     34927     34923     34926     34927     34923     34925     34927     34923     34924
     34929     34933     34934     34930     34929     34932     34930     34929     34931
     34931     34929     34932     34933     34929     34932     34933     34929     34931
     34933     34929     34930     34935     34939     34940     34936     34935     34938
     34936     34935     34937     34937     34935     34938     34939     34935     34938
     34939     34935     34937     34939     34935     34936     34941     34945     34946
     34942     34941     34944     34942     34941     34943     34943     34941     34944
     34945     34941     34944     34945     34941     34943     34945     34941     34942
     34947     34951     34952     34948     34947     34950     34948     34947     34949
     34949     34947     34950     34951     34947     34950     34951     34947     34949
     34951     34947     34948     34953     34957     34958     34954     34953     34956
     34954     34953     34955     34955     34953     34956     34957     34953     34956
     34957     34953     34955     34957     34953     34954     34959     34963     34964
     34960     34959     34962     34960     34959     34961     34961     34959     34962
     34963     34959     34962     34963     34959     34961     34963     34959     34960
     34965     34969     34970     34966     34965     34968     34966     34965     34967
     34967     34965     34968     34969     34965     34968     34969     34965     34967
     34969     34965     34966     34971     34975     34976     34972     34971     34974
     34972     34971     34973     34973     34971     34974     34975     34971     34974
     34975     34971     34973     34975     34971     34972     34977     34981     34982
     34978     34977     34980     34978     34977     34979     34979     34977     34980
     34981     34977     34980     34981     34977     34979     34981     34977     34978
     34983     34987     34988     34984     34983     34986     34984     34983     34985
     34985     34983     34986     34987     34983     34986     34987     34983     34985
     34987     34983     34984     34989     34993     34994     34990     34989     34992
     34990     34989     34991     34991     34989     34992     34993     34989     34992
     34993     34989     34991     34993     34989     34990     34995     34999     35000
     34996     34995     34998     34996     34995     34997     34997     34995     34998
     34999     34995     34998     34999     34995     34997     34999     34995     34996
     35001     35005     35006     35002     35001     35004     35002     35001     35003
     35003     35001     35004     35005     35001     35004     35005     35001     35003
     35005     35001     35002     35007     35011     35012     35008     35007     35010
     35008     35007     35009     35009     35007     35010     35011     35007     35010
     35011     35007     35009     35011     35007     35008     35013     35017     35018
     35014     35013     35016     35014     35013     35015     35015     35013     35016
     35017     35013     35016     35017     35013     35015     35017     35013     35014
     35019     35023     35024     35020     35019     35022     35020     35019     35021
     35021     35019     35022     35023     35019     35022     35023     35019     35021
     35023     35019     35020     35025     35029     35030     35026     35025     35028
     35026     35025     35027     35027     35025     35028     35029     35025     35028
     35029     35025     35027     35029     35025     35026     35031     35035     35036
     35032     35031     35034     35032     35031     35033     35033     35031     35034
     35035     35031     35034     35035     35031     35033     35035     35031     35032
     35037     35041     35042     35038     35037     35040     35038     35037     35039
     35039     35037     35040     35041     35037     35040     35041     35037     35039
     35041     35037     35038     35043     35047     35048     35044     35043     35046
     35044     35043     35045     35045     35043     35046     35047     35043     35046
     35047     35043     35045     35047     35043     35044     35049     35053     35054
     35050     35049     35052     35050     35049     35051     35051     35049     35052
     35053     35049     35052     35053     35049     35051     35053     35049     35050
     35055     35059     35060     35056     35055     35058     35056     35055     35057
     35057     35055     35058     35059     35055     35058     35059     35055     35057
     35059     35055     35056     35061     35065     35066     35062     35061     35064
     35062     35061     35063     35063     35061     35064     35065     35061     35064
     35065     35061     35063     35065     35061     35062     35067     35071     35072
     35068     35067     35070     35068     35067     35069     35069     35067     35070
     35071     35067     35070     35071     35067     35069     35071     35067     35068
     35073     35077     35078     35074     35073     35076     35074     35073     35075
     35075     35073     35076     35077     35073     35076     35077     35073     35075
     35077     35073     35074     35079     35083     35084     35080     35079     35082
     35080     35079     35081     35081     35079     35082     35083     35079     35082
     35083     35079     35081     35083     35079     35080     35085     35089     35090
     35086     35085     35088     35086     35085     35087     35087     35085     35088
     35089     35085     35088     35089     35085     35087     35089     35085     35086
     35091     35095     35096     35092     35091     35094     35092     35091     35093
     35093     35091     35094     35095     35091     35094     35095     35091     35093
     35095     35091     35092     35097     35101     35102     35098     35097     35100
     35098     35097     35099     35099     35097     35100     35101     35097     35100
     35101     35097     35099     35101     35097     35098     35103     35107     35108
     35104     35103     35106     35104     35103     35105     35105     35103     35106
     35107     35103     35106     35107     35103     35105     35107     35103     35104
     35109     35113     35114     35110     35109     35112     35110     35109     35111
     35111     35109     35112     35113     35109     35112     35113     35109     35111
     35113     35109     35110     35115     35119     35120     35116     35115     35118
     35116     35115     35117     35117     35115     35118     35119     35115     35118
     35119     35115     35117     35119     35115     35116     35121     35125     35126
     35122     35121     35124     35122     35121     35123     35123     35121     35124
     35125     35121     35124     35125     35121     35123     35125     35121     35122
     35127     35131     35132     35128     35127     35130     35128     35127     35129
     35129     35127     35130     35131     35127     35130     35131     35127     35129
     35131     35127     35128     35133     35137     35138     35134     35133     35136
     35134     35133     35135     35135     35133     35136     35137     35133     35136
     35137     35133     35135     35137     35133     35134     35139     35143     35144
     35140     35139     35142     35140     35139     35141     35141     35139     35142
     35143     35139     35142     35143     35139     35141     35143     35139     35140
     35145     35149     35150     35146     35145     35148     35146     35145     35147
     35147     35145     35148     35149     35145     35148     35149     35145     35147
     35149     35145     35146     35151     35155     35156     35152     35151     35154
     35152     35151     35153     35153     35151     35154     35155     35151     35154
     35155     35151     35153     35155     35151     35152     35157     35161     35162
     35158     35157     35160     35158     35157     35159     35159     35157     35160
     35161     35157     35160     35161     35157     35159     35161     35157     35158
     35163     35167     35168     35164     35163     35166     35164     35163     35165
     35165     35163     35166     35167     35163     35166     35167     35163     35165
     35167     35163     35164     35169     35173     35174     35170     35169     35172
     35170     35169     35171     35171     35169     35172     35173     35169     35172
     35173     35169     35171     35173     35169     35170     35175     35179     35180
     35176     35175     35178     35176     35175     35177     35177     35175     35178
     35179     35175     35178     35179     35175     35177     35179     35175     35176
     35181     35185     35186     35182     35181     35184     35182     35181     35183
     35183     35181     35184     35185     35181     35184     35185     35181     35183
     35185     35181     35182     35187     35191     35192     35188     35187     35190
     35188     35187     35189     35189     35187     35190     35191     35187     35190
     35191     35187     35189     35191     35187     35188     35193     35197     35198
     35194     35193     35196     35194     35193     35195     35195     35193     35196
     35197     35193     35196     35197     35193     35195     35197     35193     35194
     35199     35203     35204     35200     35199     35202     35200     35199     35201
     35201     35199     35202     35203     35199     35202     35203     35199     35201
     35203     35199     35200     35205     35209     35210     35206     35205     35208
     35206     35205     35207     35207     35205     35208     35209     35205     35208
     35209     35205     35207     35209     35205     35206     35211     35215     35216
     35212     35211     35214     35212     35211     35213     35213     35211     35214
     35215     35211     35214     35215     35211     35213     35215     35211     35212
     35217     35221     35222     35218     35217     35220     35218     35217     35219
     35219     35217     35220     35221     35217     35220     35221     35217     35219
     35221     35217     35218     35223     35227     35228     35224     35223     35226
     35224     35223     35225     35225     35223     35226     35227     35223     35226
     35227     35223     35225     35227     35223     35224     35229     35233     35234
     35230     35229     35232     35230     35229     35231     35231     35229     35232
     35233     35229     35232     35233     35229     35231     35233     35229     35230
     35235     35239     35240     35236     35235     35238     35236     35235     35237
     35237     35235     35238     35239     35235     35238     35239     35235     35237
     35239     35235     35236     35241     35245     35246     35242     35241     35244
     35242     35241     35243     35243     35241     35244     35245     35241     35244
     35245     35241     35243     35245     35241     35242     35247     35251     35252
     35248     35247     35250     35248     35247     35249     35249     35247     35250
     35251     35247     35250     35251     35247     35249     35251     35247     35248
     35253     35257     35258     35254     35253     35256     35254     35253     35255
     35255     35253     35256     35257     35253     35256     35257     35253     35255
     35257     35253     35254     35259     35263     35264     35260     35259     35262
     35260     35259     35261     35261     35259     35262     35263     35259     35262
     35263     35259     35261     35263     35259     35260     35265     35269     35270
     35266     35265     35268     35266     35265     35267     35267     35265     35268
     35269     35265     35268     35269     35265     35267     35269     35265     35266
     35271     35275     35276     35272     35271     35274     35272     35271     35273
     35273     35271     35274     35275     35271     35274     35275     35271     35273
     35275     35271     35272     35277     35281     35282     35278     35277     35280
     35278     35277     35279     35279     35277     35280     35281     35277     35280
     35281     35277     35279     35281     35277     35278     35283     35287     35288
     35284     35283     35286     35284     35283     35285     35285     35283     35286
     35287     35283     35286     35287     35283     35285     35287     35283     35284
     35289     35293     35294     35290     35289     35292     35290     35289     35291
     35291     35289     35292     35293     35289     35292     35293     35289     35291
     35293     35289     35290     35295     35299     35300     35296     35295     35298
     35296     35295     35297     35297     35295     35298     35299     35295     35298
     35299     35295     35297     35299     35295     35296     35301     35305     35306
     35302     35301     35304     35302     35301     35303     35303     35301     35304
     35305     35301     35304     35305     35301     35303     35305     35301     35302
     35307     35311     35312     35308     35307     35310     35308     35307     35309
     35309     35307     35310     35311     35307     35310     35311     35307     35309
     35311     35307     35308     35313     35317     35318     35314     35313     35316
     35314     35313     35315     35315     35313     35316     35317     35313     35316
     35317     35313     35315     35317     35313     35314     35319     35323     35324
     35320     35319     35322     35320     35319     35321     35321     35319     35322
     35323     35319     35322     35323     35319     35321     35323     35319     35320
     35325     35329     35330     35326     35325     35328     35326     35325     35327
     35327     35325     35328     35329     35325     35328     35329     35325     35327
     35329     35325     35326     35331     35335     35336     35332     35331     35334
     35332     35331     35333     35333     35331     35334     35335     35331     35334
     35335     35331     35333     35335     35331     35332     35337     35341     35342
     35338     35337     35340     35338     35337     35339     35339     35337     35340
     35341     35337     35340     35341     35337     35339     35341     35337     35338
     35343     35347     35348     35344     35343     35346     35344     35343     35345
     35345     35343     35346     35347     35343     35346     35347     35343     35345
     35347     35343     35344     35349     35353     35354     35350     35349     35352
     35350     35349     35351     35351     35349     35352     35353     35349     35352
     35353     35349     35351     35353     35349     35350     35355     35359     35360
     35356     35355     35358     35356     35355     35357     35357     35355     35358
     35359     35355     35358     35359     35355     35357     35359     35355     35356
     35361     35365     35366     35362     35361     35364     35362     35361     35363
     35363     35361     35364     35365     35361     35364     35365     35361     35363
     35365     35361     35362     35367     35371     35372     35368     35367     35370
     35368     35367     35369     35369     35367     35370     35371     35367     35370
     35371     35367     35369     35371     35367     35368     35373     35377     35378
     35374     35373     35376     35374     35373     35375     35375     35373     35376
     35377     35373     35376     35377     35373     35375     35377     35373     35374
     35379     35383     35384     35380     35379     35382     35380     35379     35381
     35381     35379     35382     35383     35379     35382     35383     35379     35381
     35383     35379     35380     35385     35389     35390     35386     35385     35388
     35386     35385     35387     35387     35385     35388     35389     35385     35388
     35389     35385     35387     35389     35385     35386     35391     35395     35396
     35392     35391     35394     35392     35391     35393     35393     35391     35394
     35395     35391     35394     35395     35391     35393     35395     35391     35392
     35397     35401     35402     35398     35397     35400     35398     35397     35399
     35399     35397     35400     35401     35397     35400     35401     35397     35399
     35401     35397     35398     35403     35407     35408     35404     35403     35406
     35404     35403     35405     35405     35403     35406     35407     35403     35406
     35407     35403     35405     35407     35403     35404     35409     35413     35414
     35410     35409     35412     35410     35409     35411     35411     35409     35412
     35413     35409     35412     35413     35409     35411     35413     35409     35410
     35415     35419     35420     35416     35415     35418     35416     35415     35417
     35417     35415     35418     35419     35415     35418     35419     35415     35417
     35419     35415     35416     35421     35425     35426     35422     35421     35424
     35422     35421     35423     35423     35421     35424     35425     35421     35424
     35425     35421     35423     35425     35421     35422     35427     35431     35432
     35428     35427     35430     35428     35427     35429     35429     35427     35430
     35431     35427     35430     35431     35427     35429     35431     35427     35428
     35433     35437     35438     35434     35433     35436     35434     35433     35435
     35435     35433     35436     35437     35433     35436     35437     35433     35435
     35437     35433     35434     35439     35443     35444     35440     35439     35442
     35440     35439     35441     35441     35439     35442     35443     35439     35442
     35443     35439     35441     35443     35439     35440     35445     35449     35450
     35446     35445     35448     35446     35445     35447     35447     35445     35448
     35449     35445     35448     35449     35445     35447     35449     35445     35446
     35451     35455     35456     35452     35451     35454     35452     35451     35453
     35453     35451     35454     35455     35451     35454     35455     35451     35453
     35455     35451     35452     35457     35461     35462     35458     35457     35460
     35458     35457     35459     35459     35457     35460     35461     35457     35460
     35461     35457     35459     35461     35457     35458     35463     35467     35468
     35464     35463     35466     35464     35463     35465     35465     35463     35466
     35467     35463     35466     35467     35463     35465     35467     35463     35464
     35469     35473     35474     35470     35469     35472     35470     35469     35471
     35471     35469     35472     35473     35469     35472     35473     35469     35471
     35473     35469     35470     35475     35479     35480     35476     35475     35478
     35476     35475     35477     35477     35475     35478     35479     35475     35478
     35479     35475     35477     35479     35475     35476     35481     35485     35486
     35482     35481     35484     35482     35481     35483     35483     35481     35484
     35485     35481     35484     35485     35481     35483     35485     35481     35482
     35487     35491     35492     35488     35487     35490     35488     35487     35489
     35489     35487     35490     35491     35487     35490     35491     35487     35489
     35491     35487     35488     35493     35497     35498     35494     35493     35496
     35494     35493     35495     35495     35493     35496     35497     35493     35496
     35497     35493     35495     35497     35493     35494     35499     35503     35504
     35500     35499     35502     35500     35499     35501     35501     35499     35502
     35503     35499     35502     35503     35499     35501     35503     35499     35500
     35505     35509     35510     35506     35505     35508     35506     35505     35507
     35507     35505     35508     35509     35505     35508     35509     35505     35507
     35509     35505     35506     35511     35515     35516     35512     35511     35514
     35512     35511     35513     35513     35511     35514     35515     35511     35514
     35515     35511     35513     35515     35511     35512     35517     35521     35522
     35518     35517     35520     35518     35517     35519     35519     35517     35520
     35521     35517     35520     35521     35517     35519     35521     35517     35518
     35523     35527     35528     35524     35523     35526     35524     35523     35525
     35525     35523     35526     35527     35523     35526     35527     35523     35525
     35527     35523     35524     35529     35533     35534     35530     35529     35532
     35530     35529     35531     35531     35529     35532     35533     35529     35532
     35533     35529     35531     35533     35529     35530     35535     35539     35540
     35536     35535     35538     35536     35535     35537     35537     35535     35538
     35539     35535     35538     35539     35535     35537     35539     35535     35536
     35541     35545     35546     35542     35541     35544     35542     35541     35543
     35543     35541     35544     35545     35541     35544     35545     35541     35543
     35545     35541     35542     35547     35551     35552     35548     35547     35550
     35548     35547     35549     35549     35547     35550     35551     35547     35550
     35551     35547     35549     35551     35547     35548     35553     35557     35558
     35554     35553     35556     35554     35553     35555     35555     35553     35556
     35557     35553     35556     35557     35553     35555     35557     35553     35554
     35559     35563     35564     35560     35559     35562     35560     35559     35561
     35561     35559     35562     35563     35559     35562     35563     35559     35561
     35563     35559     35560     35565     35569     35570     35566     35565     35568
     35566     35565     35567     35567     35565     35568     35569     35565     35568
     35569     35565     35567     35569     35565     35566     35571     35575     35576
     35572     35571     35574     35572     35571     35573     35573     35571     35574
     35575     35571     35574     35575     35571     35573     35575     35571     35572
     35577     35581     35582     35578     35577     35580     35578     35577     35579
     35579     35577     35580     35581     35577     35580     35581     35577     35579
     35581     35577     35578     35583     35587     35588     35584     35583     35586
     35584     35583     35585     35585     35583     35586     35587     35583     35586
     35587     35583     35585     35587     35583     35584     35589     35593     35594
     35590     35589     35592     35590     35589     35591     35591     35589     35592
     35593     35589     35592     35593     35589     35591     35593     35589     35590
     35595     35599     35600     35596     35595     35598     35596     35595     35597
     35597     35595     35598     35599     35595     35598     35599     35595     35597
     35599     35595     35596     35601     35605     35606     35602     35601     35604
     35602     35601     35603     35603     35601     35604     35605     35601     35604
     35605     35601     35603     35605     35601     35602     35607     35611     35612
     35608     35607     35610     35608     35607     35609     35609     35607     35610
     35611     35607     35610     35611     35607     35609     35611     35607     35608
     35613     35617     35618     35614     35613     35616     35614     35613     35615
     35615     35613     35616     35617     35613     35616     35617     35613     35615
     35617     35613     35614     35619     35623     35624     35620     35619     35622
     35620     35619     35621     35621     35619     35622     35623     35619     35622
     35623     35619     35621     35623     35619     35620     35625     35629     35630
     35626     35625     35628     35626     35625     35627     35627     35625     35628
     35629     35625     35628     35629     35625     35627     35629     35625     35626
     35631     35635     35636     35632     35631     35634     35632     35631     35633
     35633     35631     35634     35635     35631     35634     35635     35631     35633
     35635     35631     35632     35637     35641     35642     35638     35637     35640
     35638     35637     35639     35639     35637     35640     35641     35637     35640
     35641     35637     35639     35641     35637     35638     35643     35647     35648
     35644     35643     35646     35644     35643     35645     35645     35643     35646
     35647     35643     35646     35647     35643     35645     35647     35643     35644
     35649     35653     35654     35650     35649     35652     35650     35649     35651
     35651     35649     35652     35653     35649     35652     35653     35649     35651
     35653     35649     35650     35655     35659     35660     35656     35655     35658
     35656     35655     35657     35657     35655     35658     35659     35655     35658
     35659     35655     35657     35659     35655     35656     35661     35665     35666
     35662     35661     35664     35662     35661     35663     35663     35661     35664
     35665     35661     35664     35665     35661     35663     35665     35661     35662
     35667     35671     35672     35668     35667     35670     35668     35667     35669
     35669     35667     35670     35671     35667     35670     35671     35667     35669
     35671     35667     35668     35673     35677     35678     35674     35673     35676
     35674     35673     35675     35675     35673     35676     35677     35673     35676
     35677     35673     35675     35677     35673     35674     35679     35683     35684
     35680     35679     35682     35680     35679     35681     35681     35679     35682
     35683     35679     35682     35683     35679     35681     35683     35679     35680
     35685     35689     35690     35686     35685     35688     35686     35685     35687
     35687     35685     35688     35689     35685     35688     35689     35685     35687
     35689     35685     35686     35691     35695     35696     35692     35691     35694
     35692     35691     35693     35693     35691     35694     35695     35691     35694
     35695     35691     35693     35695     35691     35692     35697     35701     35702
     35698     35697     35700     35698     35697     35699     35699     35697     35700
     35701     35697     35700     35701     35697     35699     35701     35697     35698
     35703     35707     35708     35704     35703     35706     35704     35703     35705
     35705     35703     35706     35707     35703     35706     35707     35703     35705
     35707     35703     35704     35709     35713     35714     35710     35709     35712
     35710     35709     35711     35711     35709     35712     35713     35709     35712
     35713     35709     35711     35713     35709     35710     35715     35719     35720
     35716     35715     35718     35716     35715     35717     35717     35715     35718
     35719     35715     35718     35719     35715     35717     35719     35715     35716
     35721     35725     35726     35722     35721     35724     35722     35721     35723
     35723     35721     35724     35725     35721     35724     35725     35721     35723
     35725     35721     35722     35727     35731     35732     35728     35727     35730
     35728     35727     35729     35729     35727     35730     35731     35727     35730
     35731     35727     35729     35731     35727     35728     35733     35737     35738
     35734     35733     35736     35734     35733     35735     35735     35733     35736
     35737     35733     35736     35737     35733     35735     35737     35733     35734
     35739     35743     35744     35740     35739     35742     35740     35739     35741
     35741     35739     35742     35743     35739     35742     35743     35739     35741
     35743     35739     35740     35745     35749     35750     35746     35745     35748
     35746     35745     35747     35747     35745     35748     35749     35745     35748
     35749     35745     35747     35749     35745     35746     35751     35755     35756
     35752     35751     35754     35752     35751     35753     35753     35751     35754
     35755     35751     35754     35755     35751     35753     35755     35751     35752
     35757     35761     35762     35758     35757     35760     35758     35757     35759
     35759     35757     35760     35761     35757     35760     35761     35757     35759
     35761     35757     35758     35763     35767     35768     35764     35763     35766
     35764     35763     35765     35765     35763     35766     35767     35763     35766
     35767     35763     35765     35767     35763     35764     35769     35773     35774
     35770     35769     35772     35770     35769     35771     35771     35769     35772
     35773     35769     35772     35773     35769     35771     35773     35769     35770
     35775     35779     35780     35776     35775     35778     35776     35775     35777
     35777     35775     35778     35779     35775     35778     35779     35775     35777
     35779     35775     35776     35781     35785     35786     35782     35781     35784
     35782     35781     35783     35783     35781     35784     35785     35781     35784
     35785     35781     35783     35785     35781     35782     35787     35791     35792
     35788     35787     35790     35788     35787     35789     35789     35787     35790
     35791     35787     35790     35791     35787     35789     35791     35787     35788
     35793     35797     35798     35794     35793     35796     35794     35793     35795
     35795     35793     35796     35797     35793     35796     35797     35793     35795
     35797     35793     35794     35799     35803     35804     35800     35799     35802
     35800     35799     35801     35801     35799     35802     35803     35799     35802
     35803     35799     35801     35803     35799     35800     35805     35809     35810
     35806     35805     35808     35806     35805     35807     35807     35805     35808
     35809     35805     35808     35809     35805     35807     35809     35805     35806
     35811     35815     35816     35812     35811     35814     35812     35811     35813
     35813     35811     35814     35815     35811     35814     35815     35811     35813
     35815     35811     35812     35817     35821     35822     35818     35817     35820
     35818     35817     35819     35819     35817     35820     35821     35817     35820
     35821     35817     35819     35821     35817     35818     35823     35827     35828
     35824     35823     35826     35824     35823     35825     35825     35823     35826
     35827     35823     35826     35827     35823     35825     35827     35823     35824
     35829     35833     35834     35830     35829     35832     35830     35829     35831
     35831     35829     35832     35833     35829     35832     35833     35829     35831
     35833     35829     35830     35835     35839     35840     35836     35835     35838
     35836     35835     35837     35837     35835     35838     35839     35835     35838
     35839     35835     35837     35839     35835     35836     35841     35845     35846
     35842     35841     35844     35842     35841     35843     35843     35841     35844
     35845     35841     35844     35845     35841     35843     35845     35841     35842
     35847     35851     35852     35848     35847     35850     35848     35847     35849
     35849     35847     35850     35851     35847     35850     35851     35847     35849
     35851     35847     35848     35853     35857     35858     35854     35853     35856
     35854     35853     35855     35855     35853     35856     35857     35853     35856
     35857     35853     35855     35857     35853     35854     35859     35863     35864
     35860     35859     35862     35860     35859     35861     35861     35859     35862
     35863     35859     35862     35863     35859     35861     35863     35859     35860
     35865     35869     35870     35866     35865     35868     35866     35865     35867
     35867     35865     35868     35869     35865     35868     35869     35865     35867
     35869     35865     35866     35871     35875     35876     35872     35871     35874
     35872     35871     35873     35873     35871     35874     35875     35871     35874
     35875     35871     35873     35875     35871     35872     35877     35881     35882
     35878     35877     35880     35878     35877     35879     35879     35877     35880
     35881     35877     35880     35881     35877     35879     35881     35877     35878
     35883     35887     35888     35884     35883     35886     35884     35883     35885
     35885     35883     35886     35887     35883     35886     35887     35883     35885
     35887     35883     35884     35889     35893     35894     35890     35889     35892
     35890     35889     35891     35891     35889     35892     35893     35889     35892
     35893     35889     35891     35893     35889     35890     35895     35899     35900
     35896     35895     35898     35896     35895     35897     35897     35895     35898
     35899     35895     35898     35899     35895     35897     35899     35895     35896
     35901     35905     35906     35902     35901     35904     35902     35901     35903
     35903     35901     35904     35905     35901     35904     35905     35901     35903
     35905     35901     35902     35907     35911     35912     35908     35907     35910
     35908     35907     35909     35909     35907     35910     35911     35907     35910
     35911     35907     35909     35911     35907     35908     35913     35917     35918
     35914     35913     35916     35914     35913     35915     35915     35913     35916
     35917     35913     35916     35917     35913     35915     35917     35913     35914
     35919     35923     35924     35920     35919     35922     35920     35919     35921
     35921     35919     35922     35923     35919     35922     35923     35919     35921
     35923     35919     35920     35925     35929     35930     35926     35925     35928
     35926     35925     35927     35927     35925     35928     35929     35925     35928
     35929     35925     35927     35929     35925     35926     35931     35935     35936
     35932     35931     35934     35932     35931     35933     35933     35931     35934
     35935     35931     35934     35935     35931     35933     35935     35931     35932
     35937     35941     35942     35938     35937     35940     35938     35937     35939
     35939     35937     35940     35941     35937     35940     35941     35937     35939
     35941     35937     35938     35943     35947     35948     35944     35943     35946
     35944     35943     35945     35945     35943     35946     35947     35943     35946
     35947     35943     35945     35947     35943     35944     35949     35953     35954
     35950     35949     35952     35950     35949     35951     35951     35949     35952
     35953     35949     35952     35953     35949     35951     35953     35949     35950
     35955     35959     35960     35956     35955     35958     35956     35955     35957
     35957     35955     35958     35959     35955     35958     35959     35955     35957
     35959     35955     35956     35961     35965     35966     35962     35961     35964
     35962     35961     35963     35963     35961     35964     35965     35961     35964
     35965     35961     35963     35965     35961     35962     35967     35971     35972
     35968     35967     35970     35968     35967     35969     35969     35967     35970
     35971     35967     35970     35971     35967     35969     35971     35967     35968
     35973     35977     35978     35974     35973     35976     35974     35973     35975
     35975     35973     35976     35977     35973     35976     35977     35973     35975
     35977     35973     35974     35979     35983     35984     35980     35979     35982
     35980     35979     35981     35981     35979     35982     35983     35979     35982
     35983     35979     35981     35983     35979     35980     35985     35989     35990
     35986     35985     35988     35986     35985     35987     35987     35985     35988
     35989     35985     35988     35989     35985     35987     35989     35985     35986
     35991     35995     35996     35992     35991     35994     35992     35991     35993
     35993     35991     35994     35995     35991     35994     35995     35991     35993
     35995     35991     35992     35997     36001     36002     35998     35997     36000
     35998     35997     35999     35999     35997     36000     36001     35997     36000
     36001     35997     35999     36001     35997     35998     36003     36007     36008
     36004     36003     36006     36004     36003     36005     36005     36003     36006
     36007     36003     36006     36007     36003     36005     36007     36003     36004
     36009     36013     36014     36010     36009     36012     36010     36009     36011
     36011     36009     36012     36013     36009     36012     36013     36009     36011
     36013     36009     36010     36015     36019     36020     36016     36015     36018
     36016     36015     36017     36017     36015     36018     36019     36015     36018
     36019     36015     36017     36019     36015     36016     36021     36025     36026
     36022     36021     36024     36022     36021     36023     36023     36021     36024
     36025     36021     36024     36025     36021     36023     36025     36021     36022
     36027     36031     36032     36028     36027     36030     36028     36027     36029
     36029     36027     36030     36031     36027     36030     36031     36027     36029
     36031     36027     36028     36033     36037     36038     36034     36033     36036
     36034     36033     36035     36035     36033     36036     36037     36033     36036
     36037     36033     36035     36037     36033     36034     36039     36043     36044
     36040     36039     36042     36040     36039     36041     36041     36039     36042
     36043     36039     36042     36043     36039     36041     36043     36039     36040
     36045     36049     36050     36046     36045     36048     36046     36045     36047
     36047     36045     36048     36049     36045     36048     36049     36045     36047
     36049     36045     36046     36051     36055     36056     36052     36051     36054
     36052     36051     36053     36053     36051     36054     36055     36051     36054
     36055     36051     36053     36055     36051     36052     36057     36061     36062
     36058     36057     36060     36058     36057     36059     36059     36057     36060
     36061     36057     36060     36061     36057     36059     36061     36057     36058
     36063     36067     36068     36064     36063     36066     36064     36063     36065
     36065     36063     36066     36067     36063     36066     36067     36063     36065
     36067     36063     36064     36069     36073     36074     36070     36069     36072
     36070     36069     36071     36071     36069     36072     36073     36069     36072
     36073     36069     36071     36073     36069     36070     36075     36079     36080
     36076     36075     36078     36076     36075     36077     36077     36075     36078
     36079     36075     36078     36079     36075     36077     36079     36075     36076
     36081     36085     36086     36082     36081     36084     36082     36081     36083
     36083     36081     36084     36085     36081     36084     36085     36081     36083
     36085     36081     36082     36087     36091     36092     36088     36087     36090
     36088     36087     36089     36089     36087     36090     36091     36087     36090
     36091     36087     36089     36091     36087     36088     36093     36097     36098
     36094     36093     36096     36094     36093     36095     36095     36093     36096
     36097     36093     36096     36097     36093     36095     36097     36093     36094
     36099     36103     36104     36100     36099     36102     36100     36099     36101
     36101     36099     36102     36103     36099     36102     36103     36099     36101
     36103     36099     36100     36105     36109     36110     36106     36105     36108
     36106     36105     36107     36107     36105     36108     36109     36105     36108
     36109     36105     36107     36109     36105     36106     36111     36115     36116
     36112     36111     36114     36112     36111     36113     36113     36111     36114
     36115     36111     36114     36115     36111     36113     36115     36111     36112
     36117     36121     36122     36118     36117     36120     36118     36117     36119
     36119     36117     36120     36121     36117     36120     36121     36117     36119
     36121     36117     36118     36123     36127     36128     36124     36123     36126
     36124     36123     36125     36125     36123     36126     36127     36123     36126
     36127     36123     36125     36127     36123     36124     36129     36133     36134
     36130     36129     36132     36130     36129     36131     36131     36129     36132
     36133     36129     36132     36133     36129     36131     36133     36129     36130
     36135     36139     36140     36136     36135     36138     36136     36135     36137
     36137     36135     36138     36139     36135     36138     36139     36135     36137
     36139     36135     36136     36141     36145     36146     36142     36141     36144
     36142     36141     36143     36143     36141     36144     36145     36141     36144
     36145     36141     36143     36145     36141     36142     36147     36151     36152
     36148     36147     36150     36148     36147     36149     36149     36147     36150
     36151     36147     36150     36151     36147     36149     36151     36147     36148
     36153     36157     36158     36154     36153     36156     36154     36153     36155
     36155     36153     36156     36157     36153     36156     36157     36153     36155
     36157     36153     36154     36159     36163     36164     36160     36159     36162
     36160     36159     36161     36161     36159     36162     36163     36159     36162
     36163     36159     36161     36163     36159     36160     36165     36169     36170
     36166     36165     36168     36166     36165     36167     36167     36165     36168
     36169     36165     36168     36169     36165     36167     36169     36165     36166
     36171     36175     36176     36172     36171     36174     36172     36171     36173
     36173     36171     36174     36175     36171     36174     36175     36171     36173
     36175     36171     36172     36177     36181     36182     36178     36177     36180
     36178     36177     36179     36179     36177     36180     36181     36177     36180
     36181     36177     36179     36181     36177     36178     36183     36187     36188
     36184     36183     36186     36184     36183     36185     36185     36183     36186
     36187     36183     36186     36187     36183     36185     36187     36183     36184
     36189     36193     36194     36190     36189     36192     36190     36189     36191
     36191     36189     36192     36193     36189     36192     36193     36189     36191
     36193     36189     36190     36195     36199     36200     36196     36195     36198
     36196     36195     36197     36197     36195     36198     36199     36195     36198
     36199     36195     36197     36199     36195     36196     36201     36205     36206
     36202     36201     36204     36202     36201     36203     36203     36201     36204
     36205     36201     36204     36205     36201     36203     36205     36201     36202
     36207     36211     36212     36208     36207     36210     36208     36207     36209
     36209     36207     36210     36211     36207     36210     36211     36207     36209
     36211     36207     36208     36213     36217     36218     36214     36213     36216
     36214     36213     36215     36215     36213     36216     36217     36213     36216
     36217     36213     36215     36217     36213     36214     36219     36223     36224
     36220     36219     36222     36220     36219     36221     36221     36219     36222
     36223     36219     36222     36223     36219     36221     36223     36219     36220
     36225     36229     36230     36226     36225     36228     36226     36225     36227
     36227     36225     36228     36229     36225     36228     36229     36225     36227
     36229     36225     36226     36231     36235     36236     36232     36231     36234
     36232     36231     36233     36233     36231     36234     36235     36231     36234
     36235     36231     36233     36235     36231     36232     36237     36241     36242
     36238     36237     36240     36238     36237     36239     36239     36237     36240
     36241     36237     36240     36241     36237     36239     36241     36237     36238
     36243     36247     36248     36244     36243     36246     36244     36243     36245
     36245     36243     36246     36247     36243     36246     36247     36243     36245
     36247     36243     36244     36249     36253     36254     36250     36249     36252
     36250     36249     36251     36251     36249     36252     36253     36249     36252
     36253     36249     36251     36253     36249     36250     36255     36259     36260
     36256     36255     36258     36256     36255     36257     36257     36255     36258
     36259     36255     36258     36259     36255     36257     36259     36255     36256
     36261     36265     36266     36262     36261     36264     36262     36261     36263
     36263     36261     36264     36265     36261     36264     36265     36261     36263
     36265     36261     36262     36267     36271     36272     36268     36267     36270
     36268     36267     36269     36269     36267     36270     36271     36267     36270
     36271     36267     36269     36271     36267     36268     36273     36277     36278
     36274     36273     36276     36274     36273     36275     36275     36273     36276
     36277     36273     36276     36277     36273     36275     36277     36273     36274
     36279     36283     36284     36280     36279     36282     36280     36279     36281
     36281     36279     36282     36283     36279     36282     36283     36279     36281
     36283     36279     36280     36285     36289     36290     36286     36285     36288
     36286     36285     36287     36287     36285     36288     36289     36285     36288
     36289     36285     36287     36289     36285     36286     36291     36295     36296
     36292     36291     36294     36292     36291     36293     36293     36291     36294
     36295     36291     36294     36295     36291     36293     36295     36291     36292
     36297     36301     36302     36298     36297     36300     36298     36297     36299
     36299     36297     36300     36301     36297     36300     36301     36297     36299
     36301     36297     36298     36303     36307     36308     36304     36303     36306
     36304     36303     36305     36305     36303     36306     36307     36303     36306
     36307     36303     36305     36307     36303     36304     36309     36313     36314
     36310     36309     36312     36310     36309     36311     36311     36309     36312
     36313     36309     36312     36313     36309     36311     36313     36309     36310
     36315     36319     36320     36316     36315     36318     36316     36315     36317
     36317     36315     36318     36319     36315     36318     36319     36315     36317
     36319     36315     36316     36321     36325     36326     36322     36321     36324
     36322     36321     36323     36323     36321     36324     36325     36321     36324
     36325     36321     36323     36325     36321     36322     36327     36331     36332
     36328     36327     36330     36328     36327     36329     36329     36327     36330
     36331     36327     36330     36331     36327     36329     36331     36327     36328
     36333     36337     36338     36334     36333     36336     36334     36333     36335
     36335     36333     36336     36337     36333     36336     36337     36333     36335
     36337     36333     36334     36339     36343     36344     36340     36339     36342
     36340     36339     36341     36341     36339     36342     36343     36339     36342
     36343     36339     36341     36343     36339     36340     36345     36349     36350
     36346     36345     36348     36346     36345     36347     36347     36345     36348
     36349     36345     36348     36349     36345     36347     36349     36345     36346
     36351     36355     36356     36352     36351     36354     36352     36351     36353
     36353     36351     36354     36355     36351     36354     36355     36351     36353
     36355     36351     36352     36357     36361     36362     36358     36357     36360
     36358     36357     36359     36359     36357     36360     36361     36357     36360
     36361     36357     36359     36361     36357     36358     36363     36367     36368
     36364     36363     36366     36364     36363     36365     36365     36363     36366
     36367     36363     36366     36367     36363     36365     36367     36363     36364
     36369     36373     36374     36370     36369     36372     36370     36369     36371
     36371     36369     36372     36373     36369     36372     36373     36369     36371
     36373     36369     36370     36375     36379     36380     36376     36375     36378
     36376     36375     36377     36377     36375     36378     36379     36375     36378
     36379     36375     36377     36379     36375     36376     36381     36385     36386
     36382     36381     36384     36382     36381     36383     36383     36381     36384
     36385     36381     36384     36385     36381     36383     36385     36381     36382
     36387     36391     36392     36388     36387     36390     36388     36387     36389
     36389     36387     36390     36391     36387     36390     36391     36387     36389
     36391     36387     36388     36393     36397     36398     36394     36393     36396
     36394     36393     36395     36395     36393     36396     36397     36393     36396
     36397     36393     36395     36397     36393     36394     36399     36403     36404
     36400     36399     36402     36400     36399     36401     36401     36399     36402
     36403     36399     36402     36403     36399     36401     36403     36399     36400
     36405     36409     36410     36406     36405     36408     36406     36405     36407
     36407     36405     36408     36409     36405     36408     36409     36405     36407
     36409     36405     36406     36411     36415     36416     36412     36411     36414
     36412     36411     36413     36413     36411     36414     36415     36411     36414
     36415     36411     36413     36415     36411     36412     36417     36421     36422
     36418     36417     36420     36418     36417     36419     36419     36417     36420
     36421     36417     36420     36421     36417     36419     36421     36417     36418
     36423     36427     36428     36424     36423     36426     36424     36423     36425
     36425     36423     36426     36427     36423     36426     36427     36423     36425
     36427     36423     36424     36429     36433     36434     36430     36429     36432
     36430     36429     36431     36431     36429     36432     36433     36429     36432
     36433     36429     36431     36433     36429     36430     36435     36439     36440
     36436     36435     36438     36436     36435     36437     36437     36435     36438
     36439     36435     36438     36439     36435     36437     36439     36435     36436
     36441     36445     36446     36442     36441     36444     36442     36441     36443
     36443     36441     36444     36445     36441     36444     36445     36441     36443
     36445     36441     36442     36447     36451     36452     36448     36447     36450
     36448     36447     36449     36449     36447     36450     36451     36447     36450
     36451     36447     36449     36451     36447     36448     36453     36457     36458
     36454     36453     36456     36454     36453     36455     36455     36453     36456
     36457     36453     36456     36457     36453     36455     36457     36453     36454
     36459     36463     36464     36460     36459     36462     36460     36459     36461
     36461     36459     36462     36463     36459     36462     36463     36459     36461
     36463     36459     36460     36465     36469     36470     36466     36465     36468
     36466     36465     36467     36467     36465     36468     36469     36465     36468
     36469     36465     36467     36469     36465     36466     36471     36475     36476
     36472     36471     36474     36472     36471     36473     36473     36471     36474
     36475     36471     36474     36475     36471     36473     36475     36471     36472
     36477     36481     36482     36478     36477     36480     36478     36477     36479
     36479     36477     36480     36481     36477     36480     36481     36477     36479
     36481     36477     36478     36483     36487     36488     36484     36483     36486
     36484     36483     36485     36485     36483     36486     36487     36483     36486
     36487     36483     36485     36487     36483     36484     36489     36493     36494
     36490     36489     36492     36490     36489     36491     36491     36489     36492
     36493     36489     36492     36493     36489     36491     36493     36489     36490
     36495     36499     36500     36496     36495     36498     36496     36495     36497
     36497     36495     36498     36499     36495     36498     36499     36495     36497
     36499     36495     36496     36501     36505     36506     36502     36501     36504
     36502     36501     36503     36503     36501     36504     36505     36501     36504
     36505     36501     36503     36505     36501     36502     36507     36511     36512
     36508     36507     36510     36508     36507     36509     36509     36507     36510
     36511     36507     36510     36511     36507     36509     36511     36507     36508
     36513     36517     36518     36514     36513     36516     36514     36513     36515
     36515     36513     36516     36517     36513     36516     36517     36513     36515
     36517     36513     36514     36519     36523     36524     36520     36519     36522
     36520     36519     36521     36521     36519     36522     36523     36519     36522
     36523     36519     36521     36523     36519     36520     36525     36529     36530
     36526     36525     36528     36526     36525     36527     36527     36525     36528
     36529     36525     36528     36529     36525     36527     36529     36525     36526
     36531     36535     36536     36532     36531     36534     36532     36531     36533
     36533     36531     36534     36535     36531     36534     36535     36531     36533
     36535     36531     36532     36537     36541     36542     36538     36537     36540
     36538     36537     36539     36539     36537     36540     36541     36537     36540
     36541     36537     36539     36541     36537     36538     36543     36547     36548
     36544     36543     36546     36544     36543     36545     36545     36543     36546
     36547     36543     36546     36547     36543     36545     36547     36543     36544
     36549     36553     36554     36550     36549     36552     36550     36549     36551
     36551     36549     36552     36553     36549     36552     36553     36549     36551
     36553     36549     36550     36555     36559     36560     36556     36555     36558
     36556     36555     36557     36557     36555     36558     36559     36555     36558
     36559     36555     36557     36559     36555     36556     36561     36565     36566
     36562     36561     36564     36562     36561     36563     36563     36561     36564
     36565     36561     36564     36565     36561     36563     36565     36561     36562
     36567     36571     36572     36568     36567     36570     36568     36567     36569
     36569     36567     36570     36571     36567     36570     36571     36567     36569
     36571     36567     36568     36573     36577     36578     36574     36573     36576
     36574     36573     36575     36575     36573     36576     36577     36573     36576
     36577     36573     36575     36577     36573     36574     36579     36583     36584
     36580     36579     36582     36580     36579     36581     36581     36579     36582
     36583     36579     36582     36583     36579     36581     36583     36579     36580
     36585     36589     36590     36586     36585     36588     36586     36585     36587
     36587     36585     36588     36589     36585     36588     36589     36585     36587
     36589     36585     36586     36591     36595     36596     36592     36591     36594
     36592     36591     36593     36593     36591     36594     36595     36591     36594
     36595     36591     36593     36595     36591     36592     36597     36601     36602
     36598     36597     36600     36598     36597     36599     36599     36597     36600
     36601     36597     36600     36601     36597     36599     36601     36597     36598
     36603     36607     36608     36604     36603     36606     36604     36603     36605
     36605     36603     36606     36607     36603     36606     36607     36603     36605
     36607     36603     36604     36609     36613     36614     36610     36609     36612
     36610     36609     36611     36611     36609     36612     36613     36609     36612
     36613     36609     36611     36613     36609     36610     36615     36619     36620
     36616     36615     36618     36616     36615     36617     36617     36615     36618
     36619     36615     36618     36619     36615     36617     36619     36615     36616
     36621     36625     36626     36622     36621     36624     36622     36621     36623
     36623     36621     36624     36625     36621     36624     36625     36621     36623
     36625     36621     36622     36627     36631     36632     36628     36627     36630
     36628     36627     36629     36629     36627     36630     36631     36627     36630
     36631     36627     36629     36631     36627     36628     36633     36637     36638
     36634     36633     36636     36634     36633     36635     36635     36633     36636
     36637     36633     36636     36637     36633     36635     36637     36633     36634
     36639     36643     36644     36640     36639     36642     36640     36639     36641
     36641     36639     36642     36643     36639     36642     36643     36639     36641
     36643     36639     36640     36645     36649     36650     36646     36645     36648
     36646     36645     36647     36647     36645     36648     36649     36645     36648
     36649     36645     36647     36649     36645     36646     36651     36655     36656
     36652     36651     36654     36652     36651     36653     36653     36651     36654
     36655     36651     36654     36655     36651     36653     36655     36651     36652
     36657     36661     36662     36658     36657     36660     36658     36657     36659
     36659     36657     36660     36661     36657     36660     36661     36657     36659
     36661     36657     36658     36663     36667     36668     36664     36663     36666
     36664     36663     36665     36665     36663     36666     36667     36663     36666
     36667     36663     36665     36667     36663     36664     36669     36673     36674
     36670     36669     36672     36670     36669     36671     36671     36669     36672
     36673     36669     36672     36673     36669     36671     36673     36669     36670
     36675     36679     36680     36676     36675     36678     36676     36675     36677
     36677     36675     36678     36679     36675     36678     36679     36675     36677
     36679     36675     36676     36681     36685     36686     36682     36681     36684
     36682     36681     36683     36683     36681     36684     36685     36681     36684
     36685     36681     36683     36685     36681     36682     36687     36691     36692
     36688     36687     36690     36688     36687     36689     36689     36687     36690
     36691     36687     36690     36691     36687     36689     36691     36687     36688
     36693     36697     36698     36694     36693     36696     36694     36693     36695
     36695     36693     36696     36697     36693     36696     36697     36693     36695
     36697     36693     36694     36699     36703     36704     36700     36699     36702
     36700     36699     36701     36701     36699     36702     36703     36699     36702
     36703     36699     36701     36703     36699     36700     36705     36709     36710
     36706     36705     36708     36706     36705     36707     36707     36705     36708
     36709     36705     36708     36709     36705     36707     36709     36705     36706
     36711     36715     36716     36712     36711     36714     36712     36711     36713
     36713     36711     36714     36715     36711     36714     36715     36711     36713
     36715     36711     36712     36717     36721     36722     36718     36717     36720
     36718     36717     36719     36719     36717     36720     36721     36717     36720
     36721     36717     36719     36721     36717     36718     36723     36727     36728
     36724     36723     36726     36724     36723     36725     36725     36723     36726
     36727     36723     36726     36727     36723     36725     36727     36723     36724
     36729     36733     36734     36730     36729     36732     36730     36729     36731
     36731     36729     36732     36733     36729     36732     36733     36729     36731
     36733     36729     36730     36735     36739     36740     36736     36735     36738
     36736     36735     36737     36737     36735     36738     36739     36735     36738
     36739     36735     36737     36739     36735     36736     36741     36745     36746
     36742     36741     36744     36742     36741     36743     36743     36741     36744
     36745     36741     36744     36745     36741     36743     36745     36741     36742
     36747     36751     36752     36748     36747     36750     36748     36747     36749
     36749     36747     36750     36751     36747     36750     36751     36747     36749
     36751     36747     36748     36753     36757     36758     36754     36753     36756
     36754     36753     36755     36755     36753     36756     36757     36753     36756
     36757     36753     36755     36757     36753     36754     36759     36763     36764
     36760     36759     36762     36760     36759     36761     36761     36759     36762
     36763     36759     36762     36763     36759     36761     36763     36759     36760
     36765     36769     36770     36766     36765     36768     36766     36765     36767
     36767     36765     36768     36769     36765     36768     36769     36765     36767
     36769     36765     36766     36771     36775     36776     36772     36771     36774
     36772     36771     36773     36773     36771     36774     36775     36771     36774
     36775     36771     36773     36775     36771     36772     36777     36781     36782
     36778     36777     36780     36778     36777     36779     36779     36777     36780
     36781     36777     36780     36781     36777     36779     36781     36777     36778
     36783     36787     36788     36784     36783     36786     36784     36783     36785
     36785     36783     36786     36787     36783     36786     36787     36783     36785
     36787     36783     36784     36789     36793     36794     36790     36789     36792
     36790     36789     36791     36791     36789     36792     36793     36789     36792
     36793     36789     36791     36793     36789     36790     36795     36799     36800
     36796     36795     36798     36796     36795     36797     36797     36795     36798
     36799     36795     36798     36799     36795     36797     36799     36795     36796
     36801     36805     36806     36802     36801     36804     36802     36801     36803
     36803     36801     36804     36805     36801     36804     36805     36801     36803
     36805     36801     36802     36807     36811     36812     36808     36807     36810
     36808     36807     36809     36809     36807     36810     36811     36807     36810
     36811     36807     36809     36811     36807     36808     36813     36817     36818
     36814     36813     36816     36814     36813     36815     36815     36813     36816
     36817     36813     36816     36817     36813     36815     36817     36813     36814
     36819     36823     36824     36820     36819     36822     36820     36819     36821
     36821     36819     36822     36823     36819     36822     36823     36819     36821
     36823     36819     36820     36825     36829     36830     36826     36825     36828
     36826     36825     36827     36827     36825     36828     36829     36825     36828
     36829     36825     36827     36829     36825     36826     36831     36835     36836
     36832     36831     36834     36832     36831     36833     36833     36831     36834
     36835     36831     36834     36835     36831     36833     36835     36831     36832
     36837     36841     36842     36838     36837     36840     36838     36837     36839
     36839     36837     36840     36841     36837     36840     36841     36837     36839
     36841     36837     36838     36843     36847     36848     36844     36843     36846
     36844     36843     36845     36845     36843     36846     36847     36843     36846
     36847     36843     36845     36847     36843     36844     36849     36853     36854
     36850     36849     36852     36850     36849     36851     36851     36849     36852
     36853     36849     36852     36853     36849     36851     36853     36849     36850
     36855     36859     36860     36856     36855     36858     36856     36855     36857
     36857     36855     36858     36859     36855     36858     36859     36855     36857
     36859     36855     36856     36861     36865     36866     36862     36861     36864
     36862     36861     36863     36863     36861     36864     36865     36861     36864
     36865     36861     36863     36865     36861     36862     36867     36871     36872
     36868     36867     36870     36868     36867     36869     36869     36867     36870
     36871     36867     36870     36871     36867     36869     36871     36867     36868
     36873     36877     36878     36874     36873     36876     36874     36873     36875
     36875     36873     36876     36877     36873     36876     36877     36873     36875
     36877     36873     36874     36879     36883     36884     36880     36879     36882
     36880     36879     36881     36881     36879     36882     36883     36879     36882
     36883     36879     36881     36883     36879     36880     36885     36889     36890
     36886     36885     36888     36886     36885     36887     36887     36885     36888
     36889     36885     36888     36889     36885     36887     36889     36885     36886
     36891     36895     36896     36892     36891     36894     36892     36891     36893
     36893     36891     36894     36895     36891     36894     36895     36891     36893
     36895     36891     36892     36897     36901     36902     36898     36897     36900
     36898     36897     36899     36899     36897     36900     36901     36897     36900
     36901     36897     36899     36901     36897     36898     36903     36907     36908
     36904     36903     36906     36904     36903     36905     36905     36903     36906
     36907     36903     36906     36907     36903     36905     36907     36903     36904
     36909     36913     36914     36910     36909     36912     36910     36909     36911
     36911     36909     36912     36913     36909     36912     36913     36909     36911
     36913     36909     36910     36915     36919     36920     36916     36915     36918
     36916     36915     36917     36917     36915     36918     36919     36915     36918
     36919     36915     36917     36919     36915     36916     36921     36925     36926
     36922     36921     36924     36922     36921     36923     36923     36921     36924
     36925     36921     36924     36925     36921     36923     36925     36921     36922
     36927     36931     36932     36928     36927     36930     36928     36927     36929
     36929     36927     36930     36931     36927     36930     36931     36927     36929
     36931     36927     36928     36933     36937     36938     36934     36933     36936
     36934     36933     36935     36935     36933     36936     36937     36933     36936
     36937     36933     36935     36937     36933     36934     36939     36943     36944
     36940     36939     36942     36940     36939     36941     36941     36939     36942
     36943     36939     36942     36943     36939     36941     36943     36939     36940
     36945     36949     36950     36946     36945     36948     36946     36945     36947
     36947     36945     36948     36949     36945     36948     36949     36945     36947
     36949     36945     36946     36951     36955     36956     36952     36951     36954
     36952     36951     36953     36953     36951     36954     36955     36951     36954
     36955     36951     36953     36955     36951     36952     36957     36961     36962
     36958     36957     36960     36958     36957     36959     36959     36957     36960
     36961     36957     36960     36961     36957     36959     36961     36957     36958
     36963     36967     36968     36964     36963     36966     36964     36963     36965
     36965     36963     36966     36967     36963     36966     36967     36963     36965
     36967     36963     36964     36969     36973     36974     36970     36969     36972
     36970     36969     36971     36971     36969     36972     36973     36969     36972
     36973     36969     36971     36973     36969     36970     36975     36979     36980
     36976     36975     36978     36976     36975     36977     36977     36975     36978
     36979     36975     36978     36979     36975     36977     36979     36975     36976
     36981     36985     36986     36982     36981     36984     36982     36981     36983
     36983     36981     36984     36985     36981     36984     36985     36981     36983
     36985     36981     36982     36987     36991     36992     36988     36987     36990
     36988     36987     36989     36989     36987     36990     36991     36987     36990
     36991     36987     36989     36991     36987     36988     36993     36997     36998
     36994     36993     36996     36994     36993     36995     36995     36993     36996
     36997     36993     36996     36997     36993     36995     36997     36993     36994
     36999     37003     37004     37000     36999     37002     37000     36999     37001
     37001     36999     37002     37003     36999     37002     37003     36999     37001
     37003     36999     37000     37005     37009     37010     37006     37005     37008
     37006     37005     37007     37007     37005     37008     37009     37005     37008
     37009     37005     37007     37009     37005     37006     37011     37015     37016
     37012     37011     37014     37012     37011     37013     37013     37011     37014
     37015     37011     37014     37015     37011     37013     37015     37011     37012
     37017     37021     37022     37018     37017     37020     37018     37017     37019
     37019     37017     37020     37021     37017     37020     37021     37017     37019
     37021     37017     37018     37023     37027     37028     37024     37023     37026
     37024     37023     37025     37025     37023     37026     37027     37023     37026
     37027     37023     37025     37027     37023     37024     37029     37033     37034
     37030     37029     37032     37030     37029     37031     37031     37029     37032
     37033     37029     37032     37033     37029     37031     37033     37029     37030
     37035     37039     37040     37036     37035     37038     37036     37035     37037
     37037     37035     37038     37039     37035     37038     37039     37035     37037
     37039     37035     37036     37041     37045     37046     37042     37041     37044
     37042     37041     37043     37043     37041     37044     37045     37041     37044
     37045     37041     37043     37045     37041     37042     37047     37051     37052
     37048     37047     37050     37048     37047     37049     37049     37047     37050
     37051     37047     37050     37051     37047     37049     37051     37047     37048
     37053     37057     37058     37054     37053     37056     37054     37053     37055
     37055     37053     37056     37057     37053     37056     37057     37053     37055
     37057     37053     37054     37059     37063     37064     37060     37059     37062
     37060     37059     37061     37061     37059     37062     37063     37059     37062
     37063     37059     37061     37063     37059     37060     37065     37069     37070
     37066     37065     37068     37066     37065     37067     37067     37065     37068
     37069     37065     37068     37069     37065     37067     37069     37065     37066
     37071     37075     37076     37072     37071     37074     37072     37071     37073
     37073     37071     37074     37075     37071     37074     37075     37071     37073
     37075     37071     37072     37077     37081     37082     37078     37077     37080
     37078     37077     37079     37079     37077     37080     37081     37077     37080
     37081     37077     37079     37081     37077     37078     37083     37087     37088
     37084     37083     37086     37084     37083     37085     37085     37083     37086
     37087     37083     37086     37087     37083     37085     37087     37083     37084
     37089     37093     37094     37090     37089     37092     37090     37089     37091
     37091     37089     37092     37093     37089     37092     37093     37089     37091
     37093     37089     37090     37095     37099     37100     37096     37095     37098
     37096     37095     37097     37097     37095     37098     37099     37095     37098
     37099     37095     37097     37099     37095     37096     37101     37105     37106
     37102     37101     37104     37102     37101     37103     37103     37101     37104
     37105     37101     37104     37105     37101     37103     37105     37101     37102
     37107     37111     37112     37108     37107     37110     37108     37107     37109
     37109     37107     37110     37111     37107     37110     37111     37107     37109
     37111     37107     37108     37113     37117     37118     37114     37113     37116
     37114     37113     37115     37115     37113     37116     37117     37113     37116
     37117     37113     37115     37117     37113     37114     37119     37123     37124
     37120     37119     37122     37120     37119     37121     37121     37119     37122
     37123     37119     37122     37123     37119     37121     37123     37119     37120
     37125     37129     37130     37126     37125     37128     37126     37125     37127
     37127     37125     37128     37129     37125     37128     37129     37125     37127
     37129     37125     37126     37131     37135     37136     37132     37131     37134
     37132     37131     37133     37133     37131     37134     37135     37131     37134
     37135     37131     37133     37135     37131     37132     37137     37141     37142
     37138     37137     37140     37138     37137     37139     37139     37137     37140
     37141     37137     37140     37141     37137     37139     37141     37137     37138
     37143     37147     37148     37144     37143     37146     37144     37143     37145
     37145     37143     37146     37147     37143     37146     37147     37143     37145
     37147     37143     37144     37149     37153     37154     37150     37149     37152
     37150     37149     37151     37151     37149     37152     37153     37149     37152
     37153     37149     37151     37153     37149     37150     37155     37159     37160
     37156     37155     37158     37156     37155     37157     37157     37155     37158
     37159     37155     37158     37159     37155     37157     37159     37155     37156
     37161     37165     37166     37162     37161     37164     37162     37161     37163
     37163     37161     37164     37165     37161     37164     37165     37161     37163
     37165     37161     37162     37167     37171     37172     37168     37167     37170
     37168     37167     37169     37169     37167     37170     37171     37167     37170
     37171     37167     37169     37171     37167     37168     37173     37177     37178
     37174     37173     37176     37174     37173     37175     37175     37173     37176
     37177     37173     37176     37177     37173     37175     37177     37173     37174
     37179     37183     37184     37180     37179     37182     37180     37179     37181
     37181     37179     37182     37183     37179     37182     37183     37179     37181
     37183     37179     37180     37185     37189     37190     37186     37185     37188
     37186     37185     37187     37187     37185     37188     37189     37185     37188
     37189     37185     37187     37189     37185     37186     37191     37195     37196
     37192     37191     37194     37192     37191     37193     37193     37191     37194
     37195     37191     37194     37195     37191     37193     37195     37191     37192
     37197     37201     37202     37198     37197     37200     37198     37197     37199
     37199     37197     37200     37201     37197     37200     37201     37197     37199
     37201     37197     37198     37203     37207     37208     37204     37203     37206
     37204     37203     37205     37205     37203     37206     37207     37203     37206
     37207     37203     37205     37207     37203     37204     37209     37213     37214
     37210     37209     37212     37210     37209     37211     37211     37209     37212
     37213     37209     37212     37213     37209     37211     37213     37209     37210
     37215     37219     37220     37216     37215     37218     37216     37215     37217
     37217     37215     37218     37219     37215     37218     37219     37215     37217
     37219     37215     37216     37221     37225     37226     37222     37221     37224
     37222     37221     37223     37223     37221     37224     37225     37221     37224
     37225     37221     37223     37225     37221     37222     37227     37231     37232
     37228     37227     37230     37228     37227     37229     37229     37227     37230
     37231     37227     37230     37231     37227     37229     37231     37227     37228
     37233     37237     37238     37234     37233     37236     37234     37233     37235
     37235     37233     37236     37237     37233     37236     37237     37233     37235
     37237     37233     37234     37239     37243     37244     37240     37239     37242
     37240     37239     37241     37241     37239     37242     37243     37239     37242
     37243     37239     37241     37243     37239     37240     37245     37249     37250
     37246     37245     37248     37246     37245     37247     37247     37245     37248
     37249     37245     37248     37249     37245     37247     37249     37245     37246
     37251     37255     37256     37252     37251     37254     37252     37251     37253
     37253     37251     37254     37255     37251     37254     37255     37251     37253
     37255     37251     37252     37257     37261     37262     37258     37257     37260
     37258     37257     37259     37259     37257     37260     37261     37257     37260
     37261     37257     37259     37261     37257     37258     37263     37267     37268
     37264     37263     37266     37264     37263     37265     37265     37263     37266
     37267     37263     37266     37267     37263     37265     37267     37263     37264
     37269     37273     37274     37270     37269     37272     37270     37269     37271
     37271     37269     37272     37273     37269     37272     37273     37269     37271
     37273     37269     37270     37275     37279     37280     37276     37275     37278
     37276     37275     37277     37277     37275     37278     37279     37275     37278
     37279     37275     37277     37279     37275     37276     37281     37285     37286
     37282     37281     37284     37282     37281     37283     37283     37281     37284
     37285     37281     37284     37285     37281     37283     37285     37281     37282
     37287     37291     37292     37288     37287     37290     37288     37287     37289
     37289     37287     37290     37291     37287     37290     37291     37287     37289
     37291     37287     37288     37293     37297     37298     37294     37293     37296
     37294     37293     37295     37295     37293     37296     37297     37293     37296
     37297     37293     37295     37297     37293     37294     37299     37303     37304
     37300     37299     37302     37300     37299     37301     37301     37299     37302
     37303     37299     37302     37303     37299     37301     37303     37299     37300
     37305     37309     37310     37306     37305     37308     37306     37305     37307
     37307     37305     37308     37309     37305     37308     37309     37305     37307
     37309     37305     37306     37311     37315     37316     37312     37311     37314
     37312     37311     37313     37313     37311     37314     37315     37311     37314
     37315     37311     37313     37315     37311     37312     37317     37321     37322
     37318     37317     37320     37318     37317     37319     37319     37317     37320
     37321     37317     37320     37321     37317     37319     37321     37317     37318
     37323     37327     37328     37324     37323     37326     37324     37323     37325
     37325     37323     37326     37327     37323     37326     37327     37323     37325
     37327     37323     37324     37329     37333     37334     37330     37329     37332
     37330     37329     37331     37331     37329     37332     37333     37329     37332
     37333     37329     37331     37333     37329     37330     37335     37339     37340
     37336     37335     37338     37336     37335     37337     37337     37335     37338
     37339     37335     37338     37339     37335     37337     37339     37335     37336
     37341     37345     37346     37342     37341     37344     37342     37341     37343
     37343     37341     37344     37345     37341     37344     37345     37341     37343
     37345     37341     37342     37347     37351     37352     37348     37347     37350
     37348     37347     37349     37349     37347     37350     37351     37347     37350
     37351     37347     37349     37351     37347     37348     37353     37357     37358
     37354     37353     37356     37354     37353     37355     37355     37353     37356
     37357     37353     37356     37357     37353     37355     37357     37353     37354
     37359     37363     37364     37360     37359     37362     37360     37359     37361
     37361     37359     37362     37363     37359     37362     37363     37359     37361
     37363     37359     37360     37365     37369     37370     37366     37365     37368
     37366     37365     37367     37367     37365     37368     37369     37365     37368
     37369     37365     37367     37369     37365     37366     37371     37375     37376
     37372     37371     37374     37372     37371     37373     37373     37371     37374
     37375     37371     37374     37375     37371     37373     37375     37371     37372
     37377     37381     37382     37378     37377     37380     37378     37377     37379
     37379     37377     37380     37381     37377     37380     37381     37377     37379
     37381     37377     37378     37383     37387     37388     37384     37383     37386
     37384     37383     37385     37385     37383     37386     37387     37383     37386
     37387     37383     37385     37387     37383     37384     37389     37393     37394
     37390     37389     37392     37390     37389     37391     37391     37389     37392
     37393     37389     37392     37393     37389     37391     37393     37389     37390
     37395     37399     37400     37396     37395     37398     37396     37395     37397
     37397     37395     37398     37399     37395     37398     37399     37395     37397
     37399     37395     37396     37401     37405     37406     37402     37401     37404
     37402     37401     37403     37403     37401     37404     37405     37401     37404
     37405     37401     37403     37405     37401     37402     37407     37411     37412
     37408     37407     37410     37408     37407     37409     37409     37407     37410
     37411     37407     37410     37411     37407     37409     37411     37407     37408
     37413     37417     37418     37414     37413     37416     37414     37413     37415
     37415     37413     37416     37417     37413     37416     37417     37413     37415
     37417     37413     37414     37419     37423     37424     37420     37419     37422
     37420     37419     37421     37421     37419     37422     37423     37419     37422
     37423     37419     37421     37423     37419     37420     37425     37429     37430
     37426     37425     37428     37426     37425     37427     37427     37425     37428
     37429     37425     37428     37429     37425     37427     37429     37425     37426
     37431     37435     37436     37432     37431     37434     37432     37431     37433
     37433     37431     37434     37435     37431     37434     37435     37431     37433
     37435     37431     37432     37437     37441     37442     37438     37437     37440
     37438     37437     37439     37439     37437     37440     37441     37437     37440
     37441     37437     37439     37441     37437     37438     37443     37447     37448
     37444     37443     37446     37444     37443     37445     37445     37443     37446
     37447     37443     37446     37447     37443     37445     37447     37443     37444
     37449     37453     37454     37450     37449     37452     37450     37449     37451
     37451     37449     37452     37453     37449     37452     37453     37449     37451
     37453     37449     37450     37455     37459     37460     37456     37455     37458
     37456     37455     37457     37457     37455     37458     37459     37455     37458
     37459     37455     37457     37459     37455     37456     37461     37465     37466
     37462     37461     37464     37462     37461     37463     37463     37461     37464
     37465     37461     37464     37465     37461     37463     37465     37461     37462
     37467     37471     37472     37468     37467     37470     37468     37467     37469
     37469     37467     37470     37471     37467     37470     37471     37467     37469
     37471     37467     37468     37473     37477     37478     37474     37473     37476
     37474     37473     37475     37475     37473     37476     37477     37473     37476
     37477     37473     37475     37477     37473     37474     37479     37483     37484
     37480     37479     37482     37480     37479     37481     37481     37479     37482
     37483     37479     37482     37483     37479     37481     37483     37479     37480
     37485     37489     37490     37486     37485     37488     37486     37485     37487
     37487     37485     37488     37489     37485     37488     37489     37485     37487
     37489     37485     37486     37491     37495     37496     37492     37491     37494
     37492     37491     37493     37493     37491     37494     37495     37491     37494
     37495     37491     37493     37495     37491     37492     37497     37501     37502
     37498     37497     37500     37498     37497     37499     37499     37497     37500
     37501     37497     37500     37501     37497     37499     37501     37497     37498
     37503     37507     37508     37504     37503     37506     37504     37503     37505
     37505     37503     37506     37507     37503     37506     37507     37503     37505
     37507     37503     37504     37509     37513     37514     37510     37509     37512
     37510     37509     37511     37511     37509     37512     37513     37509     37512
     37513     37509     37511     37513     37509     37510     37515     37519     37520
     37516     37515     37518     37516     37515     37517     37517     37515     37518
     37519     37515     37518     37519     37515     37517     37519     37515     37516
     37521     37525     37526     37522     37521     37524     37522     37521     37523
     37523     37521     37524     37525     37521     37524     37525     37521     37523
     37525     37521     37522     37527     37531     37532     37528     37527     37530
     37528     37527     37529     37529     37527     37530     37531     37527     37530
     37531     37527     37529     37531     37527     37528     37533     37537     37538
     37534     37533     37536     37534     37533     37535     37535     37533     37536
     37537     37533     37536     37537     37533     37535     37537     37533     37534
     37539     37543     37544     37540     37539     37542     37540     37539     37541
     37541     37539     37542     37543     37539     37542     37543     37539     37541
     37543     37539     37540     37545     37549     37550     37546     37545     37548
     37546     37545     37547     37547     37545     37548     37549     37545     37548
     37549     37545     37547     37549     37545     37546     37551     37555     37556
     37552     37551     37554     37552     37551     37553     37553     37551     37554
     37555     37551     37554     37555     37551     37553     37555     37551     37552
     37557     37561     37562     37558     37557     37560     37558     37557     37559
     37559     37557     37560     37561     37557     37560     37561     37557     37559
     37561     37557     37558     37563     37567     37568     37564     37563     37566
     37564     37563     37565     37565     37563     37566     37567     37563     37566
     37567     37563     37565     37567     37563     37564     37569     37573     37574
     37570     37569     37572     37570     37569     37571     37571     37569     37572
     37573     37569     37572     37573     37569     37571     37573     37569     37570
     37575     37579     37580     37576     37575     37578     37576     37575     37577
     37577     37575     37578     37579     37575     37578     37579     37575     37577
     37579     37575     37576     37581     37585     37586     37582     37581     37584
     37582     37581     37583     37583     37581     37584     37585     37581     37584
     37585     37581     37583     37585     37581     37582     37587     37591     37592
     37588     37587     37590     37588     37587     37589     37589     37587     37590
     37591     37587     37590     37591     37587     37589     37591     37587     37588
     37593     37597     37598     37594     37593     37596     37594     37593     37595
     37595     37593     37596     37597     37593     37596     37597     37593     37595
     37597     37593     37594     37599     37603     37604     37600     37599     37602
     37600     37599     37601     37601     37599     37602     37603     37599     37602
     37603     37599     37601     37603     37599     37600     37605     37609     37610
     37606     37605     37608     37606     37605     37607     37607     37605     37608
     37609     37605     37608     37609     37605     37607     37609     37605     37606
     37611     37615     37616     37612     37611     37614     37612     37611     37613
     37613     37611     37614     37615     37611     37614     37615     37611     37613
     37615     37611     37612     37617     37621     37622     37618     37617     37620
     37618     37617     37619     37619     37617     37620     37621     37617     37620
     37621     37617     37619     37621     37617     37618     37623     37627     37628
     37624     37623     37626     37624     37623     37625     37625     37623     37626
     37627     37623     37626     37627     37623     37625     37627     37623     37624
     37629     37633     37634     37630     37629     37632     37630     37629     37631
     37631     37629     37632     37633     37629     37632     37633     37629     37631
     37633     37629     37630     37635     37639     37640     37636     37635     37638
     37636     37635     37637     37637     37635     37638     37639     37635     37638
     37639     37635     37637     37639     37635     37636     37641     37645     37646
     37642     37641     37644     37642     37641     37643     37643     37641     37644
     37645     37641     37644     37645     37641     37643     37645     37641     37642
     37647     37651     37652     37648     37647     37650     37648     37647     37649
     37649     37647     37650     37651     37647     37650     37651     37647     37649
     37651     37647     37648     37653     37657     37658     37654     37653     37656
     37654     37653     37655     37655     37653     37656     37657     37653     37656
     37657     37653     37655     37657     37653     37654     37659     37663     37664
     37660     37659     37662     37660     37659     37661     37661     37659     37662
     37663     37659     37662     37663     37659     37661     37663     37659     37660
     37665     37669     37670     37666     37665     37668     37666     37665     37667
     37667     37665     37668     37669     37665     37668     37669     37665     37667
     37669     37665     37666     37671     37675     37676     37672     37671     37674
     37672     37671     37673     37673     37671     37674     37675     37671     37674
     37675     37671     37673     37675     37671     37672     37677     37681     37682
     37678     37677     37680     37678     37677     37679     37679     37677     37680
     37681     37677     37680     37681     37677     37679     37681     37677     37678
     37683     37687     37688     37684     37683     37686     37684     37683     37685
     37685     37683     37686     37687     37683     37686     37687     37683     37685
     37687     37683     37684     37689     37693     37694     37690     37689     37692
     37690     37689     37691     37691     37689     37692     37693     37689     37692
     37693     37689     37691     37693     37689     37690     37695     37699     37700
     37696     37695     37698     37696     37695     37697     37697     37695     37698
     37699     37695     37698     37699     37695     37697     37699     37695     37696
     37701     37705     37706     37702     37701     37704     37702     37701     37703
     37703     37701     37704     37705     37701     37704     37705     37701     37703
     37705     37701     37702     37707     37711     37712     37708     37707     37710
     37708     37707     37709     37709     37707     37710     37711     37707     37710
     37711     37707     37709     37711     37707     37708     37713     37717     37718
     37714     37713     37716     37714     37713     37715     37715     37713     37716
     37717     37713     37716     37717     37713     37715     37717     37713     37714
     37719     37723     37724     37720     37719     37722     37720     37719     37721
     37721     37719     37722     37723     37719     37722     37723     37719     37721
     37723     37719     37720     37725     37729     37730     37726     37725     37728
     37726     37725     37727     37727     37725     37728     37729     37725     37728
     37729     37725     37727     37729     37725     37726     37731     37735     37736
     37732     37731     37734     37732     37731     37733     37733     37731     37734
     37735     37731     37734     37735     37731     37733     37735     37731     37732
     37737     37741     37742     37738     37737     37740     37738     37737     37739
     37739     37737     37740     37741     37737     37740     37741     37737     37739
     37741     37737     37738     37743     37747     37748     37744     37743     37746
     37744     37743     37745     37745     37743     37746     37747     37743     37746
     37747     37743     37745     37747     37743     37744     37749     37753     37754
     37750     37749     37752     37750     37749     37751     37751     37749     37752
     37753     37749     37752     37753     37749     37751     37753     37749     37750
     37755     37759     37760     37756     37755     37758     37756     37755     37757
     37757     37755     37758     37759     37755     37758     37759     37755     37757
     37759     37755     37756     37761     37765     37766     37762     37761     37764
     37762     37761     37763     37763     37761     37764     37765     37761     37764
     37765     37761     37763     37765     37761     37762     37767     37771     37772
     37768     37767     37770     37768     37767     37769     37769     37767     37770
     37771     37767     37770     37771     37767     37769     37771     37767     37768
     37773     37777     37778     37774     37773     37776     37774     37773     37775
     37775     37773     37776     37777     37773     37776     37777     37773     37775
     37777     37773     37774     37779     37783     37784     37780     37779     37782
     37780     37779     37781     37781     37779     37782     37783     37779     37782
     37783     37779     37781     37783     37779     37780     37785     37789     37790
     37786     37785     37788     37786     37785     37787     37787     37785     37788
     37789     37785     37788     37789     37785     37787     37789     37785     37786
     37791     37795     37796     37792     37791     37794     37792     37791     37793
     37793     37791     37794     37795     37791     37794     37795     37791     37793
     37795     37791     37792     37797     37801     37802     37798     37797     37800
     37798     37797     37799     37799     37797     37800     37801     37797     37800
     37801     37797     37799     37801     37797     37798     37803     37807     37808
     37804     37803     37806     37804     37803     37805     37805     37803     37806
     37807     37803     37806     37807     37803     37805     37807     37803     37804
     37809     37813     37814     37810     37809     37812     37810     37809     37811
     37811     37809     37812     37813     37809     37812     37813     37809     37811
     37813     37809     37810     37815     37819     37820     37816     37815     37818
     37816     37815     37817     37817     37815     37818     37819     37815     37818
     37819     37815     37817     37819     37815     37816     37821     37825     37826
     37822     37821     37824     37822     37821     37823     37823     37821     37824
     37825     37821     37824     37825     37821     37823     37825     37821     37822
     37827     37831     37832     37828     37827     37830     37828     37827     37829
     37829     37827     37830     37831     37827     37830     37831     37827     37829
     37831     37827     37828     37833     37837     37838     37834     37833     37836
     37834     37833     37835     37835     37833     37836     37837     37833     37836
     37837     37833     37835     37837     37833     37834     37839     37843     37844
     37840     37839     37842     37840     37839     37841     37841     37839     37842
     37843     37839     37842     37843     37839     37841     37843     37839     37840
     37845     37849     37850     37846     37845     37848     37846     37845     37847
     37847     37845     37848     37849     37845     37848     37849     37845     37847
     37849     37845     37846     37851     37855     37856     37852     37851     37854
     37852     37851     37853     37853     37851     37854     37855     37851     37854
     37855     37851     37853     37855     37851     37852     37857     37861     37862
     37858     37857     37860     37858     37857     37859     37859     37857     37860
     37861     37857     37860     37861     37857     37859     37861     37857     37858
     37863     37867     37868     37864     37863     37866     37864     37863     37865
     37865     37863     37866     37867     37863     37866     37867     37863     37865
     37867     37863     37864     37869     37873     37874     37870     37869     37872
     37870     37869     37871     37871     37869     37872     37873     37869     37872
     37873     37869     37871     37873     37869     37870     37875     37879     37880
     37876     37875     37878     37876     37875     37877     37877     37875     37878
     37879     37875     37878     37879     37875     37877     37879     37875     37876
     37881     37885     37886     37882     37881     37884     37882     37881     37883
     37883     37881     37884     37885     37881     37884     37885     37881     37883
     37885     37881     37882     37887     37891     37892     37888     37887     37890
     37888     37887     37889     37889     37887     37890     37891     37887     37890
     37891     37887     37889     37891     37887     37888     37893     37897     37898
     37894     37893     37896     37894     37893     37895     37895     37893     37896
     37897     37893     37896     37897     37893     37895     37897     37893     37894
     37899     37903     37904     37900     37899     37902     37900     37899     37901
     37901     37899     37902     37903     37899     37902     37903     37899     37901
     37903     37899     37900     37905     37909     37910     37906     37905     37908
     37906     37905     37907     37907     37905     37908     37909     37905     37908
     37909     37905     37907     37909     37905     37906     37911     37915     37916
     37912     37911     37914     37912     37911     37913     37913     37911     37914
     37915     37911     37914     37915     37911     37913     37915     37911     37912
     37917     37921     37922     37918     37917     37920     37918     37917     37919
     37919     37917     37920     37921     37917     37920     37921     37917     37919
     37921     37917     37918     37923     37927     37928     37924     37923     37926
     37924     37923     37925     37925     37923     37926     37927     37923     37926
     37927     37923     37925     37927     37923     37924     37929     37933     37934
     37930     37929     37932     37930     37929     37931     37931     37929     37932
     37933     37929     37932     37933     37929     37931     37933     37929     37930
     37935     37939     37940     37936     37935     37938     37936     37935     37937
     37937     37935     37938     37939     37935     37938     37939     37935     37937
     37939     37935     37936     37941     37945     37946     37942     37941     37944
     37942     37941     37943     37943     37941     37944     37945     37941     37944
     37945     37941     37943     37945     37941     37942     37947     37951     37952
     37948     37947     37950     37948     37947     37949     37949     37947     37950
     37951     37947     37950     37951     37947     37949     37951     37947     37948
     37953     37957     37958     37954     37953     37956     37954     37953     37955
     37955     37953     37956     37957     37953     37956     37957     37953     37955
     37957     37953     37954     37959     37963     37964     37960     37959     37962
     37960     37959     37961     37961     37959     37962     37963     37959     37962
     37963     37959     37961     37963     37959     37960     37965     37969     37970
     37966     37965     37968     37966     37965     37967     37967     37965     37968
     37969     37965     37968     37969     37965     37967     37969     37965     37966
     37971     37975     37976     37972     37971     37974     37972     37971     37973
     37973     37971     37974     37975     37971     37974     37975     37971     37973
     37975     37971     37972     37977     37981     37982     37978     37977     37980
     37978     37977     37979     37979     37977     37980     37981     37977     37980
     37981     37977     37979     37981     37977     37978     37983     37987     37988
     37984     37983     37986     37984     37983     37985     37985     37983     37986
     37987     37983     37986     37987     37983     37985     37987     37983     37984
     37989     37993     37994     37990     37989     37992     37990     37989     37991
     37991     37989     37992     37993     37989     37992     37993     37989     37991
     37993     37989     37990     37995     37999     38000     37996     37995     37998
     37996     37995     37997     37997     37995     37998     37999     37995     37998
     37999     37995     37997     37999     37995     37996     38001     38005     38006
     38002     38001     38004     38002     38001     38003     38003     38001     38004
     38005     38001     38004     38005     38001     38003     38005     38001     38002
     38007     38011     38012     38008     38007     38010     38008     38007     38009
     38009     38007     38010     38011     38007     38010     38011     38007     38009
     38011     38007     38008     38013     38017     38018     38014     38013     38016
     38014     38013     38015     38015     38013     38016     38017     38013     38016
     38017     38013     38015     38017     38013     38014     38019     38023     38024
     38020     38019     38022     38020     38019     38021     38021     38019     38022
     38023     38019     38022     38023     38019     38021     38023     38019     38020
     38025     38029     38030     38026     38025     38028     38026     38025     38027
     38027     38025     38028     38029     38025     38028     38029     38025     38027
     38029     38025     38026     38031     38035     38036     38032     38031     38034
     38032     38031     38033     38033     38031     38034     38035     38031     38034
     38035     38031     38033     38035     38031     38032     38037     38041     38042
     38038     38037     38040     38038     38037     38039     38039     38037     38040
     38041     38037     38040     38041     38037     38039     38041     38037     38038
     38043     38047     38048     38044     38043     38046     38044     38043     38045
     38045     38043     38046     38047     38043     38046     38047     38043     38045
     38047     38043     38044     38049     38053     38054     38050     38049     38052
     38050     38049     38051     38051     38049     38052     38053     38049     38052
     38053     38049     38051     38053     38049     38050     38055     38059     38060
     38056     38055     38058     38056     38055     38057     38057     38055     38058
     38059     38055     38058     38059     38055     38057     38059     38055     38056
     38061     38065     38066     38062     38061     38064     38062     38061     38063
     38063     38061     38064     38065     38061     38064     38065     38061     38063
     38065     38061     38062     38067     38071     38072     38068     38067     38070
     38068     38067     38069     38069     38067     38070     38071     38067     38070
     38071     38067     38069     38071     38067     38068     38073     38077     38078
     38074     38073     38076     38074     38073     38075     38075     38073     38076
     38077     38073     38076     38077     38073     38075     38077     38073     38074
     38079     38083     38084     38080     38079     38082     38080     38079     38081
     38081     38079     38082     38083     38079     38082     38083     38079     38081
     38083     38079     38080     38085     38089     38090     38086     38085     38088
     38086     38085     38087     38087     38085     38088     38089     38085     38088
     38089     38085     38087     38089     38085     38086     38091     38095     38096
     38092     38091     38094     38092     38091     38093     38093     38091     38094
     38095     38091     38094     38095     38091     38093     38095     38091     38092
     38097     38101     38102     38098     38097     38100     38098     38097     38099
     38099     38097     38100     38101     38097     38100     38101     38097     38099
     38101     38097     38098     38103     38107     38108     38104     38103     38106
     38104     38103     38105     38105     38103     38106     38107     38103     38106
     38107     38103     38105     38107     38103     38104     38109     38113     38114
     38110     38109     38112     38110     38109     38111     38111     38109     38112
     38113     38109     38112     38113     38109     38111     38113     38109     38110
     38115     38119     38120     38116     38115     38118     38116     38115     38117
     38117     38115     38118     38119     38115     38118     38119     38115     38117
     38119     38115     38116     38121     38125     38126     38122     38121     38124
     38122     38121     38123     38123     38121     38124     38125     38121     38124
     38125     38121     38123     38125     38121     38122     38127     38131     38132
     38128     38127     38130     38128     38127     38129     38129     38127     38130
     38131     38127     38130     38131     38127     38129     38131     38127     38128
     38133     38137     38138     38134     38133     38136     38134     38133     38135
     38135     38133     38136     38137     38133     38136     38137     38133     38135
     38137     38133     38134     38139     38143     38144     38140     38139     38142
     38140     38139     38141     38141     38139     38142     38143     38139     38142
     38143     38139     38141     38143     38139     38140     38145     38149     38150
     38146     38145     38148     38146     38145     38147     38147     38145     38148
     38149     38145     38148     38149     38145     38147     38149     38145     38146
     38151     38155     38156     38152     38151     38154     38152     38151     38153
     38153     38151     38154     38155     38151     38154     38155     38151     38153
     38155     38151     38152     38157     38161     38162     38158     38157     38160
     38158     38157     38159     38159     38157     38160     38161     38157     38160
     38161     38157     38159     38161     38157     38158     38163     38167     38168
     38164     38163     38166     38164     38163     38165     38165     38163     38166
     38167     38163     38166     38167     38163     38165     38167     38163     38164
     38169     38173     38174     38170     38169     38172     38170     38169     38171
     38171     38169     38172     38173     38169     38172     38173     38169     38171
     38173     38169     38170     38175     38179     38180     38176     38175     38178
     38176     38175     38177     38177     38175     38178     38179     38175     38178
     38179     38175     38177     38179     38175     38176     38181     38185     38186
     38182     38181     38184     38182     38181     38183     38183     38181     38184
     38185     38181     38184     38185     38181     38183     38185     38181     38182
     38187     38191     38192     38188     38187     38190     38188     38187     38189
     38189     38187     38190     38191     38187     38190     38191     38187     38189
     38191     38187     38188     38193     38197     38198     38194     38193     38196
     38194     38193     38195     38195     38193     38196     38197     38193     38196
     38197     38193     38195     38197     38193     38194     38199     38203     38204
     38200     38199     38202     38200     38199     38201     38201     38199     38202
     38203     38199     38202     38203     38199     38201     38203     38199     38200
     38205     38209     38210     38206     38205     38208     38206     38205     38207
     38207     38205     38208     38209     38205     38208     38209     38205     38207
     38209     38205     38206     38211     38215     38216     38212     38211     38214
     38212     38211     38213     38213     38211     38214     38215     38211     38214
     38215     38211     38213     38215     38211     38212     38217     38221     38222
     38218     38217     38220     38218     38217     38219     38219     38217     38220
     38221     38217     38220     38221     38217     38219     38221     38217     38218
     38223     38227     38228     38224     38223     38226     38224     38223     38225
     38225     38223     38226     38227     38223     38226     38227     38223     38225
     38227     38223     38224     38229     38233     38234     38230     38229     38232
     38230     38229     38231     38231     38229     38232     38233     38229     38232
     38233     38229     38231     38233     38229     38230     38235     38239     38240
     38236     38235     38238     38236     38235     38237     38237     38235     38238
     38239     38235     38238     38239     38235     38237     38239     38235     38236
     38241     38245     38246     38242     38241     38244     38242     38241     38243
     38243     38241     38244     38245     38241     38244     38245     38241     38243
     38245     38241     38242     38247     38251     38252     38248     38247     38250
     38248     38247     38249     38249     38247     38250     38251     38247     38250
     38251     38247     38249     38251     38247     38248     38253     38257     38258
     38254     38253     38256     38254     38253     38255     38255     38253     38256
     38257     38253     38256     38257     38253     38255     38257     38253     38254
     38259     38263     38264     38260     38259     38262     38260     38259     38261
     38261     38259     38262     38263     38259     38262     38263     38259     38261
     38263     38259     38260     38265     38269     38270     38266     38265     38268
     38266     38265     38267     38267     38265     38268     38269     38265     38268
     38269     38265     38267     38269     38265     38266     38271     38275     38276
     38272     38271     38274     38272     38271     38273     38273     38271     38274
     38275     38271     38274     38275     38271     38273     38275     38271     38272
     38277     38281     38282     38278     38277     38280     38278     38277     38279
     38279     38277     38280     38281     38277     38280     38281     38277     38279
     38281     38277     38278     38283     38287     38288     38284     38283     38286
     38284     38283     38285     38285     38283     38286     38287     38283     38286
     38287     38283     38285     38287     38283     38284     38289     38293     38294
     38290     38289     38292     38290     38289     38291     38291     38289     38292
     38293     38289     38292     38293     38289     38291     38293     38289     38290
     38295     38299     38300     38296     38295     38298     38296     38295     38297
     38297     38295     38298     38299     38295     38298     38299     38295     38297
     38299     38295     38296     38301     38305     38306     38302     38301     38304
     38302     38301     38303     38303     38301     38304     38305     38301     38304
     38305     38301     38303     38305     38301     38302     38307     38311     38312
     38308     38307     38310     38308     38307     38309     38309     38307     38310
     38311     38307     38310     38311     38307     38309     38311     38307     38308
     38313     38317     38318     38314     38313     38316     38314     38313     38315
     38315     38313     38316     38317     38313     38316     38317     38313     38315
     38317     38313     38314     38319     38323     38324     38320     38319     38322
     38320     38319     38321     38321     38319     38322     38323     38319     38322
     38323     38319     38321     38323     38319     38320     38325     38329     38330
     38326     38325     38328     38326     38325     38327     38327     38325     38328
     38329     38325     38328     38329     38325     38327     38329     38325     38326
     38331     38335     38336     38332     38331     38334     38332     38331     38333
     38333     38331     38334     38335     38331     38334     38335     38331     38333
     38335     38331     38332     38337     38341     38342     38338     38337     38340
     38338     38337     38339     38339     38337     38340     38341     38337     38340
     38341     38337     38339     38341     38337     38338     38343     38347     38348
     38344     38343     38346     38344     38343     38345     38345     38343     38346
     38347     38343     38346     38347     38343     38345     38347     38343     38344
     38349     38353     38354     38350     38349     38352     38350     38349     38351
     38351     38349     38352     38353     38349     38352     38353     38349     38351
     38353     38349     38350     38355     38359     38360     38356     38355     38358
     38356     38355     38357     38357     38355     38358     38359     38355     38358
     38359     38355     38357     38359     38355     38356     38361     38365     38366
     38362     38361     38364     38362     38361     38363     38363     38361     38364
     38365     38361     38364     38365     38361     38363     38365     38361     38362
     38367     38371     38372     38368     38367     38370     38368     38367     38369
     38369     38367     38370     38371     38367     38370     38371     38367     38369
     38371     38367     38368     38373     38377     38378     38374     38373     38376
     38374     38373     38375     38375     38373     38376     38377     38373     38376
     38377     38373     38375     38377     38373     38374     38379     38383     38384
     38380     38379     38382     38380     38379     38381     38381     38379     38382
     38383     38379     38382     38383     38379     38381     38383     38379     38380
     38385     38389     38390     38386     38385     38388     38386     38385     38387
     38387     38385     38388     38389     38385     38388     38389     38385     38387
     38389     38385     38386     38391     38395     38396     38392     38391     38394
     38392     38391     38393     38393     38391     38394     38395     38391     38394
     38395     38391     38393     38395     38391     38392     38397     38401     38402
     38398     38397     38400     38398     38397     38399     38399     38397     38400
     38401     38397     38400     38401     38397     38399     38401     38397     38398
     38403     38407     38408     38404     38403     38406     38404     38403     38405
     38405     38403     38406     38407     38403     38406     38407     38403     38405
     38407     38403     38404     38409     38413     38414     38410     38409     38412
     38410     38409     38411     38411     38409     38412     38413     38409     38412
     38413     38409     38411     38413     38409     38410     38415     38419     38420
     38416     38415     38418     38416     38415     38417     38417     38415     38418
     38419     38415     38418     38419     38415     38417     38419     38415     38416
     38421     38425     38426     38422     38421     38424     38422     38421     38423
     38423     38421     38424     38425     38421     38424     38425     38421     38423
     38425     38421     38422     38427     38431     38432     38428     38427     38430
     38428     38427     38429     38429     38427     38430     38431     38427     38430
     38431     38427     38429     38431     38427     38428     38433     38437     38438
     38434     38433     38436     38434     38433     38435     38435     38433     38436
     38437     38433     38436     38437     38433     38435     38437     38433     38434
     38439     38443     38444     38440     38439     38442     38440     38439     38441
     38441     38439     38442     38443     38439     38442     38443     38439     38441
     38443     38439     38440     38445     38449     38450     38446     38445     38448
     38446     38445     38447     38447     38445     38448     38449     38445     38448
     38449     38445     38447     38449     38445     38446     38451     38455     38456
     38452     38451     38454     38452     38451     38453     38453     38451     38454
     38455     38451     38454     38455     38451     38453     38455     38451     38452
     38457     38461     38462     38458     38457     38460     38458     38457     38459
     38459     38457     38460     38461     38457     38460     38461     38457     38459
     38461     38457     38458     38463     38467     38468     38464     38463     38466
     38464     38463     38465     38465     38463     38466     38467     38463     38466
     38467     38463     38465     38467     38463     38464     38469     38473     38474
     38470     38469     38472     38470     38469     38471     38471     38469     38472
     38473     38469     38472     38473     38469     38471     38473     38469     38470
     38475     38479     38480     38476     38475     38478     38476     38475     38477
     38477     38475     38478     38479     38475     38478     38479     38475     38477
     38479     38475     38476     38481     38485     38486     38482     38481     38484
     38482     38481     38483     38483     38481     38484     38485     38481     38484
     38485     38481     38483     38485     38481     38482     38487     38491     38492
     38488     38487     38490     38488     38487     38489     38489     38487     38490
     38491     38487     38490     38491     38487     38489     38491     38487     38488
     38493     38497     38498     38494     38493     38496     38494     38493     38495
     38495     38493     38496     38497     38493     38496     38497     38493     38495
     38497     38493     38494     38499     38503     38504     38500     38499     38502
     38500     38499     38501     38501     38499     38502     38503     38499     38502
     38503     38499     38501     38503     38499     38500     38505     38509     38510
     38506     38505     38508     38506     38505     38507     38507     38505     38508
     38509     38505     38508     38509     38505     38507     38509     38505     38506
     38511     38515     38516     38512     38511     38514     38512     38511     38513
     38513     38511     38514     38515     38511     38514     38515     38511     38513
     38515     38511     38512     38517     38521     38522     38518     38517     38520
     38518     38517     38519     38519     38517     38520     38521     38517     38520
     38521     38517     38519     38521     38517     38518     38523     38527     38528
     38524     38523     38526     38524     38523     38525     38525     38523     38526
     38527     38523     38526     38527     38523     38525     38527     38523     38524
     38529     38533     38534     38530     38529     38532     38530     38529     38531
     38531     38529     38532     38533     38529     38532     38533     38529     38531
     38533     38529     38530     38535     38539     38540     38536     38535     38538
     38536     38535     38537     38537     38535     38538     38539     38535     38538
     38539     38535     38537     38539     38535     38536     38541     38545     38546
     38542     38541     38544     38542     38541     38543     38543     38541     38544
     38545     38541     38544     38545     38541     38543     38545     38541     38542
     38547     38551     38552     38548     38547     38550     38548     38547     38549
     38549     38547     38550     38551     38547     38550     38551     38547     38549
     38551     38547     38548     38553     38557     38558     38554     38553     38556
     38554     38553     38555     38555     38553     38556     38557     38553     38556
     38557     38553     38555     38557     38553     38554     38559     38563     38564
     38560     38559     38562     38560     38559     38561     38561     38559     38562
     38563     38559     38562     38563     38559     38561     38563     38559     38560
     38565     38569     38570     38566     38565     38568     38566     38565     38567
     38567     38565     38568     38569     38565     38568     38569     38565     38567
     38569     38565     38566     38571     38575     38576     38572     38571     38574
     38572     38571     38573     38573     38571     38574     38575     38571     38574
     38575     38571     38573     38575     38571     38572     38577     38581     38582
     38578     38577     38580     38578     38577     38579     38579     38577     38580
     38581     38577     38580     38581     38577     38579     38581     38577     38578
     38583     38587     38588     38584     38583     38586     38584     38583     38585
     38585     38583     38586     38587     38583     38586     38587     38583     38585
     38587     38583     38584     38589     38593     38594     38590     38589     38592
     38590     38589     38591     38591     38589     38592     38593     38589     38592
     38593     38589     38591     38593     38589     38590     38595     38599     38600
     38596     38595     38598     38596     38595     38597     38597     38595     38598
     38599     38595     38598     38599     38595     38597     38599     38595     38596
     38601     38605     38606     38602     38601     38604     38602     38601     38603
     38603     38601     38604     38605     38601     38604     38605     38601     38603
     38605     38601     38602     38607     38611     38612     38608     38607     38610
     38608     38607     38609     38609     38607     38610     38611     38607     38610
     38611     38607     38609     38611     38607     38608     38613     38617     38618
     38614     38613     38616     38614     38613     38615     38615     38613     38616
     38617     38613     38616     38617     38613     38615     38617     38613     38614
     38619     38623     38624     38620     38619     38622     38620     38619     38621
     38621     38619     38622     38623     38619     38622     38623     38619     38621
     38623     38619     38620     38625     38629     38630     38626     38625     38628
     38626     38625     38627     38627     38625     38628     38629     38625     38628
     38629     38625     38627     38629     38625     38626     38631     38635     38636
     38632     38631     38634     38632     38631     38633     38633     38631     38634
     38635     38631     38634     38635     38631     38633     38635     38631     38632
     38637     38641     38642     38638     38637     38640     38638     38637     38639
     38639     38637     38640     38641     38637     38640     38641     38637     38639
     38641     38637     38638     38643     38647     38648     38644     38643     38646
     38644     38643     38645     38645     38643     38646     38647     38643     38646
     38647     38643     38645     38647     38643     38644     38649     38653     38654
     38650     38649     38652     38650     38649     38651     38651     38649     38652
     38653     38649     38652     38653     38649     38651     38653     38649     38650
     38655     38659     38660     38656     38655     38658     38656     38655     38657
     38657     38655     38658     38659     38655     38658     38659     38655     38657
     38659     38655     38656     38661     38665     38666     38662     38661     38664
     38662     38661     38663     38663     38661     38664     38665     38661     38664
     38665     38661     38663     38665     38661     38662     38667     38671     38672
     38668     38667     38670     38668     38667     38669     38669     38667     38670
     38671     38667     38670     38671     38667     38669     38671     38667     38668
     38673     38677     38678     38674     38673     38676     38674     38673     38675
     38675     38673     38676     38677     38673     38676     38677     38673     38675
     38677     38673     38674     38679     38683     38684     38680     38679     38682
     38680     38679     38681     38681     38679     38682     38683     38679     38682
     38683     38679     38681     38683     38679     38680     38685     38689     38690
     38686     38685     38688     38686     38685     38687     38687     38685     38688
     38689     38685     38688     38689     38685     38687     38689     38685     38686
     38691     38695     38696     38692     38691     38694     38692     38691     38693
     38693     38691     38694     38695     38691     38694     38695     38691     38693
     38695     38691     38692     38697     38701     38702     38698     38697     38700
     38698     38697     38699     38699     38697     38700     38701     38697     38700
     38701     38697     38699     38701     38697     38698     38703     38707     38708
     38704     38703     38706     38704     38703     38705     38705     38703     38706
     38707     38703     38706     38707     38703     38705     38707     38703     38704
     38709     38713     38714     38710     38709     38712     38710     38709     38711
     38711     38709     38712     38713     38709     38712     38713     38709     38711
     38713     38709     38710     38715     38719     38720     38716     38715     38718
     38716     38715     38717     38717     38715     38718     38719     38715     38718
     38719     38715     38717     38719     38715     38716     38721     38725     38726
     38722     38721     38724     38722     38721     38723     38723     38721     38724
     38725     38721     38724     38725     38721     38723     38725     38721     38722
     38727     38731     38732     38728     38727     38730     38728     38727     38729
     38729     38727     38730     38731     38727     38730     38731     38727     38729
     38731     38727     38728     38733     38737     38738     38734     38733     38736
     38734     38733     38735     38735     38733     38736     38737     38733     38736
     38737     38733     38735     38737     38733     38734     38739     38743     38744
     38740     38739     38742     38740     38739     38741     38741     38739     38742
     38743     38739     38742     38743     38739     38741     38743     38739     38740
     38745     38749     38750     38746     38745     38748     38746     38745     38747
     38747     38745     38748     38749     38745     38748     38749     38745     38747
     38749     38745     38746     38751     38755     38756     38752     38751     38754
     38752     38751     38753     38753     38751     38754     38755     38751     38754
     38755     38751     38753     38755     38751     38752     38757     38761     38762
     38758     38757     38760     38758     38757     38759     38759     38757     38760
     38761     38757     38760     38761     38757     38759     38761     38757     38758
     38763     38767     38768     38764     38763     38766     38764     38763     38765
     38765     38763     38766     38767     38763     38766     38767     38763     38765
     38767     38763     38764     38769     38773     38774     38770     38769     38772
     38770     38769     38771     38771     38769     38772     38773     38769     38772
     38773     38769     38771     38773     38769     38770     38775     38779     38780
     38776     38775     38778     38776     38775     38777     38777     38775     38778
     38779     38775     38778     38779     38775     38777     38779     38775     38776
     38781     38785     38786     38782     38781     38784     38782     38781     38783
     38783     38781     38784     38785     38781     38784     38785     38781     38783
     38785     38781     38782     38787     38791     38792     38788     38787     38790
     38788     38787     38789     38789     38787     38790     38791     38787     38790
     38791     38787     38789     38791     38787     38788     38793     38797     38798
     38794     38793     38796     38794     38793     38795     38795     38793     38796
     38797     38793     38796     38797     38793     38795     38797     38793     38794
     38799     38803     38804     38800     38799     38802     38800     38799     38801
     38801     38799     38802     38803     38799     38802     38803     38799     38801
     38803     38799     38800     38805     38809     38810     38806     38805     38808
     38806     38805     38807     38807     38805     38808     38809     38805     38808
     38809     38805     38807     38809     38805     38806     38811     38815     38816
     38812     38811     38814     38812     38811     38813     38813     38811     38814
     38815     38811     38814     38815     38811     38813     38815     38811     38812
     38817     38821     38822     38818     38817     38820     38818     38817     38819
     38819     38817     38820     38821     38817     38820     38821     38817     38819
     38821     38817     38818     38823     38827     38828     38824     38823     38826
     38824     38823     38825     38825     38823     38826     38827     38823     38826
     38827     38823     38825     38827     38823     38824     38829     38833     38834
     38830     38829     38832     38830     38829     38831     38831     38829     38832
     38833     38829     38832     38833     38829     38831     38833     38829     38830
     38835     38839     38840     38836     38835     38838     38836     38835     38837
     38837     38835     38838     38839     38835     38838     38839     38835     38837
     38839     38835     38836     38841     38845     38846     38842     38841     38844
     38842     38841     38843     38843     38841     38844     38845     38841     38844
     38845     38841     38843     38845     38841     38842     38847     38851     38852
     38848     38847     38850     38848     38847     38849     38849     38847     38850
     38851     38847     38850     38851     38847     38849     38851     38847     38848
     38853     38857     38858     38854     38853     38856     38854     38853     38855
     38855     38853     38856     38857     38853     38856     38857     38853     38855
     38857     38853     38854     38859     38863     38864     38860     38859     38862
     38860     38859     38861     38861     38859     38862     38863     38859     38862
     38863     38859     38861     38863     38859     38860     38865     38869     38870
     38866     38865     38868     38866     38865     38867     38867     38865     38868
     38869     38865     38868     38869     38865     38867     38869     38865     38866
     38871     38875     38876     38872     38871     38874     38872     38871     38873
     38873     38871     38874     38875     38871     38874     38875     38871     38873
     38875     38871     38872     38877     38881     38882     38878     38877     38880
     38878     38877     38879     38879     38877     38880     38881     38877     38880
     38881     38877     38879     38881     38877     38878     38883     38887     38888
     38884     38883     38886     38884     38883     38885     38885     38883     38886
     38887     38883     38886     38887     38883     38885     38887     38883     38884
     38889     38893     38894     38890     38889     38892     38890     38889     38891
     38891     38889     38892     38893     38889     38892     38893     38889     38891
     38893     38889     38890     38895     38899     38900     38896     38895     38898
     38896     38895     38897     38897     38895     38898     38899     38895     38898
     38899     38895     38897     38899     38895     38896     38901     38905     38906
     38902     38901     38904     38902     38901     38903     38903     38901     38904
     38905     38901     38904     38905     38901     38903     38905     38901     38902
     38907     38911     38912     38908     38907     38910     38908     38907     38909
     38909     38907     38910     38911     38907     38910     38911     38907     38909
     38911     38907     38908     38913     38917     38918     38914     38913     38916
     38914     38913     38915     38915     38913     38916     38917     38913     38916
     38917     38913     38915     38917     38913     38914     38919     38923     38924
     38920     38919     38922     38920     38919     38921     38921     38919     38922
     38923     38919     38922     38923     38919     38921     38923     38919     38920
     38925     38929     38930     38926     38925     38928     38926     38925     38927
     38927     38925     38928     38929     38925     38928     38929     38925     38927
     38929     38925     38926     38931     38935     38936     38932     38931     38934
     38932     38931     38933     38933     38931     38934     38935     38931     38934
     38935     38931     38933     38935     38931     38932     38937     38941     38942
     38938     38937     38940     38938     38937     38939     38939     38937     38940
     38941     38937     38940     38941     38937     38939     38941     38937     38938
     38943     38947     38948     38944     38943     38946     38944     38943     38945
     38945     38943     38946     38947     38943     38946     38947     38943     38945
     38947     38943     38944     38949     38953     38954     38950     38949     38952
     38950     38949     38951     38951     38949     38952     38953     38949     38952
     38953     38949     38951     38953     38949     38950     38955     38959     38960
     38956     38955     38958     38956     38955     38957     38957     38955     38958
     38959     38955     38958     38959     38955     38957     38959     38955     38956
     38961     38965     38966     38962     38961     38964     38962     38961     38963
     38963     38961     38964     38965     38961     38964     38965     38961     38963
     38965     38961     38962     38967     38971     38972     38968     38967     38970
     38968     38967     38969     38969     38967     38970     38971     38967     38970
     38971     38967     38969     38971     38967     38968     38973     38977     38978
     38974     38973     38976     38974     38973     38975     38975     38973     38976
     38977     38973     38976     38977     38973     38975     38977     38973     38974
     38979     38983     38984     38980     38979     38982     38980     38979     38981
     38981     38979     38982     38983     38979     38982     38983     38979     38981
     38983     38979     38980     38985     38989     38990     38986     38985     38988
     38986     38985     38987     38987     38985     38988     38989     38985     38988
     38989     38985     38987     38989     38985     38986     38991     38995     38996
     38992     38991     38994     38992     38991     38993     38993     38991     38994
     38995     38991     38994     38995     38991     38993     38995     38991     38992
     38997     39001     39002     38998     38997     39000     38998     38997     38999
     38999     38997     39000     39001     38997     39000     39001     38997     38999
     39001     38997     38998     39003     39007     39008     39004     39003     39006
     39004     39003     39005     39005     39003     39006     39007     39003     39006
     39007     39003     39005     39007     39003     39004     39009     39013     39014
     39010     39009     39012     39010     39009     39011     39011     39009     39012
     39013     39009     39012     39013     39009     39011     39013     39009     39010
     39015     39019     39020     39016     39015     39018     39016     39015     39017
     39017     39015     39018     39019     39015     39018     39019     39015     39017
     39019     39015     39016     39021     39025     39026     39022     39021     39024
     39022     39021     39023     39023     39021     39024     39025     39021     39024
     39025     39021     39023     39025     39021     39022     39027     39031     39032
     39028     39027     39030     39028     39027     39029     39029     39027     39030
     39031     39027     39030     39031     39027     39029     39031     39027     39028
     39033     39037     39038     39034     39033     39036     39034     39033     39035
     39035     39033     39036     39037     39033     39036     39037     39033     39035
     39037     39033     39034     39039     39043     39044     39040     39039     39042
     39040     39039     39041     39041     39039     39042     39043     39039     39042
     39043     39039     39041     39043     39039     39040     39045     39049     39050
     39046     39045     39048     39046     39045     39047     39047     39045     39048
     39049     39045     39048     39049     39045     39047     39049     39045     39046
     39051     39055     39056     39052     39051     39054     39052     39051     39053
     39053     39051     39054     39055     39051     39054     39055     39051     39053
     39055     39051     39052     39057     39061     39062     39058     39057     39060
     39058     39057     39059     39059     39057     39060     39061     39057     39060
     39061     39057     39059     39061     39057     39058     39063     39067     39068
     39064     39063     39066     39064     39063     39065     39065     39063     39066
     39067     39063     39066     39067     39063     39065     39067     39063     39064
     39069     39073     39074     39070     39069     39072     39070     39069     39071
     39071     39069     39072     39073     39069     39072     39073     39069     39071
     39073     39069     39070     39075     39079     39080     39076     39075     39078
     39076     39075     39077     39077     39075     39078     39079     39075     39078
     39079     39075     39077     39079     39075     39076     39081     39085     39086
     39082     39081     39084     39082     39081     39083     39083     39081     39084
     39085     39081     39084     39085     39081     39083     39085     39081     39082
     39087     39091     39092     39088     39087     39090     39088     39087     39089
     39089     39087     39090     39091     39087     39090     39091     39087     39089
     39091     39087     39088     39093     39097     39098     39094     39093     39096
     39094     39093     39095     39095     39093     39096     39097     39093     39096
     39097     39093     39095     39097     39093     39094     39099     39103     39104
     39100     39099     39102     39100     39099     39101     39101     39099     39102
     39103     39099     39102     39103     39099     39101     39103     39099     39100
     39105     39109     39110     39106     39105     39108     39106     39105     39107
     39107     39105     39108     39109     39105     39108     39109     39105     39107
     39109     39105     39106     39111     39115     39116     39112     39111     39114
     39112     39111     39113     39113     39111     39114     39115     39111     39114
     39115     39111     39113     39115     39111     39112     39117     39121     39122
     39118     39117     39120     39118     39117     39119     39119     39117     39120
     39121     39117     39120     39121     39117     39119     39121     39117     39118
     39123     39127     39128     39124     39123     39126     39124     39123     39125
     39125     39123     39126     39127     39123     39126     39127     39123     39125
     39127     39123     39124     39129     39133     39134     39130     39129     39132
     39130     39129     39131     39131     39129     39132     39133     39129     39132
     39133     39129     39131     39133     39129     39130     39135     39139     39140
     39136     39135     39138     39136     39135     39137     39137     39135     39138
     39139     39135     39138     39139     39135     39137     39139     39135     39136
     39141     39145     39146     39142     39141     39144     39142     39141     39143
     39143     39141     39144     39145     39141     39144     39145     39141     39143
     39145     39141     39142     39147     39151     39152     39148     39147     39150
     39148     39147     39149     39149     39147     39150     39151     39147     39150
     39151     39147     39149     39151     39147     39148     39153     39157     39158
     39154     39153     39156     39154     39153     39155     39155     39153     39156
     39157     39153     39156     39157     39153     39155     39157     39153     39154
     39159     39163     39164     39160     39159     39162     39160     39159     39161
     39161     39159     39162     39163     39159     39162     39163     39159     39161
     39163     39159     39160     39165     39169     39170     39166     39165     39168
     39166     39165     39167     39167     39165     39168     39169     39165     39168
     39169     39165     39167     39169     39165     39166     39171     39175     39176
     39172     39171     39174     39172     39171     39173     39173     39171     39174
     39175     39171     39174     39175     39171     39173     39175     39171     39172
     39177     39181     39182     39178     39177     39180     39178     39177     39179
     39179     39177     39180     39181     39177     39180     39181     39177     39179
     39181     39177     39178     39183     39187     39188     39184     39183     39186
     39184     39183     39185     39185     39183     39186     39187     39183     39186
     39187     39183     39185     39187     39183     39184     39189     39193     39194
     39190     39189     39192     39190     39189     39191     39191     39189     39192
     39193     39189     39192     39193     39189     39191     39193     39189     39190
     39195     39199     39200     39196     39195     39198     39196     39195     39197
     39197     39195     39198     39199     39195     39198     39199     39195     39197
     39199     39195     39196     39201     39205     39206     39202     39201     39204
     39202     39201     39203     39203     39201     39204     39205     39201     39204
     39205     39201     39203     39205     39201     39202     39207     39211     39212
     39208     39207     39210     39208     39207     39209     39209     39207     39210
     39211     39207     39210     39211     39207     39209     39211     39207     39208
     39213     39217     39218     39214     39213     39216     39214     39213     39215
     39215     39213     39216     39217     39213     39216     39217     39213     39215
     39217     39213     39214     39219     39223     39224     39220     39219     39222
     39220     39219     39221     39221     39219     39222     39223     39219     39222
     39223     39219     39221     39223     39219     39220     39225     39229     39230
     39226     39225     39228     39226     39225     39227     39227     39225     39228
     39229     39225     39228     39229     39225     39227     39229     39225     39226
     39231     39235     39236     39232     39231     39234     39232     39231     39233
     39233     39231     39234     39235     39231     39234     39235     39231     39233
     39235     39231     39232     39237     39241     39242     39238     39237     39240
     39238     39237     39239     39239     39237     39240     39241     39237     39240
     39241     39237     39239     39241     39237     39238     39243     39247     39248
     39244     39243     39246     39244     39243     39245     39245     39243     39246
     39247     39243     39246     39247     39243     39245     39247     39243     39244
     39249     39253     39254     39250     39249     39252     39250     39249     39251
     39251     39249     39252     39253     39249     39252     39253     39249     39251
     39253     39249     39250     39255     39259     39260     39256     39255     39258
     39256     39255     39257     39257     39255     39258     39259     39255     39258
     39259     39255     39257     39259     39255     39256     39261     39265     39266
     39262     39261     39264     39262     39261     39263     39263     39261     39264
     39265     39261     39264     39265     39261     39263     39265     39261     39262
     39267     39271     39272     39268     39267     39270     39268     39267     39269
     39269     39267     39270     39271     39267     39270     39271     39267     39269
     39271     39267     39268     39273     39277     39278     39274     39273     39276
     39274     39273     39275     39275     39273     39276     39277     39273     39276
     39277     39273     39275     39277     39273     39274     39279     39283     39284
     39280     39279     39282     39280     39279     39281     39281     39279     39282
     39283     39279     39282     39283     39279     39281     39283     39279     39280
     39285     39289     39290     39286     39285     39288     39286     39285     39287
     39287     39285     39288     39289     39285     39288     39289     39285     39287
     39289     39285     39286     39291     39295     39296     39292     39291     39294
     39292     39291     39293     39293     39291     39294     39295     39291     39294
     39295     39291     39293     39295     39291     39292     39297     39301     39302
     39298     39297     39300     39298     39297     39299     39299     39297     39300
     39301     39297     39300     39301     39297     39299     39301     39297     39298
     39303     39307     39308     39304     39303     39306     39304     39303     39305
     39305     39303     39306     39307     39303     39306     39307     39303     39305
     39307     39303     39304     39309     39313     39314     39310     39309     39312
     39310     39309     39311     39311     39309     39312     39313     39309     39312
     39313     39309     39311     39313     39309     39310     39315     39319     39320
     39316     39315     39318     39316     39315     39317     39317     39315     39318
     39319     39315     39318     39319     39315     39317     39319     39315     39316
     39321     39325     39326     39322     39321     39324     39322     39321     39323
     39323     39321     39324     39325     39321     39324     39325     39321     39323
     39325     39321     39322     39327     39331     39332     39328     39327     39330
     39328     39327     39329     39329     39327     39330     39331     39327     39330
     39331     39327     39329     39331     39327     39328     39333     39337     39338
     39334     39333     39336     39334     39333     39335     39335     39333     39336
     39337     39333     39336     39337     39333     39335     39337     39333     39334
     39339     39343     39344     39340     39339     39342     39340     39339     39341
     39341     39339     39342     39343     39339     39342     39343     39339     39341
     39343     39339     39340     39345     39349     39350     39346     39345     39348
     39346     39345     39347     39347     39345     39348     39349     39345     39348
     39349     39345     39347     39349     39345     39346     39351     39355     39356
     39352     39351     39354     39352     39351     39353     39353     39351     39354
     39355     39351     39354     39355     39351     39353     39355     39351     39352
     39357     39361     39362     39358     39357     39360     39358     39357     39359
     39359     39357     39360     39361     39357     39360     39361     39357     39359
     39361     39357     39358     39363     39367     39368     39364     39363     39366
     39364     39363     39365     39365     39363     39366     39367     39363     39366
     39367     39363     39365     39367     39363     39364     39369     39373     39374
     39370     39369     39372     39370     39369     39371     39371     39369     39372
     39373     39369     39372     39373     39369     39371     39373     39369     39370
     39375     39379     39380     39376     39375     39378     39376     39375     39377
     39377     39375     39378     39379     39375     39378     39379     39375     39377
     39379     39375     39376     39381     39385     39386     39382     39381     39384
     39382     39381     39383     39383     39381     39384     39385     39381     39384
     39385     39381     39383     39385     39381     39382     39387     39391     39392
     39388     39387     39390     39388     39387     39389     39389     39387     39390
     39391     39387     39390     39391     39387     39389     39391     39387     39388
     39393     39397     39398     39394     39393     39396     39394     39393     39395
     39395     39393     39396     39397     39393     39396     39397     39393     39395
     39397     39393     39394     39399     39403     39404     39400     39399     39402
     39400     39399     39401     39401     39399     39402     39403     39399     39402
     39403     39399     39401     39403     39399     39400     39405     39409     39410
     39406     39405     39408     39406     39405     39407     39407     39405     39408
     39409     39405     39408     39409     39405     39407     39409     39405     39406
     39411     39415     39416     39412     39411     39414     39412     39411     39413
     39413     39411     39414     39415     39411     39414     39415     39411     39413
     39415     39411     39412     39417     39421     39422     39418     39417     39420
     39418     39417     39419     39419     39417     39420     39421     39417     39420
     39421     39417     39419     39421     39417     39418     39423     39427     39428
     39424     39423     39426     39424     39423     39425     39425     39423     39426
     39427     39423     39426     39427     39423     39425     39427     39423     39424
     39429     39433     39434     39430     39429     39432     39430     39429     39431
     39431     39429     39432     39433     39429     39432     39433     39429     39431
     39433     39429     39430     39435     39439     39440     39436     39435     39438
     39436     39435     39437     39437     39435     39438     39439     39435     39438
     39439     39435     39437     39439     39435     39436     39441     39445     39446
     39442     39441     39444     39442     39441     39443     39443     39441     39444
     39445     39441     39444     39445     39441     39443     39445     39441     39442
     39447     39451     39452     39448     39447     39450     39448     39447     39449
     39449     39447     39450     39451     39447     39450     39451     39447     39449
     39451     39447     39448     39453     39457     39458     39454     39453     39456
     39454     39453     39455     39455     39453     39456     39457     39453     39456
     39457     39453     39455     39457     39453     39454     39459     39463     39464
     39460     39459     39462     39460     39459     39461     39461     39459     39462
     39463     39459     39462     39463     39459     39461     39463     39459     39460
     39465     39469     39470     39466     39465     39468     39466     39465     39467
     39467     39465     39468     39469     39465     39468     39469     39465     39467
     39469     39465     39466     39471     39475     39476     39472     39471     39474
     39472     39471     39473     39473     39471     39474     39475     39471     39474
     39475     39471     39473     39475     39471     39472     39477     39481     39482
     39478     39477     39480     39478     39477     39479     39479     39477     39480
     39481     39477     39480     39481     39477     39479     39481     39477     39478
     39483     39487     39488     39484     39483     39486     39484     39483     39485
     39485     39483     39486     39487     39483     39486     39487     39483     39485
     39487     39483     39484     39489     39493     39494     39490     39489     39492
     39490     39489     39491     39491     39489     39492     39493     39489     39492
     39493     39489     39491     39493     39489     39490     39495     39499     39500
     39496     39495     39498     39496     39495     39497     39497     39495     39498
     39499     39495     39498     39499     39495     39497     39499     39495     39496
     39501     39505     39506     39502     39501     39504     39502     39501     39503
     39503     39501     39504     39505     39501     39504     39505     39501     39503
     39505     39501     39502     39507     39511     39512     39508     39507     39510
     39508     39507     39509     39509     39507     39510     39511     39507     39510
     39511     39507     39509     39511     39507     39508     39513     39517     39518
     39514     39513     39516     39514     39513     39515     39515     39513     39516
     39517     39513     39516     39517     39513     39515     39517     39513     39514
     39519     39523     39524     39520     39519     39522     39520     39519     39521
     39521     39519     39522     39523     39519     39522     39523     39519     39521
     39523     39519     39520     39525     39529     39530     39526     39525     39528
     39526     39525     39527     39527     39525     39528     39529     39525     39528
     39529     39525     39527     39529     39525     39526     39531     39535     39536
     39532     39531     39534     39532     39531     39533     39533     39531     39534
     39535     39531     39534     39535     39531     39533     39535     39531     39532
     39537     39541     39542     39538     39537     39540     39538     39537     39539
     39539     39537     39540     39541     39537     39540     39541     39537     39539
     39541     39537     39538     39543     39547     39548     39544     39543     39546
     39544     39543     39545     39545     39543     39546     39547     39543     39546
     39547     39543     39545     39547     39543     39544     39549     39553     39554
     39550     39549     39552     39550     39549     39551     39551     39549     39552
     39553     39549     39552     39553     39549     39551     39553     39549     39550
     39555     39559     39560     39556     39555     39558     39556     39555     39557
     39557     39555     39558     39559     39555     39558     39559     39555     39557
     39559     39555     39556     39561     39565     39566     39562     39561     39564
     39562     39561     39563     39563     39561     39564     39565     39561     39564
     39565     39561     39563     39565     39561     39562     39567     39571     39572
     39568     39567     39570     39568     39567     39569     39569     39567     39570
     39571     39567     39570     39571     39567     39569     39571     39567     39568
     39573     39577     39578     39574     39573     39576     39574     39573     39575
     39575     39573     39576     39577     39573     39576     39577     39573     39575
     39577     39573     39574     39579     39583     39584     39580     39579     39582
     39580     39579     39581     39581     39579     39582     39583     39579     39582
     39583     39579     39581     39583     39579     39580     39585     39589     39590
     39586     39585     39588     39586     39585     39587     39587     39585     39588
     39589     39585     39588     39589     39585     39587     39589     39585     39586
     39591     39595     39596     39592     39591     39594     39592     39591     39593
     39593     39591     39594     39595     39591     39594     39595     39591     39593
     39595     39591     39592     39597     39601     39602     39598     39597     39600
     39598     39597     39599     39599     39597     39600     39601     39597     39600
     39601     39597     39599     39601     39597     39598     39603     39607     39608
     39604     39603     39606     39604     39603     39605     39605     39603     39606
     39607     39603     39606     39607     39603     39605     39607     39603     39604
     39609     39613     39614     39610     39609     39612     39610     39609     39611
     39611     39609     39612     39613     39609     39612     39613     39609     39611
     39613     39609     39610     39615     39619     39620     39616     39615     39618
     39616     39615     39617     39617     39615     39618     39619     39615     39618
     39619     39615     39617     39619     39615     39616     39621     39625     39626
     39622     39621     39624     39622     39621     39623     39623     39621     39624
     39625     39621     39624     39625     39621     39623     39625     39621     39622
     39627     39631     39632     39628     39627     39630     39628     39627     39629
     39629     39627     39630     39631     39627     39630     39631     39627     39629
     39631     39627     39628     39633     39637     39638     39634     39633     39636
     39634     39633     39635     39635     39633     39636     39637     39633     39636
     39637     39633     39635     39637     39633     39634     39639     39643     39644
     39640     39639     39642     39640     39639     39641     39641     39639     39642
     39643     39639     39642     39643     39639     39641     39643     39639     39640
     39645     39649     39650     39646     39645     39648     39646     39645     39647
     39647     39645     39648     39649     39645     39648     39649     39645     39647
     39649     39645     39646     39651     39655     39656     39652     39651     39654
     39652     39651     39653     39653     39651     39654     39655     39651     39654
     39655     39651     39653     39655     39651     39652     39657     39661     39662
     39658     39657     39660     39658     39657     39659     39659     39657     39660
     39661     39657     39660     39661     39657     39659     39661     39657     39658
     39663     39667     39668     39664     39663     39666     39664     39663     39665
     39665     39663     39666     39667     39663     39666     39667     39663     39665
     39667     39663     39664     39669     39673     39674     39670     39669     39672
     39670     39669     39671     39671     39669     39672     39673     39669     39672
     39673     39669     39671     39673     39669     39670     39675     39679     39680
     39676     39675     39678     39676     39675     39677     39677     39675     39678
     39679     39675     39678     39679     39675     39677     39679     39675     39676
     39681     39685     39686     39682     39681     39684     39682     39681     39683
     39683     39681     39684     39685     39681     39684     39685     39681     39683
     39685     39681     39682     39687     39691     39692     39688     39687     39690
     39688     39687     39689     39689     39687     39690     39691     39687     39690
     39691     39687     39689     39691     39687     39688     39693     39697     39698
     39694     39693     39696     39694     39693     39695     39695     39693     39696
     39697     39693     39696     39697     39693     39695     39697     39693     39694
     39699     39703     39704     39700     39699     39702     39700     39699     39701
     39701     39699     39702     39703     39699     39702     39703     39699     39701
     39703     39699     39700     39705     39709     39710     39706     39705     39708
     39706     39705     39707     39707     39705     39708     39709     39705     39708
     39709     39705     39707     39709     39705     39706     39711     39715     39716
     39712     39711     39714     39712     39711     39713     39713     39711     39714
     39715     39711     39714     39715     39711     39713     39715     39711     39712
     39717     39721     39722     39718     39717     39720     39718     39717     39719
     39719     39717     39720     39721     39717     39720     39721     39717     39719
     39721     39717     39718     39723     39727     39728     39724     39723     39726
     39724     39723     39725     39725     39723     39726     39727     39723     39726
     39727     39723     39725     39727     39723     39724     39729     39733     39734
     39730     39729     39732     39730     39729     39731     39731     39729     39732
     39733     39729     39732     39733     39729     39731     39733     39729     39730
     39735     39739     39740     39736     39735     39738     39736     39735     39737
     39737     39735     39738     39739     39735     39738     39739     39735     39737
     39739     39735     39736     39741     39745     39746     39742     39741     39744
     39742     39741     39743     39743     39741     39744     39745     39741     39744
     39745     39741     39743     39745     39741     39742     39747     39751     39752
     39748     39747     39750     39748     39747     39749     39749     39747     39750
     39751     39747     39750     39751     39747     39749     39751     39747     39748
     39753     39757     39758     39754     39753     39756     39754     39753     39755
     39755     39753     39756     39757     39753     39756     39757     39753     39755
     39757     39753     39754     39759     39763     39764     39760     39759     39762
     39760     39759     39761     39761     39759     39762     39763     39759     39762
     39763     39759     39761     39763     39759     39760     39765     39769     39770
     39766     39765     39768     39766     39765     39767     39767     39765     39768
     39769     39765     39768     39769     39765     39767     39769     39765     39766
     39771     39775     39776     39772     39771     39774     39772     39771     39773
     39773     39771     39774     39775     39771     39774     39775     39771     39773
     39775     39771     39772     39777     39781     39782     39778     39777     39780
     39778     39777     39779     39779     39777     39780     39781     39777     39780
     39781     39777     39779     39781     39777     39778     39783     39787     39788
     39784     39783     39786     39784     39783     39785     39785     39783     39786
     39787     39783     39786     39787     39783     39785     39787     39783     39784
     39789     39793     39794     39790     39789     39792     39790     39789     39791
     39791     39789     39792     39793     39789     39792     39793     39789     39791
     39793     39789     39790     39795     39799     39800     39796     39795     39798
     39796     39795     39797     39797     39795     39798     39799     39795     39798
     39799     39795     39797     39799     39795     39796     39801     39805     39806
     39802     39801     39804     39802     39801     39803     39803     39801     39804
     39805     39801     39804     39805     39801     39803     39805     39801     39802
     39807     39811     39812     39808     39807     39810     39808     39807     39809
     39809     39807     39810     39811     39807     39810     39811     39807     39809
     39811     39807     39808     39813     39817     39818     39814     39813     39816
     39814     39813     39815     39815     39813     39816     39817     39813     39816
     39817     39813     39815     39817     39813     39814     39819     39823     39824
     39820     39819     39822     39820     39819     39821     39821     39819     39822
     39823     39819     39822     39823     39819     39821     39823     39819     39820
     39825     39829     39830     39826     39825     39828     39826     39825     39827
     39827     39825     39828     39829     39825     39828     39829     39825     39827
     39829     39825     39826     39831     39835     39836     39832     39831     39834
     39832     39831     39833     39833     39831     39834     39835     39831     39834
     39835     39831     39833     39835     39831     39832     39837     39841     39842
     39838     39837     39840     39838     39837     39839     39839     39837     39840
     39841     39837     39840     39841     39837     39839     39841     39837     39838
     39843     39847     39848     39844     39843     39846     39844     39843     39845
     39845     39843     39846     39847     39843     39846     39847     39843     39845
     39847     39843     39844     39849     39853     39854     39850     39849     39852
     39850     39849     39851     39851     39849     39852     39853     39849     39852
     39853     39849     39851     39853     39849     39850     39855     39859     39860
     39856     39855     39858     39856     39855     39857     39857     39855     39858
     39859     39855     39858     39859     39855     39857     39859     39855     39856
     39861     39865     39866     39862     39861     39864     39862     39861     39863
     39863     39861     39864     39865     39861     39864     39865     39861     39863
     39865     39861     39862     39867     39871     39872     39868     39867     39870
     39868     39867     39869     39869     39867     39870     39871     39867     39870
     39871     39867     39869     39871     39867     39868     39873     39877     39878
     39874     39873     39876     39874     39873     39875     39875     39873     39876
     39877     39873     39876     39877     39873     39875     39877     39873     39874
     39879     39883     39884     39880     39879     39882     39880     39879     39881
     39881     39879     39882     39883     39879     39882     39883     39879     39881
     39883     39879     39880     39885     39889     39890     39886     39885     39888
     39886     39885     39887     39887     39885     39888     39889     39885     39888
     39889     39885     39887     39889     39885     39886     39891     39895     39896
     39892     39891     39894     39892     39891     39893     39893     39891     39894
     39895     39891     39894     39895     39891     39893     39895     39891     39892
     39897     39901     39902     39898     39897     39900     39898     39897     39899
     39899     39897     39900     39901     39897     39900     39901     39897     39899
     39901     39897     39898     39903     39907     39908     39904     39903     39906
     39904     39903     39905     39905     39903     39906     39907     39903     39906
     39907     39903     39905     39907     39903     39904     39909     39913     39914
     39910     39909     39912     39910     39909     39911     39911     39909     39912
     39913     39909     39912     39913     39909     39911     39913     39909     39910
     39915     39919     39920     39916     39915     39918     39916     39915     39917
     39917     39915     39918     39919     39915     39918     39919     39915     39917
     39919     39915     39916     39921     39925     39926     39922     39921     39924
     39922     39921     39923     39923     39921     39924     39925     39921     39924
     39925     39921     39923     39925     39921     39922     39927     39931     39932
     39928     39927     39930     39928     39927     39929     39929     39927     39930
     39931     39927     39930     39931     39927     39929     39931     39927     39928
     39933     39937     39938     39934     39933     39936     39934     39933     39935
     39935     39933     39936     39937     39933     39936     39937     39933     39935
     39937     39933     39934     39939     39943     39944     39940     39939     39942
     39940     39939     39941     39941     39939     39942     39943     39939     39942
     39943     39939     39941     39943     39939     39940     39945     39949     39950
     39946     39945     39948     39946     39945     39947     39947     39945     39948
     39949     39945     39948     39949     39945     39947     39949     39945     39946
     39951     39955     39956     39952     39951     39954     39952     39951     39953
     39953     39951     39954     39955     39951     39954     39955     39951     39953
     39955     39951     39952     39957     39961     39962     39958     39957     39960
     39958     39957     39959     39959     39957     39960     39961     39957     39960
     39961     39957     39959     39961     39957     39958     39963     39967     39968
     39964     39963     39966     39964     39963     39965     39965     39963     39966
     39967     39963     39966     39967     39963     39965     39967     39963     39964
     39969     39973     39974     39970     39969     39972     39970     39969     39971
     39971     39969     39972     39973     39969     39972     39973     39969     39971
     39973     39969     39970     39975     39979     39980     39976     39975     39978
     39976     39975     39977     39977     39975     39978     39979     39975     39978
     39979     39975     39977     39979     39975     39976     39981     39985     39986
     39982     39981     39984     39982     39981     39983     39983     39981     39984
     39985     39981     39984     39985     39981     39983     39985     39981     39982
     39987     39991     39992     39988     39987     39990     39988     39987     39989
     39989     39987     39990     39991     39987     39990     39991     39987     39989
     39991     39987     39988     39993     39997     39998     39994     39993     39996
     39994     39993     39995     39995     39993     39996     39997     39993     39996
     39997     39993     39995     39997     39993     39994     39999     40003     40004
     40000     39999     40002     40000     39999     40001     40001     39999     40002
     40003     39999     40002     40003     39999     40001     40003     39999     40000
     40005     40009     40010     40006     40005     40008     40006     40005     40007
     40007     40005     40008     40009     40005     40008     40009     40005     40007
     40009     40005     40006     40011     40015     40016     40012     40011     40014
     40012     40011     40013     40013     40011     40014     40015     40011     40014
     40015     40011     40013     40015     40011     40012     40017     40021     40022
     40018     40017     40020     40018     40017     40019     40019     40017     40020
     40021     40017     40020     40021     40017     40019     40021     40017     40018
     40023     40027     40028     40024     40023     40026     40024     40023     40025
     40025     40023     40026     40027     40023     40026     40027     40023     40025
     40027     40023     40024     40029     40033     40034     40030     40029     40032
     40030     40029     40031     40031     40029     40032     40033     40029     40032
     40033     40029     40031     40033     40029     40030     40035     40039     40040
     40036     40035     40038     40036     40035     40037     40037     40035     40038
     40039     40035     40038     40039     40035     40037     40039     40035     40036
     40041     40045     40046     40042     40041     40044     40042     40041     40043
     40043     40041     40044     40045     40041     40044     40045     40041     40043
     40045     40041     40042     40047     40051     40052     40048     40047     40050
     40048     40047     40049     40049     40047     40050     40051     40047     40050
     40051     40047     40049     40051     40047     40048     40053     40057     40058
     40054     40053     40056     40054     40053     40055     40055     40053     40056
     40057     40053     40056     40057     40053     40055     40057     40053     40054
     40059     40063     40064     40060     40059     40062     40060     40059     40061
     40061     40059     40062     40063     40059     40062     40063     40059     40061
     40063     40059     40060     40065     40069     40070     40066     40065     40068
     40066     40065     40067     40067     40065     40068     40069     40065     40068
     40069     40065     40067     40069     40065     40066     40071     40075     40076
     40072     40071     40074     40072     40071     40073     40073     40071     40074
     40075     40071     40074     40075     40071     40073     40075     40071     40072
     40077     40081     40082     40078     40077     40080     40078     40077     40079
     40079     40077     40080     40081     40077     40080     40081     40077     40079
     40081     40077     40078     40083     40087     40088     40084     40083     40086
     40084     40083     40085     40085     40083     40086     40087     40083     40086
     40087     40083     40085     40087     40083     40084     40089     40093     40094
     40090     40089     40092     40090     40089     40091     40091     40089     40092
     40093     40089     40092     40093     40089     40091     40093     40089     40090
     40095     40099     40100     40096     40095     40098     40096     40095     40097
     40097     40095     40098     40099     40095     40098     40099     40095     40097
     40099     40095     40096     40101     40105     40106     40102     40101     40104
     40102     40101     40103     40103     40101     40104     40105     40101     40104
     40105     40101     40103     40105     40101     40102     40107     40111     40112
     40108     40107     40110     40108     40107     40109     40109     40107     40110
     40111     40107     40110     40111     40107     40109     40111     40107     40108
     40113     40117     40118     40114     40113     40116     40114     40113     40115
     40115     40113     40116     40117     40113     40116     40117     40113     40115
     40117     40113     40114     40119     40123     40124     40120     40119     40122
     40120     40119     40121     40121     40119     40122     40123     40119     40122
     40123     40119     40121     40123     40119     40120     40125     40129     40130
     40126     40125     40128     40126     40125     40127     40127     40125     40128
     40129     40125     40128     40129     40125     40127     40129     40125     40126
     40131     40135     40136     40132     40131     40134     40132     40131     40133
     40133     40131     40134     40135     40131     40134     40135     40131     40133
     40135     40131     40132     40137     40141     40142     40138     40137     40140
     40138     40137     40139     40139     40137     40140     40141     40137     40140
     40141     40137     40139     40141     40137     40138     40143     40147     40148
     40144     40143     40146     40144     40143     40145     40145     40143     40146
     40147     40143     40146     40147     40143     40145     40147     40143     40144
     40149     40153     40154     40150     40149     40152     40150     40149     40151
     40151     40149     40152     40153     40149     40152     40153     40149     40151
     40153     40149     40150     40155     40159     40160     40156     40155     40158
     40156     40155     40157     40157     40155     40158     40159     40155     40158
     40159     40155     40157     40159     40155     40156     40161     40165     40166
     40162     40161     40164     40162     40161     40163     40163     40161     40164
     40165     40161     40164     40165     40161     40163     40165     40161     40162
     40167     40171     40172     40168     40167     40170     40168     40167     40169
     40169     40167     40170     40171     40167     40170     40171     40167     40169
     40171     40167     40168     40173     40177     40178     40174     40173     40176
     40174     40173     40175     40175     40173     40176     40177     40173     40176
     40177     40173     40175     40177     40173     40174     40179     40183     40184
     40180     40179     40182     40180     40179     40181     40181     40179     40182
     40183     40179     40182     40183     40179     40181     40183     40179     40180
     40185     40189     40190     40186     40185     40188     40186     40185     40187
     40187     40185     40188     40189     40185     40188     40189     40185     40187
     40189     40185     40186     40191     40195     40196     40192     40191     40194
     40192     40191     40193     40193     40191     40194     40195     40191     40194
     40195     40191     40193     40195     40191     40192     40197     40201     40202
     40198     40197     40200     40198     40197     40199     40199     40197     40200
     40201     40197     40200     40201     40197     40199     40201     40197     40198
     40203     40207     40208     40204     40203     40206     40204     40203     40205
     40205     40203     40206     40207     40203     40206     40207     40203     40205
     40207     40203     40204     40209     40213     40214     40210     40209     40212
     40210     40209     40211     40211     40209     40212     40213     40209     40212
     40213     40209     40211     40213     40209     40210     40215     40219     40220
     40216     40215     40218     40216     40215     40217     40217     40215     40218
     40219     40215     40218     40219     40215     40217     40219     40215     40216
     40221     40225     40226     40222     40221     40224     40222     40221     40223
     40223     40221     40224     40225     40221     40224     40225     40221     40223
     40225     40221     40222     40227     40231     40232     40228     40227     40230
     40228     40227     40229     40229     40227     40230     40231     40227     40230
     40231     40227     40229     40231     40227     40228     40233     40237     40238
     40234     40233     40236     40234     40233     40235     40235     40233     40236
     40237     40233     40236     40237     40233     40235     40237     40233     40234
     40239     40243     40244     40240     40239     40242     40240     40239     40241
     40241     40239     40242     40243     40239     40242     40243     40239     40241
     40243     40239     40240     40245     40249     40250     40246     40245     40248
     40246     40245     40247     40247     40245     40248     40249     40245     40248
     40249     40245     40247     40249     40245     40246     40251     40255     40256
     40252     40251     40254     40252     40251     40253     40253     40251     40254
     40255     40251     40254     40255     40251     40253     40255     40251     40252
     40257     40261     40262     40258     40257     40260     40258     40257     40259
     40259     40257     40260     40261     40257     40260     40261     40257     40259
     40261     40257     40258     40263     40267     40268     40264     40263     40266
     40264     40263     40265     40265     40263     40266     40267     40263     40266
     40267     40263     40265     40267     40263     40264     40269     40273     40274
     40270     40269     40272     40270     40269     40271     40271     40269     40272
     40273     40269     40272     40273     40269     40271     40273     40269     40270
     40275     40279     40280     40276     40275     40278     40276     40275     40277
     40277     40275     40278     40279     40275     40278     40279     40275     40277
     40279     40275     40276     40281     40285     40286     40282     40281     40284
     40282     40281     40283     40283     40281     40284     40285     40281     40284
     40285     40281     40283     40285     40281     40282     40287     40291     40292
     40288     40287     40290     40288     40287     40289     40289     40287     40290
     40291     40287     40290     40291     40287     40289     40291     40287     40288
     40293     40297     40298     40294     40293     40296     40294     40293     40295
     40295     40293     40296     40297     40293     40296     40297     40293     40295
     40297     40293     40294     40299     40303     40304     40300     40299     40302
     40300     40299     40301     40301     40299     40302     40303     40299     40302
     40303     40299     40301     40303     40299     40300     40305     40309     40310
     40306     40305     40308     40306     40305     40307     40307     40305     40308
     40309     40305     40308     40309     40305     40307     40309     40305     40306
     40311     40315     40316     40312     40311     40314     40312     40311     40313
     40313     40311     40314     40315     40311     40314     40315     40311     40313
     40315     40311     40312     40317     40321     40322     40318     40317     40320
     40318     40317     40319     40319     40317     40320     40321     40317     40320
     40321     40317     40319     40321     40317     40318     40323     40327     40328
     40324     40323     40326     40324     40323     40325     40325     40323     40326
     40327     40323     40326     40327     40323     40325     40327     40323     40324
     40329     40333     40334     40330     40329     40332     40330     40329     40331
     40331     40329     40332     40333     40329     40332     40333     40329     40331
     40333     40329     40330     40335     40339     40340     40336     40335     40338
     40336     40335     40337     40337     40335     40338     40339     40335     40338
     40339     40335     40337     40339     40335     40336     40341     40345     40346
     40342     40341     40344     40342     40341     40343     40343     40341     40344
     40345     40341     40344     40345     40341     40343     40345     40341     40342
     40347     40351     40352     40348     40347     40350     40348     40347     40349
     40349     40347     40350     40351     40347     40350     40351     40347     40349
     40351     40347     40348     40353     40357     40358     40354     40353     40356
     40354     40353     40355     40355     40353     40356     40357     40353     40356
     40357     40353     40355     40357     40353     40354     40359     40363     40364
     40360     40359     40362     40360     40359     40361     40361     40359     40362
     40363     40359     40362     40363     40359     40361     40363     40359     40360
     40365     40369     40370     40366     40365     40368     40366     40365     40367
     40367     40365     40368     40369     40365     40368     40369     40365     40367
     40369     40365     40366     40371     40375     40376     40372     40371     40374
     40372     40371     40373     40373     40371     40374     40375     40371     40374
     40375     40371     40373     40375     40371     40372     40377     40381     40382
     40378     40377     40380     40378     40377     40379     40379     40377     40380
     40381     40377     40380     40381     40377     40379     40381     40377     40378
     40383     40387     40388     40384     40383     40386     40384     40383     40385
     40385     40383     40386     40387     40383     40386     40387     40383     40385
     40387     40383     40384     40389     40393     40394     40390     40389     40392
     40390     40389     40391     40391     40389     40392     40393     40389     40392
     40393     40389     40391     40393     40389     40390     40395     40399     40400
     40396     40395     40398     40396     40395     40397     40397     40395     40398
     40399     40395     40398     40399     40395     40397     40399     40395     40396
     40401     40405     40406     40402     40401     40404     40402     40401     40403
     40403     40401     40404     40405     40401     40404     40405     40401     40403
     40405     40401     40402     40407     40411     40412     40408     40407     40410
     40408     40407     40409     40409     40407     40410     40411     40407     40410
     40411     40407     40409     40411     40407     40408     40413     40417     40418
     40414     40413     40416     40414     40413     40415     40415     40413     40416
     40417     40413     40416     40417     40413     40415     40417     40413     40414
     40419     40423     40424     40420     40419     40422     40420     40419     40421
     40421     40419     40422     40423     40419     40422     40423     40419     40421
     40423     40419     40420     40425     40429     40430     40426     40425     40428
     40426     40425     40427     40427     40425     40428     40429     40425     40428
     40429     40425     40427     40429     40425     40426     40431     40435     40436
     40432     40431     40434     40432     40431     40433     40433     40431     40434
     40435     40431     40434     40435     40431     40433     40435     40431     40432
     40437     40441     40442     40438     40437     40440     40438     40437     40439
     40439     40437     40440     40441     40437     40440     40441     40437     40439
     40441     40437     40438     40443     40447     40448     40444     40443     40446
     40444     40443     40445     40445     40443     40446     40447     40443     40446
     40447     40443     40445     40447     40443     40444     40449     40453     40454
     40450     40449     40452     40450     40449     40451     40451     40449     40452
     40453     40449     40452     40453     40449     40451     40453     40449     40450
     40455     40459     40460     40456     40455     40458     40456     40455     40457
     40457     40455     40458     40459     40455     40458     40459     40455     40457
     40459     40455     40456     40461     40465     40466     40462     40461     40464
     40462     40461     40463     40463     40461     40464     40465     40461     40464
     40465     40461     40463     40465     40461     40462     40467     40471     40472
     40468     40467     40470     40468     40467     40469     40469     40467     40470
     40471     40467     40470     40471     40467     40469     40471     40467     40468
     40473     40477     40478     40474     40473     40476     40474     40473     40475
     40475     40473     40476     40477     40473     40476     40477     40473     40475
     40477     40473     40474     40479     40483     40484     40480     40479     40482
     40480     40479     40481     40481     40479     40482     40483     40479     40482
     40483     40479     40481     40483     40479     40480     40485     40489     40490
     40486     40485     40488     40486     40485     40487     40487     40485     40488
     40489     40485     40488     40489     40485     40487     40489     40485     40486
     40491     40495     40496     40492     40491     40494     40492     40491     40493
     40493     40491     40494     40495     40491     40494     40495     40491     40493
     40495     40491     40492     40497     40501     40502     40498     40497     40500
     40498     40497     40499     40499     40497     40500     40501     40497     40500
     40501     40497     40499     40501     40497     40498     40503     40507     40508
     40504     40503     40506     40504     40503     40505     40505     40503     40506
     40507     40503     40506     40507     40503     40505     40507     40503     40504
     40509     40513     40514     40510     40509     40512     40510     40509     40511
     40511     40509     40512     40513     40509     40512     40513     40509     40511
     40513     40509     40510     40515     40519     40520     40516     40515     40518
     40516     40515     40517     40517     40515     40518     40519     40515     40518
     40519     40515     40517     40519     40515     40516     40521     40525     40526
     40522     40521     40524     40522     40521     40523     40523     40521     40524
     40525     40521     40524     40525     40521     40523     40525     40521     40522
     40527     40531     40532     40528     40527     40530     40528     40527     40529
     40529     40527     40530     40531     40527     40530     40531     40527     40529
     40531     40527     40528     40533     40537     40538     40534     40533     40536
     40534     40533     40535     40535     40533     40536     40537     40533     40536
     40537     40533     40535     40537     40533     40534     40539     40543     40544
     40540     40539     40542     40540     40539     40541     40541     40539     40542
     40543     40539     40542     40543     40539     40541     40543     40539     40540
     40545     40549     40550     40546     40545     40548     40546     40545     40547
     40547     40545     40548     40549     40545     40548     40549     40545     40547
     40549     40545     40546     40551     40555     40556     40552     40551     40554
     40552     40551     40553     40553     40551     40554     40555     40551     40554
     40555     40551     40553     40555     40551     40552     40557     40561     40562
     40558     40557     40560     40558     40557     40559     40559     40557     40560
     40561     40557     40560     40561     40557     40559     40561     40557     40558
     40563     40567     40568     40564     40563     40566     40564     40563     40565
     40565     40563     40566     40567     40563     40566     40567     40563     40565
     40567     40563     40564     40569     40573     40574     40570     40569     40572
     40570     40569     40571     40571     40569     40572     40573     40569     40572
     40573     40569     40571     40573     40569     40570     40575     40579     40580
     40576     40575     40578     40576     40575     40577     40577     40575     40578
     40579     40575     40578     40579     40575     40577     40579     40575     40576
     40581     40585     40586     40582     40581     40584     40582     40581     40583
     40583     40581     40584     40585     40581     40584     40585     40581     40583
     40585     40581     40582     40587     40591     40592     40588     40587     40590
     40588     40587     40589     40589     40587     40590     40591     40587     40590
     40591     40587     40589     40591     40587     40588     40593     40597     40598
     40594     40593     40596     40594     40593     40595     40595     40593     40596
     40597     40593     40596     40597     40593     40595     40597     40593     40594
     40599     40603     40604     40600     40599     40602     40600     40599     40601
     40601     40599     40602     40603     40599     40602     40603     40599     40601
     40603     40599     40600     40605     40609     40610     40606     40605     40608
     40606     40605     40607     40607     40605     40608     40609     40605     40608
     40609     40605     40607     40609     40605     40606     40611     40615     40616
     40612     40611     40614     40612     40611     40613     40613     40611     40614
     40615     40611     40614     40615     40611     40613     40615     40611     40612
     40617     40621     40622     40618     40617     40620     40618     40617     40619
     40619     40617     40620     40621     40617     40620     40621     40617     40619
     40621     40617     40618     40623     40627     40628     40624     40623     40626
     40624     40623     40625     40625     40623     40626     40627     40623     40626
     40627     40623     40625     40627     40623     40624     40629     40633     40634
     40630     40629     40632     40630     40629     40631     40631     40629     40632
     40633     40629     40632     40633     40629     40631     40633     40629     40630
     40635     40639     40640     40636     40635     40638     40636     40635     40637
     40637     40635     40638     40639     40635     40638     40639     40635     40637
     40639     40635     40636     40641     40645     40646     40642     40641     40644
     40642     40641     40643     40643     40641     40644     40645     40641     40644
     40645     40641     40643     40645     40641     40642     40647     40651     40652
     40648     40647     40650     40648     40647     40649     40649     40647     40650
     40651     40647     40650     40651     40647     40649     40651     40647     40648
     40653     40657     40658     40654     40653     40656     40654     40653     40655
     40655     40653     40656     40657     40653     40656     40657     40653     40655
     40657     40653     40654     40659     40663     40664     40660     40659     40662
     40660     40659     40661     40661     40659     40662     40663     40659     40662
     40663     40659     40661     40663     40659     40660     40665     40669     40670
     40666     40665     40668     40666     40665     40667     40667     40665     40668
     40669     40665     40668     40669     40665     40667     40669     40665     40666
     40671     40675     40676     40672     40671     40674     40672     40671     40673
     40673     40671     40674     40675     40671     40674     40675     40671     40673
     40675     40671     40672     40677     40681     40682     40678     40677     40680
     40678     40677     40679     40679     40677     40680     40681     40677     40680
     40681     40677     40679     40681     40677     40678     40683     40687     40688
     40684     40683     40686     40684     40683     40685     40685     40683     40686
     40687     40683     40686     40687     40683     40685     40687     40683     40684
     40689     40693     40694     40690     40689     40692     40690     40689     40691
     40691     40689     40692     40693     40689     40692     40693     40689     40691
     40693     40689     40690     40695     40699     40700     40696     40695     40698
     40696     40695     40697     40697     40695     40698     40699     40695     40698
     40699     40695     40697     40699     40695     40696     40701     40705     40706
     40702     40701     40704     40702     40701     40703     40703     40701     40704
     40705     40701     40704     40705     40701     40703     40705     40701     40702
     40707     40711     40712     40708     40707     40710     40708     40707     40709
     40709     40707     40710     40711     40707     40710     40711     40707     40709
     40711     40707     40708     40713     40717     40718     40714     40713     40716
     40714     40713     40715     40715     40713     40716     40717     40713     40716
     40717     40713     40715     40717     40713     40714     40719     40723     40724
     40720     40719     40722     40720     40719     40721     40721     40719     40722
     40723     40719     40722     40723     40719     40721     40723     40719     40720
     40725     40729     40730     40726     40725     40728     40726     40725     40727
     40727     40725     40728     40729     40725     40728     40729     40725     40727
     40729     40725     40726     40731     40735     40736     40732     40731     40734
     40732     40731     40733     40733     40731     40734     40735     40731     40734
     40735     40731     40733     40735     40731     40732     40737     40741     40742
     40738     40737     40740     40738     40737     40739     40739     40737     40740
     40741     40737     40740     40741     40737     40739     40741     40737     40738
     40743     40747     40748     40744     40743     40746     40744     40743     40745
     40745     40743     40746     40747     40743     40746     40747     40743     40745
     40747     40743     40744     40749     40753     40754     40750     40749     40752
     40750     40749     40751     40751     40749     40752     40753     40749     40752
     40753     40749     40751     40753     40749     40750     40755     40759     40760
     40756     40755     40758     40756     40755     40757     40757     40755     40758
     40759     40755     40758     40759     40755     40757     40759     40755     40756
     40761     40765     40766     40762     40761     40764     40762     40761     40763
     40763     40761     40764     40765     40761     40764     40765     40761     40763
     40765     40761     40762     40767     40771     40772     40768     40767     40770
     40768     40767     40769     40769     40767     40770     40771     40767     40770
     40771     40767     40769     40771     40767     40768     40773     40777     40778
     40774     40773     40776     40774     40773     40775     40775     40773     40776
     40777     40773     40776     40777     40773     40775     40777     40773     40774
     40779     40783     40784     40780     40779     40782     40780     40779     40781
     40781     40779     40782     40783     40779     40782     40783     40779     40781
     40783     40779     40780     40785     40789     40790     40786     40785     40788
     40786     40785     40787     40787     40785     40788     40789     40785     40788
     40789     40785     40787     40789     40785     40786     40791     40795     40796
     40792     40791     40794     40792     40791     40793     40793     40791     40794
     40795     40791     40794     40795     40791     40793     40795     40791     40792
     40797     40801     40802     40798     40797     40800     40798     40797     40799
     40799     40797     40800     40801     40797     40800     40801     40797     40799
     40801     40797     40798     40803     40807     40808     40804     40803     40806
     40804     40803     40805     40805     40803     40806     40807     40803     40806
     40807     40803     40805     40807     40803     40804     40809     40813     40814
     40810     40809     40812     40810     40809     40811     40811     40809     40812
     40813     40809     40812     40813     40809     40811     40813     40809     40810
     40815     40819     40820     40816     40815     40818     40816     40815     40817
     40817     40815     40818     40819     40815     40818     40819     40815     40817
     40819     40815     40816     40821     40825     40826     40822     40821     40824
     40822     40821     40823     40823     40821     40824     40825     40821     40824
     40825     40821     40823     40825     40821     40822     40827     40831     40832
     40828     40827     40830     40828     40827     40829     40829     40827     40830
     40831     40827     40830     40831     40827     40829     40831     40827     40828
     40833     40837     40838     40834     40833     40836     40834     40833     40835
     40835     40833     40836     40837     40833     40836     40837     40833     40835
     40837     40833     40834     40839     40843     40844     40840     40839     40842
     40840     40839     40841     40841     40839     40842     40843     40839     40842
     40843     40839     40841     40843     40839     40840     40845     40849     40850
     40846     40845     40848     40846     40845     40847     40847     40845     40848
     40849     40845     40848     40849     40845     40847     40849     40845     40846
     40851     40855     40856     40852     40851     40854     40852     40851     40853
     40853     40851     40854     40855     40851     40854     40855     40851     40853
     40855     40851     40852     40857     40861     40862     40858     40857     40860
     40858     40857     40859     40859     40857     40860     40861     40857     40860
     40861     40857     40859     40861     40857     40858     40863     40867     40868
     40864     40863     40866     40864     40863     40865     40865     40863     40866
     40867     40863     40866     40867     40863     40865     40867     40863     40864
     40869     40873     40874     40870     40869     40872     40870     40869     40871
     40871     40869     40872     40873     40869     40872     40873     40869     40871
     40873     40869     40870     40875     40879     40880     40876     40875     40878
     40876     40875     40877     40877     40875     40878     40879     40875     40878
     40879     40875     40877     40879     40875     40876     40881     40885     40886
     40882     40881     40884     40882     40881     40883     40883     40881     40884
     40885     40881     40884     40885     40881     40883     40885     40881     40882
     40887     40891     40892     40888     40887     40890     40888     40887     40889
     40889     40887     40890     40891     40887     40890     40891     40887     40889
     40891     40887     40888     40893     40897     40898     40894     40893     40896
     40894     40893     40895     40895     40893     40896     40897     40893     40896
     40897     40893     40895     40897     40893     40894     40899     40903     40904
     40900     40899     40902     40900     40899     40901     40901     40899     40902
     40903     40899     40902     40903     40899     40901     40903     40899     40900
     40905     40909     40910     40906     40905     40908     40906     40905     40907
     40907     40905     40908     40909     40905     40908     40909     40905     40907
     40909     40905     40906     40911     40915     40916     40912     40911     40914
     40912     40911     40913     40913     40911     40914     40915     40911     40914
     40915     40911     40913     40915     40911     40912     40917     40921     40922
     40918     40917     40920     40918     40917     40919     40919     40917     40920
     40921     40917     40920     40921     40917     40919     40921     40917     40918
     40923     40927     40928     40924     40923     40926     40924     40923     40925
     40925     40923     40926     40927     40923     40926     40927     40923     40925
     40927     40923     40924     40929     40933     40934     40930     40929     40932
     40930     40929     40931     40931     40929     40932     40933     40929     40932
     40933     40929     40931     40933     40929     40930     40935     40939     40940
     40936     40935     40938     40936     40935     40937     40937     40935     40938
     40939     40935     40938     40939     40935     40937     40939     40935     40936
     40941     40945     40946     40942     40941     40944     40942     40941     40943
     40943     40941     40944     40945     40941     40944     40945     40941     40943
     40945     40941     40942     40947     40951     40952     40948     40947     40950
     40948     40947     40949     40949     40947     40950     40951     40947     40950
     40951     40947     40949     40951     40947     40948     40953     40957     40958
     40954     40953     40956     40954     40953     40955     40955     40953     40956
     40957     40953     40956     40957     40953     40955     40957     40953     40954
     40959     40963     40964     40960     40959     40962     40960     40959     40961
     40961     40959     40962     40963     40959     40962     40963     40959     40961
     40963     40959     40960     40965     40969     40970     40966     40965     40968
     40966     40965     40967     40967     40965     40968     40969     40965     40968
     40969     40965     40967     40969     40965     40966     40971     40975     40976
     40972     40971     40974     40972     40971     40973     40973     40971     40974
     40975     40971     40974     40975     40971     40973     40975     40971     40972
     40977     40981     40982     40978     40977     40980     40978     40977     40979
     40979     40977     40980     40981     40977     40980     40981     40977     40979
     40981     40977     40978     40983     40987     40988     40984     40983     40986
     40984     40983     40985     40985     40983     40986     40987     40983     40986
     40987     40983     40985     40987     40983     40984     40989     40993     40994
     40990     40989     40992     40990     40989     40991     40991     40989     40992
     40993     40989     40992     40993     40989     40991     40993     40989     40990
     40995     40999     41000     40996     40995     40998     40996     40995     40997
     40997     40995     40998     40999     40995     40998     40999     40995     40997
     40999     40995     40996     41001     41005     41006     41002     41001     41004
     41002     41001     41003     41003     41001     41004     41005     41001     41004
     41005     41001     41003     41005     41001     41002     41007     41011     41012
     41008     41007     41010     41008     41007     41009     41009     41007     41010
     41011     41007     41010     41011     41007     41009     41011     41007     41008
     41013     41017     41018     41014     41013     41016     41014     41013     41015
     41015     41013     41016     41017     41013     41016     41017     41013     41015
     41017     41013     41014     41019     41023     41024     41020     41019     41022
     41020     41019     41021     41021     41019     41022     41023     41019     41022
     41023     41019     41021     41023     41019     41020     41025     41029     41030
     41026     41025     41028     41026     41025     41027     41027     41025     41028
     41029     41025     41028     41029     41025     41027     41029     41025     41026
     41031     41035     41036     41032     41031     41034     41032     41031     41033
     41033     41031     41034     41035     41031     41034     41035     41031     41033
     41035     41031     41032     41037     41041     41042     41038     41037     41040
     41038     41037     41039     41039     41037     41040     41041     41037     41040
     41041     41037     41039     41041     41037     41038     41043     41047     41048
     41044     41043     41046     41044     41043     41045     41045     41043     41046
     41047     41043     41046     41047     41043     41045     41047     41043     41044
     41049     41053     41054     41050     41049     41052     41050     41049     41051
     41051     41049     41052     41053     41049     41052     41053     41049     41051
     41053     41049     41050     41055     41059     41060     41056     41055     41058
     41056     41055     41057     41057     41055     41058     41059     41055     41058
     41059     41055     41057     41059     41055     41056     41061     41065     41066
     41062     41061     41064     41062     41061     41063     41063     41061     41064
     41065     41061     41064     41065     41061     41063     41065     41061     41062
     41067     41071     41072     41068     41067     41070     41068     41067     41069
     41069     41067     41070     41071     41067     41070     41071     41067     41069
     41071     41067     41068     41073     41077     41078     41074     41073     41076
     41074     41073     41075     41075     41073     41076     41077     41073     41076
     41077     41073     41075     41077     41073     41074     41079     41083     41084
     41080     41079     41082     41080     41079     41081     41081     41079     41082
     41083     41079     41082     41083     41079     41081     41083     41079     41080
     41085     41089     41090     41086     41085     41088     41086     41085     41087
     41087     41085     41088     41089     41085     41088     41089     41085     41087
     41089     41085     41086     41091     41095     41096     41092     41091     41094
     41092     41091     41093     41093     41091     41094     41095     41091     41094
     41095     41091     41093     41095     41091     41092     41097     41101     41102
     41098     41097     41100     41098     41097     41099     41099     41097     41100
     41101     41097     41100     41101     41097     41099     41101     41097     41098
     41103     41107     41108     41104     41103     41106     41104     41103     41105
     41105     41103     41106     41107     41103     41106     41107     41103     41105
     41107     41103     41104     41109     41113     41114     41110     41109     41112
     41110     41109     41111     41111     41109     41112     41113     41109     41112
     41113     41109     41111     41113     41109     41110     41115     41119     41120
     41116     41115     41118     41116     41115     41117     41117     41115     41118
     41119     41115     41118     41119     41115     41117     41119     41115     41116
     41121     41125     41126     41122     41121     41124     41122     41121     41123
     41123     41121     41124     41125     41121     41124     41125     41121     41123
     41125     41121     41122     41127     41131     41132     41128     41127     41130
     41128     41127     41129     41129     41127     41130     41131     41127     41130
     41131     41127     41129     41131     41127     41128     41133     41137     41138
     41134     41133     41136     41134     41133     41135     41135     41133     41136
     41137     41133     41136     41137     41133     41135     41137     41133     41134
     41139     41143     41144     41140     41139     41142     41140     41139     41141
     41141     41139     41142     41143     41139     41142     41143     41139     41141
     41143     41139     41140     41145     41149     41150     41146     41145     41148
     41146     41145     41147     41147     41145     41148     41149     41145     41148
     41149     41145     41147     41149     41145     41146     41151     41155     41156
     41152     41151     41154     41152     41151     41153     41153     41151     41154
     41155     41151     41154     41155     41151     41153     41155     41151     41152
     41157     41161     41162     41158     41157     41160     41158     41157     41159
     41159     41157     41160     41161     41157     41160     41161     41157     41159
     41161     41157     41158     41163     41167     41168     41164     41163     41166
     41164     41163     41165     41165     41163     41166     41167     41163     41166
     41167     41163     41165     41167     41163     41164     41169     41173     41174
     41170     41169     41172     41170     41169     41171     41171     41169     41172
     41173     41169     41172     41173     41169     41171     41173     41169     41170
     41175     41179     41180     41176     41175     41178     41176     41175     41177
     41177     41175     41178     41179     41175     41178     41179     41175     41177
     41179     41175     41176     41181     41185     41186     41182     41181     41184
     41182     41181     41183     41183     41181     41184     41185     41181     41184
     41185     41181     41183     41185     41181     41182     41187     41191     41192
     41188     41187     41190     41188     41187     41189     41189     41187     41190
     41191     41187     41190     41191     41187     41189     41191     41187     41188
     41193     41197     41198     41194     41193     41196     41194     41193     41195
     41195     41193     41196     41197     41193     41196     41197     41193     41195
     41197     41193     41194     41199     41203     41204     41200     41199     41202
     41200     41199     41201     41201     41199     41202     41203     41199     41202
     41203     41199     41201     41203     41199     41200     41205     41209     41210
     41206     41205     41208     41206     41205     41207     41207     41205     41208
     41209     41205     41208     41209     41205     41207     41209     41205     41206
     41211     41215     41216     41212     41211     41214     41212     41211     41213
     41213     41211     41214     41215     41211     41214     41215     41211     41213
     41215     41211     41212     41217     41221     41222     41218     41217     41220
     41218     41217     41219     41219     41217     41220     41221     41217     41220
     41221     41217     41219     41221     41217     41218     41223     41227     41228
     41224     41223     41226     41224     41223     41225     41225     41223     41226
     41227     41223     41226     41227     41223     41225     41227     41223     41224
     41229     41233     41234     41230     41229     41232     41230     41229     41231
     41231     41229     41232     41233     41229     41232     41233     41229     41231
     41233     41229     41230     41235     41239     41240     41236     41235     41238
     41236     41235     41237     41237     41235     41238     41239     41235     41238
     41239     41235     41237     41239     41235     41236     41241     41245     41246
     41242     41241     41244     41242     41241     41243     41243     41241     41244
     41245     41241     41244     41245     41241     41243     41245     41241     41242
     41247     41251     41252     41248     41247     41250     41248     41247     41249
     41249     41247     41250     41251     41247     41250     41251     41247     41249
     41251     41247     41248     41253     41257     41258     41254     41253     41256
     41254     41253     41255     41255     41253     41256     41257     41253     41256
     41257     41253     41255     41257     41253     41254     41259     41263     41264
     41260     41259     41262     41260     41259     41261     41261     41259     41262
     41263     41259     41262     41263     41259     41261     41263     41259     41260
     41265     41269     41270     41266     41265     41268     41266     41265     41267
     41267     41265     41268     41269     41265     41268     41269     41265     41267
     41269     41265     41266     41271     41275     41276     41272     41271     41274
     41272     41271     41273     41273     41271     41274     41275     41271     41274
     41275     41271     41273     41275     41271     41272     41277     41281     41282
     41278     41277     41280     41278     41277     41279     41279     41277     41280
     41281     41277     41280     41281     41277     41279     41281     41277     41278
     41283     41287     41288     41284     41283     41286     41284     41283     41285
     41285     41283     41286     41287     41283     41286     41287     41283     41285
     41287     41283     41284     41289     41293     41294     41290     41289     41292
     41290     41289     41291     41291     41289     41292     41293     41289     41292
     41293     41289     41291     41293     41289     41290     41295     41299     41300
     41296     41295     41298     41296     41295     41297     41297     41295     41298
     41299     41295     41298     41299     41295     41297     41299     41295     41296
     41301     41305     41306     41302     41301     41304     41302     41301     41303
     41303     41301     41304     41305     41301     41304     41305     41301     41303
     41305     41301     41302     41307     41311     41312     41308     41307     41310
     41308     41307     41309     41309     41307     41310     41311     41307     41310
     41311     41307     41309     41311     41307     41308     41313     41317     41318
     41314     41313     41316     41314     41313     41315     41315     41313     41316
     41317     41313     41316     41317     41313     41315     41317     41313     41314
     41319     41323     41324     41320     41319     41322     41320     41319     41321
     41321     41319     41322     41323     41319     41322     41323     41319     41321
     41323     41319     41320     41325     41329     41330     41326     41325     41328
     41326     41325     41327     41327     41325     41328     41329     41325     41328
     41329     41325     41327     41329     41325     41326     41331     41335     41336
     41332     41331     41334     41332     41331     41333     41333     41331     41334
     41335     41331     41334     41335     41331     41333     41335     41331     41332
     41337     41341     41342     41338     41337     41340     41338     41337     41339
     41339     41337     41340     41341     41337     41340     41341     41337     41339
     41341     41337     41338     41343     41347     41348     41344     41343     41346
     41344     41343     41345     41345     41343     41346     41347     41343     41346
     41347     41343     41345     41347     41343     41344     41349     41353     41354
     41350     41349     41352     41350     41349     41351     41351     41349     41352
     41353     41349     41352     41353     41349     41351     41353     41349     41350
     41355     41359     41360     41356     41355     41358     41356     41355     41357
     41357     41355     41358     41359     41355     41358     41359     41355     41357
     41359     41355     41356     41361     41365     41366     41362     41361     41364
     41362     41361     41363     41363     41361     41364     41365     41361     41364
     41365     41361     41363     41365     41361     41362     41367     41371     41372
     41368     41367     41370     41368     41367     41369     41369     41367     41370
     41371     41367     41370     41371     41367     41369     41371     41367     41368
     41373     41377     41378     41374     41373     41376     41374     41373     41375
     41375     41373     41376     41377     41373     41376     41377     41373     41375
     41377     41373     41374     41379     41383     41384     41380     41379     41382
     41380     41379     41381     41381     41379     41382     41383     41379     41382
     41383     41379     41381     41383     41379     41380     41385     41389     41390
     41386     41385     41388     41386     41385     41387     41387     41385     41388
     41389     41385     41388     41389     41385     41387     41389     41385     41386
     41391     41395     41396     41392     41391     41394     41392     41391     41393
     41393     41391     41394     41395     41391     41394     41395     41391     41393
     41395     41391     41392     41397     41401     41402     41398     41397     41400
     41398     41397     41399     41399     41397     41400     41401     41397     41400
     41401     41397     41399     41401     41397     41398     41403     41407     41408
     41404     41403     41406     41404     41403     41405     41405     41403     41406
     41407     41403     41406     41407     41403     41405     41407     41403     41404
     41409     41413     41414     41410     41409     41412     41410     41409     41411
     41411     41409     41412     41413     41409     41412     41413     41409     41411
     41413     41409     41410     41415     41419     41420     41416     41415     41418
     41416     41415     41417     41417     41415     41418     41419     41415     41418
     41419     41415     41417     41419     41415     41416     41421     41425     41426
     41422     41421     41424     41422     41421     41423     41423     41421     41424
     41425     41421     41424     41425     41421     41423     41425     41421     41422
     41427     41431     41432     41428     41427     41430     41428     41427     41429
     41429     41427     41430     41431     41427     41430     41431     41427     41429
     41431     41427     41428     41433     41437     41438     41434     41433     41436
     41434     41433     41435     41435     41433     41436     41437     41433     41436
     41437     41433     41435     41437     41433     41434     41439     41443     41444
     41440     41439     41442     41440     41439     41441     41441     41439     41442
     41443     41439     41442     41443     41439     41441     41443     41439     41440
     41445     41449     41450     41446     41445     41448     41446     41445     41447
     41447     41445     41448     41449     41445     41448     41449     41445     41447
     41449     41445     41446     41451     41455     41456     41452     41451     41454
     41452     41451     41453     41453     41451     41454     41455     41451     41454
     41455     41451     41453     41455     41451     41452     41457     41461     41462
     41458     41457     41460     41458     41457     41459     41459     41457     41460
     41461     41457     41460     41461     41457     41459     41461     41457     41458
     41463     41467     41468     41464     41463     41466     41464     41463     41465
     41465     41463     41466     41467     41463     41466     41467     41463     41465
     41467     41463     41464     41469     41473     41474     41470     41469     41472
     41470     41469     41471     41471     41469     41472     41473     41469     41472
     41473     41469     41471     41473     41469     41470     41475     41479     41480
     41476     41475     41478     41476     41475     41477     41477     41475     41478
     41479     41475     41478     41479     41475     41477     41479     41475     41476
     41481     41485     41486     41482     41481     41484     41482     41481     41483
     41483     41481     41484     41485     41481     41484     41485     41481     41483
     41485     41481     41482     41487     41491     41492     41488     41487     41490
     41488     41487     41489     41489     41487     41490     41491     41487     41490
     41491     41487     41489     41491     41487     41488     41493     41497     41498
     41494     41493     41496     41494     41493     41495     41495     41493     41496
     41497     41493     41496     41497     41493     41495     41497     41493     41494
     41499     41503     41504     41500     41499     41502     41500     41499     41501
     41501     41499     41502     41503     41499     41502     41503     41499     41501
     41503     41499     41500     41505     41509     41510     41506     41505     41508
     41506     41505     41507     41507     41505     41508     41509     41505     41508
     41509     41505     41507     41509     41505     41506     41511     41515     41516
     41512     41511     41514     41512     41511     41513     41513     41511     41514
     41515     41511     41514     41515     41511     41513     41515     41511     41512
     41517     41521     41522     41518     41517     41520     41518     41517     41519
     41519     41517     41520     41521     41517     41520     41521     41517     41519
     41521     41517     41518     41523     41527     41528     41524     41523     41526
     41524     41523     41525     41525     41523     41526     41527     41523     41526
     41527     41523     41525     41527     41523     41524     41529     41533     41534
     41530     41529     41532     41530     41529     41531     41531     41529     41532
     41533     41529     41532     41533     41529     41531     41533     41529     41530
     41535     41539     41540     41536     41535     41538     41536     41535     41537
     41537     41535     41538     41539     41535     41538     41539     41535     41537
     41539     41535     41536     41541     41545     41546     41542     41541     41544
     41542     41541     41543     41543     41541     41544     41545     41541     41544
     41545     41541     41543     41545     41541     41542     41547     41551     41552
     41548     41547     41550     41548     41547     41549     41549     41547     41550
     41551     41547     41550     41551     41547     41549     41551     41547     41548
     41553     41557     41558     41554     41553     41556     41554     41553     41555
     41555     41553     41556     41557     41553     41556     41557     41553     41555
     41557     41553     41554     41559     41563     41564     41560     41559     41562
     41560     41559     41561     41561     41559     41562     41563     41559     41562
     41563     41559     41561     41563     41559     41560     41565     41569     41570
     41566     41565     41568     41566     41565     41567     41567     41565     41568
     41569     41565     41568     41569     41565     41567     41569     41565     41566
     41571     41575     41576     41572     41571     41574     41572     41571     41573
     41573     41571     41574     41575     41571     41574     41575     41571     41573
     41575     41571     41572     41577     41581     41582     41578     41577     41580
     41578     41577     41579     41579     41577     41580     41581     41577     41580
     41581     41577     41579     41581     41577     41578     41583     41587     41588
     41584     41583     41586     41584     41583     41585     41585     41583     41586
     41587     41583     41586     41587     41583     41585     41587     41583     41584
     41589     41593     41594     41590     41589     41592     41590     41589     41591
     41591     41589     41592     41593     41589     41592     41593     41589     41591
     41593     41589     41590     41595     41599     41600     41596     41595     41598
     41596     41595     41597     41597     41595     41598     41599     41595     41598
     41599     41595     41597     41599     41595     41596     41601     41605     41606
     41602     41601     41604     41602     41601     41603     41603     41601     41604
     41605     41601     41604     41605     41601     41603     41605     41601     41602
     41607     41611     41612     41608     41607     41610     41608     41607     41609
     41609     41607     41610     41611     41607     41610     41611     41607     41609
     41611     41607     41608     41613     41617     41618     41614     41613     41616
     41614     41613     41615     41615     41613     41616     41617     41613     41616
     41617     41613     41615     41617     41613     41614     41619     41623     41624
     41620     41619     41622     41620     41619     41621     41621     41619     41622
     41623     41619     41622     41623     41619     41621     41623     41619     41620
     41625     41629     41630     41626     41625     41628     41626     41625     41627
     41627     41625     41628     41629     41625     41628     41629     41625     41627
     41629     41625     41626     41631     41635     41636     41632     41631     41634
     41632     41631     41633     41633     41631     41634     41635     41631     41634
     41635     41631     41633     41635     41631     41632     41637     41641     41642
     41638     41637     41640     41638     41637     41639     41639     41637     41640
     41641     41637     41640     41641     41637     41639     41641     41637     41638
     41643     41647     41648     41644     41643     41646     41644     41643     41645
     41645     41643     41646     41647     41643     41646     41647     41643     41645
     41647     41643     41644     41649     41653     41654     41650     41649     41652
     41650     41649     41651     41651     41649     41652     41653     41649     41652
     41653     41649     41651     41653     41649     41650     41655     41659     41660
     41656     41655     41658     41656     41655     41657     41657     41655     41658
     41659     41655     41658     41659     41655     41657     41659     41655     41656
     41661     41665     41666     41662     41661     41664     41662     41661     41663
     41663     41661     41664     41665     41661     41664     41665     41661     41663
     41665     41661     41662     41667     41671     41672     41668     41667     41670
     41668     41667     41669     41669     41667     41670     41671     41667     41670
     41671     41667     41669     41671     41667     41668     41673     41677     41678
     41674     41673     41676     41674     41673     41675     41675     41673     41676
     41677     41673     41676     41677     41673     41675     41677     41673     41674
     41679     41683     41684     41680     41679     41682     41680     41679     41681
     41681     41679     41682     41683     41679     41682     41683     41679     41681
     41683     41679     41680     41685     41689     41690     41686     41685     41688
     41686     41685     41687     41687     41685     41688     41689     41685     41688
     41689     41685     41687     41689     41685     41686     41691     41695     41696
     41692     41691     41694     41692     41691     41693     41693     41691     41694
     41695     41691     41694     41695     41691     41693     41695     41691     41692
     41697     41701     41702     41698     41697     41700     41698     41697     41699
     41699     41697     41700     41701     41697     41700     41701     41697     41699
     41701     41697     41698     41703     41707     41708     41704     41703     41706
     41704     41703     41705     41705     41703     41706     41707     41703     41706
     41707     41703     41705     41707     41703     41704     41709     41713     41714
     41710     41709     41712     41710     41709     41711     41711     41709     41712
     41713     41709     41712     41713     41709     41711     41713     41709     41710
     41715     41719     41720     41716     41715     41718     41716     41715     41717
     41717     41715     41718     41719     41715     41718     41719     41715     41717
     41719     41715     41716     41721     41725     41726     41722     41721     41724
     41722     41721     41723     41723     41721     41724     41725     41721     41724
     41725     41721     41723     41725     41721     41722     41727     41731     41732
     41728     41727     41730     41728     41727     41729     41729     41727     41730
     41731     41727     41730     41731     41727     41729     41731     41727     41728
     41733     41737     41738     41734     41733     41736     41734     41733     41735
     41735     41733     41736     41737     41733     41736     41737     41733     41735
     41737     41733     41734     41739     41743     41744     41740     41739     41742
     41740     41739     41741     41741     41739     41742     41743     41739     41742
     41743     41739     41741     41743     41739     41740     41745     41749     41750
     41746     41745     41748     41746     41745     41747     41747     41745     41748
     41749     41745     41748     41749     41745     41747     41749     41745     41746
     41751     41755     41756     41752     41751     41754     41752     41751     41753
     41753     41751     41754     41755     41751     41754     41755     41751     41753
     41755     41751     41752     41757     41761     41762     41758     41757     41760
     41758     41757     41759     41759     41757     41760     41761     41757     41760
     41761     41757     41759     41761     41757     41758     41763     41767     41768
     41764     41763     41766     41764     41763     41765     41765     41763     41766
     41767     41763     41766     41767     41763     41765     41767     41763     41764
     41769     41773     41774     41770     41769     41772     41770     41769     41771
     41771     41769     41772     41773     41769     41772     41773     41769     41771
     41773     41769     41770     41775     41779     41780     41776     41775     41778
     41776     41775     41777     41777     41775     41778     41779     41775     41778
     41779     41775     41777     41779     41775     41776     41781     41785     41786
     41782     41781     41784     41782     41781     41783     41783     41781     41784
     41785     41781     41784     41785     41781     41783     41785     41781     41782
     41787     41791     41792     41788     41787     41790     41788     41787     41789
     41789     41787     41790     41791     41787     41790     41791     41787     41789
     41791     41787     41788     41793     41797     41798     41794     41793     41796
     41794     41793     41795     41795     41793     41796     41797     41793     41796
     41797     41793     41795     41797     41793     41794     41799     41803     41804
     41800     41799     41802     41800     41799     41801     41801     41799     41802
     41803     41799     41802     41803     41799     41801     41803     41799     41800
     41805     41809     41810     41806     41805     41808     41806     41805     41807
     41807     41805     41808     41809     41805     41808     41809     41805     41807
     41809     41805     41806     41811     41815     41816     41812     41811     41814
     41812     41811     41813     41813     41811     41814     41815     41811     41814
     41815     41811     41813     41815     41811     41812     41817     41821     41822
     41818     41817     41820     41818     41817     41819     41819     41817     41820
     41821     41817     41820     41821     41817     41819     41821     41817     41818
     41823     41827     41828     41824     41823     41826     41824     41823     41825
     41825     41823     41826     41827     41823     41826     41827     41823     41825
     41827     41823     41824     41829     41833     41834     41830     41829     41832
     41830     41829     41831     41831     41829     41832     41833     41829     41832
     41833     41829     41831     41833     41829     41830     41835     41839     41840
     41836     41835     41838     41836     41835     41837     41837     41835     41838
     41839     41835     41838     41839     41835     41837     41839     41835     41836
     41841     41845     41846     41842     41841     41844     41842     41841     41843
     41843     41841     41844     41845     41841     41844     41845     41841     41843
     41845     41841     41842     41847     41851     41852     41848     41847     41850
     41848     41847     41849     41849     41847     41850     41851     41847     41850
     41851     41847     41849     41851     41847     41848     41853     41857     41858
     41854     41853     41856     41854     41853     41855     41855     41853     41856
     41857     41853     41856     41857     41853     41855     41857     41853     41854
     41859     41863     41864     41860     41859     41862     41860     41859     41861
     41861     41859     41862     41863     41859     41862     41863     41859     41861
     41863     41859     41860     41865     41869     41870     41866     41865     41868
     41866     41865     41867     41867     41865     41868     41869     41865     41868
     41869     41865     41867     41869     41865     41866     41871     41875     41876
     41872     41871     41874     41872     41871     41873     41873     41871     41874
     41875     41871     41874     41875     41871     41873     41875     41871     41872
     41877     41881     41882     41878     41877     41880     41878     41877     41879
     41879     41877     41880     41881     41877     41880     41881     41877     41879
     41881     41877     41878     41883     41887     41888     41884     41883     41886
     41884     41883     41885     41885     41883     41886     41887     41883     41886
     41887     41883     41885     41887     41883     41884     41889     41893     41894
     41890     41889     41892     41890     41889     41891     41891     41889     41892
     41893     41889     41892     41893     41889     41891     41893     41889     41890
     41895     41899     41900     41896     41895     41898     41896     41895     41897
     41897     41895     41898     41899     41895     41898     41899     41895     41897
     41899     41895     41896     41901     41905     41906     41902     41901     41904
     41902     41901     41903     41903     41901     41904     41905     41901     41904
     41905     41901     41903     41905     41901     41902     41907     41911     41912
     41908     41907     41910     41908     41907     41909     41909     41907     41910
     41911     41907     41910     41911     41907     41909     41911     41907     41908
     41913     41917     41918     41914     41913     41916     41914     41913     41915
     41915     41913     41916     41917     41913     41916     41917     41913     41915
     41917     41913     41914     41919     41923     41924     41920     41919     41922
     41920     41919     41921     41921     41919     41922     41923     41919     41922
     41923     41919     41921     41923     41919     41920     41925     41929     41930
     41926     41925     41928     41926     41925     41927     41927     41925     41928
     41929     41925     41928     41929     41925     41927     41929     41925     41926
     41931     41935     41936     41932     41931     41934     41932     41931     41933
     41933     41931     41934     41935     41931     41934     41935     41931     41933
     41935     41931     41932     41937     41941     41942     41938     41937     41940
     41938     41937     41939     41939     41937     41940     41941     41937     41940
     41941     41937     41939     41941     41937     41938     41943     41947     41948
     41944     41943     41946     41944     41943     41945     41945     41943     41946
     41947     41943     41946     41947     41943     41945     41947     41943     41944
     41949     41953     41954     41950     41949     41952     41950     41949     41951
     41951     41949     41952     41953     41949     41952     41953     41949     41951
     41953     41949     41950     41955     41959     41960     41956     41955     41958
     41956     41955     41957     41957     41955     41958     41959     41955     41958
     41959     41955     41957     41959     41955     41956     41961     41965     41966
     41962     41961     41964     41962     41961     41963     41963     41961     41964
     41965     41961     41964     41965     41961     41963     41965     41961     41962
     41967     41971     41972     41968     41967     41970     41968     41967     41969
     41969     41967     41970     41971     41967     41970     41971     41967     41969
     41971     41967     41968     41973     41977     41978     41974     41973     41976
     41974     41973     41975     41975     41973     41976     41977     41973     41976
     41977     41973     41975     41977     41973     41974     41979     41983     41984
     41980     41979     41982     41980     41979     41981     41981     41979     41982
     41983     41979     41982     41983     41979     41981     41983     41979     41980
     41985     41989     41990     41986     41985     41988     41986     41985     41987
     41987     41985     41988     41989     41985     41988     41989     41985     41987
     41989     41985     41986     41991     41995     41996     41992     41991     41994
     41992     41991     41993     41993     41991     41994     41995     41991     41994
     41995     41991     41993     41995     41991     41992     41997     42001     42002
     41998     41997     42000     41998     41997     41999     41999     41997     42000
     42001     41997     42000     42001     41997     41999     42001     41997     41998
     42003     42007     42008     42004     42003     42006     42004     42003     42005
     42005     42003     42006     42007     42003     42006     42007     42003     42005
     42007     42003     42004     42009     42013     42014     42010     42009     42012
     42010     42009     42011     42011     42009     42012     42013     42009     42012
     42013     42009     42011     42013     42009     42010     42015     42019     42020
     42016     42015     42018     42016     42015     42017     42017     42015     42018
     42019     42015     42018     42019     42015     42017     42019     42015     42016
     42021     42025     42026     42022     42021     42024     42022     42021     42023
     42023     42021     42024     42025     42021     42024     42025     42021     42023
     42025     42021     42022     42027     42031     42032     42028     42027     42030
     42028     42027     42029     42029     42027     42030     42031     42027     42030
     42031     42027     42029     42031     42027     42028     42033     42037     42038
     42034     42033     42036     42034     42033     42035     42035     42033     42036
     42037     42033     42036     42037     42033     42035     42037     42033     42034
     42039     42043     42044     42040     42039     42042     42040     42039     42041
     42041     42039     42042     42043     42039     42042     42043     42039     42041
     42043     42039     42040     42045     42049     42050     42046     42045     42048
     42046     42045     42047     42047     42045     42048     42049     42045     42048
     42049     42045     42047     42049     42045     42046     42051     42055     42056
     42052     42051     42054     42052     42051     42053     42053     42051     42054
     42055     42051     42054     42055     42051     42053     42055     42051     42052
     42057     42061     42062     42058     42057     42060     42058     42057     42059
     42059     42057     42060     42061     42057     42060     42061     42057     42059
     42061     42057     42058     42063     42067     42068     42064     42063     42066
     42064     42063     42065     42065     42063     42066     42067     42063     42066
     42067     42063     42065     42067     42063     42064     42069     42073     42074
     42070     42069     42072     42070     42069     42071     42071     42069     42072
     42073     42069     42072     42073     42069     42071     42073     42069     42070
     42075     42079     42080     42076     42075     42078     42076     42075     42077
     42077     42075     42078     42079     42075     42078     42079     42075     42077
     42079     42075     42076     42081     42085     42086     42082     42081     42084
     42082     42081     42083     42083     42081     42084     42085     42081     42084
     42085     42081     42083     42085     42081     42082     42087     42091     42092
     42088     42087     42090     42088     42087     42089     42089     42087     42090
     42091     42087     42090     42091     42087     42089     42091     42087     42088
     42093     42097     42098     42094     42093     42096     42094     42093     42095
     42095     42093     42096     42097     42093     42096     42097     42093     42095
     42097     42093     42094     42099     42103     42104     42100     42099     42102
     42100     42099     42101     42101     42099     42102     42103     42099     42102
     42103     42099     42101     42103     42099     42100     42105     42109     42110
     42106     42105     42108     42106     42105     42107     42107     42105     42108
     42109     42105     42108     42109     42105     42107     42109     42105     42106
     42111     42115     42116     42112     42111     42114     42112     42111     42113
     42113     42111     42114     42115     42111     42114     42115     42111     42113
     42115     42111     42112     42117     42121     42122     42118     42117     42120
     42118     42117     42119     42119     42117     42120     42121     42117     42120
     42121     42117     42119     42121     42117     42118     42123     42127     42128
     42124     42123     42126     42124     42123     42125     42125     42123     42126
     42127     42123     42126     42127     42123     42125     42127     42123     42124
     42129     42133     42134     42130     42129     42132     42130     42129     42131
     42131     42129     42132     42133     42129     42132     42133     42129     42131
     42133     42129     42130     42135     42139     42140     42136     42135     42138
     42136     42135     42137     42137     42135     42138     42139     42135     42138
     42139     42135     42137     42139     42135     42136     42141     42145     42146
     42142     42141     42144     42142     42141     42143     42143     42141     42144
     42145     42141     42144     42145     42141     42143     42145     42141     42142
     42147     42151     42152     42148     42147     42150     42148     42147     42149
     42149     42147     42150     42151     42147     42150     42151     42147     42149
     42151     42147     42148     42153     42157     42158     42154     42153     42156
     42154     42153     42155     42155     42153     42156     42157     42153     42156
     42157     42153     42155     42157     42153     42154     42159     42163     42164
     42160     42159     42162     42160     42159     42161     42161     42159     42162
     42163     42159     42162     42163     42159     42161     42163     42159     42160
     42165     42169     42170     42166     42165     42168     42166     42165     42167
     42167     42165     42168     42169     42165     42168     42169     42165     42167
     42169     42165     42166     42171     42175     42176     42172     42171     42174
     42172     42171     42173     42173     42171     42174     42175     42171     42174
     42175     42171     42173     42175     42171     42172     42177     42181     42182
     42178     42177     42180     42178     42177     42179     42179     42177     42180
     42181     42177     42180     42181     42177     42179     42181     42177     42178
     42183     42187     42188     42184     42183     42186     42184     42183     42185
     42185     42183     42186     42187     42183     42186     42187     42183     42185
     42187     42183     42184     42189     42193     42194     42190     42189     42192
     42190     42189     42191     42191     42189     42192     42193     42189     42192
     42193     42189     42191     42193     42189     42190     42195     42199     42200
     42196     42195     42198     42196     42195     42197     42197     42195     42198
     42199     42195     42198     42199     42195     42197     42199     42195     42196
     42201     42205     42206     42202     42201     42204     42202     42201     42203
     42203     42201     42204     42205     42201     42204     42205     42201     42203
     42205     42201     42202     42207     42211     42212     42208     42207     42210
     42208     42207     42209     42209     42207     42210     42211     42207     42210
     42211     42207     42209     42211     42207     42208     42213     42217     42218
     42214     42213     42216     42214     42213     42215     42215     42213     42216
     42217     42213     42216     42217     42213     42215     42217     42213     42214
     42219     42223     42224     42220     42219     42222     42220     42219     42221
     42221     42219     42222     42223     42219     42222     42223     42219     42221
     42223     42219     42220     42225     42229     42230     42226     42225     42228
     42226     42225     42227     42227     42225     42228     42229     42225     42228
     42229     42225     42227     42229     42225     42226     42231     42235     42236
     42232     42231     42234     42232     42231     42233     42233     42231     42234
     42235     42231     42234     42235     42231     42233     42235     42231     42232
     42237     42241     42242     42238     42237     42240     42238     42237     42239
     42239     42237     42240     42241     42237     42240     42241     42237     42239
     42241     42237     42238     42243     42247     42248     42244     42243     42246
     42244     42243     42245     42245     42243     42246     42247     42243     42246
     42247     42243     42245     42247     42243     42244     42249     42253     42254
     42250     42249     42252     42250     42249     42251     42251     42249     42252
     42253     42249     42252     42253     42249     42251     42253     42249     42250
     42255     42259     42260     42256     42255     42258     42256     42255     42257
     42257     42255     42258     42259     42255     42258     42259     42255     42257
     42259     42255     42256     42261     42265     42266     42262     42261     42264
     42262     42261     42263     42263     42261     42264     42265     42261     42264
     42265     42261     42263     42265     42261     42262     42267     42271     42272
     42268     42267     42270     42268     42267     42269     42269     42267     42270
     42271     42267     42270     42271     42267     42269     42271     42267     42268
     42273     42277     42278     42274     42273     42276     42274     42273     42275
     42275     42273     42276     42277     42273     42276     42277     42273     42275
     42277     42273     42274     42279     42283     42284     42280     42279     42282
     42280     42279     42281     42281     42279     42282     42283     42279     42282
     42283     42279     42281     42283     42279     42280     42285     42289     42290
     42286     42285     42288     42286     42285     42287     42287     42285     42288
     42289     42285     42288     42289     42285     42287     42289     42285     42286
     42291     42295     42296     42292     42291     42294     42292     42291     42293
     42293     42291     42294     42295     42291     42294     42295     42291     42293
     42295     42291     42292     42297     42301     42302     42298     42297     42300
     42298     42297     42299     42299     42297     42300     42301     42297     42300
     42301     42297     42299     42301     42297     42298     42303     42307     42308
     42304     42303     42306     42304     42303     42305     42305     42303     42306
     42307     42303     42306     42307     42303     42305     42307     42303     42304
     42309     42313     42314     42310     42309     42312     42310     42309     42311
     42311     42309     42312     42313     42309     42312     42313     42309     42311
     42313     42309     42310     42315     42319     42320     42316     42315     42318
     42316     42315     42317     42317     42315     42318     42319     42315     42318
     42319     42315     42317     42319     42315     42316     42321     42325     42326
     42322     42321     42324     42322     42321     42323     42323     42321     42324
     42325     42321     42324     42325     42321     42323     42325     42321     42322
     42327     42331     42332     42328     42327     42330     42328     42327     42329
     42329     42327     42330     42331     42327     42330     42331     42327     42329
     42331     42327     42328     42333     42337     42338     42334     42333     42336
     42334     42333     42335     42335     42333     42336     42337     42333     42336
     42337     42333     42335     42337     42333     42334     42339     42343     42344
     42340     42339     42342     42340     42339     42341     42341     42339     42342
     42343     42339     42342     42343     42339     42341     42343     42339     42340
     42345     42349     42350     42346     42345     42348     42346     42345     42347
     42347     42345     42348     42349     42345     42348     42349     42345     42347
     42349     42345     42346     42351     42355     42356     42352     42351     42354
     42352     42351     42353     42353     42351     42354     42355     42351     42354
     42355     42351     42353     42355     42351     42352     42357     42361     42362
     42358     42357     42360     42358     42357     42359     42359     42357     42360
     42361     42357     42360     42361     42357     42359     42361     42357     42358
     42363     42367     42368     42364     42363     42366     42364     42363     42365
     42365     42363     42366     42367     42363     42366     42367     42363     42365
     42367     42363     42364     42369     42373     42374     42370     42369     42372
     42370     42369     42371     42371     42369     42372     42373     42369     42372
     42373     42369     42371     42373     42369     42370     42375     42379     42380
     42376     42375     42378     42376     42375     42377     42377     42375     42378
     42379     42375     42378     42379     42375     42377     42379     42375     42376
     42381     42385     42386     42382     42381     42384     42382     42381     42383
     42383     42381     42384     42385     42381     42384     42385     42381     42383
     42385     42381     42382     42387     42391     42392     42388     42387     42390
     42388     42387     42389     42389     42387     42390     42391     42387     42390
     42391     42387     42389     42391     42387     42388     42393     42397     42398
     42394     42393     42396     42394     42393     42395     42395     42393     42396
     42397     42393     42396     42397     42393     42395     42397     42393     42394
     42399     42403     42404     42400     42399     42402     42400     42399     42401
     42401     42399     42402     42403     42399     42402     42403     42399     42401
     42403     42399     42400     42405     42409     42410     42406     42405     42408
     42406     42405     42407     42407     42405     42408     42409     42405     42408
     42409     42405     42407     42409     42405     42406     42411     42415     42416
     42412     42411     42414     42412     42411     42413     42413     42411     42414
     42415     42411     42414     42415     42411     42413     42415     42411     42412
     42417     42421     42422     42418     42417     42420     42418     42417     42419
     42419     42417     42420     42421     42417     42420     42421     42417     42419
     42421     42417     42418     42423     42427     42428     42424     42423     42426
     42424     42423     42425     42425     42423     42426     42427     42423     42426
     42427     42423     42425     42427     42423     42424     42429     42433     42434
     42430     42429     42432     42430     42429     42431     42431     42429     42432
     42433     42429     42432     42433     42429     42431     42433     42429     42430
     42435     42439     42440     42436     42435     42438     42436     42435     42437
     42437     42435     42438     42439     42435     42438     42439     42435     42437
     42439     42435     42436     42441     42445     42446     42442     42441     42444
     42442     42441     42443     42443     42441     42444     42445     42441     42444
     42445     42441     42443     42445     42441     42442     42447     42451     42452
     42448     42447     42450     42448     42447     42449     42449     42447     42450
     42451     42447     42450     42451     42447     42449     42451     42447     42448
     42453     42457     42458     42454     42453     42456     42454     42453     42455
     42455     42453     42456     42457     42453     42456     42457     42453     42455
     42457     42453     42454     42459     42463     42464     42460     42459     42462
     42460     42459     42461     42461     42459     42462     42463     42459     42462
     42463     42459     42461     42463     42459     42460     42465     42469     42470
     42466     42465     42468     42466     42465     42467     42467     42465     42468
     42469     42465     42468     42469     42465     42467     42469     42465     42466
     42471     42475     42476     42472     42471     42474     42472     42471     42473
     42473     42471     42474     42475     42471     42474     42475     42471     42473
     42475     42471     42472     42477     42481     42482     42478     42477     42480
     42478     42477     42479     42479     42477     42480     42481     42477     42480
     42481     42477     42479     42481     42477     42478     42483     42487     42488
     42484     42483     42486     42484     42483     42485     42485     42483     42486
     42487     42483     42486     42487     42483     42485     42487     42483     42484
     42489     42493     42494     42490     42489     42492     42490     42489     42491
     42491     42489     42492     42493     42489     42492     42493     42489     42491
     42493     42489     42490     42495     42499     42500     42496     42495     42498
     42496     42495     42497     42497     42495     42498     42499     42495     42498
     42499     42495     42497     42499     42495     42496     42501     42505     42506
     42502     42501     42504     42502     42501     42503     42503     42501     42504
     42505     42501     42504     42505     42501     42503     42505     42501     42502
     42507     42511     42512     42508     42507     42510     42508     42507     42509
     42509     42507     42510     42511     42507     42510     42511     42507     42509
     42511     42507     42508     42513     42517     42518     42514     42513     42516
     42514     42513     42515     42515     42513     42516     42517     42513     42516
     42517     42513     42515     42517     42513     42514     42519     42523     42524
     42520     42519     42522     42520     42519     42521     42521     42519     42522
     42523     42519     42522     42523     42519     42521     42523     42519     42520
     42525     42529     42530     42526     42525     42528     42526     42525     42527
     42527     42525     42528     42529     42525     42528     42529     42525     42527
     42529     42525     42526     42531     42535     42536     42532     42531     42534
     42532     42531     42533     42533     42531     42534     42535     42531     42534
     42535     42531     42533     42535     42531     42532     42537     42541     42542
     42538     42537     42540     42538     42537     42539     42539     42537     42540
     42541     42537     42540     42541     42537     42539     42541     42537     42538
     42543     42547     42548     42544     42543     42546     42544     42543     42545
     42545     42543     42546     42547     42543     42546     42547     42543     42545
     42547     42543     42544     42549     42553     42554     42550     42549     42552
     42550     42549     42551     42551     42549     42552     42553     42549     42552
     42553     42549     42551     42553     42549     42550     42555     42559     42560
     42556     42555     42558     42556     42555     42557     42557     42555     42558
     42559     42555     42558     42559     42555     42557     42559     42555     42556
     42561     42565     42566     42562     42561     42564     42562     42561     42563
     42563     42561     42564     42565     42561     42564     42565     42561     42563
     42565     42561     42562     42567     42571     42572     42568     42567     42570
     42568     42567     42569     42569     42567     42570     42571     42567     42570
     42571     42567     42569     42571     42567     42568     42573     42577     42578
     42574     42573     42576     42574     42573     42575     42575     42573     42576
     42577     42573     42576     42577     42573     42575     42577     42573     42574
     42579     42583     42584     42580     42579     42582     42580     42579     42581
     42581     42579     42582     42583     42579     42582     42583     42579     42581
     42583     42579     42580     42585     42589     42590     42586     42585     42588
     42586     42585     42587     42587     42585     42588     42589     42585     42588
     42589     42585     42587     42589     42585     42586     42591     42595     42596
     42592     42591     42594     42592     42591     42593     42593     42591     42594
     42595     42591     42594     42595     42591     42593     42595     42591     42592
     42597     42601     42602     42598     42597     42600     42598     42597     42599
     42599     42597     42600     42601     42597     42600     42601     42597     42599
     42601     42597     42598     42603     42607     42608     42604     42603     42606
     42604     42603     42605     42605     42603     42606     42607     42603     42606
     42607     42603     42605     42607     42603     42604     42609     42613     42614
     42610     42609     42612     42610     42609     42611     42611     42609     42612
     42613     42609     42612     42613     42609     42611     42613     42609     42610
     42615     42619     42620     42616     42615     42618     42616     42615     42617
     42617     42615     42618     42619     42615     42618     42619     42615     42617
     42619     42615     42616     42621     42625     42626     42622     42621     42624
     42622     42621     42623     42623     42621     42624     42625     42621     42624
     42625     42621     42623     42625     42621     42622     42627     42631     42632
     42628     42627     42630     42628     42627     42629     42629     42627     42630
     42631     42627     42630     42631     42627     42629     42631     42627     42628
     42633     42637     42638     42634     42633     42636     42634     42633     42635
     42635     42633     42636     42637     42633     42636     42637     42633     42635
     42637     42633     42634     42639     42643     42644     42640     42639     42642
     42640     42639     42641     42641     42639     42642     42643     42639     42642
     42643     42639     42641     42643     42639     42640     42645     42649     42650
     42646     42645     42648     42646     42645     42647     42647     42645     42648
     42649     42645     42648     42649     42645     42647     42649     42645     42646
     42651     42655     42656     42652     42651     42654     42652     42651     42653
     42653     42651     42654     42655     42651     42654     42655     42651     42653
     42655     42651     42652     42657     42661     42662     42658     42657     42660
     42658     42657     42659     42659     42657     42660     42661     42657     42660
     42661     42657     42659     42661     42657     42658     42663     42667     42668
     42664     42663     42666     42664     42663     42665     42665     42663     42666
     42667     42663     42666     42667     42663     42665     42667     42663     42664
     42669     42673     42674     42670     42669     42672     42670     42669     42671
     42671     42669     42672     42673     42669     42672     42673     42669     42671
     42673     42669     42670     42675     42679     42680     42676     42675     42678
     42676     42675     42677     42677     42675     42678     42679     42675     42678
     42679     42675     42677     42679     42675     42676     42681     42685     42686
     42682     42681     42684     42682     42681     42683     42683     42681     42684
     42685     42681     42684     42685     42681     42683     42685     42681     42682
     42687     42691     42692     42688     42687     42690     42688     42687     42689
     42689     42687     42690     42691     42687     42690     42691     42687     42689
     42691     42687     42688     42693     42697     42698     42694     42693     42696
     42694     42693     42695     42695     42693     42696     42697     42693     42696
     42697     42693     42695     42697     42693     42694     42699     42703     42704
     42700     42699     42702     42700     42699     42701     42701     42699     42702
     42703     42699     42702     42703     42699     42701     42703     42699     42700
     42705     42709     42710     42706     42705     42708     42706     42705     42707
     42707     42705     42708     42709     42705     42708     42709     42705     42707
     42709     42705     42706     42711     42715     42716     42712     42711     42714
     42712     42711     42713     42713     42711     42714     42715     42711     42714
     42715     42711     42713     42715     42711     42712     42717     42721     42722
     42718     42717     42720     42718     42717     42719     42719     42717     42720
     42721     42717     42720     42721     42717     42719     42721     42717     42718
     42723     42727     42728     42724     42723     42726     42724     42723     42725
     42725     42723     42726     42727     42723     42726     42727     42723     42725
     42727     42723     42724     42729     42733     42734     42730     42729     42732
     42730     42729     42731     42731     42729     42732     42733     42729     42732
     42733     42729     42731     42733     42729     42730     42735     42739     42740
     42736     42735     42738     42736     42735     42737     42737     42735     42738
     42739     42735     42738     42739     42735     42737     42739     42735     42736
     42741     42745     42746     42742     42741     42744     42742     42741     42743
     42743     42741     42744     42745     42741     42744     42745     42741     42743
     42745     42741     42742     42747     42751     42752     42748     42747     42750
     42748     42747     42749     42749     42747     42750     42751     42747     42750
     42751     42747     42749     42751     42747     42748     42753     42757     42758
     42754     42753     42756     42754     42753     42755     42755     42753     42756
     42757     42753     42756     42757     42753     42755     42757     42753     42754
     42759     42763     42764     42760     42759     42762     42760     42759     42761
     42761     42759     42762     42763     42759     42762     42763     42759     42761
     42763     42759     42760     42765     42769     42770     42766     42765     42768
     42766     42765     42767     42767     42765     42768     42769     42765     42768
     42769     42765     42767     42769     42765     42766     42771     42775     42776
     42772     42771     42774     42772     42771     42773     42773     42771     42774
     42775     42771     42774     42775     42771     42773     42775     42771     42772
     42777     42781     42782     42778     42777     42780     42778     42777     42779
     42779     42777     42780     42781     42777     42780     42781     42777     42779
     42781     42777     42778     42783     42787     42788     42784     42783     42786
     42784     42783     42785     42785     42783     42786     42787     42783     42786
     42787     42783     42785     42787     42783     42784     42789     42793     42794
     42790     42789     42792     42790     42789     42791     42791     42789     42792
     42793     42789     42792     42793     42789     42791     42793     42789     42790
     42795     42799     42800     42796     42795     42798     42796     42795     42797
     42797     42795     42798     42799     42795     42798     42799     42795     42797
     42799     42795     42796     42801     42805     42806     42802     42801     42804
     42802     42801     42803     42803     42801     42804     42805     42801     42804
     42805     42801     42803     42805     42801     42802     42807     42811     42812
     42808     42807     42810     42808     42807     42809     42809     42807     42810
     42811     42807     42810     42811     42807     42809     42811     42807     42808
     42813     42817     42818     42814     42813     42816     42814     42813     42815
     42815     42813     42816     42817     42813     42816     42817     42813     42815
     42817     42813     42814     42819     42823     42824     42820     42819     42822
     42820     42819     42821     42821     42819     42822     42823     42819     42822
     42823     42819     42821     42823     42819     42820     42825     42829     42830
     42826     42825     42828     42826     42825     42827     42827     42825     42828
     42829     42825     42828     42829     42825     42827     42829     42825     42826
     42831     42835     42836     42832     42831     42834     42832     42831     42833
     42833     42831     42834     42835     42831     42834     42835     42831     42833
     42835     42831     42832     42837     42841     42842     42838     42837     42840
     42838     42837     42839     42839     42837     42840     42841     42837     42840
     42841     42837     42839     42841     42837     42838     42843     42847     42848
     42844     42843     42846     42844     42843     42845     42845     42843     42846
     42847     42843     42846     42847     42843     42845     42847     42843     42844
     42849     42853     42854     42850     42849     42852     42850     42849     42851
     42851     42849     42852     42853     42849     42852     42853     42849     42851
     42853     42849     42850     42855     42859     42860     42856     42855     42858
     42856     42855     42857     42857     42855     42858     42859     42855     42858
     42859     42855     42857     42859     42855     42856     42861     42865     42866
     42862     42861     42864     42862     42861     42863     42863     42861     42864
     42865     42861     42864     42865     42861     42863     42865     42861     42862
     42867     42871     42872     42868     42867     42870     42868     42867     42869
     42869     42867     42870     42871     42867     42870     42871     42867     42869
     42871     42867     42868     42873     42877     42878     42874     42873     42876
     42874     42873     42875     42875     42873     42876     42877     42873     42876
     42877     42873     42875     42877     42873     42874     42879     42883     42884
     42880     42879     42882     42880     42879     42881     42881     42879     42882
     42883     42879     42882     42883     42879     42881     42883     42879     42880
     42885     42889     42890     42886     42885     42888     42886     42885     42887
     42887     42885     42888     42889     42885     42888     42889     42885     42887
     42889     42885     42886     42891     42895     42896     42892     42891     42894
     42892     42891     42893     42893     42891     42894     42895     42891     42894
     42895     42891     42893     42895     42891     42892     42897     42901     42902
     42898     42897     42900     42898     42897     42899     42899     42897     42900
     42901     42897     42900     42901     42897     42899     42901     42897     42898
     42903     42907     42908     42904     42903     42906     42904     42903     42905
     42905     42903     42906     42907     42903     42906     42907     42903     42905
     42907     42903     42904     42909     42913     42914     42910     42909     42912
     42910     42909     42911     42911     42909     42912     42913     42909     42912
     42913     42909     42911     42913     42909     42910     42915     42919     42920
     42916     42915     42918     42916     42915     42917     42917     42915     42918
     42919     42915     42918     42919     42915     42917     42919     42915     42916
     42921     42925     42926     42922     42921     42924     42922     42921     42923
     42923     42921     42924     42925     42921     42924     42925     42921     42923
     42925     42921     42922     42927     42931     42932     42928     42927     42930
     42928     42927     42929     42929     42927     42930     42931     42927     42930
     42931     42927     42929     42931     42927     42928     42933     42937     42938
     42934     42933     42936     42934     42933     42935     42935     42933     42936
     42937     42933     42936     42937     42933     42935     42937     42933     42934
     42939     42943     42944     42940     42939     42942     42940     42939     42941
     42941     42939     42942     42943     42939     42942     42943     42939     42941
     42943     42939     42940     42945     42949     42950     42946     42945     42948
     42946     42945     42947     42947     42945     42948     42949     42945     42948
     42949     42945     42947     42949     42945     42946     42951     42955     42956
     42952     42951     42954     42952     42951     42953     42953     42951     42954
     42955     42951     42954     42955     42951     42953     42955     42951     42952
     42957     42961     42962     42958     42957     42960     42958     42957     42959
     42959     42957     42960     42961     42957     42960     42961     42957     42959
     42961     42957     42958     42963     42967     42968     42964     42963     42966
     42964     42963     42965     42965     42963     42966     42967     42963     42966
     42967     42963     42965     42967     42963     42964     42969     42973     42974
     42970     42969     42972     42970     42969     42971     42971     42969     42972
     42973     42969     42972     42973     42969     42971     42973     42969     42970
     42975     42979     42980     42976     42975     42978     42976     42975     42977
     42977     42975     42978     42979     42975     42978     42979     42975     42977
     42979     42975     42976     42981     42985     42986     42982     42981     42984
     42982     42981     42983     42983     42981     42984     42985     42981     42984
     42985     42981     42983     42985     42981     42982     42987     42991     42992
     42988     42987     42990     42988     42987     42989     42989     42987     42990
     42991     42987     42990     42991     42987     42989     42991     42987     42988
     42993     42997     42998     42994     42993     42996     42994     42993     42995
     42995     42993     42996     42997     42993     42996     42997     42993     42995
     42997     42993     42994     42999     43003     43004     43000     42999     43002
     43000     42999     43001     43001     42999     43002     43003     42999     43002
     43003     42999     43001     43003     42999     43000     43005     43009     43010
     43006     43005     43008     43006     43005     43007     43007     43005     43008
     43009     43005     43008     43009     43005     43007     43009     43005     43006
     43011     43015     43016     43012     43011     43014     43012     43011     43013
     43013     43011     43014     43015     43011     43014     43015     43011     43013
     43015     43011     43012     43017     43021     43022     43018     43017     43020
     43018     43017     43019     43019     43017     43020     43021     43017     43020
     43021     43017     43019     43021     43017     43018     43023     43027     43028
     43024     43023     43026     43024     43023     43025     43025     43023     43026
     43027     43023     43026     43027     43023     43025     43027     43023     43024
     43029     43033     43034     43030     43029     43032     43030     43029     43031
     43031     43029     43032     43033     43029     43032     43033     43029     43031
     43033     43029     43030     43035     43039     43040     43036     43035     43038
     43036     43035     43037     43037     43035     43038     43039     43035     43038
     43039     43035     43037     43039     43035     43036     43041     43045     43046
     43042     43041     43044     43042     43041     43043     43043     43041     43044
     43045     43041     43044     43045     43041     43043     43045     43041     43042
     43047     43051     43052     43048     43047     43050     43048     43047     43049
     43049     43047     43050     43051     43047     43050     43051     43047     43049
     43051     43047     43048     43053     43057     43058     43054     43053     43056
     43054     43053     43055     43055     43053     43056     43057     43053     43056
     43057     43053     43055     43057     43053     43054     43059     43063     43064
     43060     43059     43062     43060     43059     43061     43061     43059     43062
     43063     43059     43062     43063     43059     43061     43063     43059     43060
     43065     43069     43070     43066     43065     43068     43066     43065     43067
     43067     43065     43068     43069     43065     43068     43069     43065     43067
     43069     43065     43066     43071     43075     43076     43072     43071     43074
     43072     43071     43073     43073     43071     43074     43075     43071     43074
     43075     43071     43073     43075     43071     43072     43077     43081     43082
     43078     43077     43080     43078     43077     43079     43079     43077     43080
     43081     43077     43080     43081     43077     43079     43081     43077     43078
     43083     43087     43088     43084     43083     43086     43084     43083     43085
     43085     43083     43086     43087     43083     43086     43087     43083     43085
     43087     43083     43084     43089     43093     43094     43090     43089     43092
     43090     43089     43091     43091     43089     43092     43093     43089     43092
     43093     43089     43091     43093     43089     43090     43095     43099     43100
     43096     43095     43098     43096     43095     43097     43097     43095     43098
     43099     43095     43098     43099     43095     43097     43099     43095     43096
     43101     43105     43106     43102     43101     43104     43102     43101     43103
     43103     43101     43104     43105     43101     43104     43105     43101     43103
     43105     43101     43102     43107     43111     43112     43108     43107     43110
     43108     43107     43109     43109     43107     43110     43111     43107     43110
     43111     43107     43109     43111     43107     43108     43113     43117     43118
     43114     43113     43116     43114     43113     43115     43115     43113     43116
     43117     43113     43116     43117     43113     43115     43117     43113     43114
     43119     43123     43124     43120     43119     43122     43120     43119     43121
     43121     43119     43122     43123     43119     43122     43123     43119     43121
     43123     43119     43120     43125     43129     43130     43126     43125     43128
     43126     43125     43127     43127     43125     43128     43129     43125     43128
     43129     43125     43127     43129     43125     43126     43131     43135     43136
     43132     43131     43134     43132     43131     43133     43133     43131     43134
     43135     43131     43134     43135     43131     43133     43135     43131     43132
     43137     43141     43142     43138     43137     43140     43138     43137     43139
     43139     43137     43140     43141     43137     43140     43141     43137     43139
     43141     43137     43138     43143     43147     43148     43144     43143     43146
     43144     43143     43145     43145     43143     43146     43147     43143     43146
     43147     43143     43145     43147     43143     43144     43149     43153     43154
     43150     43149     43152     43150     43149     43151     43151     43149     43152
     43153     43149     43152     43153     43149     43151     43153     43149     43150
     43155     43159     43160     43156     43155     43158     43156     43155     43157
     43157     43155     43158     43159     43155     43158     43159     43155     43157
     43159     43155     43156     43161     43165     43166     43162     43161     43164
     43162     43161     43163     43163     43161     43164     43165     43161     43164
     43165     43161     43163     43165     43161     43162     43167     43171     43172
     43168     43167     43170     43168     43167     43169     43169     43167     43170
     43171     43167     43170     43171     43167     43169     43171     43167     43168
     43173     43177     43178     43174     43173     43176     43174     43173     43175
     43175     43173     43176     43177     43173     43176     43177     43173     43175
     43177     43173     43174     43179     43183     43184     43180     43179     43182
     43180     43179     43181     43181     43179     43182     43183     43179     43182
     43183     43179     43181     43183     43179     43180     43185     43189     43190
     43186     43185     43188     43186     43185     43187     43187     43185     43188
     43189     43185     43188     43189     43185     43187     43189     43185     43186
     43191     43195     43196     43192     43191     43194     43192     43191     43193
     43193     43191     43194     43195     43191     43194     43195     43191     43193
     43195     43191     43192     43197     43201     43202     43198     43197     43200
     43198     43197     43199     43199     43197     43200     43201     43197     43200
     43201     43197     43199     43201     43197     43198     43203     43207     43208
     43204     43203     43206     43204     43203     43205     43205     43203     43206
     43207     43203     43206     43207     43203     43205     43207     43203     43204
     43209     43213     43214     43210     43209     43212     43210     43209     43211
     43211     43209     43212     43213     43209     43212     43213     43209     43211
     43213     43209     43210     43215     43219     43220     43216     43215     43218
     43216     43215     43217     43217     43215     43218     43219     43215     43218
     43219     43215     43217     43219     43215     43216     43221     43225     43226
     43222     43221     43224     43222     43221     43223     43223     43221     43224
     43225     43221     43224     43225     43221     43223     43225     43221     43222
     43227     43231     43232     43228     43227     43230     43228     43227     43229
     43229     43227     43230     43231     43227     43230     43231     43227     43229
     43231     43227     43228     43233     43237     43238     43234     43233     43236
     43234     43233     43235     43235     43233     43236     43237     43233     43236
     43237     43233     43235     43237     43233     43234     43239     43243     43244
     43240     43239     43242     43240     43239     43241     43241     43239     43242
     43243     43239     43242     43243     43239     43241     43243     43239     43240
     43245     43249     43250     43246     43245     43248     43246     43245     43247
     43247     43245     43248     43249     43245     43248     43249     43245     43247
     43249     43245     43246     43251     43255     43256     43252     43251     43254
     43252     43251     43253     43253     43251     43254     43255     43251     43254
     43255     43251     43253     43255     43251     43252     43257     43261     43262
     43258     43257     43260     43258     43257     43259     43259     43257     43260
     43261     43257     43260     43261     43257     43259     43261     43257     43258
     43263     43267     43268     43264     43263     43266     43264     43263     43265
     43265     43263     43266     43267     43263     43266     43267     43263     43265
     43267     43263     43264     43269     43273     43274     43270     43269     43272
     43270     43269     43271     43271     43269     43272     43273     43269     43272
     43273     43269     43271     43273     43269     43270     43275     43279     43280
     43276     43275     43278     43276     43275     43277     43277     43275     43278
     43279     43275     43278     43279     43275     43277     43279     43275     43276
     43281     43285     43286     43282     43281     43284     43282     43281     43283
     43283     43281     43284     43285     43281     43284     43285     43281     43283
     43285     43281     43282     43287     43291     43292     43288     43287     43290
     43288     43287     43289     43289     43287     43290     43291     43287     43290
     43291     43287     43289     43291     43287     43288     43293     43297     43298
     43294     43293     43296     43294     43293     43295     43295     43293     43296
     43297     43293     43296     43297     43293     43295     43297     43293     43294
     43299     43303     43304     43300     43299     43302     43300     43299     43301
     43301     43299     43302     43303     43299     43302     43303     43299     43301
     43303     43299     43300     43305     43309     43310     43306     43305     43308
     43306     43305     43307     43307     43305     43308     43309     43305     43308
     43309     43305     43307     43309     43305     43306     43311     43315     43316
     43312     43311     43314     43312     43311     43313     43313     43311     43314
     43315     43311     43314     43315     43311     43313     43315     43311     43312
     43317     43321     43322     43318     43317     43320     43318     43317     43319
     43319     43317     43320     43321     43317     43320     43321     43317     43319
     43321     43317     43318     43323     43327     43328     43324     43323     43326
     43324     43323     43325     43325     43323     43326     43327     43323     43326
     43327     43323     43325     43327     43323     43324     43329     43333     43334
     43330     43329     43332     43330     43329     43331     43331     43329     43332
     43333     43329     43332     43333     43329     43331     43333     43329     43330
     43335     43339     43340     43336     43335     43338     43336     43335     43337
     43337     43335     43338     43339     43335     43338     43339     43335     43337
     43339     43335     43336     43341     43345     43346     43342     43341     43344
     43342     43341     43343     43343     43341     43344     43345     43341     43344
     43345     43341     43343     43345     43341     43342     43347     43351     43352
     43348     43347     43350     43348     43347     43349     43349     43347     43350
     43351     43347     43350     43351     43347     43349     43351     43347     43348
     43353     43357     43358     43354     43353     43356     43354     43353     43355
     43355     43353     43356     43357     43353     43356     43357     43353     43355
     43357     43353     43354     43359     43363     43364     43360     43359     43362
     43360     43359     43361     43361     43359     43362     43363     43359     43362
     43363     43359     43361     43363     43359     43360     43365     43369     43370
     43366     43365     43368     43366     43365     43367     43367     43365     43368
     43369     43365     43368     43369     43365     43367     43369     43365     43366
     43371     43375     43376     43372     43371     43374     43372     43371     43373
     43373     43371     43374     43375     43371     43374     43375     43371     43373
     43375     43371     43372     43377     43381     43382     43378     43377     43380
     43378     43377     43379     43379     43377     43380     43381     43377     43380
     43381     43377     43379     43381     43377     43378     43383     43387     43388
     43384     43383     43386     43384     43383     43385     43385     43383     43386
     43387     43383     43386     43387     43383     43385     43387     43383     43384
     43389     43393     43394     43390     43389     43392     43390     43389     43391
     43391     43389     43392     43393     43389     43392     43393     43389     43391
     43393     43389     43390     43395     43399     43400     43396     43395     43398
     43396     43395     43397     43397     43395     43398     43399     43395     43398
     43399     43395     43397     43399     43395     43396     43401     43405     43406
     43402     43401     43404     43402     43401     43403     43403     43401     43404
     43405     43401     43404     43405     43401     43403     43405     43401     43402
     43407     43411     43412     43408     43407     43410     43408     43407     43409
     43409     43407     43410     43411     43407     43410     43411     43407     43409
     43411     43407     43408     43413     43417     43418     43414     43413     43416
     43414     43413     43415     43415     43413     43416     43417     43413     43416
     43417     43413     43415     43417     43413     43414     43419     43423     43424
     43420     43419     43422     43420     43419     43421     43421     43419     43422
     43423     43419     43422     43423     43419     43421     43423     43419     43420
     43425     43429     43430     43426     43425     43428     43426     43425     43427
     43427     43425     43428     43429     43425     43428     43429     43425     43427
     43429     43425     43426     43431     43435     43436     43432     43431     43434
     43432     43431     43433     43433     43431     43434     43435     43431     43434
     43435     43431     43433     43435     43431     43432     43437     43441     43442
     43438     43437     43440     43438     43437     43439     43439     43437     43440
     43441     43437     43440     43441     43437     43439     43441     43437     43438
     43443     43447     43448     43444     43443     43446     43444     43443     43445
     43445     43443     43446     43447     43443     43446     43447     43443     43445
     43447     43443     43444     43449     43453     43454     43450     43449     43452
     43450     43449     43451     43451     43449     43452     43453     43449     43452
     43453     43449     43451     43453     43449     43450     43455     43459     43460
     43456     43455     43458     43456     43455     43457     43457     43455     43458
     43459     43455     43458     43459     43455     43457     43459     43455     43456
     43461     43465     43466     43462     43461     43464     43462     43461     43463
     43463     43461     43464     43465     43461     43464     43465     43461     43463
     43465     43461     43462     43467     43471     43472     43468     43467     43470
     43468     43467     43469     43469     43467     43470     43471     43467     43470
     43471     43467     43469     43471     43467     43468     43473     43477     43478
     43474     43473     43476     43474     43473     43475     43475     43473     43476
     43477     43473     43476     43477     43473     43475     43477     43473     43474
     43479     43483     43484     43480     43479     43482     43480     43479     43481
     43481     43479     43482     43483     43479     43482     43483     43479     43481
     43483     43479     43480     43485     43489     43490     43486     43485     43488
     43486     43485     43487     43487     43485     43488     43489     43485     43488
     43489     43485     43487     43489     43485     43486     43491     43495     43496
     43492     43491     43494     43492     43491     43493     43493     43491     43494
     43495     43491     43494     43495     43491     43493     43495     43491     43492
     43497     43501     43502     43498     43497     43500     43498     43497     43499
     43499     43497     43500     43501     43497     43500     43501     43497     43499
     43501     43497     43498     43503     43507     43508     43504     43503     43506
     43504     43503     43505     43505     43503     43506     43507     43503     43506
     43507     43503     43505     43507     43503     43504     43509     43513     43514
     43510     43509     43512     43510     43509     43511     43511     43509     43512
     43513     43509     43512     43513     43509     43511     43513     43509     43510
     43515     43519     43520     43516     43515     43518     43516     43515     43517
     43517     43515     43518     43519     43515     43518     43519     43515     43517
     43519     43515     43516     43521     43525     43526     43522     43521     43524
     43522     43521     43523     43523     43521     43524     43525     43521     43524
     43525     43521     43523     43525     43521     43522     43527     43531     43532
     43528     43527     43530     43528     43527     43529     43529     43527     43530
     43531     43527     43530     43531     43527     43529     43531     43527     43528
     43533     43537     43538     43534     43533     43536     43534     43533     43535
     43535     43533     43536     43537     43533     43536     43537     43533     43535
     43537     43533     43534     43539     43543     43544     43540     43539     43542
     43540     43539     43541     43541     43539     43542     43543     43539     43542
     43543     43539     43541     43543     43539     43540     43545     43549     43550
     43546     43545     43548     43546     43545     43547     43547     43545     43548
     43549     43545     43548     43549     43545     43547     43549     43545     43546
     43551     43555     43556     43552     43551     43554     43552     43551     43553
     43553     43551     43554     43555     43551     43554     43555     43551     43553
     43555     43551     43552     43557     43561     43562     43558     43557     43560
     43558     43557     43559     43559     43557     43560     43561     43557     43560
     43561     43557     43559     43561     43557     43558     43563     43567     43568
     43564     43563     43566     43564     43563     43565     43565     43563     43566
     43567     43563     43566     43567     43563     43565     43567     43563     43564
     43569     43573     43574     43570     43569     43572     43570     43569     43571
     43571     43569     43572     43573     43569     43572     43573     43569     43571
     43573     43569     43570     43575     43579     43580     43576     43575     43578
     43576     43575     43577     43577     43575     43578     43579     43575     43578
     43579     43575     43577     43579     43575     43576     43581     43585     43586
     43582     43581     43584     43582     43581     43583     43583     43581     43584
     43585     43581     43584     43585     43581     43583     43585     43581     43582
     43587     43591     43592     43588     43587     43590     43588     43587     43589
     43589     43587     43590     43591     43587     43590     43591     43587     43589
     43591     43587     43588     43593     43597     43598     43594     43593     43596
     43594     43593     43595     43595     43593     43596     43597     43593     43596
     43597     43593     43595     43597     43593     43594     43599     43603     43604
     43600     43599     43602     43600     43599     43601     43601     43599     43602
     43603     43599     43602     43603     43599     43601     43603     43599     43600
     43605     43609     43610     43606     43605     43608     43606     43605     43607
     43607     43605     43608     43609     43605     43608     43609     43605     43607
     43609     43605     43606     43611     43615     43616     43612     43611     43614
     43612     43611     43613     43613     43611     43614     43615     43611     43614
     43615     43611     43613     43615     43611     43612     43617     43621     43622
     43618     43617     43620     43618     43617     43619     43619     43617     43620
     43621     43617     43620     43621     43617     43619     43621     43617     43618
     43623     43627     43628     43624     43623     43626     43624     43623     43625
     43625     43623     43626     43627     43623     43626     43627     43623     43625
     43627     43623     43624     43629     43633     43634     43630     43629     43632
     43630     43629     43631     43631     43629     43632     43633     43629     43632
     43633     43629     43631     43633     43629     43630     43635     43639     43640
     43636     43635     43638     43636     43635     43637     43637     43635     43638
     43639     43635     43638     43639     43635     43637     43639     43635     43636
     43641     43645     43646     43642     43641     43644     43642     43641     43643
     43643     43641     43644     43645     43641     43644     43645     43641     43643
     43645     43641     43642     43647     43651     43652     43648     43647     43650
     43648     43647     43649     43649     43647     43650     43651     43647     43650
     43651     43647     43649     43651     43647     43648     43653     43657     43658
     43654     43653     43656     43654     43653     43655     43655     43653     43656
     43657     43653     43656     43657     43653     43655     43657     43653     43654
     43659     43663     43664     43660     43659     43662     43660     43659     43661
     43661     43659     43662     43663     43659     43662     43663     43659     43661
     43663     43659     43660     43665     43669     43670     43666     43665     43668
     43666     43665     43667     43667     43665     43668     43669     43665     43668
     43669     43665     43667     43669     43665     43666     43671     43675     43676
     43672     43671     43674     43672     43671     43673     43673     43671     43674
     43675     43671     43674     43675     43671     43673     43675     43671     43672
     43677     43681     43682     43678     43677     43680     43678     43677     43679
     43679     43677     43680     43681     43677     43680     43681     43677     43679
     43681     43677     43678     43683     43687     43688     43684     43683     43686
     43684     43683     43685     43685     43683     43686     43687     43683     43686
     43687     43683     43685     43687     43683     43684     43689     43693     43694
     43690     43689     43692     43690     43689     43691     43691     43689     43692
     43693     43689     43692     43693     43689     43691     43693     43689     43690
     43695     43699     43700     43696     43695     43698     43696     43695     43697
     43697     43695     43698     43699     43695     43698     43699     43695     43697
     43699     43695     43696     43701     43705     43706     43702     43701     43704
     43702     43701     43703     43703     43701     43704     43705     43701     43704
     43705     43701     43703     43705     43701     43702     43707     43711     43712
     43708     43707     43710     43708     43707     43709     43709     43707     43710
     43711     43707     43710     43711     43707     43709     43711     43707     43708
     43713     43717     43718     43714     43713     43716     43714     43713     43715
     43715     43713     43716     43717     43713     43716     43717     43713     43715
     43717     43713     43714     43719     43723     43724     43720     43719     43722
     43720     43719     43721     43721     43719     43722     43723     43719     43722
     43723     43719     43721     43723     43719     43720     43725     43729     43730
     43726     43725     43728     43726     43725     43727     43727     43725     43728
     43729     43725     43728     43729     43725     43727     43729     43725     43726
     43731     43735     43736     43732     43731     43734     43732     43731     43733
     43733     43731     43734     43735     43731     43734     43735     43731     43733
     43735     43731     43732     43737     43741     43742     43738     43737     43740
     43738     43737     43739     43739     43737     43740     43741     43737     43740
     43741     43737     43739     43741     43737     43738     43743     43747     43748
     43744     43743     43746     43744     43743     43745     43745     43743     43746
     43747     43743     43746     43747     43743     43745     43747     43743     43744
     43749     43753     43754     43750     43749     43752     43750     43749     43751
     43751     43749     43752     43753     43749     43752     43753     43749     43751
     43753     43749     43750     43755     43759     43760     43756     43755     43758
     43756     43755     43757     43757     43755     43758     43759     43755     43758
     43759     43755     43757     43759     43755     43756     43761     43765     43766
     43762     43761     43764     43762     43761     43763     43763     43761     43764
     43765     43761     43764     43765     43761     43763     43765     43761     43762
     43767     43771     43772     43768     43767     43770     43768     43767     43769
     43769     43767     43770     43771     43767     43770     43771     43767     43769
     43771     43767     43768     43773     43777     43778     43774     43773     43776
     43774     43773     43775     43775     43773     43776     43777     43773     43776
     43777     43773     43775     43777     43773     43774     43779     43783     43784
     43780     43779     43782     43780     43779     43781     43781     43779     43782
     43783     43779     43782     43783     43779     43781     43783     43779     43780
     43785     43789     43790     43786     43785     43788     43786     43785     43787
     43787     43785     43788     43789     43785     43788     43789     43785     43787
     43789     43785     43786     43791     43795     43796     43792     43791     43794
     43792     43791     43793     43793     43791     43794     43795     43791     43794
     43795     43791     43793     43795     43791     43792     43797     43801     43802
     43798     43797     43800     43798     43797     43799     43799     43797     43800
     43801     43797     43800     43801     43797     43799     43801     43797     43798
     43803     43807     43808     43804     43803     43806     43804     43803     43805
     43805     43803     43806     43807     43803     43806     43807     43803     43805
     43807     43803     43804     43809     43813     43814     43810     43809     43812
     43810     43809     43811     43811     43809     43812     43813     43809     43812
     43813     43809     43811     43813     43809     43810     43815     43819     43820
     43816     43815     43818     43816     43815     43817     43817     43815     43818
     43819     43815     43818     43819     43815     43817     43819     43815     43816
     43821     43825     43826     43822     43821     43824     43822     43821     43823
     43823     43821     43824     43825     43821     43824     43825     43821     43823
     43825     43821     43822     43827     43831     43832     43828     43827     43830
     43828     43827     43829     43829     43827     43830     43831     43827     43830
     43831     43827     43829     43831     43827     43828     43833     43837     43838
     43834     43833     43836     43834     43833     43835     43835     43833     43836
     43837     43833     43836     43837     43833     43835     43837     43833     43834
     43839     43843     43844     43840     43839     43842     43840     43839     43841
     43841     43839     43842     43843     43839     43842     43843     43839     43841
     43843     43839     43840     43845     43849     43850     43846     43845     43848
     43846     43845     43847     43847     43845     43848     43849     43845     43848
     43849     43845     43847     43849     43845     43846     43851     43855     43856
     43852     43851     43854     43852     43851     43853     43853     43851     43854
     43855     43851     43854     43855     43851     43853     43855     43851     43852
     43857     43861     43862     43858     43857     43860     43858     43857     43859
     43859     43857     43860     43861     43857     43860     43861     43857     43859
     43861     43857     43858     43863     43867     43868     43864     43863     43866
     43864     43863     43865     43865     43863     43866     43867     43863     43866
     43867     43863     43865     43867     43863     43864     43869     43873     43874
     43870     43869     43872     43870     43869     43871     43871     43869     43872
     43873     43869     43872     43873     43869     43871     43873     43869     43870
     43875     43879     43880     43876     43875     43878     43876     43875     43877
     43877     43875     43878     43879     43875     43878     43879     43875     43877
     43879     43875     43876     43881     43885     43886     43882     43881     43884
     43882     43881     43883     43883     43881     43884     43885     43881     43884
     43885     43881     43883     43885     43881     43882     43887     43891     43892
     43888     43887     43890     43888     43887     43889     43889     43887     43890
     43891     43887     43890     43891     43887     43889     43891     43887     43888
     43893     43897     43898     43894     43893     43896     43894     43893     43895
     43895     43893     43896     43897     43893     43896     43897     43893     43895
     43897     43893     43894     43899     43903     43904     43900     43899     43902
     43900     43899     43901     43901     43899     43902     43903     43899     43902
     43903     43899     43901     43903     43899     43900     43905     43909     43910
     43906     43905     43908     43906     43905     43907     43907     43905     43908
     43909     43905     43908     43909     43905     43907     43909     43905     43906
     43911     43915     43916     43912     43911     43914     43912     43911     43913
     43913     43911     43914     43915     43911     43914     43915     43911     43913
     43915     43911     43912     43917     43921     43922     43918     43917     43920
     43918     43917     43919     43919     43917     43920     43921     43917     43920
     43921     43917     43919     43921     43917     43918     43923     43927     43928
     43924     43923     43926     43924     43923     43925     43925     43923     43926
     43927     43923     43926     43927     43923     43925     43927     43923     43924
     43929     43933     43934     43930     43929     43932     43930     43929     43931
     43931     43929     43932     43933     43929     43932     43933     43929     43931
     43933     43929     43930     43935     43939     43940     43936     43935     43938
     43936     43935     43937     43937     43935     43938     43939     43935     43938
     43939     43935     43937     43939     43935     43936     43941     43945     43946
     43942     43941     43944     43942     43941     43943     43943     43941     43944
     43945     43941     43944     43945     43941     43943     43945     43941     43942
     43947     43951     43952     43948     43947     43950     43948     43947     43949
     43949     43947     43950     43951     43947     43950     43951     43947     43949
     43951     43947     43948     43953     43957     43958     43954     43953     43956
     43954     43953     43955     43955     43953     43956     43957     43953     43956
     43957     43953     43955     43957     43953     43954     43959     43963     43964
     43960     43959     43962     43960     43959     43961     43961     43959     43962
     43963     43959     43962     43963     43959     43961     43963     43959     43960
     43965     43969     43970     43966     43965     43968     43966     43965     43967
     43967     43965     43968     43969     43965     43968     43969     43965     43967
     43969     43965     43966     43971     43975     43976     43972     43971     43974
     43972     43971     43973     43973     43971     43974     43975     43971     43974
     43975     43971     43973     43975     43971     43972     43977     43981     43982
     43978     43977     43980     43978     43977     43979     43979     43977     43980
     43981     43977     43980     43981     43977     43979     43981     43977     43978
     43983     43987     43988     43984     43983     43986     43984     43983     43985
     43985     43983     43986     43987     43983     43986     43987     43983     43985
     43987     43983     43984     43989     43993     43994     43990     43989     43992
     43990     43989     43991     43991     43989     43992     43993     43989     43992
     43993     43989     43991     43993     43989     43990     43995     43999     44000
     43996     43995     43998     43996     43995     43997     43997     43995     43998
     43999     43995     43998     43999     43995     43997     43999     43995     43996
     44001     44005     44006     44002     44001     44004     44002     44001     44003
     44003     44001     44004     44005     44001     44004     44005     44001     44003
     44005     44001     44002     44007     44011     44012     44008     44007     44010
     44008     44007     44009     44009     44007     44010     44011     44007     44010
     44011     44007     44009     44011     44007     44008     44013     44017     44018
     44014     44013     44016     44014     44013     44015     44015     44013     44016
     44017     44013     44016     44017     44013     44015     44017     44013     44014
     44019     44023     44024     44020     44019     44022     44020     44019     44021
     44021     44019     44022     44023     44019     44022     44023     44019     44021
     44023     44019     44020     44025     44029     44030     44026     44025     44028
     44026     44025     44027     44027     44025     44028     44029     44025     44028
     44029     44025     44027     44029     44025     44026     44031     44035     44036
     44032     44031     44034     44032     44031     44033     44033     44031     44034
     44035     44031     44034     44035     44031     44033     44035     44031     44032
     44037     44041     44042     44038     44037     44040     44038     44037     44039
     44039     44037     44040     44041     44037     44040     44041     44037     44039
     44041     44037     44038     44043     44047     44048     44044     44043     44046
     44044     44043     44045     44045     44043     44046     44047     44043     44046
     44047     44043     44045     44047     44043     44044     44049     44053     44054
     44050     44049     44052     44050     44049     44051     44051     44049     44052
     44053     44049     44052     44053     44049     44051     44053     44049     44050
     44055     44059     44060     44056     44055     44058     44056     44055     44057
     44057     44055     44058     44059     44055     44058     44059     44055     44057
     44059     44055     44056     44061     44065     44066     44062     44061     44064
     44062     44061     44063     44063     44061     44064     44065     44061     44064
     44065     44061     44063     44065     44061     44062     44067     44071     44072
     44068     44067     44070     44068     44067     44069     44069     44067     44070
     44071     44067     44070     44071     44067     44069     44071     44067     44068
     44073     44077     44078     44074     44073     44076     44074     44073     44075
     44075     44073     44076     44077     44073     44076     44077     44073     44075
     44077     44073     44074     44079     44083     44084     44080     44079     44082
     44080     44079     44081     44081     44079     44082     44083     44079     44082
     44083     44079     44081     44083     44079     44080     44085     44089     44090
     44086     44085     44088     44086     44085     44087     44087     44085     44088
     44089     44085     44088     44089     44085     44087     44089     44085     44086
     44091     44095     44096     44092     44091     44094     44092     44091     44093
     44093     44091     44094     44095     44091     44094     44095     44091     44093
     44095     44091     44092     44097     44101     44102     44098     44097     44100
     44098     44097     44099     44099     44097     44100     44101     44097     44100
     44101     44097     44099     44101     44097     44098     44103     44107     44108
     44104     44103     44106     44104     44103     44105     44105     44103     44106
     44107     44103     44106     44107     44103     44105     44107     44103     44104
     44109     44113     44114     44110     44109     44112     44110     44109     44111
     44111     44109     44112     44113     44109     44112     44113     44109     44111
     44113     44109     44110     44115     44119     44120     44116     44115     44118
     44116     44115     44117     44117     44115     44118     44119     44115     44118
     44119     44115     44117     44119     44115     44116     44121     44125     44126
     44122     44121     44124     44122     44121     44123     44123     44121     44124
     44125     44121     44124     44125     44121     44123     44125     44121     44122
     44127     44131     44132     44128     44127     44130     44128     44127     44129
     44129     44127     44130     44131     44127     44130     44131     44127     44129
     44131     44127     44128     44133     44137     44138     44134     44133     44136
     44134     44133     44135     44135     44133     44136     44137     44133     44136
     44137     44133     44135     44137     44133     44134     44139     44143     44144
     44140     44139     44142     44140     44139     44141     44141     44139     44142
     44143     44139     44142     44143     44139     44141     44143     44139     44140
     44145     44149     44150     44146     44145     44148     44146     44145     44147
     44147     44145     44148     44149     44145     44148     44149     44145     44147
     44149     44145     44146     44151     44155     44156     44152     44151     44154
     44152     44151     44153     44153     44151     44154     44155     44151     44154
     44155     44151     44153     44155     44151     44152     44157     44161     44162
     44158     44157     44160     44158     44157     44159     44159     44157     44160
     44161     44157     44160     44161     44157     44159     44161     44157     44158
     44163     44167     44168     44164     44163     44166     44164     44163     44165
     44165     44163     44166     44167     44163     44166     44167     44163     44165
     44167     44163     44164     44169     44173     44174     44170     44169     44172
     44170     44169     44171     44171     44169     44172     44173     44169     44172
     44173     44169     44171     44173     44169     44170     44175     44179     44180
     44176     44175     44178     44176     44175     44177     44177     44175     44178
     44179     44175     44178     44179     44175     44177     44179     44175     44176
     44181     44185     44186     44182     44181     44184     44182     44181     44183
     44183     44181     44184     44185     44181     44184     44185     44181     44183
     44185     44181     44182     44187     44191     44192     44188     44187     44190
     44188     44187     44189     44189     44187     44190     44191     44187     44190
     44191     44187     44189     44191     44187     44188     44193     44197     44198
     44194     44193     44196     44194     44193     44195     44195     44193     44196
     44197     44193     44196     44197     44193     44195     44197     44193     44194
     44199     44203     44204     44200     44199     44202     44200     44199     44201
     44201     44199     44202     44203     44199     44202     44203     44199     44201
     44203     44199     44200     44205     44209     44210     44206     44205     44208
     44206     44205     44207     44207     44205     44208     44209     44205     44208
     44209     44205     44207     44209     44205     44206     44211     44215     44216
     44212     44211     44214     44212     44211     44213     44213     44211     44214
     44215     44211     44214     44215     44211     44213     44215     44211     44212
     44217     44221     44222     44218     44217     44220     44218     44217     44219
     44219     44217     44220     44221     44217     44220     44221     44217     44219
     44221     44217     44218     44223     44227     44228     44224     44223     44226
     44224     44223     44225     44225     44223     44226     44227     44223     44226
     44227     44223     44225     44227     44223     44224     44229     44233     44234
     44230     44229     44232     44230     44229     44231     44231     44229     44232
     44233     44229     44232     44233     44229     44231     44233     44229     44230
     44235     44239     44240     44236     44235     44238     44236     44235     44237
     44237     44235     44238     44239     44235     44238     44239     44235     44237
     44239     44235     44236     44241     44245     44246     44242     44241     44244
     44242     44241     44243     44243     44241     44244     44245     44241     44244
     44245     44241     44243     44245     44241     44242     44247     44251     44252
     44248     44247     44250     44248     44247     44249     44249     44247     44250
     44251     44247     44250     44251     44247     44249     44251     44247     44248
     44253     44257     44258     44254     44253     44256     44254     44253     44255
     44255     44253     44256     44257     44253     44256     44257     44253     44255
     44257     44253     44254     44259     44263     44264     44260     44259     44262
     44260     44259     44261     44261     44259     44262     44263     44259     44262
     44263     44259     44261     44263     44259     44260     44265     44269     44270
     44266     44265     44268     44266     44265     44267     44267     44265     44268
     44269     44265     44268     44269     44265     44267     44269     44265     44266
     44271     44275     44276     44272     44271     44274     44272     44271     44273
     44273     44271     44274     44275     44271     44274     44275     44271     44273
     44275     44271     44272     44277     44281     44282     44278     44277     44280
     44278     44277     44279     44279     44277     44280     44281     44277     44280
     44281     44277     44279     44281     44277     44278     44283     44287     44288
     44284     44283     44286     44284     44283     44285     44285     44283     44286
     44287     44283     44286     44287     44283     44285     44287     44283     44284
     44289     44293     44294     44290     44289     44292     44290     44289     44291
     44291     44289     44292     44293     44289     44292     44293     44289     44291
     44293     44289     44290     44295     44299     44300     44296     44295     44298
     44296     44295     44297     44297     44295     44298     44299     44295     44298
     44299     44295     44297     44299     44295     44296     44301     44305     44306
     44302     44301     44304     44302     44301     44303     44303     44301     44304
     44305     44301     44304     44305     44301     44303     44305     44301     44302
     44307     44311     44312     44308     44307     44310     44308     44307     44309
     44309     44307     44310     44311     44307     44310     44311     44307     44309
     44311     44307     44308     44313     44317     44318     44314     44313     44316
     44314     44313     44315     44315     44313     44316     44317     44313     44316
     44317     44313     44315     44317     44313     44314     44319     44323     44324
     44320     44319     44322     44320     44319     44321     44321     44319     44322
     44323     44319     44322     44323     44319     44321     44323     44319     44320
     44325     44329     44330     44326     44325     44328     44326     44325     44327
     44327     44325     44328     44329     44325     44328     44329     44325     44327
     44329     44325     44326     44331     44335     44336     44332     44331     44334
     44332     44331     44333     44333     44331     44334     44335     44331     44334
     44335     44331     44333     44335     44331     44332     44337     44341     44342
     44338     44337     44340     44338     44337     44339     44339     44337     44340
     44341     44337     44340     44341     44337     44339     44341     44337     44338
     44343     44347     44348     44344     44343     44346     44344     44343     44345
     44345     44343     44346     44347     44343     44346     44347     44343     44345
     44347     44343     44344     44349     44353     44354     44350     44349     44352
     44350     44349     44351     44351     44349     44352     44353     44349     44352
     44353     44349     44351     44353     44349     44350     44355     44359     44360
     44356     44355     44358     44356     44355     44357     44357     44355     44358
     44359     44355     44358     44359     44355     44357     44359     44355     44356
     44361     44365     44366     44362     44361     44364     44362     44361     44363
     44363     44361     44364     44365     44361     44364     44365     44361     44363
     44365     44361     44362     44367     44371     44372     44368     44367     44370
     44368     44367     44369     44369     44367     44370     44371     44367     44370
     44371     44367     44369     44371     44367     44368     44373     44377     44378
     44374     44373     44376     44374     44373     44375     44375     44373     44376
     44377     44373     44376     44377     44373     44375     44377     44373     44374
     44379     44383     44384     44380     44379     44382     44380     44379     44381
     44381     44379     44382     44383     44379     44382     44383     44379     44381
     44383     44379     44380     44385     44389     44390     44386     44385     44388
     44386     44385     44387     44387     44385     44388     44389     44385     44388
     44389     44385     44387     44389     44385     44386     44391     44395     44396
     44392     44391     44394     44392     44391     44393     44393     44391     44394
     44395     44391     44394     44395     44391     44393     44395     44391     44392
     44397     44401     44402     44398     44397     44400     44398     44397     44399
     44399     44397     44400     44401     44397     44400     44401     44397     44399
     44401     44397     44398     44403     44407     44408     44404     44403     44406
     44404     44403     44405     44405     44403     44406     44407     44403     44406
     44407     44403     44405     44407     44403     44404     44409     44413     44414
     44410     44409     44412     44410     44409     44411     44411     44409     44412
     44413     44409     44412     44413     44409     44411     44413     44409     44410
     44415     44419     44420     44416     44415     44418     44416     44415     44417
     44417     44415     44418     44419     44415     44418     44419     44415     44417
     44419     44415     44416     44421     44425     44426     44422     44421     44424
     44422     44421     44423     44423     44421     44424     44425     44421     44424
     44425     44421     44423     44425     44421     44422     44427     44431     44432
     44428     44427     44430     44428     44427     44429     44429     44427     44430
     44431     44427     44430     44431     44427     44429     44431     44427     44428
     44433     44437     44438     44434     44433     44436     44434     44433     44435
     44435     44433     44436     44437     44433     44436     44437     44433     44435
     44437     44433     44434     44439     44443     44444     44440     44439     44442
     44440     44439     44441     44441     44439     44442     44443     44439     44442
     44443     44439     44441     44443     44439     44440     44445     44449     44450
     44446     44445     44448     44446     44445     44447     44447     44445     44448
     44449     44445     44448     44449     44445     44447     44449     44445     44446
     44451     44455     44456     44452     44451     44454     44452     44451     44453
     44453     44451     44454     44455     44451     44454     44455     44451     44453
     44455     44451     44452     44457     44461     44462     44458     44457     44460
     44458     44457     44459     44459     44457     44460     44461     44457     44460
     44461     44457     44459     44461     44457     44458     44463     44467     44468
     44464     44463     44466     44464     44463     44465     44465     44463     44466
     44467     44463     44466     44467     44463     44465     44467     44463     44464
     44469     44473     44474     44470     44469     44472     44470     44469     44471
     44471     44469     44472     44473     44469     44472     44473     44469     44471
     44473     44469     44470     44475     44479     44480     44476     44475     44478
     44476     44475     44477     44477     44475     44478     44479     44475     44478
     44479     44475     44477     44479     44475     44476     44481     44485     44486
     44482     44481     44484     44482     44481     44483     44483     44481     44484
     44485     44481     44484     44485     44481     44483     44485     44481     44482
     44487     44491     44492     44488     44487     44490     44488     44487     44489
     44489     44487     44490     44491     44487     44490     44491     44487     44489
     44491     44487     44488     44493     44497     44498     44494     44493     44496
     44494     44493     44495     44495     44493     44496     44497     44493     44496
     44497     44493     44495     44497     44493     44494     44499     44503     44504
     44500     44499     44502     44500     44499     44501     44501     44499     44502
     44503     44499     44502     44503     44499     44501     44503     44499     44500
     44505     44509     44510     44506     44505     44508     44506     44505     44507
     44507     44505     44508     44509     44505     44508     44509     44505     44507
     44509     44505     44506     44511     44515     44516     44512     44511     44514
     44512     44511     44513     44513     44511     44514     44515     44511     44514
     44515     44511     44513     44515     44511     44512     44517     44521     44522
     44518     44517     44520     44518     44517     44519     44519     44517     44520
     44521     44517     44520     44521     44517     44519     44521     44517     44518
     44523     44527     44528     44524     44523     44526     44524     44523     44525
     44525     44523     44526     44527     44523     44526     44527     44523     44525
     44527     44523     44524     44529     44533     44534     44530     44529     44532
     44530     44529     44531     44531     44529     44532     44533     44529     44532
     44533     44529     44531     44533     44529     44530     44535     44539     44540
     44536     44535     44538     44536     44535     44537     44537     44535     44538
     44539     44535     44538     44539     44535     44537     44539     44535     44536
     44541     44545     44546     44542     44541     44544     44542     44541     44543
     44543     44541     44544     44545     44541     44544     44545     44541     44543
     44545     44541     44542     44547     44551     44552     44548     44547     44550
     44548     44547     44549     44549     44547     44550     44551     44547     44550
     44551     44547     44549     44551     44547     44548     44553     44557     44558
     44554     44553     44556     44554     44553     44555     44555     44553     44556
     44557     44553     44556     44557     44553     44555     44557     44553     44554
     44559     44563     44564     44560     44559     44562     44560     44559     44561
     44561     44559     44562     44563     44559     44562     44563     44559     44561
     44563     44559     44560     44565     44569     44570     44566     44565     44568
     44566     44565     44567     44567     44565     44568     44569     44565     44568
     44569     44565     44567     44569     44565     44566     44571     44575     44576
     44572     44571     44574     44572     44571     44573     44573     44571     44574
     44575     44571     44574     44575     44571     44573     44575     44571     44572
     44577     44581     44582     44578     44577     44580     44578     44577     44579
     44579     44577     44580     44581     44577     44580     44581     44577     44579
     44581     44577     44578     44583     44587     44588     44584     44583     44586
     44584     44583     44585     44585     44583     44586     44587     44583     44586
     44587     44583     44585     44587     44583     44584     44589     44593     44594
     44590     44589     44592     44590     44589     44591     44591     44589     44592
     44593     44589     44592     44593     44589     44591     44593     44589     44590
     44595     44599     44600     44596     44595     44598     44596     44595     44597
     44597     44595     44598     44599     44595     44598     44599     44595     44597
     44599     44595     44596     44601     44605     44606     44602     44601     44604
     44602     44601     44603     44603     44601     44604     44605     44601     44604
     44605     44601     44603     44605     44601     44602     44607     44611     44612
     44608     44607     44610     44608     44607     44609     44609     44607     44610
     44611     44607     44610     44611     44607     44609     44611     44607     44608
     44613     44617     44618     44614     44613     44616     44614     44613     44615
     44615     44613     44616     44617     44613     44616     44617     44613     44615
     44617     44613     44614     44619     44623     44624     44620     44619     44622
     44620     44619     44621     44621     44619     44622     44623     44619     44622
     44623     44619     44621     44623     44619     44620     44625     44629     44630
     44626     44625     44628     44626     44625     44627     44627     44625     44628
     44629     44625     44628     44629     44625     44627     44629     44625     44626
     44631     44635     44636     44632     44631     44634     44632     44631     44633
     44633     44631     44634     44635     44631     44634     44635     44631     44633
     44635     44631     44632     44637     44641     44642     44638     44637     44640
     44638     44637     44639     44639     44637     44640     44641     44637     44640
     44641     44637     44639     44641     44637     44638     44643     44647     44648
     44644     44643     44646     44644     44643     44645     44645     44643     44646
     44647     44643     44646     44647     44643     44645     44647     44643     44644
     44649     44653     44654     44650     44649     44652     44650     44649     44651
     44651     44649     44652     44653     44649     44652     44653     44649     44651
     44653     44649     44650     44655     44659     44660     44656     44655     44658
     44656     44655     44657     44657     44655     44658     44659     44655     44658
     44659     44655     44657     44659     44655     44656     44661     44665     44666
     44662     44661     44664     44662     44661     44663     44663     44661     44664
     44665     44661     44664     44665     44661     44663     44665     44661     44662
     44667     44671     44672     44668     44667     44670     44668     44667     44669
     44669     44667     44670     44671     44667     44670     44671     44667     44669
     44671     44667     44668     44673     44677     44678     44674     44673     44676
     44674     44673     44675     44675     44673     44676     44677     44673     44676
     44677     44673     44675     44677     44673     44674     44679     44683     44684
     44680     44679     44682     44680     44679     44681     44681     44679     44682
     44683     44679     44682     44683     44679     44681     44683     44679     44680
     44685     44689     44690     44686     44685     44688     44686     44685     44687
     44687     44685     44688     44689     44685     44688     44689     44685     44687
     44689     44685     44686     44691     44695     44696     44692     44691     44694
     44692     44691     44693     44693     44691     44694     44695     44691     44694
     44695     44691     44693     44695     44691     44692     44697     44701     44702
     44698     44697     44700     44698     44697     44699     44699     44697     44700
     44701     44697     44700     44701     44697     44699     44701     44697     44698
     44703     44707     44708     44704     44703     44706     44704     44703     44705
     44705     44703     44706     44707     44703     44706     44707     44703     44705
     44707     44703     44704     44709     44713     44714     44710     44709     44712
     44710     44709     44711     44711     44709     44712     44713     44709     44712
     44713     44709     44711     44713     44709     44710     44715     44719     44720
     44716     44715     44718     44716     44715     44717     44717     44715     44718
     44719     44715     44718     44719     44715     44717     44719     44715     44716
     44721     44725     44726     44722     44721     44724     44722     44721     44723
     44723     44721     44724     44725     44721     44724     44725     44721     44723
     44725     44721     44722     44727     44731     44732     44728     44727     44730
     44728     44727     44729     44729     44727     44730     44731     44727     44730
     44731     44727     44729     44731     44727     44728     44733     44737     44738
     44734     44733     44736     44734     44733     44735     44735     44733     44736
     44737     44733     44736     44737     44733     44735     44737     44733     44734
     44739     44743     44744     44740     44739     44742     44740     44739     44741
     44741     44739     44742     44743     44739     44742     44743     44739     44741
     44743     44739     44740     44745     44749     44750     44746     44745     44748
     44746     44745     44747     44747     44745     44748     44749     44745     44748
     44749     44745     44747     44749     44745     44746     44751     44755     44756
     44752     44751     44754     44752     44751     44753     44753     44751     44754
     44755     44751     44754     44755     44751     44753     44755     44751     44752
     44757     44761     44762     44758     44757     44760     44758     44757     44759
     44759     44757     44760     44761     44757     44760     44761     44757     44759
     44761     44757     44758     44763     44767     44768     44764     44763     44766
     44764     44763     44765     44765     44763     44766     44767     44763     44766
     44767     44763     44765     44767     44763     44764     44769     44773     44774
     44770     44769     44772     44770     44769     44771     44771     44769     44772
     44773     44769     44772     44773     44769     44771     44773     44769     44770
     44775     44779     44780     44776     44775     44778     44776     44775     44777
     44777     44775     44778     44779     44775     44778     44779     44775     44777
     44779     44775     44776     44781     44785     44786     44782     44781     44784
     44782     44781     44783     44783     44781     44784     44785     44781     44784
     44785     44781     44783     44785     44781     44782     44787     44791     44792
     44788     44787     44790     44788     44787     44789     44789     44787     44790
     44791     44787     44790     44791     44787     44789     44791     44787     44788
     44793     44797     44798     44794     44793     44796     44794     44793     44795
     44795     44793     44796     44797     44793     44796     44797     44793     44795
     44797     44793     44794     44799     44803     44804     44800     44799     44802
     44800     44799     44801     44801     44799     44802     44803     44799     44802
     44803     44799     44801     44803     44799     44800     44805     44809     44810
     44806     44805     44808     44806     44805     44807     44807     44805     44808
     44809     44805     44808     44809     44805     44807     44809     44805     44806
     44811     44815     44816     44812     44811     44814     44812     44811     44813
     44813     44811     44814     44815     44811     44814     44815     44811     44813
     44815     44811     44812     44817     44821     44822     44818     44817     44820
     44818     44817     44819     44819     44817     44820     44821     44817     44820
     44821     44817     44819     44821     44817     44818     44823     44827     44828
     44824     44823     44826     44824     44823     44825     44825     44823     44826
     44827     44823     44826     44827     44823     44825     44827     44823     44824
     44829     44833     44834     44830     44829     44832     44830     44829     44831
     44831     44829     44832     44833     44829     44832     44833     44829     44831
     44833     44829     44830     44835     44839     44840     44836     44835     44838
     44836     44835     44837     44837     44835     44838     44839     44835     44838
     44839     44835     44837     44839     44835     44836     44841     44845     44846
     44842     44841     44844     44842     44841     44843     44843     44841     44844
     44845     44841     44844     44845     44841     44843     44845     44841     44842
     44847     44851     44852     44848     44847     44850     44848     44847     44849
     44849     44847     44850     44851     44847     44850     44851     44847     44849
     44851     44847     44848     44853     44857     44858     44854     44853     44856
     44854     44853     44855     44855     44853     44856     44857     44853     44856
     44857     44853     44855     44857     44853     44854     44859     44863     44864
     44860     44859     44862     44860     44859     44861     44861     44859     44862
     44863     44859     44862     44863     44859     44861     44863     44859     44860
     44865     44869     44870     44866     44865     44868     44866     44865     44867
     44867     44865     44868     44869     44865     44868     44869     44865     44867
     44869     44865     44866     44871     44875     44876     44872     44871     44874
     44872     44871     44873     44873     44871     44874     44875     44871     44874
     44875     44871     44873     44875     44871     44872     44877     44881     44882
     44878     44877     44880     44878     44877     44879     44879     44877     44880
     44881     44877     44880     44881     44877     44879     44881     44877     44878
     44883     44887     44888     44884     44883     44886     44884     44883     44885
     44885     44883     44886     44887     44883     44886     44887     44883     44885
     44887     44883     44884     44889     44893     44894     44890     44889     44892
     44890     44889     44891     44891     44889     44892     44893     44889     44892
     44893     44889     44891     44893     44889     44890     44895     44899     44900
     44896     44895     44898     44896     44895     44897     44897     44895     44898
     44899     44895     44898     44899     44895     44897     44899     44895     44896
     44901     44905     44906     44902     44901     44904     44902     44901     44903
     44903     44901     44904     44905     44901     44904     44905     44901     44903
     44905     44901     44902     44907     44911     44912     44908     44907     44910
     44908     44907     44909     44909     44907     44910     44911     44907     44910
     44911     44907     44909     44911     44907     44908     44913     44917     44918
     44914     44913     44916     44914     44913     44915     44915     44913     44916
     44917     44913     44916     44917     44913     44915     44917     44913     44914
     44919     44923     44924     44920     44919     44922     44920     44919     44921
     44921     44919     44922     44923     44919     44922     44923     44919     44921
     44923     44919     44920     44925     44929     44930     44926     44925     44928
     44926     44925     44927     44927     44925     44928     44929     44925     44928
     44929     44925     44927     44929     44925     44926     44931     44935     44936
     44932     44931     44934     44932     44931     44933     44933     44931     44934
     44935     44931     44934     44935     44931     44933     44935     44931     44932
     44937     44941     44942     44938     44937     44940     44938     44937     44939
     44939     44937     44940     44941     44937     44940     44941     44937     44939
     44941     44937     44938     44943     44947     44948     44944     44943     44946
     44944     44943     44945     44945     44943     44946     44947     44943     44946
     44947     44943     44945     44947     44943     44944     44949     44953     44954
     44950     44949     44952     44950     44949     44951     44951     44949     44952
     44953     44949     44952     44953     44949     44951     44953     44949     44950
     44955     44959     44960     44956     44955     44958     44956     44955     44957
     44957     44955     44958     44959     44955     44958     44959     44955     44957
     44959     44955     44956     44961     44965     44966     44962     44961     44964
     44962     44961     44963     44963     44961     44964     44965     44961     44964
     44965     44961     44963     44965     44961     44962     44967     44971     44972
     44968     44967     44970     44968     44967     44969     44969     44967     44970
     44971     44967     44970     44971     44967     44969     44971     44967     44968
     44973     44977     44978     44974     44973     44976     44974     44973     44975
     44975     44973     44976     44977     44973     44976     44977     44973     44975
     44977     44973     44974     44979     44983     44984     44980     44979     44982
     44980     44979     44981     44981     44979     44982     44983     44979     44982
     44983     44979     44981     44983     44979     44980     44985     44989     44990
     44986     44985     44988     44986     44985     44987     44987     44985     44988
     44989     44985     44988     44989     44985     44987     44989     44985     44986
     44991     44995     44996     44992     44991     44994     44992     44991     44993
     44993     44991     44994     44995     44991     44994     44995     44991     44993
     44995     44991     44992     44997     45001     45002     44998     44997     45000
     44998     44997     44999     44999     44997     45000     45001     44997     45000
     45001     44997     44999     45001     44997     44998     45003     45007     45008
     45004     45003     45006     45004     45003     45005     45005     45003     45006
     45007     45003     45006     45007     45003     45005     45007     45003     45004
     45009     45013     45014     45010     45009     45012     45010     45009     45011
     45011     45009     45012     45013     45009     45012     45013     45009     45011
     45013     45009     45010     45015     45019     45020     45016     45015     45018
     45016     45015     45017     45017     45015     45018     45019     45015     45018
     45019     45015     45017     45019     45015     45016     45021     45025     45026
     45022     45021     45024     45022     45021     45023     45023     45021     45024
     45025     45021     45024     45025     45021     45023     45025     45021     45022
     45027     45031     45032     45028     45027     45030     45028     45027     45029
     45029     45027     45030     45031     45027     45030     45031     45027     45029
     45031     45027     45028     45033     45037     45038     45034     45033     45036
     45034     45033     45035     45035     45033     45036     45037     45033     45036
     45037     45033     45035     45037     45033     45034     45039     45043     45044
     45040     45039     45042     45040     45039     45041     45041     45039     45042
     45043     45039     45042     45043     45039     45041     45043     45039     45040
     45045     45049     45050     45046     45045     45048     45046     45045     45047
     45047     45045     45048     45049     45045     45048     45049     45045     45047
     45049     45045     45046     45051     45055     45056     45052     45051     45054
     45052     45051     45053     45053     45051     45054     45055     45051     45054
     45055     45051     45053     45055     45051     45052     45057     45061     45062
     45058     45057     45060     45058     45057     45059     45059     45057     45060
     45061     45057     45060     45061     45057     45059     45061     45057     45058
     45063     45067     45068     45064     45063     45066     45064     45063     45065
     45065     45063     45066     45067     45063     45066     45067     45063     45065
     45067     45063     45064     45069     45073     45074     45070     45069     45072
     45070     45069     45071     45071     45069     45072     45073     45069     45072
     45073     45069     45071     45073     45069     45070     45075     45079     45080
     45076     45075     45078     45076     45075     45077     45077     45075     45078
     45079     45075     45078     45079     45075     45077     45079     45075     45076
     45081     45085     45086     45082     45081     45084     45082     45081     45083
     45083     45081     45084     45085     45081     45084     45085     45081     45083
     45085     45081     45082     45087     45091     45092     45088     45087     45090
     45088     45087     45089     45089     45087     45090     45091     45087     45090
     45091     45087     45089     45091     45087     45088     45093     45097     45098
     45094     45093     45096     45094     45093     45095     45095     45093     45096
     45097     45093     45096     45097     45093     45095     45097     45093     45094
     45099     45103     45104     45100     45099     45102     45100     45099     45101
     45101     45099     45102     45103     45099     45102     45103     45099     45101
     45103     45099     45100     45105     45109     45110     45106     45105     45108
     45106     45105     45107     45107     45105     45108     45109     45105     45108
     45109     45105     45107     45109     45105     45106     45111     45115     45116
     45112     45111     45114     45112     45111     45113     45113     45111     45114
     45115     45111     45114     45115     45111     45113     45115     45111     45112
     45117     45121     45122     45118     45117     45120     45118     45117     45119
     45119     45117     45120     45121     45117     45120     45121     45117     45119
     45121     45117     45118     45123     45127     45128     45124     45123     45126
     45124     45123     45125     45125     45123     45126     45127     45123     45126
     45127     45123     45125     45127     45123     45124     45129     45133     45134
     45130     45129     45132     45130     45129     45131     45131     45129     45132
     45133     45129     45132     45133     45129     45131     45133     45129     45130
     45135     45139     45140     45136     45135     45138     45136     45135     45137
     45137     45135     45138     45139     45135     45138     45139     45135     45137
     45139     45135     45136     45141     45145     45146     45142     45141     45144
     45142     45141     45143     45143     45141     45144     45145     45141     45144
     45145     45141     45143     45145     45141     45142     45147     45151     45152
     45148     45147     45150     45148     45147     45149     45149     45147     45150
     45151     45147     45150     45151     45147     45149     45151     45147     45148
     45153     45157     45158     45154     45153     45156     45154     45153     45155
     45155     45153     45156     45157     45153     45156     45157     45153     45155
     45157     45153     45154     45159     45163     45164     45160     45159     45162
     45160     45159     45161     45161     45159     45162     45163     45159     45162
     45163     45159     45161     45163     45159     45160     45165     45169     45170
     45166     45165     45168     45166     45165     45167     45167     45165     45168
     45169     45165     45168     45169     45165     45167     45169     45165     45166
     45171     45175     45176     45172     45171     45174     45172     45171     45173
     45173     45171     45174     45175     45171     45174     45175     45171     45173
     45175     45171     45172     45177     45181     45182     45178     45177     45180
     45178     45177     45179     45179     45177     45180     45181     45177     45180
     45181     45177     45179     45181     45177     45178     45183     45187     45188
     45184     45183     45186     45184     45183     45185     45185     45183     45186
     45187     45183     45186     45187     45183     45185     45187     45183     45184
     45189     45193     45194     45190     45189     45192     45190     45189     45191
     45191     45189     45192     45193     45189     45192     45193     45189     45191
     45193     45189     45190     45195     45199     45200     45196     45195     45198
     45196     45195     45197     45197     45195     45198     45199     45195     45198
     45199     45195     45197     45199     45195     45196     45201     45205     45206
     45202     45201     45204     45202     45201     45203     45203     45201     45204
     45205     45201     45204     45205     45201     45203     45205     45201     45202
     45207     45211     45212     45208     45207     45210     45208     45207     45209
     45209     45207     45210     45211     45207     45210     45211     45207     45209
     45211     45207     45208     45213     45217     45218     45214     45213     45216
     45214     45213     45215     45215     45213     45216     45217     45213     45216
     45217     45213     45215     45217     45213     45214     45219     45223     45224
     45220     45219     45222     45220     45219     45221     45221     45219     45222
     45223     45219     45222     45223     45219     45221     45223     45219     45220
     45225     45229     45230     45226     45225     45228     45226     45225     45227
     45227     45225     45228     45229     45225     45228     45229     45225     45227
     45229     45225     45226     45231     45235     45236     45232     45231     45234
     45232     45231     45233     45233     45231     45234     45235     45231     45234
     45235     45231     45233     45235     45231     45232     45237     45241     45242
     45238     45237     45240     45238     45237     45239     45239     45237     45240
     45241     45237     45240     45241     45237     45239     45241     45237     45238
     45243     45247     45248     45244     45243     45246     45244     45243     45245
     45245     45243     45246     45247     45243     45246     45247     45243     45245
     45247     45243     45244     45249     45253     45254     45250     45249     45252
     45250     45249     45251     45251     45249     45252     45253     45249     45252
     45253     45249     45251     45253     45249     45250     45255     45259     45260
     45256     45255     45258     45256     45255     45257     45257     45255     45258
     45259     45255     45258     45259     45255     45257     45259     45255     45256
     45261     45265     45266     45262     45261     45264     45262     45261     45263
     45263     45261     45264     45265     45261     45264     45265     45261     45263
     45265     45261     45262     45267     45271     45272     45268     45267     45270
     45268     45267     45269     45269     45267     45270     45271     45267     45270
     45271     45267     45269     45271     45267     45268     45273     45277     45278
     45274     45273     45276     45274     45273     45275     45275     45273     45276
     45277     45273     45276     45277     45273     45275     45277     45273     45274
     45279     45283     45284     45280     45279     45282     45280     45279     45281
     45281     45279     45282     45283     45279     45282     45283     45279     45281
     45283     45279     45280     45285     45289     45290     45286     45285     45288
     45286     45285     45287     45287     45285     45288     45289     45285     45288
     45289     45285     45287     45289     45285     45286     45291     45295     45296
     45292     45291     45294     45292     45291     45293     45293     45291     45294
     45295     45291     45294     45295     45291     45293     45295     45291     45292
     45297     45301     45302     45298     45297     45300     45298     45297     45299
     45299     45297     45300     45301     45297     45300     45301     45297     45299
     45301     45297     45298     45303     45307     45308     45304     45303     45306
     45304     45303     45305     45305     45303     45306     45307     45303     45306
     45307     45303     45305     45307     45303     45304     45309     45313     45314
     45310     45309     45312     45310     45309     45311     45311     45309     45312
     45313     45309     45312     45313     45309     45311     45313     45309     45310
     45315     45319     45320     45316     45315     45318     45316     45315     45317
     45317     45315     45318     45319     45315     45318     45319     45315     45317
     45319     45315     45316     45321     45325     45326     45322     45321     45324
     45322     45321     45323     45323     45321     45324     45325     45321     45324
     45325     45321     45323     45325     45321     45322     45327     45331     45332
     45328     45327     45330     45328     45327     45329     45329     45327     45330
     45331     45327     45330     45331     45327     45329     45331     45327     45328
     45333     45337     45338     45334     45333     45336     45334     45333     45335
     45335     45333     45336     45337     45333     45336     45337     45333     45335
     45337     45333     45334     45339     45343     45344     45340     45339     45342
     45340     45339     45341     45341     45339     45342     45343     45339     45342
     45343     45339     45341     45343     45339     45340     45345     45349     45350
     45346     45345     45348     45346     45345     45347     45347     45345     45348
     45349     45345     45348     45349     45345     45347     45349     45345     45346
     45351     45355     45356     45352     45351     45354     45352     45351     45353
     45353     45351     45354     45355     45351     45354     45355     45351     45353
     45355     45351     45352     45357     45361     45362     45358     45357     45360
     45358     45357     45359     45359     45357     45360     45361     45357     45360
     45361     45357     45359     45361     45357     45358     45363     45367     45368
     45364     45363     45366     45364     45363     45365     45365     45363     45366
     45367     45363     45366     45367     45363     45365     45367     45363     45364
     45369     45373     45374     45370     45369     45372     45370     45369     45371
     45371     45369     45372     45373     45369     45372     45373     45369     45371
     45373     45369     45370     45375     45379     45380     45376     45375     45378
     45376     45375     45377     45377     45375     45378     45379     45375     45378
     45379     45375     45377     45379     45375     45376     45381     45385     45386
     45382     45381     45384     45382     45381     45383     45383     45381     45384
     45385     45381     45384     45385     45381     45383     45385     45381     45382
     45387     45391     45392     45388     45387     45390     45388     45387     45389
     45389     45387     45390     45391     45387     45390     45391     45387     45389
     45391     45387     45388     45393     45397     45398     45394     45393     45396
     45394     45393     45395     45395     45393     45396     45397     45393     45396
     45397     45393     45395     45397     45393     45394     45399     45403     45404
     45400     45399     45402     45400     45399     45401     45401     45399     45402
     45403     45399     45402     45403     45399     45401     45403     45399     45400
     45405     45409     45410     45406     45405     45408     45406     45405     45407
     45407     45405     45408     45409     45405     45408     45409     45405     45407
     45409     45405     45406     45411     45415     45416     45412     45411     45414
     45412     45411     45413     45413     45411     45414     45415     45411     45414
     45415     45411     45413     45415     45411     45412     45417     45421     45422
     45418     45417     45420     45418     45417     45419     45419     45417     45420
     45421     45417     45420     45421     45417     45419     45421     45417     45418
     45423     45427     45428     45424     45423     45426     45424     45423     45425
     45425     45423     45426     45427     45423     45426     45427     45423     45425
     45427     45423     45424     45429     45433     45434     45430     45429     45432
     45430     45429     45431     45431     45429     45432     45433     45429     45432
     45433     45429     45431     45433     45429     45430     45435     45439     45440
     45436     45435     45438     45436     45435     45437     45437     45435     45438
     45439     45435     45438     45439     45435     45437     45439     45435     45436
     45441     45445     45446     45442     45441     45444     45442     45441     45443
     45443     45441     45444     45445     45441     45444     45445     45441     45443
     45445     45441     45442     45447     45451     45452     45448     45447     45450
     45448     45447     45449     45449     45447     45450     45451     45447     45450
     45451     45447     45449     45451     45447     45448     45453     45457     45458
     45454     45453     45456     45454     45453     45455     45455     45453     45456
     45457     45453     45456     45457     45453     45455     45457     45453     45454
     45459     45463     45464     45460     45459     45462     45460     45459     45461
     45461     45459     45462     45463     45459     45462     45463     45459     45461
     45463     45459     45460     45465     45469     45470     45466     45465     45468
     45466     45465     45467     45467     45465     45468     45469     45465     45468
     45469     45465     45467     45469     45465     45466     45471     45475     45476
     45472     45471     45474     45472     45471     45473     45473     45471     45474
     45475     45471     45474     45475     45471     45473     45475     45471     45472
     45477     45481     45482     45478     45477     45480     45478     45477     45479
     45479     45477     45480     45481     45477     45480     45481     45477     45479
     45481     45477     45478     45483     45487     45488     45484     45483     45486
     45484     45483     45485     45485     45483     45486     45487     45483     45486
     45487     45483     45485     45487     45483     45484     45489     45493     45494
     45490     45489     45492     45490     45489     45491     45491     45489     45492
     45493     45489     45492     45493     45489     45491     45493     45489     45490
     45495     45499     45500     45496     45495     45498     45496     45495     45497
     45497     45495     45498     45499     45495     45498     45499     45495     45497
     45499     45495     45496     45501     45505     45506     45502     45501     45504
     45502     45501     45503     45503     45501     45504     45505     45501     45504
     45505     45501     45503     45505     45501     45502     45507     45511     45512
     45508     45507     45510     45508     45507     45509     45509     45507     45510
     45511     45507     45510     45511     45507     45509     45511     45507     45508
     45513     45517     45518     45514     45513     45516     45514     45513     45515
     45515     45513     45516     45517     45513     45516     45517     45513     45515
     45517     45513     45514     45519     45523     45524     45520     45519     45522
     45520     45519     45521     45521     45519     45522     45523     45519     45522
     45523     45519     45521     45523     45519     45520     45525     45529     45530
     45526     45525     45528     45526     45525     45527     45527     45525     45528
     45529     45525     45528     45529     45525     45527     45529     45525     45526
     45531     45535     45536     45532     45531     45534     45532     45531     45533
     45533     45531     45534     45535     45531     45534     45535     45531     45533
     45535     45531     45532     45537     45541     45542     45538     45537     45540
     45538     45537     45539     45539     45537     45540     45541     45537     45540
     45541     45537     45539     45541     45537     45538     45543     45547     45548
     45544     45543     45546     45544     45543     45545     45545     45543     45546
     45547     45543     45546     45547     45543     45545     45547     45543     45544
     45549     45553     45554     45550     45549     45552     45550     45549     45551
     45551     45549     45552     45553     45549     45552     45553     45549     45551
     45553     45549     45550     45555     45559     45560     45556     45555     45558
     45556     45555     45557     45557     45555     45558     45559     45555     45558
     45559     45555     45557     45559     45555     45556     45561     45565     45566
     45562     45561     45564     45562     45561     45563     45563     45561     45564
     45565     45561     45564     45565     45561     45563     45565     45561     45562
     45567     45571     45572     45568     45567     45570     45568     45567     45569
     45569     45567     45570     45571     45567     45570     45571     45567     45569
     45571     45567     45568     45573     45577     45578     45574     45573     45576
     45574     45573     45575     45575     45573     45576     45577     45573     45576
     45577     45573     45575     45577     45573     45574     45579     45583     45584
     45580     45579     45582     45580     45579     45581     45581     45579     45582
     45583     45579     45582     45583     45579     45581     45583     45579     45580
     45585     45589     45590     45586     45585     45588     45586     45585     45587
     45587     45585     45588     45589     45585     45588     45589     45585     45587
     45589     45585     45586     45591     45595     45596     45592     45591     45594
     45592     45591     45593     45593     45591     45594     45595     45591     45594
     45595     45591     45593     45595     45591     45592     45597     45601     45602
     45598     45597     45600     45598     45597     45599     45599     45597     45600
     45601     45597     45600     45601     45597     45599     45601     45597     45598
     45603     45607     45608     45604     45603     45606     45604     45603     45605
     45605     45603     45606     45607     45603     45606     45607     45603     45605
     45607     45603     45604     45609     45613     45614     45610     45609     45612
     45610     45609     45611     45611     45609     45612     45613     45609     45612
     45613     45609     45611     45613     45609     45610     45615     45619     45620
     45616     45615     45618     45616     45615     45617     45617     45615     45618
     45619     45615     45618     45619     45615     45617     45619     45615     45616
     45621     45625     45626     45622     45621     45624     45622     45621     45623
     45623     45621     45624     45625     45621     45624     45625     45621     45623
     45625     45621     45622     45627     45631     45632     45628     45627     45630
     45628     45627     45629     45629     45627     45630     45631     45627     45630
     45631     45627     45629     45631     45627     45628     45633     45637     45638
     45634     45633     45636     45634     45633     45635     45635     45633     45636
     45637     45633     45636     45637     45633     45635     45637     45633     45634
     45639     45643     45644     45640     45639     45642     45640     45639     45641
     45641     45639     45642     45643     45639     45642     45643     45639     45641
     45643     45639     45640     45645     45649     45650     45646     45645     45648
     45646     45645     45647     45647     45645     45648     45649     45645     45648
     45649     45645     45647     45649     45645     45646     45651     45655     45656
     45652     45651     45654     45652     45651     45653     45653     45651     45654
     45655     45651     45654     45655     45651     45653     45655     45651     45652
     45657     45661     45662     45658     45657     45660     45658     45657     45659
     45659     45657     45660     45661     45657     45660     45661     45657     45659
     45661     45657     45658     45663     45667     45668     45664     45663     45666
     45664     45663     45665     45665     45663     45666     45667     45663     45666
     45667     45663     45665     45667     45663     45664     45669     45673     45674
     45670     45669     45672     45670     45669     45671     45671     45669     45672
     45673     45669     45672     45673     45669     45671     45673     45669     45670
     45675     45679     45680     45676     45675     45678     45676     45675     45677
     45677     45675     45678     45679     45675     45678     45679     45675     45677
     45679     45675     45676     45681     45685     45686     45682     45681     45684
     45682     45681     45683     45683     45681     45684     45685     45681     45684
     45685     45681     45683     45685     45681     45682     45687     45691     45692
     45688     45687     45690     45688     45687     45689     45689     45687     45690
     45691     45687     45690     45691     45687     45689     45691     45687     45688
     45693     45697     45698     45694     45693     45696     45694     45693     45695
     45695     45693     45696     45697     45693     45696     45697     45693     45695
     45697     45693     45694     45699     45703     45704     45700     45699     45702
     45700     45699     45701     45701     45699     45702     45703     45699     45702
     45703     45699     45701     45703     45699     45700     45705     45709     45710
     45706     45705     45708     45706     45705     45707     45707     45705     45708
     45709     45705     45708     45709     45705     45707     45709     45705     45706
     45711     45715     45716     45712     45711     45714     45712     45711     45713
     45713     45711     45714     45715     45711     45714     45715     45711     45713
     45715     45711     45712     45717     45721     45722     45718     45717     45720
     45718     45717     45719     45719     45717     45720     45721     45717     45720
     45721     45717     45719     45721     45717     45718     45723     45727     45728
     45724     45723     45726     45724     45723     45725     45725     45723     45726
     45727     45723     45726     45727     45723     45725     45727     45723     45724
     45729     45733     45734     45730     45729     45732     45730     45729     45731
     45731     45729     45732     45733     45729     45732     45733     45729     45731
     45733     45729     45730     45735     45739     45740     45736     45735     45738
     45736     45735     45737     45737     45735     45738     45739     45735     45738
     45739     45735     45737     45739     45735     45736     45741     45745     45746
     45742     45741     45744     45742     45741     45743     45743     45741     45744
     45745     45741     45744     45745     45741     45743     45745     45741     45742
     45747     45751     45752     45748     45747     45750     45748     45747     45749
     45749     45747     45750     45751     45747     45750     45751     45747     45749
     45751     45747     45748     45753     45757     45758     45754     45753     45756
     45754     45753     45755     45755     45753     45756     45757     45753     45756
     45757     45753     45755     45757     45753     45754     45759     45763     45764
     45760     45759     45762     45760     45759     45761     45761     45759     45762
     45763     45759     45762     45763     45759     45761     45763     45759     45760
     45765     45769     45770     45766     45765     45768     45766     45765     45767
     45767     45765     45768     45769     45765     45768     45769     45765     45767
     45769     45765     45766     45771     45775     45776     45772     45771     45774
     45772     45771     45773     45773     45771     45774     45775     45771     45774
     45775     45771     45773     45775     45771     45772     45777     45781     45782
     45778     45777     45780     45778     45777     45779     45779     45777     45780
     45781     45777     45780     45781     45777     45779     45781     45777     45778
     45783     45787     45788     45784     45783     45786     45784     45783     45785
     45785     45783     45786     45787     45783     45786     45787     45783     45785
     45787     45783     45784     45789     45793     45794     45790     45789     45792
     45790     45789     45791     45791     45789     45792     45793     45789     45792
     45793     45789     45791     45793     45789     45790     45795     45799     45800
     45796     45795     45798     45796     45795     45797     45797     45795     45798
     45799     45795     45798     45799     45795     45797     45799     45795     45796
     45801     45805     45806     45802     45801     45804     45802     45801     45803
     45803     45801     45804     45805     45801     45804     45805     45801     45803
     45805     45801     45802     45807     45811     45812     45808     45807     45810
     45808     45807     45809     45809     45807     45810     45811     45807     45810
     45811     45807     45809     45811     45807     45808     45813     45817     45818
     45814     45813     45816     45814     45813     45815     45815     45813     45816
     45817     45813     45816     45817     45813     45815     45817     45813     45814
     45819     45823     45824     45820     45819     45822     45820     45819     45821
     45821     45819     45822     45823     45819     45822     45823     45819     45821
     45823     45819     45820     45825     45829     45830     45826     45825     45828
     45826     45825     45827     45827     45825     45828     45829     45825     45828
     45829     45825     45827     45829     45825     45826     45831     45835     45836
     45832     45831     45834     45832     45831     45833     45833     45831     45834
     45835     45831     45834     45835     45831     45833     45835     45831     45832
     45837     45841     45842     45838     45837     45840     45838     45837     45839
     45839     45837     45840     45841     45837     45840     45841     45837     45839
     45841     45837     45838     45843     45847     45848     45844     45843     45846
     45844     45843     45845     45845     45843     45846     45847     45843     45846
     45847     45843     45845     45847     45843     45844     45849     45853     45854
     45850     45849     45852     45850     45849     45851     45851     45849     45852
     45853     45849     45852     45853     45849     45851     45853     45849     45850
     45855     45859     45860     45856     45855     45858     45856     45855     45857
     45857     45855     45858     45859     45855     45858     45859     45855     45857
     45859     45855     45856     45861     45865     45866     45862     45861     45864
     45862     45861     45863     45863     45861     45864     45865     45861     45864
     45865     45861     45863     45865     45861     45862     45867     45871     45872
     45868     45867     45870     45868     45867     45869     45869     45867     45870
     45871     45867     45870     45871     45867     45869     45871     45867     45868
     45873     45877     45878     45874     45873     45876     45874     45873     45875
     45875     45873     45876     45877     45873     45876     45877     45873     45875
     45877     45873     45874     45879     45883     45884     45880     45879     45882
     45880     45879     45881     45881     45879     45882     45883     45879     45882
     45883     45879     45881     45883     45879     45880     45885     45889     45890
     45886     45885     45888     45886     45885     45887     45887     45885     45888
     45889     45885     45888     45889     45885     45887     45889     45885     45886
     45891     45895     45896     45892     45891     45894     45892     45891     45893
     45893     45891     45894     45895     45891     45894     45895     45891     45893
     45895     45891     45892     45897     45901     45902     45898     45897     45900
     45898     45897     45899     45899     45897     45900     45901     45897     45900
     45901     45897     45899     45901     45897     45898     45903     45907     45908
     45904     45903     45906     45904     45903     45905     45905     45903     45906
     45907     45903     45906     45907     45903     45905     45907     45903     45904
     45909     45913     45914     45910     45909     45912     45910     45909     45911
     45911     45909     45912     45913     45909     45912     45913     45909     45911
     45913     45909     45910     45915     45919     45920     45916     45915     45918
     45916     45915     45917     45917     45915     45918     45919     45915     45918
     45919     45915     45917     45919     45915     45916     45921     45925     45926
     45922     45921     45924     45922     45921     45923     45923     45921     45924
     45925     45921     45924     45925     45921     45923     45925     45921     45922
     45927     45931     45932     45928     45927     45930     45928     45927     45929
     45929     45927     45930     45931     45927     45930     45931     45927     45929
     45931     45927     45928     45933     45937     45938     45934     45933     45936
     45934     45933     45935     45935     45933     45936     45937     45933     45936
     45937     45933     45935     45937     45933     45934     45939     45943     45944
     45940     45939     45942     45940     45939     45941     45941     45939     45942
     45943     45939     45942     45943     45939     45941     45943     45939     45940
     45945     45949     45950     45946     45945     45948     45946     45945     45947
     45947     45945     45948     45949     45945     45948     45949     45945     45947
     45949     45945     45946     45951     45955     45956     45952     45951     45954
     45952     45951     45953     45953     45951     45954     45955     45951     45954
     45955     45951     45953     45955     45951     45952     45957     45961     45962
     45958     45957     45960     45958     45957     45959     45959     45957     45960
     45961     45957     45960     45961     45957     45959     45961     45957     45958
     45963     45967     45968     45964     45963     45966     45964     45963     45965
     45965     45963     45966     45967     45963     45966     45967     45963     45965
     45967     45963     45964     45969     45973     45974     45970     45969     45972
     45970     45969     45971     45971     45969     45972     45973     45969     45972
     45973     45969     45971     45973     45969     45970     45975     45979     45980
     45976     45975     45978     45976     45975     45977     45977     45975     45978
     45979     45975     45978     45979     45975     45977     45979     45975     45976
     45981     45985     45986     45982     45981     45984     45982     45981     45983
     45983     45981     45984     45985     45981     45984     45985     45981     45983
     45985     45981     45982     45987     45991     45992     45988     45987     45990
     45988     45987     45989     45989     45987     45990     45991     45987     45990
     45991     45987     45989     45991     45987     45988     45993     45997     45998
     45994     45993     45996     45994     45993     45995     45995     45993     45996
     45997     45993     45996     45997     45993     45995     45997     45993     45994
     45999     46003     46004     46000     45999     46002     46000     45999     46001
     46001     45999     46002     46003     45999     46002     46003     45999     46001
     46003     45999     46000     46005     46009     46010     46006     46005     46008
     46006     46005     46007     46007     46005     46008     46009     46005     46008
     46009     46005     46007     46009     46005     46006     46011     46015     46016
     46012     46011     46014     46012     46011     46013     46013     46011     46014
     46015     46011     46014     46015     46011     46013     46015     46011     46012
     46017     46021     46022     46018     46017     46020     46018     46017     46019
     46019     46017     46020     46021     46017     46020     46021     46017     46019
     46021     46017     46018     46023     46027     46028     46024     46023     46026
     46024     46023     46025     46025     46023     46026     46027     46023     46026
     46027     46023     46025     46027     46023     46024     46029     46033     46034
     46030     46029     46032     46030     46029     46031     46031     46029     46032
     46033     46029     46032     46033     46029     46031     46033     46029     46030
     46035     46039     46040     46036     46035     46038     46036     46035     46037
     46037     46035     46038     46039     46035     46038     46039     46035     46037
     46039     46035     46036     46041     46045     46046     46042     46041     46044
     46042     46041     46043     46043     46041     46044     46045     46041     46044
     46045     46041     46043     46045     46041     46042     46047     46051     46052
     46048     46047     46050     46048     46047     46049     46049     46047     46050
     46051     46047     46050     46051     46047     46049     46051     46047     46048
     46053     46057     46058     46054     46053     46056     46054     46053     46055
     46055     46053     46056     46057     46053     46056     46057     46053     46055
     46057     46053     46054     46059     46063     46064     46060     46059     46062
     46060     46059     46061     46061     46059     46062     46063     46059     46062
     46063     46059     46061     46063     46059     46060     46065     46069     46070
     46066     46065     46068     46066     46065     46067     46067     46065     46068
     46069     46065     46068     46069     46065     46067     46069     46065     46066
     46071     46075     46076     46072     46071     46074     46072     46071     46073
     46073     46071     46074     46075     46071     46074     46075     46071     46073
     46075     46071     46072     46077     46081     46082     46078     46077     46080
     46078     46077     46079     46079     46077     46080     46081     46077     46080
     46081     46077     46079     46081     46077     46078     46083     46087     46088
     46084     46083     46086     46084     46083     46085     46085     46083     46086
     46087     46083     46086     46087     46083     46085     46087     46083     46084
     46089     46093     46094     46090     46089     46092     46090     46089     46091
     46091     46089     46092     46093     46089     46092     46093     46089     46091
     46093     46089     46090     46095     46099     46100     46096     46095     46098
     46096     46095     46097     46097     46095     46098     46099     46095     46098
     46099     46095     46097     46099     46095     46096     46101     46105     46106
     46102     46101     46104     46102     46101     46103     46103     46101     46104
     46105     46101     46104     46105     46101     46103     46105     46101     46102
     46107     46111     46112     46108     46107     46110     46108     46107     46109
     46109     46107     46110     46111     46107     46110     46111     46107     46109
     46111     46107     46108     46113     46117     46118     46114     46113     46116
     46114     46113     46115     46115     46113     46116     46117     46113     46116
     46117     46113     46115     46117     46113     46114     46119     46123     46124
     46120     46119     46122     46120     46119     46121     46121     46119     46122
     46123     46119     46122     46123     46119     46121     46123     46119     46120
     46125     46129     46130     46126     46125     46128     46126     46125     46127
     46127     46125     46128     46129     46125     46128     46129     46125     46127
     46129     46125     46126     46131     46135     46136     46132     46131     46134
     46132     46131     46133     46133     46131     46134     46135     46131     46134
     46135     46131     46133     46135     46131     46132     46137     46141     46142
     46138     46137     46140     46138     46137     46139     46139     46137     46140
     46141     46137     46140     46141     46137     46139     46141     46137     46138
     46143     46147     46148     46144     46143     46146     46144     46143     46145
     46145     46143     46146     46147     46143     46146     46147     46143     46145
     46147     46143     46144     46149     46153     46154     46150     46149     46152
     46150     46149     46151     46151     46149     46152     46153     46149     46152
     46153     46149     46151     46153     46149     46150     46155     46159     46160
     46156     46155     46158     46156     46155     46157     46157     46155     46158
     46159     46155     46158     46159     46155     46157     46159     46155     46156
     46161     46165     46166     46162     46161     46164     46162     46161     46163
     46163     46161     46164     46165     46161     46164     46165     46161     46163
     46165     46161     46162     46167     46171     46172     46168     46167     46170
     46168     46167     46169     46169     46167     46170     46171     46167     46170
     46171     46167     46169     46171     46167     46168     46173     46177     46178
     46174     46173     46176     46174     46173     46175     46175     46173     46176
     46177     46173     46176     46177     46173     46175     46177     46173     46174
     46179     46183     46184     46180     46179     46182     46180     46179     46181
     46181     46179     46182     46183     46179     46182     46183     46179     46181
     46183     46179     46180     46185     46189     46190     46186     46185     46188
     46186     46185     46187     46187     46185     46188     46189     46185     46188
     46189     46185     46187     46189     46185     46186     46191     46195     46196
     46192     46191     46194     46192     46191     46193     46193     46191     46194
     46195     46191     46194     46195     46191     46193     46195     46191     46192
     46197     46201     46202     46198     46197     46200     46198     46197     46199
     46199     46197     46200     46201     46197     46200     46201     46197     46199
     46201     46197     46198     46203     46207     46208     46204     46203     46206
     46204     46203     46205     46205     46203     46206     46207     46203     46206
     46207     46203     46205     46207     46203     46204     46209     46213     46214
     46210     46209     46212     46210     46209     46211     46211     46209     46212
     46213     46209     46212     46213     46209     46211     46213     46209     46210
     46215     46219     46220     46216     46215     46218     46216     46215     46217
     46217     46215     46218     46219     46215     46218     46219     46215     46217
     46219     46215     46216     46221     46225     46226     46222     46221     46224
     46222     46221     46223     46223     46221     46224     46225     46221     46224
     46225     46221     46223     46225     46221     46222     46227     46231     46232
     46228     46227     46230     46228     46227     46229     46229     46227     46230
     46231     46227     46230     46231     46227     46229     46231     46227     46228
     46233     46237     46238     46234     46233     46236     46234     46233     46235
     46235     46233     46236     46237     46233     46236     46237     46233     46235
     46237     46233     46234     46239     46243     46244     46240     46239     46242
     46240     46239     46241     46241     46239     46242     46243     46239     46242
     46243     46239     46241     46243     46239     46240     46245     46249     46250
     46246     46245     46248     46246     46245     46247     46247     46245     46248
     46249     46245     46248     46249     46245     46247     46249     46245     46246
     46251     46255     46256     46252     46251     46254     46252     46251     46253
     46253     46251     46254     46255     46251     46254     46255     46251     46253
     46255     46251     46252     46257     46261     46262     46258     46257     46260
     46258     46257     46259     46259     46257     46260     46261     46257     46260
     46261     46257     46259     46261     46257     46258     46263     46267     46268
     46264     46263     46266     46264     46263     46265     46265     46263     46266
     46267     46263     46266     46267     46263     46265     46267     46263     46264
     46269     46273     46274     46270     46269     46272     46270     46269     46271
     46271     46269     46272     46273     46269     46272     46273     46269     46271
     46273     46269     46270     46275     46279     46280     46276     46275     46278
     46276     46275     46277     46277     46275     46278     46279     46275     46278
     46279     46275     46277     46279     46275     46276     46281     46285     46286
     46282     46281     46284     46282     46281     46283     46283     46281     46284
     46285     46281     46284     46285     46281     46283     46285     46281     46282
     46287     46291     46292     46288     46287     46290     46288     46287     46289
     46289     46287     46290     46291     46287     46290     46291     46287     46289
     46291     46287     46288     46293     46297     46298     46294     46293     46296
     46294     46293     46295     46295     46293     46296     46297     46293     46296
     46297     46293     46295     46297     46293     46294     46299     46303     46304
     46300     46299     46302     46300     46299     46301     46301     46299     46302
     46303     46299     46302     46303     46299     46301     46303     46299     46300
     46305     46309     46310     46306     46305     46308     46306     46305     46307
     46307     46305     46308     46309     46305     46308     46309     46305     46307
     46309     46305     46306     46311     46315     46316     46312     46311     46314
     46312     46311     46313     46313     46311     46314     46315     46311     46314
     46315     46311     46313     46315     46311     46312     46317     46321     46322
     46318     46317     46320     46318     46317     46319     46319     46317     46320
     46321     46317     46320     46321     46317     46319     46321     46317     46318
     46323     46327     46328     46324     46323     46326     46324     46323     46325
     46325     46323     46326     46327     46323     46326     46327     46323     46325
     46327     46323     46324     46329     46333     46334     46330     46329     46332
     46330     46329     46331     46331     46329     46332     46333     46329     46332
     46333     46329     46331     46333     46329     46330     46335     46339     46340
     46336     46335     46338     46336     46335     46337     46337     46335     46338
     46339     46335     46338     46339     46335     46337     46339     46335     46336
     46341     46345     46346     46342     46341     46344     46342     46341     46343
     46343     46341     46344     46345     46341     46344     46345     46341     46343
     46345     46341     46342     46347     46351     46352     46348     46347     46350
     46348     46347     46349     46349     46347     46350     46351     46347     46350
     46351     46347     46349     46351     46347     46348     46353     46357     46358
     46354     46353     46356     46354     46353     46355     46355     46353     46356
     46357     46353     46356     46357     46353     46355     46357     46353     46354
     46359     46363     46364     46360     46359     46362     46360     46359     46361
     46361     46359     46362     46363     46359     46362     46363     46359     46361
     46363     46359     46360     46365     46369     46370     46366     46365     46368
     46366     46365     46367     46367     46365     46368     46369     46365     46368
     46369     46365     46367     46369     46365     46366     46371     46375     46376
     46372     46371     46374     46372     46371     46373     46373     46371     46374
     46375     46371     46374     46375     46371     46373     46375     46371     46372
     46377     46381     46382     46378     46377     46380     46378     46377     46379
     46379     46377     46380     46381     46377     46380     46381     46377     46379
     46381     46377     46378     46383     46387     46388     46384     46383     46386
     46384     46383     46385     46385     46383     46386     46387     46383     46386
     46387     46383     46385     46387     46383     46384     46389     46393     46394
     46390     46389     46392     46390     46389     46391     46391     46389     46392
     46393     46389     46392     46393     46389     46391     46393     46389     46390
     46395     46399     46400     46396     46395     46398     46396     46395     46397
     46397     46395     46398     46399     46395     46398     46399     46395     46397
     46399     46395     46396     46401     46405     46406     46402     46401     46404
     46402     46401     46403     46403     46401     46404     46405     46401     46404
     46405     46401     46403     46405     46401     46402     46407     46411     46412
     46408     46407     46410     46408     46407     46409     46409     46407     46410
     46411     46407     46410     46411     46407     46409     46411     46407     46408
     46413     46417     46418     46414     46413     46416     46414     46413     46415
     46415     46413     46416     46417     46413     46416     46417     46413     46415
     46417     46413     46414     46419     46423     46424     46420     46419     46422
     46420     46419     46421     46421     46419     46422     46423     46419     46422
     46423     46419     46421     46423     46419     46420     46425     46429     46430
     46426     46425     46428     46426     46425     46427     46427     46425     46428
     46429     46425     46428     46429     46425     46427     46429     46425     46426
     46431     46435     46436     46432     46431     46434     46432     46431     46433
     46433     46431     46434     46435     46431     46434     46435     46431     46433
     46435     46431     46432     46437     46441     46442     46438     46437     46440
     46438     46437     46439     46439     46437     46440     46441     46437     46440
     46441     46437     46439     46441     46437     46438     46443     46447     46448
     46444     46443     46446     46444     46443     46445     46445     46443     46446
     46447     46443     46446     46447     46443     46445     46447     46443     46444
     46449     46453     46454     46450     46449     46452     46450     46449     46451
     46451     46449     46452     46453     46449     46452     46453     46449     46451
     46453     46449     46450     46455     46459     46460     46456     46455     46458
     46456     46455     46457     46457     46455     46458     46459     46455     46458
     46459     46455     46457     46459     46455     46456     46461     46465     46466
     46462     46461     46464     46462     46461     46463     46463     46461     46464
     46465     46461     46464     46465     46461     46463     46465     46461     46462
     46467     46471     46472     46468     46467     46470     46468     46467     46469
     46469     46467     46470     46471     46467     46470     46471     46467     46469
     46471     46467     46468     46473     46477     46478     46474     46473     46476
     46474     46473     46475     46475     46473     46476     46477     46473     46476
     46477     46473     46475     46477     46473     46474     46479     46483     46484
     46480     46479     46482     46480     46479     46481     46481     46479     46482
     46483     46479     46482     46483     46479     46481     46483     46479     46480
     46485     46489     46490     46486     46485     46488     46486     46485     46487
     46487     46485     46488     46489     46485     46488     46489     46485     46487
     46489     46485     46486     46491     46495     46496     46492     46491     46494
     46492     46491     46493     46493     46491     46494     46495     46491     46494
     46495     46491     46493     46495     46491     46492     46497     46501     46502
     46498     46497     46500     46498     46497     46499     46499     46497     46500
     46501     46497     46500     46501     46497     46499     46501     46497     46498
     46503     46507     46508     46504     46503     46506     46504     46503     46505
     46505     46503     46506     46507     46503     46506     46507     46503     46505
     46507     46503     46504     46509     46513     46514     46510     46509     46512
     46510     46509     46511     46511     46509     46512     46513     46509     46512
     46513     46509     46511     46513     46509     46510     46515     46519     46520
     46516     46515     46518     46516     46515     46517     46517     46515     46518
     46519     46515     46518     46519     46515     46517     46519     46515     46516
     46521     46525     46526     46522     46521     46524     46522     46521     46523
     46523     46521     46524     46525     46521     46524     46525     46521     46523
     46525     46521     46522     46527     46531     46532     46528     46527     46530
     46528     46527     46529     46529     46527     46530     46531     46527     46530
     46531     46527     46529     46531     46527     46528     46533     46537     46538
     46534     46533     46536     46534     46533     46535     46535     46533     46536
     46537     46533     46536     46537     46533     46535     46537     46533     46534
     46539     46543     46544     46540     46539     46542     46540     46539     46541
     46541     46539     46542     46543     46539     46542     46543     46539     46541
     46543     46539     46540     46545     46549     46550     46546     46545     46548
     46546     46545     46547     46547     46545     46548     46549     46545     46548
     46549     46545     46547     46549     46545     46546     46551     46555     46556
     46552     46551     46554     46552     46551     46553     46553     46551     46554
     46555     46551     46554     46555     46551     46553     46555     46551     46552
     46557     46561     46562     46558     46557     46560     46558     46557     46559
     46559     46557     46560     46561     46557     46560     46561     46557     46559
     46561     46557     46558     46563     46567     46568     46564     46563     46566
     46564     46563     46565     46565     46563     46566     46567     46563     46566
     46567     46563     46565     46567     46563     46564     46569     46573     46574
     46570     46569     46572     46570     46569     46571     46571     46569     46572
     46573     46569     46572     46573     46569     46571     46573     46569     46570
     46575     46579     46580     46576     46575     46578     46576     46575     46577
     46577     46575     46578     46579     46575     46578     46579     46575     46577
     46579     46575     46576     46581     46585     46586     46582     46581     46584
     46582     46581     46583     46583     46581     46584     46585     46581     46584
     46585     46581     46583     46585     46581     46582     46587     46591     46592
     46588     46587     46590     46588     46587     46589     46589     46587     46590
     46591     46587     46590     46591     46587     46589     46591     46587     46588
     46593     46597     46598     46594     46593     46596     46594     46593     46595
     46595     46593     46596     46597     46593     46596     46597     46593     46595
     46597     46593     46594     46599     46603     46604     46600     46599     46602
     46600     46599     46601     46601     46599     46602     46603     46599     46602
     46603     46599     46601     46603     46599     46600     46605     46609     46610
     46606     46605     46608     46606     46605     46607     46607     46605     46608
     46609     46605     46608     46609     46605     46607     46609     46605     46606
     46611     46615     46616     46612     46611     46614     46612     46611     46613
     46613     46611     46614     46615     46611     46614     46615     46611     46613
     46615     46611     46612     46617     46621     46622     46618     46617     46620
     46618     46617     46619     46619     46617     46620     46621     46617     46620
     46621     46617     46619     46621     46617     46618     46623     46627     46628
     46624     46623     46626     46624     46623     46625     46625     46623     46626
     46627     46623     46626     46627     46623     46625     46627     46623     46624
     46629     46633     46634     46630     46629     46632     46630     46629     46631
     46631     46629     46632     46633     46629     46632     46633     46629     46631
     46633     46629     46630     46635     46639     46640     46636     46635     46638
     46636     46635     46637     46637     46635     46638     46639     46635     46638
     46639     46635     46637     46639     46635     46636     46641     46645     46646
     46642     46641     46644     46642     46641     46643     46643     46641     46644
     46645     46641     46644     46645     46641     46643     46645     46641     46642
     46647     46651     46652     46648     46647     46650     46648     46647     46649
     46649     46647     46650     46651     46647     46650     46651     46647     46649
     46651     46647     46648     46653     46657     46658     46654     46653     46656
     46654     46653     46655     46655     46653     46656     46657     46653     46656
     46657     46653     46655     46657     46653     46654     46659     46663     46664
     46660     46659     46662     46660     46659     46661     46661     46659     46662
     46663     46659     46662     46663     46659     46661     46663     46659     46660
     46665     46669     46670     46666     46665     46668     46666     46665     46667
     46667     46665     46668     46669     46665     46668     46669     46665     46667
     46669     46665     46666     46671     46675     46676     46672     46671     46674
     46672     46671     46673     46673     46671     46674     46675     46671     46674
     46675     46671     46673     46675     46671     46672     46677     46681     46682
     46678     46677     46680     46678     46677     46679     46679     46677     46680
     46681     46677     46680     46681     46677     46679     46681     46677     46678
     46683     46687     46688     46684     46683     46686     46684     46683     46685
     46685     46683     46686     46687     46683     46686     46687     46683     46685
     46687     46683     46684     46689     46693     46694     46690     46689     46692
     46690     46689     46691     46691     46689     46692     46693     46689     46692
     46693     46689     46691     46693     46689     46690     46695     46699     46700
     46696     46695     46698     46696     46695     46697     46697     46695     46698
     46699     46695     46698     46699     46695     46697     46699     46695     46696
     46701     46705     46706     46702     46701     46704     46702     46701     46703
     46703     46701     46704     46705     46701     46704     46705     46701     46703
     46705     46701     46702     46707     46711     46712     46708     46707     46710
     46708     46707     46709     46709     46707     46710     46711     46707     46710
     46711     46707     46709     46711     46707     46708     46713     46717     46718
     46714     46713     46716     46714     46713     46715     46715     46713     46716
     46717     46713     46716     46717     46713     46715     46717     46713     46714
     46719     46723     46724     46720     46719     46722     46720     46719     46721
     46721     46719     46722     46723     46719     46722     46723     46719     46721
     46723     46719     46720     46725     46729     46730     46726     46725     46728
     46726     46725     46727     46727     46725     46728     46729     46725     46728
     46729     46725     46727     46729     46725     46726     46731     46735     46736
     46732     46731     46734     46732     46731     46733     46733     46731     46734
     46735     46731     46734     46735     46731     46733     46735     46731     46732
     46737     46741     46742     46738     46737     46740     46738     46737     46739
     46739     46737     46740     46741     46737     46740     46741     46737     46739
     46741     46737     46738     46743     46747     46748     46744     46743     46746
     46744     46743     46745     46745     46743     46746     46747     46743     46746
     46747     46743     46745     46747     46743     46744     46749     46753     46754
     46750     46749     46752     46750     46749     46751     46751     46749     46752
     46753     46749     46752     46753     46749     46751     46753     46749     46750
     46755     46759     46760     46756     46755     46758     46756     46755     46757
     46757     46755     46758     46759     46755     46758     46759     46755     46757
     46759     46755     46756     46761     46765     46766     46762     46761     46764
     46762     46761     46763     46763     46761     46764     46765     46761     46764
     46765     46761     46763     46765     46761     46762     46767     46771     46772
     46768     46767     46770     46768     46767     46769     46769     46767     46770
     46771     46767     46770     46771     46767     46769     46771     46767     46768
     46773     46777     46778     46774     46773     46776     46774     46773     46775
     46775     46773     46776     46777     46773     46776     46777     46773     46775
     46777     46773     46774     46779     46783     46784     46780     46779     46782
     46780     46779     46781     46781     46779     46782     46783     46779     46782
     46783     46779     46781     46783     46779     46780     46785     46789     46790
     46786     46785     46788     46786     46785     46787     46787     46785     46788
     46789     46785     46788     46789     46785     46787     46789     46785     46786
     46791     46795     46796     46792     46791     46794     46792     46791     46793
     46793     46791     46794     46795     46791     46794     46795     46791     46793
     46795     46791     46792     46797     46801     46802     46798     46797     46800
     46798     46797     46799     46799     46797     46800     46801     46797     46800
     46801     46797     46799     46801     46797     46798     46803     46807     46808
     46804     46803     46806     46804     46803     46805     46805     46803     46806
     46807     46803     46806     46807     46803     46805     46807     46803     46804
     46809     46813     46814     46810     46809     46812     46810     46809     46811
     46811     46809     46812     46813     46809     46812     46813     46809     46811
     46813     46809     46810     46815     46819     46820     46816     46815     46818
     46816     46815     46817     46817     46815     46818     46819     46815     46818
     46819     46815     46817     46819     46815     46816     46821     46825     46826
     46822     46821     46824     46822     46821     46823     46823     46821     46824
     46825     46821     46824     46825     46821     46823     46825     46821     46822
     46827     46831     46832     46828     46827     46830     46828     46827     46829
     46829     46827     46830     46831     46827     46830     46831     46827     46829
     46831     46827     46828     46833     46837     46838     46834     46833     46836
     46834     46833     46835     46835     46833     46836     46837     46833     46836
     46837     46833     46835     46837     46833     46834     46839     46843     46844
     46840     46839     46842     46840     46839     46841     46841     46839     46842
     46843     46839     46842     46843     46839     46841     46843     46839     46840
     46845     46849     46850     46846     46845     46848     46846     46845     46847
     46847     46845     46848     46849     46845     46848     46849     46845     46847
     46849     46845     46846     46851     46855     46856     46852     46851     46854
     46852     46851     46853     46853     46851     46854     46855     46851     46854
     46855     46851     46853     46855     46851     46852     46857     46861     46862
     46858     46857     46860     46858     46857     46859     46859     46857     46860
     46861     46857     46860     46861     46857     46859     46861     46857     46858
     46863     46867     46868     46864     46863     46866     46864     46863     46865
     46865     46863     46866     46867     46863     46866     46867     46863     46865
     46867     46863     46864     46869     46873     46874     46870     46869     46872
     46870     46869     46871     46871     46869     46872     46873     46869     46872
     46873     46869     46871     46873     46869     46870     46875     46879     46880
     46876     46875     46878     46876     46875     46877     46877     46875     46878
     46879     46875     46878     46879     46875     46877     46879     46875     46876
     46881     46885     46886     46882     46881     46884     46882     46881     46883
     46883     46881     46884     46885     46881     46884     46885     46881     46883
     46885     46881     46882     46887     46891     46892     46888     46887     46890
     46888     46887     46889     46889     46887     46890     46891     46887     46890
     46891     46887     46889     46891     46887     46888     46893     46897     46898
     46894     46893     46896     46894     46893     46895     46895     46893     46896
     46897     46893     46896     46897     46893     46895     46897     46893     46894
     46899     46903     46904     46900     46899     46902     46900     46899     46901
     46901     46899     46902     46903     46899     46902     46903     46899     46901
     46903     46899     46900     46905     46909     46910     46906     46905     46908
     46906     46905     46907     46907     46905     46908     46909     46905     46908
     46909     46905     46907     46909     46905     46906     46911     46915     46916
     46912     46911     46914     46912     46911     46913     46913     46911     46914
     46915     46911     46914     46915     46911     46913     46915     46911     46912
     46917     46921     46922     46918     46917     46920     46918     46917     46919
     46919     46917     46920     46921     46917     46920     46921     46917     46919
     46921     46917     46918     46923     46927     46928     46924     46923     46926
     46924     46923     46925     46925     46923     46926     46927     46923     46926
     46927     46923     46925     46927     46923     46924     46929     46933     46934
     46930     46929     46932     46930     46929     46931     46931     46929     46932
     46933     46929     46932     46933     46929     46931     46933     46929     46930
     46935     46939     46940     46936     46935     46938     46936     46935     46937
     46937     46935     46938     46939     46935     46938     46939     46935     46937
     46939     46935     46936     46941     46945     46946     46942     46941     46944
     46942     46941     46943     46943     46941     46944     46945     46941     46944
     46945     46941     46943     46945     46941     46942     46947     46951     46952
     46948     46947     46950     46948     46947     46949     46949     46947     46950
     46951     46947     46950     46951     46947     46949     46951     46947     46948
     46953     46957     46958     46954     46953     46956     46954     46953     46955
     46955     46953     46956     46957     46953     46956     46957     46953     46955
     46957     46953     46954     46959     46963     46964     46960     46959     46962
     46960     46959     46961     46961     46959     46962     46963     46959     46962
     46963     46959     46961     46963     46959     46960     46965     46969     46970
     46966     46965     46968     46966     46965     46967     46967     46965     46968
     46969     46965     46968     46969     46965     46967     46969     46965     46966
     46971     46975     46976     46972     46971     46974     46972     46971     46973
     46973     46971     46974     46975     46971     46974     46975     46971     46973
     46975     46971     46972     46977     46981     46982     46978     46977     46980
     46978     46977     46979     46979     46977     46980     46981     46977     46980
     46981     46977     46979     46981     46977     46978     46983     46987     46988
     46984     46983     46986     46984     46983     46985     46985     46983     46986
     46987     46983     46986     46987     46983     46985     46987     46983     46984
     46989     46993     46994     46990     46989     46992     46990     46989     46991
     46991     46989     46992     46993     46989     46992     46993     46989     46991
     46993     46989     46990     46995     46999     47000     46996     46995     46998
     46996     46995     46997     46997     46995     46998     46999     46995     46998
     46999     46995     46997     46999     46995     46996     47001     47005     47006
     47002     47001     47004     47002     47001     47003     47003     47001     47004
     47005     47001     47004     47005     47001     47003     47005     47001     47002
     47007     47011     47012     47008     47007     47010     47008     47007     47009
     47009     47007     47010     47011     47007     47010     47011     47007     47009
     47011     47007     47008     47013     47017     47018     47014     47013     47016
     47014     47013     47015     47015     47013     47016     47017     47013     47016
     47017     47013     47015     47017     47013     47014     47019     47023     47024
     47020     47019     47022     47020     47019     47021     47021     47019     47022
     47023     47019     47022     47023     47019     47021     47023     47019     47020
     47025     47029     47030     47026     47025     47028     47026     47025     47027
     47027     47025     47028     47029     47025     47028     47029     47025     47027
     47029     47025     47026     47031     47035     47036     47032     47031     47034
     47032     47031     47033     47033     47031     47034     47035     47031     47034
     47035     47031     47033     47035     47031     47032     47037     47041     47042
     47038     47037     47040     47038     47037     47039     47039     47037     47040
     47041     47037     47040     47041     47037     47039     47041     47037     47038
     47043     47047     47048     47044     47043     47046     47044     47043     47045
     47045     47043     47046     47047     47043     47046     47047     47043     47045
     47047     47043     47044     47049     47053     47054     47050     47049     47052
     47050     47049     47051     47051     47049     47052     47053     47049     47052
     47053     47049     47051     47053     47049     47050     47055     47059     47060
     47056     47055     47058     47056     47055     47057     47057     47055     47058
     47059     47055     47058     47059     47055     47057     47059     47055     47056
     47061     47065     47066     47062     47061     47064     47062     47061     47063
     47063     47061     47064     47065     47061     47064     47065     47061     47063
     47065     47061     47062     47067     47071     47072     47068     47067     47070
     47068     47067     47069     47069     47067     47070     47071     47067     47070
     47071     47067     47069     47071     47067     47068     47073     47077     47078
     47074     47073     47076     47074     47073     47075     47075     47073     47076
     47077     47073     47076     47077     47073     47075     47077     47073     47074
     47079     47083     47084     47080     47079     47082     47080     47079     47081
     47081     47079     47082     47083     47079     47082     47083     47079     47081
     47083     47079     47080     47085     47089     47090     47086     47085     47088
     47086     47085     47087     47087     47085     47088     47089     47085     47088
     47089     47085     47087     47089     47085     47086     47091     47095     47096
     47092     47091     47094     47092     47091     47093     47093     47091     47094
     47095     47091     47094     47095     47091     47093     47095     47091     47092
     47097     47101     47102     47098     47097     47100     47098     47097     47099
     47099     47097     47100     47101     47097     47100     47101     47097     47099
     47101     47097     47098     47103     47107     47108     47104     47103     47106
     47104     47103     47105     47105     47103     47106     47107     47103     47106
     47107     47103     47105     47107     47103     47104     47109     47113     47114
     47110     47109     47112     47110     47109     47111     47111     47109     47112
     47113     47109     47112     47113     47109     47111     47113     47109     47110
     47115     47119     47120     47116     47115     47118     47116     47115     47117
     47117     47115     47118     47119     47115     47118     47119     47115     47117
     47119     47115     47116     47121     47125     47126     47122     47121     47124
     47122     47121     47123     47123     47121     47124     47125     47121     47124
     47125     47121     47123     47125     47121     47122     47127     47131     47132
     47128     47127     47130     47128     47127     47129     47129     47127     47130
     47131     47127     47130     47131     47127     47129     47131     47127     47128
     47133     47137     47138     47134     47133     47136     47134     47133     47135
     47135     47133     47136     47137     47133     47136     47137     47133     47135
     47137     47133     47134     47139     47143     47144     47140     47139     47142
     47140     47139     47141     47141     47139     47142     47143     47139     47142
     47143     47139     47141     47143     47139     47140     47145     47149     47150
     47146     47145     47148     47146     47145     47147     47147     47145     47148
     47149     47145     47148     47149     47145     47147     47149     47145     47146
     47151     47155     47156     47152     47151     47154     47152     47151     47153
     47153     47151     47154     47155     47151     47154     47155     47151     47153
     47155     47151     47152     47157     47161     47162     47158     47157     47160
     47158     47157     47159     47159     47157     47160     47161     47157     47160
     47161     47157     47159     47161     47157     47158     47163     47167     47168
     47164     47163     47166     47164     47163     47165     47165     47163     47166
     47167     47163     47166     47167     47163     47165     47167     47163     47164
     47169     47173     47174     47170     47169     47172     47170     47169     47171
     47171     47169     47172     47173     47169     47172     47173     47169     47171
     47173     47169     47170     47175     47179     47180     47176     47175     47178
     47176     47175     47177     47177     47175     47178     47179     47175     47178
     47179     47175     47177     47179     47175     47176     47181     47185     47186
     47182     47181     47184     47182     47181     47183     47183     47181     47184
     47185     47181     47184     47185     47181     47183     47185     47181     47182
     47187     47191     47192     47188     47187     47190     47188     47187     47189
     47189     47187     47190     47191     47187     47190     47191     47187     47189
     47191     47187     47188     47193     47197     47198     47194     47193     47196
     47194     47193     47195     47195     47193     47196     47197     47193     47196
     47197     47193     47195     47197     47193     47194     47199     47203     47204
     47200     47199     47202     47200     47199     47201     47201     47199     47202
     47203     47199     47202     47203     47199     47201     47203     47199     47200
     47205     47209     47210     47206     47205     47208     47206     47205     47207
     47207     47205     47208     47209     47205     47208     47209     47205     47207
     47209     47205     47206     47211     47215     47216     47212     47211     47214
     47212     47211     47213     47213     47211     47214     47215     47211     47214
     47215     47211     47213     47215     47211     47212     47217     47221     47222
     47218     47217     47220     47218     47217     47219     47219     47217     47220
     47221     47217     47220     47221     47217     47219     47221     47217     47218
     47223     47227     47228     47224     47223     47226     47224     47223     47225
     47225     47223     47226     47227     47223     47226     47227     47223     47225
     47227     47223     47224     47229     47233     47234     47230     47229     47232
     47230     47229     47231     47231     47229     47232     47233     47229     47232
     47233     47229     47231     47233     47229     47230     47235     47239     47240
     47236     47235     47238     47236     47235     47237     47237     47235     47238
     47239     47235     47238     47239     47235     47237     47239     47235     47236
     47241     47245     47246     47242     47241     47244     47242     47241     47243
     47243     47241     47244     47245     47241     47244     47245     47241     47243
     47245     47241     47242     47247     47251     47252     47248     47247     47250
     47248     47247     47249     47249     47247     47250     47251     47247     47250
     47251     47247     47249     47251     47247     47248     47253     47257     47258
     47254     47253     47256     47254     47253     47255     47255     47253     47256
     47257     47253     47256     47257     47253     47255     47257     47253     47254
     47259     47263     47264     47260     47259     47262     47260     47259     47261
     47261     47259     47262     47263     47259     47262     47263     47259     47261
     47263     47259     47260     47265     47269     47270     47266     47265     47268
     47266     47265     47267     47267     47265     47268     47269     47265     47268
     47269     47265     47267     47269     47265     47266     47271     47275     47276
     47272     47271     47274     47272     47271     47273     47273     47271     47274
     47275     47271     47274     47275     47271     47273     47275     47271     47272
     47277     47281     47282     47278     47277     47280     47278     47277     47279
     47279     47277     47280     47281     47277     47280     47281     47277     47279
     47281     47277     47278     47283     47287     47288     47284     47283     47286
     47284     47283     47285     47285     47283     47286     47287     47283     47286
     47287     47283     47285     47287     47283     47284     47289     47293     47294
     47290     47289     47292     47290     47289     47291     47291     47289     47292
     47293     47289     47292     47293     47289     47291     47293     47289     47290
     47295     47299     47300     47296     47295     47298     47296     47295     47297
     47297     47295     47298     47299     47295     47298     47299     47295     47297
     47299     47295     47296     47301     47305     47306     47302     47301     47304
     47302     47301     47303     47303     47301     47304     47305     47301     47304
     47305     47301     47303     47305     47301     47302     47307     47311     47312
     47308     47307     47310     47308     47307     47309     47309     47307     47310
     47311     47307     47310     47311     47307     47309     47311     47307     47308
     47313     47317     47318     47314     47313     47316     47314     47313     47315
     47315     47313     47316     47317     47313     47316     47317     47313     47315
     47317     47313     47314     47319     47323     47324     47320     47319     47322
     47320     47319     47321     47321     47319     47322     47323     47319     47322
     47323     47319     47321     47323     47319     47320     47325     47329     47330
     47326     47325     47328     47326     47325     47327     47327     47325     47328
     47329     47325     47328     47329     47325     47327     47329     47325     47326
     47331     47335     47336     47332     47331     47334     47332     47331     47333
     47333     47331     47334     47335     47331     47334     47335     47331     47333
     47335     47331     47332     47337     47341     47342     47338     47337     47340
     47338     47337     47339     47339     47337     47340     47341     47337     47340
     47341     47337     47339     47341     47337     47338     47343     47347     47348
     47344     47343     47346     47344     47343     47345     47345     47343     47346
     47347     47343     47346     47347     47343     47345     47347     47343     47344
     47349     47353     47354     47350     47349     47352     47350     47349     47351
     47351     47349     47352     47353     47349     47352     47353     47349     47351
     47353     47349     47350     47355     47359     47360     47356     47355     47358
     47356     47355     47357     47357     47355     47358     47359     47355     47358
     47359     47355     47357     47359     47355     47356     47361     47365     47366
     47362     47361     47364     47362     47361     47363     47363     47361     47364
     47365     47361     47364     47365     47361     47363     47365     47361     47362
     47367     47371     47372     47368     47367     47370     47368     47367     47369
     47369     47367     47370     47371     47367     47370     47371     47367     47369
     47371     47367     47368     47373     47377     47378     47374     47373     47376
     47374     47373     47375     47375     47373     47376     47377     47373     47376
     47377     47373     47375     47377     47373     47374     47379     47383     47384
     47380     47379     47382     47380     47379     47381     47381     47379     47382
     47383     47379     47382     47383     47379     47381     47383     47379     47380
     47385     47389     47390     47386     47385     47388     47386     47385     47387
     47387     47385     47388     47389     47385     47388     47389     47385     47387
     47389     47385     47386     47391     47395     47396     47392     47391     47394
     47392     47391     47393     47393     47391     47394     47395     47391     47394
     47395     47391     47393     47395     47391     47392     47397     47401     47402
     47398     47397     47400     47398     47397     47399     47399     47397     47400
     47401     47397     47400     47401     47397     47399     47401     47397     47398
     47403     47407     47408     47404     47403     47406     47404     47403     47405
     47405     47403     47406     47407     47403     47406     47407     47403     47405
     47407     47403     47404     47409     47413     47414     47410     47409     47412
     47410     47409     47411     47411     47409     47412     47413     47409     47412
     47413     47409     47411     47413     47409     47410     47415     47419     47420
     47416     47415     47418     47416     47415     47417     47417     47415     47418
     47419     47415     47418     47419     47415     47417     47419     47415     47416
     47421     47425     47426     47422     47421     47424     47422     47421     47423
     47423     47421     47424     47425     47421     47424     47425     47421     47423
     47425     47421     47422     47427     47431     47432     47428     47427     47430
     47428     47427     47429     47429     47427     47430     47431     47427     47430
     47431     47427     47429     47431     47427     47428     47433     47437     47438
     47434     47433     47436     47434     47433     47435     47435     47433     47436
     47437     47433     47436     47437     47433     47435     47437     47433     47434
     47439     47443     47444     47440     47439     47442     47440     47439     47441
     47441     47439     47442     47443     47439     47442     47443     47439     47441
     47443     47439     47440     47445     47449     47450     47446     47445     47448
     47446     47445     47447     47447     47445     47448     47449     47445     47448
     47449     47445     47447     47449     47445     47446     47451     47455     47456
     47452     47451     47454     47452     47451     47453     47453     47451     47454
     47455     47451     47454     47455     47451     47453     47455     47451     47452
     47457     47461     47462     47458     47457     47460     47458     47457     47459
     47459     47457     47460     47461     47457     47460     47461     47457     47459
     47461     47457     47458     47463     47467     47468     47464     47463     47466
     47464     47463     47465     47465     47463     47466     47467     47463     47466
     47467     47463     47465     47467     47463     47464     47469     47473     47474
     47470     47469     47472     47470     47469     47471     47471     47469     47472
     47473     47469     47472     47473     47469     47471     47473     47469     47470
     47475     47479     47480     47476     47475     47478     47476     47475     47477
     47477     47475     47478     47479     47475     47478     47479     47475     47477
     47479     47475     47476     47481     47485     47486     47482     47481     47484
     47482     47481     47483     47483     47481     47484     47485     47481     47484
     47485     47481     47483     47485     47481     47482     47487     47491     47492
     47488     47487     47490     47488     47487     47489     47489     47487     47490
     47491     47487     47490     47491     47487     47489     47491     47487     47488
     47493     47497     47498     47494     47493     47496     47494     47493     47495
     47495     47493     47496     47497     47493     47496     47497     47493     47495
     47497     47493     47494     47499     47503     47504     47500     47499     47502
     47500     47499     47501     47501     47499     47502     47503     47499     47502
     47503     47499     47501     47503     47499     47500     47505     47509     47510
     47506     47505     47508     47506     47505     47507     47507     47505     47508
     47509     47505     47508     47509     47505     47507     47509     47505     47506
     47511     47515     47516     47512     47511     47514     47512     47511     47513
     47513     47511     47514     47515     47511     47514     47515     47511     47513
     47515     47511     47512     47517     47521     47522     47518     47517     47520
     47518     47517     47519     47519     47517     47520     47521     47517     47520
     47521     47517     47519     47521     47517     47518     47523     47527     47528
     47524     47523     47526     47524     47523     47525     47525     47523     47526
     47527     47523     47526     47527     47523     47525     47527     47523     47524
     47529     47533     47534     47530     47529     47532     47530     47529     47531
     47531     47529     47532     47533     47529     47532     47533     47529     47531
     47533     47529     47530     47535     47539     47540     47536     47535     47538
     47536     47535     47537     47537     47535     47538     47539     47535     47538
     47539     47535     47537     47539     47535     47536     47541     47545     47546
     47542     47541     47544     47542     47541     47543     47543     47541     47544
     47545     47541     47544     47545     47541     47543     47545     47541     47542
     47547     47551     47552     47548     47547     47550     47548     47547     47549
     47549     47547     47550     47551     47547     47550     47551     47547     47549
     47551     47547     47548     47553     47557     47558     47554     47553     47556
     47554     47553     47555     47555     47553     47556     47557     47553     47556
     47557     47553     47555     47557     47553     47554     47559     47563     47564
     47560     47559     47562     47560     47559     47561     47561     47559     47562
     47563     47559     47562     47563     47559     47561     47563     47559     47560
     47565     47569     47570     47566     47565     47568     47566     47565     47567
     47567     47565     47568     47569     47565     47568     47569     47565     47567
     47569     47565     47566     47571     47575     47576     47572     47571     47574
     47572     47571     47573     47573     47571     47574     47575     47571     47574
     47575     47571     47573     47575     47571     47572     47577     47581     47582
     47578     47577     47580     47578     47577     47579     47579     47577     47580
     47581     47577     47580     47581     47577     47579     47581     47577     47578
     47583     47587     47588     47584     47583     47586     47584     47583     47585
     47585     47583     47586     47587     47583     47586     47587     47583     47585
     47587     47583     47584     47589     47593     47594     47590     47589     47592
     47590     47589     47591     47591     47589     47592     47593     47589     47592
     47593     47589     47591     47593     47589     47590     47595     47599     47600
     47596     47595     47598     47596     47595     47597     47597     47595     47598
     47599     47595     47598     47599     47595     47597     47599     47595     47596
     47601     47605     47606     47602     47601     47604     47602     47601     47603
     47603     47601     47604     47605     47601     47604     47605     47601     47603
     47605     47601     47602     47607     47611     47612     47608     47607     47610
     47608     47607     47609     47609     47607     47610     47611     47607     47610
     47611     47607     47609     47611     47607     47608     47613     47617     47618
     47614     47613     47616     47614     47613     47615     47615     47613     47616
     47617     47613     47616     47617     47613     47615     47617     47613     47614
     47619     47623     47624     47620     47619     47622     47620     47619     47621
     47621     47619     47622     47623     47619     47622     47623     47619     47621
     47623     47619     47620     47625     47629     47630     47626     47625     47628
     47626     47625     47627     47627     47625     47628     47629     47625     47628
     47629     47625     47627     47629     47625     47626     47631     47635     47636
     47632     47631     47634     47632     47631     47633     47633     47631     47634
     47635     47631     47634     47635     47631     47633     47635     47631     47632
     47637     47641     47642     47638     47637     47640     47638     47637     47639
     47639     47637     47640     47641     47637     47640     47641     47637     47639
     47641     47637     47638     47643     47647     47648     47644     47643     47646
     47644     47643     47645     47645     47643     47646     47647     47643     47646
     47647     47643     47645     47647     47643     47644     47649     47653     47654
     47650     47649     47652     47650     47649     47651     47651     47649     47652
     47653     47649     47652     47653     47649     47651     47653     47649     47650
     47655     47659     47660     47656     47655     47658     47656     47655     47657
     47657     47655     47658     47659     47655     47658     47659     47655     47657
     47659     47655     47656     47661     47665     47666     47662     47661     47664
     47662     47661     47663     47663     47661     47664     47665     47661     47664
     47665     47661     47663     47665     47661     47662     47667     47671     47672
     47668     47667     47670     47668     47667     47669     47669     47667     47670
     47671     47667     47670     47671     47667     47669     47671     47667     47668
     47673     47677     47678     47674     47673     47676     47674     47673     47675
     47675     47673     47676     47677     47673     47676     47677     47673     47675
     47677     47673     47674     47679     47683     47684     47680     47679     47682
     47680     47679     47681     47681     47679     47682     47683     47679     47682
     47683     47679     47681     47683     47679     47680     47685     47689     47690
     47686     47685     47688     47686     47685     47687     47687     47685     47688
     47689     47685     47688     47689     47685     47687     47689     47685     47686
     47691     47695     47696     47692     47691     47694     47692     47691     47693
     47693     47691     47694     47695     47691     47694     47695     47691     47693
     47695     47691     47692     47697     47701     47702     47698     47697     47700
     47698     47697     47699     47699     47697     47700     47701     47697     47700
     47701     47697     47699     47701     47697     47698     47703     47707     47708
     47704     47703     47706     47704     47703     47705     47705     47703     47706
     47707     47703     47706     47707     47703     47705     47707     47703     47704
     47709     47713     47714     47710     47709     47712     47710     47709     47711
     47711     47709     47712     47713     47709     47712     47713     47709     47711
     47713     47709     47710     47715     47719     47720     47716     47715     47718
     47716     47715     47717     47717     47715     47718     47719     47715     47718
     47719     47715     47717     47719     47715     47716     47721     47725     47726
     47722     47721     47724     47722     47721     47723     47723     47721     47724
     47725     47721     47724     47725     47721     47723     47725     47721     47722
     47727     47731     47732     47728     47727     47730     47728     47727     47729
     47729     47727     47730     47731     47727     47730     47731     47727     47729
     47731     47727     47728     47733     47737     47738     47734     47733     47736
     47734     47733     47735     47735     47733     47736     47737     47733     47736
     47737     47733     47735     47737     47733     47734     47739     47743     47744
     47740     47739     47742     47740     47739     47741     47741     47739     47742
     47743     47739     47742     47743     47739     47741     47743     47739     47740
     47745     47749     47750     47746     47745     47748     47746     47745     47747
     47747     47745     47748     47749     47745     47748     47749     47745     47747
     47749     47745     47746     47751     47755     47756     47752     47751     47754
     47752     47751     47753     47753     47751     47754     47755     47751     47754
     47755     47751     47753     47755     47751     47752     47757     47761     47762
     47758     47757     47760     47758     47757     47759     47759     47757     47760
     47761     47757     47760     47761     47757     47759     47761     47757     47758
     47763     47767     47768     47764     47763     47766     47764     47763     47765
     47765     47763     47766     47767     47763     47766     47767     47763     47765
     47767     47763     47764     47769     47773     47774     47770     47769     47772
     47770     47769     47771     47771     47769     47772     47773     47769     47772
     47773     47769     47771     47773     47769     47770     47775     47779     47780
     47776     47775     47778     47776     47775     47777     47777     47775     47778
     47779     47775     47778     47779     47775     47777     47779     47775     47776
     47781     47785     47786     47782     47781     47784     47782     47781     47783
     47783     47781     47784     47785     47781     47784     47785     47781     47783
     47785     47781     47782     47787     47791     47792     47788     47787     47790
     47788     47787     47789     47789     47787     47790     47791     47787     47790
     47791     47787     47789     47791     47787     47788     47793     47797     47798
     47794     47793     47796     47794     47793     47795     47795     47793     47796
     47797     47793     47796     47797     47793     47795     47797     47793     47794
     47799     47803     47804     47800     47799     47802     47800     47799     47801
     47801     47799     47802     47803     47799     47802     47803     47799     47801
     47803     47799     47800     47805     47809     47810     47806     47805     47808
     47806     47805     47807     47807     47805     47808     47809     47805     47808
     47809     47805     47807     47809     47805     47806     47811     47815     47816
     47812     47811     47814     47812     47811     47813     47813     47811     47814
     47815     47811     47814     47815     47811     47813     47815     47811     47812
     47817     47821     47822     47818     47817     47820     47818     47817     47819
     47819     47817     47820     47821     47817     47820     47821     47817     47819
     47821     47817     47818     47823     47827     47828     47824     47823     47826
     47824     47823     47825     47825     47823     47826     47827     47823     47826
     47827     47823     47825     47827     47823     47824     47829     47833     47834
     47830     47829     47832     47830     47829     47831     47831     47829     47832
     47833     47829     47832     47833     47829     47831     47833     47829     47830
     47835     47839     47840     47836     47835     47838     47836     47835     47837
     47837     47835     47838     47839     47835     47838     47839     47835     47837
     47839     47835     47836     47841     47845     47846     47842     47841     47844
     47842     47841     47843     47843     47841     47844     47845     47841     47844
     47845     47841     47843     47845     47841     47842     47847     47851     47852
     47848     47847     47850     47848     47847     47849     47849     47847     47850
     47851     47847     47850     47851     47847     47849     47851     47847     47848
     47853     47857     47858     47854     47853     47856     47854     47853     47855
     47855     47853     47856     47857     47853     47856     47857     47853     47855
     47857     47853     47854     47859     47863     47864     47860     47859     47862
     47860     47859     47861     47861     47859     47862     47863     47859     47862
     47863     47859     47861     47863     47859     47860     47865     47869     47870
     47866     47865     47868     47866     47865     47867     47867     47865     47868
     47869     47865     47868     47869     47865     47867     47869     47865     47866
     47871     47875     47876     47872     47871     47874     47872     47871     47873
     47873     47871     47874     47875     47871     47874     47875     47871     47873
     47875     47871     47872     47877     47881     47882     47878     47877     47880
     47878     47877     47879     47879     47877     47880     47881     47877     47880
     47881     47877     47879     47881     47877     47878     47883     47887     47888
     47884     47883     47886     47884     47883     47885     47885     47883     47886
     47887     47883     47886     47887     47883     47885     47887     47883     47884
     47889     47893     47894     47890     47889     47892     47890     47889     47891
     47891     47889     47892     47893     47889     47892     47893     47889     47891
     47893     47889     47890     47895     47899     47900     47896     47895     47898
     47896     47895     47897     47897     47895     47898     47899     47895     47898
     47899     47895     47897     47899     47895     47896     47901     47905     47906
     47902     47901     47904     47902     47901     47903     47903     47901     47904
     47905     47901     47904     47905     47901     47903     47905     47901     47902
     47907     47911     47912     47908     47907     47910     47908     47907     47909
     47909     47907     47910     47911     47907     47910     47911     47907     47909
     47911     47907     47908     47913     47917     47918     47914     47913     47916
     47914     47913     47915     47915     47913     47916     47917     47913     47916
     47917     47913     47915     47917     47913     47914     47919     47923     47924
     47920     47919     47922     47920     47919     47921     47921     47919     47922
     47923     47919     47922     47923     47919     47921     47923     47919     47920
     47925     47929     47930     47926     47925     47928     47926     47925     47927
     47927     47925     47928     47929     47925     47928     47929     47925     47927
     47929     47925     47926     47931     47935     47936     47932     47931     47934
     47932     47931     47933     47933     47931     47934     47935     47931     47934
     47935     47931     47933     47935     47931     47932     47937     47941     47942
     47938     47937     47940     47938     47937     47939     47939     47937     47940
     47941     47937     47940     47941     47937     47939     47941     47937     47938
     47943     47947     47948     47944     47943     47946     47944     47943     47945
     47945     47943     47946     47947     47943     47946     47947     47943     47945
     47947     47943     47944     47949     47953     47954     47950     47949     47952
     47950     47949     47951     47951     47949     47952     47953     47949     47952
     47953     47949     47951     47953     47949     47950     47955     47959     47960
     47956     47955     47958     47956     47955     47957     47957     47955     47958
     47959     47955     47958     47959     47955     47957     47959     47955     47956
     47961     47965     47966     47962     47961     47964     47962     47961     47963
     47963     47961     47964     47965     47961     47964     47965     47961     47963
     47965     47961     47962     47967     47971     47972     47968     47967     47970
     47968     47967     47969     47969     47967     47970     47971     47967     47970
     47971     47967     47969     47971     47967     47968     47973     47977     47978
     47974     47973     47976     47974     47973     47975     47975     47973     47976
     47977     47973     47976     47977     47973     47975     47977     47973     47974
     47979     47983     47984     47980     47979     47982     47980     47979     47981
     47981     47979     47982     47983     47979     47982     47983     47979     47981
     47983     47979     47980     47985     47989     47990     47986     47985     47988
     47986     47985     47987     47987     47985     47988     47989     47985     47988
     47989     47985     47987     47989     47985     47986     47991     47995     47996
     47992     47991     47994     47992     47991     47993     47993     47991     47994
     47995     47991     47994     47995     47991     47993     47995     47991     47992
     47997     48001     48002     47998     47997     48000     47998     47997     47999
     47999     47997     48000     48001     47997     48000     48001     47997     47999
     48001     47997     47998     48003     48007     48008     48004     48003     48006
     48004     48003     48005     48005     48003     48006     48007     48003     48006
     48007     48003     48005     48007     48003     48004     48009     48013     48014
     48010     48009     48012     48010     48009     48011     48011     48009     48012
     48013     48009     48012     48013     48009     48011     48013     48009     48010
     48015     48019     48020     48016     48015     48018     48016     48015     48017
     48017     48015     48018     48019     48015     48018     48019     48015     48017
     48019     48015     48016     48021     48025     48026     48022     48021     48024
     48022     48021     48023     48023     48021     48024     48025     48021     48024
     48025     48021     48023     48025     48021     48022     48027     48031     48032
     48028     48027     48030     48028     48027     48029     48029     48027     48030
     48031     48027     48030     48031     48027     48029     48031     48027     48028
     48033     48037     48038     48034     48033     48036     48034     48033     48035
     48035     48033     48036     48037     48033     48036     48037     48033     48035
     48037     48033     48034     48039     48043     48044     48040     48039     48042
     48040     48039     48041     48041     48039     48042     48043     48039     48042
     48043     48039     48041     48043     48039     48040     48045     48049     48050
     48046     48045     48048     48046     48045     48047     48047     48045     48048
     48049     48045     48048     48049     48045     48047     48049     48045     48046
     48051     48055     48056     48052     48051     48054     48052     48051     48053
     48053     48051     48054     48055     48051     48054     48055     48051     48053
     48055     48051     48052     48057     48061     48062     48058     48057     48060
     48058     48057     48059     48059     48057     48060     48061     48057     48060
     48061     48057     48059     48061     48057     48058     48063     48067     48068
     48064     48063     48066     48064     48063     48065     48065     48063     48066
     48067     48063     48066     48067     48063     48065     48067     48063     48064
     48069     48073     48074     48070     48069     48072     48070     48069     48071
     48071     48069     48072     48073     48069     48072     48073     48069     48071
     48073     48069     48070     48075     48079     48080     48076     48075     48078
     48076     48075     48077     48077     48075     48078     48079     48075     48078
     48079     48075     48077     48079     48075     48076     48081     48085     48086
     48082     48081     48084     48082     48081     48083     48083     48081     48084
     48085     48081     48084     48085     48081     48083     48085     48081     48082
     48087     48091     48092     48088     48087     48090     48088     48087     48089
     48089     48087     48090     48091     48087     48090     48091     48087     48089
     48091     48087     48088     48093     48097     48098     48094     48093     48096
     48094     48093     48095     48095     48093     48096     48097     48093     48096
     48097     48093     48095     48097     48093     48094     48099     48103     48104
     48100     48099     48102     48100     48099     48101     48101     48099     48102
     48103     48099     48102     48103     48099     48101     48103     48099     48100
     48105     48109     48110     48106     48105     48108     48106     48105     48107
     48107     48105     48108     48109     48105     48108     48109     48105     48107
     48109     48105     48106     48111     48115     48116     48112     48111     48114
     48112     48111     48113     48113     48111     48114     48115     48111     48114
     48115     48111     48113     48115     48111     48112     48117     48121     48122
     48118     48117     48120     48118     48117     48119     48119     48117     48120
     48121     48117     48120     48121     48117     48119     48121     48117     48118
     48123     48127     48128     48124     48123     48126     48124     48123     48125
     48125     48123     48126     48127     48123     48126     48127     48123     48125
     48127     48123     48124     48129     48133     48134     48130     48129     48132
     48130     48129     48131     48131     48129     48132     48133     48129     48132
     48133     48129     48131     48133     48129     48130     48135     48139     48140
     48136     48135     48138     48136     48135     48137     48137     48135     48138
     48139     48135     48138     48139     48135     48137     48139     48135     48136
     48141     48145     48146     48142     48141     48144     48142     48141     48143
     48143     48141     48144     48145     48141     48144     48145     48141     48143
     48145     48141     48142     48147     48151     48152     48148     48147     48150
     48148     48147     48149     48149     48147     48150     48151     48147     48150
     48151     48147     48149     48151     48147     48148     48153     48157     48158
     48154     48153     48156     48154     48153     48155     48155     48153     48156
     48157     48153     48156     48157     48153     48155     48157     48153     48154
     48159     48163     48164     48160     48159     48162     48160     48159     48161
     48161     48159     48162     48163     48159     48162     48163     48159     48161
     48163     48159     48160     48165     48169     48170     48166     48165     48168
     48166     48165     48167     48167     48165     48168     48169     48165     48168
     48169     48165     48167     48169     48165     48166     48171     48175     48176
     48172     48171     48174     48172     48171     48173     48173     48171     48174
     48175     48171     48174     48175     48171     48173     48175     48171     48172
     48177     48181     48182     48178     48177     48180     48178     48177     48179
     48179     48177     48180     48181     48177     48180     48181     48177     48179
     48181     48177     48178     48183     48187     48188     48184     48183     48186
     48184     48183     48185     48185     48183     48186     48187     48183     48186
     48187     48183     48185     48187     48183     48184     48189     48193     48194
     48190     48189     48192     48190     48189     48191     48191     48189     48192
     48193     48189     48192     48193     48189     48191     48193     48189     48190
     48195     48199     48200     48196     48195     48198     48196     48195     48197
     48197     48195     48198     48199     48195     48198     48199     48195     48197
     48199     48195     48196     48201     48205     48206     48202     48201     48204
     48202     48201     48203     48203     48201     48204     48205     48201     48204
     48205     48201     48203     48205     48201     48202     48207     48211     48212
     48208     48207     48210     48208     48207     48209     48209     48207     48210
     48211     48207     48210     48211     48207     48209     48211     48207     48208
     48213     48217     48218     48214     48213     48216     48214     48213     48215
     48215     48213     48216     48217     48213     48216     48217     48213     48215
     48217     48213     48214     48219     48223     48224     48220     48219     48222
     48220     48219     48221     48221     48219     48222     48223     48219     48222
     48223     48219     48221     48223     48219     48220     48225     48229     48230
     48226     48225     48228     48226     48225     48227     48227     48225     48228
     48229     48225     48228     48229     48225     48227     48229     48225     48226
     48231     48235     48236     48232     48231     48234     48232     48231     48233
     48233     48231     48234     48235     48231     48234     48235     48231     48233
     48235     48231     48232     48237     48241     48242     48238     48237     48240
     48238     48237     48239     48239     48237     48240     48241     48237     48240
     48241     48237     48239     48241     48237     48238     48243     48247     48248
     48244     48243     48246     48244     48243     48245     48245     48243     48246
     48247     48243     48246     48247     48243     48245     48247     48243     48244
     48249     48253     48254     48250     48249     48252     48250     48249     48251
     48251     48249     48252     48253     48249     48252     48253     48249     48251
     48253     48249     48250     48255     48259     48260     48256     48255     48258
     48256     48255     48257     48257     48255     48258     48259     48255     48258
     48259     48255     48257     48259     48255     48256     48261     48265     48266
     48262     48261     48264     48262     48261     48263     48263     48261     48264
     48265     48261     48264     48265     48261     48263     48265     48261     48262
     48267     48271     48272     48268     48267     48270     48268     48267     48269
     48269     48267     48270     48271     48267     48270     48271     48267     48269
     48271     48267     48268     48273     48277     48278     48274     48273     48276
     48274     48273     48275     48275     48273     48276     48277     48273     48276
     48277     48273     48275     48277     48273     48274     48279     48283     48284
     48280     48279     48282     48280     48279     48281     48281     48279     48282
     48283     48279     48282     48283     48279     48281     48283     48279     48280
     48285     48289     48290     48286     48285     48288     48286     48285     48287
     48287     48285     48288     48289     48285     48288     48289     48285     48287
     48289     48285     48286     48291     48295     48296     48292     48291     48294
     48292     48291     48293     48293     48291     48294     48295     48291     48294
     48295     48291     48293     48295     48291     48292     48297     48301     48302
     48298     48297     48300     48298     48297     48299     48299     48297     48300
     48301     48297     48300     48301     48297     48299     48301     48297     48298
     48303     48307     48308     48304     48303     48306     48304     48303     48305
     48305     48303     48306     48307     48303     48306     48307     48303     48305
     48307     48303     48304     48309     48313     48314     48310     48309     48312
     48310     48309     48311     48311     48309     48312     48313     48309     48312
     48313     48309     48311     48313     48309     48310     48315     48319     48320
     48316     48315     48318     48316     48315     48317     48317     48315     48318
     48319     48315     48318     48319     48315     48317     48319     48315     48316
     48321     48325     48326     48322     48321     48324     48322     48321     48323
     48323     48321     48324     48325     48321     48324     48325     48321     48323
     48325     48321     48322     48327     48331     48332     48328     48327     48330
     48328     48327     48329     48329     48327     48330     48331     48327     48330
     48331     48327     48329     48331     48327     48328     48333     48337     48338
     48334     48333     48336     48334     48333     48335     48335     48333     48336
     48337     48333     48336     48337     48333     48335     48337     48333     48334
     48339     48343     48344     48340     48339     48342     48340     48339     48341
     48341     48339     48342     48343     48339     48342     48343     48339     48341
     48343     48339     48340     48345     48349     48350     48346     48345     48348
     48346     48345     48347     48347     48345     48348     48349     48345     48348
     48349     48345     48347     48349     48345     48346     48351     48355     48356
     48352     48351     48354     48352     48351     48353     48353     48351     48354
     48355     48351     48354     48355     48351     48353     48355     48351     48352
     48357     48361     48362     48358     48357     48360     48358     48357     48359
     48359     48357     48360     48361     48357     48360     48361     48357     48359
     48361     48357     48358     48363     48367     48368     48364     48363     48366
     48364     48363     48365     48365     48363     48366     48367     48363     48366
     48367     48363     48365     48367     48363     48364     48369     48373     48374
     48370     48369     48372     48370     48369     48371     48371     48369     48372
     48373     48369     48372     48373     48369     48371     48373     48369     48370
     48375     48379     48380     48376     48375     48378     48376     48375     48377
     48377     48375     48378     48379     48375     48378     48379     48375     48377
     48379     48375     48376     48381     48385     48386     48382     48381     48384
     48382     48381     48383     48383     48381     48384     48385     48381     48384
     48385     48381     48383     48385     48381     48382     48387     48391     48392
     48388     48387     48390     48388     48387     48389     48389     48387     48390
     48391     48387     48390     48391     48387     48389     48391     48387     48388
     48393     48397     48398     48394     48393     48396     48394     48393     48395
     48395     48393     48396     48397     48393     48396     48397     48393     48395
     48397     48393     48394     48399     48403     48404     48400     48399     48402
     48400     48399     48401     48401     48399     48402     48403     48399     48402
     48403     48399     48401     48403     48399     48400     48405     48409     48410
     48406     48405     48408     48406     48405     48407     48407     48405     48408
     48409     48405     48408     48409     48405     48407     48409     48405     48406
     48411     48415     48416     48412     48411     48414     48412     48411     48413
     48413     48411     48414     48415     48411     48414     48415     48411     48413
     48415     48411     48412     48417     48421     48422     48418     48417     48420
     48418     48417     48419     48419     48417     48420     48421     48417     48420
     48421     48417     48419     48421     48417     48418     48423     48427     48428
     48424     48423     48426     48424     48423     48425     48425     48423     48426
     48427     48423     48426     48427     48423     48425     48427     48423     48424
     48429     48433     48434     48430     48429     48432     48430     48429     48431
     48431     48429     48432     48433     48429     48432     48433     48429     48431
     48433     48429     48430     48435     48439     48440     48436     48435     48438
     48436     48435     48437     48437     48435     48438     48439     48435     48438
     48439     48435     48437     48439     48435     48436     48441     48445     48446
     48442     48441     48444     48442     48441     48443     48443     48441     48444
     48445     48441     48444     48445     48441     48443     48445     48441     48442
     48447     48451     48452     48448     48447     48450     48448     48447     48449
     48449     48447     48450     48451     48447     48450     48451     48447     48449
     48451     48447     48448     48453     48457     48458     48454     48453     48456
     48454     48453     48455     48455     48453     48456     48457     48453     48456
     48457     48453     48455     48457     48453     48454     48459     48463     48464
     48460     48459     48462     48460     48459     48461     48461     48459     48462
     48463     48459     48462     48463     48459     48461     48463     48459     48460
     48465     48469     48470     48466     48465     48468     48466     48465     48467
     48467     48465     48468     48469     48465     48468     48469     48465     48467
     48469     48465     48466     48471     48475     48476     48472     48471     48474
     48472     48471     48473     48473     48471     48474     48475     48471     48474
     48475     48471     48473     48475     48471     48472     48477     48481     48482
     48478     48477     48480     48478     48477     48479     48479     48477     48480
     48481     48477     48480     48481     48477     48479     48481     48477     48478
     48483     48487     48488     48484     48483     48486     48484     48483     48485
     48485     48483     48486     48487     48483     48486     48487     48483     48485
     48487     48483     48484     48489     48493     48494     48490     48489     48492
     48490     48489     48491     48491     48489     48492     48493     48489     48492
     48493     48489     48491     48493     48489     48490     48495     48499     48500
     48496     48495     48498     48496     48495     48497     48497     48495     48498
     48499     48495     48498     48499     48495     48497     48499     48495     48496
     48501     48505     48506     48502     48501     48504     48502     48501     48503
     48503     48501     48504     48505     48501     48504     48505     48501     48503
     48505     48501     48502     48507     48511     48512     48508     48507     48510
     48508     48507     48509     48509     48507     48510     48511     48507     48510
     48511     48507     48509     48511     48507     48508     48513     48517     48518
     48514     48513     48516     48514     48513     48515     48515     48513     48516
     48517     48513     48516     48517     48513     48515     48517     48513     48514
     48519     48523     48524     48520     48519     48522     48520     48519     48521
     48521     48519     48522     48523     48519     48522     48523     48519     48521
     48523     48519     48520     48525     48529     48530     48526     48525     48528
     48526     48525     48527     48527     48525     48528     48529     48525     48528
     48529     48525     48527     48529     48525     48526     48531     48535     48536
     48532     48531     48534     48532     48531     48533     48533     48531     48534
     48535     48531     48534     48535     48531     48533     48535     48531     48532
     48537     48541     48542     48538     48537     48540     48538     48537     48539
     48539     48537     48540     48541     48537     48540     48541     48537     48539
     48541     48537     48538     48543     48547     48548     48544     48543     48546
     48544     48543     48545     48545     48543     48546     48547     48543     48546
     48547     48543     48545     48547     48543     48544     48549     48553     48554
     48550     48549     48552     48550     48549     48551     48551     48549     48552
     48553     48549     48552     48553     48549     48551     48553     48549     48550
     48555     48559     48560     48556     48555     48558     48556     48555     48557
     48557     48555     48558     48559     48555     48558     48559     48555     48557
     48559     48555     48556     48561     48565     48566     48562     48561     48564
     48562     48561     48563     48563     48561     48564     48565     48561     48564
     48565     48561     48563     48565     48561     48562     48567     48571     48572
     48568     48567     48570     48568     48567     48569     48569     48567     48570
     48571     48567     48570     48571     48567     48569     48571     48567     48568
     48573     48577     48578     48574     48573     48576     48574     48573     48575
     48575     48573     48576     48577     48573     48576     48577     48573     48575
     48577     48573     48574     48579     48583     48584     48580     48579     48582
     48580     48579     48581     48581     48579     48582     48583     48579     48582
     48583     48579     48581     48583     48579     48580     48585     48589     48590
     48586     48585     48588     48586     48585     48587     48587     48585     48588
     48589     48585     48588     48589     48585     48587     48589     48585     48586
     48591     48595     48596     48592     48591     48594     48592     48591     48593
     48593     48591     48594     48595     48591     48594     48595     48591     48593
     48595     48591     48592     48597     48601     48602     48598     48597     48600
     48598     48597     48599     48599     48597     48600     48601     48597     48600
     48601     48597     48599     48601     48597     48598     48603     48607     48608
     48604     48603     48606     48604     48603     48605     48605     48603     48606
     48607     48603     48606     48607     48603     48605     48607     48603     48604
     48609     48613     48614     48610     48609     48612     48610     48609     48611
     48611     48609     48612     48613     48609     48612     48613     48609     48611
     48613     48609     48610     48615     48619     48620     48616     48615     48618
     48616     48615     48617     48617     48615     48618     48619     48615     48618
     48619     48615     48617     48619     48615     48616     48621     48625     48626
     48622     48621     48624     48622     48621     48623     48623     48621     48624
     48625     48621     48624     48625     48621     48623     48625     48621     48622
     48627     48631     48632     48628     48627     48630     48628     48627     48629
     48629     48627     48630     48631     48627     48630     48631     48627     48629
     48631     48627     48628     48633     48637     48638     48634     48633     48636
     48634     48633     48635     48635     48633     48636     48637     48633     48636
     48637     48633     48635     48637     48633     48634     48639     48643     48644
     48640     48639     48642     48640     48639     48641     48641     48639     48642
     48643     48639     48642     48643     48639     48641     48643     48639     48640
     48645     48649     48650     48646     48645     48648     48646     48645     48647
     48647     48645     48648     48649     48645     48648     48649     48645     48647
     48649     48645     48646     48651     48655     48656     48652     48651     48654
     48652     48651     48653     48653     48651     48654     48655     48651     48654
     48655     48651     48653     48655     48651     48652     48657     48661     48662
     48658     48657     48660     48658     48657     48659     48659     48657     48660
     48661     48657     48660     48661     48657     48659     48661     48657     48658
     48663     48667     48668     48664     48663     48666     48664     48663     48665
     48665     48663     48666     48667     48663     48666     48667     48663     48665
     48667     48663     48664     48669     48673     48674     48670     48669     48672
     48670     48669     48671     48671     48669     48672     48673     48669     48672
     48673     48669     48671     48673     48669     48670     48675     48679     48680
     48676     48675     48678     48676     48675     48677     48677     48675     48678
     48679     48675     48678     48679     48675     48677     48679     48675     48676
     48681     48685     48686     48682     48681     48684     48682     48681     48683
     48683     48681     48684     48685     48681     48684     48685     48681     48683
     48685     48681     48682     48687     48691     48692     48688     48687     48690
     48688     48687     48689     48689     48687     48690     48691     48687     48690
     48691     48687     48689     48691     48687     48688     48693     48697     48698
     48694     48693     48696     48694     48693     48695     48695     48693     48696
     48697     48693     48696     48697     48693     48695     48697     48693     48694
     48699     48703     48704     48700     48699     48702     48700     48699     48701
     48701     48699     48702     48703     48699     48702     48703     48699     48701
     48703     48699     48700     48705     48709     48710     48706     48705     48708
     48706     48705     48707     48707     48705     48708     48709     48705     48708
     48709     48705     48707     48709     48705     48706     48711     48715     48716
     48712     48711     48714     48712     48711     48713     48713     48711     48714
     48715     48711     48714     48715     48711     48713     48715     48711     48712
     48717     48721     48722     48718     48717     48720     48718     48717     48719
     48719     48717     48720     48721     48717     48720     48721     48717     48719
     48721     48717     48718     48723     48727     48728     48724     48723     48726
     48724     48723     48725     48725     48723     48726     48727     48723     48726
     48727     48723     48725     48727     48723     48724     48729     48733     48734
     48730     48729     48732     48730     48729     48731     48731     48729     48732
     48733     48729     48732     48733     48729     48731     48733     48729     48730
     48735     48739     48740     48736     48735     48738     48736     48735     48737
     48737     48735     48738     48739     48735     48738     48739     48735     48737
     48739     48735     48736     48741     48745     48746     48742     48741     48744
     48742     48741     48743     48743     48741     48744     48745     48741     48744
     48745     48741     48743     48745     48741     48742     48747     48751     48752
     48748     48747     48750     48748     48747     48749     48749     48747     48750
     48751     48747     48750     48751     48747     48749     48751     48747     48748
     48753     48757     48758     48754     48753     48756     48754     48753     48755
     48755     48753     48756     48757     48753     48756     48757     48753     48755
     48757     48753     48754     48759     48763     48764     48760     48759     48762
     48760     48759     48761     48761     48759     48762     48763     48759     48762
     48763     48759     48761     48763     48759     48760     48765     48769     48770
     48766     48765     48768     48766     48765     48767     48767     48765     48768
     48769     48765     48768     48769     48765     48767     48769     48765     48766
     48771     48775     48776     48772     48771     48774     48772     48771     48773
     48773     48771     48774     48775     48771     48774     48775     48771     48773
     48775     48771     48772     48777     48781     48782     48778     48777     48780
     48778     48777     48779     48779     48777     48780     48781     48777     48780
     48781     48777     48779     48781     48777     48778     48783     48787     48788
     48784     48783     48786     48784     48783     48785     48785     48783     48786
     48787     48783     48786     48787     48783     48785     48787     48783     48784
     48789     48793     48794     48790     48789     48792     48790     48789     48791
     48791     48789     48792     48793     48789     48792     48793     48789     48791
     48793     48789     48790     48795     48799     48800     48796     48795     48798
     48796     48795     48797     48797     48795     48798     48799     48795     48798
     48799     48795     48797     48799     48795     48796     48801     48805     48806
     48802     48801     48804     48802     48801     48803     48803     48801     48804
     48805     48801     48804     48805     48801     48803     48805     48801     48802
     48807     48811     48812     48808     48807     48810     48808     48807     48809
     48809     48807     48810     48811     48807     48810     48811     48807     48809
     48811     48807     48808     48813     48817     48818     48814     48813     48816
     48814     48813     48815     48815     48813     48816     48817     48813     48816
     48817     48813     48815     48817     48813     48814     48819     48823     48824
     48820     48819     48822     48820     48819     48821     48821     48819     48822
     48823     48819     48822     48823     48819     48821     48823     48819     48820
     48825     48829     48830     48826     48825     48828     48826     48825     48827
     48827     48825     48828     48829     48825     48828     48829     48825     48827
     48829     48825     48826     48831     48835     48836     48832     48831     48834
     48832     48831     48833     48833     48831     48834     48835     48831     48834
     48835     48831     48833     48835     48831     48832     48837     48841     48842
     48838     48837     48840     48838     48837     48839     48839     48837     48840
     48841     48837     48840     48841     48837     48839     48841     48837     48838
     48843     48847     48848     48844     48843     48846     48844     48843     48845
     48845     48843     48846     48847     48843     48846     48847     48843     48845
     48847     48843     48844     48849     48853     48854     48850     48849     48852
     48850     48849     48851     48851     48849     48852     48853     48849     48852
     48853     48849     48851     48853     48849     48850     48855     48859     48860
     48856     48855     48858     48856     48855     48857     48857     48855     48858
     48859     48855     48858     48859     48855     48857     48859     48855     48856
     48861     48865     48866     48862     48861     48864     48862     48861     48863
     48863     48861     48864     48865     48861     48864     48865     48861     48863
     48865     48861     48862     48867     48871     48872     48868     48867     48870
     48868     48867     48869     48869     48867     48870     48871     48867     48870
     48871     48867     48869     48871     48867     48868     48873     48877     48878
     48874     48873     48876     48874     48873     48875     48875     48873     48876
     48877     48873     48876     48877     48873     48875     48877     48873     48874
     48879     48883     48884     48880     48879     48882     48880     48879     48881
     48881     48879     48882     48883     48879     48882     48883     48879     48881
     48883     48879     48880     48885     48889     48890     48886     48885     48888
     48886     48885     48887     48887     48885     48888     48889     48885     48888
     48889     48885     48887     48889     48885     48886     48891     48895     48896
     48892     48891     48894     48892     48891     48893     48893     48891     48894
     48895     48891     48894     48895     48891     48893     48895     48891     48892
     48897     48901     48902     48898     48897     48900     48898     48897     48899
     48899     48897     48900     48901     48897     48900     48901     48897     48899
     48901     48897     48898     48903     48907     48908     48904     48903     48906
     48904     48903     48905     48905     48903     48906     48907     48903     48906
     48907     48903     48905     48907     48903     48904     48909     48913     48914
     48910     48909     48912     48910     48909     48911     48911     48909     48912
     48913     48909     48912     48913     48909     48911     48913     48909     48910
     48915     48919     48920     48916     48915     48918     48916     48915     48917
     48917     48915     48918     48919     48915     48918     48919     48915     48917
     48919     48915     48916     48921     48925     48926     48922     48921     48924
     48922     48921     48923     48923     48921     48924     48925     48921     48924
     48925     48921     48923     48925     48921     48922     48927     48931     48932
     48928     48927     48930     48928     48927     48929     48929     48927     48930
     48931     48927     48930     48931     48927     48929     48931     48927     48928
     48933     48937     48938     48934     48933     48936     48934     48933     48935
     48935     48933     48936     48937     48933     48936     48937     48933     48935
     48937     48933     48934     48939     48943     48944     48940     48939     48942
     48940     48939     48941     48941     48939     48942     48943     48939     48942
     48943     48939     48941     48943     48939     48940     48945     48949     48950
     48946     48945     48948     48946     48945     48947     48947     48945     48948
     48949     48945     48948     48949     48945     48947     48949     48945     48946
     48951     48955     48956     48952     48951     48954     48952     48951     48953
     48953     48951     48954     48955     48951     48954     48955     48951     48953
     48955     48951     48952     48957     48961     48962     48958     48957     48960
     48958     48957     48959     48959     48957     48960     48961     48957     48960
     48961     48957     48959     48961     48957     48958     48963     48967     48968
     48964     48963     48966     48964     48963     48965     48965     48963     48966
     48967     48963     48966     48967     48963     48965     48967     48963     48964
     48969     48973     48974     48970     48969     48972     48970     48969     48971
     48971     48969     48972     48973     48969     48972     48973     48969     48971
     48973     48969     48970     48975     48979     48980     48976     48975     48978
     48976     48975     48977     48977     48975     48978     48979     48975     48978
     48979     48975     48977     48979     48975     48976     48981     48985     48986
     48982     48981     48984     48982     48981     48983     48983     48981     48984
     48985     48981     48984     48985     48981     48983     48985     48981     48982
     48987     48991     48992     48988     48987     48990     48988     48987     48989
     48989     48987     48990     48991     48987     48990     48991     48987     48989
     48991     48987     48988     48993     48997     48998     48994     48993     48996
     48994     48993     48995     48995     48993     48996     48997     48993     48996
     48997     48993     48995     48997     48993     48994     48999     49003     49004
     49000     48999     49002     49000     48999     49001     49001     48999     49002
     49003     48999     49002     49003     48999     49001     49003     48999     49000
     49005     49009     49010     49006     49005     49008     49006     49005     49007
     49007     49005     49008     49009     49005     49008     49009     49005     49007
     49009     49005     49006     49011     49015     49016     49012     49011     49014
     49012     49011     49013     49013     49011     49014     49015     49011     49014
     49015     49011     49013     49015     49011     49012     49017     49021     49022
     49018     49017     49020     49018     49017     49019     49019     49017     49020
     49021     49017     49020     49021     49017     49019     49021     49017     49018
     49023     49027     49028     49024     49023     49026     49024     49023     49025
     49025     49023     49026     49027     49023     49026     49027     49023     49025
     49027     49023     49024     49029     49033     49034     49030     49029     49032
     49030     49029     49031     49031     49029     49032     49033     49029     49032
     49033     49029     49031     49033     49029     49030     49035     49039     49040
     49036     49035     49038     49036     49035     49037     49037     49035     49038
     49039     49035     49038     49039     49035     49037     49039     49035     49036
     49041     49045     49046     49042     49041     49044     49042     49041     49043
     49043     49041     49044     49045     49041     49044     49045     49041     49043
     49045     49041     49042     49047     49051     49052     49048     49047     49050
     49048     49047     49049     49049     49047     49050     49051     49047     49050
     49051     49047     49049     49051     49047     49048     49053     49057     49058
     49054     49053     49056     49054     49053     49055     49055     49053     49056
     49057     49053     49056     49057     49053     49055     49057     49053     49054
     49059     49063     49064     49060     49059     49062     49060     49059     49061
     49061     49059     49062     49063     49059     49062     49063     49059     49061
     49063     49059     49060     49065     49069     49070     49066     49065     49068
     49066     49065     49067     49067     49065     49068     49069     49065     49068
     49069     49065     49067     49069     49065     49066     49071     49075     49076
     49072     49071     49074     49072     49071     49073     49073     49071     49074
     49075     49071     49074     49075     49071     49073     49075     49071     49072
     49077     49081     49082     49078     49077     49080     49078     49077     49079
     49079     49077     49080     49081     49077     49080     49081     49077     49079
     49081     49077     49078     49083     49087     49088     49084     49083     49086
     49084     49083     49085     49085     49083     49086     49087     49083     49086
     49087     49083     49085     49087     49083     49084     49089     49093     49094
     49090     49089     49092     49090     49089     49091     49091     49089     49092
     49093     49089     49092     49093     49089     49091     49093     49089     49090
     49095     49099     49100     49096     49095     49098     49096     49095     49097
     49097     49095     49098     49099     49095     49098     49099     49095     49097
     49099     49095     49096     49101     49105     49106     49102     49101     49104
     49102     49101     49103     49103     49101     49104     49105     49101     49104
     49105     49101     49103     49105     49101     49102     49107     49111     49112
     49108     49107     49110     49108     49107     49109     49109     49107     49110
     49111     49107     49110     49111     49107     49109     49111     49107     49108
     49113     49117     49118     49114     49113     49116     49114     49113     49115
     49115     49113     49116     49117     49113     49116     49117     49113     49115
     49117     49113     49114     49119     49123     49124     49120     49119     49122
     49120     49119     49121     49121     49119     49122     49123     49119     49122
     49123     49119     49121     49123     49119     49120     49125     49129     49130
     49126     49125     49128     49126     49125     49127     49127     49125     49128
     49129     49125     49128     49129     49125     49127     49129     49125     49126
     49131     49135     49136     49132     49131     49134     49132     49131     49133
     49133     49131     49134     49135     49131     49134     49135     49131     49133
     49135     49131     49132     49137     49141     49142     49138     49137     49140
     49138     49137     49139     49139     49137     49140     49141     49137     49140
     49141     49137     49139     49141     49137     49138     49143     49147     49148
     49144     49143     49146     49144     49143     49145     49145     49143     49146
     49147     49143     49146     49147     49143     49145     49147     49143     49144
     49149     49153     49154     49150     49149     49152     49150     49149     49151
     49151     49149     49152     49153     49149     49152     49153     49149     49151
     49153     49149     49150     49155     49159     49160     49156     49155     49158
     49156     49155     49157     49157     49155     49158     49159     49155     49158
     49159     49155     49157     49159     49155     49156     49161     49165     49166
     49162     49161     49164     49162     49161     49163     49163     49161     49164
     49165     49161     49164     49165     49161     49163     49165     49161     49162
     49167     49171     49172     49168     49167     49170     49168     49167     49169
     49169     49167     49170     49171     49167     49170     49171     49167     49169
     49171     49167     49168     49173     49177     49178     49174     49173     49176
     49174     49173     49175     49175     49173     49176     49177     49173     49176
     49177     49173     49175     49177     49173     49174     49179     49183     49184
     49180     49179     49182     49180     49179     49181     49181     49179     49182
     49183     49179     49182     49183     49179     49181     49183     49179     49180
     49185     49189     49190     49186     49185     49188     49186     49185     49187
     49187     49185     49188     49189     49185     49188     49189     49185     49187
     49189     49185     49186     49191     49195     49196     49192     49191     49194
     49192     49191     49193     49193     49191     49194     49195     49191     49194
     49195     49191     49193     49195     49191     49192     49197     49201     49202
     49198     49197     49200     49198     49197     49199     49199     49197     49200
     49201     49197     49200     49201     49197     49199     49201     49197     49198
     49203     49207     49208     49204     49203     49206     49204     49203     49205
     49205     49203     49206     49207     49203     49206     49207     49203     49205
     49207     49203     49204     49209     49213     49214     49210     49209     49212
     49210     49209     49211     49211     49209     49212     49213     49209     49212
     49213     49209     49211     49213     49209     49210     49215     49219     49220
     49216     49215     49218     49216     49215     49217     49217     49215     49218
     49219     49215     49218     49219     49215     49217     49219     49215     49216
     49221     49225     49226     49222     49221     49224     49222     49221     49223
     49223     49221     49224     49225     49221     49224     49225     49221     49223
     49225     49221     49222     49227     49231     49232     49228     49227     49230
     49228     49227     49229     49229     49227     49230     49231     49227     49230
     49231     49227     49229     49231     49227     49228     49233     49237     49238
     49234     49233     49236     49234     49233     49235     49235     49233     49236
     49237     49233     49236     49237     49233     49235     49237     49233     49234
     49239     49243     49244     49240     49239     49242     49240     49239     49241
     49241     49239     49242     49243     49239     49242     49243     49239     49241
     49243     49239     49240     49245     49249     49250     49246     49245     49248
     49246     49245     49247     49247     49245     49248     49249     49245     49248
     49249     49245     49247     49249     49245     49246     49251     49255     49256
     49252     49251     49254     49252     49251     49253     49253     49251     49254
     49255     49251     49254     49255     49251     49253     49255     49251     49252
     49257     49261     49262     49258     49257     49260     49258     49257     49259
     49259     49257     49260     49261     49257     49260     49261     49257     49259
     49261     49257     49258     49263     49267     49268     49264     49263     49266
     49264     49263     49265     49265     49263     49266     49267     49263     49266
     49267     49263     49265     49267     49263     49264     49269     49273     49274
     49270     49269     49272     49270     49269     49271     49271     49269     49272
     49273     49269     49272     49273     49269     49271     49273     49269     49270
     49275     49279     49280     49276     49275     49278     49276     49275     49277
     49277     49275     49278     49279     49275     49278     49279     49275     49277
     49279     49275     49276     49281     49285     49286     49282     49281     49284
     49282     49281     49283     49283     49281     49284     49285     49281     49284
     49285     49281     49283     49285     49281     49282     49287     49291     49292
     49288     49287     49290     49288     49287     49289     49289     49287     49290
     49291     49287     49290     49291     49287     49289     49291     49287     49288
     49293     49297     49298     49294     49293     49296     49294     49293     49295
     49295     49293     49296     49297     49293     49296     49297     49293     49295
     49297     49293     49294     49299     49303     49304     49300     49299     49302
     49300     49299     49301     49301     49299     49302     49303     49299     49302
     49303     49299     49301     49303     49299     49300     49305     49309     49310
     49306     49305     49308     49306     49305     49307     49307     49305     49308
     49309     49305     49308     49309     49305     49307     49309     49305     49306
     49311     49315     49316     49312     49311     49314     49312     49311     49313
     49313     49311     49314     49315     49311     49314     49315     49311     49313
     49315     49311     49312     49317     49321     49322     49318     49317     49320
     49318     49317     49319     49319     49317     49320     49321     49317     49320
     49321     49317     49319     49321     49317     49318     49323     49327     49328
     49324     49323     49326     49324     49323     49325     49325     49323     49326
     49327     49323     49326     49327     49323     49325     49327     49323     49324
     49329     49333     49334     49330     49329     49332     49330     49329     49331
     49331     49329     49332     49333     49329     49332     49333     49329     49331
     49333     49329     49330     49335     49339     49340     49336     49335     49338
     49336     49335     49337     49337     49335     49338     49339     49335     49338
     49339     49335     49337     49339     49335     49336     49341     49345     49346
     49342     49341     49344     49342     49341     49343     49343     49341     49344
     49345     49341     49344     49345     49341     49343     49345     49341     49342
     49347     49351     49352     49348     49347     49350     49348     49347     49349
     49349     49347     49350     49351     49347     49350     49351     49347     49349
     49351     49347     49348     49353     49357     49358     49354     49353     49356
     49354     49353     49355     49355     49353     49356     49357     49353     49356
     49357     49353     49355     49357     49353     49354     49359     49363     49364
     49360     49359     49362     49360     49359     49361     49361     49359     49362
     49363     49359     49362     49363     49359     49361     49363     49359     49360
     49365     49369     49370     49366     49365     49368     49366     49365     49367
     49367     49365     49368     49369     49365     49368     49369     49365     49367
     49369     49365     49366     49371     49375     49376     49372     49371     49374
     49372     49371     49373     49373     49371     49374     49375     49371     49374
     49375     49371     49373     49375     49371     49372     49377     49381     49382
     49378     49377     49380     49378     49377     49379     49379     49377     49380
     49381     49377     49380     49381     49377     49379     49381     49377     49378
     49383     49387     49388     49384     49383     49386     49384     49383     49385
     49385     49383     49386     49387     49383     49386     49387     49383     49385
     49387     49383     49384     49389     49393     49394     49390     49389     49392
     49390     49389     49391     49391     49389     49392     49393     49389     49392
     49393     49389     49391     49393     49389     49390     49395     49399     49400
     49396     49395     49398     49396     49395     49397     49397     49395     49398
     49399     49395     49398     49399     49395     49397     49399     49395     49396
     49401     49405     49406     49402     49401     49404     49402     49401     49403
     49403     49401     49404     49405     49401     49404     49405     49401     49403
     49405     49401     49402     49407     49411     49412     49408     49407     49410
     49408     49407     49409     49409     49407     49410     49411     49407     49410
     49411     49407     49409     49411     49407     49408     49413     49417     49418
     49414     49413     49416     49414     49413     49415     49415     49413     49416
     49417     49413     49416     49417     49413     49415     49417     49413     49414
     49419     49423     49424     49420     49419     49422     49420     49419     49421
     49421     49419     49422     49423     49419     49422     49423     49419     49421
     49423     49419     49420     49425     49429     49430     49426     49425     49428
     49426     49425     49427     49427     49425     49428     49429     49425     49428
     49429     49425     49427     49429     49425     49426     49431     49435     49436
     49432     49431     49434     49432     49431     49433     49433     49431     49434
     49435     49431     49434     49435     49431     49433     49435     49431     49432
     49437     49441     49442     49438     49437     49440     49438     49437     49439
     49439     49437     49440     49441     49437     49440     49441     49437     49439
     49441     49437     49438     49443     49447     49448     49444     49443     49446
     49444     49443     49445     49445     49443     49446     49447     49443     49446
     49447     49443     49445     49447     49443     49444     49449     49453     49454
     49450     49449     49452     49450     49449     49451     49451     49449     49452
     49453     49449     49452     49453     49449     49451     49453     49449     49450
     49455     49459     49460     49456     49455     49458     49456     49455     49457
     49457     49455     49458     49459     49455     49458     49459     49455     49457
     49459     49455     49456     49461     49465     49466     49462     49461     49464
     49462     49461     49463     49463     49461     49464     49465     49461     49464
     49465     49461     49463     49465     49461     49462     49467     49471     49472
     49468     49467     49470     49468     49467     49469     49469     49467     49470
     49471     49467     49470     49471     49467     49469     49471     49467     49468
     49473     49477     49478     49474     49473     49476     49474     49473     49475
     49475     49473     49476     49477     49473     49476     49477     49473     49475
     49477     49473     49474     49479     49483     49484     49480     49479     49482
     49480     49479     49481     49481     49479     49482     49483     49479     49482
     49483     49479     49481     49483     49479     49480     49485     49489     49490
     49486     49485     49488     49486     49485     49487     49487     49485     49488
     49489     49485     49488     49489     49485     49487     49489     49485     49486
     49491     49495     49496     49492     49491     49494     49492     49491     49493
     49493     49491     49494     49495     49491     49494     49495     49491     49493
     49495     49491     49492     49497     49501     49502     49498     49497     49500
     49498     49497     49499     49499     49497     49500     49501     49497     49500
     49501     49497     49499     49501     49497     49498     49503     49507     49508
     49504     49503     49506     49504     49503     49505     49505     49503     49506
     49507     49503     49506     49507     49503     49505     49507     49503     49504
     49509     49513     49514     49510     49509     49512     49510     49509     49511
     49511     49509     49512     49513     49509     49512     49513     49509     49511
     49513     49509     49510     49515     49519     49520     49516     49515     49518
     49516     49515     49517     49517     49515     49518     49519     49515     49518
     49519     49515     49517     49519     49515     49516     49521     49525     49526
     49522     49521     49524     49522     49521     49523     49523     49521     49524
     49525     49521     49524     49525     49521     49523     49525     49521     49522
     49527     49531     49532     49528     49527     49530     49528     49527     49529
     49529     49527     49530     49531     49527     49530     49531     49527     49529
     49531     49527     49528     49533     49537     49538     49534     49533     49536
     49534     49533     49535     49535     49533     49536     49537     49533     49536
     49537     49533     49535     49537     49533     49534     49539     49543     49544
     49540     49539     49542     49540     49539     49541     49541     49539     49542
     49543     49539     49542     49543     49539     49541     49543     49539     49540
     49545     49549     49550     49546     49545     49548     49546     49545     49547
     49547     49545     49548     49549     49545     49548     49549     49545     49547
     49549     49545     49546     49551     49555     49556     49552     49551     49554
     49552     49551     49553     49553     49551     49554     49555     49551     49554
     49555     49551     49553     49555     49551     49552     49557     49561     49562
     49558     49557     49560     49558     49557     49559     49559     49557     49560
     49561     49557     49560     49561     49557     49559     49561     49557     49558
     49563     49567     49568     49564     49563     49566     49564     49563     49565
     49565     49563     49566     49567     49563     49566     49567     49563     49565
     49567     49563     49564     49569     49573     49574     49570     49569     49572
     49570     49569     49571     49571     49569     49572     49573     49569     49572
     49573     49569     49571     49573     49569     49570     49575     49579     49580
     49576     49575     49578     49576     49575     49577     49577     49575     49578
     49579     49575     49578     49579     49575     49577     49579     49575     49576
     49581     49585     49586     49582     49581     49584     49582     49581     49583
     49583     49581     49584     49585     49581     49584     49585     49581     49583
     49585     49581     49582     49587     49591     49592     49588     49587     49590
     49588     49587     49589     49589     49587     49590     49591     49587     49590
     49591     49587     49589     49591     49587     49588     49593     49597     49598
     49594     49593     49596     49594     49593     49595     49595     49593     49596
     49597     49593     49596     49597     49593     49595     49597     49593     49594
     49599     49603     49604     49600     49599     49602     49600     49599     49601
     49601     49599     49602     49603     49599     49602     49603     49599     49601
     49603     49599     49600     49605     49609     49610     49606     49605     49608
     49606     49605     49607     49607     49605     49608     49609     49605     49608
     49609     49605     49607     49609     49605     49606     49611     49615     49616
     49612     49611     49614     49612     49611     49613     49613     49611     49614
     49615     49611     49614     49615     49611     49613     49615     49611     49612
     49617     49621     49622     49618     49617     49620     49618     49617     49619
     49619     49617     49620     49621     49617     49620     49621     49617     49619
     49621     49617     49618     49623     49627     49628     49624     49623     49626
     49624     49623     49625     49625     49623     49626     49627     49623     49626
     49627     49623     49625     49627     49623     49624     49629     49633     49634
     49630     49629     49632     49630     49629     49631     49631     49629     49632
     49633     49629     49632     49633     49629     49631     49633     49629     49630
     49635     49639     49640     49636     49635     49638     49636     49635     49637
     49637     49635     49638     49639     49635     49638     49639     49635     49637
     49639     49635     49636     49641     49645     49646     49642     49641     49644
     49642     49641     49643     49643     49641     49644     49645     49641     49644
     49645     49641     49643     49645     49641     49642     49647     49651     49652
     49648     49647     49650     49648     49647     49649     49649     49647     49650
     49651     49647     49650     49651     49647     49649     49651     49647     49648
     49653     49657     49658     49654     49653     49656     49654     49653     49655
     49655     49653     49656     49657     49653     49656     49657     49653     49655
     49657     49653     49654     49659     49663     49664     49660     49659     49662
     49660     49659     49661     49661     49659     49662     49663     49659     49662
     49663     49659     49661     49663     49659     49660     49665     49669     49670
     49666     49665     49668     49666     49665     49667     49667     49665     49668
     49669     49665     49668     49669     49665     49667     49669     49665     49666
     49671     49675     49676     49672     49671     49674     49672     49671     49673
     49673     49671     49674     49675     49671     49674     49675     49671     49673
     49675     49671     49672     49677     49681     49682     49678     49677     49680
     49678     49677     49679     49679     49677     49680     49681     49677     49680
     49681     49677     49679     49681     49677     49678     49683     49687     49688
     49684     49683     49686     49684     49683     49685     49685     49683     49686
     49687     49683     49686     49687     49683     49685     49687     49683     49684
     49689     49693     49694     49690     49689     49692     49690     49689     49691
     49691     49689     49692     49693     49689     49692     49693     49689     49691
     49693     49689     49690     49695     49699     49700     49696     49695     49698
     49696     49695     49697     49697     49695     49698     49699     49695     49698
     49699     49695     49697     49699     49695     49696     49701     49705     49706
     49702     49701     49704     49702     49701     49703     49703     49701     49704
     49705     49701     49704     49705     49701     49703     49705     49701     49702
     49707     49711     49712     49708     49707     49710     49708     49707     49709
     49709     49707     49710     49711     49707     49710     49711     49707     49709
     49711     49707     49708     49713     49717     49718     49714     49713     49716
     49714     49713     49715     49715     49713     49716     49717     49713     49716
     49717     49713     49715     49717     49713     49714     49719     49723     49724
     49720     49719     49722     49720     49719     49721     49721     49719     49722
     49723     49719     49722     49723     49719     49721     49723     49719     49720
     49725     49729     49730     49726     49725     49728     49726     49725     49727
     49727     49725     49728     49729     49725     49728     49729     49725     49727
     49729     49725     49726     49731     49735     49736     49732     49731     49734
     49732     49731     49733     49733     49731     49734     49735     49731     49734
     49735     49731     49733     49735     49731     49732     49737     49741     49742
     49738     49737     49740     49738     49737     49739     49739     49737     49740
     49741     49737     49740     49741     49737     49739     49741     49737     49738
     49743     49747     49748     49744     49743     49746     49744     49743     49745
     49745     49743     49746     49747     49743     49746     49747     49743     49745
     49747     49743     49744     49749     49753     49754     49750     49749     49752
     49750     49749     49751     49751     49749     49752     49753     49749     49752
     49753     49749     49751     49753     49749     49750     49755     49759     49760
     49756     49755     49758     49756     49755     49757     49757     49755     49758
     49759     49755     49758     49759     49755     49757     49759     49755     49756
     49761     49765     49766     49762     49761     49764     49762     49761     49763
     49763     49761     49764     49765     49761     49764     49765     49761     49763
     49765     49761     49762     49767     49771     49772     49768     49767     49770
     49768     49767     49769     49769     49767     49770     49771     49767     49770
     49771     49767     49769     49771     49767     49768     49773     49777     49778
     49774     49773     49776     49774     49773     49775     49775     49773     49776
     49777     49773     49776     49777     49773     49775     49777     49773     49774
     49779     49783     49784     49780     49779     49782     49780     49779     49781
     49781     49779     49782     49783     49779     49782     49783     49779     49781
     49783     49779     49780     49785     49789     49790     49786     49785     49788
     49786     49785     49787     49787     49785     49788     49789     49785     49788
     49789     49785     49787     49789     49785     49786     49791     49795     49796
     49792     49791     49794     49792     49791     49793     49793     49791     49794
     49795     49791     49794     49795     49791     49793     49795     49791     49792
     49797     49801     49802     49798     49797     49800     49798     49797     49799
     49799     49797     49800     49801     49797     49800     49801     49797     49799
     49801     49797     49798     49803     49807     49808     49804     49803     49806
     49804     49803     49805     49805     49803     49806     49807     49803     49806
     49807     49803     49805     49807     49803     49804     49809     49813     49814
     49810     49809     49812     49810     49809     49811     49811     49809     49812
     49813     49809     49812     49813     49809     49811     49813     49809     49810
     49815     49819     49820     49816     49815     49818     49816     49815     49817
     49817     49815     49818     49819     49815     49818     49819     49815     49817
     49819     49815     49816     49821     49825     49826     49822     49821     49824
     49822     49821     49823     49823     49821     49824     49825     49821     49824
     49825     49821     49823     49825     49821     49822     49827     49831     49832
     49828     49827     49830     49828     49827     49829     49829     49827     49830
     49831     49827     49830     49831     49827     49829     49831     49827     49828
     49833     49837     49838     49834     49833     49836     49834     49833     49835
     49835     49833     49836     49837     49833     49836     49837     49833     49835
     49837     49833     49834     49839     49843     49844     49840     49839     49842
     49840     49839     49841     49841     49839     49842     49843     49839     49842
     49843     49839     49841     49843     49839     49840     49845     49849     49850
     49846     49845     49848     49846     49845     49847     49847     49845     49848
     49849     49845     49848     49849     49845     49847     49849     49845     49846
     49851     49855     49856     49852     49851     49854     49852     49851     49853
     49853     49851     49854     49855     49851     49854     49855     49851     49853
     49855     49851     49852     49857     49861     49862     49858     49857     49860
     49858     49857     49859     49859     49857     49860     49861     49857     49860
     49861     49857     49859     49861     49857     49858     49863     49867     49868
     49864     49863     49866     49864     49863     49865     49865     49863     49866
     49867     49863     49866     49867     49863     49865     49867     49863     49864
     49869     49873     49874     49870     49869     49872     49870     49869     49871
     49871     49869     49872     49873     49869     49872     49873     49869     49871
     49873     49869     49870     49875     49879     49880     49876     49875     49878
     49876     49875     49877     49877     49875     49878     49879     49875     49878
     49879     49875     49877     49879     49875     49876     49881     49885     49886
     49882     49881     49884     49882     49881     49883     49883     49881     49884
     49885     49881     49884     49885     49881     49883     49885     49881     49882
     49887     49891     49892     49888     49887     49890     49888     49887     49889
     49889     49887     49890     49891     49887     49890     49891     49887     49889
     49891     49887     49888     49893     49897     49898     49894     49893     49896
     49894     49893     49895     49895     49893     49896     49897     49893     49896
     49897     49893     49895     49897     49893     49894     49899     49903     49904
     49900     49899     49902     49900     49899     49901     49901     49899     49902
     49903     49899     49902     49903     49899     49901     49903     49899     49900
     49905     49909     49910     49906     49905     49908     49906     49905     49907
     49907     49905     49908     49909     49905     49908     49909     49905     49907
     49909     49905     49906     49911     49915     49916     49912     49911     49914
     49912     49911     49913     49913     49911     49914     49915     49911     49914
     49915     49911     49913     49915     49911     49912     49917     49921     49922
     49918     49917     49920     49918     49917     49919     49919     49917     49920
     49921     49917     49920     49921     49917     49919     49921     49917     49918
     49923     49927     49928     49924     49923     49926     49924     49923     49925
     49925     49923     49926     49927     49923     49926     49927     49923     49925
     49927     49923     49924     49929     49933     49934     49930     49929     49932
     49930     49929     49931     49931     49929     49932     49933     49929     49932
     49933     49929     49931     49933     49929     49930     49935     49939     49940
     49936     49935     49938     49936     49935     49937     49937     49935     49938
     49939     49935     49938     49939     49935     49937     49939     49935     49936
     49941     49945     49946     49942     49941     49944     49942     49941     49943
     49943     49941     49944     49945     49941     49944     49945     49941     49943
     49945     49941     49942     49947     49951     49952     49948     49947     49950
     49948     49947     49949     49949     49947     49950     49951     49947     49950
     49951     49947     49949     49951     49947     49948     49953     49957     49958
     49954     49953     49956     49954     49953     49955     49955     49953     49956
     49957     49953     49956     49957     49953     49955     49957     49953     49954
     49959     49963     49964     49960     49959     49962     49960     49959     49961
     49961     49959     49962     49963     49959     49962     49963     49959     49961
     49963     49959     49960     49965     49969     49970     49966     49965     49968
     49966     49965     49967     49967     49965     49968     49969     49965     49968
     49969     49965     49967     49969     49965     49966     49971     49975     49976
     49972     49971     49974     49972     49971     49973     49973     49971     49974
     49975     49971     49974     49975     49971     49973     49975     49971     49972
     49977     49981     49982     49978     49977     49980     49978     49977     49979
     49979     49977     49980     49981     49977     49980     49981     49977     49979
     49981     49977     49978     49983     49987     49988     49984     49983     49986
     49984     49983     49985     49985     49983     49986     49987     49983     49986
     49987     49983     49985     49987     49983     49984     49989     49993     49994
     49990     49989     49992     49990     49989     49991     49991     49989     49992
     49993     49989     49992     49993     49989     49991     49993     49989     49990
     49995     49999     50000     49996     49995     49998     49996     49995     49997
     49997     49995     49998     49999     49995     49998     49999     49995     49997
     49999     49995     49996     50001     50005     50006     50002     50001     50004
     50002     50001     50003     50003     50001     50004     50005     50001     50004
     50005     50001     50003     50005     50001     50002     50007     50011     50012
     50008     50007     50010     50008     50007     50009     50009     50007     50010
     50011     50007     50010     50011     50007     50009     50011     50007     50008
     50013     50017     50018     50014     50013     50016     50014     50013     50015
     50015     50013     50016     50017     50013     50016     50017     50013     50015
     50017     50013     50014     50019     50023     50024     50020     50019     50022
     50020     50019     50021     50021     50019     50022     50023     50019     50022
     50023     50019     50021     50023     50019     50020     50025     50029     50030
     50026     50025     50028     50026     50025     50027     50027     50025     50028
     50029     50025     50028     50029     50025     50027     50029     50025     50026
     50031     50035     50036     50032     50031     50034     50032     50031     50033
     50033     50031     50034     50035     50031     50034     50035     50031     50033
     50035     50031     50032     50037     50041     50042     50038     50037     50040
     50038     50037     50039     50039     50037     50040     50041     50037     50040
     50041     50037     50039     50041     50037     50038     50043     50047     50048
     50044     50043     50046     50044     50043     50045     50045     50043     50046
     50047     50043     50046     50047     50043     50045     50047     50043     50044
     50049     50053     50054     50050     50049     50052     50050     50049     50051
     50051     50049     50052     50053     50049     50052     50053     50049     50051
     50053     50049     50050     50055     50059     50060     50056     50055     50058
     50056     50055     50057     50057     50055     50058     50059     50055     50058
     50059     50055     50057     50059     50055     50056     50061     50065     50066
     50062     50061     50064     50062     50061     50063     50063     50061     50064
     50065     50061     50064     50065     50061     50063     50065     50061     50062
     50067     50071     50072     50068     50067     50070     50068     50067     50069
     50069     50067     50070     50071     50067     50070     50071     50067     50069
     50071     50067     50068     50073     50077     50078     50074     50073     50076
     50074     50073     50075     50075     50073     50076     50077     50073     50076
     50077     50073     50075     50077     50073     50074     50079     50083     50084
     50080     50079     50082     50080     50079     50081     50081     50079     50082
     50083     50079     50082     50083     50079     50081     50083     50079     50080
     50085     50089     50090     50086     50085     50088     50086     50085     50087
     50087     50085     50088     50089     50085     50088     50089     50085     50087
     50089     50085     50086     50091     50095     50096     50092     50091     50094
     50092     50091     50093     50093     50091     50094     50095     50091     50094
     50095     50091     50093     50095     50091     50092     50097     50101     50102
     50098     50097     50100     50098     50097     50099     50099     50097     50100
     50101     50097     50100     50101     50097     50099     50101     50097     50098
     50103     50107     50108     50104     50103     50106     50104     50103     50105
     50105     50103     50106     50107     50103     50106     50107     50103     50105
     50107     50103     50104     50109     50113     50114     50110     50109     50112
     50110     50109     50111     50111     50109     50112     50113     50109     50112
     50113     50109     50111     50113     50109     50110     50115     50119     50120
     50116     50115     50118     50116     50115     50117     50117     50115     50118
     50119     50115     50118     50119     50115     50117     50119     50115     50116
     50121     50125     50126     50122     50121     50124     50122     50121     50123
     50123     50121     50124     50125     50121     50124     50125     50121     50123
     50125     50121     50122     50127     50131     50132     50128     50127     50130
     50128     50127     50129     50129     50127     50130     50131     50127     50130
     50131     50127     50129     50131     50127     50128     50133     50137     50138
     50134     50133     50136     50134     50133     50135     50135     50133     50136
     50137     50133     50136     50137     50133     50135     50137     50133     50134
     50139     50143     50144     50140     50139     50142     50140     50139     50141
     50141     50139     50142     50143     50139     50142     50143     50139     50141
     50143     50139     50140     50145     50149     50150     50146     50145     50148
     50146     50145     50147     50147     50145     50148     50149     50145     50148
     50149     50145     50147     50149     50145     50146     50151     50155     50156
     50152     50151     50154     50152     50151     50153     50153     50151     50154
     50155     50151     50154     50155     50151     50153     50155     50151     50152
     50157     50161     50162     50158     50157     50160     50158     50157     50159
     50159     50157     50160     50161     50157     50160     50161     50157     50159
     50161     50157     50158     50163     50167     50168     50164     50163     50166
     50164     50163     50165     50165     50163     50166     50167     50163     50166
     50167     50163     50165     50167     50163     50164     50169     50173     50174
     50170     50169     50172     50170     50169     50171     50171     50169     50172
     50173     50169     50172     50173     50169     50171     50173     50169     50170
     50175     50179     50180     50176     50175     50178     50176     50175     50177
     50177     50175     50178     50179     50175     50178     50179     50175     50177
     50179     50175     50176     50181     50185     50186     50182     50181     50184
     50182     50181     50183     50183     50181     50184     50185     50181     50184
     50185     50181     50183     50185     50181     50182     50187     50191     50192
     50188     50187     50190     50188     50187     50189     50189     50187     50190
     50191     50187     50190     50191     50187     50189     50191     50187     50188
     50193     50197     50198     50194     50193     50196     50194     50193     50195
     50195     50193     50196     50197     50193     50196     50197     50193     50195
     50197     50193     50194     50199     50203     50204     50200     50199     50202
     50200     50199     50201     50201     50199     50202     50203     50199     50202
     50203     50199     50201     50203     50199     50200     50205     50209     50210
     50206     50205     50208     50206     50205     50207     50207     50205     50208
     50209     50205     50208     50209     50205     50207     50209     50205     50206
     50211     50215     50216     50212     50211     50214     50212     50211     50213
     50213     50211     50214     50215     50211     50214     50215     50211     50213
     50215     50211     50212     50217     50221     50222     50218     50217     50220
     50218     50217     50219     50219     50217     50220     50221     50217     50220
     50221     50217     50219     50221     50217     50218     50223     50227     50228
     50224     50223     50226     50224     50223     50225     50225     50223     50226
     50227     50223     50226     50227     50223     50225     50227     50223     50224
     50229     50233     50234     50230     50229     50232     50230     50229     50231
     50231     50229     50232     50233     50229     50232     50233     50229     50231
     50233     50229     50230     50235     50239     50240     50236     50235     50238
     50236     50235     50237     50237     50235     50238     50239     50235     50238
     50239     50235     50237     50239     50235     50236     50241     50245     50246
     50242     50241     50244     50242     50241     50243     50243     50241     50244
     50245     50241     50244     50245     50241     50243     50245     50241     50242
     50247     50251     50252     50248     50247     50250     50248     50247     50249
     50249     50247     50250     50251     50247     50250     50251     50247     50249
     50251     50247     50248     50253     50257     50258     50254     50253     50256
     50254     50253     50255     50255     50253     50256     50257     50253     50256
     50257     50253     50255     50257     50253     50254     50259     50263     50264
     50260     50259     50262     50260     50259     50261     50261     50259     50262
     50263     50259     50262     50263     50259     50261     50263     50259     50260
     50265     50269     50270     50266     50265     50268     50266     50265     50267
     50267     50265     50268     50269     50265     50268     50269     50265     50267
     50269     50265     50266     50271     50275     50276     50272     50271     50274
     50272     50271     50273     50273     50271     50274     50275     50271     50274
     50275     50271     50273     50275     50271     50272     50277     50281     50282
     50278     50277     50280     50278     50277     50279     50279     50277     50280
     50281     50277     50280     50281     50277     50279     50281     50277     50278
     50283     50287     50288     50284     50283     50286     50284     50283     50285
     50285     50283     50286     50287     50283     50286     50287     50283     50285
     50287     50283     50284     50289     50293     50294     50290     50289     50292
     50290     50289     50291     50291     50289     50292     50293     50289     50292
     50293     50289     50291     50293     50289     50290     50295     50299     50300
     50296     50295     50298     50296     50295     50297     50297     50295     50298
     50299     50295     50298     50299     50295     50297     50299     50295     50296
     50301     50305     50306     50302     50301     50304     50302     50301     50303
     50303     50301     50304     50305     50301     50304     50305     50301     50303
     50305     50301     50302     50307     50311     50312     50308     50307     50310
     50308     50307     50309     50309     50307     50310     50311     50307     50310
     50311     50307     50309     50311     50307     50308     50313     50317     50318
     50314     50313     50316     50314     50313     50315     50315     50313     50316
     50317     50313     50316     50317     50313     50315     50317     50313     50314
     50319     50323     50324     50320     50319     50322     50320     50319     50321
     50321     50319     50322     50323     50319     50322     50323     50319     50321
     50323     50319     50320     50325     50329     50330     50326     50325     50328
     50326     50325     50327     50327     50325     50328     50329     50325     50328
     50329     50325     50327     50329     50325     50326     50331     50335     50336
     50332     50331     50334     50332     50331     50333     50333     50331     50334
     50335     50331     50334     50335     50331     50333     50335     50331     50332
     50337     50341     50342     50338     50337     50340     50338     50337     50339
     50339     50337     50340     50341     50337     50340     50341     50337     50339
     50341     50337     50338     50343     50347     50348     50344     50343     50346
     50344     50343     50345     50345     50343     50346     50347     50343     50346
     50347     50343     50345     50347     50343     50344     50349     50353     50354
     50350     50349     50352     50350     50349     50351     50351     50349     50352
     50353     50349     50352     50353     50349     50351     50353     50349     50350
     50355     50359     50360     50356     50355     50358     50356     50355     50357
     50357     50355     50358     50359     50355     50358     50359     50355     50357
     50359     50355     50356     50361     50365     50366     50362     50361     50364
     50362     50361     50363     50363     50361     50364     50365     50361     50364
     50365     50361     50363     50365     50361     50362     50367     50371     50372
     50368     50367     50370     50368     50367     50369     50369     50367     50370
     50371     50367     50370     50371     50367     50369     50371     50367     50368
     50373     50377     50378     50374     50373     50376     50374     50373     50375
     50375     50373     50376     50377     50373     50376     50377     50373     50375
     50377     50373     50374     50379     50383     50384     50380     50379     50382
     50380     50379     50381     50381     50379     50382     50383     50379     50382
     50383     50379     50381     50383     50379     50380     50385     50389     50390
     50386     50385     50388     50386     50385     50387     50387     50385     50388
     50389     50385     50388     50389     50385     50387     50389     50385     50386
     50391     50395     50396     50392     50391     50394     50392     50391     50393
     50393     50391     50394     50395     50391     50394     50395     50391     50393
     50395     50391     50392     50397     50401     50402     50398     50397     50400
     50398     50397     50399     50399     50397     50400     50401     50397     50400
     50401     50397     50399     50401     50397     50398     50403     50407     50408
     50404     50403     50406     50404     50403     50405     50405     50403     50406
     50407     50403     50406     50407     50403     50405     50407     50403     50404
     50409     50413     50414     50410     50409     50412     50410     50409     50411
     50411     50409     50412     50413     50409     50412     50413     50409     50411
     50413     50409     50410     50415     50419     50420     50416     50415     50418
     50416     50415     50417     50417     50415     50418     50419     50415     50418
     50419     50415     50417     50419     50415     50416     50421     50425     50426
     50422     50421     50424     50422     50421     50423     50423     50421     50424
     50425     50421     50424     50425     50421     50423     50425     50421     50422
     50427     50431     50432     50428     50427     50430     50428     50427     50429
     50429     50427     50430     50431     50427     50430     50431     50427     50429
     50431     50427     50428     50433     50437     50438     50434     50433     50436
     50434     50433     50435     50435     50433     50436     50437     50433     50436
     50437     50433     50435     50437     50433     50434     50439     50443     50444
     50440     50439     50442     50440     50439     50441     50441     50439     50442
     50443     50439     50442     50443     50439     50441     50443     50439     50440
     50445     50449     50450     50446     50445     50448     50446     50445     50447
     50447     50445     50448     50449     50445     50448     50449     50445     50447
     50449     50445     50446     50451     50455     50456     50452     50451     50454
     50452     50451     50453     50453     50451     50454     50455     50451     50454
     50455     50451     50453     50455     50451     50452     50457     50461     50462
     50458     50457     50460     50458     50457     50459     50459     50457     50460
     50461     50457     50460     50461     50457     50459     50461     50457     50458
     50463     50467     50468     50464     50463     50466     50464     50463     50465
     50465     50463     50466     50467     50463     50466     50467     50463     50465
     50467     50463     50464     50469     50473     50474     50470     50469     50472
     50470     50469     50471     50471     50469     50472     50473     50469     50472
     50473     50469     50471     50473     50469     50470     50475     50479     50480
     50476     50475     50478     50476     50475     50477     50477     50475     50478
     50479     50475     50478     50479     50475     50477     50479     50475     50476
     50481     50485     50486     50482     50481     50484     50482     50481     50483
     50483     50481     50484     50485     50481     50484     50485     50481     50483
     50485     50481     50482     50487     50491     50492     50488     50487     50490
     50488     50487     50489     50489     50487     50490     50491     50487     50490
     50491     50487     50489     50491     50487     50488     50493     50497     50498
     50494     50493     50496     50494     50493     50495     50495     50493     50496
     50497     50493     50496     50497     50493     50495     50497     50493     50494
     50499     50503     50504     50500     50499     50502     50500     50499     50501
     50501     50499     50502     50503     50499     50502     50503     50499     50501
     50503     50499     50500     50505     50509     50510     50506     50505     50508
     50506     50505     50507     50507     50505     50508     50509     50505     50508
     50509     50505     50507     50509     50505     50506     50511     50515     50516
     50512     50511     50514     50512     50511     50513     50513     50511     50514
     50515     50511     50514     50515     50511     50513     50515     50511     50512
     50517     50521     50522     50518     50517     50520     50518     50517     50519
     50519     50517     50520     50521     50517     50520     50521     50517     50519
     50521     50517     50518     50523     50527     50528     50524     50523     50526
     50524     50523     50525     50525     50523     50526     50527     50523     50526
     50527     50523     50525     50527     50523     50524     50529     50533     50534
     50530     50529     50532     50530     50529     50531     50531     50529     50532
     50533     50529     50532     50533     50529     50531     50533     50529     50530
     50535     50539     50540     50536     50535     50538     50536     50535     50537
     50537     50535     50538     50539     50535     50538     50539     50535     50537
     50539     50535     50536     50541     50545     50546     50542     50541     50544
     50542     50541     50543     50543     50541     50544     50545     50541     50544
     50545     50541     50543     50545     50541     50542     50547     50551     50552
     50548     50547     50550     50548     50547     50549     50549     50547     50550
     50551     50547     50550     50551     50547     50549     50551     50547     50548
     50553     50557     50558     50554     50553     50556     50554     50553     50555
     50555     50553     50556     50557     50553     50556     50557     50553     50555
     50557     50553     50554     50559     50563     50564     50560     50559     50562
     50560     50559     50561     50561     50559     50562     50563     50559     50562
     50563     50559     50561     50563     50559     50560     50565     50569     50570
     50566     50565     50568     50566     50565     50567     50567     50565     50568
     50569     50565     50568     50569     50565     50567     50569     50565     50566
     50571     50575     50576     50572     50571     50574     50572     50571     50573
     50573     50571     50574     50575     50571     50574     50575     50571     50573
     50575     50571     50572     50577     50581     50582     50578     50577     50580
     50578     50577     50579     50579     50577     50580     50581     50577     50580
     50581     50577     50579     50581     50577     50578     50583     50587     50588
     50584     50583     50586     50584     50583     50585     50585     50583     50586
     50587     50583     50586     50587     50583     50585     50587     50583     50584
     50589     50593     50594     50590     50589     50592     50590     50589     50591
     50591     50589     50592     50593     50589     50592     50593     50589     50591
     50593     50589     50590     50595     50599     50600     50596     50595     50598
     50596     50595     50597     50597     50595     50598     50599     50595     50598
     50599     50595     50597     50599     50595     50596     50601     50605     50606
     50602     50601     50604     50602     50601     50603     50603     50601     50604
     50605     50601     50604     50605     50601     50603     50605     50601     50602
     50607     50611     50612     50608     50607     50610     50608     50607     50609
     50609     50607     50610     50611     50607     50610     50611     50607     50609
     50611     50607     50608     50613     50617     50618     50614     50613     50616
     50614     50613     50615     50615     50613     50616     50617     50613     50616
     50617     50613     50615     50617     50613     50614     50619     50623     50624
     50620     50619     50622     50620     50619     50621     50621     50619     50622
     50623     50619     50622     50623     50619     50621     50623     50619     50620
     50625     50629     50630     50626     50625     50628     50626     50625     50627
     50627     50625     50628     50629     50625     50628     50629     50625     50627
     50629     50625     50626     50631     50635     50636     50632     50631     50634
     50632     50631     50633     50633     50631     50634     50635     50631     50634
     50635     50631     50633     50635     50631     50632     50637     50641     50642
     50638     50637     50640     50638     50637     50639     50639     50637     50640
     50641     50637     50640     50641     50637     50639     50641     50637     50638
     50643     50647     50648     50644     50643     50646     50644     50643     50645
     50645     50643     50646     50647     50643     50646     50647     50643     50645
     50647     50643     50644     50649     50653     50654     50650     50649     50652
     50650     50649     50651     50651     50649     50652     50653     50649     50652
     50653     50649     50651     50653     50649     50650     50655     50659     50660
     50656     50655     50658     50656     50655     50657     50657     50655     50658
     50659     50655     50658     50659     50655     50657     50659     50655     50656
     50661     50665     50666     50662     50661     50664     50662     50661     50663
     50663     50661     50664     50665     50661     50664     50665     50661     50663
     50665     50661     50662     50667     50671     50672     50668     50667     50670
     50668     50667     50669     50669     50667     50670     50671     50667     50670
     50671     50667     50669     50671     50667     50668     50673     50677     50678
     50674     50673     50676     50674     50673     50675     50675     50673     50676
     50677     50673     50676     50677     50673     50675     50677     50673     50674
     50679     50683     50684     50680     50679     50682     50680     50679     50681
     50681     50679     50682     50683     50679     50682     50683     50679     50681
     50683     50679     50680     50685     50689     50690     50686     50685     50688
     50686     50685     50687     50687     50685     50688     50689     50685     50688
     50689     50685     50687     50689     50685     50686     50691     50695     50696
     50692     50691     50694     50692     50691     50693     50693     50691     50694
     50695     50691     50694     50695     50691     50693     50695     50691     50692
     50697     50701     50702     50698     50697     50700     50698     50697     50699
     50699     50697     50700     50701     50697     50700     50701     50697     50699
     50701     50697     50698     50703     50707     50708     50704     50703     50706
     50704     50703     50705     50705     50703     50706     50707     50703     50706
     50707     50703     50705     50707     50703     50704     50709     50713     50714
     50710     50709     50712     50710     50709     50711     50711     50709     50712
     50713     50709     50712     50713     50709     50711     50713     50709     50710
     50715     50719     50720     50716     50715     50718     50716     50715     50717
     50717     50715     50718     50719     50715     50718     50719     50715     50717
     50719     50715     50716     50721     50725     50726     50722     50721     50724
     50722     50721     50723     50723     50721     50724     50725     50721     50724
     50725     50721     50723     50725     50721     50722     50727     50731     50732
     50728     50727     50730     50728     50727     50729     50729     50727     50730
     50731     50727     50730     50731     50727     50729     50731     50727     50728
     50733     50737     50738     50734     50733     50736     50734     50733     50735
     50735     50733     50736     50737     50733     50736     50737     50733     50735
     50737     50733     50734     50739     50743     50744     50740     50739     50742
     50740     50739     50741     50741     50739     50742     50743     50739     50742
     50743     50739     50741     50743     50739     50740     50745     50749     50750
     50746     50745     50748     50746     50745     50747     50747     50745     50748
     50749     50745     50748     50749     50745     50747     50749     50745     50746
     50751     50755     50756     50752     50751     50754     50752     50751     50753
     50753     50751     50754     50755     50751     50754     50755     50751     50753
     50755     50751     50752     50757     50761     50762     50758     50757     50760
     50758     50757     50759     50759     50757     50760     50761     50757     50760
     50761     50757     50759     50761     50757     50758     50763     50767     50768
     50764     50763     50766     50764     50763     50765     50765     50763     50766
     50767     50763     50766     50767     50763     50765     50767     50763     50764
     50769     50773     50774     50770     50769     50772     50770     50769     50771
     50771     50769     50772     50773     50769     50772     50773     50769     50771
     50773     50769     50770     50775     50779     50780     50776     50775     50778
     50776     50775     50777     50777     50775     50778     50779     50775     50778
     50779     50775     50777     50779     50775     50776     50781     50785     50786
     50782     50781     50784     50782     50781     50783     50783     50781     50784
     50785     50781     50784     50785     50781     50783     50785     50781     50782
     50787     50791     50792     50788     50787     50790     50788     50787     50789
     50789     50787     50790     50791     50787     50790     50791     50787     50789
     50791     50787     50788     50793     50797     50798     50794     50793     50796
     50794     50793     50795     50795     50793     50796     50797     50793     50796
     50797     50793     50795     50797     50793     50794     50799     50803     50804
     50800     50799     50802     50800     50799     50801     50801     50799     50802
     50803     50799     50802     50803     50799     50801     50803     50799     50800
     50805     50809     50810     50806     50805     50808     50806     50805     50807
     50807     50805     50808     50809     50805     50808     50809     50805     50807
     50809     50805     50806     50811     50815     50816     50812     50811     50814
     50812     50811     50813     50813     50811     50814     50815     50811     50814
     50815     50811     50813     50815     50811     50812     50817     50821     50822
     50818     50817     50820     50818     50817     50819     50819     50817     50820
     50821     50817     50820     50821     50817     50819     50821     50817     50818
     50823     50827     50828     50824     50823     50826     50824     50823     50825
     50825     50823     50826     50827     50823     50826     50827     50823     50825
     50827     50823     50824     50829     50833     50834     50830     50829     50832
     50830     50829     50831     50831     50829     50832     50833     50829     50832
     50833     50829     50831     50833     50829     50830     50835     50839     50840
     50836     50835     50838     50836     50835     50837     50837     50835     50838
     50839     50835     50838     50839     50835     50837     50839     50835     50836
     50841     50845     50846     50842     50841     50844     50842     50841     50843
     50843     50841     50844     50845     50841     50844     50845     50841     50843
     50845     50841     50842     50847     50851     50852     50848     50847     50850
     50848     50847     50849     50849     50847     50850     50851     50847     50850
     50851     50847     50849     50851     50847     50848     50853     50857     50858
     50854     50853     50856     50854     50853     50855     50855     50853     50856
     50857     50853     50856     50857     50853     50855     50857     50853     50854
     50859     50863     50864     50860     50859     50862     50860     50859     50861
     50861     50859     50862     50863     50859     50862     50863     50859     50861
     50863     50859     50860     50865     50869     50870     50866     50865     50868
     50866     50865     50867     50867     50865     50868     50869     50865     50868
     50869     50865     50867     50869     50865     50866     50871     50875     50876
     50872     50871     50874     50872     50871     50873     50873     50871     50874
     50875     50871     50874     50875     50871     50873     50875     50871     50872
     50877     50881     50882     50878     50877     50880     50878     50877     50879
     50879     50877     50880     50881     50877     50880     50881     50877     50879
     50881     50877     50878     50883     50887     50888     50884     50883     50886
     50884     50883     50885     50885     50883     50886     50887     50883     50886
     50887     50883     50885     50887     50883     50884     50889     50893     50894
     50890     50889     50892     50890     50889     50891     50891     50889     50892
     50893     50889     50892     50893     50889     50891     50893     50889     50890
     50895     50899     50900     50896     50895     50898     50896     50895     50897
     50897     50895     50898     50899     50895     50898     50899     50895     50897
     50899     50895     50896     50901     50905     50906     50902     50901     50904
     50902     50901     50903     50903     50901     50904     50905     50901     50904
     50905     50901     50903     50905     50901     50902     50907     50911     50912
     50908     50907     50910     50908     50907     50909     50909     50907     50910
     50911     50907     50910     50911     50907     50909     50911     50907     50908
     50913     50917     50918     50914     50913     50916     50914     50913     50915
     50915     50913     50916     50917     50913     50916     50917     50913     50915
     50917     50913     50914     50919     50923     50924     50920     50919     50922
     50920     50919     50921     50921     50919     50922     50923     50919     50922
     50923     50919     50921     50923     50919     50920     50925     50929     50930
     50926     50925     50928     50926     50925     50927     50927     50925     50928
     50929     50925     50928     50929     50925     50927     50929     50925     50926
     50931     50935     50936     50932     50931     50934     50932     50931     50933
     50933     50931     50934     50935     50931     50934     50935     50931     50933
     50935     50931     50932     50937     50941     50942     50938     50937     50940
     50938     50937     50939     50939     50937     50940     50941     50937     50940
     50941     50937     50939     50941     50937     50938     50943     50947     50948
     50944     50943     50946     50944     50943     50945     50945     50943     50946
     50947     50943     50946     50947     50943     50945     50947     50943     50944
     50949     50953     50954     50950     50949     50952     50950     50949     50951
     50951     50949     50952     50953     50949     50952     50953     50949     50951
     50953     50949     50950     50955     50959     50960     50956     50955     50958
     50956     50955     50957     50957     50955     50958     50959     50955     50958
     50959     50955     50957     50959     50955     50956     50961     50965     50966
     50962     50961     50964     50962     50961     50963     50963     50961     50964
     50965     50961     50964     50965     50961     50963     50965     50961     50962
     50967     50971     50972     50968     50967     50970     50968     50967     50969
     50969     50967     50970     50971     50967     50970     50971     50967     50969
     50971     50967     50968     50973     50977     50978     50974     50973     50976
     50974     50973     50975     50975     50973     50976     50977     50973     50976
     50977     50973     50975     50977     50973     50974     50979     50983     50984
     50980     50979     50982     50980     50979     50981     50981     50979     50982
     50983     50979     50982     50983     50979     50981     50983     50979     50980
     50985     50989     50990     50986     50985     50988     50986     50985     50987
     50987     50985     50988     50989     50985     50988     50989     50985     50987
     50989     50985     50986     50991     50995     50996     50992     50991     50994
     50992     50991     50993     50993     50991     50994     50995     50991     50994
     50995     50991     50993     50995     50991     50992     50997     51001     51002
     50998     50997     51000     50998     50997     50999     50999     50997     51000
     51001     50997     51000     51001     50997     50999     51001     50997     50998
     51003     51007     51008     51004     51003     51006     51004     51003     51005
     51005     51003     51006     51007     51003     51006     51007     51003     51005
     51007     51003     51004     51009     51013     51014     51010     51009     51012
     51010     51009     51011     51011     51009     51012     51013     51009     51012
     51013     51009     51011     51013     51009     51010     51015     51019     51020
     51016     51015     51018     51016     51015     51017     51017     51015     51018
     51019     51015     51018     51019     51015     51017     51019     51015     51016
     51021     51025     51026     51022     51021     51024     51022     51021     51023
     51023     51021     51024     51025     51021     51024     51025     51021     51023
     51025     51021     51022     51027     51031     51032     51028     51027     51030
     51028     51027     51029     51029     51027     51030     51031     51027     51030
     51031     51027     51029     51031     51027     51028     51033     51037     51038
     51034     51033     51036     51034     51033     51035     51035     51033     51036
     51037     51033     51036     51037     51033     51035     51037     51033     51034
     51039     51043     51044     51040     51039     51042     51040     51039     51041
     51041     51039     51042     51043     51039     51042     51043     51039     51041
     51043     51039     51040     51045     51049     51050     51046     51045     51048
     51046     51045     51047     51047     51045     51048     51049     51045     51048
     51049     51045     51047     51049     51045     51046     51051     51055     51056
     51052     51051     51054     51052     51051     51053     51053     51051     51054
     51055     51051     51054     51055     51051     51053     51055     51051     51052
     51057     51061     51062     51058     51057     51060     51058     51057     51059
     51059     51057     51060     51061     51057     51060     51061     51057     51059
     51061     51057     51058     51063     51067     51068     51064     51063     51066
     51064     51063     51065     51065     51063     51066     51067     51063     51066
     51067     51063     51065     51067     51063     51064     51069     51073     51074
     51070     51069     51072     51070     51069     51071     51071     51069     51072
     51073     51069     51072     51073     51069     51071     51073     51069     51070
     51075     51079     51080     51076     51075     51078     51076     51075     51077
     51077     51075     51078     51079     51075     51078     51079     51075     51077
     51079     51075     51076     51081     51085     51086     51082     51081     51084
     51082     51081     51083     51083     51081     51084     51085     51081     51084
     51085     51081     51083     51085     51081     51082     51087     51091     51092
     51088     51087     51090     51088     51087     51089     51089     51087     51090
     51091     51087     51090     51091     51087     51089     51091     51087     51088
     51093     51097     51098     51094     51093     51096     51094     51093     51095
     51095     51093     51096     51097     51093     51096     51097     51093     51095
     51097     51093     51094     51099     51103     51104     51100     51099     51102
     51100     51099     51101     51101     51099     51102     51103     51099     51102
     51103     51099     51101     51103     51099     51100     51105     51109     51110
     51106     51105     51108     51106     51105     51107     51107     51105     51108
     51109     51105     51108     51109     51105     51107     51109     51105     51106
     51111     51115     51116     51112     51111     51114     51112     51111     51113
     51113     51111     51114     51115     51111     51114     51115     51111     51113
     51115     51111     51112     51117     51121     51122     51118     51117     51120
     51118     51117     51119     51119     51117     51120     51121     51117     51120
     51121     51117     51119     51121     51117     51118     51123     51127     51128
     51124     51123     51126     51124     51123     51125     51125     51123     51126
     51127     51123     51126     51127     51123     51125     51127     51123     51124
     51129     51133     51134     51130     51129     51132     51130     51129     51131
     51131     51129     51132     51133     51129     51132     51133     51129     51131
     51133     51129     51130     51135     51139     51140     51136     51135     51138
     51136     51135     51137     51137     51135     51138     51139     51135     51138
     51139     51135     51137     51139     51135     51136     51141     51145     51146
     51142     51141     51144     51142     51141     51143     51143     51141     51144
     51145     51141     51144     51145     51141     51143     51145     51141     51142
     51147     51151     51152     51148     51147     51150     51148     51147     51149
     51149     51147     51150     51151     51147     51150     51151     51147     51149
     51151     51147     51148     51153     51157     51158     51154     51153     51156
     51154     51153     51155     51155     51153     51156     51157     51153     51156
     51157     51153     51155     51157     51153     51154     51159     51163     51164
     51160     51159     51162     51160     51159     51161     51161     51159     51162
     51163     51159     51162     51163     51159     51161     51163     51159     51160
     51165     51169     51170     51166     51165     51168     51166     51165     51167
     51167     51165     51168     51169     51165     51168     51169     51165     51167
     51169     51165     51166     51171     51175     51176     51172     51171     51174
     51172     51171     51173     51173     51171     51174     51175     51171     51174
     51175     51171     51173     51175     51171     51172     51177     51181     51182
     51178     51177     51180     51178     51177     51179     51179     51177     51180
     51181     51177     51180     51181     51177     51179     51181     51177     51178
     51183     51187     51188     51184     51183     51186     51184     51183     51185
     51185     51183     51186     51187     51183     51186     51187     51183     51185
     51187     51183     51184     51189     51193     51194     51190     51189     51192
     51190     51189     51191     51191     51189     51192     51193     51189     51192
     51193     51189     51191     51193     51189     51190     51195     51199     51200
     51196     51195     51198     51196     51195     51197     51197     51195     51198
     51199     51195     51198     51199     51195     51197     51199     51195     51196
     51201     51205     51206     51202     51201     51204     51202     51201     51203
     51203     51201     51204     51205     51201     51204     51205     51201     51203
     51205     51201     51202     51207     51211     51212     51208     51207     51210
     51208     51207     51209     51209     51207     51210     51211     51207     51210
     51211     51207     51209     51211     51207     51208     51213     51217     51218
     51214     51213     51216     51214     51213     51215     51215     51213     51216
     51217     51213     51216     51217     51213     51215     51217     51213     51214
     51219     51223     51224     51220     51219     51222     51220     51219     51221
     51221     51219     51222     51223     51219     51222     51223     51219     51221
     51223     51219     51220     51225     51229     51230     51226     51225     51228
     51226     51225     51227     51227     51225     51228     51229     51225     51228
     51229     51225     51227     51229     51225     51226     51231     51235     51236
     51232     51231     51234     51232     51231     51233     51233     51231     51234
     51235     51231     51234     51235     51231     51233     51235     51231     51232
     51237     51241     51242     51238     51237     51240     51238     51237     51239
     51239     51237     51240     51241     51237     51240     51241     51237     51239
     51241     51237     51238     51243     51247     51248     51244     51243     51246
     51244     51243     51245     51245     51243     51246     51247     51243     51246
     51247     51243     51245     51247     51243     51244     51249     51253     51254
     51250     51249     51252     51250     51249     51251     51251     51249     51252
     51253     51249     51252     51253     51249     51251     51253     51249     51250
     51255     51259     51260     51256     51255     51258     51256     51255     51257
     51257     51255     51258     51259     51255     51258     51259     51255     51257
     51259     51255     51256     51261     51265     51266     51262     51261     51264
     51262     51261     51263     51263     51261     51264     51265     51261     51264
     51265     51261     51263     51265     51261     51262     51267     51271     51272
     51268     51267     51270     51268     51267     51269     51269     51267     51270
     51271     51267     51270     51271     51267     51269     51271     51267     51268
     51273     51277     51278     51274     51273     51276     51274     51273     51275
     51275     51273     51276     51277     51273     51276     51277     51273     51275
     51277     51273     51274     51279     51283     51284     51280     51279     51282
     51280     51279     51281     51281     51279     51282     51283     51279     51282
     51283     51279     51281     51283     51279     51280     51285     51289     51290
     51286     51285     51288     51286     51285     51287     51287     51285     51288
     51289     51285     51288     51289     51285     51287     51289     51285     51286
     51291     51295     51296     51292     51291     51294     51292     51291     51293
     51293     51291     51294     51295     51291     51294     51295     51291     51293
     51295     51291     51292     51297     51301     51302     51298     51297     51300
     51298     51297     51299     51299     51297     51300     51301     51297     51300
     51301     51297     51299     51301     51297     51298     51303     51307     51308
     51304     51303     51306     51304     51303     51305     51305     51303     51306
     51307     51303     51306     51307     51303     51305     51307     51303     51304
     51309     51313     51314     51310     51309     51312     51310     51309     51311
     51311     51309     51312     51313     51309     51312     51313     51309     51311
     51313     51309     51310     51315     51319     51320     51316     51315     51318
     51316     51315     51317     51317     51315     51318     51319     51315     51318
     51319     51315     51317     51319     51315     51316     51321     51325     51326
     51322     51321     51324     51322     51321     51323     51323     51321     51324
     51325     51321     51324     51325     51321     51323     51325     51321     51322
     51327     51331     51332     51328     51327     51330     51328     51327     51329
     51329     51327     51330     51331     51327     51330     51331     51327     51329
     51331     51327     51328     51333     51337     51338     51334     51333     51336
     51334     51333     51335     51335     51333     51336     51337     51333     51336
     51337     51333     51335     51337     51333     51334     51339     51343     51344
     51340     51339     51342     51340     51339     51341     51341     51339     51342
     51343     51339     51342     51343     51339     51341     51343     51339     51340
     51345     51349     51350     51346     51345     51348     51346     51345     51347
     51347     51345     51348     51349     51345     51348     51349     51345     51347
     51349     51345     51346     51351     51355     51356     51352     51351     51354
     51352     51351     51353     51353     51351     51354     51355     51351     51354
     51355     51351     51353     51355     51351     51352     51357     51361     51362
     51358     51357     51360     51358     51357     51359     51359     51357     51360
     51361     51357     51360     51361     51357     51359     51361     51357     51358
     51363     51367     51368     51364     51363     51366     51364     51363     51365
     51365     51363     51366     51367     51363     51366     51367     51363     51365
     51367     51363     51364     51369     51373     51374     51370     51369     51372
     51370     51369     51371     51371     51369     51372     51373     51369     51372
     51373     51369     51371     51373     51369     51370     51375     51379     51380
     51376     51375     51378     51376     51375     51377     51377     51375     51378
     51379     51375     51378     51379     51375     51377     51379     51375     51376
     51381     51385     51386     51382     51381     51384     51382     51381     51383
     51383     51381     51384     51385     51381     51384     51385     51381     51383
     51385     51381     51382     51387     51391     51392     51388     51387     51390
     51388     51387     51389     51389     51387     51390     51391     51387     51390
     51391     51387     51389     51391     51387     51388     51393     51397     51398
     51394     51393     51396     51394     51393     51395     51395     51393     51396
     51397     51393     51396     51397     51393     51395     51397     51393     51394
     51399     51403     51404     51400     51399     51402     51400     51399     51401
     51401     51399     51402     51403     51399     51402     51403     51399     51401
     51403     51399     51400     51405     51409     51410     51406     51405     51408
     51406     51405     51407     51407     51405     51408     51409     51405     51408
     51409     51405     51407     51409     51405     51406     51411     51415     51416
     51412     51411     51414     51412     51411     51413     51413     51411     51414
     51415     51411     51414     51415     51411     51413     51415     51411     51412
     51417     51421     51422     51418     51417     51420     51418     51417     51419
     51419     51417     51420     51421     51417     51420     51421     51417     51419
     51421     51417     51418     51423     51427     51428     51424     51423     51426
     51424     51423     51425     51425     51423     51426     51427     51423     51426
     51427     51423     51425     51427     51423     51424     51429     51433     51434
     51430     51429     51432     51430     51429     51431     51431     51429     51432
     51433     51429     51432     51433     51429     51431     51433     51429     51430
     51435     51439     51440     51436     51435     51438     51436     51435     51437
     51437     51435     51438     51439     51435     51438     51439     51435     51437
     51439     51435     51436     51441     51445     51446     51442     51441     51444
     51442     51441     51443     51443     51441     51444     51445     51441     51444
     51445     51441     51443     51445     51441     51442     51447     51451     51452
     51448     51447     51450     51448     51447     51449     51449     51447     51450
     51451     51447     51450     51451     51447     51449     51451     51447     51448
     51453     51457     51458     51454     51453     51456     51454     51453     51455
     51455     51453     51456     51457     51453     51456     51457     51453     51455
     51457     51453     51454     51459     51463     51464     51460     51459     51462
     51460     51459     51461     51461     51459     51462     51463     51459     51462
     51463     51459     51461     51463     51459     51460     51465     51469     51470
     51466     51465     51468     51466     51465     51467     51467     51465     51468
     51469     51465     51468     51469     51465     51467     51469     51465     51466
     51471     51475     51476     51472     51471     51474     51472     51471     51473
     51473     51471     51474     51475     51471     51474     51475     51471     51473
     51475     51471     51472     51477     51481     51482     51478     51477     51480
     51478     51477     51479     51479     51477     51480     51481     51477     51480
     51481     51477     51479     51481     51477     51478     51483     51487     51488
     51484     51483     51486     51484     51483     51485     51485     51483     51486
     51487     51483     51486     51487     51483     51485     51487     51483     51484
     51489     51493     51494     51490     51489     51492     51490     51489     51491
     51491     51489     51492     51493     51489     51492     51493     51489     51491
     51493     51489     51490     51495     51499     51500     51496     51495     51498
     51496     51495     51497     51497     51495     51498     51499     51495     51498
     51499     51495     51497     51499     51495     51496     51501     51505     51506
     51502     51501     51504     51502     51501     51503     51503     51501     51504
     51505     51501     51504     51505     51501     51503     51505     51501     51502
     51507     51511     51512     51508     51507     51510     51508     51507     51509
     51509     51507     51510     51511     51507     51510     51511     51507     51509
     51511     51507     51508     51513     51517     51518     51514     51513     51516
     51514     51513     51515     51515     51513     51516     51517     51513     51516
     51517     51513     51515     51517     51513     51514     51519     51523     51524
     51520     51519     51522     51520     51519     51521     51521     51519     51522
     51523     51519     51522     51523     51519     51521     51523     51519     51520
     51525     51529     51530     51526     51525     51528     51526     51525     51527
     51527     51525     51528     51529     51525     51528     51529     51525     51527
     51529     51525     51526     51531     51535     51536     51532     51531     51534
     51532     51531     51533     51533     51531     51534     51535     51531     51534
     51535     51531     51533     51535     51531     51532     51537     51541     51542
     51538     51537     51540     51538     51537     51539     51539     51537     51540
     51541     51537     51540     51541     51537     51539     51541     51537     51538
     51543     51547     51548     51544     51543     51546     51544     51543     51545
     51545     51543     51546     51547     51543     51546     51547     51543     51545
     51547     51543     51544     51549     51553     51554     51550     51549     51552
     51550     51549     51551     51551     51549     51552     51553     51549     51552
     51553     51549     51551     51553     51549     51550     51555     51559     51560
     51556     51555     51558     51556     51555     51557     51557     51555     51558
     51559     51555     51558     51559     51555     51557     51559     51555     51556
     51561     51565     51566     51562     51561     51564     51562     51561     51563
     51563     51561     51564     51565     51561     51564     51565     51561     51563
     51565     51561     51562     51567     51571     51572     51568     51567     51570
     51568     51567     51569     51569     51567     51570     51571     51567     51570
     51571     51567     51569     51571     51567     51568     51573     51577     51578
     51574     51573     51576     51574     51573     51575     51575     51573     51576
     51577     51573     51576     51577     51573     51575     51577     51573     51574
     51579     51583     51584     51580     51579     51582     51580     51579     51581
     51581     51579     51582     51583     51579     51582     51583     51579     51581
     51583     51579     51580     51585     51589     51590     51586     51585     51588
     51586     51585     51587     51587     51585     51588     51589     51585     51588
     51589     51585     51587     51589     51585     51586     51591     51595     51596
     51592     51591     51594     51592     51591     51593     51593     51591     51594
     51595     51591     51594     51595     51591     51593     51595     51591     51592
     51597     51601     51602     51598     51597     51600     51598     51597     51599
     51599     51597     51600     51601     51597     51600     51601     51597     51599
     51601     51597     51598     51603     51607     51608     51604     51603     51606
     51604     51603     51605     51605     51603     51606     51607     51603     51606
     51607     51603     51605     51607     51603     51604     51609     51613     51614
     51610     51609     51612     51610     51609     51611     51611     51609     51612
     51613     51609     51612     51613     51609     51611     51613     51609     51610
     51615     51619     51620     51616     51615     51618     51616     51615     51617
     51617     51615     51618     51619     51615     51618     51619     51615     51617
     51619     51615     51616     51621     51625     51626     51622     51621     51624
     51622     51621     51623     51623     51621     51624     51625     51621     51624
     51625     51621     51623     51625     51621     51622     51627     51631     51632
     51628     51627     51630     51628     51627     51629     51629     51627     51630
     51631     51627     51630     51631     51627     51629     51631     51627     51628
     51633     51637     51638     51634     51633     51636     51634     51633     51635
     51635     51633     51636     51637     51633     51636     51637     51633     51635
     51637     51633     51634     51639     51643     51644     51640     51639     51642
     51640     51639     51641     51641     51639     51642     51643     51639     51642
     51643     51639     51641     51643     51639     51640     51645     51649     51650
     51646     51645     51648     51646     51645     51647     51647     51645     51648
     51649     51645     51648     51649     51645     51647     51649     51645     51646
     51651     51655     51656     51652     51651     51654     51652     51651     51653
     51653     51651     51654     51655     51651     51654     51655     51651     51653
     51655     51651     51652     51657     51661     51662     51658     51657     51660
     51658     51657     51659     51659     51657     51660     51661     51657     51660
     51661     51657     51659     51661     51657     51658     51663     51667     51668
     51664     51663     51666     51664     51663     51665     51665     51663     51666
     51667     51663     51666     51667     51663     51665     51667     51663     51664
     51669     51673     51674     51670     51669     51672     51670     51669     51671
     51671     51669     51672     51673     51669     51672     51673     51669     51671
     51673     51669     51670     51675     51679     51680     51676     51675     51678
     51676     51675     51677     51677     51675     51678     51679     51675     51678
     51679     51675     51677     51679     51675     51676     51681     51685     51686
     51682     51681     51684     51682     51681     51683     51683     51681     51684
     51685     51681     51684     51685     51681     51683     51685     51681     51682
     51687     51691     51692     51688     51687     51690     51688     51687     51689
     51689     51687     51690     51691     51687     51690     51691     51687     51689
     51691     51687     51688     51693     51697     51698     51694     51693     51696
     51694     51693     51695     51695     51693     51696     51697     51693     51696
     51697     51693     51695     51697     51693     51694     51699     51703     51704
     51700     51699     51702     51700     51699     51701     51701     51699     51702
     51703     51699     51702     51703     51699     51701     51703     51699     51700
     51705     51709     51710     51706     51705     51708     51706     51705     51707
     51707     51705     51708     51709     51705     51708     51709     51705     51707
     51709     51705     51706     51711     51715     51716     51712     51711     51714
     51712     51711     51713     51713     51711     51714     51715     51711     51714
     51715     51711     51713     51715     51711     51712     51717     51721     51722
     51718     51717     51720     51718     51717     51719     51719     51717     51720
     51721     51717     51720     51721     51717     51719     51721     51717     51718
     51723     51727     51728     51724     51723     51726     51724     51723     51725
     51725     51723     51726     51727     51723     51726     51727     51723     51725
     51727     51723     51724     51729     51733     51734     51730     51729     51732
     51730     51729     51731     51731     51729     51732     51733     51729     51732
     51733     51729     51731     51733     51729     51730     51735     51739     51740
     51736     51735     51738     51736     51735     51737     51737     51735     51738
     51739     51735     51738     51739     51735     51737     51739     51735     51736
     51741     51745     51746     51742     51741     51744     51742     51741     51743
     51743     51741     51744     51745     51741     51744     51745     51741     51743
     51745     51741     51742     51747     51751     51752     51748     51747     51750
     51748     51747     51749     51749     51747     51750     51751     51747     51750
     51751     51747     51749     51751     51747     51748     51753     51757     51758
     51754     51753     51756     51754     51753     51755     51755     51753     51756
     51757     51753     51756     51757     51753     51755     51757     51753     51754
     51759     51763     51764     51760     51759     51762     51760     51759     51761
     51761     51759     51762     51763     51759     51762     51763     51759     51761
     51763     51759     51760     51765     51769     51770     51766     51765     51768
     51766     51765     51767     51767     51765     51768     51769     51765     51768
     51769     51765     51767     51769     51765     51766     51771     51775     51776
     51772     51771     51774     51772     51771     51773     51773     51771     51774
     51775     51771     51774     51775     51771     51773     51775     51771     51772
     51777     51781     51782     51778     51777     51780     51778     51777     51779
     51779     51777     51780     51781     51777     51780     51781     51777     51779
     51781     51777     51778     51783     51787     51788     51784     51783     51786
     51784     51783     51785     51785     51783     51786     51787     51783     51786
     51787     51783     51785     51787     51783     51784     51789     51793     51794
     51790     51789     51792     51790     51789     51791     51791     51789     51792
     51793     51789     51792     51793     51789     51791     51793     51789     51790
     51795     51799     51800     51796     51795     51798     51796     51795     51797
     51797     51795     51798     51799     51795     51798     51799     51795     51797
     51799     51795     51796     51801     51805     51806     51802     51801     51804
     51802     51801     51803     51803     51801     51804     51805     51801     51804
     51805     51801     51803     51805     51801     51802     51807     51811     51812
     51808     51807     51810     51808     51807     51809     51809     51807     51810
     51811     51807     51810     51811     51807     51809     51811     51807     51808
     51813     51817     51818     51814     51813     51816     51814     51813     51815
     51815     51813     51816     51817     51813     51816     51817     51813     51815
     51817     51813     51814     51819     51823     51824     51820     51819     51822
     51820     51819     51821     51821     51819     51822     51823     51819     51822
     51823     51819     51821     51823     51819     51820     51825     51829     51830
     51826     51825     51828     51826     51825     51827     51827     51825     51828
     51829     51825     51828     51829     51825     51827     51829     51825     51826
     51831     51835     51836     51832     51831     51834     51832     51831     51833
     51833     51831     51834     51835     51831     51834     51835     51831     51833
     51835     51831     51832     51837     51841     51842     51838     51837     51840
     51838     51837     51839     51839     51837     51840     51841     51837     51840
     51841     51837     51839     51841     51837     51838     51843     51847     51848
     51844     51843     51846     51844     51843     51845     51845     51843     51846
     51847     51843     51846     51847     51843     51845     51847     51843     51844
     51849     51853     51854     51850     51849     51852     51850     51849     51851
     51851     51849     51852     51853     51849     51852     51853     51849     51851
     51853     51849     51850     51855     51859     51860     51856     51855     51858
     51856     51855     51857     51857     51855     51858     51859     51855     51858
     51859     51855     51857     51859     51855     51856     51861     51865     51866
     51862     51861     51864     51862     51861     51863     51863     51861     51864
     51865     51861     51864     51865     51861     51863     51865     51861     51862
     51867     51871     51872     51868     51867     51870     51868     51867     51869
     51869     51867     51870     51871     51867     51870     51871     51867     51869
     51871     51867     51868     51873     51877     51878     51874     51873     51876
     51874     51873     51875     51875     51873     51876     51877     51873     51876
     51877     51873     51875     51877     51873     51874     51879     51883     51884
     51880     51879     51882     51880     51879     51881     51881     51879     51882
     51883     51879     51882     51883     51879     51881     51883     51879     51880
     51885     51889     51890     51886     51885     51888     51886     51885     51887
     51887     51885     51888     51889     51885     51888     51889     51885     51887
     51889     51885     51886     51891     51895     51896     51892     51891     51894
     51892     51891     51893     51893     51891     51894     51895     51891     51894
     51895     51891     51893     51895     51891     51892     51897     51901     51902
     51898     51897     51900     51898     51897     51899     51899     51897     51900
     51901     51897     51900     51901     51897     51899     51901     51897     51898
     51903     51907     51908     51904     51903     51906     51904     51903     51905
     51905     51903     51906     51907     51903     51906     51907     51903     51905
     51907     51903     51904     51909     51913     51914     51910     51909     51912
     51910     51909     51911     51911     51909     51912     51913     51909     51912
     51913     51909     51911     51913     51909     51910     51915     51919     51920
     51916     51915     51918     51916     51915     51917     51917     51915     51918
     51919     51915     51918     51919     51915     51917     51919     51915     51916
     51921     51925     51926     51922     51921     51924     51922     51921     51923
     51923     51921     51924     51925     51921     51924     51925     51921     51923
     51925     51921     51922     51927     51931     51932     51928     51927     51930
     51928     51927     51929     51929     51927     51930     51931     51927     51930
     51931     51927     51929     51931     51927     51928     51933     51937     51938
     51934     51933     51936     51934     51933     51935     51935     51933     51936
     51937     51933     51936     51937     51933     51935     51937     51933     51934
     51939     51943     51944     51940     51939     51942     51940     51939     51941
     51941     51939     51942     51943     51939     51942     51943     51939     51941
     51943     51939     51940     51945     51949     51950     51946     51945     51948
     51946     51945     51947     51947     51945     51948     51949     51945     51948
     51949     51945     51947     51949     51945     51946     51951     51955     51956
     51952     51951     51954     51952     51951     51953     51953     51951     51954
     51955     51951     51954     51955     51951     51953     51955     51951     51952
     51957     51961     51962     51958     51957     51960     51958     51957     51959
     51959     51957     51960     51961     51957     51960     51961     51957     51959
     51961     51957     51958     51963     51967     51968     51964     51963     51966
     51964     51963     51965     51965     51963     51966     51967     51963     51966
     51967     51963     51965     51967     51963     51964     51969     51973     51974
     51970     51969     51972     51970     51969     51971     51971     51969     51972
     51973     51969     51972     51973     51969     51971     51973     51969     51970
     51975     51979     51980     51976     51975     51978     51976     51975     51977
     51977     51975     51978     51979     51975     51978     51979     51975     51977
     51979     51975     51976     51981     51985     51986     51982     51981     51984
     51982     51981     51983     51983     51981     51984     51985     51981     51984
     51985     51981     51983     51985     51981     51982     51987     51991     51992
     51988     51987     51990     51988     51987     51989     51989     51987     51990
     51991     51987     51990     51991     51987     51989     51991     51987     51988
     51993     51997     51998     51994     51993     51996     51994     51993     51995
     51995     51993     51996     51997     51993     51996     51997     51993     51995
     51997     51993     51994     51999     52003     52004     52000     51999     52002
     52000     51999     52001     52001     51999     52002     52003     51999     52002
     52003     51999     52001     52003     51999     52000     52005     52009     52010
     52006     52005     52008     52006     52005     52007     52007     52005     52008
     52009     52005     52008     52009     52005     52007     52009     52005     52006
     52011     52015     52016     52012     52011     52014     52012     52011     52013
     52013     52011     52014     52015     52011     52014     52015     52011     52013
     52015     52011     52012     52017     52021     52022     52018     52017     52020
     52018     52017     52019     52019     52017     52020     52021     52017     52020
     52021     52017     52019     52021     52017     52018     52023     52027     52028
     52024     52023     52026     52024     52023     52025     52025     52023     52026
     52027     52023     52026     52027     52023     52025     52027     52023     52024
     52029     52033     52034     52030     52029     52032     52030     52029     52031
     52031     52029     52032     52033     52029     52032     52033     52029     52031
     52033     52029     52030     52035     52039     52040     52036     52035     52038
     52036     52035     52037     52037     52035     52038     52039     52035     52038
     52039     52035     52037     52039     52035     52036     52041     52045     52046
     52042     52041     52044     52042     52041     52043     52043     52041     52044
     52045     52041     52044     52045     52041     52043     52045     52041     52042
     52047     52051     52052     52048     52047     52050     52048     52047     52049
     52049     52047     52050     52051     52047     52050     52051     52047     52049
     52051     52047     52048     52053     52057     52058     52054     52053     52056
     52054     52053     52055     52055     52053     52056     52057     52053     52056
     52057     52053     52055     52057     52053     52054     52059     52063     52064
     52060     52059     52062     52060     52059     52061     52061     52059     52062
     52063     52059     52062     52063     52059     52061     52063     52059     52060
     52065     52069     52070     52066     52065     52068     52066     52065     52067
     52067     52065     52068     52069     52065     52068     52069     52065     52067
     52069     52065     52066     52071     52075     52076     52072     52071     52074
     52072     52071     52073     52073     52071     52074     52075     52071     52074
     52075     52071     52073     52075     52071     52072     52077     52081     52082
     52078     52077     52080     52078     52077     52079     52079     52077     52080
     52081     52077     52080     52081     52077     52079     52081     52077     52078
     52083     52087     52088     52084     52083     52086     52084     52083     52085
     52085     52083     52086     52087     52083     52086     52087     52083     52085
     52087     52083     52084     52089     52093     52094     52090     52089     52092
     52090     52089     52091     52091     52089     52092     52093     52089     52092
     52093     52089     52091     52093     52089     52090     52095     52099     52100
     52096     52095     52098     52096     52095     52097     52097     52095     52098
     52099     52095     52098     52099     52095     52097     52099     52095     52096
     52101     52105     52106     52102     52101     52104     52102     52101     52103
     52103     52101     52104     52105     52101     52104     52105     52101     52103
     52105     52101     52102     52107     52111     52112     52108     52107     52110
     52108     52107     52109     52109     52107     52110     52111     52107     52110
     52111     52107     52109     52111     52107     52108     52113     52117     52118
     52114     52113     52116     52114     52113     52115     52115     52113     52116
     52117     52113     52116     52117     52113     52115     52117     52113     52114
     52119     52123     52124     52120     52119     52122     52120     52119     52121
     52121     52119     52122     52123     52119     52122     52123     52119     52121
     52123     52119     52120     52125     52129     52130     52126     52125     52128
     52126     52125     52127     52127     52125     52128     52129     52125     52128
     52129     52125     52127     52129     52125     52126     52131     52135     52136
     52132     52131     52134     52132     52131     52133     52133     52131     52134
     52135     52131     52134     52135     52131     52133     52135     52131     52132
     52137     52141     52142     52138     52137     52140     52138     52137     52139
     52139     52137     52140     52141     52137     52140     52141     52137     52139
     52141     52137     52138     52143     52147     52148     52144     52143     52146
     52144     52143     52145     52145     52143     52146     52147     52143     52146
     52147     52143     52145     52147     52143     52144     52149     52153     52154
     52150     52149     52152     52150     52149     52151     52151     52149     52152
     52153     52149     52152     52153     52149     52151     52153     52149     52150
     52155     52159     52160     52156     52155     52158     52156     52155     52157
     52157     52155     52158     52159     52155     52158     52159     52155     52157
     52159     52155     52156     52161     52165     52166     52162     52161     52164
     52162     52161     52163     52163     52161     52164     52165     52161     52164
     52165     52161     52163     52165     52161     52162     52167     52171     52172
     52168     52167     52170     52168     52167     52169     52169     52167     52170
     52171     52167     52170     52171     52167     52169     52171     52167     52168
     52173     52177     52178     52174     52173     52176     52174     52173     52175
     52175     52173     52176     52177     52173     52176     52177     52173     52175
     52177     52173     52174     52179     52183     52184     52180     52179     52182
     52180     52179     52181     52181     52179     52182     52183     52179     52182
     52183     52179     52181     52183     52179     52180     52185     52189     52190
     52186     52185     52188     52186     52185     52187     52187     52185     52188
     52189     52185     52188     52189     52185     52187     52189     52185     52186
     52191     52195     52196     52192     52191     52194     52192     52191     52193
     52193     52191     52194     52195     52191     52194     52195     52191     52193
     52195     52191     52192     52197     52201     52202     52198     52197     52200
     52198     52197     52199     52199     52197     52200     52201     52197     52200
     52201     52197     52199     52201     52197     52198     52203     52207     52208
     52204     52203     52206     52204     52203     52205     52205     52203     52206
     52207     52203     52206     52207     52203     52205     52207     52203     52204
     52209     52213     52214     52210     52209     52212     52210     52209     52211
     52211     52209     52212     52213     52209     52212     52213     52209     52211
     52213     52209     52210     52215     52219     52220     52216     52215     52218
     52216     52215     52217     52217     52215     52218     52219     52215     52218
     52219     52215     52217     52219     52215     52216     52221     52225     52226
     52222     52221     52224     52222     52221     52223     52223     52221     52224
     52225     52221     52224     52225     52221     52223     52225     52221     52222
     52227     52231     52232     52228     52227     52230     52228     52227     52229
     52229     52227     52230     52231     52227     52230     52231     52227     52229
     52231     52227     52228     52233     52237     52238     52234     52233     52236
     52234     52233     52235     52235     52233     52236     52237     52233     52236
     52237     52233     52235     52237     52233     52234     52239     52243     52244
     52240     52239     52242     52240     52239     52241     52241     52239     52242
     52243     52239     52242     52243     52239     52241     52243     52239     52240
     52245     52249     52250     52246     52245     52248     52246     52245     52247
     52247     52245     52248     52249     52245     52248     52249     52245     52247
     52249     52245     52246     52251     52255     52256     52252     52251     52254
     52252     52251     52253     52253     52251     52254     52255     52251     52254
     52255     52251     52253     52255     52251     52252     52257     52261     52262
     52258     52257     52260     52258     52257     52259     52259     52257     52260
     52261     52257     52260     52261     52257     52259     52261     52257     52258
     52263     52267     52268     52264     52263     52266     52264     52263     52265
     52265     52263     52266     52267     52263     52266     52267     52263     52265
     52267     52263     52264     52269     52273     52274     52270     52269     52272
     52270     52269     52271     52271     52269     52272     52273     52269     52272
     52273     52269     52271     52273     52269     52270     52275     52279     52280
     52276     52275     52278     52276     52275     52277     52277     52275     52278
     52279     52275     52278     52279     52275     52277     52279     52275     52276
     52281     52285     52286     52282     52281     52284     52282     52281     52283
     52283     52281     52284     52285     52281     52284     52285     52281     52283
     52285     52281     52282     52287     52291     52292     52288     52287     52290
     52288     52287     52289     52289     52287     52290     52291     52287     52290
     52291     52287     52289     52291     52287     52288     52293     52297     52298
     52294     52293     52296     52294     52293     52295     52295     52293     52296
     52297     52293     52296     52297     52293     52295     52297     52293     52294
     52299     52303     52304     52300     52299     52302     52300     52299     52301
     52301     52299     52302     52303     52299     52302     52303     52299     52301
     52303     52299     52300     52305     52309     52310     52306     52305     52308
     52306     52305     52307     52307     52305     52308     52309     52305     52308
     52309     52305     52307     52309     52305     52306     52311     52315     52316
     52312     52311     52314     52312     52311     52313     52313     52311     52314
     52315     52311     52314     52315     52311     52313     52315     52311     52312
     52317     52321     52322     52318     52317     52320     52318     52317     52319
     52319     52317     52320     52321     52317     52320     52321     52317     52319
     52321     52317     52318     52323     52327     52328     52324     52323     52326
     52324     52323     52325     52325     52323     52326     52327     52323     52326
     52327     52323     52325     52327     52323     52324     52329     52333     52334
     52330     52329     52332     52330     52329     52331     52331     52329     52332
     52333     52329     52332     52333     52329     52331     52333     52329     52330
     52335     52339     52340     52336     52335     52338     52336     52335     52337
     52337     52335     52338     52339     52335     52338     52339     52335     52337
     52339     52335     52336     52341     52345     52346     52342     52341     52344
     52342     52341     52343     52343     52341     52344     52345     52341     52344
     52345     52341     52343     52345     52341     52342     52347     52351     52352
     52348     52347     52350     52348     52347     52349     52349     52347     52350
     52351     52347     52350     52351     52347     52349     52351     52347     52348
     52353     52357     52358     52354     52353     52356     52354     52353     52355
     52355     52353     52356     52357     52353     52356     52357     52353     52355
     52357     52353     52354     52359     52363     52364     52360     52359     52362
     52360     52359     52361     52361     52359     52362     52363     52359     52362
     52363     52359     52361     52363     52359     52360     52365     52369     52370
     52366     52365     52368     52366     52365     52367     52367     52365     52368
     52369     52365     52368     52369     52365     52367     52369     52365     52366
     52371     52375     52376     52372     52371     52374     52372     52371     52373
     52373     52371     52374     52375     52371     52374     52375     52371     52373
     52375     52371     52372     52377     52381     52382     52378     52377     52380
     52378     52377     52379     52379     52377     52380     52381     52377     52380
     52381     52377     52379     52381     52377     52378     52383     52387     52388
     52384     52383     52386     52384     52383     52385     52385     52383     52386
     52387     52383     52386     52387     52383     52385     52387     52383     52384
     52389     52393     52394     52390     52389     52392     52390     52389     52391
     52391     52389     52392     52393     52389     52392     52393     52389     52391
     52393     52389     52390     52395     52399     52400     52396     52395     52398
     52396     52395     52397     52397     52395     52398     52399     52395     52398
     52399     52395     52397     52399     52395     52396     52401     52405     52406
     52402     52401     52404     52402     52401     52403     52403     52401     52404
     52405     52401     52404     52405     52401     52403     52405     52401     52402
     52407     52411     52412     52408     52407     52410     52408     52407     52409
     52409     52407     52410     52411     52407     52410     52411     52407     52409
     52411     52407     52408     52413     52417     52418     52414     52413     52416
     52414     52413     52415     52415     52413     52416     52417     52413     52416
     52417     52413     52415     52417     52413     52414     52419     52423     52424
     52420     52419     52422     52420     52419     52421     52421     52419     52422
     52423     52419     52422     52423     52419     52421     52423     52419     52420
     52425     52429     52430     52426     52425     52428     52426     52425     52427
     52427     52425     52428     52429     52425     52428     52429     52425     52427
     52429     52425     52426     52431     52435     52436     52432     52431     52434
     52432     52431     52433     52433     52431     52434     52435     52431     52434
     52435     52431     52433     52435     52431     52432     52437     52441     52442
     52438     52437     52440     52438     52437     52439     52439     52437     52440
     52441     52437     52440     52441     52437     52439     52441     52437     52438
     52443     52447     52448     52444     52443     52446     52444     52443     52445
     52445     52443     52446     52447     52443     52446     52447     52443     52445
     52447     52443     52444     52449     52453     52454     52450     52449     52452
     52450     52449     52451     52451     52449     52452     52453     52449     52452
     52453     52449     52451     52453     52449     52450     52455     52459     52460
     52456     52455     52458     52456     52455     52457     52457     52455     52458
     52459     52455     52458     52459     52455     52457     52459     52455     52456
     52461     52465     52466     52462     52461     52464     52462     52461     52463
     52463     52461     52464     52465     52461     52464     52465     52461     52463
     52465     52461     52462     52467     52471     52472     52468     52467     52470
     52468     52467     52469     52469     52467     52470     52471     52467     52470
     52471     52467     52469     52471     52467     52468     52473     52477     52478
     52474     52473     52476     52474     52473     52475     52475     52473     52476
     52477     52473     52476     52477     52473     52475     52477     52473     52474
     52479     52483     52484     52480     52479     52482     52480     52479     52481
     52481     52479     52482     52483     52479     52482     52483     52479     52481
     52483     52479     52480     52485     52489     52490     52486     52485     52488
     52486     52485     52487     52487     52485     52488     52489     52485     52488
     52489     52485     52487     52489     52485     52486     52491     52495     52496
     52492     52491     52494     52492     52491     52493     52493     52491     52494
     52495     52491     52494     52495     52491     52493     52495     52491     52492
     52497     52501     52502     52498     52497     52500     52498     52497     52499
     52499     52497     52500     52501     52497     52500     52501     52497     52499
     52501     52497     52498     52503     52507     52508     52504     52503     52506
     52504     52503     52505     52505     52503     52506     52507     52503     52506
     52507     52503     52505     52507     52503     52504     52509     52513     52514
     52510     52509     52512     52510     52509     52511     52511     52509     52512
     52513     52509     52512     52513     52509     52511     52513     52509     52510
     52515     52519     52520     52516     52515     52518     52516     52515     52517
     52517     52515     52518     52519     52515     52518     52519     52515     52517
     52519     52515     52516     52521     52525     52526     52522     52521     52524
     52522     52521     52523     52523     52521     52524     52525     52521     52524
     52525     52521     52523     52525     52521     52522     52527     52531     52532
     52528     52527     52530     52528     52527     52529     52529     52527     52530
     52531     52527     52530     52531     52527     52529     52531     52527     52528
     52533     52537     52538     52534     52533     52536     52534     52533     52535
     52535     52533     52536     52537     52533     52536     52537     52533     52535
     52537     52533     52534     52539     52543     52544     52540     52539     52542
     52540     52539     52541     52541     52539     52542     52543     52539     52542
     52543     52539     52541     52543     52539     52540     52545     52549     52550
     52546     52545     52548     52546     52545     52547     52547     52545     52548
     52549     52545     52548     52549     52545     52547     52549     52545     52546
     52551     52555     52556     52552     52551     52554     52552     52551     52553
     52553     52551     52554     52555     52551     52554     52555     52551     52553
     52555     52551     52552     52557     52561     52562     52558     52557     52560
     52558     52557     52559     52559     52557     52560     52561     52557     52560
     52561     52557     52559     52561     52557     52558     52563     52567     52568
     52564     52563     52566     52564     52563     52565     52565     52563     52566
     52567     52563     52566     52567     52563     52565     52567     52563     52564
     52569     52573     52574     52570     52569     52572     52570     52569     52571
     52571     52569     52572     52573     52569     52572     52573     52569     52571
     52573     52569     52570     52575     52579     52580     52576     52575     52578
     52576     52575     52577     52577     52575     52578     52579     52575     52578
     52579     52575     52577     52579     52575     52576     52581     52585     52586
     52582     52581     52584     52582     52581     52583     52583     52581     52584
     52585     52581     52584     52585     52581     52583     52585     52581     52582
     52587     52591     52592     52588     52587     52590     52588     52587     52589
     52589     52587     52590     52591     52587     52590     52591     52587     52589
     52591     52587     52588     52593     52597     52598     52594     52593     52596
     52594     52593     52595     52595     52593     52596     52597     52593     52596
     52597     52593     52595     52597     52593     52594     52599     52603     52604
     52600     52599     52602     52600     52599     52601     52601     52599     52602
     52603     52599     52602     52603     52599     52601     52603     52599     52600
     52605     52609     52610     52606     52605     52608     52606     52605     52607
     52607     52605     52608     52609     52605     52608     52609     52605     52607
     52609     52605     52606     52611     52615     52616     52612     52611     52614
     52612     52611     52613     52613     52611     52614     52615     52611     52614
     52615     52611     52613     52615     52611     52612     52617     52621     52622
     52618     52617     52620     52618     52617     52619     52619     52617     52620
     52621     52617     52620     52621     52617     52619     52621     52617     52618
     52623     52627     52628     52624     52623     52626     52624     52623     52625
     52625     52623     52626     52627     52623     52626     52627     52623     52625
     52627     52623     52624     52629     52633     52634     52630     52629     52632
     52630     52629     52631     52631     52629     52632     52633     52629     52632
     52633     52629     52631     52633     52629     52630     52635     52639     52640
     52636     52635     52638     52636     52635     52637     52637     52635     52638
     52639     52635     52638     52639     52635     52637     52639     52635     52636
     52641     52645     52646     52642     52641     52644     52642     52641     52643
     52643     52641     52644     52645     52641     52644     52645     52641     52643
     52645     52641     52642     52647     52651     52652     52648     52647     52650
     52648     52647     52649     52649     52647     52650     52651     52647     52650
     52651     52647     52649     52651     52647     52648     52653     52657     52658
     52654     52653     52656     52654     52653     52655     52655     52653     52656
     52657     52653     52656     52657     52653     52655     52657     52653     52654
     52659     52663     52664     52660     52659     52662     52660     52659     52661
     52661     52659     52662     52663     52659     52662     52663     52659     52661
     52663     52659     52660     52665     52669     52670     52666     52665     52668
     52666     52665     52667     52667     52665     52668     52669     52665     52668
     52669     52665     52667     52669     52665     52666     52671     52675     52676
     52672     52671     52674     52672     52671     52673     52673     52671     52674
     52675     52671     52674     52675     52671     52673     52675     52671     52672
     52677     52681     52682     52678     52677     52680     52678     52677     52679
     52679     52677     52680     52681     52677     52680     52681     52677     52679
     52681     52677     52678     52683     52687     52688     52684     52683     52686
     52684     52683     52685     52685     52683     52686     52687     52683     52686
     52687     52683     52685     52687     52683     52684     52689     52693     52694
     52690     52689     52692     52690     52689     52691     52691     52689     52692
     52693     52689     52692     52693     52689     52691     52693     52689     52690
     52695     52699     52700     52696     52695     52698     52696     52695     52697
     52697     52695     52698     52699     52695     52698     52699     52695     52697
     52699     52695     52696     52701     52705     52706     52702     52701     52704
     52702     52701     52703     52703     52701     52704     52705     52701     52704
     52705     52701     52703     52705     52701     52702     52707     52711     52712
     52708     52707     52710     52708     52707     52709     52709     52707     52710
     52711     52707     52710     52711     52707     52709     52711     52707     52708
     52713     52717     52718     52714     52713     52716     52714     52713     52715
     52715     52713     52716     52717     52713     52716     52717     52713     52715
     52717     52713     52714     52719     52723     52724     52720     52719     52722
     52720     52719     52721     52721     52719     52722     52723     52719     52722
     52723     52719     52721     52723     52719     52720     52725     52729     52730
     52726     52725     52728     52726     52725     52727     52727     52725     52728
     52729     52725     52728     52729     52725     52727     52729     52725     52726
     52731     52735     52736     52732     52731     52734     52732     52731     52733
     52733     52731     52734     52735     52731     52734     52735     52731     52733
     52735     52731     52732     52737     52741     52742     52738     52737     52740
     52738     52737     52739     52739     52737     52740     52741     52737     52740
     52741     52737     52739     52741     52737     52738     52743     52747     52748
     52744     52743     52746     52744     52743     52745     52745     52743     52746
     52747     52743     52746     52747     52743     52745     52747     52743     52744
     52749     52753     52754     52750     52749     52752     52750     52749     52751
     52751     52749     52752     52753     52749     52752     52753     52749     52751
     52753     52749     52750     52755     52759     52760     52756     52755     52758
     52756     52755     52757     52757     52755     52758     52759     52755     52758
     52759     52755     52757     52759     52755     52756     52761     52765     52766
     52762     52761     52764     52762     52761     52763     52763     52761     52764
     52765     52761     52764     52765     52761     52763     52765     52761     52762
     52767     52771     52772     52768     52767     52770     52768     52767     52769
     52769     52767     52770     52771     52767     52770     52771     52767     52769
     52771     52767     52768     52773     52777     52778     52774     52773     52776
     52774     52773     52775     52775     52773     52776     52777     52773     52776
     52777     52773     52775     52777     52773     52774     52779     52783     52784
     52780     52779     52782     52780     52779     52781     52781     52779     52782
     52783     52779     52782     52783     52779     52781     52783     52779     52780
     52785     52789     52790     52786     52785     52788     52786     52785     52787
     52787     52785     52788     52789     52785     52788     52789     52785     52787
     52789     52785     52786     52791     52795     52796     52792     52791     52794
     52792     52791     52793     52793     52791     52794     52795     52791     52794
     52795     52791     52793     52795     52791     52792     52797     52801     52802
     52798     52797     52800     52798     52797     52799     52799     52797     52800
     52801     52797     52800     52801     52797     52799     52801     52797     52798
     52803     52807     52808     52804     52803     52806     52804     52803     52805
     52805     52803     52806     52807     52803     52806     52807     52803     52805
     52807     52803     52804     52809     52813     52814     52810     52809     52812
     52810     52809     52811     52811     52809     52812     52813     52809     52812
     52813     52809     52811     52813     52809     52810     52815     52819     52820
     52816     52815     52818     52816     52815     52817     52817     52815     52818
     52819     52815     52818     52819     52815     52817     52819     52815     52816
     52821     52825     52826     52822     52821     52824     52822     52821     52823
     52823     52821     52824     52825     52821     52824     52825     52821     52823
     52825     52821     52822     52827     52831     52832     52828     52827     52830
     52828     52827     52829     52829     52827     52830     52831     52827     52830
     52831     52827     52829     52831     52827     52828     52833     52837     52838
     52834     52833     52836     52834     52833     52835     52835     52833     52836
     52837     52833     52836     52837     52833     52835     52837     52833     52834
     52839     52843     52844     52840     52839     52842     52840     52839     52841
     52841     52839     52842     52843     52839     52842     52843     52839     52841
     52843     52839     52840     52845     52849     52850     52846     52845     52848
     52846     52845     52847     52847     52845     52848     52849     52845     52848
     52849     52845     52847     52849     52845     52846     52851     52855     52856
     52852     52851     52854     52852     52851     52853     52853     52851     52854
     52855     52851     52854     52855     52851     52853     52855     52851     52852
     52857     52861     52862     52858     52857     52860     52858     52857     52859
     52859     52857     52860     52861     52857     52860     52861     52857     52859
     52861     52857     52858     52863     52867     52868     52864     52863     52866
     52864     52863     52865     52865     52863     52866     52867     52863     52866
     52867     52863     52865     52867     52863     52864     52869     52873     52874
     52870     52869     52872     52870     52869     52871     52871     52869     52872
     52873     52869     52872     52873     52869     52871     52873     52869     52870
     52875     52879     52880     52876     52875     52878     52876     52875     52877
     52877     52875     52878     52879     52875     52878     52879     52875     52877
     52879     52875     52876     52881     52885     52886     52882     52881     52884
     52882     52881     52883     52883     52881     52884     52885     52881     52884
     52885     52881     52883     52885     52881     52882     52887     52891     52892
     52888     52887     52890     52888     52887     52889     52889     52887     52890
     52891     52887     52890     52891     52887     52889     52891     52887     52888
     52893     52897     52898     52894     52893     52896     52894     52893     52895
     52895     52893     52896     52897     52893     52896     52897     52893     52895
     52897     52893     52894     52899     52903     52904     52900     52899     52902
     52900     52899     52901     52901     52899     52902     52903     52899     52902
     52903     52899     52901     52903     52899     52900     52905     52909     52910
     52906     52905     52908     52906     52905     52907     52907     52905     52908
     52909     52905     52908     52909     52905     52907     52909     52905     52906
     52911     52915     52916     52912     52911     52914     52912     52911     52913
     52913     52911     52914     52915     52911     52914     52915     52911     52913
     52915     52911     52912     52917     52921     52922     52918     52917     52920
     52918     52917     52919     52919     52917     52920     52921     52917     52920
     52921     52917     52919     52921     52917     52918     52923     52927     52928
     52924     52923     52926     52924     52923     52925     52925     52923     52926
     52927     52923     52926     52927     52923     52925     52927     52923     52924
     52929     52933     52934     52930     52929     52932     52930     52929     52931
     52931     52929     52932     52933     52929     52932     52933     52929     52931
     52933     52929     52930     52935     52939     52940     52936     52935     52938
     52936     52935     52937     52937     52935     52938     52939     52935     52938
     52939     52935     52937     52939     52935     52936     52941     52945     52946
     52942     52941     52944     52942     52941     52943     52943     52941     52944
     52945     52941     52944     52945     52941     52943     52945     52941     52942
     52947     52951     52952     52948     52947     52950     52948     52947     52949
     52949     52947     52950     52951     52947     52950     52951     52947     52949
     52951     52947     52948     52953     52957     52958     52954     52953     52956
     52954     52953     52955     52955     52953     52956     52957     52953     52956
     52957     52953     52955     52957     52953     52954     52959     52963     52964
     52960     52959     52962     52960     52959     52961     52961     52959     52962
     52963     52959     52962     52963     52959     52961     52963     52959     52960
     52965     52969     52970     52966     52965     52968     52966     52965     52967
     52967     52965     52968     52969     52965     52968     52969     52965     52967
     52969     52965     52966     52971     52975     52976     52972     52971     52974
     52972     52971     52973     52973     52971     52974     52975     52971     52974
     52975     52971     52973     52975     52971     52972     52977     52981     52982
     52978     52977     52980     52978     52977     52979     52979     52977     52980
     52981     52977     52980     52981     52977     52979     52981     52977     52978
     52983     52987     52988     52984     52983     52986     52984     52983     52985
     52985     52983     52986     52987     52983     52986     52987     52983     52985
     52987     52983     52984     52989     52993     52994     52990     52989     52992
     52990     52989     52991     52991     52989     52992     52993     52989     52992
     52993     52989     52991     52993     52989     52990     52995     52999     53000
     52996     52995     52998     52996     52995     52997     52997     52995     52998
     52999     52995     52998     52999     52995     52997     52999     52995     52996
     53001     53005     53006     53002     53001     53004     53002     53001     53003
     53003     53001     53004     53005     53001     53004     53005     53001     53003
     53005     53001     53002     53007     53011     53012     53008     53007     53010
     53008     53007     53009     53009     53007     53010     53011     53007     53010
     53011     53007     53009     53011     53007     53008     53013     53017     53018
     53014     53013     53016     53014     53013     53015     53015     53013     53016
     53017     53013     53016     53017     53013     53015     53017     53013     53014
     53019     53023     53024     53020     53019     53022     53020     53019     53021
     53021     53019     53022     53023     53019     53022     53023     53019     53021
     53023     53019     53020     53025     53029     53030     53026     53025     53028
     53026     53025     53027     53027     53025     53028     53029     53025     53028
     53029     53025     53027     53029     53025     53026     53031     53035     53036
     53032     53031     53034     53032     53031     53033     53033     53031     53034
     53035     53031     53034     53035     53031     53033     53035     53031     53032
     53037     53041     53042     53038     53037     53040     53038     53037     53039
     53039     53037     53040     53041     53037     53040     53041     53037     53039
     53041     53037     53038     53043     53047     53048     53044     53043     53046
     53044     53043     53045     53045     53043     53046     53047     53043     53046
     53047     53043     53045     53047     53043     53044     53049     53053     53054
     53050     53049     53052     53050     53049     53051     53051     53049     53052
     53053     53049     53052     53053     53049     53051     53053     53049     53050
     53055     53059     53060     53056     53055     53058     53056     53055     53057
     53057     53055     53058     53059     53055     53058     53059     53055     53057
     53059     53055     53056     53061     53065     53066     53062     53061     53064
     53062     53061     53063     53063     53061     53064     53065     53061     53064
     53065     53061     53063     53065     53061     53062     53067     53071     53072
     53068     53067     53070     53068     53067     53069     53069     53067     53070
     53071     53067     53070     53071     53067     53069     53071     53067     53068
     53073     53077     53078     53074     53073     53076     53074     53073     53075
     53075     53073     53076     53077     53073     53076     53077     53073     53075
     53077     53073     53074     53079     53083     53084     53080     53079     53082
     53080     53079     53081     53081     53079     53082     53083     53079     53082
     53083     53079     53081     53083     53079     53080     53085     53089     53090
     53086     53085     53088     53086     53085     53087     53087     53085     53088
     53089     53085     53088     53089     53085     53087     53089     53085     53086
     53091     53095     53096     53092     53091     53094     53092     53091     53093
     53093     53091     53094     53095     53091     53094     53095     53091     53093
     53095     53091     53092     53097     53101     53102     53098     53097     53100
     53098     53097     53099     53099     53097     53100     53101     53097     53100
     53101     53097     53099     53101     53097     53098     53103     53107     53108
     53104     53103     53106     53104     53103     53105     53105     53103     53106
     53107     53103     53106     53107     53103     53105     53107     53103     53104
     53109     53113     53114     53110     53109     53112     53110     53109     53111
     53111     53109     53112     53113     53109     53112     53113     53109     53111
     53113     53109     53110     53115     53119     53120     53116     53115     53118
     53116     53115     53117     53117     53115     53118     53119     53115     53118
     53119     53115     53117     53119     53115     53116     53121     53125     53126
     53122     53121     53124     53122     53121     53123     53123     53121     53124
     53125     53121     53124     53125     53121     53123     53125     53121     53122
     53127     53131     53132     53128     53127     53130     53128     53127     53129
     53129     53127     53130     53131     53127     53130     53131     53127     53129
     53131     53127     53128     53133     53137     53138     53134     53133     53136
     53134     53133     53135     53135     53133     53136     53137     53133     53136
     53137     53133     53135     53137     53133     53134     53139     53143     53144
     53140     53139     53142     53140     53139     53141     53141     53139     53142
     53143     53139     53142     53143     53139     53141     53143     53139     53140
     53145     53149     53150     53146     53145     53148     53146     53145     53147
     53147     53145     53148     53149     53145     53148     53149     53145     53147
     53149     53145     53146     53151     53155     53156     53152     53151     53154
     53152     53151     53153     53153     53151     53154     53155     53151     53154
     53155     53151     53153     53155     53151     53152     53157     53161     53162
     53158     53157     53160     53158     53157     53159     53159     53157     53160
     53161     53157     53160     53161     53157     53159     53161     53157     53158
     53163     53167     53168     53164     53163     53166     53164     53163     53165
     53165     53163     53166     53167     53163     53166     53167     53163     53165
     53167     53163     53164     53169     53173     53174     53170     53169     53172
     53170     53169     53171     53171     53169     53172     53173     53169     53172
     53173     53169     53171     53173     53169     53170     53175     53179     53180
     53176     53175     53178     53176     53175     53177     53177     53175     53178
     53179     53175     53178     53179     53175     53177     53179     53175     53176
     53181     53185     53186     53182     53181     53184     53182     53181     53183
     53183     53181     53184     53185     53181     53184     53185     53181     53183
     53185     53181     53182     53187     53191     53192     53188     53187     53190
     53188     53187     53189     53189     53187     53190     53191     53187     53190
     53191     53187     53189     53191     53187     53188     53193     53197     53198
     53194     53193     53196     53194     53193     53195     53195     53193     53196
     53197     53193     53196     53197     53193     53195     53197     53193     53194
     53199     53203     53204     53200     53199     53202     53200     53199     53201
     53201     53199     53202     53203     53199     53202     53203     53199     53201
     53203     53199     53200     53205     53209     53210     53206     53205     53208
     53206     53205     53207     53207     53205     53208     53209     53205     53208
     53209     53205     53207     53209     53205     53206     53211     53215     53216
     53212     53211     53214     53212     53211     53213     53213     53211     53214
     53215     53211     53214     53215     53211     53213     53215     53211     53212
     53217     53221     53222     53218     53217     53220     53218     53217     53219
     53219     53217     53220     53221     53217     53220     53221     53217     53219
     53221     53217     53218     53223     53227     53228     53224     53223     53226
     53224     53223     53225     53225     53223     53226     53227     53223     53226
     53227     53223     53225     53227     53223     53224     53229     53233     53234
     53230     53229     53232     53230     53229     53231     53231     53229     53232
     53233     53229     53232     53233     53229     53231     53233     53229     53230
     53235     53239     53240     53236     53235     53238     53236     53235     53237
     53237     53235     53238     53239     53235     53238     53239     53235     53237
     53239     53235     53236     53241     53245     53246     53242     53241     53244
     53242     53241     53243     53243     53241     53244     53245     53241     53244
     53245     53241     53243     53245     53241     53242     53247     53251     53252
     53248     53247     53250     53248     53247     53249     53249     53247     53250
     53251     53247     53250     53251     53247     53249     53251     53247     53248
     53253     53257     53258     53254     53253     53256     53254     53253     53255
     53255     53253     53256     53257     53253     53256     53257     53253     53255
     53257     53253     53254     53259     53263     53264     53260     53259     53262
     53260     53259     53261     53261     53259     53262     53263     53259     53262
     53263     53259     53261     53263     53259     53260     53265     53269     53270
     53266     53265     53268     53266     53265     53267     53267     53265     53268
     53269     53265     53268     53269     53265     53267     53269     53265     53266
     53271     53275     53276     53272     53271     53274     53272     53271     53273
     53273     53271     53274     53275     53271     53274     53275     53271     53273
     53275     53271     53272     53277     53281     53282     53278     53277     53280
     53278     53277     53279     53279     53277     53280     53281     53277     53280
     53281     53277     53279     53281     53277     53278     53283     53287     53288
     53284     53283     53286     53284     53283     53285     53285     53283     53286
     53287     53283     53286     53287     53283     53285     53287     53283     53284
     53289     53293     53294     53290     53289     53292     53290     53289     53291
     53291     53289     53292     53293     53289     53292     53293     53289     53291
     53293     53289     53290     53295     53299     53300     53296     53295     53298
     53296     53295     53297     53297     53295     53298     53299     53295     53298
     53299     53295     53297     53299     53295     53296     53301     53305     53306
     53302     53301     53304     53302     53301     53303     53303     53301     53304
     53305     53301     53304     53305     53301     53303     53305     53301     53302
     53307     53311     53312     53308     53307     53310     53308     53307     53309
     53309     53307     53310     53311     53307     53310     53311     53307     53309
     53311     53307     53308     53313     53317     53318     53314     53313     53316
     53314     53313     53315     53315     53313     53316     53317     53313     53316
     53317     53313     53315     53317     53313     53314     53319     53323     53324
     53320     53319     53322     53320     53319     53321     53321     53319     53322
     53323     53319     53322     53323     53319     53321     53323     53319     53320
     53325     53329     53330     53326     53325     53328     53326     53325     53327
     53327     53325     53328     53329     53325     53328     53329     53325     53327
     53329     53325     53326     53331     53335     53336     53332     53331     53334
     53332     53331     53333     53333     53331     53334     53335     53331     53334
     53335     53331     53333     53335     53331     53332     53337     53341     53342
     53338     53337     53340     53338     53337     53339     53339     53337     53340
     53341     53337     53340     53341     53337     53339     53341     53337     53338
     53343     53347     53348     53344     53343     53346     53344     53343     53345
     53345     53343     53346     53347     53343     53346     53347     53343     53345
     53347     53343     53344     53349     53353     53354     53350     53349     53352
     53350     53349     53351     53351     53349     53352     53353     53349     53352
     53353     53349     53351     53353     53349     53350     53355     53359     53360
     53356     53355     53358     53356     53355     53357     53357     53355     53358
     53359     53355     53358     53359     53355     53357     53359     53355     53356
     53361     53365     53366     53362     53361     53364     53362     53361     53363
     53363     53361     53364     53365     53361     53364     53365     53361     53363
     53365     53361     53362     53367     53371     53372     53368     53367     53370
     53368     53367     53369     53369     53367     53370     53371     53367     53370
     53371     53367     53369     53371     53367     53368     53373     53377     53378
     53374     53373     53376     53374     53373     53375     53375     53373     53376
     53377     53373     53376     53377     53373     53375     53377     53373     53374
     53379     53383     53384     53380     53379     53382     53380     53379     53381
     53381     53379     53382     53383     53379     53382     53383     53379     53381
     53383     53379     53380     53385     53389     53390     53386     53385     53388
     53386     53385     53387     53387     53385     53388     53389     53385     53388
     53389     53385     53387     53389     53385     53386     53391     53395     53396
     53392     53391     53394     53392     53391     53393     53393     53391     53394
     53395     53391     53394     53395     53391     53393     53395     53391     53392
     53397     53401     53402     53398     53397     53400     53398     53397     53399
     53399     53397     53400     53401     53397     53400     53401     53397     53399
     53401     53397     53398     53403     53407     53408     53404     53403     53406
     53404     53403     53405     53405     53403     53406     53407     53403     53406
     53407     53403     53405     53407     53403     53404     53409     53413     53414
     53410     53409     53412     53410     53409     53411     53411     53409     53412
     53413     53409     53412     53413     53409     53411     53413     53409     53410
     53415     53419     53420     53416     53415     53418     53416     53415     53417
     53417     53415     53418     53419     53415     53418     53419     53415     53417
     53419     53415     53416     53421     53425     53426     53422     53421     53424
     53422     53421     53423     53423     53421     53424     53425     53421     53424
     53425     53421     53423     53425     53421     53422     53427     53431     53432
     53428     53427     53430     53428     53427     53429     53429     53427     53430
     53431     53427     53430     53431     53427     53429     53431     53427     53428
     53433     53437     53438     53434     53433     53436     53434     53433     53435
     53435     53433     53436     53437     53433     53436     53437     53433     53435
     53437     53433     53434     53439     53443     53444     53440     53439     53442
     53440     53439     53441     53441     53439     53442     53443     53439     53442
     53443     53439     53441     53443     53439     53440     53445     53449     53450
     53446     53445     53448     53446     53445     53447     53447     53445     53448
     53449     53445     53448     53449     53445     53447     53449     53445     53446
     53451     53455     53456     53452     53451     53454     53452     53451     53453
     53453     53451     53454     53455     53451     53454     53455     53451     53453
     53455     53451     53452     53457     53461     53462     53458     53457     53460
     53458     53457     53459     53459     53457     53460     53461     53457     53460
     53461     53457     53459     53461     53457     53458     53463     53467     53468
     53464     53463     53466     53464     53463     53465     53465     53463     53466
     53467     53463     53466     53467     53463     53465     53467     53463     53464
     53469     53473     53474     53470     53469     53472     53470     53469     53471
     53471     53469     53472     53473     53469     53472     53473     53469     53471
     53473     53469     53470     53475     53479     53480     53476     53475     53478
     53476     53475     53477     53477     53475     53478     53479     53475     53478
     53479     53475     53477     53479     53475     53476     53481     53485     53486
     53482     53481     53484     53482     53481     53483     53483     53481     53484
     53485     53481     53484     53485     53481     53483     53485     53481     53482
     53487     53491     53492     53488     53487     53490     53488     53487     53489
     53489     53487     53490     53491     53487     53490     53491     53487     53489
     53491     53487     53488     53493     53497     53498     53494     53493     53496
     53494     53493     53495     53495     53493     53496     53497     53493     53496
     53497     53493     53495     53497     53493     53494     53499     53503     53504
     53500     53499     53502     53500     53499     53501     53501     53499     53502
     53503     53499     53502     53503     53499     53501     53503     53499     53500
     53505     53509     53510     53506     53505     53508     53506     53505     53507
     53507     53505     53508     53509     53505     53508     53509     53505     53507
     53509     53505     53506     53511     53515     53516     53512     53511     53514
     53512     53511     53513     53513     53511     53514     53515     53511     53514
     53515     53511     53513     53515     53511     53512     53517     53521     53522
     53518     53517     53520     53518     53517     53519     53519     53517     53520
     53521     53517     53520     53521     53517     53519     53521     53517     53518
     53523     53527     53528     53524     53523     53526     53524     53523     53525
     53525     53523     53526     53527     53523     53526     53527     53523     53525
     53527     53523     53524     53529     53533     53534     53530     53529     53532
     53530     53529     53531     53531     53529     53532     53533     53529     53532
     53533     53529     53531     53533     53529     53530     53535     53539     53540
     53536     53535     53538     53536     53535     53537     53537     53535     53538
     53539     53535     53538     53539     53535     53537     53539     53535     53536
     53541     53545     53546     53542     53541     53544     53542     53541     53543
     53543     53541     53544     53545     53541     53544     53545     53541     53543
     53545     53541     53542     53547     53551     53552     53548     53547     53550
     53548     53547     53549     53549     53547     53550     53551     53547     53550
     53551     53547     53549     53551     53547     53548     53553     53557     53558
     53554     53553     53556     53554     53553     53555     53555     53553     53556
     53557     53553     53556     53557     53553     53555     53557     53553     53554
     53559     53563     53564     53560     53559     53562     53560     53559     53561
     53561     53559     53562     53563     53559     53562     53563     53559     53561
     53563     53559     53560     53565     53569     53570     53566     53565     53568
     53566     53565     53567     53567     53565     53568     53569     53565     53568
     53569     53565     53567     53569     53565     53566     53571     53575     53576
     53572     53571     53574     53572     53571     53573     53573     53571     53574
     53575     53571     53574     53575     53571     53573     53575     53571     53572
     53577     53581     53582     53578     53577     53580     53578     53577     53579
     53579     53577     53580     53581     53577     53580     53581     53577     53579
     53581     53577     53578     53583     53587     53588     53584     53583     53586
     53584     53583     53585     53585     53583     53586     53587     53583     53586
     53587     53583     53585     53587     53583     53584     53589     53593     53594
     53590     53589     53592     53590     53589     53591     53591     53589     53592
     53593     53589     53592     53593     53589     53591     53593     53589     53590
     53595     53599     53600     53596     53595     53598     53596     53595     53597
     53597     53595     53598     53599     53595     53598     53599     53595     53597
     53599     53595     53596     53601     53605     53606     53602     53601     53604
     53602     53601     53603     53603     53601     53604     53605     53601     53604
     53605     53601     53603     53605     53601     53602     53607     53611     53612
     53608     53607     53610     53608     53607     53609     53609     53607     53610
     53611     53607     53610     53611     53607     53609     53611     53607     53608
     53613     53617     53618     53614     53613     53616     53614     53613     53615
     53615     53613     53616     53617     53613     53616     53617     53613     53615
     53617     53613     53614     53619     53623     53624     53620     53619     53622
     53620     53619     53621     53621     53619     53622     53623     53619     53622
     53623     53619     53621     53623     53619     53620     53625     53629     53630
     53626     53625     53628     53626     53625     53627     53627     53625     53628
     53629     53625     53628     53629     53625     53627     53629     53625     53626
     53631     53635     53636     53632     53631     53634     53632     53631     53633
     53633     53631     53634     53635     53631     53634     53635     53631     53633
     53635     53631     53632     53637     53641     53642     53638     53637     53640
     53638     53637     53639     53639     53637     53640     53641     53637     53640
     53641     53637     53639     53641     53637     53638     53643     53647     53648
     53644     53643     53646     53644     53643     53645     53645     53643     53646
     53647     53643     53646     53647     53643     53645     53647     53643     53644
     53649     53653     53654     53650     53649     53652     53650     53649     53651
     53651     53649     53652     53653     53649     53652     53653     53649     53651
     53653     53649     53650     53655     53659     53660     53656     53655     53658
     53656     53655     53657     53657     53655     53658     53659     53655     53658
     53659     53655     53657     53659     53655     53656     53661     53665     53666
     53662     53661     53664     53662     53661     53663     53663     53661     53664
     53665     53661     53664     53665     53661     53663     53665     53661     53662
     53667     53671     53672     53668     53667     53670     53668     53667     53669
     53669     53667     53670     53671     53667     53670     53671     53667     53669
     53671     53667     53668     53673     53677     53678     53674     53673     53676
     53674     53673     53675     53675     53673     53676     53677     53673     53676
     53677     53673     53675     53677     53673     53674     53679     53683     53684
     53680     53679     53682     53680     53679     53681     53681     53679     53682
     53683     53679     53682     53683     53679     53681     53683     53679     53680
     53685     53689     53690     53686     53685     53688     53686     53685     53687
     53687     53685     53688     53689     53685     53688     53689     53685     53687
     53689     53685     53686     53691     53695     53696     53692     53691     53694
     53692     53691     53693     53693     53691     53694     53695     53691     53694
     53695     53691     53693     53695     53691     53692     53697     53701     53702
     53698     53697     53700     53698     53697     53699     53699     53697     53700
     53701     53697     53700     53701     53697     53699     53701     53697     53698
     53703     53707     53708     53704     53703     53706     53704     53703     53705
     53705     53703     53706     53707     53703     53706     53707     53703     53705
     53707     53703     53704     53709     53713     53714     53710     53709     53712
     53710     53709     53711     53711     53709     53712     53713     53709     53712
     53713     53709     53711     53713     53709     53710     53715     53719     53720
     53716     53715     53718     53716     53715     53717     53717     53715     53718
     53719     53715     53718     53719     53715     53717     53719     53715     53716
     53721     53725     53726     53722     53721     53724     53722     53721     53723
     53723     53721     53724     53725     53721     53724     53725     53721     53723
     53725     53721     53722     53727     53731     53732     53728     53727     53730
     53728     53727     53729     53729     53727     53730     53731     53727     53730
     53731     53727     53729     53731     53727     53728     53733     53737     53738
     53734     53733     53736     53734     53733     53735     53735     53733     53736
     53737     53733     53736     53737     53733     53735     53737     53733     53734
     53739     53743     53744     53740     53739     53742     53740     53739     53741
     53741     53739     53742     53743     53739     53742     53743     53739     53741
     53743     53739     53740     53745     53749     53750     53746     53745     53748
     53746     53745     53747     53747     53745     53748     53749     53745     53748
     53749     53745     53747     53749     53745     53746     53751     53755     53756
     53752     53751     53754     53752     53751     53753     53753     53751     53754
     53755     53751     53754     53755     53751     53753     53755     53751     53752
     53757     53761     53762     53758     53757     53760     53758     53757     53759
     53759     53757     53760     53761     53757     53760     53761     53757     53759
     53761     53757     53758     53763     53767     53768     53764     53763     53766
     53764     53763     53765     53765     53763     53766     53767     53763     53766
     53767     53763     53765     53767     53763     53764     53769     53773     53774
     53770     53769     53772     53770     53769     53771     53771     53769     53772
     53773     53769     53772     53773     53769     53771     53773     53769     53770
     53775     53779     53780     53776     53775     53778     53776     53775     53777
     53777     53775     53778     53779     53775     53778     53779     53775     53777
     53779     53775     53776     53781     53785     53786     53782     53781     53784
     53782     53781     53783     53783     53781     53784     53785     53781     53784
     53785     53781     53783     53785     53781     53782     53787     53791     53792
     53788     53787     53790     53788     53787     53789     53789     53787     53790
     53791     53787     53790     53791     53787     53789     53791     53787     53788
     53793     53797     53798     53794     53793     53796     53794     53793     53795
     53795     53793     53796     53797     53793     53796     53797     53793     53795
     53797     53793     53794     53799     53803     53804     53800     53799     53802
     53800     53799     53801     53801     53799     53802     53803     53799     53802
     53803     53799     53801     53803     53799     53800     53805     53809     53810
     53806     53805     53808     53806     53805     53807     53807     53805     53808
     53809     53805     53808     53809     53805     53807     53809     53805     53806
     53811     53815     53816     53812     53811     53814     53812     53811     53813
     53813     53811     53814     53815     53811     53814     53815     53811     53813
     53815     53811     53812     53817     53821     53822     53818     53817     53820
     53818     53817     53819     53819     53817     53820     53821     53817     53820
     53821     53817     53819     53821     53817     53818     53823     53827     53828
     53824     53823     53826     53824     53823     53825     53825     53823     53826
     53827     53823     53826     53827     53823     53825     53827     53823     53824
     53829     53833     53834     53830     53829     53832     53830     53829     53831
     53831     53829     53832     53833     53829     53832     53833     53829     53831
     53833     53829     53830     53835     53839     53840     53836     53835     53838
     53836     53835     53837     53837     53835     53838     53839     53835     53838
     53839     53835     53837     53839     53835     53836     53841     53845     53846
     53842     53841     53844     53842     53841     53843     53843     53841     53844
     53845     53841     53844     53845     53841     53843     53845     53841     53842
     53847     53851     53852     53848     53847     53850     53848     53847     53849
     53849     53847     53850     53851     53847     53850     53851     53847     53849
     53851     53847     53848     53853     53857     53858     53854     53853     53856
     53854     53853     53855     53855     53853     53856     53857     53853     53856
     53857     53853     53855     53857     53853     53854     53859     53863     53864
     53860     53859     53862     53860     53859     53861     53861     53859     53862
     53863     53859     53862     53863     53859     53861     53863     53859     53860
     53865     53869     53870     53866     53865     53868     53866     53865     53867
     53867     53865     53868     53869     53865     53868     53869     53865     53867
     53869     53865     53866     53871     53875     53876     53872     53871     53874
     53872     53871     53873     53873     53871     53874     53875     53871     53874
     53875     53871     53873     53875     53871     53872     53877     53881     53882
     53878     53877     53880     53878     53877     53879     53879     53877     53880
     53881     53877     53880     53881     53877     53879     53881     53877     53878
     53883     53887     53888     53884     53883     53886     53884     53883     53885
     53885     53883     53886     53887     53883     53886     53887     53883     53885
     53887     53883     53884     53889     53893     53894     53890     53889     53892
     53890     53889     53891     53891     53889     53892     53893     53889     53892
     53893     53889     53891     53893     53889     53890     53895     53899     53900
     53896     53895     53898     53896     53895     53897     53897     53895     53898
     53899     53895     53898     53899     53895     53897     53899     53895     53896
     53901     53905     53906     53902     53901     53904     53902     53901     53903
     53903     53901     53904     53905     53901     53904     53905     53901     53903
     53905     53901     53902     53907     53911     53912     53908     53907     53910
     53908     53907     53909     53909     53907     53910     53911     53907     53910
     53911     53907     53909     53911     53907     53908     53913     53917     53918
     53914     53913     53916     53914     53913     53915     53915     53913     53916
     53917     53913     53916     53917     53913     53915     53917     53913     53914
     53919     53923     53924     53920     53919     53922     53920     53919     53921
     53921     53919     53922     53923     53919     53922     53923     53919     53921
     53923     53919     53920     53925     53929     53930     53926     53925     53928
     53926     53925     53927     53927     53925     53928     53929     53925     53928
     53929     53925     53927     53929     53925     53926     53931     53935     53936
     53932     53931     53934     53932     53931     53933     53933     53931     53934
     53935     53931     53934     53935     53931     53933     53935     53931     53932
     53937     53941     53942     53938     53937     53940     53938     53937     53939
     53939     53937     53940     53941     53937     53940     53941     53937     53939
     53941     53937     53938     53943     53947     53948     53944     53943     53946
     53944     53943     53945     53945     53943     53946     53947     53943     53946
     53947     53943     53945     53947     53943     53944     53949     53953     53954
     53950     53949     53952     53950     53949     53951     53951     53949     53952
     53953     53949     53952     53953     53949     53951     53953     53949     53950
     53955     53959     53960     53956     53955     53958     53956     53955     53957
     53957     53955     53958     53959     53955     53958     53959     53955     53957
     53959     53955     53956     53961     53965     53966     53962     53961     53964
     53962     53961     53963     53963     53961     53964     53965     53961     53964
     53965     53961     53963     53965     53961     53962     53967     53971     53972
     53968     53967     53970     53968     53967     53969     53969     53967     53970
     53971     53967     53970     53971     53967     53969     53971     53967     53968
     53973     53977     53978     53974     53973     53976     53974     53973     53975
     53975     53973     53976     53977     53973     53976     53977     53973     53975
     53977     53973     53974     53979     53983     53984     53980     53979     53982
     53980     53979     53981     53981     53979     53982     53983     53979     53982
     53983     53979     53981     53983     53979     53980     53985     53989     53990
     53986     53985     53988     53986     53985     53987     53987     53985     53988
     53989     53985     53988     53989     53985     53987     53989     53985     53986
     53991     53995     53996     53992     53991     53994     53992     53991     53993
     53993     53991     53994     53995     53991     53994     53995     53991     53993
     53995     53991     53992     53997     54001     54002     53998     53997     54000
     53998     53997     53999     53999     53997     54000     54001     53997     54000
     54001     53997     53999     54001     53997     53998     54003     54007     54008
     54004     54003     54006     54004     54003     54005     54005     54003     54006
     54007     54003     54006     54007     54003     54005     54007     54003     54004
     54009     54013     54014     54010     54009     54012     54010     54009     54011
     54011     54009     54012     54013     54009     54012     54013     54009     54011
     54013     54009     54010     54015     54019     54020     54016     54015     54018
     54016     54015     54017     54017     54015     54018     54019     54015     54018
     54019     54015     54017     54019     54015     54016     54021     54025     54026
     54022     54021     54024     54022     54021     54023     54023     54021     54024
     54025     54021     54024     54025     54021     54023     54025     54021     54022
     54027     54031     54032     54028     54027     54030     54028     54027     54029
     54029     54027     54030     54031     54027     54030     54031     54027     54029
     54031     54027     54028     54033     54037     54038     54034     54033     54036
     54034     54033     54035     54035     54033     54036     54037     54033     54036
     54037     54033     54035     54037     54033     54034     54039     54043     54044
     54040     54039     54042     54040     54039     54041     54041     54039     54042
     54043     54039     54042     54043     54039     54041     54043     54039     54040
     54045     54049     54050     54046     54045     54048     54046     54045     54047
     54047     54045     54048     54049     54045     54048     54049     54045     54047
     54049     54045     54046     54051     54055     54056     54052     54051     54054
     54052     54051     54053     54053     54051     54054     54055     54051     54054
     54055     54051     54053     54055     54051     54052     54057     54061     54062
     54058     54057     54060     54058     54057     54059     54059     54057     54060
     54061     54057     54060     54061     54057     54059     54061     54057     54058
     54063     54067     54068     54064     54063     54066     54064     54063     54065
     54065     54063     54066     54067     54063     54066     54067     54063     54065
     54067     54063     54064     54069     54073     54074     54070     54069     54072
     54070     54069     54071     54071     54069     54072     54073     54069     54072
     54073     54069     54071     54073     54069     54070     54075     54079     54080
     54076     54075     54078     54076     54075     54077     54077     54075     54078
     54079     54075     54078     54079     54075     54077     54079     54075     54076
     54081     54085     54086     54082     54081     54084     54082     54081     54083
     54083     54081     54084     54085     54081     54084     54085     54081     54083
     54085     54081     54082     54087     54091     54092     54088     54087     54090
     54088     54087     54089     54089     54087     54090     54091     54087     54090
     54091     54087     54089     54091     54087     54088     54093     54097     54098
     54094     54093     54096     54094     54093     54095     54095     54093     54096
     54097     54093     54096     54097     54093     54095     54097     54093     54094
     54099     54103     54104     54100     54099     54102     54100     54099     54101
     54101     54099     54102     54103     54099     54102     54103     54099     54101
     54103     54099     54100     54105     54109     54110     54106     54105     54108
     54106     54105     54107     54107     54105     54108     54109     54105     54108
     54109     54105     54107     54109     54105     54106     54111     54115     54116
     54112     54111     54114     54112     54111     54113     54113     54111     54114
     54115     54111     54114     54115     54111     54113     54115     54111     54112
     54117     54121     54122     54118     54117     54120     54118     54117     54119
     54119     54117     54120     54121     54117     54120     54121     54117     54119
     54121     54117     54118     54123     54127     54128     54124     54123     54126
     54124     54123     54125     54125     54123     54126     54127     54123     54126
     54127     54123     54125     54127     54123     54124     54129     54133     54134
     54130     54129     54132     54130     54129     54131     54131     54129     54132
     54133     54129     54132     54133     54129     54131     54133     54129     54130
     54135     54139     54140     54136     54135     54138     54136     54135     54137
     54137     54135     54138     54139     54135     54138     54139     54135     54137
     54139     54135     54136     54141     54145     54146     54142     54141     54144
     54142     54141     54143     54143     54141     54144     54145     54141     54144
     54145     54141     54143     54145     54141     54142     54147     54151     54152
     54148     54147     54150     54148     54147     54149     54149     54147     54150
     54151     54147     54150     54151     54147     54149     54151     54147     54148
     54153     54157     54158     54154     54153     54156     54154     54153     54155
     54155     54153     54156     54157     54153     54156     54157     54153     54155
     54157     54153     54154     54159     54163     54164     54160     54159     54162
     54160     54159     54161     54161     54159     54162     54163     54159     54162
     54163     54159     54161     54163     54159     54160     54165     54169     54170
     54166     54165     54168     54166     54165     54167     54167     54165     54168
     54169     54165     54168     54169     54165     54167     54169     54165     54166
     54171     54175     54176     54172     54171     54174     54172     54171     54173
     54173     54171     54174     54175     54171     54174     54175     54171     54173
     54175     54171     54172     54177     54181     54182     54178     54177     54180
     54178     54177     54179     54179     54177     54180     54181     54177     54180
     54181     54177     54179     54181     54177     54178     54183     54187     54188
     54184     54183     54186     54184     54183     54185     54185     54183     54186
     54187     54183     54186     54187     54183     54185     54187     54183     54184
     54189     54193     54194     54190     54189     54192     54190     54189     54191
     54191     54189     54192     54193     54189     54192     54193     54189     54191
     54193     54189     54190     54195     54199     54200     54196     54195     54198
     54196     54195     54197     54197     54195     54198     54199     54195     54198
     54199     54195     54197     54199     54195     54196     54201     54205     54206
     54202     54201     54204     54202     54201     54203     54203     54201     54204
     54205     54201     54204     54205     54201     54203     54205     54201     54202
     54207     54211     54212     54208     54207     54210     54208     54207     54209
     54209     54207     54210     54211     54207     54210     54211     54207     54209
     54211     54207     54208     54213     54217     54218     54214     54213     54216
     54214     54213     54215     54215     54213     54216     54217     54213     54216
     54217     54213     54215     54217     54213     54214     54219     54223     54224
     54220     54219     54222     54220     54219     54221     54221     54219     54222
     54223     54219     54222     54223     54219     54221     54223     54219     54220
     54225     54229     54230     54226     54225     54228     54226     54225     54227
     54227     54225     54228     54229     54225     54228     54229     54225     54227
     54229     54225     54226     54231     54235     54236     54232     54231     54234
     54232     54231     54233     54233     54231     54234     54235     54231     54234
     54235     54231     54233     54235     54231     54232     54237     54241     54242
     54238     54237     54240     54238     54237     54239     54239     54237     54240
     54241     54237     54240     54241     54237     54239     54241     54237     54238
     54243     54247     54248     54244     54243     54246     54244     54243     54245
     54245     54243     54246     54247     54243     54246     54247     54243     54245
     54247     54243     54244     54249     54253     54254     54250     54249     54252
     54250     54249     54251     54251     54249     54252     54253     54249     54252
     54253     54249     54251     54253     54249     54250     54255     54259     54260
     54256     54255     54258     54256     54255     54257     54257     54255     54258
     54259     54255     54258     54259     54255     54257     54259     54255     54256
     54261     54265     54266     54262     54261     54264     54262     54261     54263
     54263     54261     54264     54265     54261     54264     54265     54261     54263
     54265     54261     54262     54267     54271     54272     54268     54267     54270
     54268     54267     54269     54269     54267     54270     54271     54267     54270
     54271     54267     54269     54271     54267     54268     54273     54277     54278
     54274     54273     54276     54274     54273     54275     54275     54273     54276
     54277     54273     54276     54277     54273     54275     54277     54273     54274
     54279     54283     54284     54280     54279     54282     54280     54279     54281
     54281     54279     54282     54283     54279     54282     54283     54279     54281
     54283     54279     54280     54285     54289     54290     54286     54285     54288
     54286     54285     54287     54287     54285     54288     54289     54285     54288
     54289     54285     54287     54289     54285     54286     54291     54295     54296
     54292     54291     54294     54292     54291     54293     54293     54291     54294
     54295     54291     54294     54295     54291     54293     54295     54291     54292
     54297     54301     54302     54298     54297     54300     54298     54297     54299
     54299     54297     54300     54301     54297     54300     54301     54297     54299
     54301     54297     54298     54303     54307     54308     54304     54303     54306
     54304     54303     54305     54305     54303     54306     54307     54303     54306
     54307     54303     54305     54307     54303     54304     54309     54313     54314
     54310     54309     54312     54310     54309     54311     54311     54309     54312
     54313     54309     54312     54313     54309     54311     54313     54309     54310
     54315     54319     54320     54316     54315     54318     54316     54315     54317
     54317     54315     54318     54319     54315     54318     54319     54315     54317
     54319     54315     54316     54321     54325     54326     54322     54321     54324
     54322     54321     54323     54323     54321     54324     54325     54321     54324
     54325     54321     54323     54325     54321     54322     54327     54331     54332
     54328     54327     54330     54328     54327     54329     54329     54327     54330
     54331     54327     54330     54331     54327     54329     54331     54327     54328
     54333     54337     54338     54334     54333     54336     54334     54333     54335
     54335     54333     54336     54337     54333     54336     54337     54333     54335
     54337     54333     54334     54339     54343     54344     54340     54339     54342
     54340     54339     54341     54341     54339     54342     54343     54339     54342
     54343     54339     54341     54343     54339     54340     54345     54349     54350
     54346     54345     54348     54346     54345     54347     54347     54345     54348
     54349     54345     54348     54349     54345     54347     54349     54345     54346
     54351     54355     54356     54352     54351     54354     54352     54351     54353
     54353     54351     54354     54355     54351     54354     54355     54351     54353
     54355     54351     54352     54357     54361     54362     54358     54357     54360
     54358     54357     54359     54359     54357     54360     54361     54357     54360
     54361     54357     54359     54361     54357     54358     54363     54367     54368
     54364     54363     54366     54364     54363     54365     54365     54363     54366
     54367     54363     54366     54367     54363     54365     54367     54363     54364
     54369     54373     54374     54370     54369     54372     54370     54369     54371
     54371     54369     54372     54373     54369     54372     54373     54369     54371
     54373     54369     54370     54375     54379     54380     54376     54375     54378
     54376     54375     54377     54377     54375     54378     54379     54375     54378
     54379     54375     54377     54379     54375     54376     54381     54385     54386
     54382     54381     54384     54382     54381     54383     54383     54381     54384
     54385     54381     54384     54385     54381     54383     54385     54381     54382
     54387     54391     54392     54388     54387     54390     54388     54387     54389
     54389     54387     54390     54391     54387     54390     54391     54387     54389
     54391     54387     54388     54393     54397     54398     54394     54393     54396
     54394     54393     54395     54395     54393     54396     54397     54393     54396
     54397     54393     54395     54397     54393     54394     54399     54403     54404
     54400     54399     54402     54400     54399     54401     54401     54399     54402
     54403     54399     54402     54403     54399     54401     54403     54399     54400
     54405     54409     54410     54406     54405     54408     54406     54405     54407
     54407     54405     54408     54409     54405     54408     54409     54405     54407
     54409     54405     54406     54411     54415     54416     54412     54411     54414
     54412     54411     54413     54413     54411     54414     54415     54411     54414
     54415     54411     54413     54415     54411     54412     54417     54421     54422
     54418     54417     54420     54418     54417     54419     54419     54417     54420
     54421     54417     54420     54421     54417     54419     54421     54417     54418
     54423     54427     54428     54424     54423     54426     54424     54423     54425
     54425     54423     54426     54427     54423     54426     54427     54423     54425
     54427     54423     54424     54429     54433     54434     54430     54429     54432
     54430     54429     54431     54431     54429     54432     54433     54429     54432
     54433     54429     54431     54433     54429     54430     54435     54439     54440
     54436     54435     54438     54436     54435     54437     54437     54435     54438
     54439     54435     54438     54439     54435     54437     54439     54435     54436
     54441     54445     54446     54442     54441     54444     54442     54441     54443
     54443     54441     54444     54445     54441     54444     54445     54441     54443
     54445     54441     54442     54447     54451     54452     54448     54447     54450
     54448     54447     54449     54449     54447     54450     54451     54447     54450
     54451     54447     54449     54451     54447     54448     54453     54457     54458
     54454     54453     54456     54454     54453     54455     54455     54453     54456
     54457     54453     54456     54457     54453     54455     54457     54453     54454
     54459     54463     54464     54460     54459     54462     54460     54459     54461
     54461     54459     54462     54463     54459     54462     54463     54459     54461
     54463     54459     54460     54465     54469     54470     54466     54465     54468
     54466     54465     54467     54467     54465     54468     54469     54465     54468
     54469     54465     54467     54469     54465     54466     54471     54475     54476
     54472     54471     54474     54472     54471     54473     54473     54471     54474
     54475     54471     54474     54475     54471     54473     54475     54471     54472
     54477     54481     54482     54478     54477     54480     54478     54477     54479
     54479     54477     54480     54481     54477     54480     54481     54477     54479
     54481     54477     54478     54483     54487     54488     54484     54483     54486
     54484     54483     54485     54485     54483     54486     54487     54483     54486
     54487     54483     54485     54487     54483     54484     54489     54493     54494
     54490     54489     54492     54490     54489     54491     54491     54489     54492
     54493     54489     54492     54493     54489     54491     54493     54489     54490
     54495     54499     54500     54496     54495     54498     54496     54495     54497
     54497     54495     54498     54499     54495     54498     54499     54495     54497
     54499     54495     54496     54501     54505     54506     54502     54501     54504
     54502     54501     54503     54503     54501     54504     54505     54501     54504
     54505     54501     54503     54505     54501     54502     54507     54511     54512
     54508     54507     54510     54508     54507     54509     54509     54507     54510
     54511     54507     54510     54511     54507     54509     54511     54507     54508
     54513     54517     54518     54514     54513     54516     54514     54513     54515
     54515     54513     54516     54517     54513     54516     54517     54513     54515
     54517     54513     54514     54519     54523     54524     54520     54519     54522
     54520     54519     54521     54521     54519     54522     54523     54519     54522
     54523     54519     54521     54523     54519     54520     54525     54529     54530
     54526     54525     54528     54526     54525     54527     54527     54525     54528
     54529     54525     54528     54529     54525     54527     54529     54525     54526
     54531     54535     54536     54532     54531     54534     54532     54531     54533
     54533     54531     54534     54535     54531     54534     54535     54531     54533
     54535     54531     54532     54537     54541     54542     54538     54537     54540
     54538     54537     54539     54539     54537     54540     54541     54537     54540
     54541     54537     54539     54541     54537     54538     54543     54547     54548
     54544     54543     54546     54544     54543     54545     54545     54543     54546
     54547     54543     54546     54547     54543     54545     54547     54543     54544
     54549     54553     54554     54550     54549     54552     54550     54549     54551
     54551     54549     54552     54553     54549     54552     54553     54549     54551
     54553     54549     54550     54555     54559     54560     54556     54555     54558
     54556     54555     54557     54557     54555     54558     54559     54555     54558
     54559     54555     54557     54559     54555     54556     54561     54565     54566
     54562     54561     54564     54562     54561     54563     54563     54561     54564
     54565     54561     54564     54565     54561     54563     54565     54561     54562
     54567     54571     54572     54568     54567     54570     54568     54567     54569
     54569     54567     54570     54571     54567     54570     54571     54567     54569
     54571     54567     54568     54573     54577     54578     54574     54573     54576
     54574     54573     54575     54575     54573     54576     54577     54573     54576
     54577     54573     54575     54577     54573     54574     54579     54583     54584
     54580     54579     54582     54580     54579     54581     54581     54579     54582
     54583     54579     54582     54583     54579     54581     54583     54579     54580
     54585     54589     54590     54586     54585     54588     54586     54585     54587
     54587     54585     54588     54589     54585     54588     54589     54585     54587
     54589     54585     54586     54591     54595     54596     54592     54591     54594
     54592     54591     54593     54593     54591     54594     54595     54591     54594
     54595     54591     54593     54595     54591     54592     54597     54601     54602
     54598     54597     54600     54598     54597     54599     54599     54597     54600
     54601     54597     54600     54601     54597     54599     54601     54597     54598
     54603     54607     54608     54604     54603     54606     54604     54603     54605
     54605     54603     54606     54607     54603     54606     54607     54603     54605
     54607     54603     54604     54609     54613     54614     54610     54609     54612
     54610     54609     54611     54611     54609     54612     54613     54609     54612
     54613     54609     54611     54613     54609     54610     54615     54619     54620
     54616     54615     54618     54616     54615     54617     54617     54615     54618
     54619     54615     54618     54619     54615     54617     54619     54615     54616
     54621     54625     54626     54622     54621     54624     54622     54621     54623
     54623     54621     54624     54625     54621     54624     54625     54621     54623
     54625     54621     54622     54627     54631     54632     54628     54627     54630
     54628     54627     54629     54629     54627     54630     54631     54627     54630
     54631     54627     54629     54631     54627     54628     54633     54637     54638
     54634     54633     54636     54634     54633     54635     54635     54633     54636
     54637     54633     54636     54637     54633     54635     54637     54633     54634
     54639     54643     54644     54640     54639     54642     54640     54639     54641
     54641     54639     54642     54643     54639     54642     54643     54639     54641
     54643     54639     54640     54645     54649     54650     54646     54645     54648
     54646     54645     54647     54647     54645     54648     54649     54645     54648
     54649     54645     54647     54649     54645     54646     54651     54655     54656
     54652     54651     54654     54652     54651     54653     54653     54651     54654
     54655     54651     54654     54655     54651     54653     54655     54651     54652
     54657     54661     54662     54658     54657     54660     54658     54657     54659
     54659     54657     54660     54661     54657     54660     54661     54657     54659
     54661     54657     54658     54663     54667     54668     54664     54663     54666
     54664     54663     54665     54665     54663     54666     54667     54663     54666
     54667     54663     54665     54667     54663     54664     54669     54673     54674
     54670     54669     54672     54670     54669     54671     54671     54669     54672
     54673     54669     54672     54673     54669     54671     54673     54669     54670
     54675     54679     54680     54676     54675     54678     54676     54675     54677
     54677     54675     54678     54679     54675     54678     54679     54675     54677
     54679     54675     54676     54681     54685     54686     54682     54681     54684
     54682     54681     54683     54683     54681     54684     54685     54681     54684
     54685     54681     54683     54685     54681     54682     54687     54691     54692
     54688     54687     54690     54688     54687     54689     54689     54687     54690
     54691     54687     54690     54691     54687     54689     54691     54687     54688
     54693     54697     54698     54694     54693     54696     54694     54693     54695
     54695     54693     54696     54697     54693     54696     54697     54693     54695
     54697     54693     54694     54699     54703     54704     54700     54699     54702
     54700     54699     54701     54701     54699     54702     54703     54699     54702
     54703     54699     54701     54703     54699     54700     54705     54709     54710
     54706     54705     54708     54706     54705     54707     54707     54705     54708
     54709     54705     54708     54709     54705     54707     54709     54705     54706
     54711     54715     54716     54712     54711     54714     54712     54711     54713
     54713     54711     54714     54715     54711     54714     54715     54711     54713
     54715     54711     54712     54717     54721     54722     54718     54717     54720
     54718     54717     54719     54719     54717     54720     54721     54717     54720
     54721     54717     54719     54721     54717     54718     54723     54727     54728
     54724     54723     54726     54724     54723     54725     54725     54723     54726
     54727     54723     54726     54727     54723     54725     54727     54723     54724
     54729     54733     54734     54730     54729     54732     54730     54729     54731
     54731     54729     54732     54733     54729     54732     54733     54729     54731
     54733     54729     54730     54735     54739     54740     54736     54735     54738
     54736     54735     54737     54737     54735     54738     54739     54735     54738
     54739     54735     54737     54739     54735     54736     54741     54745     54746
     54742     54741     54744     54742     54741     54743     54743     54741     54744
     54745     54741     54744     54745     54741     54743     54745     54741     54742
     54747     54751     54752     54748     54747     54750     54748     54747     54749
     54749     54747     54750     54751     54747     54750     54751     54747     54749
     54751     54747     54748     54753     54757     54758     54754     54753     54756
     54754     54753     54755     54755     54753     54756     54757     54753     54756
     54757     54753     54755     54757     54753     54754     54759     54763     54764
     54760     54759     54762     54760     54759     54761     54761     54759     54762
     54763     54759     54762     54763     54759     54761     54763     54759     54760
     54765     54769     54770     54766     54765     54768     54766     54765     54767
     54767     54765     54768     54769     54765     54768     54769     54765     54767
     54769     54765     54766     54771     54775     54776     54772     54771     54774
     54772     54771     54773     54773     54771     54774     54775     54771     54774
     54775     54771     54773     54775     54771     54772     54777     54781     54782
     54778     54777     54780     54778     54777     54779     54779     54777     54780
     54781     54777     54780     54781     54777     54779     54781     54777     54778
     54783     54787     54788     54784     54783     54786     54784     54783     54785
     54785     54783     54786     54787     54783     54786     54787     54783     54785
     54787     54783     54784     54789     54793     54794     54790     54789     54792
     54790     54789     54791     54791     54789     54792     54793     54789     54792
     54793     54789     54791     54793     54789     54790     54795     54799     54800
     54796     54795     54798     54796     54795     54797     54797     54795     54798
     54799     54795     54798     54799     54795     54797     54799     54795     54796
     54801     54805     54806     54802     54801     54804     54802     54801     54803
     54803     54801     54804     54805     54801     54804     54805     54801     54803
     54805     54801     54802     54807     54811     54812     54808     54807     54810
     54808     54807     54809     54809     54807     54810     54811     54807     54810
     54811     54807     54809     54811     54807     54808     54813     54817     54818
     54814     54813     54816     54814     54813     54815     54815     54813     54816
     54817     54813     54816     54817     54813     54815     54817     54813     54814
     54819     54823     54824     54820     54819     54822     54820     54819     54821
     54821     54819     54822     54823     54819     54822     54823     54819     54821
     54823     54819     54820     54825     54829     54830     54826     54825     54828
     54826     54825     54827     54827     54825     54828     54829     54825     54828
     54829     54825     54827     54829     54825     54826     54831     54835     54836
     54832     54831     54834     54832     54831     54833     54833     54831     54834
     54835     54831     54834     54835     54831     54833     54835     54831     54832
     54837     54841     54842     54838     54837     54840     54838     54837     54839
     54839     54837     54840     54841     54837     54840     54841     54837     54839
     54841     54837     54838     54843     54847     54848     54844     54843     54846
     54844     54843     54845     54845     54843     54846     54847     54843     54846
     54847     54843     54845     54847     54843     54844     54849     54853     54854
     54850     54849     54852     54850     54849     54851     54851     54849     54852
     54853     54849     54852     54853     54849     54851     54853     54849     54850
     54855     54859     54860     54856     54855     54858     54856     54855     54857
     54857     54855     54858     54859     54855     54858     54859     54855     54857
     54859     54855     54856     54861     54865     54866     54862     54861     54864
     54862     54861     54863     54863     54861     54864     54865     54861     54864
     54865     54861     54863     54865     54861     54862     54867     54871     54872
     54868     54867     54870     54868     54867     54869     54869     54867     54870
     54871     54867     54870     54871     54867     54869     54871     54867     54868
     54873     54877     54878     54874     54873     54876     54874     54873     54875
     54875     54873     54876     54877     54873     54876     54877     54873     54875
     54877     54873     54874     54879     54883     54884     54880     54879     54882
     54880     54879     54881     54881     54879     54882     54883     54879     54882
     54883     54879     54881     54883     54879     54880     54885     54889     54890
     54886     54885     54888     54886     54885     54887     54887     54885     54888
     54889     54885     54888     54889     54885     54887     54889     54885     54886
     54891     54895     54896     54892     54891     54894     54892     54891     54893
     54893     54891     54894     54895     54891     54894     54895     54891     54893
     54895     54891     54892     54897     54901     54902     54898     54897     54900
     54898     54897     54899     54899     54897     54900     54901     54897     54900
     54901     54897     54899     54901     54897     54898     54903     54907     54908
     54904     54903     54906     54904     54903     54905     54905     54903     54906
     54907     54903     54906     54907     54903     54905     54907     54903     54904
     54909     54913     54914     54910     54909     54912     54910     54909     54911
     54911     54909     54912     54913     54909     54912     54913     54909     54911
     54913     54909     54910     54915     54919     54920     54916     54915     54918
     54916     54915     54917     54917     54915     54918     54919     54915     54918
     54919     54915     54917     54919     54915     54916     54921     54925     54926
     54922     54921     54924     54922     54921     54923     54923     54921     54924
     54925     54921     54924     54925     54921     54923     54925     54921     54922
     54927     54931     54932     54928     54927     54930     54928     54927     54929
     54929     54927     54930     54931     54927     54930     54931     54927     54929
     54931     54927     54928     54933     54937     54938     54934     54933     54936
     54934     54933     54935     54935     54933     54936     54937     54933     54936
     54937     54933     54935     54937     54933     54934     54939     54943     54944
     54940     54939     54942     54940     54939     54941     54941     54939     54942
     54943     54939     54942     54943     54939     54941     54943     54939     54940
     54945     54949     54950     54946     54945     54948     54946     54945     54947
     54947     54945     54948     54949     54945     54948     54949     54945     54947
     54949     54945     54946     54951     54955     54956     54952     54951     54954
     54952     54951     54953     54953     54951     54954     54955     54951     54954
     54955     54951     54953     54955     54951     54952     54957     54961     54962
     54958     54957     54960     54958     54957     54959     54959     54957     54960
     54961     54957     54960     54961     54957     54959     54961     54957     54958
     54963     54967     54968     54964     54963     54966     54964     54963     54965
     54965     54963     54966     54967     54963     54966     54967     54963     54965
     54967     54963     54964     54969     54973     54974     54970     54969     54972
     54970     54969     54971     54971     54969     54972     54973     54969     54972
     54973     54969     54971     54973     54969     54970     54975     54979     54980
     54976     54975     54978     54976     54975     54977     54977     54975     54978
     54979     54975     54978     54979     54975     54977     54979     54975     54976
     54981     54985     54986     54982     54981     54984     54982     54981     54983
     54983     54981     54984     54985     54981     54984     54985     54981     54983
     54985     54981     54982     54987     54991     54992     54988     54987     54990
     54988     54987     54989     54989     54987     54990     54991     54987     54990
     54991     54987     54989     54991     54987     54988     54993     54997     54998
     54994     54993     54996     54994     54993     54995     54995     54993     54996
     54997     54993     54996     54997     54993     54995     54997     54993     54994
     54999     55003     55004     55000     54999     55002     55000     54999     55001
     55001     54999     55002     55003     54999     55002     55003     54999     55001
     55003     54999     55000     55005     55009     55010     55006     55005     55008
     55006     55005     55007     55007     55005     55008     55009     55005     55008
     55009     55005     55007     55009     55005     55006     55011     55015     55016
     55012     55011     55014     55012     55011     55013     55013     55011     55014
     55015     55011     55014     55015     55011     55013     55015     55011     55012
     55017     55021     55022     55018     55017     55020     55018     55017     55019
     55019     55017     55020     55021     55017     55020     55021     55017     55019
     55021     55017     55018     55023     55027     55028     55024     55023     55026
     55024     55023     55025     55025     55023     55026     55027     55023     55026
     55027     55023     55025     55027     55023     55024     55029     55033     55034
     55030     55029     55032     55030     55029     55031     55031     55029     55032
     55033     55029     55032     55033     55029     55031     55033     55029     55030
     55035     55039     55040     55036     55035     55038     55036     55035     55037
     55037     55035     55038     55039     55035     55038     55039     55035     55037
     55039     55035     55036     55041     55045     55046     55042     55041     55044
     55042     55041     55043     55043     55041     55044     55045     55041     55044
     55045     55041     55043     55045     55041     55042     55047     55051     55052
     55048     55047     55050     55048     55047     55049     55049     55047     55050
     55051     55047     55050     55051     55047     55049     55051     55047     55048
     55053     55057     55058     55054     55053     55056     55054     55053     55055
     55055     55053     55056     55057     55053     55056     55057     55053     55055
     55057     55053     55054     55059     55063     55064     55060     55059     55062
     55060     55059     55061     55061     55059     55062     55063     55059     55062
     55063     55059     55061     55063     55059     55060     55065     55069     55070
     55066     55065     55068     55066     55065     55067     55067     55065     55068
     55069     55065     55068     55069     55065     55067     55069     55065     55066
     55071     55075     55076     55072     55071     55074     55072     55071     55073
     55073     55071     55074     55075     55071     55074     55075     55071     55073
     55075     55071     55072     55077     55081     55082     55078     55077     55080
     55078     55077     55079     55079     55077     55080     55081     55077     55080
     55081     55077     55079     55081     55077     55078     55083     55087     55088
     55084     55083     55086     55084     55083     55085     55085     55083     55086
     55087     55083     55086     55087     55083     55085     55087     55083     55084
     55089     55093     55094     55090     55089     55092     55090     55089     55091
     55091     55089     55092     55093     55089     55092     55093     55089     55091
     55093     55089     55090     55095     55099     55100     55096     55095     55098
     55096     55095     55097     55097     55095     55098     55099     55095     55098
     55099     55095     55097     55099     55095     55096     55101     55105     55106
     55102     55101     55104     55102     55101     55103     55103     55101     55104
     55105     55101     55104     55105     55101     55103     55105     55101     55102
     55107     55111     55112     55108     55107     55110     55108     55107     55109
     55109     55107     55110     55111     55107     55110     55111     55107     55109
     55111     55107     55108     55113     55117     55118     55114     55113     55116
     55114     55113     55115     55115     55113     55116     55117     55113     55116
     55117     55113     55115     55117     55113     55114     55119     55123     55124
     55120     55119     55122     55120     55119     55121     55121     55119     55122
     55123     55119     55122     55123     55119     55121     55123     55119     55120
     55125     55129     55130     55126     55125     55128     55126     55125     55127
     55127     55125     55128     55129     55125     55128     55129     55125     55127
     55129     55125     55126     55131     55135     55136     55132     55131     55134
     55132     55131     55133     55133     55131     55134     55135     55131     55134
     55135     55131     55133     55135     55131     55132     55137     55141     55142
     55138     55137     55140     55138     55137     55139     55139     55137     55140
     55141     55137     55140     55141     55137     55139     55141     55137     55138
     55143     55147     55148     55144     55143     55146     55144     55143     55145
     55145     55143     55146     55147     55143     55146     55147     55143     55145
     55147     55143     55144     55149     55153     55154     55150     55149     55152
     55150     55149     55151     55151     55149     55152     55153     55149     55152
     55153     55149     55151     55153     55149     55150     55155     55159     55160
     55156     55155     55158     55156     55155     55157     55157     55155     55158
     55159     55155     55158     55159     55155     55157     55159     55155     55156
     55161     55165     55166     55162     55161     55164     55162     55161     55163
     55163     55161     55164     55165     55161     55164     55165     55161     55163
     55165     55161     55162     55167     55171     55172     55168     55167     55170
     55168     55167     55169     55169     55167     55170     55171     55167     55170
     55171     55167     55169     55171     55167     55168     55173     55177     55178
     55174     55173     55176     55174     55173     55175     55175     55173     55176
     55177     55173     55176     55177     55173     55175     55177     55173     55174
     55179     55183     55184     55180     55179     55182     55180     55179     55181
     55181     55179     55182     55183     55179     55182     55183     55179     55181
     55183     55179     55180     55185     55189     55190     55186     55185     55188
     55186     55185     55187     55187     55185     55188     55189     55185     55188
     55189     55185     55187     55189     55185     55186     55191     55195     55196
     55192     55191     55194     55192     55191     55193     55193     55191     55194
     55195     55191     55194     55195     55191     55193     55195     55191     55192
     55197     55201     55202     55198     55197     55200     55198     55197     55199
     55199     55197     55200     55201     55197     55200     55201     55197     55199
     55201     55197     55198     55203     55207     55208     55204     55203     55206
     55204     55203     55205     55205     55203     55206     55207     55203     55206
     55207     55203     55205     55207     55203     55204     55209     55213     55214
     55210     55209     55212     55210     55209     55211     55211     55209     55212
     55213     55209     55212     55213     55209     55211     55213     55209     55210
     55215     55219     55220     55216     55215     55218     55216     55215     55217
     55217     55215     55218     55219     55215     55218     55219     55215     55217
     55219     55215     55216     55221     55225     55226     55222     55221     55224
     55222     55221     55223     55223     55221     55224     55225     55221     55224
     55225     55221     55223     55225     55221     55222     55227     55231     55232
     55228     55227     55230     55228     55227     55229     55229     55227     55230
     55231     55227     55230     55231     55227     55229     55231     55227     55228
     55233     55237     55238     55234     55233     55236     55234     55233     55235
     55235     55233     55236     55237     55233     55236     55237     55233     55235
     55237     55233     55234     55239     55243     55244     55240     55239     55242
     55240     55239     55241     55241     55239     55242     55243     55239     55242
     55243     55239     55241     55243     55239     55240     55245     55249     55250
     55246     55245     55248     55246     55245     55247     55247     55245     55248
     55249     55245     55248     55249     55245     55247     55249     55245     55246
     55251     55255     55256     55252     55251     55254     55252     55251     55253
     55253     55251     55254     55255     55251     55254     55255     55251     55253
     55255     55251     55252     55257     55261     55262     55258     55257     55260
     55258     55257     55259     55259     55257     55260     55261     55257     55260
     55261     55257     55259     55261     55257     55258     55263     55267     55268
     55264     55263     55266     55264     55263     55265     55265     55263     55266
     55267     55263     55266     55267     55263     55265     55267     55263     55264
     55269     55273     55274     55270     55269     55272     55270     55269     55271
     55271     55269     55272     55273     55269     55272     55273     55269     55271
     55273     55269     55270     55275     55279     55280     55276     55275     55278
     55276     55275     55277     55277     55275     55278     55279     55275     55278
     55279     55275     55277     55279     55275     55276     55281     55285     55286
     55282     55281     55284     55282     55281     55283     55283     55281     55284
     55285     55281     55284     55285     55281     55283     55285     55281     55282
     55287     55291     55292     55288     55287     55290     55288     55287     55289
     55289     55287     55290     55291     55287     55290     55291     55287     55289
     55291     55287     55288     55293     55297     55298     55294     55293     55296
     55294     55293     55295     55295     55293     55296     55297     55293     55296
     55297     55293     55295     55297     55293     55294     55299     55303     55304
     55300     55299     55302     55300     55299     55301     55301     55299     55302
     55303     55299     55302     55303     55299     55301     55303     55299     55300
     55305     55309     55310     55306     55305     55308     55306     55305     55307
     55307     55305     55308     55309     55305     55308     55309     55305     55307
     55309     55305     55306     55311     55315     55316     55312     55311     55314
     55312     55311     55313     55313     55311     55314     55315     55311     55314
     55315     55311     55313     55315     55311     55312     55317     55321     55322
     55318     55317     55320     55318     55317     55319     55319     55317     55320
     55321     55317     55320     55321     55317     55319     55321     55317     55318
     55323     55327     55328     55324     55323     55326     55324     55323     55325
     55325     55323     55326     55327     55323     55326     55327     55323     55325
     55327     55323     55324     55329     55333     55334     55330     55329     55332
     55330     55329     55331     55331     55329     55332     55333     55329     55332
     55333     55329     55331     55333     55329     55330     55335     55339     55340
     55336     55335     55338     55336     55335     55337     55337     55335     55338
     55339     55335     55338     55339     55335     55337     55339     55335     55336
     55341     55345     55346     55342     55341     55344     55342     55341     55343
     55343     55341     55344     55345     55341     55344     55345     55341     55343
     55345     55341     55342     55347     55351     55352     55348     55347     55350
     55348     55347     55349     55349     55347     55350     55351     55347     55350
     55351     55347     55349     55351     55347     55348     55353     55357     55358
     55354     55353     55356     55354     55353     55355     55355     55353     55356
     55357     55353     55356     55357     55353     55355     55357     55353     55354
     55359     55363     55364     55360     55359     55362     55360     55359     55361
     55361     55359     55362     55363     55359     55362     55363     55359     55361
     55363     55359     55360     55365     55369     55370     55366     55365     55368
     55366     55365     55367     55367     55365     55368     55369     55365     55368
     55369     55365     55367     55369     55365     55366     55371     55375     55376
     55372     55371     55374     55372     55371     55373     55373     55371     55374
     55375     55371     55374     55375     55371     55373     55375     55371     55372
     55377     55381     55382     55378     55377     55380     55378     55377     55379
     55379     55377     55380     55381     55377     55380     55381     55377     55379
     55381     55377     55378     55383     55387     55388     55384     55383     55386
     55384     55383     55385     55385     55383     55386     55387     55383     55386
     55387     55383     55385     55387     55383     55384     55389     55393     55394
     55390     55389     55392     55390     55389     55391     55391     55389     55392
     55393     55389     55392     55393     55389     55391     55393     55389     55390
     55395     55399     55400     55396     55395     55398     55396     55395     55397
     55397     55395     55398     55399     55395     55398     55399     55395     55397
     55399     55395     55396     55401     55405     55406     55402     55401     55404
     55402     55401     55403     55403     55401     55404     55405     55401     55404
     55405     55401     55403     55405     55401     55402     55407     55411     55412
     55408     55407     55410     55408     55407     55409     55409     55407     55410
     55411     55407     55410     55411     55407     55409     55411     55407     55408
     55413     55417     55418     55414     55413     55416     55414     55413     55415
     55415     55413     55416     55417     55413     55416     55417     55413     55415
     55417     55413     55414     55419     55423     55424     55420     55419     55422
     55420     55419     55421     55421     55419     55422     55423     55419     55422
     55423     55419     55421     55423     55419     55420     55425     55429     55430
     55426     55425     55428     55426     55425     55427     55427     55425     55428
     55429     55425     55428     55429     55425     55427     55429     55425     55426
     55431     55435     55436     55432     55431     55434     55432     55431     55433
     55433     55431     55434     55435     55431     55434     55435     55431     55433
     55435     55431     55432     55437     55441     55442     55438     55437     55440
     55438     55437     55439     55439     55437     55440     55441     55437     55440
     55441     55437     55439     55441     55437     55438     55443     55447     55448
     55444     55443     55446     55444     55443     55445     55445     55443     55446
     55447     55443     55446     55447     55443     55445     55447     55443     55444
     55449     55453     55454     55450     55449     55452     55450     55449     55451
     55451     55449     55452     55453     55449     55452     55453     55449     55451
     55453     55449     55450     55455     55459     55460     55456     55455     55458
     55456     55455     55457     55457     55455     55458     55459     55455     55458
     55459     55455     55457     55459     55455     55456     55461     55465     55466
     55462     55461     55464     55462     55461     55463     55463     55461     55464
     55465     55461     55464     55465     55461     55463     55465     55461     55462
     55467     55471     55472     55468     55467     55470     55468     55467     55469
     55469     55467     55470     55471     55467     55470     55471     55467     55469
     55471     55467     55468     55473     55477     55478     55474     55473     55476
     55474     55473     55475     55475     55473     55476     55477     55473     55476
     55477     55473     55475     55477     55473     55474     55479     55483     55484
     55480     55479     55482     55480     55479     55481     55481     55479     55482
     55483     55479     55482     55483     55479     55481     55483     55479     55480
     55485     55489     55490     55486     55485     55488     55486     55485     55487
     55487     55485     55488     55489     55485     55488     55489     55485     55487
     55489     55485     55486     55491     55495     55496     55492     55491     55494
     55492     55491     55493     55493     55491     55494     55495     55491     55494
     55495     55491     55493     55495     55491     55492     55497     55501     55502
     55498     55497     55500     55498     55497     55499     55499     55497     55500
     55501     55497     55500     55501     55497     55499     55501     55497     55498
     55503     55507     55508     55504     55503     55506     55504     55503     55505
     55505     55503     55506     55507     55503     55506     55507     55503     55505
     55507     55503     55504     55509     55513     55514     55510     55509     55512
     55510     55509     55511     55511     55509     55512     55513     55509     55512
     55513     55509     55511     55513     55509     55510     55515     55519     55520
     55516     55515     55518     55516     55515     55517     55517     55515     55518
     55519     55515     55518     55519     55515     55517     55519     55515     55516
     55521     55525     55526     55522     55521     55524     55522     55521     55523
     55523     55521     55524     55525     55521     55524     55525     55521     55523
     55525     55521     55522     55527     55531     55532     55528     55527     55530
     55528     55527     55529     55529     55527     55530     55531     55527     55530
     55531     55527     55529     55531     55527     55528     55533     55537     55538
     55534     55533     55536     55534     55533     55535     55535     55533     55536
     55537     55533     55536     55537     55533     55535     55537     55533     55534
     55539     55543     55544     55540     55539     55542     55540     55539     55541
     55541     55539     55542     55543     55539     55542     55543     55539     55541
     55543     55539     55540     55545     55549     55550     55546     55545     55548
     55546     55545     55547     55547     55545     55548     55549     55545     55548
     55549     55545     55547     55549     55545     55546     55551     55555     55556
     55552     55551     55554     55552     55551     55553     55553     55551     55554
     55555     55551     55554     55555     55551     55553     55555     55551     55552
     55557     55561     55562     55558     55557     55560     55558     55557     55559
     55559     55557     55560     55561     55557     55560     55561     55557     55559
     55561     55557     55558     55563     55567     55568     55564     55563     55566
     55564     55563     55565     55565     55563     55566     55567     55563     55566
     55567     55563     55565     55567     55563     55564     55569     55573     55574
     55570     55569     55572     55570     55569     55571     55571     55569     55572
     55573     55569     55572     55573     55569     55571     55573     55569     55570
     55575     55579     55580     55576     55575     55578     55576     55575     55577
     55577     55575     55578     55579     55575     55578     55579     55575     55577
     55579     55575     55576     55581     55585     55586     55582     55581     55584
     55582     55581     55583     55583     55581     55584     55585     55581     55584
     55585     55581     55583     55585     55581     55582     55587     55591     55592
     55588     55587     55590     55588     55587     55589     55589     55587     55590
     55591     55587     55590     55591     55587     55589     55591     55587     55588
     55593     55597     55598     55594     55593     55596     55594     55593     55595
     55595     55593     55596     55597     55593     55596     55597     55593     55595
     55597     55593     55594     55599     55603     55604     55600     55599     55602
     55600     55599     55601     55601     55599     55602     55603     55599     55602
     55603     55599     55601     55603     55599     55600     55605     55609     55610
     55606     55605     55608     55606     55605     55607     55607     55605     55608
     55609     55605     55608     55609     55605     55607     55609     55605     55606
     55611     55615     55616     55612     55611     55614     55612     55611     55613
     55613     55611     55614     55615     55611     55614     55615     55611     55613
     55615     55611     55612     55617     55621     55622     55618     55617     55620
     55618     55617     55619     55619     55617     55620     55621     55617     55620
     55621     55617     55619     55621     55617     55618     55623     55627     55628
     55624     55623     55626     55624     55623     55625     55625     55623     55626
     55627     55623     55626     55627     55623     55625     55627     55623     55624
     55629     55633     55634     55630     55629     55632     55630     55629     55631
     55631     55629     55632     55633     55629     55632     55633     55629     55631
     55633     55629     55630     55635     55639     55640     55636     55635     55638
     55636     55635     55637     55637     55635     55638     55639     55635     55638
     55639     55635     55637     55639     55635     55636     55641     55645     55646
     55642     55641     55644     55642     55641     55643     55643     55641     55644
     55645     55641     55644     55645     55641     55643     55645     55641     55642
     55647     55651     55652     55648     55647     55650     55648     55647     55649
     55649     55647     55650     55651     55647     55650     55651     55647     55649
     55651     55647     55648     55653     55657     55658     55654     55653     55656
     55654     55653     55655     55655     55653     55656     55657     55653     55656
     55657     55653     55655     55657     55653     55654     55659     55663     55664
     55660     55659     55662     55660     55659     55661     55661     55659     55662
     55663     55659     55662     55663     55659     55661     55663     55659     55660
     55665     55669     55670     55666     55665     55668     55666     55665     55667
     55667     55665     55668     55669     55665     55668     55669     55665     55667
     55669     55665     55666     55671     55675     55676     55672     55671     55674
     55672     55671     55673     55673     55671     55674     55675     55671     55674
     55675     55671     55673     55675     55671     55672     55677     55681     55682
     55678     55677     55680     55678     55677     55679     55679     55677     55680
     55681     55677     55680     55681     55677     55679     55681     55677     55678
     55683     55687     55688     55684     55683     55686     55684     55683     55685
     55685     55683     55686     55687     55683     55686     55687     55683     55685
     55687     55683     55684     55689     55693     55694     55690     55689     55692
     55690     55689     55691     55691     55689     55692     55693     55689     55692
     55693     55689     55691     55693     55689     55690     55695     55699     55700
     55696     55695     55698     55696     55695     55697     55697     55695     55698
     55699     55695     55698     55699     55695     55697     55699     55695     55696
     55701     55705     55706     55702     55701     55704     55702     55701     55703
     55703     55701     55704     55705     55701     55704     55705     55701     55703
     55705     55701     55702     55707     55711     55712     55708     55707     55710
     55708     55707     55709     55709     55707     55710     55711     55707     55710
     55711     55707     55709     55711     55707     55708     55713     55717     55718
     55714     55713     55716     55714     55713     55715     55715     55713     55716
     55717     55713     55716     55717     55713     55715     55717     55713     55714
     55719     55723     55724     55720     55719     55722     55720     55719     55721
     55721     55719     55722     55723     55719     55722     55723     55719     55721
     55723     55719     55720     55725     55729     55730     55726     55725     55728
     55726     55725     55727     55727     55725     55728     55729     55725     55728
     55729     55725     55727     55729     55725     55726     55731     55735     55736
     55732     55731     55734     55732     55731     55733     55733     55731     55734
     55735     55731     55734     55735     55731     55733     55735     55731     55732
     55737     55741     55742     55738     55737     55740     55738     55737     55739
     55739     55737     55740     55741     55737     55740     55741     55737     55739
     55741     55737     55738     55743     55747     55748     55744     55743     55746
     55744     55743     55745     55745     55743     55746     55747     55743     55746
     55747     55743     55745     55747     55743     55744     55749     55753     55754
     55750     55749     55752     55750     55749     55751     55751     55749     55752
     55753     55749     55752     55753     55749     55751     55753     55749     55750
     55755     55759     55760     55756     55755     55758     55756     55755     55757
     55757     55755     55758     55759     55755     55758     55759     55755     55757
     55759     55755     55756     55761     55765     55766     55762     55761     55764
     55762     55761     55763     55763     55761     55764     55765     55761     55764
     55765     55761     55763     55765     55761     55762     55767     55771     55772
     55768     55767     55770     55768     55767     55769     55769     55767     55770
     55771     55767     55770     55771     55767     55769     55771     55767     55768
     55773     55777     55778     55774     55773     55776     55774     55773     55775
     55775     55773     55776     55777     55773     55776     55777     55773     55775
     55777     55773     55774     55779     55783     55784     55780     55779     55782
     55780     55779     55781     55781     55779     55782     55783     55779     55782
     55783     55779     55781     55783     55779     55780     55785     55789     55790
     55786     55785     55788     55786     55785     55787     55787     55785     55788
     55789     55785     55788     55789     55785     55787     55789     55785     55786
     55791     55795     55796     55792     55791     55794     55792     55791     55793
     55793     55791     55794     55795     55791     55794     55795     55791     55793
     55795     55791     55792     55797     55801     55802     55798     55797     55800
     55798     55797     55799     55799     55797     55800     55801     55797     55800
     55801     55797     55799     55801     55797     55798     55803     55807     55808
     55804     55803     55806     55804     55803     55805     55805     55803     55806
     55807     55803     55806     55807     55803     55805     55807     55803     55804
     55809     55813     55814     55810     55809     55812     55810     55809     55811
     55811     55809     55812     55813     55809     55812     55813     55809     55811
     55813     55809     55810     55815     55819     55820     55816     55815     55818
     55816     55815     55817     55817     55815     55818     55819     55815     55818
     55819     55815     55817     55819     55815     55816     55821     55825     55826
     55822     55821     55824     55822     55821     55823     55823     55821     55824
     55825     55821     55824     55825     55821     55823     55825     55821     55822
     55827     55831     55832     55828     55827     55830     55828     55827     55829
     55829     55827     55830     55831     55827     55830     55831     55827     55829
     55831     55827     55828     55833     55837     55838     55834     55833     55836
     55834     55833     55835     55835     55833     55836     55837     55833     55836
     55837     55833     55835     55837     55833     55834     55839     55843     55844
     55840     55839     55842     55840     55839     55841     55841     55839     55842
     55843     55839     55842     55843     55839     55841     55843     55839     55840
     55845     55849     55850     55846     55845     55848     55846     55845     55847
     55847     55845     55848     55849     55845     55848     55849     55845     55847
     55849     55845     55846     55851     55855     55856     55852     55851     55854
     55852     55851     55853     55853     55851     55854     55855     55851     55854
     55855     55851     55853     55855     55851     55852     55857     55861     55862
     55858     55857     55860     55858     55857     55859     55859     55857     55860
     55861     55857     55860     55861     55857     55859     55861     55857     55858
     55863     55867     55868     55864     55863     55866     55864     55863     55865
     55865     55863     55866     55867     55863     55866     55867     55863     55865
     55867     55863     55864     55869     55873     55874     55870     55869     55872
     55870     55869     55871     55871     55869     55872     55873     55869     55872
     55873     55869     55871     55873     55869     55870     55875     55879     55880
     55876     55875     55878     55876     55875     55877     55877     55875     55878
     55879     55875     55878     55879     55875     55877     55879     55875     55876
     55881     55885     55886     55882     55881     55884     55882     55881     55883
     55883     55881     55884     55885     55881     55884     55885     55881     55883
     55885     55881     55882     55887     55891     55892     55888     55887     55890
     55888     55887     55889     55889     55887     55890     55891     55887     55890
     55891     55887     55889     55891     55887     55888     55893     55897     55898
     55894     55893     55896     55894     55893     55895     55895     55893     55896
     55897     55893     55896     55897     55893     55895     55897     55893     55894
     55899     55903     55904     55900     55899     55902     55900     55899     55901
     55901     55899     55902     55903     55899     55902     55903     55899     55901
     55903     55899     55900     55905     55909     55910     55906     55905     55908
     55906     55905     55907     55907     55905     55908     55909     55905     55908
     55909     55905     55907     55909     55905     55906     55911     55915     55916
     55912     55911     55914     55912     55911     55913     55913     55911     55914
     55915     55911     55914     55915     55911     55913     55915     55911     55912
     55917     55921     55922     55918     55917     55920     55918     55917     55919
     55919     55917     55920     55921     55917     55920     55921     55917     55919
     55921     55917     55918     55923     55927     55928     55924     55923     55926
     55924     55923     55925     55925     55923     55926     55927     55923     55926
     55927     55923     55925     55927     55923     55924     55929     55933     55934
     55930     55929     55932     55930     55929     55931     55931     55929     55932
     55933     55929     55932     55933     55929     55931     55933     55929     55930
     55935     55939     55940     55936     55935     55938     55936     55935     55937
     55937     55935     55938     55939     55935     55938     55939     55935     55937
     55939     55935     55936     55941     55945     55946     55942     55941     55944
     55942     55941     55943     55943     55941     55944     55945     55941     55944
     55945     55941     55943     55945     55941     55942     55947     55951     55952
     55948     55947     55950     55948     55947     55949     55949     55947     55950
     55951     55947     55950     55951     55947     55949     55951     55947     55948
     55953     55957     55958     55954     55953     55956     55954     55953     55955
     55955     55953     55956     55957     55953     55956     55957     55953     55955
     55957     55953     55954     55959     55963     55964     55960     55959     55962
     55960     55959     55961     55961     55959     55962     55963     55959     55962
     55963     55959     55961     55963     55959     55960     55965     55969     55970
     55966     55965     55968     55966     55965     55967     55967     55965     55968
     55969     55965     55968     55969     55965     55967     55969     55965     55966
     55971     55975     55976     55972     55971     55974     55972     55971     55973
     55973     55971     55974     55975     55971     55974     55975     55971     55973
     55975     55971     55972     55977     55981     55982     55978     55977     55980
     55978     55977     55979     55979     55977     55980     55981     55977     55980
     55981     55977     55979     55981     55977     55978     55983     55987     55988
     55984     55983     55986     55984     55983     55985     55985     55983     55986
     55987     55983     55986     55987     55983     55985     55987     55983     55984
     55989     55993     55994     55990     55989     55992     55990     55989     55991
     55991     55989     55992     55993     55989     55992     55993     55989     55991
     55993     55989     55990     55995     55999     56000     55996     55995     55998
     55996     55995     55997     55997     55995     55998     55999     55995     55998
     55999     55995     55997     55999     55995     55996     56001     56005     56006
     56002     56001     56004     56002     56001     56003     56003     56001     56004
     56005     56001     56004     56005     56001     56003     56005     56001     56002
     56007     56011     56012     56008     56007     56010     56008     56007     56009
     56009     56007     56010     56011     56007     56010     56011     56007     56009
     56011     56007     56008     56013     56017     56018     56014     56013     56016
     56014     56013     56015     56015     56013     56016     56017     56013     56016
     56017     56013     56015     56017     56013     56014     56019     56023     56024
     56020     56019     56022     56020     56019     56021     56021     56019     56022
     56023     56019     56022     56023     56019     56021     56023     56019     56020
     56025     56029     56030     56026     56025     56028     56026     56025     56027
     56027     56025     56028     56029     56025     56028     56029     56025     56027
     56029     56025     56026     56031     56035     56036     56032     56031     56034
     56032     56031     56033     56033     56031     56034     56035     56031     56034
     56035     56031     56033     56035     56031     56032     56037     56041     56042
     56038     56037     56040     56038     56037     56039     56039     56037     56040
     56041     56037     56040     56041     56037     56039     56041     56037     56038
     56043     56047     56048     56044     56043     56046     56044     56043     56045
     56045     56043     56046     56047     56043     56046     56047     56043     56045
     56047     56043     56044     56049     56053     56054     56050     56049     56052
     56050     56049     56051     56051     56049     56052     56053     56049     56052
     56053     56049     56051     56053     56049     56050     56055     56059     56060
     56056     56055     56058     56056     56055     56057     56057     56055     56058
     56059     56055     56058     56059     56055     56057     56059     56055     56056
     56061     56065     56066     56062     56061     56064     56062     56061     56063
     56063     56061     56064     56065     56061     56064     56065     56061     56063
     56065     56061     56062     56067     56071     56072     56068     56067     56070
     56068     56067     56069     56069     56067     56070     56071     56067     56070
     56071     56067     56069     56071     56067     56068     56073     56077     56078
     56074     56073     56076     56074     56073     56075     56075     56073     56076
     56077     56073     56076     56077     56073     56075     56077     56073     56074
     56079     56083     56084     56080     56079     56082     56080     56079     56081
     56081     56079     56082     56083     56079     56082     56083     56079     56081
     56083     56079     56080     56085     56089     56090     56086     56085     56088
     56086     56085     56087     56087     56085     56088     56089     56085     56088
     56089     56085     56087     56089     56085     56086     56091     56095     56096
     56092     56091     56094     56092     56091     56093     56093     56091     56094
     56095     56091     56094     56095     56091     56093     56095     56091     56092
     56097     56101     56102     56098     56097     56100     56098     56097     56099
     56099     56097     56100     56101     56097     56100     56101     56097     56099
     56101     56097     56098     56103     56107     56108     56104     56103     56106
     56104     56103     56105     56105     56103     56106     56107     56103     56106
     56107     56103     56105     56107     56103     56104     56109     56113     56114
     56110     56109     56112     56110     56109     56111     56111     56109     56112
     56113     56109     56112     56113     56109     56111     56113     56109     56110
     56115     56119     56120     56116     56115     56118     56116     56115     56117
     56117     56115     56118     56119     56115     56118     56119     56115     56117
     56119     56115     56116     56121     56125     56126     56122     56121     56124
     56122     56121     56123     56123     56121     56124     56125     56121     56124
     56125     56121     56123     56125     56121     56122     56127     56131     56132
     56128     56127     56130     56128     56127     56129     56129     56127     56130
     56131     56127     56130     56131     56127     56129     56131     56127     56128
     56133     56137     56138     56134     56133     56136     56134     56133     56135
     56135     56133     56136     56137     56133     56136     56137     56133     56135
     56137     56133     56134     56139     56143     56144     56140     56139     56142
     56140     56139     56141     56141     56139     56142     56143     56139     56142
     56143     56139     56141     56143     56139     56140     56145     56149     56150
     56146     56145     56148     56146     56145     56147     56147     56145     56148
     56149     56145     56148     56149     56145     56147     56149     56145     56146
     56151     56155     56156     56152     56151     56154     56152     56151     56153
     56153     56151     56154     56155     56151     56154     56155     56151     56153
     56155     56151     56152     56157     56161     56162     56158     56157     56160
     56158     56157     56159     56159     56157     56160     56161     56157     56160
     56161     56157     56159     56161     56157     56158     56163     56167     56168
     56164     56163     56166     56164     56163     56165     56165     56163     56166
     56167     56163     56166     56167     56163     56165     56167     56163     56164
     56169     56173     56174     56170     56169     56172     56170     56169     56171
     56171     56169     56172     56173     56169     56172     56173     56169     56171
     56173     56169     56170     56175     56179     56180     56176     56175     56178
     56176     56175     56177     56177     56175     56178     56179     56175     56178
     56179     56175     56177     56179     56175     56176     56181     56185     56186
     56182     56181     56184     56182     56181     56183     56183     56181     56184
     56185     56181     56184     56185     56181     56183     56185     56181     56182
     56187     56191     56192     56188     56187     56190     56188     56187     56189
     56189     56187     56190     56191     56187     56190     56191     56187     56189
     56191     56187     56188     56193     56197     56198     56194     56193     56196
     56194     56193     56195     56195     56193     56196     56197     56193     56196
     56197     56193     56195     56197     56193     56194     56199     56203     56204
     56200     56199     56202     56200     56199     56201     56201     56199     56202
     56203     56199     56202     56203     56199     56201     56203     56199     56200
     56205     56209     56210     56206     56205     56208     56206     56205     56207
     56207     56205     56208     56209     56205     56208     56209     56205     56207
     56209     56205     56206     56211     56215     56216     56212     56211     56214
     56212     56211     56213     56213     56211     56214     56215     56211     56214
     56215     56211     56213     56215     56211     56212     56217     56221     56222
     56218     56217     56220     56218     56217     56219     56219     56217     56220
     56221     56217     56220     56221     56217     56219     56221     56217     56218
     56223     56227     56228     56224     56223     56226     56224     56223     56225
     56225     56223     56226     56227     56223     56226     56227     56223     56225
     56227     56223     56224     56229     56233     56234     56230     56229     56232
     56230     56229     56231     56231     56229     56232     56233     56229     56232
     56233     56229     56231     56233     56229     56230     56235     56239     56240
     56236     56235     56238     56236     56235     56237     56237     56235     56238
     56239     56235     56238     56239     56235     56237     56239     56235     56236
     56241     56245     56246     56242     56241     56244     56242     56241     56243
     56243     56241     56244     56245     56241     56244     56245     56241     56243
     56245     56241     56242     56247     56251     56252     56248     56247     56250
     56248     56247     56249     56249     56247     56250     56251     56247     56250
     56251     56247     56249     56251     56247     56248     56253     56257     56258
     56254     56253     56256     56254     56253     56255     56255     56253     56256
     56257     56253     56256     56257     56253     56255     56257     56253     56254
     56259     56263     56264     56260     56259     56262     56260     56259     56261
     56261     56259     56262     56263     56259     56262     56263     56259     56261
     56263     56259     56260     56265     56269     56270     56266     56265     56268
     56266     56265     56267     56267     56265     56268     56269     56265     56268
     56269     56265     56267     56269     56265     56266     56271     56275     56276
     56272     56271     56274     56272     56271     56273     56273     56271     56274
     56275     56271     56274     56275     56271     56273     56275     56271     56272
     56277     56281     56282     56278     56277     56280     56278     56277     56279
     56279     56277     56280     56281     56277     56280     56281     56277     56279
     56281     56277     56278     56283     56287     56288     56284     56283     56286
     56284     56283     56285     56285     56283     56286     56287     56283     56286
     56287     56283     56285     56287     56283     56284     56289     56293     56294
     56290     56289     56292     56290     56289     56291     56291     56289     56292
     56293     56289     56292     56293     56289     56291     56293     56289     56290
     56295     56299     56300     56296     56295     56298     56296     56295     56297
     56297     56295     56298     56299     56295     56298     56299     56295     56297
     56299     56295     56296     56301     56305     56306     56302     56301     56304
     56302     56301     56303     56303     56301     56304     56305     56301     56304
     56305     56301     56303     56305     56301     56302     56307     56311     56312
     56308     56307     56310     56308     56307     56309     56309     56307     56310
     56311     56307     56310     56311     56307     56309     56311     56307     56308
     56313     56317     56318     56314     56313     56316     56314     56313     56315
     56315     56313     56316     56317     56313     56316     56317     56313     56315
     56317     56313     56314     56319     56323     56324     56320     56319     56322
     56320     56319     56321     56321     56319     56322     56323     56319     56322
     56323     56319     56321     56323     56319     56320     56325     56329     56330
     56326     56325     56328     56326     56325     56327     56327     56325     56328
     56329     56325     56328     56329     56325     56327     56329     56325     56326
     56331     56335     56336     56332     56331     56334     56332     56331     56333
     56333     56331     56334     56335     56331     56334     56335     56331     56333
     56335     56331     56332     56337     56341     56342     56338     56337     56340
     56338     56337     56339     56339     56337     56340     56341     56337     56340
     56341     56337     56339     56341     56337     56338     56343     56347     56348
     56344     56343     56346     56344     56343     56345     56345     56343     56346
     56347     56343     56346     56347     56343     56345     56347     56343     56344
     56349     56353     56354     56350     56349     56352     56350     56349     56351
     56351     56349     56352     56353     56349     56352     56353     56349     56351
     56353     56349     56350     56355     56359     56360     56356     56355     56358
     56356     56355     56357     56357     56355     56358     56359     56355     56358
     56359     56355     56357     56359     56355     56356     56361     56365     56366
     56362     56361     56364     56362     56361     56363     56363     56361     56364
     56365     56361     56364     56365     56361     56363     56365     56361     56362
     56367     56371     56372     56368     56367     56370     56368     56367     56369
     56369     56367     56370     56371     56367     56370     56371     56367     56369
     56371     56367     56368     56373     56377     56378     56374     56373     56376
     56374     56373     56375     56375     56373     56376     56377     56373     56376
     56377     56373     56375     56377     56373     56374     56379     56383     56384
     56380     56379     56382     56380     56379     56381     56381     56379     56382
     56383     56379     56382     56383     56379     56381     56383     56379     56380
     56385     56389     56390     56386     56385     56388     56386     56385     56387
     56387     56385     56388     56389     56385     56388     56389     56385     56387
     56389     56385     56386     56391     56395     56396     56392     56391     56394
     56392     56391     56393     56393     56391     56394     56395     56391     56394
     56395     56391     56393     56395     56391     56392     56397     56401     56402
     56398     56397     56400     56398     56397     56399     56399     56397     56400
     56401     56397     56400     56401     56397     56399     56401     56397     56398
     56403     56407     56408     56404     56403     56406     56404     56403     56405
     56405     56403     56406     56407     56403     56406     56407     56403     56405
     56407     56403     56404     56409     56413     56414     56410     56409     56412
     56410     56409     56411     56411     56409     56412     56413     56409     56412
     56413     56409     56411     56413     56409     56410     56415     56419     56420
     56416     56415     56418     56416     56415     56417     56417     56415     56418
     56419     56415     56418     56419     56415     56417     56419     56415     56416
     56421     56425     56426     56422     56421     56424     56422     56421     56423
     56423     56421     56424     56425     56421     56424     56425     56421     56423
     56425     56421     56422     56427     56431     56432     56428     56427     56430
     56428     56427     56429     56429     56427     56430     56431     56427     56430
     56431     56427     56429     56431     56427     56428     56433     56437     56438
     56434     56433     56436     56434     56433     56435     56435     56433     56436
     56437     56433     56436     56437     56433     56435     56437     56433     56434
     56439     56443     56444     56440     56439     56442     56440     56439     56441
     56441     56439     56442     56443     56439     56442     56443     56439     56441
     56443     56439     56440     56445     56449     56450     56446     56445     56448
     56446     56445     56447     56447     56445     56448     56449     56445     56448
     56449     56445     56447     56449     56445     56446     56451     56455     56456
     56452     56451     56454     56452     56451     56453     56453     56451     56454
     56455     56451     56454     56455     56451     56453     56455     56451     56452
     56457     56461     56462     56458     56457     56460     56458     56457     56459
     56459     56457     56460     56461     56457     56460     56461     56457     56459
     56461     56457     56458     56463     56467     56468     56464     56463     56466
     56464     56463     56465     56465     56463     56466     56467     56463     56466
     56467     56463     56465     56467     56463     56464     56469     56473     56474
     56470     56469     56472     56470     56469     56471     56471     56469     56472
     56473     56469     56472     56473     56469     56471     56473     56469     56470
     56475     56479     56480     56476     56475     56478     56476     56475     56477
     56477     56475     56478     56479     56475     56478     56479     56475     56477
     56479     56475     56476     56481     56485     56486     56482     56481     56484
     56482     56481     56483     56483     56481     56484     56485     56481     56484
     56485     56481     56483     56485     56481     56482     56487     56491     56492
     56488     56487     56490     56488     56487     56489     56489     56487     56490
     56491     56487     56490     56491     56487     56489     56491     56487     56488
     56493     56497     56498     56494     56493     56496     56494     56493     56495
     56495     56493     56496     56497     56493     56496     56497     56493     56495
     56497     56493     56494     56499     56503     56504     56500     56499     56502
     56500     56499     56501     56501     56499     56502     56503     56499     56502
     56503     56499     56501     56503     56499     56500     56505     56509     56510
     56506     56505     56508     56506     56505     56507     56507     56505     56508
     56509     56505     56508     56509     56505     56507     56509     56505     56506
     56511     56515     56516     56512     56511     56514     56512     56511     56513
     56513     56511     56514     56515     56511     56514     56515     56511     56513
     56515     56511     56512     56517     56521     56522     56518     56517     56520
     56518     56517     56519     56519     56517     56520     56521     56517     56520
     56521     56517     56519     56521     56517     56518     56523     56527     56528
     56524     56523     56526     56524     56523     56525     56525     56523     56526
     56527     56523     56526     56527     56523     56525     56527     56523     56524
     56529     56533     56534     56530     56529     56532     56530     56529     56531
     56531     56529     56532     56533     56529     56532     56533     56529     56531
     56533     56529     56530     56535     56539     56540     56536     56535     56538
     56536     56535     56537     56537     56535     56538     56539     56535     56538
     56539     56535     56537     56539     56535     56536     56541     56545     56546
     56542     56541     56544     56542     56541     56543     56543     56541     56544
     56545     56541     56544     56545     56541     56543     56545     56541     56542
     56547     56551     56552     56548     56547     56550     56548     56547     56549
     56549     56547     56550     56551     56547     56550     56551     56547     56549
     56551     56547     56548     56553     56557     56558     56554     56553     56556
     56554     56553     56555     56555     56553     56556     56557     56553     56556
     56557     56553     56555     56557     56553     56554     56559     56563     56564
     56560     56559     56562     56560     56559     56561     56561     56559     56562
     56563     56559     56562     56563     56559     56561     56563     56559     56560
     56565     56569     56570     56566     56565     56568     56566     56565     56567
     56567     56565     56568     56569     56565     56568     56569     56565     56567
     56569     56565     56566     56571     56575     56576     56572     56571     56574
     56572     56571     56573     56573     56571     56574     56575     56571     56574
     56575     56571     56573     56575     56571     56572     56577     56581     56582
     56578     56577     56580     56578     56577     56579     56579     56577     56580
     56581     56577     56580     56581     56577     56579     56581     56577     56578
     56583     56587     56588     56584     56583     56586     56584     56583     56585
     56585     56583     56586     56587     56583     56586     56587     56583     56585
     56587     56583     56584     56589     56593     56594     56590     56589     56592
     56590     56589     56591     56591     56589     56592     56593     56589     56592
     56593     56589     56591     56593     56589     56590     56595     56599     56600
     56596     56595     56598     56596     56595     56597     56597     56595     56598
     56599     56595     56598     56599     56595     56597     56599     56595     56596
     56601     56605     56606     56602     56601     56604     56602     56601     56603
     56603     56601     56604     56605     56601     56604     56605     56601     56603
     56605     56601     56602     56607     56611     56612     56608     56607     56610
     56608     56607     56609     56609     56607     56610     56611     56607     56610
     56611     56607     56609     56611     56607     56608     56613     56617     56618
     56614     56613     56616     56614     56613     56615     56615     56613     56616
     56617     56613     56616     56617     56613     56615     56617     56613     56614
     56619     56623     56624     56620     56619     56622     56620     56619     56621
     56621     56619     56622     56623     56619     56622     56623     56619     56621
     56623     56619     56620     56625     56629     56630     56626     56625     56628
     56626     56625     56627     56627     56625     56628     56629     56625     56628
     56629     56625     56627     56629     56625     56626     56631     56635     56636
     56632     56631     56634     56632     56631     56633     56633     56631     56634
     56635     56631     56634     56635     56631     56633     56635     56631     56632
     56637     56641     56642     56638     56637     56640     56638     56637     56639
     56639     56637     56640     56641     56637     56640     56641     56637     56639
     56641     56637     56638     56643     56647     56648     56644     56643     56646
     56644     56643     56645     56645     56643     56646     56647     56643     56646
     56647     56643     56645     56647     56643     56644     56649     56653     56654
     56650     56649     56652     56650     56649     56651     56651     56649     56652
     56653     56649     56652     56653     56649     56651     56653     56649     56650
     56655     56659     56660     56656     56655     56658     56656     56655     56657
     56657     56655     56658     56659     56655     56658     56659     56655     56657
     56659     56655     56656     56661     56665     56666     56662     56661     56664
     56662     56661     56663     56663     56661     56664     56665     56661     56664
     56665     56661     56663     56665     56661     56662     56667     56671     56672
     56668     56667     56670     56668     56667     56669     56669     56667     56670
     56671     56667     56670     56671     56667     56669     56671     56667     56668
     56673     56677     56678     56674     56673     56676     56674     56673     56675
     56675     56673     56676     56677     56673     56676     56677     56673     56675
     56677     56673     56674     56679     56683     56684     56680     56679     56682
     56680     56679     56681     56681     56679     56682     56683     56679     56682
     56683     56679     56681     56683     56679     56680     56685     56689     56690
     56686     56685     56688     56686     56685     56687     56687     56685     56688
     56689     56685     56688     56689     56685     56687     56689     56685     56686
     56691     56695     56696     56692     56691     56694     56692     56691     56693
     56693     56691     56694     56695     56691     56694     56695     56691     56693
     56695     56691     56692     56697     56701     56702     56698     56697     56700
     56698     56697     56699     56699     56697     56700     56701     56697     56700
     56701     56697     56699     56701     56697     56698     56703     56707     56708
     56704     56703     56706     56704     56703     56705     56705     56703     56706
     56707     56703     56706     56707     56703     56705     56707     56703     56704
     56709     56713     56714     56710     56709     56712     56710     56709     56711
     56711     56709     56712     56713     56709     56712     56713     56709     56711
     56713     56709     56710     56715     56719     56720     56716     56715     56718
     56716     56715     56717     56717     56715     56718     56719     56715     56718
     56719     56715     56717     56719     56715     56716     56721     56725     56726
     56722     56721     56724     56722     56721     56723     56723     56721     56724
     56725     56721     56724     56725     56721     56723     56725     56721     56722
     56727     56731     56732     56728     56727     56730     56728     56727     56729
     56729     56727     56730     56731     56727     56730     56731     56727     56729
     56731     56727     56728     56733     56737     56738     56734     56733     56736
     56734     56733     56735     56735     56733     56736     56737     56733     56736
     56737     56733     56735     56737     56733     56734     56739     56743     56744
     56740     56739     56742     56740     56739     56741     56741     56739     56742
     56743     56739     56742     56743     56739     56741     56743     56739     56740
     56745     56749     56750     56746     56745     56748     56746     56745     56747
     56747     56745     56748     56749     56745     56748     56749     56745     56747
     56749     56745     56746     56751     56755     56756     56752     56751     56754
     56752     56751     56753     56753     56751     56754     56755     56751     56754
     56755     56751     56753     56755     56751     56752     56757     56761     56762
     56758     56757     56760     56758     56757     56759     56759     56757     56760
     56761     56757     56760     56761     56757     56759     56761     56757     56758
     56763     56767     56768     56764     56763     56766     56764     56763     56765
     56765     56763     56766     56767     56763     56766     56767     56763     56765
     56767     56763     56764     56769     56773     56774     56770     56769     56772
     56770     56769     56771     56771     56769     56772     56773     56769     56772
     56773     56769     56771     56773     56769     56770     56775     56779     56780
     56776     56775     56778     56776     56775     56777     56777     56775     56778
     56779     56775     56778     56779     56775     56777     56779     56775     56776
     56781     56785     56786     56782     56781     56784     56782     56781     56783
     56783     56781     56784     56785     56781     56784     56785     56781     56783
     56785     56781     56782     56787     56791     56792     56788     56787     56790
     56788     56787     56789     56789     56787     56790     56791     56787     56790
     56791     56787     56789     56791     56787     56788     56793     56797     56798
     56794     56793     56796     56794     56793     56795     56795     56793     56796
     56797     56793     56796     56797     56793     56795     56797     56793     56794
     56799     56803     56804     56800     56799     56802     56800     56799     56801
     56801     56799     56802     56803     56799     56802     56803     56799     56801
     56803     56799     56800     56805     56809     56810     56806     56805     56808
     56806     56805     56807     56807     56805     56808     56809     56805     56808
     56809     56805     56807     56809     56805     56806     56811     56815     56816
     56812     56811     56814     56812     56811     56813     56813     56811     56814
     56815     56811     56814     56815     56811     56813     56815     56811     56812
     56817     56821     56822     56818     56817     56820     56818     56817     56819
     56819     56817     56820     56821     56817     56820     56821     56817     56819
     56821     56817     56818     56823     56827     56828     56824     56823     56826
     56824     56823     56825     56825     56823     56826     56827     56823     56826
     56827     56823     56825     56827     56823     56824     56829     56833     56834
     56830     56829     56832     56830     56829     56831     56831     56829     56832
     56833     56829     56832     56833     56829     56831     56833     56829     56830
     56835     56839     56840     56836     56835     56838     56836     56835     56837
     56837     56835     56838     56839     56835     56838     56839     56835     56837
     56839     56835     56836     56841     56845     56846     56842     56841     56844
     56842     56841     56843     56843     56841     56844     56845     56841     56844
     56845     56841     56843     56845     56841     56842     56847     56851     56852
     56848     56847     56850     56848     56847     56849     56849     56847     56850
     56851     56847     56850     56851     56847     56849     56851     56847     56848
     56853     56857     56858     56854     56853     56856     56854     56853     56855
     56855     56853     56856     56857     56853     56856     56857     56853     56855
     56857     56853     56854     56859     56863     56864     56860     56859     56862
     56860     56859     56861     56861     56859     56862     56863     56859     56862
     56863     56859     56861     56863     56859     56860     56865     56869     56870
     56866     56865     56868     56866     56865     56867     56867     56865     56868
     56869     56865     56868     56869     56865     56867     56869     56865     56866
     56871     56875     56876     56872     56871     56874     56872     56871     56873
     56873     56871     56874     56875     56871     56874     56875     56871     56873
     56875     56871     56872     56877     56881     56882     56878     56877     56880
     56878     56877     56879     56879     56877     56880     56881     56877     56880
     56881     56877     56879     56881     56877     56878     56883     56887     56888
     56884     56883     56886     56884     56883     56885     56885     56883     56886
     56887     56883     56886     56887     56883     56885     56887     56883     56884
     56889     56893     56894     56890     56889     56892     56890     56889     56891
     56891     56889     56892     56893     56889     56892     56893     56889     56891
     56893     56889     56890     56895     56899     56900     56896     56895     56898
     56896     56895     56897     56897     56895     56898     56899     56895     56898
     56899     56895     56897     56899     56895     56896     56901     56905     56906
     56902     56901     56904     56902     56901     56903     56903     56901     56904
     56905     56901     56904     56905     56901     56903     56905     56901     56902
     56907     56911     56912     56908     56907     56910     56908     56907     56909
     56909     56907     56910     56911     56907     56910     56911     56907     56909
     56911     56907     56908     56913     56917     56918     56914     56913     56916
     56914     56913     56915     56915     56913     56916     56917     56913     56916
     56917     56913     56915     56917     56913     56914     56919     56923     56924
     56920     56919     56922     56920     56919     56921     56921     56919     56922
     56923     56919     56922     56923     56919     56921     56923     56919     56920
     56925     56929     56930     56926     56925     56928     56926     56925     56927
     56927     56925     56928     56929     56925     56928     56929     56925     56927
     56929     56925     56926     56931     56935     56936     56932     56931     56934
     56932     56931     56933     56933     56931     56934     56935     56931     56934
     56935     56931     56933     56935     56931     56932     56937     56941     56942
     56938     56937     56940     56938     56937     56939     56939     56937     56940
     56941     56937     56940     56941     56937     56939     56941     56937     56938
     56943     56947     56948     56944     56943     56946     56944     56943     56945
     56945     56943     56946     56947     56943     56946     56947     56943     56945
     56947     56943     56944     56949     56953     56954     56950     56949     56952
     56950     56949     56951     56951     56949     56952     56953     56949     56952
     56953     56949     56951     56953     56949     56950     56955     56959     56960
     56956     56955     56958     56956     56955     56957     56957     56955     56958
     56959     56955     56958     56959     56955     56957     56959     56955     56956
     56961     56965     56966     56962     56961     56964     56962     56961     56963
     56963     56961     56964     56965     56961     56964     56965     56961     56963
     56965     56961     56962     56967     56971     56972     56968     56967     56970
     56968     56967     56969     56969     56967     56970     56971     56967     56970
     56971     56967     56969     56971     56967     56968     56973     56977     56978
     56974     56973     56976     56974     56973     56975     56975     56973     56976
     56977     56973     56976     56977     56973     56975     56977     56973     56974
     56979     56983     56984     56980     56979     56982     56980     56979     56981
     56981     56979     56982     56983     56979     56982     56983     56979     56981
     56983     56979     56980     56985     56989     56990     56986     56985     56988
     56986     56985     56987     56987     56985     56988     56989     56985     56988
     56989     56985     56987     56989     56985     56986     56991     56995     56996
     56992     56991     56994     56992     56991     56993     56993     56991     56994
     56995     56991     56994     56995     56991     56993     56995     56991     56992
     56997     57001     57002     56998     56997     57000     56998     56997     56999
     56999     56997     57000     57001     56997     57000     57001     56997     56999
     57001     56997     56998     57003     57007     57008     57004     57003     57006
     57004     57003     57005     57005     57003     57006     57007     57003     57006
     57007     57003     57005     57007     57003     57004     57009     57013     57014
     57010     57009     57012     57010     57009     57011     57011     57009     57012
     57013     57009     57012     57013     57009     57011     57013     57009     57010
     57015     57019     57020     57016     57015     57018     57016     57015     57017
     57017     57015     57018     57019     57015     57018     57019     57015     57017
     57019     57015     57016     57021     57025     57026     57022     57021     57024
     57022     57021     57023     57023     57021     57024     57025     57021     57024
     57025     57021     57023     57025     57021     57022     57027     57031     57032
     57028     57027     57030     57028     57027     57029     57029     57027     57030
     57031     57027     57030     57031     57027     57029     57031     57027     57028
     57033     57037     57038     57034     57033     57036     57034     57033     57035
     57035     57033     57036     57037     57033     57036     57037     57033     57035
     57037     57033     57034     57039     57043     57044     57040     57039     57042
     57040     57039     57041     57041     57039     57042     57043     57039     57042
     57043     57039     57041     57043     57039     57040     57045     57049     57050
     57046     57045     57048     57046     57045     57047     57047     57045     57048
     57049     57045     57048     57049     57045     57047     57049     57045     57046
     57051     57055     57056     57052     57051     57054     57052     57051     57053
     57053     57051     57054     57055     57051     57054     57055     57051     57053
     57055     57051     57052     57057     57061     57062     57058     57057     57060
     57058     57057     57059     57059     57057     57060     57061     57057     57060
     57061     57057     57059     57061     57057     57058     57063     57067     57068
     57064     57063     57066     57064     57063     57065     57065     57063     57066
     57067     57063     57066     57067     57063     57065     57067     57063     57064
     57069     57073     57074     57070     57069     57072     57070     57069     57071
     57071     57069     57072     57073     57069     57072     57073     57069     57071
     57073     57069     57070     57075     57079     57080     57076     57075     57078
     57076     57075     57077     57077     57075     57078     57079     57075     57078
     57079     57075     57077     57079     57075     57076     57081     57085     57086
     57082     57081     57084     57082     57081     57083     57083     57081     57084
     57085     57081     57084     57085     57081     57083     57085     57081     57082
     57087     57091     57092     57088     57087     57090     57088     57087     57089
     57089     57087     57090     57091     57087     57090     57091     57087     57089
     57091     57087     57088     57093     57097     57098     57094     57093     57096
     57094     57093     57095     57095     57093     57096     57097     57093     57096
     57097     57093     57095     57097     57093     57094     57099     57103     57104
     57100     57099     57102     57100     57099     57101     57101     57099     57102
     57103     57099     57102     57103     57099     57101     57103     57099     57100
     57105     57109     57110     57106     57105     57108     57106     57105     57107
     57107     57105     57108     57109     57105     57108     57109     57105     57107
     57109     57105     57106     57111     57115     57116     57112     57111     57114
     57112     57111     57113     57113     57111     57114     57115     57111     57114
     57115     57111     57113     57115     57111     57112     57117     57121     57122
     57118     57117     57120     57118     57117     57119     57119     57117     57120
     57121     57117     57120     57121     57117     57119     57121     57117     57118
     57123     57127     57128     57124     57123     57126     57124     57123     57125
     57125     57123     57126     57127     57123     57126     57127     57123     57125
     57127     57123     57124     57129     57133     57134     57130     57129     57132
     57130     57129     57131     57131     57129     57132     57133     57129     57132
     57133     57129     57131     57133     57129     57130     57135     57139     57140
     57136     57135     57138     57136     57135     57137     57137     57135     57138
     57139     57135     57138     57139     57135     57137     57139     57135     57136
     57141     57145     57146     57142     57141     57144     57142     57141     57143
     57143     57141     57144     57145     57141     57144     57145     57141     57143
     57145     57141     57142     57147     57151     57152     57148     57147     57150
     57148     57147     57149     57149     57147     57150     57151     57147     57150
     57151     57147     57149     57151     57147     57148     57153     57157     57158
     57154     57153     57156     57154     57153     57155     57155     57153     57156
     57157     57153     57156     57157     57153     57155     57157     57153     57154
     57159     57163     57164     57160     57159     57162     57160     57159     57161
     57161     57159     57162     57163     57159     57162     57163     57159     57161
     57163     57159     57160     57165     57169     57170     57166     57165     57168
     57166     57165     57167     57167     57165     57168     57169     57165     57168
     57169     57165     57167     57169     57165     57166     57171     57175     57176
     57172     57171     57174     57172     57171     57173     57173     57171     57174
     57175     57171     57174     57175     57171     57173     57175     57171     57172
     57177     57181     57182     57178     57177     57180     57178     57177     57179
     57179     57177     57180     57181     57177     57180     57181     57177     57179
     57181     57177     57178     57183     57187     57188     57184     57183     57186
     57184     57183     57185     57185     57183     57186     57187     57183     57186
     57187     57183     57185     57187     57183     57184     57189     57193     57194
     57190     57189     57192     57190     57189     57191     57191     57189     57192
     57193     57189     57192     57193     57189     57191     57193     57189     57190
     57195     57199     57200     57196     57195     57198     57196     57195     57197
     57197     57195     57198     57199     57195     57198     57199     57195     57197
     57199     57195     57196     57201     57205     57206     57202     57201     57204
     57202     57201     57203     57203     57201     57204     57205     57201     57204
     57205     57201     57203     57205     57201     57202     57207     57211     57212
     57208     57207     57210     57208     57207     57209     57209     57207     57210
     57211     57207     57210     57211     57207     57209     57211     57207     57208
     57213     57217     57218     57214     57213     57216     57214     57213     57215
     57215     57213     57216     57217     57213     57216     57217     57213     57215
     57217     57213     57214     57219     57223     57224     57220     57219     57222
     57220     57219     57221     57221     57219     57222     57223     57219     57222
     57223     57219     57221     57223     57219     57220     57225     57229     57230
     57226     57225     57228     57226     57225     57227     57227     57225     57228
     57229     57225     57228     57229     57225     57227     57229     57225     57226
     57231     57235     57236     57232     57231     57234     57232     57231     57233
     57233     57231     57234     57235     57231     57234     57235     57231     57233
     57235     57231     57232     57237     57241     57242     57238     57237     57240
     57238     57237     57239     57239     57237     57240     57241     57237     57240
     57241     57237     57239     57241     57237     57238     57243     57247     57248
     57244     57243     57246     57244     57243     57245     57245     57243     57246
     57247     57243     57246     57247     57243     57245     57247     57243     57244
     57249     57253     57254     57250     57249     57252     57250     57249     57251
     57251     57249     57252     57253     57249     57252     57253     57249     57251
     57253     57249     57250     57255     57259     57260     57256     57255     57258
     57256     57255     57257     57257     57255     57258     57259     57255     57258
     57259     57255     57257     57259     57255     57256     57261     57265     57266
     57262     57261     57264     57262     57261     57263     57263     57261     57264
     57265     57261     57264     57265     57261     57263     57265     57261     57262
     57267     57271     57272     57268     57267     57270     57268     57267     57269
     57269     57267     57270     57271     57267     57270     57271     57267     57269
     57271     57267     57268     57273     57277     57278     57274     57273     57276
     57274     57273     57275     57275     57273     57276     57277     57273     57276
     57277     57273     57275     57277     57273     57274     57279     57283     57284
     57280     57279     57282     57280     57279     57281     57281     57279     57282
     57283     57279     57282     57283     57279     57281     57283     57279     57280
     57285     57289     57290     57286     57285     57288     57286     57285     57287
     57287     57285     57288     57289     57285     57288     57289     57285     57287
     57289     57285     57286     57291     57295     57296     57292     57291     57294
     57292     57291     57293     57293     57291     57294     57295     57291     57294
     57295     57291     57293     57295     57291     57292     57297     57301     57302
     57298     57297     57300     57298     57297     57299     57299     57297     57300
     57301     57297     57300     57301     57297     57299     57301     57297     57298
     57303     57307     57308     57304     57303     57306     57304     57303     57305
     57305     57303     57306     57307     57303     57306     57307     57303     57305
     57307     57303     57304     57309     57313     57314     57310     57309     57312
     57310     57309     57311     57311     57309     57312     57313     57309     57312
     57313     57309     57311     57313     57309     57310     57315     57319     57320
     57316     57315     57318     57316     57315     57317     57317     57315     57318
     57319     57315     57318     57319     57315     57317     57319     57315     57316
     57321     57325     57326     57322     57321     57324     57322     57321     57323
     57323     57321     57324     57325     57321     57324     57325     57321     57323
     57325     57321     57322     57327     57331     57332     57328     57327     57330
     57328     57327     57329     57329     57327     57330     57331     57327     57330
     57331     57327     57329     57331     57327     57328     57333     57337     57338
     57334     57333     57336     57334     57333     57335     57335     57333     57336
     57337     57333     57336     57337     57333     57335     57337     57333     57334
     57339     57343     57344     57340     57339     57342     57340     57339     57341
     57341     57339     57342     57343     57339     57342     57343     57339     57341
     57343     57339     57340     57345     57349     57350     57346     57345     57348
     57346     57345     57347     57347     57345     57348     57349     57345     57348
     57349     57345     57347     57349     57345     57346     57351     57355     57356
     57352     57351     57354     57352     57351     57353     57353     57351     57354
     57355     57351     57354     57355     57351     57353     57355     57351     57352
     57357     57361     57362     57358     57357     57360     57358     57357     57359
     57359     57357     57360     57361     57357     57360     57361     57357     57359
     57361     57357     57358     57363     57367     57368     57364     57363     57366
     57364     57363     57365     57365     57363     57366     57367     57363     57366
     57367     57363     57365     57367     57363     57364     57369     57373     57374
     57370     57369     57372     57370     57369     57371     57371     57369     57372
     57373     57369     57372     57373     57369     57371     57373     57369     57370
     57375     57379     57380     57376     57375     57378     57376     57375     57377
     57377     57375     57378     57379     57375     57378     57379     57375     57377
     57379     57375     57376     57381     57385     57386     57382     57381     57384
     57382     57381     57383     57383     57381     57384     57385     57381     57384
     57385     57381     57383     57385     57381     57382     57387     57391     57392
     57388     57387     57390     57388     57387     57389     57389     57387     57390
     57391     57387     57390     57391     57387     57389     57391     57387     57388
     57393     57397     57398     57394     57393     57396     57394     57393     57395
     57395     57393     57396     57397     57393     57396     57397     57393     57395
     57397     57393     57394     57399     57403     57404     57400     57399     57402
     57400     57399     57401     57401     57399     57402     57403     57399     57402
     57403     57399     57401     57403     57399     57400     57405     57409     57410
     57406     57405     57408     57406     57405     57407     57407     57405     57408
     57409     57405     57408     57409     57405     57407     57409     57405     57406
     57411     57415     57416     57412     57411     57414     57412     57411     57413
     57413     57411     57414     57415     57411     57414     57415     57411     57413
     57415     57411     57412     57417     57421     57422     57418     57417     57420
     57418     57417     57419     57419     57417     57420     57421     57417     57420
     57421     57417     57419     57421     57417     57418     57423     57427     57428
     57424     57423     57426     57424     57423     57425     57425     57423     57426
     57427     57423     57426     57427     57423     57425     57427     57423     57424
     57429     57433     57434     57430     57429     57432     57430     57429     57431
     57431     57429     57432     57433     57429     57432     57433     57429     57431
     57433     57429     57430     57435     57439     57440     57436     57435     57438
     57436     57435     57437     57437     57435     57438     57439     57435     57438
     57439     57435     57437     57439     57435     57436     57441     57445     57446
     57442     57441     57444     57442     57441     57443     57443     57441     57444
     57445     57441     57444     57445     57441     57443     57445     57441     57442
     57447     57451     57452     57448     57447     57450     57448     57447     57449
     57449     57447     57450     57451     57447     57450     57451     57447     57449
     57451     57447     57448     57453     57457     57458     57454     57453     57456
     57454     57453     57455     57455     57453     57456     57457     57453     57456
     57457     57453     57455     57457     57453     57454     57459     57463     57464
     57460     57459     57462     57460     57459     57461     57461     57459     57462
     57463     57459     57462     57463     57459     57461     57463     57459     57460
     57465     57469     57470     57466     57465     57468     57466     57465     57467
     57467     57465     57468     57469     57465     57468     57469     57465     57467
     57469     57465     57466     57471     57475     57476     57472     57471     57474
     57472     57471     57473     57473     57471     57474     57475     57471     57474
     57475     57471     57473     57475     57471     57472     57477     57481     57482
     57478     57477     57480     57478     57477     57479     57479     57477     57480
     57481     57477     57480     57481     57477     57479     57481     57477     57478
     57483     57487     57488     57484     57483     57486     57484     57483     57485
     57485     57483     57486     57487     57483     57486     57487     57483     57485
     57487     57483     57484     57489     57493     57494     57490     57489     57492
     57490     57489     57491     57491     57489     57492     57493     57489     57492
     57493     57489     57491     57493     57489     57490     57495     57499     57500
     57496     57495     57498     57496     57495     57497     57497     57495     57498
     57499     57495     57498     57499     57495     57497     57499     57495     57496
     57501     57505     57506     57502     57501     57504     57502     57501     57503
     57503     57501     57504     57505     57501     57504     57505     57501     57503
     57505     57501     57502     57507     57511     57512     57508     57507     57510
     57508     57507     57509     57509     57507     57510     57511     57507     57510
     57511     57507     57509     57511     57507     57508     57513     57517     57518
     57514     57513     57516     57514     57513     57515     57515     57513     57516
     57517     57513     57516     57517     57513     57515     57517     57513     57514
     57519     57523     57524     57520     57519     57522     57520     57519     57521
     57521     57519     57522     57523     57519     57522     57523     57519     57521
     57523     57519     57520     57525     57529     57530     57526     57525     57528
     57526     57525     57527     57527     57525     57528     57529     57525     57528
     57529     57525     57527     57529     57525     57526     57531     57535     57536
     57532     57531     57534     57532     57531     57533     57533     57531     57534
     57535     57531     57534     57535     57531     57533     57535     57531     57532
     57537     57541     57542     57538     57537     57540     57538     57537     57539
     57539     57537     57540     57541     57537     57540     57541     57537     57539
     57541     57537     57538     57543     57547     57548     57544     57543     57546
     57544     57543     57545     57545     57543     57546     57547     57543     57546
     57547     57543     57545     57547     57543     57544     57549     57553     57554
     57550     57549     57552     57550     57549     57551     57551     57549     57552
     57553     57549     57552     57553     57549     57551     57553     57549     57550
     57555     57559     57560     57556     57555     57558     57556     57555     57557
     57557     57555     57558     57559     57555     57558     57559     57555     57557
     57559     57555     57556     57561     57565     57566     57562     57561     57564
     57562     57561     57563     57563     57561     57564     57565     57561     57564
     57565     57561     57563     57565     57561     57562     57567     57571     57572
     57568     57567     57570     57568     57567     57569     57569     57567     57570
     57571     57567     57570     57571     57567     57569     57571     57567     57568
     57573     57577     57578     57574     57573     57576     57574     57573     57575
     57575     57573     57576     57577     57573     57576     57577     57573     57575
     57577     57573     57574     57579     57583     57584     57580     57579     57582
     57580     57579     57581     57581     57579     57582     57583     57579     57582
     57583     57579     57581     57583     57579     57580     57585     57589     57590
     57586     57585     57588     57586     57585     57587     57587     57585     57588
     57589     57585     57588     57589     57585     57587     57589     57585     57586
     57591     57595     57596     57592     57591     57594     57592     57591     57593
     57593     57591     57594     57595     57591     57594     57595     57591     57593
     57595     57591     57592     57597     57601     57602     57598     57597     57600
     57598     57597     57599     57599     57597     57600     57601     57597     57600
     57601     57597     57599     57601     57597     57598     57603     57607     57608
     57604     57603     57606     57604     57603     57605     57605     57603     57606
     57607     57603     57606     57607     57603     57605     57607     57603     57604
     57609     57613     57614     57610     57609     57612     57610     57609     57611
     57611     57609     57612     57613     57609     57612     57613     57609     57611
     57613     57609     57610     57615     57619     57620     57616     57615     57618
     57616     57615     57617     57617     57615     57618     57619     57615     57618
     57619     57615     57617     57619     57615     57616     57621     57625     57626
     57622     57621     57624     57622     57621     57623     57623     57621     57624
     57625     57621     57624     57625     57621     57623     57625     57621     57622
     57627     57631     57632     57628     57627     57630     57628     57627     57629
     57629     57627     57630     57631     57627     57630     57631     57627     57629
     57631     57627     57628     57633     57637     57638     57634     57633     57636
     57634     57633     57635     57635     57633     57636     57637     57633     57636
     57637     57633     57635     57637     57633     57634     57639     57643     57644
     57640     57639     57642     57640     57639     57641     57641     57639     57642
     57643     57639     57642     57643     57639     57641     57643     57639     57640
     57645     57649     57650     57646     57645     57648     57646     57645     57647
     57647     57645     57648     57649     57645     57648     57649     57645     57647
     57649     57645     57646     57651     57655     57656     57652     57651     57654
     57652     57651     57653     57653     57651     57654     57655     57651     57654
     57655     57651     57653     57655     57651     57652     57657     57661     57662
     57658     57657     57660     57658     57657     57659     57659     57657     57660
     57661     57657     57660     57661     57657     57659     57661     57657     57658
     57663     57667     57668     57664     57663     57666     57664     57663     57665
     57665     57663     57666     57667     57663     57666     57667     57663     57665
     57667     57663     57664     57669     57673     57674     57670     57669     57672
     57670     57669     57671     57671     57669     57672     57673     57669     57672
     57673     57669     57671     57673     57669     57670     57675     57679     57680
     57676     57675     57678     57676     57675     57677     57677     57675     57678
     57679     57675     57678     57679     57675     57677     57679     57675     57676
     57681     57685     57686     57682     57681     57684     57682     57681     57683
     57683     57681     57684     57685     57681     57684     57685     57681     57683
     57685     57681     57682     57687     57691     57692     57688     57687     57690
     57688     57687     57689     57689     57687     57690     57691     57687     57690
     57691     57687     57689     57691     57687     57688     57693     57697     57698
     57694     57693     57696     57694     57693     57695     57695     57693     57696
     57697     57693     57696     57697     57693     57695     57697     57693     57694
     57699     57703     57704     57700     57699     57702     57700     57699     57701
     57701     57699     57702     57703     57699     57702     57703     57699     57701
     57703     57699     57700     57705     57709     57710     57706     57705     57708
     57706     57705     57707     57707     57705     57708     57709     57705     57708
     57709     57705     57707     57709     57705     57706     57711     57715     57716
     57712     57711     57714     57712     57711     57713     57713     57711     57714
     57715     57711     57714     57715     57711     57713     57715     57711     57712
     57717     57721     57722     57718     57717     57720     57718     57717     57719
     57719     57717     57720     57721     57717     57720     57721     57717     57719
     57721     57717     57718     57723     57727     57728     57724     57723     57726
     57724     57723     57725     57725     57723     57726     57727     57723     57726
     57727     57723     57725     57727     57723     57724     57729     57733     57734
     57730     57729     57732     57730     57729     57731     57731     57729     57732
     57733     57729     57732     57733     57729     57731     57733     57729     57730
     57735     57739     57740     57736     57735     57738     57736     57735     57737
     57737     57735     57738     57739     57735     57738     57739     57735     57737
     57739     57735     57736     57741     57745     57746     57742     57741     57744
     57742     57741     57743     57743     57741     57744     57745     57741     57744
     57745     57741     57743     57745     57741     57742     57747     57751     57752
     57748     57747     57750     57748     57747     57749     57749     57747     57750
     57751     57747     57750     57751     57747     57749     57751     57747     57748
     57753     57757     57758     57754     57753     57756     57754     57753     57755
     57755     57753     57756     57757     57753     57756     57757     57753     57755
     57757     57753     57754     57759     57763     57764     57760     57759     57762
     57760     57759     57761     57761     57759     57762     57763     57759     57762
     57763     57759     57761     57763     57759     57760     57765     57769     57770
     57766     57765     57768     57766     57765     57767     57767     57765     57768
     57769     57765     57768     57769     57765     57767     57769     57765     57766
     57771     57775     57776     57772     57771     57774     57772     57771     57773
     57773     57771     57774     57775     57771     57774     57775     57771     57773
     57775     57771     57772     57777     57781     57782     57778     57777     57780
     57778     57777     57779     57779     57777     57780     57781     57777     57780
     57781     57777     57779     57781     57777     57778     57783     57787     57788
     57784     57783     57786     57784     57783     57785     57785     57783     57786
     57787     57783     57786     57787     57783     57785     57787     57783     57784
     57789     57793     57794     57790     57789     57792     57790     57789     57791
     57791     57789     57792     57793     57789     57792     57793     57789     57791
     57793     57789     57790     57795     57799     57800     57796     57795     57798
     57796     57795     57797     57797     57795     57798     57799     57795     57798
     57799     57795     57797     57799     57795     57796     57801     57805     57806
     57802     57801     57804     57802     57801     57803     57803     57801     57804
     57805     57801     57804     57805     57801     57803     57805     57801     57802
     57807     57811     57812     57808     57807     57810     57808     57807     57809
     57809     57807     57810     57811     57807     57810     57811     57807     57809
     57811     57807     57808     57813     57817     57818     57814     57813     57816
     57814     57813     57815     57815     57813     57816     57817     57813     57816
     57817     57813     57815     57817     57813     57814     57819     57823     57824
     57820     57819     57822     57820     57819     57821     57821     57819     57822
     57823     57819     57822     57823     57819     57821     57823     57819     57820
     57825     57829     57830     57826     57825     57828     57826     57825     57827
     57827     57825     57828     57829     57825     57828     57829     57825     57827
     57829     57825     57826     57831     57835     57836     57832     57831     57834
     57832     57831     57833     57833     57831     57834     57835     57831     57834
     57835     57831     57833     57835     57831     57832     57837     57841     57842
     57838     57837     57840     57838     57837     57839     57839     57837     57840
     57841     57837     57840     57841     57837     57839     57841     57837     57838
     57843     57847     57848     57844     57843     57846     57844     57843     57845
     57845     57843     57846     57847     57843     57846     57847     57843     57845
     57847     57843     57844     57849     57853     57854     57850     57849     57852
     57850     57849     57851     57851     57849     57852     57853     57849     57852
     57853     57849     57851     57853     57849     57850     57855     57859     57860
     57856     57855     57858     57856     57855     57857     57857     57855     57858
     57859     57855     57858     57859     57855     57857     57859     57855     57856
     57861     57865     57866     57862     57861     57864     57862     57861     57863
     57863     57861     57864     57865     57861     57864     57865     57861     57863
     57865     57861     57862     57867     57871     57872     57868     57867     57870
     57868     57867     57869     57869     57867     57870     57871     57867     57870
     57871     57867     57869     57871     57867     57868     57873     57877     57878
     57874     57873     57876     57874     57873     57875     57875     57873     57876
     57877     57873     57876     57877     57873     57875     57877     57873     57874
     57879     57883     57884     57880     57879     57882     57880     57879     57881
     57881     57879     57882     57883     57879     57882     57883     57879     57881
     57883     57879     57880     57885     57889     57890     57886     57885     57888
     57886     57885     57887     57887     57885     57888     57889     57885     57888
     57889     57885     57887     57889     57885     57886     57891     57895     57896
     57892     57891     57894     57892     57891     57893     57893     57891     57894
     57895     57891     57894     57895     57891     57893     57895     57891     57892
     57897     57901     57902     57898     57897     57900     57898     57897     57899
     57899     57897     57900     57901     57897     57900     57901     57897     57899
     57901     57897     57898     57903     57907     57908     57904     57903     57906
     57904     57903     57905     57905     57903     57906     57907     57903     57906
     57907     57903     57905     57907     57903     57904     57909     57913     57914
     57910     57909     57912     57910     57909     57911     57911     57909     57912
     57913     57909     57912     57913     57909     57911     57913     57909     57910
     57915     57919     57920     57916     57915     57918     57916     57915     57917
     57917     57915     57918     57919     57915     57918     57919     57915     57917
     57919     57915     57916     57921     57925     57926     57922     57921     57924
     57922     57921     57923     57923     57921     57924     57925     57921     57924
     57925     57921     57923     57925     57921     57922     57927     57931     57932
     57928     57927     57930     57928     57927     57929     57929     57927     57930
     57931     57927     57930     57931     57927     57929     57931     57927     57928
     57933     57937     57938     57934     57933     57936     57934     57933     57935
     57935     57933     57936     57937     57933     57936     57937     57933     57935
     57937     57933     57934     57939     57943     57944     57940     57939     57942
     57940     57939     57941     57941     57939     57942     57943     57939     57942
     57943     57939     57941     57943     57939     57940     57945     57949     57950
     57946     57945     57948     57946     57945     57947     57947     57945     57948
     57949     57945     57948     57949     57945     57947     57949     57945     57946
     57951     57955     57956     57952     57951     57954     57952     57951     57953
     57953     57951     57954     57955     57951     57954     57955     57951     57953
     57955     57951     57952     57957     57961     57962     57958     57957     57960
     57958     57957     57959     57959     57957     57960     57961     57957     57960
     57961     57957     57959     57961     57957     57958     57963     57967     57968
     57964     57963     57966     57964     57963     57965     57965     57963     57966
     57967     57963     57966     57967     57963     57965     57967     57963     57964
     57969     57973     57974     57970     57969     57972     57970     57969     57971
     57971     57969     57972     57973     57969     57972     57973     57969     57971
     57973     57969     57970     57975     57979     57980     57976     57975     57978
     57976     57975     57977     57977     57975     57978     57979     57975     57978
     57979     57975     57977     57979     57975     57976     57981     57985     57986
     57982     57981     57984     57982     57981     57983     57983     57981     57984
     57985     57981     57984     57985     57981     57983     57985     57981     57982
     57987     57991     57992     57988     57987     57990     57988     57987     57989
     57989     57987     57990     57991     57987     57990     57991     57987     57989
     57991     57987     57988     57993     57997     57998     57994     57993     57996
     57994     57993     57995     57995     57993     57996     57997     57993     57996
     57997     57993     57995     57997     57993     57994     57999     58003     58004
     58000     57999     58002     58000     57999     58001     58001     57999     58002
     58003     57999     58002     58003     57999     58001     58003     57999     58000
     58005     58009     58010     58006     58005     58008     58006     58005     58007
     58007     58005     58008     58009     58005     58008     58009     58005     58007
     58009     58005     58006     58011     58015     58016     58012     58011     58014
     58012     58011     58013     58013     58011     58014     58015     58011     58014
     58015     58011     58013     58015     58011     58012     58017     58021     58022
     58018     58017     58020     58018     58017     58019     58019     58017     58020
     58021     58017     58020     58021     58017     58019     58021     58017     58018
     58023     58027     58028     58024     58023     58026     58024     58023     58025
     58025     58023     58026     58027     58023     58026     58027     58023     58025
     58027     58023     58024     58029     58033     58034     58030     58029     58032
     58030     58029     58031     58031     58029     58032     58033     58029     58032
     58033     58029     58031     58033     58029     58030     58035     58039     58040
     58036     58035     58038     58036     58035     58037     58037     58035     58038
     58039     58035     58038     58039     58035     58037     58039     58035     58036
     58041     58045     58046     58042     58041     58044     58042     58041     58043
     58043     58041     58044     58045     58041     58044     58045     58041     58043
     58045     58041     58042     58047     58051     58052     58048     58047     58050
     58048     58047     58049     58049     58047     58050     58051     58047     58050
     58051     58047     58049     58051     58047     58048     58053     58057     58058
     58054     58053     58056     58054     58053     58055     58055     58053     58056
     58057     58053     58056     58057     58053     58055     58057     58053     58054
     58059     58063     58064     58060     58059     58062     58060     58059     58061
     58061     58059     58062     58063     58059     58062     58063     58059     58061
     58063     58059     58060     58065     58069     58070     58066     58065     58068
     58066     58065     58067     58067     58065     58068     58069     58065     58068
     58069     58065     58067     58069     58065     58066     58071     58075     58076
     58072     58071     58074     58072     58071     58073     58073     58071     58074
     58075     58071     58074     58075     58071     58073     58075     58071     58072
     58077     58081     58082     58078     58077     58080     58078     58077     58079
     58079     58077     58080     58081     58077     58080     58081     58077     58079
     58081     58077     58078     58083     58087     58088     58084     58083     58086
     58084     58083     58085     58085     58083     58086     58087     58083     58086
     58087     58083     58085     58087     58083     58084     58089     58093     58094
     58090     58089     58092     58090     58089     58091     58091     58089     58092
     58093     58089     58092     58093     58089     58091     58093     58089     58090
     58095     58099     58100     58096     58095     58098     58096     58095     58097
     58097     58095     58098     58099     58095     58098     58099     58095     58097
     58099     58095     58096     58101     58105     58106     58102     58101     58104
     58102     58101     58103     58103     58101     58104     58105     58101     58104
     58105     58101     58103     58105     58101     58102     58107     58111     58112
     58108     58107     58110     58108     58107     58109     58109     58107     58110
     58111     58107     58110     58111     58107     58109     58111     58107     58108
     58113     58117     58118     58114     58113     58116     58114     58113     58115
     58115     58113     58116     58117     58113     58116     58117     58113     58115
     58117     58113     58114     58119     58123     58124     58120     58119     58122
     58120     58119     58121     58121     58119     58122     58123     58119     58122
     58123     58119     58121     58123     58119     58120     58125     58129     58130
     58126     58125     58128     58126     58125     58127     58127     58125     58128
     58129     58125     58128     58129     58125     58127     58129     58125     58126
     58131     58135     58136     58132     58131     58134     58132     58131     58133
     58133     58131     58134     58135     58131     58134     58135     58131     58133
     58135     58131     58132     58137     58141     58142     58138     58137     58140
     58138     58137     58139     58139     58137     58140     58141     58137     58140
     58141     58137     58139     58141     58137     58138     58143     58147     58148
     58144     58143     58146     58144     58143     58145     58145     58143     58146
     58147     58143     58146     58147     58143     58145     58147     58143     58144
     58149     58153     58154     58150     58149     58152     58150     58149     58151
     58151     58149     58152     58153     58149     58152     58153     58149     58151
     58153     58149     58150     58155     58159     58160     58156     58155     58158
     58156     58155     58157     58157     58155     58158     58159     58155     58158
     58159     58155     58157     58159     58155     58156     58161     58165     58166
     58162     58161     58164     58162     58161     58163     58163     58161     58164
     58165     58161     58164     58165     58161     58163     58165     58161     58162
     58167     58171     58172     58168     58167     58170     58168     58167     58169
     58169     58167     58170     58171     58167     58170     58171     58167     58169
     58171     58167     58168     58173     58177     58178     58174     58173     58176
     58174     58173     58175     58175     58173     58176     58177     58173     58176
     58177     58173     58175     58177     58173     58174     58179     58183     58184
     58180     58179     58182     58180     58179     58181     58181     58179     58182
     58183     58179     58182     58183     58179     58181     58183     58179     58180
     58185     58189     58190     58186     58185     58188     58186     58185     58187
     58187     58185     58188     58189     58185     58188     58189     58185     58187
     58189     58185     58186     58191     58195     58196     58192     58191     58194
     58192     58191     58193     58193     58191     58194     58195     58191     58194
     58195     58191     58193     58195     58191     58192     58197     58201     58202
     58198     58197     58200     58198     58197     58199     58199     58197     58200
     58201     58197     58200     58201     58197     58199     58201     58197     58198
     58203     58207     58208     58204     58203     58206     58204     58203     58205
     58205     58203     58206     58207     58203     58206     58207     58203     58205
     58207     58203     58204     58209     58213     58214     58210     58209     58212
     58210     58209     58211     58211     58209     58212     58213     58209     58212
     58213     58209     58211     58213     58209     58210     58215     58219     58220
     58216     58215     58218     58216     58215     58217     58217     58215     58218
     58219     58215     58218     58219     58215     58217     58219     58215     58216
     58221     58225     58226     58222     58221     58224     58222     58221     58223
     58223     58221     58224     58225     58221     58224     58225     58221     58223
     58225     58221     58222     58227     58231     58232     58228     58227     58230
     58228     58227     58229     58229     58227     58230     58231     58227     58230
     58231     58227     58229     58231     58227     58228     58233     58237     58238
     58234     58233     58236     58234     58233     58235     58235     58233     58236
     58237     58233     58236     58237     58233     58235     58237     58233     58234
     58239     58243     58244     58240     58239     58242     58240     58239     58241
     58241     58239     58242     58243     58239     58242     58243     58239     58241
     58243     58239     58240     58245     58249     58250     58246     58245     58248
     58246     58245     58247     58247     58245     58248     58249     58245     58248
     58249     58245     58247     58249     58245     58246     58251     58255     58256
     58252     58251     58254     58252     58251     58253     58253     58251     58254
     58255     58251     58254     58255     58251     58253     58255     58251     58252
     58257     58261     58262     58258     58257     58260     58258     58257     58259
     58259     58257     58260     58261     58257     58260     58261     58257     58259
     58261     58257     58258     58263     58267     58268     58264     58263     58266
     58264     58263     58265     58265     58263     58266     58267     58263     58266
     58267     58263     58265     58267     58263     58264     58269     58273     58274
     58270     58269     58272     58270     58269     58271     58271     58269     58272
     58273     58269     58272     58273     58269     58271     58273     58269     58270
     58275     58279     58280     58276     58275     58278     58276     58275     58277
     58277     58275     58278     58279     58275     58278     58279     58275     58277
     58279     58275     58276     58281     58285     58286     58282     58281     58284
     58282     58281     58283     58283     58281     58284     58285     58281     58284
     58285     58281     58283     58285     58281     58282     58287     58291     58292
     58288     58287     58290     58288     58287     58289     58289     58287     58290
     58291     58287     58290     58291     58287     58289     58291     58287     58288
     58293     58297     58298     58294     58293     58296     58294     58293     58295
     58295     58293     58296     58297     58293     58296     58297     58293     58295
     58297     58293     58294     58299     58303     58304     58300     58299     58302
     58300     58299     58301     58301     58299     58302     58303     58299     58302
     58303     58299     58301     58303     58299     58300     58305     58309     58310
     58306     58305     58308     58306     58305     58307     58307     58305     58308
     58309     58305     58308     58309     58305     58307     58309     58305     58306
     58311     58315     58316     58312     58311     58314     58312     58311     58313
     58313     58311     58314     58315     58311     58314     58315     58311     58313
     58315     58311     58312     58317     58321     58322     58318     58317     58320
     58318     58317     58319     58319     58317     58320     58321     58317     58320
     58321     58317     58319     58321     58317     58318     58323     58327     58328
     58324     58323     58326     58324     58323     58325     58325     58323     58326
     58327     58323     58326     58327     58323     58325     58327     58323     58324
     58329     58333     58334     58330     58329     58332     58330     58329     58331
     58331     58329     58332     58333     58329     58332     58333     58329     58331
     58333     58329     58330     58335     58339     58340     58336     58335     58338
     58336     58335     58337     58337     58335     58338     58339     58335     58338
     58339     58335     58337     58339     58335     58336     58341     58345     58346
     58342     58341     58344     58342     58341     58343     58343     58341     58344
     58345     58341     58344     58345     58341     58343     58345     58341     58342
     58347     58351     58352     58348     58347     58350     58348     58347     58349
     58349     58347     58350     58351     58347     58350     58351     58347     58349
     58351     58347     58348     58353     58357     58358     58354     58353     58356
     58354     58353     58355     58355     58353     58356     58357     58353     58356
     58357     58353     58355     58357     58353     58354     58359     58363     58364
     58360     58359     58362     58360     58359     58361     58361     58359     58362
     58363     58359     58362     58363     58359     58361     58363     58359     58360
     58365     58369     58370     58366     58365     58368     58366     58365     58367
     58367     58365     58368     58369     58365     58368     58369     58365     58367
     58369     58365     58366     58371     58375     58376     58372     58371     58374
     58372     58371     58373     58373     58371     58374     58375     58371     58374
     58375     58371     58373     58375     58371     58372     58377     58381     58382
     58378     58377     58380     58378     58377     58379     58379     58377     58380
     58381     58377     58380     58381     58377     58379     58381     58377     58378
     58383     58387     58388     58384     58383     58386     58384     58383     58385
     58385     58383     58386     58387     58383     58386     58387     58383     58385
     58387     58383     58384     58389     58393     58394     58390     58389     58392
     58390     58389     58391     58391     58389     58392     58393     58389     58392
     58393     58389     58391     58393     58389     58390     58395     58399     58400
     58396     58395     58398     58396     58395     58397     58397     58395     58398
     58399     58395     58398     58399     58395     58397     58399     58395     58396
     58401     58405     58406     58402     58401     58404     58402     58401     58403
     58403     58401     58404     58405     58401     58404     58405     58401     58403
     58405     58401     58402     58407     58411     58412     58408     58407     58410
     58408     58407     58409     58409     58407     58410     58411     58407     58410
     58411     58407     58409     58411     58407     58408     58413     58417     58418
     58414     58413     58416     58414     58413     58415     58415     58413     58416
     58417     58413     58416     58417     58413     58415     58417     58413     58414
     58419     58423     58424     58420     58419     58422     58420     58419     58421
     58421     58419     58422     58423     58419     58422     58423     58419     58421
     58423     58419     58420     58425     58429     58430     58426     58425     58428
     58426     58425     58427     58427     58425     58428     58429     58425     58428
     58429     58425     58427     58429     58425     58426     58431     58435     58436
     58432     58431     58434     58432     58431     58433     58433     58431     58434
     58435     58431     58434     58435     58431     58433     58435     58431     58432
     58437     58441     58442     58438     58437     58440     58438     58437     58439
     58439     58437     58440     58441     58437     58440     58441     58437     58439
     58441     58437     58438     58443     58447     58448     58444     58443     58446
     58444     58443     58445     58445     58443     58446     58447     58443     58446
     58447     58443     58445     58447     58443     58444     58449     58453     58454
     58450     58449     58452     58450     58449     58451     58451     58449     58452
     58453     58449     58452     58453     58449     58451     58453     58449     58450
     58455     58459     58460     58456     58455     58458     58456     58455     58457
     58457     58455     58458     58459     58455     58458     58459     58455     58457
     58459     58455     58456     58461     58465     58466     58462     58461     58464
     58462     58461     58463     58463     58461     58464     58465     58461     58464
     58465     58461     58463     58465     58461     58462     58467     58471     58472
     58468     58467     58470     58468     58467     58469     58469     58467     58470
     58471     58467     58470     58471     58467     58469     58471     58467     58468
     58473     58477     58478     58474     58473     58476     58474     58473     58475
     58475     58473     58476     58477     58473     58476     58477     58473     58475
     58477     58473     58474     58479     58483     58484     58480     58479     58482
     58480     58479     58481     58481     58479     58482     58483     58479     58482
     58483     58479     58481     58483     58479     58480     58485     58489     58490
     58486     58485     58488     58486     58485     58487     58487     58485     58488
     58489     58485     58488     58489     58485     58487     58489     58485     58486
     58491     58495     58496     58492     58491     58494     58492     58491     58493
     58493     58491     58494     58495     58491     58494     58495     58491     58493
     58495     58491     58492     58497     58501     58502     58498     58497     58500
     58498     58497     58499     58499     58497     58500     58501     58497     58500
     58501     58497     58499     58501     58497     58498     58503     58507     58508
     58504     58503     58506     58504     58503     58505     58505     58503     58506
     58507     58503     58506     58507     58503     58505     58507     58503     58504
     58509     58513     58514     58510     58509     58512     58510     58509     58511
     58511     58509     58512     58513     58509     58512     58513     58509     58511
     58513     58509     58510     58515     58519     58520     58516     58515     58518
     58516     58515     58517     58517     58515     58518     58519     58515     58518
     58519     58515     58517     58519     58515     58516     58521     58525     58526
     58522     58521     58524     58522     58521     58523     58523     58521     58524
     58525     58521     58524     58525     58521     58523     58525     58521     58522
     58527     58531     58532     58528     58527     58530     58528     58527     58529
     58529     58527     58530     58531     58527     58530     58531     58527     58529
     58531     58527     58528     58533     58537     58538     58534     58533     58536
     58534     58533     58535     58535     58533     58536     58537     58533     58536
     58537     58533     58535     58537     58533     58534     58539     58543     58544
     58540     58539     58542     58540     58539     58541     58541     58539     58542
     58543     58539     58542     58543     58539     58541     58543     58539     58540
     58545     58549     58550     58546     58545     58548     58546     58545     58547
     58547     58545     58548     58549     58545     58548     58549     58545     58547
     58549     58545     58546     58551     58555     58556     58552     58551     58554
     58552     58551     58553     58553     58551     58554     58555     58551     58554
     58555     58551     58553     58555     58551     58552     58557     58561     58562
     58558     58557     58560     58558     58557     58559     58559     58557     58560
     58561     58557     58560     58561     58557     58559     58561     58557     58558
     58563     58567     58568     58564     58563     58566     58564     58563     58565
     58565     58563     58566     58567     58563     58566     58567     58563     58565
     58567     58563     58564     58569     58573     58574     58570     58569     58572
     58570     58569     58571     58571     58569     58572     58573     58569     58572
     58573     58569     58571     58573     58569     58570     58575     58579     58580
     58576     58575     58578     58576     58575     58577     58577     58575     58578
     58579     58575     58578     58579     58575     58577     58579     58575     58576
     58581     58585     58586     58582     58581     58584     58582     58581     58583
     58583     58581     58584     58585     58581     58584     58585     58581     58583
     58585     58581     58582     58587     58591     58592     58588     58587     58590
     58588     58587     58589     58589     58587     58590     58591     58587     58590
     58591     58587     58589     58591     58587     58588     58593     58597     58598
     58594     58593     58596     58594     58593     58595     58595     58593     58596
     58597     58593     58596     58597     58593     58595     58597     58593     58594
     58599     58603     58604     58600     58599     58602     58600     58599     58601
     58601     58599     58602     58603     58599     58602     58603     58599     58601
     58603     58599     58600     58605     58609     58610     58606     58605     58608
     58606     58605     58607     58607     58605     58608     58609     58605     58608
     58609     58605     58607     58609     58605     58606     58611     58615     58616
     58612     58611     58614     58612     58611     58613     58613     58611     58614
     58615     58611     58614     58615     58611     58613     58615     58611     58612
     58617     58621     58622     58618     58617     58620     58618     58617     58619
     58619     58617     58620     58621     58617     58620     58621     58617     58619
     58621     58617     58618     58623     58627     58628     58624     58623     58626
     58624     58623     58625     58625     58623     58626     58627     58623     58626
     58627     58623     58625     58627     58623     58624     58629     58633     58634
     58630     58629     58632     58630     58629     58631     58631     58629     58632
     58633     58629     58632     58633     58629     58631     58633     58629     58630
     58635     58639     58640     58636     58635     58638     58636     58635     58637
     58637     58635     58638     58639     58635     58638     58639     58635     58637
     58639     58635     58636     58641     58645     58646     58642     58641     58644
     58642     58641     58643     58643     58641     58644     58645     58641     58644
     58645     58641     58643     58645     58641     58642     58647     58651     58652
     58648     58647     58650     58648     58647     58649     58649     58647     58650
     58651     58647     58650     58651     58647     58649     58651     58647     58648
     58653     58657     58658     58654     58653     58656     58654     58653     58655
     58655     58653     58656     58657     58653     58656     58657     58653     58655
     58657     58653     58654     58659     58663     58664     58660     58659     58662
     58660     58659     58661     58661     58659     58662     58663     58659     58662
     58663     58659     58661     58663     58659     58660     58665     58669     58670
     58666     58665     58668     58666     58665     58667     58667     58665     58668
     58669     58665     58668     58669     58665     58667     58669     58665     58666
     58671     58675     58676     58672     58671     58674     58672     58671     58673
     58673     58671     58674     58675     58671     58674     58675     58671     58673
     58675     58671     58672     58677     58681     58682     58678     58677     58680
     58678     58677     58679     58679     58677     58680     58681     58677     58680
     58681     58677     58679     58681     58677     58678     58683     58687     58688
     58684     58683     58686     58684     58683     58685     58685     58683     58686
     58687     58683     58686     58687     58683     58685     58687     58683     58684
     58689     58693     58694     58690     58689     58692     58690     58689     58691
     58691     58689     58692     58693     58689     58692     58693     58689     58691
     58693     58689     58690     58695     58699     58700     58696     58695     58698
     58696     58695     58697     58697     58695     58698     58699     58695     58698
     58699     58695     58697     58699     58695     58696     58701     58705     58706
     58702     58701     58704     58702     58701     58703     58703     58701     58704
     58705     58701     58704     58705     58701     58703     58705     58701     58702
     58707     58711     58712     58708     58707     58710     58708     58707     58709
     58709     58707     58710     58711     58707     58710     58711     58707     58709
     58711     58707     58708     58713     58717     58718     58714     58713     58716
     58714     58713     58715     58715     58713     58716     58717     58713     58716
     58717     58713     58715     58717     58713     58714     58719     58723     58724
     58720     58719     58722     58720     58719     58721     58721     58719     58722
     58723     58719     58722     58723     58719     58721     58723     58719     58720
     58725     58729     58730     58726     58725     58728     58726     58725     58727
     58727     58725     58728     58729     58725     58728     58729     58725     58727
     58729     58725     58726     58731     58735     58736     58732     58731     58734
     58732     58731     58733     58733     58731     58734     58735     58731     58734
     58735     58731     58733     58735     58731     58732     58737     58741     58742
     58738     58737     58740     58738     58737     58739     58739     58737     58740
     58741     58737     58740     58741     58737     58739     58741     58737     58738
     58743     58747     58748     58744     58743     58746     58744     58743     58745
     58745     58743     58746     58747     58743     58746     58747     58743     58745
     58747     58743     58744     58749     58753     58754     58750     58749     58752
     58750     58749     58751     58751     58749     58752     58753     58749     58752
     58753     58749     58751     58753     58749     58750     58755     58759     58760
     58756     58755     58758     58756     58755     58757     58757     58755     58758
     58759     58755     58758     58759     58755     58757     58759     58755     58756
     58761     58765     58766     58762     58761     58764     58762     58761     58763
     58763     58761     58764     58765     58761     58764     58765     58761     58763
     58765     58761     58762     58767     58771     58772     58768     58767     58770
     58768     58767     58769     58769     58767     58770     58771     58767     58770
     58771     58767     58769     58771     58767     58768     58773     58777     58778
     58774     58773     58776     58774     58773     58775     58775     58773     58776
     58777     58773     58776     58777     58773     58775     58777     58773     58774
     58779     58783     58784     58780     58779     58782     58780     58779     58781
     58781     58779     58782     58783     58779     58782     58783     58779     58781
     58783     58779     58780     58785     58789     58790     58786     58785     58788
     58786     58785     58787     58787     58785     58788     58789     58785     58788
     58789     58785     58787     58789     58785     58786     58791     58795     58796
     58792     58791     58794     58792     58791     58793     58793     58791     58794
     58795     58791     58794     58795     58791     58793     58795     58791     58792
     58797     58801     58802     58798     58797     58800     58798     58797     58799
     58799     58797     58800     58801     58797     58800     58801     58797     58799
     58801     58797     58798     58803     58807     58808     58804     58803     58806
     58804     58803     58805     58805     58803     58806     58807     58803     58806
     58807     58803     58805     58807     58803     58804     58809     58813     58814
     58810     58809     58812     58810     58809     58811     58811     58809     58812
     58813     58809     58812     58813     58809     58811     58813     58809     58810
     58815     58819     58820     58816     58815     58818     58816     58815     58817
     58817     58815     58818     58819     58815     58818     58819     58815     58817
     58819     58815     58816     58821     58825     58826     58822     58821     58824
     58822     58821     58823     58823     58821     58824     58825     58821     58824
     58825     58821     58823     58825     58821     58822     58827     58831     58832
     58828     58827     58830     58828     58827     58829     58829     58827     58830
     58831     58827     58830     58831     58827     58829     58831     58827     58828
     58833     58837     58838     58834     58833     58836     58834     58833     58835
     58835     58833     58836     58837     58833     58836     58837     58833     58835
     58837     58833     58834     58839     58843     58844     58840     58839     58842
     58840     58839     58841     58841     58839     58842     58843     58839     58842
     58843     58839     58841     58843     58839     58840     58845     58849     58850
     58846     58845     58848     58846     58845     58847     58847     58845     58848
     58849     58845     58848     58849     58845     58847     58849     58845     58846
     58851     58855     58856     58852     58851     58854     58852     58851     58853
     58853     58851     58854     58855     58851     58854     58855     58851     58853
     58855     58851     58852     58857     58861     58862     58858     58857     58860
     58858     58857     58859     58859     58857     58860     58861     58857     58860
     58861     58857     58859     58861     58857     58858     58863     58867     58868
     58864     58863     58866     58864     58863     58865     58865     58863     58866
     58867     58863     58866     58867     58863     58865     58867     58863     58864
     58869     58873     58874     58870     58869     58872     58870     58869     58871
     58871     58869     58872     58873     58869     58872     58873     58869     58871
     58873     58869     58870     58875     58879     58880     58876     58875     58878
     58876     58875     58877     58877     58875     58878     58879     58875     58878
     58879     58875     58877     58879     58875     58876     58881     58885     58886
     58882     58881     58884     58882     58881     58883     58883     58881     58884
     58885     58881     58884     58885     58881     58883     58885     58881     58882
     58887     58891     58892     58888     58887     58890     58888     58887     58889
     58889     58887     58890     58891     58887     58890     58891     58887     58889
     58891     58887     58888     58893     58897     58898     58894     58893     58896
     58894     58893     58895     58895     58893     58896     58897     58893     58896
     58897     58893     58895     58897     58893     58894     58899     58903     58904
     58900     58899     58902     58900     58899     58901     58901     58899     58902
     58903     58899     58902     58903     58899     58901     58903     58899     58900
     58905     58909     58910     58906     58905     58908     58906     58905     58907
     58907     58905     58908     58909     58905     58908     58909     58905     58907
     58909     58905     58906     58911     58915     58916     58912     58911     58914
     58912     58911     58913     58913     58911     58914     58915     58911     58914
     58915     58911     58913     58915     58911     58912     58917     58921     58922
     58918     58917     58920     58918     58917     58919     58919     58917     58920
     58921     58917     58920     58921     58917     58919     58921     58917     58918
     58923     58927     58928     58924     58923     58926     58924     58923     58925
     58925     58923     58926     58927     58923     58926     58927     58923     58925
     58927     58923     58924     58929     58933     58934     58930     58929     58932
     58930     58929     58931     58931     58929     58932     58933     58929     58932
     58933     58929     58931     58933     58929     58930     58935     58939     58940
     58936     58935     58938     58936     58935     58937     58937     58935     58938
     58939     58935     58938     58939     58935     58937     58939     58935     58936
     58941     58945     58946     58942     58941     58944     58942     58941     58943
     58943     58941     58944     58945     58941     58944     58945     58941     58943
     58945     58941     58942     58947     58951     58952     58948     58947     58950
     58948     58947     58949     58949     58947     58950     58951     58947     58950
     58951     58947     58949     58951     58947     58948     58953     58957     58958
     58954     58953     58956     58954     58953     58955     58955     58953     58956
     58957     58953     58956     58957     58953     58955     58957     58953     58954
     58959     58963     58964     58960     58959     58962     58960     58959     58961
     58961     58959     58962     58963     58959     58962     58963     58959     58961
     58963     58959     58960     58965     58969     58970     58966     58965     58968
     58966     58965     58967     58967     58965     58968     58969     58965     58968
     58969     58965     58967     58969     58965     58966     58971     58975     58976
     58972     58971     58974     58972     58971     58973     58973     58971     58974
     58975     58971     58974     58975     58971     58973     58975     58971     58972
     58977     58981     58982     58978     58977     58980     58978     58977     58979
     58979     58977     58980     58981     58977     58980     58981     58977     58979
     58981     58977     58978     58983     58987     58988     58984     58983     58986
     58984     58983     58985     58985     58983     58986     58987     58983     58986
     58987     58983     58985     58987     58983     58984     58989     58993     58994
     58990     58989     58992     58990     58989     58991     58991     58989     58992
     58993     58989     58992     58993     58989     58991     58993     58989     58990
     58995     58999     59000     58996     58995     58998     58996     58995     58997
     58997     58995     58998     58999     58995     58998     58999     58995     58997
     58999     58995     58996     59001     59005     59006     59002     59001     59004
     59002     59001     59003     59003     59001     59004     59005     59001     59004
     59005     59001     59003     59005     59001     59002     59007     59011     59012
     59008     59007     59010     59008     59007     59009     59009     59007     59010
     59011     59007     59010     59011     59007     59009     59011     59007     59008
     59013     59017     59018     59014     59013     59016     59014     59013     59015
     59015     59013     59016     59017     59013     59016     59017     59013     59015
     59017     59013     59014     59019     59023     59024     59020     59019     59022
     59020     59019     59021     59021     59019     59022     59023     59019     59022
     59023     59019     59021     59023     59019     59020     59025     59029     59030
     59026     59025     59028     59026     59025     59027     59027     59025     59028
     59029     59025     59028     59029     59025     59027     59029     59025     59026
     59031     59035     59036     59032     59031     59034     59032     59031     59033
     59033     59031     59034     59035     59031     59034     59035     59031     59033
     59035     59031     59032     59037     59041     59042     59038     59037     59040
     59038     59037     59039     59039     59037     59040     59041     59037     59040
     59041     59037     59039     59041     59037     59038     59043     59047     59048
     59044     59043     59046     59044     59043     59045     59045     59043     59046
     59047     59043     59046     59047     59043     59045     59047     59043     59044
     59049     59053     59054     59050     59049     59052     59050     59049     59051
     59051     59049     59052     59053     59049     59052     59053     59049     59051
     59053     59049     59050     59055     59059     59060     59056     59055     59058
     59056     59055     59057     59057     59055     59058     59059     59055     59058
     59059     59055     59057     59059     59055     59056     59061     59065     59066
     59062     59061     59064     59062     59061     59063     59063     59061     59064
     59065     59061     59064     59065     59061     59063     59065     59061     59062
     59067     59071     59072     59068     59067     59070     59068     59067     59069
     59069     59067     59070     59071     59067     59070     59071     59067     59069
     59071     59067     59068     59073     59077     59078     59074     59073     59076
     59074     59073     59075     59075     59073     59076     59077     59073     59076
     59077     59073     59075     59077     59073     59074     59079     59083     59084
     59080     59079     59082     59080     59079     59081     59081     59079     59082
     59083     59079     59082     59083     59079     59081     59083     59079     59080
     59085     59089     59090     59086     59085     59088     59086     59085     59087
     59087     59085     59088     59089     59085     59088     59089     59085     59087
     59089     59085     59086     59091     59095     59096     59092     59091     59094
     59092     59091     59093     59093     59091     59094     59095     59091     59094
     59095     59091     59093     59095     59091     59092     59097     59101     59102
     59098     59097     59100     59098     59097     59099     59099     59097     59100
     59101     59097     59100     59101     59097     59099     59101     59097     59098
     59103     59107     59108     59104     59103     59106     59104     59103     59105
     59105     59103     59106     59107     59103     59106     59107     59103     59105
     59107     59103     59104     59109     59113     59114     59110     59109     59112
     59110     59109     59111     59111     59109     59112     59113     59109     59112
     59113     59109     59111     59113     59109     59110     59115     59119     59120
     59116     59115     59118     59116     59115     59117     59117     59115     59118
     59119     59115     59118     59119     59115     59117     59119     59115     59116
     59121     59125     59126     59122     59121     59124     59122     59121     59123
     59123     59121     59124     59125     59121     59124     59125     59121     59123
     59125     59121     59122     59127     59131     59132     59128     59127     59130
     59128     59127     59129     59129     59127     59130     59131     59127     59130
     59131     59127     59129     59131     59127     59128     59133     59137     59138
     59134     59133     59136     59134     59133     59135     59135     59133     59136
     59137     59133     59136     59137     59133     59135     59137     59133     59134
     59139     59143     59144     59140     59139     59142     59140     59139     59141
     59141     59139     59142     59143     59139     59142     59143     59139     59141
     59143     59139     59140     59145     59149     59150     59146     59145     59148
     59146     59145     59147     59147     59145     59148     59149     59145     59148
     59149     59145     59147     59149     59145     59146     59151     59155     59156
     59152     59151     59154     59152     59151     59153     59153     59151     59154
     59155     59151     59154     59155     59151     59153     59155     59151     59152
     59157     59161     59162     59158     59157     59160     59158     59157     59159
     59159     59157     59160     59161     59157     59160     59161     59157     59159
     59161     59157     59158     59163     59167     59168     59164     59163     59166
     59164     59163     59165     59165     59163     59166     59167     59163     59166
     59167     59163     59165     59167     59163     59164     59169     59173     59174
     59170     59169     59172     59170     59169     59171     59171     59169     59172
     59173     59169     59172     59173     59169     59171     59173     59169     59170
     59175     59179     59180     59176     59175     59178     59176     59175     59177
     59177     59175     59178     59179     59175     59178     59179     59175     59177
     59179     59175     59176     59181     59185     59186     59182     59181     59184
     59182     59181     59183     59183     59181     59184     59185     59181     59184
     59185     59181     59183     59185     59181     59182     59187     59191     59192
     59188     59187     59190     59188     59187     59189     59189     59187     59190
     59191     59187     59190     59191     59187     59189     59191     59187     59188
     59193     59197     59198     59194     59193     59196     59194     59193     59195
     59195     59193     59196     59197     59193     59196     59197     59193     59195
     59197     59193     59194     59199     59203     59204     59200     59199     59202
     59200     59199     59201     59201     59199     59202     59203     59199     59202
     59203     59199     59201     59203     59199     59200     59205     59209     59210
     59206     59205     59208     59206     59205     59207     59207     59205     59208
     59209     59205     59208     59209     59205     59207     59209     59205     59206
     59211     59215     59216     59212     59211     59214     59212     59211     59213
     59213     59211     59214     59215     59211     59214     59215     59211     59213
     59215     59211     59212     59217     59221     59222     59218     59217     59220
     59218     59217     59219     59219     59217     59220     59221     59217     59220
     59221     59217     59219     59221     59217     59218     59223     59227     59228
     59224     59223     59226     59224     59223     59225     59225     59223     59226
     59227     59223     59226     59227     59223     59225     59227     59223     59224
     59229     59233     59234     59230     59229     59232     59230     59229     59231
     59231     59229     59232     59233     59229     59232     59233     59229     59231
     59233     59229     59230     59235     59239     59240     59236     59235     59238
     59236     59235     59237     59237     59235     59238     59239     59235     59238
     59239     59235     59237     59239     59235     59236     59241     59245     59246
     59242     59241     59244     59242     59241     59243     59243     59241     59244
     59245     59241     59244     59245     59241     59243     59245     59241     59242
     59247     59251     59252     59248     59247     59250     59248     59247     59249
     59249     59247     59250     59251     59247     59250     59251     59247     59249
     59251     59247     59248     59253     59257     59258     59254     59253     59256
     59254     59253     59255     59255     59253     59256     59257     59253     59256
     59257     59253     59255     59257     59253     59254     59259     59263     59264
     59260     59259     59262     59260     59259     59261     59261     59259     59262
     59263     59259     59262     59263     59259     59261     59263     59259     59260
     59265     59269     59270     59266     59265     59268     59266     59265     59267
     59267     59265     59268     59269     59265     59268     59269     59265     59267
     59269     59265     59266     59271     59275     59276     59272     59271     59274
     59272     59271     59273     59273     59271     59274     59275     59271     59274
     59275     59271     59273     59275     59271     59272     59277     59281     59282
     59278     59277     59280     59278     59277     59279     59279     59277     59280
     59281     59277     59280     59281     59277     59279     59281     59277     59278
     59283     59287     59288     59284     59283     59286     59284     59283     59285
     59285     59283     59286     59287     59283     59286     59287     59283     59285
     59287     59283     59284     59289     59293     59294     59290     59289     59292
     59290     59289     59291     59291     59289     59292     59293     59289     59292
     59293     59289     59291     59293     59289     59290     59295     59299     59300
     59296     59295     59298     59296     59295     59297     59297     59295     59298
     59299     59295     59298     59299     59295     59297     59299     59295     59296
     59301     59305     59306     59302     59301     59304     59302     59301     59303
     59303     59301     59304     59305     59301     59304     59305     59301     59303
     59305     59301     59302     59307     59311     59312     59308     59307     59310
     59308     59307     59309     59309     59307     59310     59311     59307     59310
     59311     59307     59309     59311     59307     59308     59313     59317     59318
     59314     59313     59316     59314     59313     59315     59315     59313     59316
     59317     59313     59316     59317     59313     59315     59317     59313     59314
     59319     59323     59324     59320     59319     59322     59320     59319     59321
     59321     59319     59322     59323     59319     59322     59323     59319     59321
     59323     59319     59320     59325     59329     59330     59326     59325     59328
     59326     59325     59327     59327     59325     59328     59329     59325     59328
     59329     59325     59327     59329     59325     59326     59331     59335     59336
     59332     59331     59334     59332     59331     59333     59333     59331     59334
     59335     59331     59334     59335     59331     59333     59335     59331     59332
     59337     59341     59342     59338     59337     59340     59338     59337     59339
     59339     59337     59340     59341     59337     59340     59341     59337     59339
     59341     59337     59338     59343     59347     59348     59344     59343     59346
     59344     59343     59345     59345     59343     59346     59347     59343     59346
     59347     59343     59345     59347     59343     59344     59349     59353     59354
     59350     59349     59352     59350     59349     59351     59351     59349     59352
     59353     59349     59352     59353     59349     59351     59353     59349     59350
     59355     59359     59360     59356     59355     59358     59356     59355     59357
     59357     59355     59358     59359     59355     59358     59359     59355     59357
     59359     59355     59356     59361     59365     59366     59362     59361     59364
     59362     59361     59363     59363     59361     59364     59365     59361     59364
     59365     59361     59363     59365     59361     59362     59367     59371     59372
     59368     59367     59370     59368     59367     59369     59369     59367     59370
     59371     59367     59370     59371     59367     59369     59371     59367     59368
     59373     59377     59378     59374     59373     59376     59374     59373     59375
     59375     59373     59376     59377     59373     59376     59377     59373     59375
     59377     59373     59374     59379     59383     59384     59380     59379     59382
     59380     59379     59381     59381     59379     59382     59383     59379     59382
     59383     59379     59381     59383     59379     59380     59385     59389     59390
     59386     59385     59388     59386     59385     59387     59387     59385     59388
     59389     59385     59388     59389     59385     59387     59389     59385     59386
     59391     59395     59396     59392     59391     59394     59392     59391     59393
     59393     59391     59394     59395     59391     59394     59395     59391     59393
     59395     59391     59392     59397     59401     59402     59398     59397     59400
     59398     59397     59399     59399     59397     59400     59401     59397     59400
     59401     59397     59399     59401     59397     59398     59403     59407     59408
     59404     59403     59406     59404     59403     59405     59405     59403     59406
     59407     59403     59406     59407     59403     59405     59407     59403     59404
     59409     59413     59414     59410     59409     59412     59410     59409     59411
     59411     59409     59412     59413     59409     59412     59413     59409     59411
     59413     59409     59410     59415     59419     59420     59416     59415     59418
     59416     59415     59417     59417     59415     59418     59419     59415     59418
     59419     59415     59417     59419     59415     59416     59421     59425     59426
     59422     59421     59424     59422     59421     59423     59423     59421     59424
     59425     59421     59424     59425     59421     59423     59425     59421     59422
     59427     59431     59432     59428     59427     59430     59428     59427     59429
     59429     59427     59430     59431     59427     59430     59431     59427     59429
     59431     59427     59428     59433     59437     59438     59434     59433     59436
     59434     59433     59435     59435     59433     59436     59437     59433     59436
     59437     59433     59435     59437     59433     59434     59439     59443     59444
     59440     59439     59442     59440     59439     59441     59441     59439     59442
     59443     59439     59442     59443     59439     59441     59443     59439     59440
     59445     59449     59450     59446     59445     59448     59446     59445     59447
     59447     59445     59448     59449     59445     59448     59449     59445     59447
     59449     59445     59446     59451     59455     59456     59452     59451     59454
     59452     59451     59453     59453     59451     59454     59455     59451     59454
     59455     59451     59453     59455     59451     59452     59457     59461     59462
     59458     59457     59460     59458     59457     59459     59459     59457     59460
     59461     59457     59460     59461     59457     59459     59461     59457     59458
     59463     59467     59468     59464     59463     59466     59464     59463     59465
     59465     59463     59466     59467     59463     59466     59467     59463     59465
     59467     59463     59464     59469     59473     59474     59470     59469     59472
     59470     59469     59471     59471     59469     59472     59473     59469     59472
     59473     59469     59471     59473     59469     59470     59475     59479     59480
     59476     59475     59478     59476     59475     59477     59477     59475     59478
     59479     59475     59478     59479     59475     59477     59479     59475     59476
     59481     59485     59486     59482     59481     59484     59482     59481     59483
     59483     59481     59484     59485     59481     59484     59485     59481     59483
     59485     59481     59482     59487     59491     59492     59488     59487     59490
     59488     59487     59489     59489     59487     59490     59491     59487     59490
     59491     59487     59489     59491     59487     59488     59493     59497     59498
     59494     59493     59496     59494     59493     59495     59495     59493     59496
     59497     59493     59496     59497     59493     59495     59497     59493     59494
     59499     59503     59504     59500     59499     59502     59500     59499     59501
     59501     59499     59502     59503     59499     59502     59503     59499     59501
     59503     59499     59500     59505     59509     59510     59506     59505     59508
     59506     59505     59507     59507     59505     59508     59509     59505     59508
     59509     59505     59507     59509     59505     59506     59511     59515     59516
     59512     59511     59514     59512     59511     59513     59513     59511     59514
     59515     59511     59514     59515     59511     59513     59515     59511     59512
     59517     59521     59522     59518     59517     59520     59518     59517     59519
     59519     59517     59520     59521     59517     59520     59521     59517     59519
     59521     59517     59518     59523     59527     59528     59524     59523     59526
     59524     59523     59525     59525     59523     59526     59527     59523     59526
     59527     59523     59525     59527     59523     59524     59529     59533     59534
     59530     59529     59532     59530     59529     59531     59531     59529     59532
     59533     59529     59532     59533     59529     59531     59533     59529     59530
     59535     59539     59540     59536     59535     59538     59536     59535     59537
     59537     59535     59538     59539     59535     59538     59539     59535     59537
     59539     59535     59536     59541     59545     59546     59542     59541     59544
     59542     59541     59543     59543     59541     59544     59545     59541     59544
     59545     59541     59543     59545     59541     59542     59547     59551     59552
     59548     59547     59550     59548     59547     59549     59549     59547     59550
     59551     59547     59550     59551     59547     59549     59551     59547     59548
     59553     59557     59558     59554     59553     59556     59554     59553     59555
     59555     59553     59556     59557     59553     59556     59557     59553     59555
     59557     59553     59554     59559     59563     59564     59560     59559     59562
     59560     59559     59561     59561     59559     59562     59563     59559     59562
     59563     59559     59561     59563     59559     59560     59565     59569     59570
     59566     59565     59568     59566     59565     59567     59567     59565     59568
     59569     59565     59568     59569     59565     59567     59569     59565     59566
     59571     59575     59576     59572     59571     59574     59572     59571     59573
     59573     59571     59574     59575     59571     59574     59575     59571     59573
     59575     59571     59572     59577     59581     59582     59578     59577     59580
     59578     59577     59579     59579     59577     59580     59581     59577     59580
     59581     59577     59579     59581     59577     59578     59583     59587     59588
     59584     59583     59586     59584     59583     59585     59585     59583     59586
     59587     59583     59586     59587     59583     59585     59587     59583     59584
     59589     59593     59594     59590     59589     59592     59590     59589     59591
     59591     59589     59592     59593     59589     59592     59593     59589     59591
     59593     59589     59590     59595     59599     59600     59596     59595     59598
     59596     59595     59597     59597     59595     59598     59599     59595     59598
     59599     59595     59597     59599     59595     59596     59601     59605     59606
     59602     59601     59604     59602     59601     59603     59603     59601     59604
     59605     59601     59604     59605     59601     59603     59605     59601     59602
     59607     59611     59612     59608     59607     59610     59608     59607     59609
     59609     59607     59610     59611     59607     59610     59611     59607     59609
     59611     59607     59608     59613     59617     59618     59614     59613     59616
     59614     59613     59615     59615     59613     59616     59617     59613     59616
     59617     59613     59615     59617     59613     59614     59619     59623     59624
     59620     59619     59622     59620     59619     59621     59621     59619     59622
     59623     59619     59622     59623     59619     59621     59623     59619     59620
     59625     59629     59630     59626     59625     59628     59626     59625     59627
     59627     59625     59628     59629     59625     59628     59629     59625     59627
     59629     59625     59626     59631     59635     59636     59632     59631     59634
     59632     59631     59633     59633     59631     59634     59635     59631     59634
     59635     59631     59633     59635     59631     59632     59637     59641     59642
     59638     59637     59640     59638     59637     59639     59639     59637     59640
     59641     59637     59640     59641     59637     59639     59641     59637     59638
     59643     59647     59648     59644     59643     59646     59644     59643     59645
     59645     59643     59646     59647     59643     59646     59647     59643     59645
     59647     59643     59644     59649     59653     59654     59650     59649     59652
     59650     59649     59651     59651     59649     59652     59653     59649     59652
     59653     59649     59651     59653     59649     59650     59655     59659     59660
     59656     59655     59658     59656     59655     59657     59657     59655     59658
     59659     59655     59658     59659     59655     59657     59659     59655     59656
     59661     59665     59666     59662     59661     59664     59662     59661     59663
     59663     59661     59664     59665     59661     59664     59665     59661     59663
     59665     59661     59662     59667     59671     59672     59668     59667     59670
     59668     59667     59669     59669     59667     59670     59671     59667     59670
     59671     59667     59669     59671     59667     59668     59673     59677     59678
     59674     59673     59676     59674     59673     59675     59675     59673     59676
     59677     59673     59676     59677     59673     59675     59677     59673     59674
     59679     59683     59684     59680     59679     59682     59680     59679     59681
     59681     59679     59682     59683     59679     59682     59683     59679     59681
     59683     59679     59680     59685     59689     59690     59686     59685     59688
     59686     59685     59687     59687     59685     59688     59689     59685     59688
     59689     59685     59687     59689     59685     59686     59691     59695     59696
     59692     59691     59694     59692     59691     59693     59693     59691     59694
     59695     59691     59694     59695     59691     59693     59695     59691     59692
     59697     59701     59702     59698     59697     59700     59698     59697     59699
     59699     59697     59700     59701     59697     59700     59701     59697     59699
     59701     59697     59698     59703     59707     59708     59704     59703     59706
     59704     59703     59705     59705     59703     59706     59707     59703     59706
     59707     59703     59705     59707     59703     59704     59709     59713     59714
     59710     59709     59712     59710     59709     59711     59711     59709     59712
     59713     59709     59712     59713     59709     59711     59713     59709     59710
     59715     59719     59720     59716     59715     59718     59716     59715     59717
     59717     59715     59718     59719     59715     59718     59719     59715     59717
     59719     59715     59716     59721     59725     59726     59722     59721     59724
     59722     59721     59723     59723     59721     59724     59725     59721     59724
     59725     59721     59723     59725     59721     59722     59727     59731     59732
     59728     59727     59730     59728     59727     59729     59729     59727     59730
     59731     59727     59730     59731     59727     59729     59731     59727     59728
     59733     59737     59738     59734     59733     59736     59734     59733     59735
     59735     59733     59736     59737     59733     59736     59737     59733     59735
     59737     59733     59734     59739     59743     59744     59740     59739     59742
     59740     59739     59741     59741     59739     59742     59743     59739     59742
     59743     59739     59741     59743     59739     59740     59745     59749     59750
     59746     59745     59748     59746     59745     59747     59747     59745     59748
     59749     59745     59748     59749     59745     59747     59749     59745     59746
     59751     59755     59756     59752     59751     59754     59752     59751     59753
     59753     59751     59754     59755     59751     59754     59755     59751     59753
     59755     59751     59752     59757     59761     59762     59758     59757     59760
     59758     59757     59759     59759     59757     59760     59761     59757     59760
     59761     59757     59759     59761     59757     59758     59763     59767     59768
     59764     59763     59766     59764     59763     59765     59765     59763     59766
     59767     59763     59766     59767     59763     59765     59767     59763     59764
     59769     59773     59774     59770     59769     59772     59770     59769     59771
     59771     59769     59772     59773     59769     59772     59773     59769     59771
     59773     59769     59770     59775     59779     59780     59776     59775     59778
     59776     59775     59777     59777     59775     59778     59779     59775     59778
     59779     59775     59777     59779     59775     59776     59781     59785     59786
     59782     59781     59784     59782     59781     59783     59783     59781     59784
     59785     59781     59784     59785     59781     59783     59785     59781     59782
     59787     59791     59792     59788     59787     59790     59788     59787     59789
     59789     59787     59790     59791     59787     59790     59791     59787     59789
     59791     59787     59788     59793     59797     59798     59794     59793     59796
     59794     59793     59795     59795     59793     59796     59797     59793     59796
     59797     59793     59795     59797     59793     59794     59799     59803     59804
     59800     59799     59802     59800     59799     59801     59801     59799     59802
     59803     59799     59802     59803     59799     59801     59803     59799     59800
     59805     59809     59810     59806     59805     59808     59806     59805     59807
     59807     59805     59808     59809     59805     59808     59809     59805     59807
     59809     59805     59806     59811     59815     59816     59812     59811     59814
     59812     59811     59813     59813     59811     59814     59815     59811     59814
     59815     59811     59813     59815     59811     59812     59817     59821     59822
     59818     59817     59820     59818     59817     59819     59819     59817     59820
     59821     59817     59820     59821     59817     59819     59821     59817     59818
     59823     59827     59828     59824     59823     59826     59824     59823     59825
     59825     59823     59826     59827     59823     59826     59827     59823     59825
     59827     59823     59824     59829     59833     59834     59830     59829     59832
     59830     59829     59831     59831     59829     59832     59833     59829     59832
     59833     59829     59831     59833     59829     59830     59835     59839     59840
     59836     59835     59838     59836     59835     59837     59837     59835     59838
     59839     59835     59838     59839     59835     59837     59839     59835     59836
     59841     59845     59846     59842     59841     59844     59842     59841     59843
     59843     59841     59844     59845     59841     59844     59845     59841     59843
     59845     59841     59842     59847     59851     59852     59848     59847     59850
     59848     59847     59849     59849     59847     59850     59851     59847     59850
     59851     59847     59849     59851     59847     59848     59853     59857     59858
     59854     59853     59856     59854     59853     59855     59855     59853     59856
     59857     59853     59856     59857     59853     59855     59857     59853     59854
     59859     59863     59864     59860     59859     59862     59860     59859     59861
     59861     59859     59862     59863     59859     59862     59863     59859     59861
     59863     59859     59860     59865     59869     59870     59866     59865     59868
     59866     59865     59867     59867     59865     59868     59869     59865     59868
     59869     59865     59867     59869     59865     59866     59871     59875     59876
     59872     59871     59874     59872     59871     59873     59873     59871     59874
     59875     59871     59874     59875     59871     59873     59875     59871     59872
     59877     59881     59882     59878     59877     59880     59878     59877     59879
     59879     59877     59880     59881     59877     59880     59881     59877     59879
     59881     59877     59878     59883     59887     59888     59884     59883     59886
     59884     59883     59885     59885     59883     59886     59887     59883     59886
     59887     59883     59885     59887     59883     59884     59889     59893     59894
     59890     59889     59892     59890     59889     59891     59891     59889     59892
     59893     59889     59892     59893     59889     59891     59893     59889     59890
     59895     59899     59900     59896     59895     59898     59896     59895     59897
     59897     59895     59898     59899     59895     59898     59899     59895     59897
     59899     59895     59896     59901     59905     59906     59902     59901     59904
     59902     59901     59903     59903     59901     59904     59905     59901     59904
     59905     59901     59903     59905     59901     59902     59907     59911     59912
     59908     59907     59910     59908     59907     59909     59909     59907     59910
     59911     59907     59910     59911     59907     59909     59911     59907     59908
     59913     59917     59918     59914     59913     59916     59914     59913     59915
     59915     59913     59916     59917     59913     59916     59917     59913     59915
     59917     59913     59914     59919     59923     59924     59920     59919     59922
     59920     59919     59921     59921     59919     59922     59923     59919     59922
     59923     59919     59921     59923     59919     59920     59925     59929     59930
     59926     59925     59928     59926     59925     59927     59927     59925     59928
     59929     59925     59928     59929     59925     59927     59929     59925     59926
     59931     59935     59936     59932     59931     59934     59932     59931     59933
     59933     59931     59934     59935     59931     59934     59935     59931     59933
     59935     59931     59932     59937     59941     59942     59938     59937     59940
     59938     59937     59939     59939     59937     59940     59941     59937     59940
     59941     59937     59939     59941     59937     59938     59943     59947     59948
     59944     59943     59946     59944     59943     59945     59945     59943     59946
     59947     59943     59946     59947     59943     59945     59947     59943     59944
     59949     59953     59954     59950     59949     59952     59950     59949     59951
     59951     59949     59952     59953     59949     59952     59953     59949     59951
     59953     59949     59950     59955     59959     59960     59956     59955     59958
     59956     59955     59957     59957     59955     59958     59959     59955     59958
     59959     59955     59957     59959     59955     59956     59961     59965     59966
     59962     59961     59964     59962     59961     59963     59963     59961     59964
     59965     59961     59964     59965     59961     59963     59965     59961     59962
     59967     59971     59972     59968     59967     59970     59968     59967     59969
     59969     59967     59970     59971     59967     59970     59971     59967     59969
     59971     59967     59968     59973     59977     59978     59974     59973     59976
     59974     59973     59975     59975     59973     59976     59977     59973     59976
     59977     59973     59975     59977     59973     59974     59979     59983     59984
     59980     59979     59982     59980     59979     59981     59981     59979     59982
     59983     59979     59982     59983     59979     59981     59983     59979     59980
     59985     59989     59990     59986     59985     59988     59986     59985     59987
     59987     59985     59988     59989     59985     59988     59989     59985     59987
     59989     59985     59986     59991     59995     59996     59992     59991     59994
     59992     59991     59993     59993     59991     59994     59995     59991     59994
     59995     59991     59993     59995     59991     59992     59997     60001     60002
     59998     59997     60000     59998     59997     59999     59999     59997     60000
     60001     59997     60000     60001     59997     59999     60001     59997     59998
     60003     60007     60008     60004     60003     60006     60004     60003     60005
     60005     60003     60006     60007     60003     60006     60007     60003     60005
     60007     60003     60004     60009     60013     60014     60010     60009     60012
     60010     60009     60011     60011     60009     60012     60013     60009     60012
     60013     60009     60011     60013     60009     60010     60015     60019     60020
     60016     60015     60018     60016     60015     60017     60017     60015     60018
     60019     60015     60018     60019     60015     60017     60019     60015     60016
     60021     60025     60026     60022     60021     60024     60022     60021     60023
     60023     60021     60024     60025     60021     60024     60025     60021     60023
     60025     60021     60022     60027     60031     60032     60028     60027     60030
     60028     60027     60029     60029     60027     60030     60031     60027     60030
     60031     60027     60029     60031     60027     60028     60033     60037     60038
     60034     60033     60036     60034     60033     60035     60035     60033     60036
     60037     60033     60036     60037     60033     60035     60037     60033     60034
     60039     60043     60044     60040     60039     60042     60040     60039     60041
     60041     60039     60042     60043     60039     60042     60043     60039     60041
     60043     60039     60040     60045     60049     60050     60046     60045     60048
     60046     60045     60047     60047     60045     60048     60049     60045     60048
     60049     60045     60047     60049     60045     60046     60051     60055     60056
     60052     60051     60054     60052     60051     60053     60053     60051     60054
     60055     60051     60054     60055     60051     60053     60055     60051     60052
     60057     60061     60062     60058     60057     60060     60058     60057     60059
     60059     60057     60060     60061     60057     60060     60061     60057     60059
     60061     60057     60058     60063     60067     60068     60064     60063     60066
     60064     60063     60065     60065     60063     60066     60067     60063     60066
     60067     60063     60065     60067     60063     60064     60069     60073     60074
     60070     60069     60072     60070     60069     60071     60071     60069     60072
     60073     60069     60072     60073     60069     60071     60073     60069     60070
     60075     60079     60080     60076     60075     60078     60076     60075     60077
     60077     60075     60078     60079     60075     60078     60079     60075     60077
     60079     60075     60076     60081     60085     60086     60082     60081     60084
     60082     60081     60083     60083     60081     60084     60085     60081     60084
     60085     60081     60083     60085     60081     60082     60087     60091     60092
     60088     60087     60090     60088     60087     60089     60089     60087     60090
     60091     60087     60090     60091     60087     60089     60091     60087     60088
     60093     60097     60098     60094     60093     60096     60094     60093     60095
     60095     60093     60096     60097     60093     60096     60097     60093     60095
     60097     60093     60094     60099     60103     60104     60100     60099     60102
     60100     60099     60101     60101     60099     60102     60103     60099     60102
     60103     60099     60101     60103     60099     60100     60105     60109     60110
     60106     60105     60108     60106     60105     60107     60107     60105     60108
     60109     60105     60108     60109     60105     60107     60109     60105     60106
     60111     60115     60116     60112     60111     60114     60112     60111     60113
     60113     60111     60114     60115     60111     60114     60115     60111     60113
     60115     60111     60112     60117     60121     60122     60118     60117     60120
     60118     60117     60119     60119     60117     60120     60121     60117     60120
     60121     60117     60119     60121     60117     60118     60123     60127     60128
     60124     60123     60126     60124     60123     60125     60125     60123     60126
     60127     60123     60126     60127     60123     60125     60127     60123     60124
     60129     60133     60134     60130     60129     60132     60130     60129     60131
     60131     60129     60132     60133     60129     60132     60133     60129     60131
     60133     60129     60130     60135     60139     60140     60136     60135     60138
     60136     60135     60137     60137     60135     60138     60139     60135     60138
     60139     60135     60137     60139     60135     60136     60141     60145     60146
     60142     60141     60144     60142     60141     60143     60143     60141     60144
     60145     60141     60144     60145     60141     60143     60145     60141     60142
     60147     60151     60152     60148     60147     60150     60148     60147     60149
     60149     60147     60150     60151     60147     60150     60151     60147     60149
     60151     60147     60148     60153     60157     60158     60154     60153     60156
     60154     60153     60155     60155     60153     60156     60157     60153     60156
     60157     60153     60155     60157     60153     60154     60159     60163     60164
     60160     60159     60162     60160     60159     60161     60161     60159     60162
     60163     60159     60162     60163     60159     60161     60163     60159     60160
     60165     60169     60170     60166     60165     60168     60166     60165     60167
     60167     60165     60168     60169     60165     60168     60169     60165     60167
     60169     60165     60166     60171     60175     60176     60172     60171     60174
     60172     60171     60173     60173     60171     60174     60175     60171     60174
     60175     60171     60173     60175     60171     60172     60177     60181     60182
     60178     60177     60180     60178     60177     60179     60179     60177     60180
     60181     60177     60180     60181     60177     60179     60181     60177     60178
     60183     60187     60188     60184     60183     60186     60184     60183     60185
     60185     60183     60186     60187     60183     60186     60187     60183     60185
     60187     60183     60184     60189     60193     60194     60190     60189     60192
     60190     60189     60191     60191     60189     60192     60193     60189     60192
     60193     60189     60191     60193     60189     60190     60195     60199     60200
     60196     60195     60198     60196     60195     60197     60197     60195     60198
     60199     60195     60198     60199     60195     60197     60199     60195     60196
     60201     60205     60206     60202     60201     60204     60202     60201     60203
     60203     60201     60204     60205     60201     60204     60205     60201     60203
     60205     60201     60202     60207     60211     60212     60208     60207     60210
     60208     60207     60209     60209     60207     60210     60211     60207     60210
     60211     60207     60209     60211     60207     60208     60213     60217     60218
     60214     60213     60216     60214     60213     60215     60215     60213     60216
     60217     60213     60216     60217     60213     60215     60217     60213     60214
     60219     60223     60224     60220     60219     60222     60220     60219     60221
     60221     60219     60222     60223     60219     60222     60223     60219     60221
     60223     60219     60220     60225     60229     60230     60226     60225     60228
     60226     60225     60227     60227     60225     60228     60229     60225     60228
     60229     60225     60227     60229     60225     60226     60231     60235     60236
     60232     60231     60234     60232     60231     60233     60233     60231     60234
     60235     60231     60234     60235     60231     60233     60235     60231     60232
     60237     60241     60242     60238     60237     60240     60238     60237     60239
     60239     60237     60240     60241     60237     60240     60241     60237     60239
     60241     60237     60238     60243     60247     60248     60244     60243     60246
     60244     60243     60245     60245     60243     60246     60247     60243     60246
     60247     60243     60245     60247     60243     60244     60249     60253     60254
     60250     60249     60252     60250     60249     60251     60251     60249     60252
     60253     60249     60252     60253     60249     60251     60253     60249     60250
     60255     60259     60260     60256     60255     60258     60256     60255     60257
     60257     60255     60258     60259     60255     60258     60259     60255     60257
     60259     60255     60256     60261     60265     60266     60262     60261     60264
     60262     60261     60263     60263     60261     60264     60265     60261     60264
     60265     60261     60263     60265     60261     60262     60267     60271     60272
     60268     60267     60270     60268     60267     60269     60269     60267     60270
     60271     60267     60270     60271     60267     60269     60271     60267     60268
     60273     60277     60278     60274     60273     60276     60274     60273     60275
     60275     60273     60276     60277     60273     60276     60277     60273     60275
     60277     60273     60274     60279     60283     60284     60280     60279     60282
     60280     60279     60281     60281     60279     60282     60283     60279     60282
     60283     60279     60281     60283     60279     60280     60285     60289     60290
     60286     60285     60288     60286     60285     60287     60287     60285     60288
     60289     60285     60288     60289     60285     60287     60289     60285     60286
     60291     60295     60296     60292     60291     60294     60292     60291     60293
     60293     60291     60294     60295     60291     60294     60295     60291     60293
     60295     60291     60292     60297     60301     60302     60298     60297     60300
     60298     60297     60299     60299     60297     60300     60301     60297     60300
     60301     60297     60299     60301     60297     60298     60303     60307     60308
     60304     60303     60306     60304     60303     60305     60305     60303     60306
     60307     60303     60306     60307     60303     60305     60307     60303     60304
     60309     60313     60314     60310     60309     60312     60310     60309     60311
     60311     60309     60312     60313     60309     60312     60313     60309     60311
     60313     60309     60310     60315     60319     60320     60316     60315     60318
     60316     60315     60317     60317     60315     60318     60319     60315     60318
     60319     60315     60317     60319     60315     60316     60321     60325     60326
     60322     60321     60324     60322     60321     60323     60323     60321     60324
     60325     60321     60324     60325     60321     60323     60325     60321     60322
     60327     60331     60332     60328     60327     60330     60328     60327     60329
     60329     60327     60330     60331     60327     60330     60331     60327     60329
     60331     60327     60328     60333     60337     60338     60334     60333     60336
     60334     60333     60335     60335     60333     60336     60337     60333     60336
     60337     60333     60335     60337     60333     60334     60339     60343     60344
     60340     60339     60342     60340     60339     60341     60341     60339     60342
     60343     60339     60342     60343     60339     60341     60343     60339     60340
     60345     60349     60350     60346     60345     60348     60346     60345     60347
     60347     60345     60348     60349     60345     60348     60349     60345     60347
     60349     60345     60346     60351     60355     60356     60352     60351     60354
     60352     60351     60353     60353     60351     60354     60355     60351     60354
     60355     60351     60353     60355     60351     60352     60357     60361     60362
     60358     60357     60360     60358     60357     60359     60359     60357     60360
     60361     60357     60360     60361     60357     60359     60361     60357     60358
     60363     60367     60368     60364     60363     60366     60364     60363     60365
     60365     60363     60366     60367     60363     60366     60367     60363     60365
     60367     60363     60364     60369     60373     60374     60370     60369     60372
     60370     60369     60371     60371     60369     60372     60373     60369     60372
     60373     60369     60371     60373     60369     60370     60375     60379     60380
     60376     60375     60378     60376     60375     60377     60377     60375     60378
     60379     60375     60378     60379     60375     60377     60379     60375     60376
     60381     60385     60386     60382     60381     60384     60382     60381     60383
     60383     60381     60384     60385     60381     60384     60385     60381     60383
     60385     60381     60382     60387     60391     60392     60388     60387     60390
     60388     60387     60389     60389     60387     60390     60391     60387     60390
     60391     60387     60389     60391     60387     60388     60393     60397     60398
     60394     60393     60396     60394     60393     60395     60395     60393     60396
     60397     60393     60396     60397     60393     60395     60397     60393     60394
     60399     60403     60404     60400     60399     60402     60400     60399     60401
     60401     60399     60402     60403     60399     60402     60403     60399     60401
     60403     60399     60400     60405     60409     60410     60406     60405     60408
     60406     60405     60407     60407     60405     60408     60409     60405     60408
     60409     60405     60407     60409     60405     60406     60411     60415     60416
     60412     60411     60414     60412     60411     60413     60413     60411     60414
     60415     60411     60414     60415     60411     60413     60415     60411     60412
     60417     60421     60422     60418     60417     60420     60418     60417     60419
     60419     60417     60420     60421     60417     60420     60421     60417     60419
     60421     60417     60418     60423     60427     60428     60424     60423     60426
     60424     60423     60425     60425     60423     60426     60427     60423     60426
     60427     60423     60425     60427     60423     60424     60429     60433     60434
     60430     60429     60432     60430     60429     60431     60431     60429     60432
     60433     60429     60432     60433     60429     60431     60433     60429     60430
     60435     60439     60440     60436     60435     60438     60436     60435     60437
     60437     60435     60438     60439     60435     60438     60439     60435     60437
     60439     60435     60436     60441     60445     60446     60442     60441     60444
     60442     60441     60443     60443     60441     60444     60445     60441     60444
     60445     60441     60443     60445     60441     60442     60447     60451     60452
     60448     60447     60450     60448     60447     60449     60449     60447     60450
     60451     60447     60450     60451     60447     60449     60451     60447     60448
     60453     60457     60458     60454     60453     60456     60454     60453     60455
     60455     60453     60456     60457     60453     60456     60457     60453     60455
     60457     60453     60454     60459     60463     60464     60460     60459     60462
     60460     60459     60461     60461     60459     60462     60463     60459     60462
     60463     60459     60461     60463     60459     60460     60465     60469     60470
     60466     60465     60468     60466     60465     60467     60467     60465     60468
     60469     60465     60468     60469     60465     60467     60469     60465     60466
     60471     60475     60476     60472     60471     60474     60472     60471     60473
     60473     60471     60474     60475     60471     60474     60475     60471     60473
     60475     60471     60472     60477     60481     60482     60478     60477     60480
     60478     60477     60479     60479     60477     60480     60481     60477     60480
     60481     60477     60479     60481     60477     60478     60483     60487     60488
     60484     60483     60486     60484     60483     60485     60485     60483     60486
     60487     60483     60486     60487     60483     60485     60487     60483     60484
     60489     60493     60494     60490     60489     60492     60490     60489     60491
     60491     60489     60492     60493     60489     60492     60493     60489     60491
     60493     60489     60490     60495     60499     60500     60496     60495     60498
     60496     60495     60497     60497     60495     60498     60499     60495     60498
     60499     60495     60497     60499     60495     60496     60501     60505     60506
     60502     60501     60504     60502     60501     60503     60503     60501     60504
     60505     60501     60504     60505     60501     60503     60505     60501     60502
     60507     60511     60512     60508     60507     60510     60508     60507     60509
     60509     60507     60510     60511     60507     60510     60511     60507     60509
     60511     60507     60508     60513     60517     60518     60514     60513     60516
     60514     60513     60515     60515     60513     60516     60517     60513     60516
     60517     60513     60515     60517     60513     60514     60519     60523     60524
     60520     60519     60522     60520     60519     60521     60521     60519     60522
     60523     60519     60522     60523     60519     60521     60523     60519     60520
     60525     60529     60530     60526     60525     60528     60526     60525     60527
     60527     60525     60528     60529     60525     60528     60529     60525     60527
     60529     60525     60526     60531     60535     60536     60532     60531     60534
     60532     60531     60533     60533     60531     60534     60535     60531     60534
     60535     60531     60533     60535     60531     60532     60537     60541     60542
     60538     60537     60540     60538     60537     60539     60539     60537     60540
     60541     60537     60540     60541     60537     60539     60541     60537     60538
     60543     60547     60548     60544     60543     60546     60544     60543     60545
     60545     60543     60546     60547     60543     60546     60547     60543     60545
     60547     60543     60544     60549     60553     60554     60550     60549     60552
     60550     60549     60551     60551     60549     60552     60553     60549     60552
     60553     60549     60551     60553     60549     60550     60555     60559     60560
     60556     60555     60558     60556     60555     60557     60557     60555     60558
     60559     60555     60558     60559     60555     60557     60559     60555     60556
     60561     60565     60566     60562     60561     60564     60562     60561     60563
     60563     60561     60564     60565     60561     60564     60565     60561     60563
     60565     60561     60562     60567     60571     60572     60568     60567     60570
     60568     60567     60569     60569     60567     60570     60571     60567     60570
     60571     60567     60569     60571     60567     60568     60573     60577     60578
     60574     60573     60576     60574     60573     60575     60575     60573     60576
     60577     60573     60576     60577     60573     60575     60577     60573     60574
     60579     60583     60584     60580     60579     60582     60580     60579     60581
     60581     60579     60582     60583     60579     60582     60583     60579     60581
     60583     60579     60580     60585     60589     60590     60586     60585     60588
     60586     60585     60587     60587     60585     60588     60589     60585     60588
     60589     60585     60587     60589     60585     60586     60591     60595     60596
     60592     60591     60594     60592     60591     60593     60593     60591     60594
     60595     60591     60594     60595     60591     60593     60595     60591     60592
     60597     60601     60602     60598     60597     60600     60598     60597     60599
     60599     60597     60600     60601     60597     60600     60601     60597     60599
     60601     60597     60598     60603     60607     60608     60604     60603     60606
     60604     60603     60605     60605     60603     60606     60607     60603     60606
     60607     60603     60605     60607     60603     60604     60609     60613     60614
     60610     60609     60612     60610     60609     60611     60611     60609     60612
     60613     60609     60612     60613     60609     60611     60613     60609     60610
     60615     60619     60620     60616     60615     60618     60616     60615     60617
     60617     60615     60618     60619     60615     60618     60619     60615     60617
     60619     60615     60616     60621     60625     60626     60622     60621     60624
     60622     60621     60623     60623     60621     60624     60625     60621     60624
     60625     60621     60623     60625     60621     60622     60627     60631     60632
     60628     60627     60630     60628     60627     60629     60629     60627     60630
     60631     60627     60630     60631     60627     60629     60631     60627     60628
     60633     60637     60638     60634     60633     60636     60634     60633     60635
     60635     60633     60636     60637     60633     60636     60637     60633     60635
     60637     60633     60634     60639     60643     60644     60640     60639     60642
     60640     60639     60641     60641     60639     60642     60643     60639     60642
     60643     60639     60641     60643     60639     60640     60645     60649     60650
     60646     60645     60648     60646     60645     60647     60647     60645     60648
     60649     60645     60648     60649     60645     60647     60649     60645     60646
     60651     60655     60656     60652     60651     60654     60652     60651     60653
     60653     60651     60654     60655     60651     60654     60655     60651     60653
     60655     60651     60652     60657     60661     60662     60658     60657     60660
     60658     60657     60659     60659     60657     60660     60661     60657     60660
     60661     60657     60659     60661     60657     60658     60663     60667     60668
     60664     60663     60666     60664     60663     60665     60665     60663     60666
     60667     60663     60666     60667     60663     60665     60667     60663     60664
     60669     60673     60674     60670     60669     60672     60670     60669     60671
     60671     60669     60672     60673     60669     60672     60673     60669     60671
     60673     60669     60670     60675     60679     60680     60676     60675     60678
     60676     60675     60677     60677     60675     60678     60679     60675     60678
     60679     60675     60677     60679     60675     60676     60681     60685     60686
     60682     60681     60684     60682     60681     60683     60683     60681     60684
     60685     60681     60684     60685     60681     60683     60685     60681     60682
     60687     60691     60692     60688     60687     60690     60688     60687     60689
     60689     60687     60690     60691     60687     60690     60691     60687     60689
     60691     60687     60688     60693     60697     60698     60694     60693     60696
     60694     60693     60695     60695     60693     60696     60697     60693     60696
     60697     60693     60695     60697     60693     60694     60699     60703     60704
     60700     60699     60702     60700     60699     60701     60701     60699     60702
     60703     60699     60702     60703     60699     60701     60703     60699     60700
     60705     60709     60710     60706     60705     60708     60706     60705     60707
     60707     60705     60708     60709     60705     60708     60709     60705     60707
     60709     60705     60706     60711     60715     60716     60712     60711     60714
     60712     60711     60713     60713     60711     60714     60715     60711     60714
     60715     60711     60713     60715     60711     60712     60717     60721     60722
     60718     60717     60720     60718     60717     60719     60719     60717     60720
     60721     60717     60720     60721     60717     60719     60721     60717     60718
     60723     60727     60728     60724     60723     60726     60724     60723     60725
     60725     60723     60726     60727     60723     60726     60727     60723     60725
     60727     60723     60724     60729     60733     60734     60730     60729     60732
     60730     60729     60731     60731     60729     60732     60733     60729     60732
     60733     60729     60731     60733     60729     60730     60735     60739     60740
     60736     60735     60738     60736     60735     60737     60737     60735     60738
     60739     60735     60738     60739     60735     60737     60739     60735     60736
     60741     60745     60746     60742     60741     60744     60742     60741     60743
     60743     60741     60744     60745     60741     60744     60745     60741     60743
     60745     60741     60742     60747     60751     60752     60748     60747     60750
     60748     60747     60749     60749     60747     60750     60751     60747     60750
     60751     60747     60749     60751     60747     60748     60753     60757     60758
     60754     60753     60756     60754     60753     60755     60755     60753     60756
     60757     60753     60756     60757     60753     60755     60757     60753     60754
     60759     60763     60764     60760     60759     60762     60760     60759     60761
     60761     60759     60762     60763     60759     60762     60763     60759     60761
     60763     60759     60760     60765     60769     60770     60766     60765     60768
     60766     60765     60767     60767     60765     60768     60769     60765     60768
     60769     60765     60767     60769     60765     60766     60771     60775     60776
     60772     60771     60774     60772     60771     60773     60773     60771     60774
     60775     60771     60774     60775     60771     60773     60775     60771     60772
     60777     60781     60782     60778     60777     60780     60778     60777     60779
     60779     60777     60780     60781     60777     60780     60781     60777     60779
     60781     60777     60778     60783     60787     60788     60784     60783     60786
     60784     60783     60785     60785     60783     60786     60787     60783     60786
     60787     60783     60785     60787     60783     60784     60789     60793     60794
     60790     60789     60792     60790     60789     60791     60791     60789     60792
     60793     60789     60792     60793     60789     60791     60793     60789     60790
     60795     60799     60800     60796     60795     60798     60796     60795     60797
     60797     60795     60798     60799     60795     60798     60799     60795     60797
     60799     60795     60796     60801     60805     60806     60802     60801     60804
     60802     60801     60803     60803     60801     60804     60805     60801     60804
     60805     60801     60803     60805     60801     60802     60807     60811     60812
     60808     60807     60810     60808     60807     60809     60809     60807     60810
     60811     60807     60810     60811     60807     60809     60811     60807     60808
     60813     60817     60818     60814     60813     60816     60814     60813     60815
     60815     60813     60816     60817     60813     60816     60817     60813     60815
     60817     60813     60814     60819     60823     60824     60820     60819     60822
     60820     60819     60821     60821     60819     60822     60823     60819     60822
     60823     60819     60821     60823     60819     60820     60825     60829     60830
     60826     60825     60828     60826     60825     60827     60827     60825     60828
     60829     60825     60828     60829     60825     60827     60829     60825     60826
     60831     60835     60836     60832     60831     60834     60832     60831     60833
     60833     60831     60834     60835     60831     60834     60835     60831     60833
     60835     60831     60832     60837     60841     60842     60838     60837     60840
     60838     60837     60839     60839     60837     60840     60841     60837     60840
     60841     60837     60839     60841     60837     60838     60843     60847     60848
     60844     60843     60846     60844     60843     60845     60845     60843     60846
     60847     60843     60846     60847     60843     60845     60847     60843     60844
     60849     60853     60854     60850     60849     60852     60850     60849     60851
     60851     60849     60852     60853     60849     60852     60853     60849     60851
     60853     60849     60850     60855     60859     60860     60856     60855     60858
     60856     60855     60857     60857     60855     60858     60859     60855     60858
     60859     60855     60857     60859     60855     60856     60861     60865     60866
     60862     60861     60864     60862     60861     60863     60863     60861     60864
     60865     60861     60864     60865     60861     60863     60865     60861     60862
     60867     60871     60872     60868     60867     60870     60868     60867     60869
     60869     60867     60870     60871     60867     60870     60871     60867     60869
     60871     60867     60868     60873     60877     60878     60874     60873     60876
     60874     60873     60875     60875     60873     60876     60877     60873     60876
     60877     60873     60875     60877     60873     60874     60879     60883     60884
     60880     60879     60882     60880     60879     60881     60881     60879     60882
     60883     60879     60882     60883     60879     60881     60883     60879     60880
     60885     60889     60890     60886     60885     60888     60886     60885     60887
     60887     60885     60888     60889     60885     60888     60889     60885     60887
     60889     60885     60886     60891     60895     60896     60892     60891     60894
     60892     60891     60893     60893     60891     60894     60895     60891     60894
     60895     60891     60893     60895     60891     60892     60897     60901     60902
     60898     60897     60900     60898     60897     60899     60899     60897     60900
     60901     60897     60900     60901     60897     60899     60901     60897     60898
     60903     60907     60908     60904     60903     60906     60904     60903     60905
     60905     60903     60906     60907     60903     60906     60907     60903     60905
     60907     60903     60904     60909     60913     60914     60910     60909     60912
     60910     60909     60911     60911     60909     60912     60913     60909     60912
     60913     60909     60911     60913     60909     60910     60915     60919     60920
     60916     60915     60918     60916     60915     60917     60917     60915     60918
     60919     60915     60918     60919     60915     60917     60919     60915     60916
     60921     60925     60926     60922     60921     60924     60922     60921     60923
     60923     60921     60924     60925     60921     60924     60925     60921     60923
     60925     60921     60922     60927     60931     60932     60928     60927     60930
     60928     60927     60929     60929     60927     60930     60931     60927     60930
     60931     60927     60929     60931     60927     60928     60933     60937     60938
     60934     60933     60936     60934     60933     60935     60935     60933     60936
     60937     60933     60936     60937     60933     60935     60937     60933     60934
     60939     60943     60944     60940     60939     60942     60940     60939     60941
     60941     60939     60942     60943     60939     60942     60943     60939     60941
     60943     60939     60940     60945     60949     60950     60946     60945     60948
     60946     60945     60947     60947     60945     60948     60949     60945     60948
     60949     60945     60947     60949     60945     60946     60951     60955     60956
     60952     60951     60954     60952     60951     60953     60953     60951     60954
     60955     60951     60954     60955     60951     60953     60955     60951     60952
     60957     60961     60962     60958     60957     60960     60958     60957     60959
     60959     60957     60960     60961     60957     60960     60961     60957     60959
     60961     60957     60958     60963     60967     60968     60964     60963     60966
     60964     60963     60965     60965     60963     60966     60967     60963     60966
     60967     60963     60965     60967     60963     60964     60969     60973     60974
     60970     60969     60972     60970     60969     60971     60971     60969     60972
     60973     60969     60972     60973     60969     60971     60973     60969     60970
     60975     60979     60980     60976     60975     60978     60976     60975     60977
     60977     60975     60978     60979     60975     60978     60979     60975     60977
     60979     60975     60976     60981     60985     60986     60982     60981     60984
     60982     60981     60983     60983     60981     60984     60985     60981     60984
     60985     60981     60983     60985     60981     60982     60987     60991     60992
     60988     60987     60990     60988     60987     60989     60989     60987     60990
     60991     60987     60990     60991     60987     60989     60991     60987     60988
     60993     60997     60998     60994     60993     60996     60994     60993     60995
     60995     60993     60996     60997     60993     60996     60997     60993     60995
     60997     60993     60994     60999     61003     61004     61000     60999     61002
     61000     60999     61001     61001     60999     61002     61003     60999     61002
     61003     60999     61001     61003     60999     61000     61005     61009     61010
     61006     61005     61008     61006     61005     61007     61007     61005     61008
     61009     61005     61008     61009     61005     61007     61009     61005     61006
     61011     61015     61016     61012     61011     61014     61012     61011     61013
     61013     61011     61014     61015     61011     61014     61015     61011     61013
     61015     61011     61012     61017     61021     61022     61018     61017     61020
     61018     61017     61019     61019     61017     61020     61021     61017     61020
     61021     61017     61019     61021     61017     61018     61023     61027     61028
     61024     61023     61026     61024     61023     61025     61025     61023     61026
     61027     61023     61026     61027     61023     61025     61027     61023     61024
     61029     61033     61034     61030     61029     61032     61030     61029     61031
     61031     61029     61032     61033     61029     61032     61033     61029     61031
     61033     61029     61030     61035     61039     61040     61036     61035     61038
     61036     61035     61037     61037     61035     61038     61039     61035     61038
     61039     61035     61037     61039     61035     61036     61041     61045     61046
     61042     61041     61044     61042     61041     61043     61043     61041     61044
     61045     61041     61044     61045     61041     61043     61045     61041     61042
     61047     61051     61052     61048     61047     61050     61048     61047     61049
     61049     61047     61050     61051     61047     61050     61051     61047     61049
     61051     61047     61048     61053     61057     61058     61054     61053     61056
     61054     61053     61055     61055     61053     61056     61057     61053     61056
     61057     61053     61055     61057     61053     61054     61059     61063     61064
     61060     61059     61062     61060     61059     61061     61061     61059     61062
     61063     61059     61062     61063     61059     61061     61063     61059     61060
     61065     61069     61070     61066     61065     61068     61066     61065     61067
     61067     61065     61068     61069     61065     61068     61069     61065     61067
     61069     61065     61066     61071     61075     61076     61072     61071     61074
     61072     61071     61073     61073     61071     61074     61075     61071     61074
     61075     61071     61073     61075     61071     61072     61077     61081     61082
     61078     61077     61080     61078     61077     61079     61079     61077     61080
     61081     61077     61080     61081     61077     61079     61081     61077     61078
     61083     61087     61088     61084     61083     61086     61084     61083     61085
     61085     61083     61086     61087     61083     61086     61087     61083     61085
     61087     61083     61084     61089     61093     61094     61090     61089     61092
     61090     61089     61091     61091     61089     61092     61093     61089     61092
     61093     61089     61091     61093     61089     61090     61095     61099     61100
     61096     61095     61098     61096     61095     61097     61097     61095     61098
     61099     61095     61098     61099     61095     61097     61099     61095     61096
     61101     61105     61106     61102     61101     61104     61102     61101     61103
     61103     61101     61104     61105     61101     61104     61105     61101     61103
     61105     61101     61102     61107     61111     61112     61108     61107     61110
     61108     61107     61109     61109     61107     61110     61111     61107     61110
     61111     61107     61109     61111     61107     61108     61113     61117     61118
     61114     61113     61116     61114     61113     61115     61115     61113     61116
     61117     61113     61116     61117     61113     61115     61117     61113     61114
     61119     61123     61124     61120     61119     61122     61120     61119     61121
     61121     61119     61122     61123     61119     61122     61123     61119     61121
     61123     61119     61120     61125     61129     61130     61126     61125     61128
     61126     61125     61127     61127     61125     61128     61129     61125     61128
     61129     61125     61127     61129     61125     61126     61131     61135     61136
     61132     61131     61134     61132     61131     61133     61133     61131     61134
     61135     61131     61134     61135     61131     61133     61135     61131     61132
     61137     61141     61142     61138     61137     61140     61138     61137     61139
     61139     61137     61140     61141     61137     61140     61141     61137     61139
     61141     61137     61138     61143     61147     61148     61144     61143     61146
     61144     61143     61145     61145     61143     61146     61147     61143     61146
     61147     61143     61145     61147     61143     61144     61149     61153     61154
     61150     61149     61152     61150     61149     61151     61151     61149     61152
     61153     61149     61152     61153     61149     61151     61153     61149     61150
     61155     61159     61160     61156     61155     61158     61156     61155     61157
     61157     61155     61158     61159     61155     61158     61159     61155     61157
     61159     61155     61156     61161     61165     61166     61162     61161     61164
     61162     61161     61163     61163     61161     61164     61165     61161     61164
     61165     61161     61163     61165     61161     61162     61167     61171     61172
     61168     61167     61170     61168     61167     61169     61169     61167     61170
     61171     61167     61170     61171     61167     61169     61171     61167     61168
     61173     61177     61178     61174     61173     61176     61174     61173     61175
     61175     61173     61176     61177     61173     61176     61177     61173     61175
     61177     61173     61174     61179     61183     61184     61180     61179     61182
     61180     61179     61181     61181     61179     61182     61183     61179     61182
     61183     61179     61181     61183     61179     61180     61185     61189     61190
     61186     61185     61188     61186     61185     61187     61187     61185     61188
     61189     61185     61188     61189     61185     61187     61189     61185     61186
     61191     61195     61196     61192     61191     61194     61192     61191     61193
     61193     61191     61194     61195     61191     61194     61195     61191     61193
     61195     61191     61192     61197     61201     61202     61198     61197     61200
     61198     61197     61199     61199     61197     61200     61201     61197     61200
     61201     61197     61199     61201     61197     61198     61203     61207     61208
     61204     61203     61206     61204     61203     61205     61205     61203     61206
     61207     61203     61206     61207     61203     61205     61207     61203     61204
     61209     61213     61214     61210     61209     61212     61210     61209     61211
     61211     61209     61212     61213     61209     61212     61213     61209     61211
     61213     61209     61210     61215     61219     61220     61216     61215     61218
     61216     61215     61217     61217     61215     61218     61219     61215     61218
     61219     61215     61217     61219     61215     61216     61221     61225     61226
     61222     61221     61224     61222     61221     61223     61223     61221     61224
     61225     61221     61224     61225     61221     61223     61225     61221     61222
     61227     61231     61232     61228     61227     61230     61228     61227     61229
     61229     61227     61230     61231     61227     61230     61231     61227     61229
     61231     61227     61228     61233     61237     61238     61234     61233     61236
     61234     61233     61235     61235     61233     61236     61237     61233     61236
     61237     61233     61235     61237     61233     61234     61239     61243     61244
     61240     61239     61242     61240     61239     61241     61241     61239     61242
     61243     61239     61242     61243     61239     61241     61243     61239     61240
     61245     61249     61250     61246     61245     61248     61246     61245     61247
     61247     61245     61248     61249     61245     61248     61249     61245     61247
     61249     61245     61246     61251     61255     61256     61252     61251     61254
     61252     61251     61253     61253     61251     61254     61255     61251     61254
     61255     61251     61253     61255     61251     61252     61257     61261     61262
     61258     61257     61260     61258     61257     61259     61259     61257     61260
     61261     61257     61260     61261     61257     61259     61261     61257     61258
     61263     61267     61268     61264     61263     61266     61264     61263     61265
     61265     61263     61266     61267     61263     61266     61267     61263     61265
     61267     61263     61264     61269     61273     61274     61270     61269     61272
     61270     61269     61271     61271     61269     61272     61273     61269     61272
     61273     61269     61271     61273     61269     61270     61275     61279     61280
     61276     61275     61278     61276     61275     61277     61277     61275     61278
     61279     61275     61278     61279     61275     61277     61279     61275     61276
     61281     61285     61286     61282     61281     61284     61282     61281     61283
     61283     61281     61284     61285     61281     61284     61285     61281     61283
     61285     61281     61282     61287     61291     61292     61288     61287     61290
     61288     61287     61289     61289     61287     61290     61291     61287     61290
     61291     61287     61289     61291     61287     61288     61293     61297     61298
     61294     61293     61296     61294     61293     61295     61295     61293     61296
     61297     61293     61296     61297     61293     61295     61297     61293     61294
     61299     61303     61304     61300     61299     61302     61300     61299     61301
     61301     61299     61302     61303     61299     61302     61303     61299     61301
     61303     61299     61300     61305     61309     61310     61306     61305     61308
     61306     61305     61307     61307     61305     61308     61309     61305     61308
     61309     61305     61307     61309     61305     61306     61311     61315     61316
     61312     61311     61314     61312     61311     61313     61313     61311     61314
     61315     61311     61314     61315     61311     61313     61315     61311     61312
     61317     61321     61322     61318     61317     61320     61318     61317     61319
     61319     61317     61320     61321     61317     61320     61321     61317     61319
     61321     61317     61318     61323     61327     61328     61324     61323     61326
     61324     61323     61325     61325     61323     61326     61327     61323     61326
     61327     61323     61325     61327     61323     61324     61329     61333     61334
     61330     61329     61332     61330     61329     61331     61331     61329     61332
     61333     61329     61332     61333     61329     61331     61333     61329     61330
     61335     61339     61340     61336     61335     61338     61336     61335     61337
     61337     61335     61338     61339     61335     61338     61339     61335     61337
     61339     61335     61336     61341     61345     61346     61342     61341     61344
     61342     61341     61343     61343     61341     61344     61345     61341     61344
     61345     61341     61343     61345     61341     61342     61347     61351     61352
     61348     61347     61350     61348     61347     61349     61349     61347     61350
     61351     61347     61350     61351     61347     61349     61351     61347     61348
     61353     61357     61358     61354     61353     61356     61354     61353     61355
     61355     61353     61356     61357     61353     61356     61357     61353     61355
     61357     61353     61354     61359     61363     61364     61360     61359     61362
     61360     61359     61361     61361     61359     61362     61363     61359     61362
     61363     61359     61361     61363     61359     61360     61365     61369     61370
     61366     61365     61368     61366     61365     61367     61367     61365     61368
     61369     61365     61368     61369     61365     61367     61369     61365     61366
     61371     61375     61376     61372     61371     61374     61372     61371     61373
     61373     61371     61374     61375     61371     61374     61375     61371     61373
     61375     61371     61372     61377     61381     61382     61378     61377     61380
     61378     61377     61379     61379     61377     61380     61381     61377     61380
     61381     61377     61379     61381     61377     61378     61383     61387     61388
     61384     61383     61386     61384     61383     61385     61385     61383     61386
     61387     61383     61386     61387     61383     61385     61387     61383     61384
     61389     61393     61394     61390     61389     61392     61390     61389     61391
     61391     61389     61392     61393     61389     61392     61393     61389     61391
     61393     61389     61390     61395     61399     61400     61396     61395     61398
     61396     61395     61397     61397     61395     61398     61399     61395     61398
     61399     61395     61397     61399     61395     61396     61401     61405     61406
     61402     61401     61404     61402     61401     61403     61403     61401     61404
     61405     61401     61404     61405     61401     61403     61405     61401     61402
     61407     61411     61412     61408     61407     61410     61408     61407     61409
     61409     61407     61410     61411     61407     61410     61411     61407     61409
     61411     61407     61408     61413     61417     61418     61414     61413     61416
     61414     61413     61415     61415     61413     61416     61417     61413     61416
     61417     61413     61415     61417     61413     61414     61419     61423     61424
     61420     61419     61422     61420     61419     61421     61421     61419     61422
     61423     61419     61422     61423     61419     61421     61423     61419     61420
     61425     61429     61430     61426     61425     61428     61426     61425     61427
     61427     61425     61428     61429     61425     61428     61429     61425     61427
     61429     61425     61426     61431     61435     61436     61432     61431     61434
     61432     61431     61433     61433     61431     61434     61435     61431     61434
     61435     61431     61433     61435     61431     61432     61437     61441     61442
     61438     61437     61440     61438     61437     61439     61439     61437     61440
     61441     61437     61440     61441     61437     61439     61441     61437     61438
     61443     61447     61448     61444     61443     61446     61444     61443     61445
     61445     61443     61446     61447     61443     61446     61447     61443     61445
     61447     61443     61444     61449     61453     61454     61450     61449     61452
     61450     61449     61451     61451     61449     61452     61453     61449     61452
     61453     61449     61451     61453     61449     61450     61455     61459     61460
     61456     61455     61458     61456     61455     61457     61457     61455     61458
     61459     61455     61458     61459     61455     61457     61459     61455     61456
     61461     61465     61466     61462     61461     61464     61462     61461     61463
     61463     61461     61464     61465     61461     61464     61465     61461     61463
     61465     61461     61462     61467     61471     61472     61468     61467     61470
     61468     61467     61469     61469     61467     61470     61471     61467     61470
     61471     61467     61469     61471     61467     61468     61473     61477     61478
     61474     61473     61476     61474     61473     61475     61475     61473     61476
     61477     61473     61476     61477     61473     61475     61477     61473     61474
     61479     61483     61484     61480     61479     61482     61480     61479     61481
     61481     61479     61482     61483     61479     61482     61483     61479     61481
     61483     61479     61480     61485     61489     61490     61486     61485     61488
     61486     61485     61487     61487     61485     61488     61489     61485     61488
     61489     61485     61487     61489     61485     61486     61491     61495     61496
     61492     61491     61494     61492     61491     61493     61493     61491     61494
     61495     61491     61494     61495     61491     61493     61495     61491     61492
     61497     61501     61502     61498     61497     61500     61498     61497     61499
     61499     61497     61500     61501     61497     61500     61501     61497     61499
     61501     61497     61498     61503     61507     61508     61504     61503     61506
     61504     61503     61505     61505     61503     61506     61507     61503     61506
     61507     61503     61505     61507     61503     61504     61509     61513     61514
     61510     61509     61512     61510     61509     61511     61511     61509     61512
     61513     61509     61512     61513     61509     61511     61513     61509     61510
     61515     61519     61520     61516     61515     61518     61516     61515     61517
     61517     61515     61518     61519     61515     61518     61519     61515     61517
     61519     61515     61516     61521     61525     61526     61522     61521     61524
     61522     61521     61523     61523     61521     61524     61525     61521     61524
     61525     61521     61523     61525     61521     61522     61527     61531     61532
     61528     61527     61530     61528     61527     61529     61529     61527     61530
     61531     61527     61530     61531     61527     61529     61531     61527     61528
     61533     61537     61538     61534     61533     61536     61534     61533     61535
     61535     61533     61536     61537     61533     61536     61537     61533     61535
     61537     61533     61534     61539     61543     61544     61540     61539     61542
     61540     61539     61541     61541     61539     61542     61543     61539     61542
     61543     61539     61541     61543     61539     61540     61545     61549     61550
     61546     61545     61548     61546     61545     61547     61547     61545     61548
     61549     61545     61548     61549     61545     61547     61549     61545     61546
     61551     61555     61556     61552     61551     61554     61552     61551     61553
     61553     61551     61554     61555     61551     61554     61555     61551     61553
     61555     61551     61552     61557     61561     61562     61558     61557     61560
     61558     61557     61559     61559     61557     61560     61561     61557     61560
     61561     61557     61559     61561     61557     61558     61563     61567     61568
     61564     61563     61566     61564     61563     61565     61565     61563     61566
     61567     61563     61566     61567     61563     61565     61567     61563     61564
     61569     61573     61574     61570     61569     61572     61570     61569     61571
     61571     61569     61572     61573     61569     61572     61573     61569     61571
     61573     61569     61570     61575     61579     61580     61576     61575     61578
     61576     61575     61577     61577     61575     61578     61579     61575     61578
     61579     61575     61577     61579     61575     61576     61581     61585     61586
     61582     61581     61584     61582     61581     61583     61583     61581     61584
     61585     61581     61584     61585     61581     61583     61585     61581     61582
     61587     61591     61592     61588     61587     61590     61588     61587     61589
     61589     61587     61590     61591     61587     61590     61591     61587     61589
     61591     61587     61588     61593     61597     61598     61594     61593     61596
     61594     61593     61595     61595     61593     61596     61597     61593     61596
     61597     61593     61595     61597     61593     61594     61599     61603     61604
     61600     61599     61602     61600     61599     61601     61601     61599     61602
     61603     61599     61602     61603     61599     61601     61603     61599     61600
     61605     61609     61610     61606     61605     61608     61606     61605     61607
     61607     61605     61608     61609     61605     61608     61609     61605     61607
     61609     61605     61606     61611     61615     61616     61612     61611     61614
     61612     61611     61613     61613     61611     61614     61615     61611     61614
     61615     61611     61613     61615     61611     61612     61617     61621     61622
     61618     61617     61620     61618     61617     61619     61619     61617     61620
     61621     61617     61620     61621     61617     61619     61621     61617     61618
     61623     61627     61628     61624     61623     61626     61624     61623     61625
     61625     61623     61626     61627     61623     61626     61627     61623     61625
     61627     61623     61624     61629     61633     61634     61630     61629     61632
     61630     61629     61631     61631     61629     61632     61633     61629     61632
     61633     61629     61631     61633     61629     61630     61635     61639     61640
     61636     61635     61638     61636     61635     61637     61637     61635     61638
     61639     61635     61638     61639     61635     61637     61639     61635     61636
     61641     61645     61646     61642     61641     61644     61642     61641     61643
     61643     61641     61644     61645     61641     61644     61645     61641     61643
     61645     61641     61642     61647     61651     61652     61648     61647     61650
     61648     61647     61649     61649     61647     61650     61651     61647     61650
     61651     61647     61649     61651     61647     61648     61653     61657     61658
     61654     61653     61656     61654     61653     61655     61655     61653     61656
     61657     61653     61656     61657     61653     61655     61657     61653     61654
     61659     61663     61664     61660     61659     61662     61660     61659     61661
     61661     61659     61662     61663     61659     61662     61663     61659     61661
     61663     61659     61660     61665     61669     61670     61666     61665     61668
     61666     61665     61667     61667     61665     61668     61669     61665     61668
     61669     61665     61667     61669     61665     61666     61671     61675     61676
     61672     61671     61674     61672     61671     61673     61673     61671     61674
     61675     61671     61674     61675     61671     61673     61675     61671     61672
     61677     61681     61682     61678     61677     61680     61678     61677     61679
     61679     61677     61680     61681     61677     61680     61681     61677     61679
     61681     61677     61678     61683     61687     61688     61684     61683     61686
     61684     61683     61685     61685     61683     61686     61687     61683     61686
     61687     61683     61685     61687     61683     61684     61689     61693     61694
     61690     61689     61692     61690     61689     61691     61691     61689     61692
     61693     61689     61692     61693     61689     61691     61693     61689     61690
     61695     61699     61700     61696     61695     61698     61696     61695     61697
     61697     61695     61698     61699     61695     61698     61699     61695     61697
     61699     61695     61696     61701     61705     61706     61702     61701     61704
     61702     61701     61703     61703     61701     61704     61705     61701     61704
     61705     61701     61703     61705     61701     61702     61707     61711     61712
     61708     61707     61710     61708     61707     61709     61709     61707     61710
     61711     61707     61710     61711     61707     61709     61711     61707     61708
     61713     61717     61718     61714     61713     61716     61714     61713     61715
     61715     61713     61716     61717     61713     61716     61717     61713     61715
     61717     61713     61714     61719     61723     61724     61720     61719     61722
     61720     61719     61721     61721     61719     61722     61723     61719     61722
     61723     61719     61721     61723     61719     61720     61725     61729     61730
     61726     61725     61728     61726     61725     61727     61727     61725     61728
     61729     61725     61728     61729     61725     61727     61729     61725     61726
     61731     61735     61736     61732     61731     61734     61732     61731     61733
     61733     61731     61734     61735     61731     61734     61735     61731     61733
     61735     61731     61732     61737     61741     61742     61738     61737     61740
     61738     61737     61739     61739     61737     61740     61741     61737     61740
     61741     61737     61739     61741     61737     61738     61743     61747     61748
     61744     61743     61746     61744     61743     61745     61745     61743     61746
     61747     61743     61746     61747     61743     61745     61747     61743     61744
     61749     61753     61754     61750     61749     61752     61750     61749     61751
     61751     61749     61752     61753     61749     61752     61753     61749     61751
     61753     61749     61750     61755     61759     61760     61756     61755     61758
     61756     61755     61757     61757     61755     61758     61759     61755     61758
     61759     61755     61757     61759     61755     61756     61761     61765     61766
     61762     61761     61764     61762     61761     61763     61763     61761     61764
     61765     61761     61764     61765     61761     61763     61765     61761     61762
     61767     61771     61772     61768     61767     61770     61768     61767     61769
     61769     61767     61770     61771     61767     61770     61771     61767     61769
     61771     61767     61768     61773     61777     61778     61774     61773     61776
     61774     61773     61775     61775     61773     61776     61777     61773     61776
     61777     61773     61775     61777     61773     61774     61779     61783     61784
     61780     61779     61782     61780     61779     61781     61781     61779     61782
     61783     61779     61782     61783     61779     61781     61783     61779     61780
     61785     61789     61790     61786     61785     61788     61786     61785     61787
     61787     61785     61788     61789     61785     61788     61789     61785     61787
     61789     61785     61786     61791     61795     61796     61792     61791     61794
     61792     61791     61793     61793     61791     61794     61795     61791     61794
     61795     61791     61793     61795     61791     61792     61797     61801     61802
     61798     61797     61800     61798     61797     61799     61799     61797     61800
     61801     61797     61800     61801     61797     61799     61801     61797     61798
     61803     61807     61808     61804     61803     61806     61804     61803     61805
     61805     61803     61806     61807     61803     61806     61807     61803     61805
     61807     61803     61804     61809     61813     61814     61810     61809     61812
     61810     61809     61811     61811     61809     61812     61813     61809     61812
     61813     61809     61811     61813     61809     61810     61815     61819     61820
     61816     61815     61818     61816     61815     61817     61817     61815     61818
     61819     61815     61818     61819     61815     61817     61819     61815     61816
     61821     61825     61826     61822     61821     61824     61822     61821     61823
     61823     61821     61824     61825     61821     61824     61825     61821     61823
     61825     61821     61822     61827     61831     61832     61828     61827     61830
     61828     61827     61829     61829     61827     61830     61831     61827     61830
     61831     61827     61829     61831     61827     61828     61833     61837     61838
     61834     61833     61836     61834     61833     61835     61835     61833     61836
     61837     61833     61836     61837     61833     61835     61837     61833     61834
     61839     61843     61844     61840     61839     61842     61840     61839     61841
     61841     61839     61842     61843     61839     61842     61843     61839     61841
     61843     61839     61840     61845     61849     61850     61846     61845     61848
     61846     61845     61847     61847     61845     61848     61849     61845     61848
     61849     61845     61847     61849     61845     61846     61851     61855     61856
     61852     61851     61854     61852     61851     61853     61853     61851     61854
     61855     61851     61854     61855     61851     61853     61855     61851     61852
     61857     61861     61862     61858     61857     61860     61858     61857     61859
     61859     61857     61860     61861     61857     61860     61861     61857     61859
     61861     61857     61858     61863     61867     61868     61864     61863     61866
     61864     61863     61865     61865     61863     61866     61867     61863     61866
     61867     61863     61865     61867     61863     61864     61869     61873     61874
     61870     61869     61872     61870     61869     61871     61871     61869     61872
     61873     61869     61872     61873     61869     61871     61873     61869     61870
     61875     61879     61880     61876     61875     61878     61876     61875     61877
     61877     61875     61878     61879     61875     61878     61879     61875     61877
     61879     61875     61876     61881     61885     61886     61882     61881     61884
     61882     61881     61883     61883     61881     61884     61885     61881     61884
     61885     61881     61883     61885     61881     61882     61887     61891     61892
     61888     61887     61890     61888     61887     61889     61889     61887     61890
     61891     61887     61890     61891     61887     61889     61891     61887     61888
     61893     61897     61898     61894     61893     61896     61894     61893     61895
     61895     61893     61896     61897     61893     61896     61897     61893     61895
     61897     61893     61894     61899     61903     61904     61900     61899     61902
     61900     61899     61901     61901     61899     61902     61903     61899     61902
     61903     61899     61901     61903     61899     61900     61905     61909     61910
     61906     61905     61908     61906     61905     61907     61907     61905     61908
     61909     61905     61908     61909     61905     61907     61909     61905     61906
     61911     61915     61916     61912     61911     61914     61912     61911     61913
     61913     61911     61914     61915     61911     61914     61915     61911     61913
     61915     61911     61912     61917     61921     61922     61918     61917     61920
     61918     61917     61919     61919     61917     61920     61921     61917     61920
     61921     61917     61919     61921     61917     61918     61923     61927     61928
     61924     61923     61926     61924     61923     61925     61925     61923     61926
     61927     61923     61926     61927     61923     61925     61927     61923     61924
     61929     61933     61934     61930     61929     61932     61930     61929     61931
     61931     61929     61932     61933     61929     61932     61933     61929     61931
     61933     61929     61930     61935     61939     61940     61936     61935     61938
     61936     61935     61937     61937     61935     61938     61939     61935     61938
     61939     61935     61937     61939     61935     61936     61941     61945     61946
     61942     61941     61944     61942     61941     61943     61943     61941     61944
     61945     61941     61944     61945     61941     61943     61945     61941     61942
     61947     61951     61952     61948     61947     61950     61948     61947     61949
     61949     61947     61950     61951     61947     61950     61951     61947     61949
     61951     61947     61948     61953     61957     61958     61954     61953     61956
     61954     61953     61955     61955     61953     61956     61957     61953     61956
     61957     61953     61955     61957     61953     61954     61959     61963     61964
     61960     61959     61962     61960     61959     61961     61961     61959     61962
     61963     61959     61962     61963     61959     61961     61963     61959     61960
     61965     61969     61970     61966     61965     61968     61966     61965     61967
     61967     61965     61968     61969     61965     61968     61969     61965     61967
     61969     61965     61966     61971     61975     61976     61972     61971     61974
     61972     61971     61973     61973     61971     61974     61975     61971     61974
     61975     61971     61973     61975     61971     61972     61977     61981     61982
     61978     61977     61980     61978     61977     61979     61979     61977     61980
     61981     61977     61980     61981     61977     61979     61981     61977     61978
     61983     61987     61988     61984     61983     61986     61984     61983     61985
     61985     61983     61986     61987     61983     61986     61987     61983     61985
     61987     61983     61984     61989     61993     61994     61990     61989     61992
     61990     61989     61991     61991     61989     61992     61993     61989     61992
     61993     61989     61991     61993     61989     61990     61995     61999     62000
     61996     61995     61998     61996     61995     61997     61997     61995     61998
     61999     61995     61998     61999     61995     61997     61999     61995     61996
     62001     62005     62006     62002     62001     62004     62002     62001     62003
     62003     62001     62004     62005     62001     62004     62005     62001     62003
     62005     62001     62002     62007     62011     62012     62008     62007     62010
     62008     62007     62009     62009     62007     62010     62011     62007     62010
     62011     62007     62009     62011     62007     62008     62013     62017     62018
     62014     62013     62016     62014     62013     62015     62015     62013     62016
     62017     62013     62016     62017     62013     62015     62017     62013     62014
     62019     62023     62024     62020     62019     62022     62020     62019     62021
     62021     62019     62022     62023     62019     62022     62023     62019     62021
     62023     62019     62020     62025     62029     62030     62026     62025     62028
     62026     62025     62027     62027     62025     62028     62029     62025     62028
     62029     62025     62027     62029     62025     62026     62031     62035     62036
     62032     62031     62034     62032     62031     62033     62033     62031     62034
     62035     62031     62034     62035     62031     62033     62035     62031     62032
     62037     62041     62042     62038     62037     62040     62038     62037     62039
     62039     62037     62040     62041     62037     62040     62041     62037     62039
     62041     62037     62038     62043     62047     62048     62044     62043     62046
     62044     62043     62045     62045     62043     62046     62047     62043     62046
     62047     62043     62045     62047     62043     62044     62049     62053     62054
     62050     62049     62052     62050     62049     62051     62051     62049     62052
     62053     62049     62052     62053     62049     62051     62053     62049     62050
     62055     62059     62060     62056     62055     62058     62056     62055     62057
     62057     62055     62058     62059     62055     62058     62059     62055     62057
     62059     62055     62056     62061     62065     62066     62062     62061     62064
     62062     62061     62063     62063     62061     62064     62065     62061     62064
     62065     62061     62063     62065     62061     62062     62067     62071     62072
     62068     62067     62070     62068     62067     62069     62069     62067     62070
     62071     62067     62070     62071     62067     62069     62071     62067     62068
     62073     62077     62078     62074     62073     62076     62074     62073     62075
     62075     62073     62076     62077     62073     62076     62077     62073     62075
     62077     62073     62074     62079     62083     62084     62080     62079     62082
     62080     62079     62081     62081     62079     62082     62083     62079     62082
     62083     62079     62081     62083     62079     62080     62085     62089     62090
     62086     62085     62088     62086     62085     62087     62087     62085     62088
     62089     62085     62088     62089     62085     62087     62089     62085     62086
     62091     62095     62096     62092     62091     62094     62092     62091     62093
     62093     62091     62094     62095     62091     62094     62095     62091     62093
     62095     62091     62092     62097     62101     62102     62098     62097     62100
     62098     62097     62099     62099     62097     62100     62101     62097     62100
     62101     62097     62099     62101     62097     62098     62103     62107     62108
     62104     62103     62106     62104     62103     62105     62105     62103     62106
     62107     62103     62106     62107     62103     62105     62107     62103     62104
     62109     62113     62114     62110     62109     62112     62110     62109     62111
     62111     62109     62112     62113     62109     62112     62113     62109     62111
     62113     62109     62110     62115     62119     62120     62116     62115     62118
     62116     62115     62117     62117     62115     62118     62119     62115     62118
     62119     62115     62117     62119     62115     62116     62121     62125     62126
     62122     62121     62124     62122     62121     62123     62123     62121     62124
     62125     62121     62124     62125     62121     62123     62125     62121     62122
     62127     62131     62132     62128     62127     62130     62128     62127     62129
     62129     62127     62130     62131     62127     62130     62131     62127     62129
     62131     62127     62128     62133     62137     62138     62134     62133     62136
     62134     62133     62135     62135     62133     62136     62137     62133     62136
     62137     62133     62135     62137     62133     62134     62139     62143     62144
     62140     62139     62142     62140     62139     62141     62141     62139     62142
     62143     62139     62142     62143     62139     62141     62143     62139     62140
     62145     62149     62150     62146     62145     62148     62146     62145     62147
     62147     62145     62148     62149     62145     62148     62149     62145     62147
     62149     62145     62146     62151     62155     62156     62152     62151     62154
     62152     62151     62153     62153     62151     62154     62155     62151     62154
     62155     62151     62153     62155     62151     62152     62157     62161     62162
     62158     62157     62160     62158     62157     62159     62159     62157     62160
     62161     62157     62160     62161     62157     62159     62161     62157     62158
     62163     62167     62168     62164     62163     62166     62164     62163     62165
     62165     62163     62166     62167     62163     62166     62167     62163     62165
     62167     62163     62164     62169     62173     62174     62170     62169     62172
     62170     62169     62171     62171     62169     62172     62173     62169     62172
     62173     62169     62171     62173     62169     62170     62175     62179     62180
     62176     62175     62178     62176     62175     62177     62177     62175     62178
     62179     62175     62178     62179     62175     62177     62179     62175     62176
     62181     62185     62186     62182     62181     62184     62182     62181     62183
     62183     62181     62184     62185     62181     62184     62185     62181     62183
     62185     62181     62182     62187     62191     62192     62188     62187     62190
     62188     62187     62189     62189     62187     62190     62191     62187     62190
     62191     62187     62189     62191     62187     62188     62193     62197     62198
     62194     62193     62196     62194     62193     62195     62195     62193     62196
     62197     62193     62196     62197     62193     62195     62197     62193     62194
     62199     62203     62204     62200     62199     62202     62200     62199     62201
     62201     62199     62202     62203     62199     62202     62203     62199     62201
     62203     62199     62200     62205     62209     62210     62206     62205     62208
     62206     62205     62207     62207     62205     62208     62209     62205     62208
     62209     62205     62207     62209     62205     62206     62211     62215     62216
     62212     62211     62214     62212     62211     62213     62213     62211     62214
     62215     62211     62214     62215     62211     62213     62215     62211     62212
     62217     62221     62222     62218     62217     62220     62218     62217     62219
     62219     62217     62220     62221     62217     62220     62221     62217     62219
     62221     62217     62218     62223     62227     62228     62224     62223     62226
     62224     62223     62225     62225     62223     62226     62227     62223     62226
     62227     62223     62225     62227     62223     62224     62229     62233     62234
     62230     62229     62232     62230     62229     62231     62231     62229     62232
     62233     62229     62232     62233     62229     62231     62233     62229     62230
     62235     62239     62240     62236     62235     62238     62236     62235     62237
     62237     62235     62238     62239     62235     62238     62239     62235     62237
     62239     62235     62236     62241     62245     62246     62242     62241     62244
     62242     62241     62243     62243     62241     62244     62245     62241     62244
     62245     62241     62243     62245     62241     62242     62247     62251     62252
     62248     62247     62250     62248     62247     62249     62249     62247     62250
     62251     62247     62250     62251     62247     62249     62251     62247     62248
     62253     62257     62258     62254     62253     62256     62254     62253     62255
     62255     62253     62256     62257     62253     62256     62257     62253     62255
     62257     62253     62254     62259     62263     62264     62260     62259     62262
     62260     62259     62261     62261     62259     62262     62263     62259     62262
     62263     62259     62261     62263     62259     62260     62265     62269     62270
     62266     62265     62268     62266     62265     62267     62267     62265     62268
     62269     62265     62268     62269     62265     62267     62269     62265     62266
     62271     62275     62276     62272     62271     62274     62272     62271     62273
     62273     62271     62274     62275     62271     62274     62275     62271     62273
     62275     62271     62272     62277     62281     62282     62278     62277     62280
     62278     62277     62279     62279     62277     62280     62281     62277     62280
     62281     62277     62279     62281     62277     62278     62283     62287     62288
     62284     62283     62286     62284     62283     62285     62285     62283     62286
     62287     62283     62286     62287     62283     62285     62287     62283     62284
     62289     62293     62294     62290     62289     62292     62290     62289     62291
     62291     62289     62292     62293     62289     62292     62293     62289     62291
     62293     62289     62290     62295     62299     62300     62296     62295     62298
     62296     62295     62297     62297     62295     62298     62299     62295     62298
     62299     62295     62297     62299     62295     62296     62301     62305     62306
     62302     62301     62304     62302     62301     62303     62303     62301     62304
     62305     62301     62304     62305     62301     62303     62305     62301     62302
     62307     62311     62312     62308     62307     62310     62308     62307     62309
     62309     62307     62310     62311     62307     62310     62311     62307     62309
     62311     62307     62308     62313     62317     62318     62314     62313     62316
     62314     62313     62315     62315     62313     62316     62317     62313     62316
     62317     62313     62315     62317     62313     62314     62319     62323     62324
     62320     62319     62322     62320     62319     62321     62321     62319     62322
     62323     62319     62322     62323     62319     62321     62323     62319     62320
     62325     62329     62330     62326     62325     62328     62326     62325     62327
     62327     62325     62328     62329     62325     62328     62329     62325     62327
     62329     62325     62326     62331     62335     62336     62332     62331     62334
     62332     62331     62333     62333     62331     62334     62335     62331     62334
     62335     62331     62333     62335     62331     62332     62337     62341     62342
     62338     62337     62340     62338     62337     62339     62339     62337     62340
     62341     62337     62340     62341     62337     62339     62341     62337     62338
     62343     62347     62348     62344     62343     62346     62344     62343     62345
     62345     62343     62346     62347     62343     62346     62347     62343     62345
     62347     62343     62344     62349     62353     62354     62350     62349     62352
     62350     62349     62351     62351     62349     62352     62353     62349     62352
     62353     62349     62351     62353     62349     62350     62355     62359     62360
     62356     62355     62358     62356     62355     62357     62357     62355     62358
     62359     62355     62358     62359     62355     62357     62359     62355     62356
     62361     62365     62366     62362     62361     62364     62362     62361     62363
     62363     62361     62364     62365     62361     62364     62365     62361     62363
     62365     62361     62362     62367     62371     62372     62368     62367     62370
     62368     62367     62369     62369     62367     62370     62371     62367     62370
     62371     62367     62369     62371     62367     62368     62373     62377     62378
     62374     62373     62376     62374     62373     62375     62375     62373     62376
     62377     62373     62376     62377     62373     62375     62377     62373     62374
     62379     62383     62384     62380     62379     62382     62380     62379     62381
     62381     62379     62382     62383     62379     62382     62383     62379     62381
     62383     62379     62380     62385     62389     62390     62386     62385     62388
     62386     62385     62387     62387     62385     62388     62389     62385     62388
     62389     62385     62387     62389     62385     62386     62391     62395     62396
     62392     62391     62394     62392     62391     62393     62393     62391     62394
     62395     62391     62394     62395     62391     62393     62395     62391     62392
     62397     62401     62402     62398     62397     62400     62398     62397     62399
     62399     62397     62400     62401     62397     62400     62401     62397     62399
     62401     62397     62398     62403     62407     62408     62404     62403     62406
     62404     62403     62405     62405     62403     62406     62407     62403     62406
     62407     62403     62405     62407     62403     62404     62409     62413     62414
     62410     62409     62412     62410     62409     62411     62411     62409     62412
     62413     62409     62412     62413     62409     62411     62413     62409     62410
     62415     62419     62420     62416     62415     62418     62416     62415     62417
     62417     62415     62418     62419     62415     62418     62419     62415     62417
     62419     62415     62416     62421     62425     62426     62422     62421     62424
     62422     62421     62423     62423     62421     62424     62425     62421     62424
     62425     62421     62423     62425     62421     62422     62427     62431     62432
     62428     62427     62430     62428     62427     62429     62429     62427     62430
     62431     62427     62430     62431     62427     62429     62431     62427     62428
     62433     62437     62438     62434     62433     62436     62434     62433     62435
     62435     62433     62436     62437     62433     62436     62437     62433     62435
     62437     62433     62434     62439     62443     62444     62440     62439     62442
     62440     62439     62441     62441     62439     62442     62443     62439     62442
     62443     62439     62441     62443     62439     62440     62445     62449     62450
     62446     62445     62448     62446     62445     62447     62447     62445     62448
     62449     62445     62448     62449     62445     62447     62449     62445     62446
     62451     62455     62456     62452     62451     62454     62452     62451     62453
     62453     62451     62454     62455     62451     62454     62455     62451     62453
     62455     62451     62452     62457     62461     62462     62458     62457     62460
     62458     62457     62459     62459     62457     62460     62461     62457     62460
     62461     62457     62459     62461     62457     62458     62463     62467     62468
     62464     62463     62466     62464     62463     62465     62465     62463     62466
     62467     62463     62466     62467     62463     62465     62467     62463     62464
     62469     62473     62474     62470     62469     62472     62470     62469     62471
     62471     62469     62472     62473     62469     62472     62473     62469     62471
     62473     62469     62470     62475     62479     62480     62476     62475     62478
     62476     62475     62477     62477     62475     62478     62479     62475     62478
     62479     62475     62477     62479     62475     62476     62481     62485     62486
     62482     62481     62484     62482     62481     62483     62483     62481     62484
     62485     62481     62484     62485     62481     62483     62485     62481     62482
     62487     62491     62492     62488     62487     62490     62488     62487     62489
     62489     62487     62490     62491     62487     62490     62491     62487     62489
     62491     62487     62488     62493     62497     62498     62494     62493     62496
     62494     62493     62495     62495     62493     62496     62497     62493     62496
     62497     62493     62495     62497     62493     62494     62499     62503     62504
     62500     62499     62502     62500     62499     62501     62501     62499     62502
     62503     62499     62502     62503     62499     62501     62503     62499     62500
     62505     62509     62510     62506     62505     62508     62506     62505     62507
     62507     62505     62508     62509     62505     62508     62509     62505     62507
     62509     62505     62506     62511     62515     62516     62512     62511     62514
     62512     62511     62513     62513     62511     62514     62515     62511     62514
     62515     62511     62513     62515     62511     62512     62517     62521     62522
     62518     62517     62520     62518     62517     62519     62519     62517     62520
     62521     62517     62520     62521     62517     62519     62521     62517     62518
     62523     62527     62528     62524     62523     62526     62524     62523     62525
     62525     62523     62526     62527     62523     62526     62527     62523     62525
     62527     62523     62524     62529     62533     62534     62530     62529     62532
     62530     62529     62531     62531     62529     62532     62533     62529     62532
     62533     62529     62531     62533     62529     62530     62535     62539     62540
     62536     62535     62538     62536     62535     62537     62537     62535     62538
     62539     62535     62538     62539     62535     62537     62539     62535     62536
     62541     62545     62546     62542     62541     62544     62542     62541     62543
     62543     62541     62544     62545     62541     62544     62545     62541     62543
     62545     62541     62542     62547     62551     62552     62548     62547     62550
     62548     62547     62549     62549     62547     62550     62551     62547     62550
     62551     62547     62549     62551     62547     62548     62553     62557     62558
     62554     62553     62556     62554     62553     62555     62555     62553     62556
     62557     62553     62556     62557     62553     62555     62557     62553     62554
     62559     62563     62564     62560     62559     62562     62560     62559     62561
     62561     62559     62562     62563     62559     62562     62563     62559     62561
     62563     62559     62560     62565     62569     62570     62566     62565     62568
     62566     62565     62567     62567     62565     62568     62569     62565     62568
     62569     62565     62567     62569     62565     62566     62571     62575     62576
     62572     62571     62574     62572     62571     62573     62573     62571     62574
     62575     62571     62574     62575     62571     62573     62575     62571     62572
     62577     62581     62582     62578     62577     62580     62578     62577     62579
     62579     62577     62580     62581     62577     62580     62581     62577     62579
     62581     62577     62578     62583     62587     62588     62584     62583     62586
     62584     62583     62585     62585     62583     62586     62587     62583     62586
     62587     62583     62585     62587     62583     62584     62589     62593     62594
     62590     62589     62592     62590     62589     62591     62591     62589     62592
     62593     62589     62592     62593     62589     62591     62593     62589     62590
     62595     62599     62600     62596     62595     62598     62596     62595     62597
     62597     62595     62598     62599     62595     62598     62599     62595     62597
     62599     62595     62596     62601     62605     62606     62602     62601     62604
     62602     62601     62603     62603     62601     62604     62605     62601     62604
     62605     62601     62603     62605     62601     62602     62607     62611     62612
     62608     62607     62610     62608     62607     62609     62609     62607     62610
     62611     62607     62610     62611     62607     62609     62611     62607     62608
     62613     62617     62618     62614     62613     62616     62614     62613     62615
     62615     62613     62616     62617     62613     62616     62617     62613     62615
     62617     62613     62614     62619     62623     62624     62620     62619     62622
     62620     62619     62621     62621     62619     62622     62623     62619     62622
     62623     62619     62621     62623     62619     62620     62625     62629     62630
     62626     62625     62628     62626     62625     62627     62627     62625     62628
     62629     62625     62628     62629     62625     62627     62629     62625     62626
     62631     62635     62636     62632     62631     62634     62632     62631     62633
     62633     62631     62634     62635     62631     62634     62635     62631     62633
     62635     62631     62632     62637     62641     62642     62638     62637     62640
     62638     62637     62639     62639     62637     62640     62641     62637     62640
     62641     62637     62639     62641     62637     62638     62643     62647     62648
     62644     62643     62646     62644     62643     62645     62645     62643     62646
     62647     62643     62646     62647     62643     62645     62647     62643     62644
     62649     62653     62654     62650     62649     62652     62650     62649     62651
     62651     62649     62652     62653     62649     62652     62653     62649     62651
     62653     62649     62650     62655     62659     62660     62656     62655     62658
     62656     62655     62657     62657     62655     62658     62659     62655     62658
     62659     62655     62657     62659     62655     62656     62661     62665     62666
     62662     62661     62664     62662     62661     62663     62663     62661     62664
     62665     62661     62664     62665     62661     62663     62665     62661     62662
     62667     62671     62672     62668     62667     62670     62668     62667     62669
     62669     62667     62670     62671     62667     62670     62671     62667     62669
     62671     62667     62668     62673     62677     62678     62674     62673     62676
     62674     62673     62675     62675     62673     62676     62677     62673     62676
     62677     62673     62675     62677     62673     62674     62679     62683     62684
     62680     62679     62682     62680     62679     62681     62681     62679     62682
     62683     62679     62682     62683     62679     62681     62683     62679     62680
     62685     62689     62690     62686     62685     62688     62686     62685     62687
     62687     62685     62688     62689     62685     62688     62689     62685     62687
     62689     62685     62686     62691     62695     62696     62692     62691     62694
     62692     62691     62693     62693     62691     62694     62695     62691     62694
     62695     62691     62693     62695     62691     62692     62697     62701     62702
     62698     62697     62700     62698     62697     62699     62699     62697     62700
     62701     62697     62700     62701     62697     62699     62701     62697     62698
     62703     62707     62708     62704     62703     62706     62704     62703     62705
     62705     62703     62706     62707     62703     62706     62707     62703     62705
     62707     62703     62704     62709     62713     62714     62710     62709     62712
     62710     62709     62711     62711     62709     62712     62713     62709     62712
     62713     62709     62711     62713     62709     62710     62715     62719     62720
     62716     62715     62718     62716     62715     62717     62717     62715     62718
     62719     62715     62718     62719     62715     62717     62719     62715     62716
     62721     62725     62726     62722     62721     62724     62722     62721     62723
     62723     62721     62724     62725     62721     62724     62725     62721     62723
     62725     62721     62722     62727     62731     62732     62728     62727     62730
     62728     62727     62729     62729     62727     62730     62731     62727     62730
     62731     62727     62729     62731     62727     62728     62733     62737     62738
     62734     62733     62736     62734     62733     62735     62735     62733     62736
     62737     62733     62736     62737     62733     62735     62737     62733     62734
     62739     62743     62744     62740     62739     62742     62740     62739     62741
     62741     62739     62742     62743     62739     62742     62743     62739     62741
     62743     62739     62740     62745     62749     62750     62746     62745     62748
     62746     62745     62747     62747     62745     62748     62749     62745     62748
     62749     62745     62747     62749     62745     62746     62751     62755     62756
     62752     62751     62754     62752     62751     62753     62753     62751     62754
     62755     62751     62754     62755     62751     62753     62755     62751     62752
     62757     62761     62762     62758     62757     62760     62758     62757     62759
     62759     62757     62760     62761     62757     62760     62761     62757     62759
     62761     62757     62758     62763     62767     62768     62764     62763     62766
     62764     62763     62765     62765     62763     62766     62767     62763     62766
     62767     62763     62765     62767     62763     62764     62769     62773     62774
     62770     62769     62772     62770     62769     62771     62771     62769     62772
     62773     62769     62772     62773     62769     62771     62773     62769     62770
     62775     62779     62780     62776     62775     62778     62776     62775     62777
     62777     62775     62778     62779     62775     62778     62779     62775     62777
     62779     62775     62776     62781     62785     62786     62782     62781     62784
     62782     62781     62783     62783     62781     62784     62785     62781     62784
     62785     62781     62783     62785     62781     62782     62787     62791     62792
     62788     62787     62790     62788     62787     62789     62789     62787     62790
     62791     62787     62790     62791     62787     62789     62791     62787     62788
     62793     62797     62798     62794     62793     62796     62794     62793     62795
     62795     62793     62796     62797     62793     62796     62797     62793     62795
     62797     62793     62794     62799     62803     62804     62800     62799     62802
     62800     62799     62801     62801     62799     62802     62803     62799     62802
     62803     62799     62801     62803     62799     62800     62805     62809     62810
     62806     62805     62808     62806     62805     62807     62807     62805     62808
     62809     62805     62808     62809     62805     62807     62809     62805     62806
     62811     62815     62816     62812     62811     62814     62812     62811     62813
     62813     62811     62814     62815     62811     62814     62815     62811     62813
     62815     62811     62812     62817     62821     62822     62818     62817     62820
     62818     62817     62819     62819     62817     62820     62821     62817     62820
     62821     62817     62819     62821     62817     62818     62823     62827     62828
     62824     62823     62826     62824     62823     62825     62825     62823     62826
     62827     62823     62826     62827     62823     62825     62827     62823     62824
     62829     62833     62834     62830     62829     62832     62830     62829     62831
     62831     62829     62832     62833     62829     62832     62833     62829     62831
     62833     62829     62830     62835     62839     62840     62836     62835     62838
     62836     62835     62837     62837     62835     62838     62839     62835     62838
     62839     62835     62837     62839     62835     62836     62841     62845     62846
     62842     62841     62844     62842     62841     62843     62843     62841     62844
     62845     62841     62844     62845     62841     62843     62845     62841     62842
     62847     62851     62852     62848     62847     62850     62848     62847     62849
     62849     62847     62850     62851     62847     62850     62851     62847     62849
     62851     62847     62848     62853     62857     62858     62854     62853     62856
     62854     62853     62855     62855     62853     62856     62857     62853     62856
     62857     62853     62855     62857     62853     62854     62859     62863     62864
     62860     62859     62862     62860     62859     62861     62861     62859     62862
     62863     62859     62862     62863     62859     62861     62863     62859     62860
     62865     62869     62870     62866     62865     62868     62866     62865     62867
     62867     62865     62868     62869     62865     62868     62869     62865     62867
     62869     62865     62866     62871     62875     62876     62872     62871     62874
     62872     62871     62873     62873     62871     62874     62875     62871     62874
     62875     62871     62873     62875     62871     62872     62877     62881     62882
     62878     62877     62880     62878     62877     62879     62879     62877     62880
     62881     62877     62880     62881     62877     62879     62881     62877     62878
     62883     62887     62888     62884     62883     62886     62884     62883     62885
     62885     62883     62886     62887     62883     62886     62887     62883     62885
     62887     62883     62884     62889     62893     62894     62890     62889     62892
     62890     62889     62891     62891     62889     62892     62893     62889     62892
     62893     62889     62891     62893     62889     62890     62895     62899     62900
     62896     62895     62898     62896     62895     62897     62897     62895     62898
     62899     62895     62898     62899     62895     62897     62899     62895     62896
     62901     62905     62906     62902     62901     62904     62902     62901     62903
     62903     62901     62904     62905     62901     62904     62905     62901     62903
     62905     62901     62902     62907     62911     62912     62908     62907     62910
     62908     62907     62909     62909     62907     62910     62911     62907     62910
     62911     62907     62909     62911     62907     62908     62913     62917     62918
     62914     62913     62916     62914     62913     62915     62915     62913     62916
     62917     62913     62916     62917     62913     62915     62917     62913     62914
     62919     62923     62924     62920     62919     62922     62920     62919     62921
     62921     62919     62922     62923     62919     62922     62923     62919     62921
     62923     62919     62920     62925     62929     62930     62926     62925     62928
     62926     62925     62927     62927     62925     62928     62929     62925     62928
     62929     62925     62927     62929     62925     62926     62931     62935     62936
     62932     62931     62934     62932     62931     62933     62933     62931     62934
     62935     62931     62934     62935     62931     62933     62935     62931     62932
     62937     62941     62942     62938     62937     62940     62938     62937     62939
     62939     62937     62940     62941     62937     62940     62941     62937     62939
     62941     62937     62938     62943     62947     62948     62944     62943     62946
     62944     62943     62945     62945     62943     62946     62947     62943     62946
     62947     62943     62945     62947     62943     62944     62949     62953     62954
     62950     62949     62952     62950     62949     62951     62951     62949     62952
     62953     62949     62952     62953     62949     62951     62953     62949     62950
     62955     62959     62960     62956     62955     62958     62956     62955     62957
     62957     62955     62958     62959     62955     62958     62959     62955     62957
     62959     62955     62956     62961     62965     62966     62962     62961     62964
     62962     62961     62963     62963     62961     62964     62965     62961     62964
     62965     62961     62963     62965     62961     62962     62967     62971     62972
     62968     62967     62970     62968     62967     62969     62969     62967     62970
     62971     62967     62970     62971     62967     62969     62971     62967     62968
     62973     62977     62978     62974     62973     62976     62974     62973     62975
     62975     62973     62976     62977     62973     62976     62977     62973     62975
     62977     62973     62974     62979     62983     62984     62980     62979     62982
     62980     62979     62981     62981     62979     62982     62983     62979     62982
     62983     62979     62981     62983     62979     62980     62985     62989     62990
     62986     62985     62988     62986     62985     62987     62987     62985     62988
     62989     62985     62988     62989     62985     62987     62989     62985     62986
     62991     62995     62996     62992     62991     62994     62992     62991     62993
     62993     62991     62994     62995     62991     62994     62995     62991     62993
     62995     62991     62992     62997     63001     63002     62998     62997     63000
     62998     62997     62999     62999     62997     63000     63001     62997     63000
     63001     62997     62999     63001     62997     62998     63003     63007     63008
     63004     63003     63006     63004     63003     63005     63005     63003     63006
     63007     63003     63006     63007     63003     63005     63007     63003     63004
     63009     63013     63014     63010     63009     63012     63010     63009     63011
     63011     63009     63012     63013     63009     63012     63013     63009     63011
     63013     63009     63010     63015     63019     63020     63016     63015     63018
     63016     63015     63017     63017     63015     63018     63019     63015     63018
     63019     63015     63017     63019     63015     63016     63021     63025     63026
     63022     63021     63024     63022     63021     63023     63023     63021     63024
     63025     63021     63024     63025     63021     63023     63025     63021     63022
     63027     63031     63032     63028     63027     63030     63028     63027     63029
     63029     63027     63030     63031     63027     63030     63031     63027     63029
     63031     63027     63028     63033     63037     63038     63034     63033     63036
     63034     63033     63035     63035     63033     63036     63037     63033     63036
     63037     63033     63035     63037     63033     63034     63039     63043     63044
     63040     63039     63042     63040     63039     63041     63041     63039     63042
     63043     63039     63042     63043     63039     63041     63043     63039     63040
     63045     63049     63050     63046     63045     63048     63046     63045     63047
     63047     63045     63048     63049     63045     63048     63049     63045     63047
     63049     63045     63046     63051     63055     63056     63052     63051     63054
     63052     63051     63053     63053     63051     63054     63055     63051     63054
     63055     63051     63053     63055     63051     63052     63057     63061     63062
     63058     63057     63060     63058     63057     63059     63059     63057     63060
     63061     63057     63060     63061     63057     63059     63061     63057     63058
     63063     63067     63068     63064     63063     63066     63064     63063     63065
     63065     63063     63066     63067     63063     63066     63067     63063     63065
     63067     63063     63064     63069     63073     63074     63070     63069     63072
     63070     63069     63071     63071     63069     63072     63073     63069     63072
     63073     63069     63071     63073     63069     63070     63075     63079     63080
     63076     63075     63078     63076     63075     63077     63077     63075     63078
     63079     63075     63078     63079     63075     63077     63079     63075     63076
     63081     63085     63086     63082     63081     63084     63082     63081     63083
     63083     63081     63084     63085     63081     63084     63085     63081     63083
     63085     63081     63082     63087     63091     63092     63088     63087     63090
     63088     63087     63089     63089     63087     63090     63091     63087     63090
     63091     63087     63089     63091     63087     63088     63093     63097     63098
     63094     63093     63096     63094     63093     63095     63095     63093     63096
     63097     63093     63096     63097     63093     63095     63097     63093     63094
     63099     63103     63104     63100     63099     63102     63100     63099     63101
     63101     63099     63102     63103     63099     63102     63103     63099     63101
     63103     63099     63100     63105     63109     63110     63106     63105     63108
     63106     63105     63107     63107     63105     63108     63109     63105     63108
     63109     63105     63107     63109     63105     63106     63111     63115     63116
     63112     63111     63114     63112     63111     63113     63113     63111     63114
     63115     63111     63114     63115     63111     63113     63115     63111     63112
     63117     63121     63122     63118     63117     63120     63118     63117     63119
     63119     63117     63120     63121     63117     63120     63121     63117     63119
     63121     63117     63118     63123     63127     63128     63124     63123     63126
     63124     63123     63125     63125     63123     63126     63127     63123     63126
     63127     63123     63125     63127     63123     63124     63129     63133     63134
     63130     63129     63132     63130     63129     63131     63131     63129     63132
     63133     63129     63132     63133     63129     63131     63133     63129     63130
     63135     63139     63140     63136     63135     63138     63136     63135     63137
     63137     63135     63138     63139     63135     63138     63139     63135     63137
     63139     63135     63136     63141     63145     63146     63142     63141     63144
     63142     63141     63143     63143     63141     63144     63145     63141     63144
     63145     63141     63143     63145     63141     63142     63147     63151     63152
     63148     63147     63150     63148     63147     63149     63149     63147     63150
     63151     63147     63150     63151     63147     63149     63151     63147     63148
     63153     63157     63158     63154     63153     63156     63154     63153     63155
     63155     63153     63156     63157     63153     63156     63157     63153     63155
     63157     63153     63154     63159     63163     63164     63160     63159     63162
     63160     63159     63161     63161     63159     63162     63163     63159     63162
     63163     63159     63161     63163     63159     63160     63165     63169     63170
     63166     63165     63168     63166     63165     63167     63167     63165     63168
     63169     63165     63168     63169     63165     63167     63169     63165     63166
     63171     63175     63176     63172     63171     63174     63172     63171     63173
     63173     63171     63174     63175     63171     63174     63175     63171     63173
     63175     63171     63172     63177     63181     63182     63178     63177     63180
     63178     63177     63179     63179     63177     63180     63181     63177     63180
     63181     63177     63179     63181     63177     63178     63183     63187     63188
     63184     63183     63186     63184     63183     63185     63185     63183     63186
     63187     63183     63186     63187     63183     63185     63187     63183     63184
     63189     63193     63194     63190     63189     63192     63190     63189     63191
     63191     63189     63192     63193     63189     63192     63193     63189     63191
     63193     63189     63190     63195     63199     63200     63196     63195     63198
     63196     63195     63197     63197     63195     63198     63199     63195     63198
     63199     63195     63197     63199     63195     63196     63201     63205     63206
     63202     63201     63204     63202     63201     63203     63203     63201     63204
     63205     63201     63204     63205     63201     63203     63205     63201     63202
     63207     63211     63212     63208     63207     63210     63208     63207     63209
     63209     63207     63210     63211     63207     63210     63211     63207     63209
     63211     63207     63208     63213     63217     63218     63214     63213     63216
     63214     63213     63215     63215     63213     63216     63217     63213     63216
     63217     63213     63215     63217     63213     63214     63219     63223     63224
     63220     63219     63222     63220     63219     63221     63221     63219     63222
     63223     63219     63222     63223     63219     63221     63223     63219     63220
     63225     63229     63230     63226     63225     63228     63226     63225     63227
     63227     63225     63228     63229     63225     63228     63229     63225     63227
     63229     63225     63226     63231     63235     63236     63232     63231     63234
     63232     63231     63233     63233     63231     63234     63235     63231     63234
     63235     63231     63233     63235     63231     63232     63237     63241     63242
     63238     63237     63240     63238     63237     63239     63239     63237     63240
     63241     63237     63240     63241     63237     63239     63241     63237     63238
     63243     63247     63248     63244     63243     63246     63244     63243     63245
     63245     63243     63246     63247     63243     63246     63247     63243     63245
     63247     63243     63244     63249     63253     63254     63250     63249     63252
     63250     63249     63251     63251     63249     63252     63253     63249     63252
     63253     63249     63251     63253     63249     63250     63255     63259     63260
     63256     63255     63258     63256     63255     63257     63257     63255     63258
     63259     63255     63258     63259     63255     63257     63259     63255     63256
     63261     63265     63266     63262     63261     63264     63262     63261     63263
     63263     63261     63264     63265     63261     63264     63265     63261     63263
     63265     63261     63262     63267     63271     63272     63268     63267     63270
     63268     63267     63269     63269     63267     63270     63271     63267     63270
     63271     63267     63269     63271     63267     63268     63273     63277     63278
     63274     63273     63276     63274     63273     63275     63275     63273     63276
     63277     63273     63276     63277     63273     63275     63277     63273     63274
     63279     63283     63284     63280     63279     63282     63280     63279     63281
     63281     63279     63282     63283     63279     63282     63283     63279     63281
     63283     63279     63280     63285     63289     63290     63286     63285     63288
     63286     63285     63287     63287     63285     63288     63289     63285     63288
     63289     63285     63287     63289     63285     63286     63291     63295     63296
     63292     63291     63294     63292     63291     63293     63293     63291     63294
     63295     63291     63294     63295     63291     63293     63295     63291     63292
     63297     63301     63302     63298     63297     63300     63298     63297     63299
     63299     63297     63300     63301     63297     63300     63301     63297     63299
     63301     63297     63298     63303     63307     63308     63304     63303     63306
     63304     63303     63305     63305     63303     63306     63307     63303     63306
     63307     63303     63305     63307     63303     63304     63309     63313     63314
     63310     63309     63312     63310     63309     63311     63311     63309     63312
     63313     63309     63312     63313     63309     63311     63313     63309     63310
     63315     63319     63320     63316     63315     63318     63316     63315     63317
     63317     63315     63318     63319     63315     63318     63319     63315     63317
     63319     63315     63316     63321     63325     63326     63322     63321     63324
     63322     63321     63323     63323     63321     63324     63325     63321     63324
     63325     63321     63323     63325     63321     63322     63327     63331     63332
     63328     63327     63330     63328     63327     63329     63329     63327     63330
     63331     63327     63330     63331     63327     63329     63331     63327     63328
     63333     63337     63338     63334     63333     63336     63334     63333     63335
     63335     63333     63336     63337     63333     63336     63337     63333     63335
     63337     63333     63334     63339     63343     63344     63340     63339     63342
     63340     63339     63341     63341     63339     63342     63343     63339     63342
     63343     63339     63341     63343     63339     63340     63345     63349     63350
     63346     63345     63348     63346     63345     63347     63347     63345     63348
     63349     63345     63348     63349     63345     63347     63349     63345     63346
     63351     63355     63356     63352     63351     63354     63352     63351     63353
     63353     63351     63354     63355     63351     63354     63355     63351     63353
     63355     63351     63352     63357     63361     63362     63358     63357     63360
     63358     63357     63359     63359     63357     63360     63361     63357     63360
     63361     63357     63359     63361     63357     63358     63363     63367     63368
     63364     63363     63366     63364     63363     63365     63365     63363     63366
     63367     63363     63366     63367     63363     63365     63367     63363     63364
     63369     63373     63374     63370     63369     63372     63370     63369     63371
     63371     63369     63372     63373     63369     63372     63373     63369     63371
     63373     63369     63370     63375     63379     63380     63376     63375     63378
     63376     63375     63377     63377     63375     63378     63379     63375     63378
     63379     63375     63377     63379     63375     63376     63381     63385     63386
     63382     63381     63384     63382     63381     63383     63383     63381     63384
     63385     63381     63384     63385     63381     63383     63385     63381     63382
     63387     63391     63392     63388     63387     63390     63388     63387     63389
     63389     63387     63390     63391     63387     63390     63391     63387     63389
     63391     63387     63388     63393     63397     63398     63394     63393     63396
     63394     63393     63395     63395     63393     63396     63397     63393     63396
     63397     63393     63395     63397     63393     63394     63399     63403     63404
     63400     63399     63402     63400     63399     63401     63401     63399     63402
     63403     63399     63402     63403     63399     63401     63403     63399     63400
     63405     63409     63410     63406     63405     63408     63406     63405     63407
     63407     63405     63408     63409     63405     63408     63409     63405     63407
     63409     63405     63406     63411     63415     63416     63412     63411     63414
     63412     63411     63413     63413     63411     63414     63415     63411     63414
     63415     63411     63413     63415     63411     63412     63417     63421     63422
     63418     63417     63420     63418     63417     63419     63419     63417     63420
     63421     63417     63420     63421     63417     63419     63421     63417     63418
     63423     63427     63428     63424     63423     63426     63424     63423     63425
     63425     63423     63426     63427     63423     63426     63427     63423     63425
     63427     63423     63424     63429     63433     63434     63430     63429     63432
     63430     63429     63431     63431     63429     63432     63433     63429     63432
     63433     63429     63431     63433     63429     63430     63435     63439     63440
     63436     63435     63438     63436     63435     63437     63437     63435     63438
     63439     63435     63438     63439     63435     63437     63439     63435     63436
     63441     63445     63446     63442     63441     63444     63442     63441     63443
     63443     63441     63444     63445     63441     63444     63445     63441     63443
     63445     63441     63442     63447     63451     63452     63448     63447     63450
     63448     63447     63449     63449     63447     63450     63451     63447     63450
     63451     63447     63449     63451     63447     63448     63453     63457     63458
     63454     63453     63456     63454     63453     63455     63455     63453     63456
     63457     63453     63456     63457     63453     63455     63457     63453     63454
     63459     63463     63464     63460     63459     63462     63460     63459     63461
     63461     63459     63462     63463     63459     63462     63463     63459     63461
     63463     63459     63460     63465     63469     63470     63466     63465     63468
     63466     63465     63467     63467     63465     63468     63469     63465     63468
     63469     63465     63467     63469     63465     63466     63471     63475     63476
     63472     63471     63474     63472     63471     63473     63473     63471     63474
     63475     63471     63474     63475     63471     63473     63475     63471     63472
     63477     63481     63482     63478     63477     63480     63478     63477     63479
     63479     63477     63480     63481     63477     63480     63481     63477     63479
     63481     63477     63478     63483     63487     63488     63484     63483     63486
     63484     63483     63485     63485     63483     63486     63487     63483     63486
     63487     63483     63485     63487     63483     63484     63489     63493     63494
     63490     63489     63492     63490     63489     63491     63491     63489     63492
     63493     63489     63492     63493     63489     63491     63493     63489     63490
     63495     63499     63500     63496     63495     63498     63496     63495     63497
     63497     63495     63498     63499     63495     63498     63499     63495     63497
     63499     63495     63496     63501     63505     63506     63502     63501     63504
     63502     63501     63503     63503     63501     63504     63505     63501     63504
     63505     63501     63503     63505     63501     63502     63507     63511     63512
     63508     63507     63510     63508     63507     63509     63509     63507     63510
     63511     63507     63510     63511     63507     63509     63511     63507     63508
     63513     63517     63518     63514     63513     63516     63514     63513     63515
     63515     63513     63516     63517     63513     63516     63517     63513     63515
     63517     63513     63514     63519     63523     63524     63520     63519     63522
     63520     63519     63521     63521     63519     63522     63523     63519     63522
     63523     63519     63521     63523     63519     63520     63525     63529     63530
     63526     63525     63528     63526     63525     63527     63527     63525     63528
     63529     63525     63528     63529     63525     63527     63529     63525     63526
     63531     63535     63536     63532     63531     63534     63532     63531     63533
     63533     63531     63534     63535     63531     63534     63535     63531     63533
     63535     63531     63532     63537     63541     63542     63538     63537     63540
     63538     63537     63539     63539     63537     63540     63541     63537     63540
     63541     63537     63539     63541     63537     63538     63543     63547     63548
     63544     63543     63546     63544     63543     63545     63545     63543     63546
     63547     63543     63546     63547     63543     63545     63547     63543     63544
     63549     63553     63554     63550     63549     63552     63550     63549     63551
     63551     63549     63552     63553     63549     63552     63553     63549     63551
     63553     63549     63550     63555     63559     63560     63556     63555     63558
     63556     63555     63557     63557     63555     63558     63559     63555     63558
     63559     63555     63557     63559     63555     63556     63561     63565     63566
     63562     63561     63564     63562     63561     63563     63563     63561     63564
     63565     63561     63564     63565     63561     63563     63565     63561     63562
     63567     63571     63572     63568     63567     63570     63568     63567     63569
     63569     63567     63570     63571     63567     63570     63571     63567     63569
     63571     63567     63568     63573     63577     63578     63574     63573     63576
     63574     63573     63575     63575     63573     63576     63577     63573     63576
     63577     63573     63575     63577     63573     63574     63579     63583     63584
     63580     63579     63582     63580     63579     63581     63581     63579     63582
     63583     63579     63582     63583     63579     63581     63583     63579     63580
     63585     63589     63590     63586     63585     63588     63586     63585     63587
     63587     63585     63588     63589     63585     63588     63589     63585     63587
     63589     63585     63586     63591     63595     63596     63592     63591     63594
     63592     63591     63593     63593     63591     63594     63595     63591     63594
     63595     63591     63593     63595     63591     63592     63597     63601     63602
     63598     63597     63600     63598     63597     63599     63599     63597     63600
     63601     63597     63600     63601     63597     63599     63601     63597     63598
     63603     63607     63608     63604     63603     63606     63604     63603     63605
     63605     63603     63606     63607     63603     63606     63607     63603     63605
     63607     63603     63604     63609     63613     63614     63610     63609     63612
     63610     63609     63611     63611     63609     63612     63613     63609     63612
     63613     63609     63611     63613     63609     63610     63615     63619     63620
     63616     63615     63618     63616     63615     63617     63617     63615     63618
     63619     63615     63618     63619     63615     63617     63619     63615     63616
     63621     63625     63626     63622     63621     63624     63622     63621     63623
     63623     63621     63624     63625     63621     63624     63625     63621     63623
     63625     63621     63622     63627     63631     63632     63628     63627     63630
     63628     63627     63629     63629     63627     63630     63631     63627     63630
     63631     63627     63629     63631     63627     63628     63633     63637     63638
     63634     63633     63636     63634     63633     63635     63635     63633     63636
     63637     63633     63636     63637     63633     63635     63637     63633     63634
     63639     63643     63644     63640     63639     63642     63640     63639     63641
     63641     63639     63642     63643     63639     63642     63643     63639     63641
     63643     63639     63640     63645     63649     63650     63646     63645     63648
     63646     63645     63647     63647     63645     63648     63649     63645     63648
     63649     63645     63647     63649     63645     63646     63651     63655     63656
     63652     63651     63654     63652     63651     63653     63653     63651     63654
     63655     63651     63654     63655     63651     63653     63655     63651     63652
     63657     63661     63662     63658     63657     63660     63658     63657     63659
     63659     63657     63660     63661     63657     63660     63661     63657     63659
     63661     63657     63658     63663     63667     63668     63664     63663     63666
     63664     63663     63665     63665     63663     63666     63667     63663     63666
     63667     63663     63665     63667     63663     63664     63669     63673     63674
     63670     63669     63672     63670     63669     63671     63671     63669     63672
     63673     63669     63672     63673     63669     63671     63673     63669     63670
     63675     63679     63680     63676     63675     63678     63676     63675     63677
     63677     63675     63678     63679     63675     63678     63679     63675     63677
     63679     63675     63676     63681     63685     63686     63682     63681     63684
     63682     63681     63683     63683     63681     63684     63685     63681     63684
     63685     63681     63683     63685     63681     63682     63687     63691     63692
     63688     63687     63690     63688     63687     63689     63689     63687     63690
     63691     63687     63690     63691     63687     63689     63691     63687     63688
     63693     63697     63698     63694     63693     63696     63694     63693     63695
     63695     63693     63696     63697     63693     63696     63697     63693     63695
     63697     63693     63694     63699     63703     63704     63700     63699     63702
     63700     63699     63701     63701     63699     63702     63703     63699     63702
     63703     63699     63701     63703     63699     63700     63705     63709     63710
     63706     63705     63708     63706     63705     63707     63707     63705     63708
     63709     63705     63708     63709     63705     63707     63709     63705     63706
     63711     63715     63716     63712     63711     63714     63712     63711     63713
     63713     63711     63714     63715     63711     63714     63715     63711     63713
     63715     63711     63712     63717     63721     63722     63718     63717     63720
     63718     63717     63719     63719     63717     63720     63721     63717     63720
     63721     63717     63719     63721     63717     63718     63723     63727     63728
     63724     63723     63726     63724     63723     63725     63725     63723     63726
     63727     63723     63726     63727     63723     63725     63727     63723     63724
     63729     63733     63734     63730     63729     63732     63730     63729     63731
     63731     63729     63732     63733     63729     63732     63733     63729     63731
     63733     63729     63730     63735     63739     63740     63736     63735     63738
     63736     63735     63737     63737     63735     63738     63739     63735     63738
     63739     63735     63737     63739     63735     63736     63741     63745     63746
     63742     63741     63744     63742     63741     63743     63743     63741     63744
     63745     63741     63744     63745     63741     63743     63745     63741     63742
     63747     63751     63752     63748     63747     63750     63748     63747     63749
     63749     63747     63750     63751     63747     63750     63751     63747     63749
     63751     63747     63748     63753     63757     63758     63754     63753     63756
     63754     63753     63755     63755     63753     63756     63757     63753     63756
     63757     63753     63755     63757     63753     63754     63759     63763     63764
     63760     63759     63762     63760     63759     63761     63761     63759     63762
     63763     63759     63762     63763     63759     63761     63763     63759     63760
     63765     63769     63770     63766     63765     63768     63766     63765     63767
     63767     63765     63768     63769     63765     63768     63769     63765     63767
     63769     63765     63766     63771     63775     63776     63772     63771     63774
     63772     63771     63773     63773     63771     63774     63775     63771     63774
     63775     63771     63773     63775     63771     63772     63777     63781     63782
     63778     63777     63780     63778     63777     63779     63779     63777     63780
     63781     63777     63780     63781     63777     63779     63781     63777     63778
     63783     63787     63788     63784     63783     63786     63784     63783     63785
     63785     63783     63786     63787     63783     63786     63787     63783     63785
     63787     63783     63784     63789     63793     63794     63790     63789     63792
     63790     63789     63791     63791     63789     63792     63793     63789     63792
     63793     63789     63791     63793     63789     63790     63795     63799     63800
     63796     63795     63798     63796     63795     63797     63797     63795     63798
     63799     63795     63798     63799     63795     63797     63799     63795     63796
     63801     63805     63806     63802     63801     63804     63802     63801     63803
     63803     63801     63804     63805     63801     63804     63805     63801     63803
     63805     63801     63802     63807     63811     63812     63808     63807     63810
     63808     63807     63809     63809     63807     63810     63811     63807     63810
     63811     63807     63809     63811     63807     63808     63813     63817     63818
     63814     63813     63816     63814     63813     63815     63815     63813     63816
     63817     63813     63816     63817     63813     63815     63817     63813     63814
     63819     63823     63824     63820     63819     63822     63820     63819     63821
     63821     63819     63822     63823     63819     63822     63823     63819     63821
     63823     63819     63820     63825     63829     63830     63826     63825     63828
     63826     63825     63827     63827     63825     63828     63829     63825     63828
     63829     63825     63827     63829     63825     63826     63831     63835     63836
     63832     63831     63834     63832     63831     63833     63833     63831     63834
     63835     63831     63834     63835     63831     63833     63835     63831     63832
     63837     63841     63842     63838     63837     63840     63838     63837     63839
     63839     63837     63840     63841     63837     63840     63841     63837     63839
     63841     63837     63838     63843     63847     63848     63844     63843     63846
     63844     63843     63845     63845     63843     63846     63847     63843     63846
     63847     63843     63845     63847     63843     63844     63849     63853     63854
     63850     63849     63852     63850     63849     63851     63851     63849     63852
     63853     63849     63852     63853     63849     63851     63853     63849     63850
     63855     63859     63860     63856     63855     63858     63856     63855     63857
     63857     63855     63858     63859     63855     63858     63859     63855     63857
     63859     63855     63856     63861     63865     63866     63862     63861     63864
     63862     63861     63863     63863     63861     63864     63865     63861     63864
     63865     63861     63863     63865     63861     63862     63867     63871     63872
     63868     63867     63870     63868     63867     63869     63869     63867     63870
     63871     63867     63870     63871     63867     63869     63871     63867     63868
     63873     63877     63878     63874     63873     63876     63874     63873     63875
     63875     63873     63876     63877     63873     63876     63877     63873     63875
     63877     63873     63874     63879     63883     63884     63880     63879     63882
     63880     63879     63881     63881     63879     63882     63883     63879     63882
     63883     63879     63881     63883     63879     63880     63885     63889     63890
     63886     63885     63888     63886     63885     63887     63887     63885     63888
     63889     63885     63888     63889     63885     63887     63889     63885     63886
     63891     63895     63896     63892     63891     63894     63892     63891     63893
     63893     63891     63894     63895     63891     63894     63895     63891     63893
     63895     63891     63892     63897     63901     63902     63898     63897     63900
     63898     63897     63899     63899     63897     63900     63901     63897     63900
     63901     63897     63899     63901     63897     63898     63903     63907     63908
     63904     63903     63906     63904     63903     63905     63905     63903     63906
     63907     63903     63906     63907     63903     63905     63907     63903     63904
     63909     63913     63914     63910     63909     63912     63910     63909     63911
     63911     63909     63912     63913     63909     63912     63913     63909     63911
     63913     63909     63910     63915     63919     63920     63916     63915     63918
     63916     63915     63917     63917     63915     63918     63919     63915     63918
     63919     63915     63917     63919     63915     63916     63921     63925     63926
     63922     63921     63924     63922     63921     63923     63923     63921     63924
     63925     63921     63924     63925     63921     63923     63925     63921     63922
     63927     63931     63932     63928     63927     63930     63928     63927     63929
     63929     63927     63930     63931     63927     63930     63931     63927     63929
     63931     63927     63928     63933     63937     63938     63934     63933     63936
     63934     63933     63935     63935     63933     63936     63937     63933     63936
     63937     63933     63935     63937     63933     63934     63939     63943     63944
     63940     63939     63942     63940     63939     63941     63941     63939     63942
     63943     63939     63942     63943     63939     63941     63943     63939     63940
     63945     63949     63950     63946     63945     63948     63946     63945     63947
     63947     63945     63948     63949     63945     63948     63949     63945     63947
     63949     63945     63946     63951     63955     63956     63952     63951     63954
     63952     63951     63953     63953     63951     63954     63955     63951     63954
     63955     63951     63953     63955     63951     63952     63957     63961     63962
     63958     63957     63960     63958     63957     63959     63959     63957     63960
     63961     63957     63960     63961     63957     63959     63961     63957     63958
     63963     63967     63968     63964     63963     63966     63964     63963     63965
     63965     63963     63966     63967     63963     63966     63967     63963     63965
     63967     63963     63964     63969     63973     63974     63970     63969     63972
     63970     63969     63971     63971     63969     63972     63973     63969     63972
     63973     63969     63971     63973     63969     63970     63975     63979     63980
     63976     63975     63978     63976     63975     63977     63977     63975     63978
     63979     63975     63978     63979     63975     63977     63979     63975     63976
     63981     63985     63986     63982     63981     63984     63982     63981     63983
     63983     63981     63984     63985     63981     63984     63985     63981     63983
     63985     63981     63982     63987     63991     63992     63988     63987     63990
     63988     63987     63989     63989     63987     63990     63991     63987     63990
     63991     63987     63989     63991     63987     63988     63993     63997     63998
     63994     63993     63996     63994     63993     63995     63995     63993     63996
     63997     63993     63996     63997     63993     63995     63997     63993     63994
     63999     64003     64004     64000     63999     64002     64000     63999     64001
     64001     63999     64002     64003     63999     64002     64003     63999     64001
     64003     63999     64000     64005     64009     64010     64006     64005     64008
     64006     64005     64007     64007     64005     64008     64009     64005     64008
     64009     64005     64007     64009     64005     64006     64011     64015     64016
     64012     64011     64014     64012     64011     64013     64013     64011     64014
     64015     64011     64014     64015     64011     64013     64015     64011     64012
     64017     64021     64022     64018     64017     64020     64018     64017     64019
     64019     64017     64020     64021     64017     64020     64021     64017     64019
     64021     64017     64018     64023     64027     64028     64024     64023     64026
     64024     64023     64025     64025     64023     64026     64027     64023     64026
     64027     64023     64025     64027     64023     64024     64029     64033     64034
     64030     64029     64032     64030     64029     64031     64031     64029     64032
     64033     64029     64032     64033     64029     64031     64033     64029     64030
     64035     64039     64040     64036     64035     64038     64036     64035     64037
     64037     64035     64038     64039     64035     64038     64039     64035     64037
     64039     64035     64036     64041     64045     64046     64042     64041     64044
     64042     64041     64043     64043     64041     64044     64045     64041     64044
     64045     64041     64043     64045     64041     64042     64047     64051     64052
     64048     64047     64050     64048     64047     64049     64049     64047     64050
     64051     64047     64050     64051     64047     64049     64051     64047     64048
     64053     64057     64058     64054     64053     64056     64054     64053     64055
     64055     64053     64056     64057     64053     64056     64057     64053     64055
     64057     64053     64054     64059     64063     64064     64060     64059     64062
     64060     64059     64061     64061     64059     64062     64063     64059     64062
     64063     64059     64061     64063     64059     64060     64065     64069     64070
     64066     64065     64068     64066     64065     64067     64067     64065     64068
     64069     64065     64068     64069     64065     64067     64069     64065     64066
     64071     64075     64076     64072     64071     64074     64072     64071     64073
     64073     64071     64074     64075     64071     64074     64075     64071     64073
     64075     64071     64072     64077     64081     64082     64078     64077     64080
     64078     64077     64079     64079     64077     64080     64081     64077     64080
     64081     64077     64079     64081     64077     64078     64083     64087     64088
     64084     64083     64086     64084     64083     64085     64085     64083     64086
     64087     64083     64086     64087     64083     64085     64087     64083     64084
     64089     64093     64094     64090     64089     64092     64090     64089     64091
     64091     64089     64092     64093     64089     64092     64093     64089     64091
     64093     64089     64090     64095     64099     64100     64096     64095     64098
     64096     64095     64097     64097     64095     64098     64099     64095     64098
     64099     64095     64097     64099     64095     64096     64101     64105     64106
     64102     64101     64104     64102     64101     64103     64103     64101     64104
     64105     64101     64104     64105     64101     64103     64105     64101     64102
     64107     64111     64112     64108     64107     64110     64108     64107     64109
     64109     64107     64110     64111     64107     64110     64111     64107     64109
     64111     64107     64108     64113     64117     64118     64114     64113     64116
     64114     64113     64115     64115     64113     64116     64117     64113     64116
     64117     64113     64115     64117     64113     64114     64119     64123     64124
     64120     64119     64122     64120     64119     64121     64121     64119     64122
     64123     64119     64122     64123     64119     64121     64123     64119     64120
     64125     64129     64130     64126     64125     64128     64126     64125     64127
     64127     64125     64128     64129     64125     64128     64129     64125     64127
     64129     64125     64126     64131     64135     64136     64132     64131     64134
     64132     64131     64133     64133     64131     64134     64135     64131     64134
     64135     64131     64133     64135     64131     64132     64137     64141     64142
     64138     64137     64140     64138     64137     64139     64139     64137     64140
     64141     64137     64140     64141     64137     64139     64141     64137     64138
     64143     64147     64148     64144     64143     64146     64144     64143     64145
     64145     64143     64146     64147     64143     64146     64147     64143     64145
     64147     64143     64144     64149     64153     64154     64150     64149     64152
     64150     64149     64151     64151     64149     64152     64153     64149     64152
     64153     64149     64151     64153     64149     64150     64155     64159     64160
     64156     64155     64158     64156     64155     64157     64157     64155     64158
     64159     64155     64158     64159     64155     64157     64159     64155     64156
     64161     64165     64166     64162     64161     64164     64162     64161     64163
     64163     64161     64164     64165     64161     64164     64165     64161     64163
     64165     64161     64162     64167     64171     64172     64168     64167     64170
     64168     64167     64169     64169     64167     64170     64171     64167     64170
     64171     64167     64169     64171     64167     64168     64173     64177     64178
     64174     64173     64176     64174     64173     64175     64175     64173     64176
     64177     64173     64176     64177     64173     64175     64177     64173     64174
     64179     64183     64184     64180     64179     64182     64180     64179     64181
     64181     64179     64182     64183     64179     64182     64183     64179     64181
     64183     64179     64180     64185     64189     64190     64186     64185     64188
     64186     64185     64187     64187     64185     64188     64189     64185     64188
     64189     64185     64187     64189     64185     64186     64191     64195     64196
     64192     64191     64194     64192     64191     64193     64193     64191     64194
     64195     64191     64194     64195     64191     64193     64195     64191     64192
     64197     64201     64202     64198     64197     64200     64198     64197     64199
     64199     64197     64200     64201     64197     64200     64201     64197     64199
     64201     64197     64198     64203     64207     64208     64204     64203     64206
     64204     64203     64205     64205     64203     64206     64207     64203     64206
     64207     64203     64205     64207     64203     64204     64209     64213     64214
     64210     64209     64212     64210     64209     64211     64211     64209     64212
     64213     64209     64212     64213     64209     64211     64213     64209     64210
     64215     64219     64220     64216     64215     64218     64216     64215     64217
     64217     64215     64218     64219     64215     64218     64219     64215     64217
     64219     64215     64216     64221     64225     64226     64222     64221     64224
     64222     64221     64223     64223     64221     64224     64225     64221     64224
     64225     64221     64223     64225     64221     64222     64227     64231     64232
     64228     64227     64230     64228     64227     64229     64229     64227     64230
     64231     64227     64230     64231     64227     64229     64231     64227     64228
     64233     64237     64238     64234     64233     64236     64234     64233     64235
     64235     64233     64236     64237     64233     64236     64237     64233     64235
     64237     64233     64234     64239     64243     64244     64240     64239     64242
     64240     64239     64241     64241     64239     64242     64243     64239     64242
     64243     64239     64241     64243     64239     64240     64245     64249     64250
     64246     64245     64248     64246     64245     64247     64247     64245     64248
     64249     64245     64248     64249     64245     64247     64249     64245     64246
     64251     64255     64256     64252     64251     64254     64252     64251     64253
     64253     64251     64254     64255     64251     64254     64255     64251     64253
     64255     64251     64252     64257     64261     64262     64258     64257     64260
     64258     64257     64259     64259     64257     64260     64261     64257     64260
     64261     64257     64259     64261     64257     64258     64263     64267     64268
     64264     64263     64266     64264     64263     64265     64265     64263     64266
     64267     64263     64266     64267     64263     64265     64267     64263     64264
     64269     64273     64274     64270     64269     64272     64270     64269     64271
     64271     64269     64272     64273     64269     64272     64273     64269     64271
     64273     64269     64270     64275     64279     64280     64276     64275     64278
     64276     64275     64277     64277     64275     64278     64279     64275     64278
     64279     64275     64277     64279     64275     64276     64281     64285     64286
     64282     64281     64284     64282     64281     64283     64283     64281     64284
     64285     64281     64284     64285     64281     64283     64285     64281     64282
     64287     64291     64292     64288     64287     64290     64288     64287     64289
     64289     64287     64290     64291     64287     64290     64291     64287     64289
     64291     64287     64288     64293     64297     64298     64294     64293     64296
     64294     64293     64295     64295     64293     64296     64297     64293     64296
     64297     64293     64295     64297     64293     64294     64299     64303     64304
     64300     64299     64302     64300     64299     64301     64301     64299     64302
     64303     64299     64302     64303     64299     64301     64303     64299     64300
     64305     64309     64310     64306     64305     64308     64306     64305     64307
     64307     64305     64308     64309     64305     64308     64309     64305     64307
     64309     64305     64306     64311     64315     64316     64312     64311     64314
     64312     64311     64313     64313     64311     64314     64315     64311     64314
     64315     64311     64313     64315     64311     64312     64317     64321     64322
     64318     64317     64320     64318     64317     64319     64319     64317     64320
     64321     64317     64320     64321     64317     64319     64321     64317     64318
     64323     64327     64328     64324     64323     64326     64324     64323     64325
     64325     64323     64326     64327     64323     64326     64327     64323     64325
     64327     64323     64324     64329     64333     64334     64330     64329     64332
     64330     64329     64331     64331     64329     64332     64333     64329     64332
     64333     64329     64331     64333     64329     64330     64335     64339     64340
     64336     64335     64338     64336     64335     64337     64337     64335     64338
     64339     64335     64338     64339     64335     64337     64339     64335     64336
     64341     64345     64346     64342     64341     64344     64342     64341     64343
     64343     64341     64344     64345     64341     64344     64345     64341     64343
     64345     64341     64342     64347     64351     64352     64348     64347     64350
     64348     64347     64349     64349     64347     64350     64351     64347     64350
     64351     64347     64349     64351     64347     64348     64353     64357     64358
     64354     64353     64356     64354     64353     64355     64355     64353     64356
     64357     64353     64356     64357     64353     64355     64357     64353     64354
     64359     64363     64364     64360     64359     64362     64360     64359     64361
     64361     64359     64362     64363     64359     64362     64363     64359     64361
     64363     64359     64360     64365     64369     64370     64366     64365     64368
     64366     64365     64367     64367     64365     64368     64369     64365     64368
     64369     64365     64367     64369     64365     64366     64371     64375     64376
     64372     64371     64374     64372     64371     64373     64373     64371     64374
     64375     64371     64374     64375     64371     64373     64375     64371     64372
     64377     64381     64382     64378     64377     64380     64378     64377     64379
     64379     64377     64380     64381     64377     64380     64381     64377     64379
     64381     64377     64378     64383     64387     64388     64384     64383     64386
     64384     64383     64385     64385     64383     64386     64387     64383     64386
     64387     64383     64385     64387     64383     64384     64389     64393     64394
     64390     64389     64392     64390     64389     64391     64391     64389     64392
     64393     64389     64392     64393     64389     64391     64393     64389     64390
     64395     64399     64400     64396     64395     64398     64396     64395     64397
     64397     64395     64398     64399     64395     64398     64399     64395     64397
     64399     64395     64396     64401     64405     64406     64402     64401     64404
     64402     64401     64403     64403     64401     64404     64405     64401     64404
     64405     64401     64403     64405     64401     64402     64407     64411     64412
     64408     64407     64410     64408     64407     64409     64409     64407     64410
     64411     64407     64410     64411     64407     64409     64411     64407     64408
     64413     64417     64418     64414     64413     64416     64414     64413     64415
     64415     64413     64416     64417     64413     64416     64417     64413     64415
     64417     64413     64414     64419     64423     64424     64420     64419     64422
     64420     64419     64421     64421     64419     64422     64423     64419     64422
     64423     64419     64421     64423     64419     64420     64425     64429     64430
     64426     64425     64428     64426     64425     64427     64427     64425     64428
     64429     64425     64428     64429     64425     64427     64429     64425     64426
     64431     64435     64436     64432     64431     64434     64432     64431     64433
     64433     64431     64434     64435     64431     64434     64435     64431     64433
     64435     64431     64432     64437     64441     64442     64438     64437     64440
     64438     64437     64439     64439     64437     64440     64441     64437     64440
     64441     64437     64439     64441     64437     64438     64443     64447     64448
     64444     64443     64446     64444     64443     64445     64445     64443     64446
     64447     64443     64446     64447     64443     64445     64447     64443     64444
     64449     64453     64454     64450     64449     64452     64450     64449     64451
     64451     64449     64452     64453     64449     64452     64453     64449     64451
     64453     64449     64450     64455     64459     64460     64456     64455     64458
     64456     64455     64457     64457     64455     64458     64459     64455     64458
     64459     64455     64457     64459     64455     64456     64461     64465     64466
     64462     64461     64464     64462     64461     64463     64463     64461     64464
     64465     64461     64464     64465     64461     64463     64465     64461     64462
     64467     64471     64472     64468     64467     64470     64468     64467     64469
     64469     64467     64470     64471     64467     64470     64471     64467     64469
     64471     64467     64468     64473     64477     64478     64474     64473     64476
     64474     64473     64475     64475     64473     64476     64477     64473     64476
     64477     64473     64475     64477     64473     64474     64479     64483     64484
     64480     64479     64482     64480     64479     64481     64481     64479     64482
     64483     64479     64482     64483     64479     64481     64483     64479     64480
     64485     64489     64490     64486     64485     64488     64486     64485     64487
     64487     64485     64488     64489     64485     64488     64489     64485     64487
     64489     64485     64486     64491     64495     64496     64492     64491     64494
     64492     64491     64493     64493     64491     64494     64495     64491     64494
     64495     64491     64493     64495     64491     64492     64497     64501     64502
     64498     64497     64500     64498     64497     64499     64499     64497     64500
     64501     64497     64500     64501     64497     64499     64501     64497     64498
     64503     64507     64508     64504     64503     64506     64504     64503     64505
     64505     64503     64506     64507     64503     64506     64507     64503     64505
     64507     64503     64504     64509     64513     64514     64510     64509     64512
     64510     64509     64511     64511     64509     64512     64513     64509     64512
     64513     64509     64511     64513     64509     64510     64515     64519     64520
     64516     64515     64518     64516     64515     64517     64517     64515     64518
     64519     64515     64518     64519     64515     64517     64519     64515     64516
     64521     64525     64526     64522     64521     64524     64522     64521     64523
     64523     64521     64524     64525     64521     64524     64525     64521     64523
     64525     64521     64522     64527     64531     64532     64528     64527     64530
     64528     64527     64529     64529     64527     64530     64531     64527     64530
     64531     64527     64529     64531     64527     64528     64533     64537     64538
     64534     64533     64536     64534     64533     64535     64535     64533     64536
     64537     64533     64536     64537     64533     64535     64537     64533     64534
     64539     64543     64544     64540     64539     64542     64540     64539     64541
     64541     64539     64542     64543     64539     64542     64543     64539     64541
     64543     64539     64540     64545     64549     64550     64546     64545     64548
     64546     64545     64547     64547     64545     64548     64549     64545     64548
     64549     64545     64547     64549     64545     64546     64551     64555     64556
     64552     64551     64554     64552     64551     64553     64553     64551     64554
     64555     64551     64554     64555     64551     64553     64555     64551     64552
     64557     64561     64562     64558     64557     64560     64558     64557     64559
     64559     64557     64560     64561     64557     64560     64561     64557     64559
     64561     64557     64558     64563     64567     64568     64564     64563     64566
     64564     64563     64565     64565     64563     64566     64567     64563     64566
     64567     64563     64565     64567     64563     64564     64569     64573     64574
     64570     64569     64572     64570     64569     64571     64571     64569     64572
     64573     64569     64572     64573     64569     64571     64573     64569     64570
     64575     64579     64580     64576     64575     64578     64576     64575     64577
     64577     64575     64578     64579     64575     64578     64579     64575     64577
     64579     64575     64576     64581     64585     64586     64582     64581     64584
     64582     64581     64583     64583     64581     64584     64585     64581     64584
     64585     64581     64583     64585     64581     64582     64587     64591     64592
     64588     64587     64590     64588     64587     64589     64589     64587     64590
     64591     64587     64590     64591     64587     64589     64591     64587     64588
     64593     64597     64598     64594     64593     64596     64594     64593     64595
     64595     64593     64596     64597     64593     64596     64597     64593     64595
     64597     64593     64594     64599     64603     64604     64600     64599     64602
     64600     64599     64601     64601     64599     64602     64603     64599     64602
     64603     64599     64601     64603     64599     64600     64605     64609     64610
     64606     64605     64608     64606     64605     64607     64607     64605     64608
     64609     64605     64608     64609     64605     64607     64609     64605     64606
     64611     64615     64616     64612     64611     64614     64612     64611     64613
     64613     64611     64614     64615     64611     64614     64615     64611     64613
     64615     64611     64612     64617     64621     64622     64618     64617     64620
     64618     64617     64619     64619     64617     64620     64621     64617     64620
     64621     64617     64619     64621     64617     64618     64623     64627     64628
     64624     64623     64626     64624     64623     64625     64625     64623     64626
     64627     64623     64626     64627     64623     64625     64627     64623     64624
     64629     64633     64634     64630     64629     64632     64630     64629     64631
     64631     64629     64632     64633     64629     64632     64633     64629     64631
     64633     64629     64630     64635     64639     64640     64636     64635     64638
     64636     64635     64637     64637     64635     64638     64639     64635     64638
     64639     64635     64637     64639     64635     64636     64641     64645     64646
     64642     64641     64644     64642     64641     64643     64643     64641     64644
     64645     64641     64644     64645     64641     64643     64645     64641     64642
     64647     64651     64652     64648     64647     64650     64648     64647     64649
     64649     64647     64650     64651     64647     64650     64651     64647     64649
     64651     64647     64648     64653     64657     64658     64654     64653     64656
     64654     64653     64655     64655     64653     64656     64657     64653     64656
     64657     64653     64655     64657     64653     64654     64659     64663     64664
     64660     64659     64662     64660     64659     64661     64661     64659     64662
     64663     64659     64662     64663     64659     64661     64663     64659     64660
     64665     64669     64670     64666     64665     64668     64666     64665     64667
     64667     64665     64668     64669     64665     64668     64669     64665     64667
     64669     64665     64666     64671     64675     64676     64672     64671     64674
     64672     64671     64673     64673     64671     64674     64675     64671     64674
     64675     64671     64673     64675     64671     64672     64677     64681     64682
     64678     64677     64680     64678     64677     64679     64679     64677     64680
     64681     64677     64680     64681     64677     64679     64681     64677     64678
     64683     64687     64688     64684     64683     64686     64684     64683     64685
     64685     64683     64686     64687     64683     64686     64687     64683     64685
     64687     64683     64684     64689     64693     64694     64690     64689     64692
     64690     64689     64691     64691     64689     64692     64693     64689     64692
     64693     64689     64691     64693     64689     64690     64695     64699     64700
     64696     64695     64698     64696     64695     64697     64697     64695     64698
     64699     64695     64698     64699     64695     64697     64699     64695     64696
     64701     64705     64706     64702     64701     64704     64702     64701     64703
     64703     64701     64704     64705     64701     64704     64705     64701     64703
     64705     64701     64702     64707     64711     64712     64708     64707     64710
     64708     64707     64709     64709     64707     64710     64711     64707     64710
     64711     64707     64709     64711     64707     64708     64713     64717     64718
     64714     64713     64716     64714     64713     64715     64715     64713     64716
     64717     64713     64716     64717     64713     64715     64717     64713     64714
     64719     64723     64724     64720     64719     64722     64720     64719     64721
     64721     64719     64722     64723     64719     64722     64723     64719     64721
     64723     64719     64720     64725     64729     64730     64726     64725     64728
     64726     64725     64727     64727     64725     64728     64729     64725     64728
     64729     64725     64727     64729     64725     64726     64731     64735     64736
     64732     64731     64734     64732     64731     64733     64733     64731     64734
     64735     64731     64734     64735     64731     64733     64735     64731     64732
     64737     64741     64742     64738     64737     64740     64738     64737     64739
     64739     64737     64740     64741     64737     64740     64741     64737     64739
     64741     64737     64738     64743     64747     64748     64744     64743     64746
     64744     64743     64745     64745     64743     64746     64747     64743     64746
     64747     64743     64745     64747     64743     64744     64749     64753     64754
     64750     64749     64752     64750     64749     64751     64751     64749     64752
     64753     64749     64752     64753     64749     64751     64753     64749     64750
     64755     64759     64760     64756     64755     64758     64756     64755     64757
     64757     64755     64758     64759     64755     64758     64759     64755     64757
     64759     64755     64756     64761     64765     64766     64762     64761     64764
     64762     64761     64763     64763     64761     64764     64765     64761     64764
     64765     64761     64763     64765     64761     64762     64767     64771     64772
     64768     64767     64770     64768     64767     64769     64769     64767     64770
     64771     64767     64770     64771     64767     64769     64771     64767     64768
     64773     64777     64778     64774     64773     64776     64774     64773     64775
     64775     64773     64776     64777     64773     64776     64777     64773     64775
     64777     64773     64774     64779     64783     64784     64780     64779     64782
     64780     64779     64781     64781     64779     64782     64783     64779     64782
     64783     64779     64781     64783     64779     64780     64785     64789     64790
     64786     64785     64788     64786     64785     64787     64787     64785     64788
     64789     64785     64788     64789     64785     64787     64789     64785     64786
     64791     64795     64796     64792     64791     64794     64792     64791     64793
     64793     64791     64794     64795     64791     64794     64795     64791     64793
     64795     64791     64792     64797     64801     64802     64798     64797     64800
     64798     64797     64799     64799     64797     64800     64801     64797     64800
     64801     64797     64799     64801     64797     64798     64803     64807     64808
     64804     64803     64806     64804     64803     64805     64805     64803     64806
     64807     64803     64806     64807     64803     64805     64807     64803     64804
     64809     64813     64814     64810     64809     64812     64810     64809     64811
     64811     64809     64812     64813     64809     64812     64813     64809     64811
     64813     64809     64810     64815     64819     64820     64816     64815     64818
     64816     64815     64817     64817     64815     64818     64819     64815     64818
     64819     64815     64817     64819     64815     64816     64821     64825     64826
     64822     64821     64824     64822     64821     64823     64823     64821     64824
     64825     64821     64824     64825     64821     64823     64825     64821     64822
     64827     64831     64832     64828     64827     64830     64828     64827     64829
     64829     64827     64830     64831     64827     64830     64831     64827     64829
     64831     64827     64828     64833     64837     64838     64834     64833     64836
     64834     64833     64835     64835     64833     64836     64837     64833     64836
     64837     64833     64835     64837     64833     64834     64839     64843     64844
     64840     64839     64842     64840     64839     64841     64841     64839     64842
     64843     64839     64842     64843     64839     64841     64843     64839     64840
     64845     64849     64850     64846     64845     64848     64846     64845     64847
     64847     64845     64848     64849     64845     64848     64849     64845     64847
     64849     64845     64846     64851     64855     64856     64852     64851     64854
     64852     64851     64853     64853     64851     64854     64855     64851     64854
     64855     64851     64853     64855     64851     64852     64857     64861     64862
     64858     64857     64860     64858     64857     64859     64859     64857     64860
     64861     64857     64860     64861     64857     64859     64861     64857     64858
     64863     64867     64868     64864     64863     64866     64864     64863     64865
     64865     64863     64866     64867     64863     64866     64867     64863     64865
     64867     64863     64864     64869     64873     64874     64870     64869     64872
     64870     64869     64871     64871     64869     64872     64873     64869     64872
     64873     64869     64871     64873     64869     64870     64875     64879     64880
     64876     64875     64878     64876     64875     64877     64877     64875     64878
     64879     64875     64878     64879     64875     64877     64879     64875     64876
     64881     64885     64886     64882     64881     64884     64882     64881     64883
     64883     64881     64884     64885     64881     64884     64885     64881     64883
     64885     64881     64882     64887     64891     64892     64888     64887     64890
     64888     64887     64889     64889     64887     64890     64891     64887     64890
     64891     64887     64889     64891     64887     64888     64893     64897     64898
     64894     64893     64896     64894     64893     64895     64895     64893     64896
     64897     64893     64896     64897     64893     64895     64897     64893     64894
     64899     64903     64904     64900     64899     64902     64900     64899     64901
     64901     64899     64902     64903     64899     64902     64903     64899     64901
     64903     64899     64900     64905     64909     64910     64906     64905     64908
     64906     64905     64907     64907     64905     64908     64909     64905     64908
     64909     64905     64907     64909     64905     64906     64911     64915     64916
     64912     64911     64914     64912     64911     64913     64913     64911     64914
     64915     64911     64914     64915     64911     64913     64915     64911     64912
     64917     64921     64922     64918     64917     64920     64918     64917     64919
     64919     64917     64920     64921     64917     64920     64921     64917     64919
     64921     64917     64918     64923     64927     64928     64924     64923     64926
     64924     64923     64925     64925     64923     64926     64927     64923     64926
     64927     64923     64925     64927     64923     64924     64929     64933     64934
     64930     64929     64932     64930     64929     64931     64931     64929     64932
     64933     64929     64932     64933     64929     64931     64933     64929     64930
     64935     64939     64940     64936     64935     64938     64936     64935     64937
     64937     64935     64938     64939     64935     64938     64939     64935     64937
     64939     64935     64936     64941     64945     64946     64942     64941     64944
     64942     64941     64943     64943     64941     64944     64945     64941     64944
     64945     64941     64943     64945     64941     64942     64947     64951     64952
     64948     64947     64950     64948     64947     64949     64949     64947     64950
     64951     64947     64950     64951     64947     64949     64951     64947     64948
     64953     64957     64958     64954     64953     64956     64954     64953     64955
     64955     64953     64956     64957     64953     64956     64957     64953     64955
     64957     64953     64954     64959     64963     64964     64960     64959     64962
     64960     64959     64961     64961     64959     64962     64963     64959     64962
     64963     64959     64961     64963     64959     64960     64965     64969     64970
     64966     64965     64968     64966     64965     64967     64967     64965     64968
     64969     64965     64968     64969     64965     64967     64969     64965     64966
     64971     64975     64976     64972     64971     64974     64972     64971     64973
     64973     64971     64974     64975     64971     64974     64975     64971     64973
     64975     64971     64972     64977     64981     64982     64978     64977     64980
     64978     64977     64979     64979     64977     64980     64981     64977     64980
     64981     64977     64979     64981     64977     64978     64983     64987     64988
     64984     64983     64986     64984     64983     64985     64985     64983     64986
     64987     64983     64986     64987     64983     64985     64987     64983     64984
     64989     64993     64994     64990     64989     64992     64990     64989     64991
     64991     64989     64992     64993     64989     64992     64993     64989     64991
     64993     64989     64990     64995     64999     65000     64996     64995     64998
     64996     64995     64997     64997     64995     64998     64999     64995     64998
     64999     64995     64997     64999     64995     64996     65001     65005     65006
     65002     65001     65004     65002     65001     65003     65003     65001     65004
     65005     65001     65004     65005     65001     65003     65005     65001     65002
     65007     65011     65012     65008     65007     65010     65008     65007     65009
     65009     65007     65010     65011     65007     65010     65011     65007     65009
     65011     65007     65008     65013     65017     65018     65014     65013     65016
     65014     65013     65015     65015     65013     65016     65017     65013     65016
     65017     65013     65015     65017     65013     65014     65019     65023     65024
     65020     65019     65022     65020     65019     65021     65021     65019     65022
     65023     65019     65022     65023     65019     65021     65023     65019     65020
     65025     65029     65030     65026     65025     65028     65026     65025     65027
     65027     65025     65028     65029     65025     65028     65029     65025     65027
     65029     65025     65026     65031     65035     65036     65032     65031     65034
     65032     65031     65033     65033     65031     65034     65035     65031     65034
     65035     65031     65033     65035     65031     65032     65037     65041     65042
     65038     65037     65040     65038     65037     65039     65039     65037     65040
     65041     65037     65040     65041     65037     65039     65041     65037     65038
     65043     65047     65048     65044     65043     65046     65044     65043     65045
     65045     65043     65046     65047     65043     65046     65047     65043     65045
     65047     65043     65044     65049     65053     65054     65050     65049     65052
     65050     65049     65051     65051     65049     65052     65053     65049     65052
     65053     65049     65051     65053     65049     65050     65055     65059     65060
     65056     65055     65058     65056     65055     65057     65057     65055     65058
     65059     65055     65058     65059     65055     65057     65059     65055     65056
     65061     65065     65066     65062     65061     65064     65062     65061     65063
     65063     65061     65064     65065     65061     65064     65065     65061     65063
     65065     65061     65062     65067     65071     65072     65068     65067     65070
     65068     65067     65069     65069     65067     65070     65071     65067     65070
     65071     65067     65069     65071     65067     65068     65073     65077     65078
     65074     65073     65076     65074     65073     65075     65075     65073     65076
     65077     65073     65076     65077     65073     65075     65077     65073     65074
     65079     65083     65084     65080     65079     65082     65080     65079     65081
     65081     65079     65082     65083     65079     65082     65083     65079     65081
     65083     65079     65080     65085     65089     65090     65086     65085     65088
     65086     65085     65087     65087     65085     65088     65089     65085     65088
     65089     65085     65087     65089     65085     65086     65091     65095     65096
     65092     65091     65094     65092     65091     65093     65093     65091     65094
     65095     65091     65094     65095     65091     65093     65095     65091     65092
     65097     65101     65102     65098     65097     65100     65098     65097     65099
     65099     65097     65100     65101     65097     65100     65101     65097     65099
     65101     65097     65098     65103     65107     65108     65104     65103     65106
     65104     65103     65105     65105     65103     65106     65107     65103     65106
     65107     65103     65105     65107     65103     65104     65109     65113     65114
     65110     65109     65112     65110     65109     65111     65111     65109     65112
     65113     65109     65112     65113     65109     65111     65113     65109     65110
     65115     65119     65120     65116     65115     65118     65116     65115     65117
     65117     65115     65118     65119     65115     65118     65119     65115     65117
     65119     65115     65116     65121     65125     65126     65122     65121     65124
     65122     65121     65123     65123     65121     65124     65125     65121     65124
     65125     65121     65123     65125     65121     65122     65127     65131     65132
     65128     65127     65130     65128     65127     65129     65129     65127     65130
     65131     65127     65130     65131     65127     65129     65131     65127     65128
     65133     65137     65138     65134     65133     65136     65134     65133     65135
     65135     65133     65136     65137     65133     65136     65137     65133     65135
     65137     65133     65134     65139     65143     65144     65140     65139     65142
     65140     65139     65141     65141     65139     65142     65143     65139     65142
     65143     65139     65141     65143     65139     65140     65145     65149     65150
     65146     65145     65148     65146     65145     65147     65147     65145     65148
     65149     65145     65148     65149     65145     65147     65149     65145     65146
     65151     65155     65156     65152     65151     65154     65152     65151     65153
     65153     65151     65154     65155     65151     65154     65155     65151     65153
     65155     65151     65152     65157     65161     65162     65158     65157     65160
     65158     65157     65159     65159     65157     65160     65161     65157     65160
     65161     65157     65159     65161     65157     65158     65163     65167     65168
     65164     65163     65166     65164     65163     65165     65165     65163     65166
     65167     65163     65166     65167     65163     65165     65167     65163     65164
     65169     65173     65174     65170     65169     65172     65170     65169     65171
     65171     65169     65172     65173     65169     65172     65173     65169     65171
     65173     65169     65170     65175     65179     65180     65176     65175     65178
     65176     65175     65177     65177     65175     65178     65179     65175     65178
     65179     65175     65177     65179     65175     65176     65181     65185     65186
     65182     65181     65184     65182     65181     65183     65183     65181     65184
     65185     65181     65184     65185     65181     65183     65185     65181     65182
     65187     65191     65192     65188     65187     65190     65188     65187     65189
     65189     65187     65190     65191     65187     65190     65191     65187     65189
     65191     65187     65188     65193     65197     65198     65194     65193     65196
     65194     65193     65195     65195     65193     65196     65197     65193     65196
     65197     65193     65195     65197     65193     65194     65199     65203     65204
     65200     65199     65202     65200     65199     65201     65201     65199     65202
     65203     65199     65202     65203     65199     65201     65203     65199     65200
     65205     65209     65210     65206     65205     65208     65206     65205     65207
     65207     65205     65208     65209     65205     65208     65209     65205     65207
     65209     65205     65206     65211     65215     65216     65212     65211     65214
     65212     65211     65213     65213     65211     65214     65215     65211     65214
     65215     65211     65213     65215     65211     65212     65217     65221     65222
     65218     65217     65220     65218     65217     65219     65219     65217     65220
     65221     65217     65220     65221     65217     65219     65221     65217     65218
     65223     65227     65228     65224     65223     65226     65224     65223     65225
     65225     65223     65226     65227     65223     65226     65227     65223     65225
     65227     65223     65224     65229     65233     65234     65230     65229     65232
     65230     65229     65231     65231     65229     65232     65233     65229     65232
     65233     65229     65231     65233     65229     65230     65235     65239     65240
     65236     65235     65238     65236     65235     65237     65237     65235     65238
     65239     65235     65238     65239     65235     65237     65239     65235     65236
     65241     65245     65246     65242     65241     65244     65242     65241     65243
     65243     65241     65244     65245     65241     65244     65245     65241     65243
     65245     65241     65242     65247     65251     65252     65248     65247     65250
     65248     65247     65249     65249     65247     65250     65251     65247     65250
     65251     65247     65249     65251     65247     65248     65253     65257     65258
     65254     65253     65256     65254     65253     65255     65255     65253     65256
     65257     65253     65256     65257     65253     65255     65257     65253     65254
     65259     65263     65264     65260     65259     65262     65260     65259     65261
     65261     65259     65262     65263     65259     65262     65263     65259     65261
     65263     65259     65260     65265     65269     65270     65266     65265     65268
     65266     65265     65267     65267     65265     65268     65269     65265     65268
     65269     65265     65267     65269     65265     65266     65271     65275     65276
     65272     65271     65274     65272     65271     65273     65273     65271     65274
     65275     65271     65274     65275     65271     65273     65275     65271     65272
     65277     65281     65282     65278     65277     65280     65278     65277     65279
     65279     65277     65280     65281     65277     65280     65281     65277     65279
     65281     65277     65278     65283     65287     65288     65284     65283     65286
     65284     65283     65285     65285     65283     65286     65287     65283     65286
     65287     65283     65285     65287     65283     65284     65289     65293     65294
     65290     65289     65292     65290     65289     65291     65291     65289     65292
     65293     65289     65292     65293     65289     65291     65293     65289     65290
     65295     65299     65300     65296     65295     65298     65296     65295     65297
     65297     65295     65298     65299     65295     65298     65299     65295     65297
     65299     65295     65296     65301     65305     65306     65302     65301     65304
     65302     65301     65303     65303     65301     65304     65305     65301     65304
     65305     65301     65303     65305     65301     65302     65307     65311     65312
     65308     65307     65310     65308     65307     65309     65309     65307     65310
     65311     65307     65310     65311     65307     65309     65311     65307     65308
     65313     65317     65318     65314     65313     65316     65314     65313     65315
     65315     65313     65316     65317     65313     65316     65317     65313     65315
     65317     65313     65314     65319     65323     65324     65320     65319     65322
     65320     65319     65321     65321     65319     65322     65323     65319     65322
     65323     65319     65321     65323     65319     65320     65325     65329     65330
     65326     65325     65328     65326     65325     65327     65327     65325     65328
     65329     65325     65328     65329     65325     65327     65329     65325     65326
     65331     65335     65336     65332     65331     65334     65332     65331     65333
     65333     65331     65334     65335     65331     65334     65335     65331     65333
     65335     65331     65332     65337     65341     65342     65338     65337     65340
     65338     65337     65339     65339     65337     65340     65341     65337     65340
     65341     65337     65339     65341     65337     65338     65343     65347     65348
     65344     65343     65346     65344     65343     65345     65345     65343     65346
     65347     65343     65346     65347     65343     65345     65347     65343     65344
     65349     65353     65354     65350     65349     65352     65350     65349     65351
     65351     65349     65352     65353     65349     65352     65353     65349     65351
     65353     65349     65350     65355     65359     65360     65356     65355     65358
     65356     65355     65357     65357     65355     65358     65359     65355     65358
     65359     65355     65357     65359     65355     65356     65361     65365     65366
     65362     65361     65364     65362     65361     65363     65363     65361     65364
     65365     65361     65364     65365     65361     65363     65365     65361     65362
     65367     65371     65372     65368     65367     65370     65368     65367     65369
     65369     65367     65370     65371     65367     65370     65371     65367     65369
     65371     65367     65368     65373     65377     65378     65374     65373     65376
     65374     65373     65375     65375     65373     65376     65377     65373     65376
     65377     65373     65375     65377     65373     65374     65379     65383     65384
     65380     65379     65382     65380     65379     65381     65381     65379     65382
     65383     65379     65382     65383     65379     65381     65383     65379     65380
     65385     65389     65390     65386     65385     65388     65386     65385     65387
     65387     65385     65388     65389     65385     65388     65389     65385     65387
     65389     65385     65386     65391     65395     65396     65392     65391     65394
     65392     65391     65393     65393     65391     65394     65395     65391     65394
     65395     65391     65393     65395     65391     65392     65397     65401     65402
     65398     65397     65400     65398     65397     65399     65399     65397     65400
     65401     65397     65400     65401     65397     65399     65401     65397     65398
     65403     65407     65408     65404     65403     65406     65404     65403     65405
     65405     65403     65406     65407     65403     65406     65407     65403     65405
     65407     65403     65404     65409     65413     65414     65410     65409     65412
     65410     65409     65411     65411     65409     65412     65413     65409     65412
     65413     65409     65411     65413     65409     65410     65415     65419     65420
     65416     65415     65418     65416     65415     65417     65417     65415     65418
     65419     65415     65418     65419     65415     65417     65419     65415     65416
     65421     65425     65426     65422     65421     65424     65422     65421     65423
     65423     65421     65424     65425     65421     65424     65425     65421     65423
     65425     65421     65422     65427     65431     65432     65428     65427     65430
     65428     65427     65429     65429     65427     65430     65431     65427     65430
     65431     65427     65429     65431     65427     65428     65433     65437     65438
     65434     65433     65436     65434     65433     65435     65435     65433     65436
     65437     65433     65436     65437     65433     65435     65437     65433     65434
     65439     65443     65444     65440     65439     65442     65440     65439     65441
     65441     65439     65442     65443     65439     65442     65443     65439     65441
     65443     65439     65440     65445     65449     65450     65446     65445     65448
     65446     65445     65447     65447     65445     65448     65449     65445     65448
     65449     65445     65447     65449     65445     65446     65451     65455     65456
     65452     65451     65454     65452     65451     65453     65453     65451     65454
     65455     65451     65454     65455     65451     65453     65455     65451     65452
     65457     65461     65462     65458     65457     65460     65458     65457     65459
     65459     65457     65460     65461     65457     65460     65461     65457     65459
     65461     65457     65458     65463     65467     65468     65464     65463     65466
     65464     65463     65465     65465     65463     65466     65467     65463     65466
     65467     65463     65465     65467     65463     65464     65469     65473     65474
     65470     65469     65472     65470     65469     65471     65471     65469     65472
     65473     65469     65472     65473     65469     65471     65473     65469     65470
     65475     65479     65480     65476     65475     65478     65476     65475     65477
     65477     65475     65478     65479     65475     65478     65479     65475     65477
     65479     65475     65476     65481     65485     65486     65482     65481     65484
     65482     65481     65483     65483     65481     65484     65485     65481     65484
     65485     65481     65483     65485     65481     65482     65487     65491     65492
     65488     65487     65490     65488     65487     65489     65489     65487     65490
     65491     65487     65490     65491     65487     65489     65491     65487     65488
     65493     65497     65498     65494     65493     65496     65494     65493     65495
     65495     65493     65496     65497     65493     65496     65497     65493     65495
     65497     65493     65494     65499     65503     65504     65500     65499     65502
     65500     65499     65501     65501     65499     65502     65503     65499     65502
     65503     65499     65501     65503     65499     65500     65505     65509     65510
     65506     65505     65508     65506     65505     65507     65507     65505     65508
     65509     65505     65508     65509     65505     65507     65509     65505     65506
     65511     65515     65516     65512     65511     65514     65512     65511     65513
     65513     65511     65514     65515     65511     65514     65515     65511     65513
     65515     65511     65512     65517     65521     65522     65518     65517     65520
     65518     65517     65519     65519     65517     65520     65521     65517     65520
     65521     65517     65519     65521     65517     65518     65523     65527     65528
     65524     65523     65526     65524     65523     65525     65525     65523     65526
     65527     65523     65526     65527     65523     65525     65527     65523     65524
     65529     65533     65534     65530     65529     65532     65530     65529     65531
     65531     65529     65532     65533     65529     65532     65533     65529     65531
     65533     65529     65530     65535     65539     65540     65536     65535     65538
     65536     65535     65537     65537     65535     65538     65539     65535     65538
     65539     65535     65537     65539     65535     65536     65541     65545     65546
     65542     65541     65544     65542     65541     65543     65543     65541     65544
     65545     65541     65544     65545     65541     65543     65545     65541     65542
     65547     65551     65552     65548     65547     65550     65548     65547     65549
     65549     65547     65550     65551     65547     65550     65551     65547     65549
     65551     65547     65548     65553     65557     65558     65554     65553     65556
     65554     65553     65555     65555     65553     65556     65557     65553     65556
     65557     65553     65555     65557     65553     65554     65559     65563     65564
     65560     65559     65562     65560     65559     65561     65561     65559     65562
     65563     65559     65562     65563     65559     65561     65563     65559     65560
     65565     65569     65570     65566     65565     65568     65566     65565     65567
     65567     65565     65568     65569     65565     65568     65569     65565     65567
     65569     65565     65566     65571     65575     65576     65572     65571     65574
     65572     65571     65573     65573     65571     65574     65575     65571     65574
     65575     65571     65573     65575     65571     65572     65577     65581     65582
     65578     65577     65580     65578     65577     65579     65579     65577     65580
     65581     65577     65580     65581     65577     65579     65581     65577     65578
     65583     65587     65588     65584     65583     65586     65584     65583     65585
     65585     65583     65586     65587     65583     65586     65587     65583     65585
     65587     65583     65584     65589     65593     65594     65590     65589     65592
     65590     65589     65591     65591     65589     65592     65593     65589     65592
     65593     65589     65591     65593     65589     65590     65595     65599     65600
     65596     65595     65598     65596     65595     65597     65597     65595     65598
     65599     65595     65598     65599     65595     65597     65599     65595     65596
     65601     65605     65606     65602     65601     65604     65602     65601     65603
     65603     65601     65604     65605     65601     65604     65605     65601     65603
     65605     65601     65602     65607     65611     65612     65608     65607     65610
     65608     65607     65609     65609     65607     65610     65611     65607     65610
     65611     65607     65609     65611     65607     65608     65613     65617     65618
     65614     65613     65616     65614     65613     65615     65615     65613     65616
     65617     65613     65616     65617     65613     65615     65617     65613     65614
     65619     65623     65624     65620     65619     65622     65620     65619     65621
     65621     65619     65622     65623     65619     65622     65623     65619     65621
     65623     65619     65620     65625     65629     65630     65626     65625     65628
     65626     65625     65627     65627     65625     65628     65629     65625     65628
     65629     65625     65627     65629     65625     65626     65631     65635     65636
     65632     65631     65634     65632     65631     65633     65633     65631     65634
     65635     65631     65634     65635     65631     65633     65635     65631     65632
     65637     65641     65642     65638     65637     65640     65638     65637     65639
     65639     65637     65640     65641     65637     65640     65641     65637     65639
     65641     65637     65638     65643     65647     65648     65644     65643     65646
     65644     65643     65645     65645     65643     65646     65647     65643     65646
     65647     65643     65645     65647     65643     65644     65649     65653     65654
     65650     65649     65652     65650     65649     65651     65651     65649     65652
     65653     65649     65652     65653     65649     65651     65653     65649     65650
     65655     65659     65660     65656     65655     65658     65656     65655     65657
     65657     65655     65658     65659     65655     65658     65659     65655     65657
     65659     65655     65656     65661     65665     65666     65662     65661     65664
     65662     65661     65663     65663     65661     65664     65665     65661     65664
     65665     65661     65663     65665     65661     65662     65667     65671     65672
     65668     65667     65670     65668     65667     65669     65669     65667     65670
     65671     65667     65670     65671     65667     65669     65671     65667     65668
     65673     65677     65678     65674     65673     65676     65674     65673     65675
     65675     65673     65676     65677     65673     65676     65677     65673     65675
     65677     65673     65674     65679     65683     65684     65680     65679     65682
     65680     65679     65681     65681     65679     65682     65683     65679     65682
     65683     65679     65681     65683     65679     65680     65685     65689     65690
     65686     65685     65688     65686     65685     65687     65687     65685     65688
     65689     65685     65688     65689     65685     65687     65689     65685     65686
     65691     65695     65696     65692     65691     65694     65692     65691     65693
     65693     65691     65694     65695     65691     65694     65695     65691     65693
     65695     65691     65692     65697     65701     65702     65698     65697     65700
     65698     65697     65699     65699     65697     65700     65701     65697     65700
     65701     65697     65699     65701     65697     65698     65703     65707     65708
     65704     65703     65706     65704     65703     65705     65705     65703     65706
     65707     65703     65706     65707     65703     65705     65707     65703     65704
     65709     65713     65714     65710     65709     65712     65710     65709     65711
     65711     65709     65712     65713     65709     65712     65713     65709     65711
     65713     65709     65710     65715     65719     65720     65716     65715     65718
     65716     65715     65717     65717     65715     65718     65719     65715     65718
     65719     65715     65717     65719     65715     65716     65721     65725     65726
     65722     65721     65724     65722     65721     65723     65723     65721     65724
     65725     65721     65724     65725     65721     65723     65725     65721     65722
     65727     65731     65732     65728     65727     65730     65728     65727     65729
     65729     65727     65730     65731     65727     65730     65731     65727     65729
     65731     65727     65728     65733     65737     65738     65734     65733     65736
     65734     65733     65735     65735     65733     65736     65737     65733     65736
     65737     65733     65735     65737     65733     65734     65739     65743     65744
     65740     65739     65742     65740     65739     65741     65741     65739     65742
     65743     65739     65742     65743     65739     65741     65743     65739     65740
     65745     65749     65750     65746     65745     65748     65746     65745     65747
     65747     65745     65748     65749     65745     65748     65749     65745     65747
     65749     65745     65746     65751     65755     65756     65752     65751     65754
     65752     65751     65753     65753     65751     65754     65755     65751     65754
     65755     65751     65753     65755     65751     65752     65757     65761     65762
     65758     65757     65760     65758     65757     65759     65759     65757     65760
     65761     65757     65760     65761     65757     65759     65761     65757     65758
     65763     65767     65768     65764     65763     65766     65764     65763     65765
     65765     65763     65766     65767     65763     65766     65767     65763     65765
     65767     65763     65764     65769     65773     65774     65770     65769     65772
     65770     65769     65771     65771     65769     65772     65773     65769     65772
     65773     65769     65771     65773     65769     65770     65775     65779     65780
     65776     65775     65778     65776     65775     65777     65777     65775     65778
     65779     65775     65778     65779     65775     65777     65779     65775     65776
     65781     65785     65786     65782     65781     65784     65782     65781     65783
     65783     65781     65784     65785     65781     65784     65785     65781     65783
     65785     65781     65782     65787     65791     65792     65788     65787     65790
     65788     65787     65789     65789     65787     65790     65791     65787     65790
     65791     65787     65789     65791     65787     65788     65793     65797     65798
     65794     65793     65796     65794     65793     65795     65795     65793     65796
     65797     65793     65796     65797     65793     65795     65797     65793     65794
     65799     65803     65804     65800     65799     65802     65800     65799     65801
     65801     65799     65802     65803     65799     65802     65803     65799     65801
     65803     65799     65800     65805     65809     65810     65806     65805     65808
     65806     65805     65807     65807     65805     65808     65809     65805     65808
     65809     65805     65807     65809     65805     65806     65811     65815     65816
     65812     65811     65814     65812     65811     65813     65813     65811     65814
     65815     65811     65814     65815     65811     65813     65815     65811     65812
     65817     65821     65822     65818     65817     65820     65818     65817     65819
     65819     65817     65820     65821     65817     65820     65821     65817     65819
     65821     65817     65818     65823     65827     65828     65824     65823     65826
     65824     65823     65825     65825     65823     65826     65827     65823     65826
     65827     65823     65825     65827     65823     65824     65829     65833     65834
     65830     65829     65832     65830     65829     65831     65831     65829     65832
     65833     65829     65832     65833     65829     65831     65833     65829     65830
     65835     65839     65840     65836     65835     65838     65836     65835     65837
     65837     65835     65838     65839     65835     65838     65839     65835     65837
     65839     65835     65836     65841     65845     65846     65842     65841     65844
     65842     65841     65843     65843     65841     65844     65845     65841     65844
     65845     65841     65843     65845     65841     65842     65847     65851     65852
     65848     65847     65850     65848     65847     65849     65849     65847     65850
     65851     65847     65850     65851     65847     65849     65851     65847     65848
     65853     65857     65858     65854     65853     65856     65854     65853     65855
     65855     65853     65856     65857     65853     65856     65857     65853     65855
     65857     65853     65854     65859     65863     65864     65860     65859     65862
     65860     65859     65861     65861     65859     65862     65863     65859     65862
     65863     65859     65861     65863     65859     65860     65865     65869     65870
     65866     65865     65868     65866     65865     65867     65867     65865     65868
     65869     65865     65868     65869     65865     65867     65869     65865     65866
     65871     65875     65876     65872     65871     65874     65872     65871     65873
     65873     65871     65874     65875     65871     65874     65875     65871     65873
     65875     65871     65872     65877     65881     65882     65878     65877     65880
     65878     65877     65879     65879     65877     65880     65881     65877     65880
     65881     65877     65879     65881     65877     65878     65883     65887     65888
     65884     65883     65886     65884     65883     65885     65885     65883     65886
     65887     65883     65886     65887     65883     65885     65887     65883     65884
     65889     65893     65894     65890     65889     65892     65890     65889     65891
     65891     65889     65892     65893     65889     65892     65893     65889     65891
     65893     65889     65890     65895     65899     65900     65896     65895     65898
     65896     65895     65897     65897     65895     65898     65899     65895     65898
     65899     65895     65897     65899     65895     65896     65901     65905     65906
     65902     65901     65904     65902     65901     65903     65903     65901     65904
     65905     65901     65904     65905     65901     65903     65905     65901     65902
     65907     65911     65912     65908     65907     65910     65908     65907     65909
     65909     65907     65910     65911     65907     65910     65911     65907     65909
     65911     65907     65908     65913     65917     65918     65914     65913     65916
     65914     65913     65915     65915     65913     65916     65917     65913     65916
     65917     65913     65915     65917     65913     65914     65919     65923     65924
     65920     65919     65922     65920     65919     65921     65921     65919     65922
     65923     65919     65922     65923     65919     65921     65923     65919     65920
     65925     65929     65930     65926     65925     65928     65926     65925     65927
     65927     65925     65928     65929     65925     65928     65929     65925     65927
     65929     65925     65926     65931     65935     65936     65932     65931     65934
     65932     65931     65933     65933     65931     65934     65935     65931     65934
     65935     65931     65933     65935     65931     65932     65937     65941     65942
     65938     65937     65940     65938     65937     65939     65939     65937     65940
     65941     65937     65940     65941     65937     65939     65941     65937     65938
     65943     65947     65948     65944     65943     65946     65944     65943     65945
     65945     65943     65946     65947     65943     65946     65947     65943     65945
     65947     65943     65944     65949     65953     65954     65950     65949     65952
     65950     65949     65951     65951     65949     65952     65953     65949     65952
     65953     65949     65951     65953     65949     65950     65955     65959     65960
     65956     65955     65958     65956     65955     65957     65957     65955     65958
     65959     65955     65958     65959     65955     65957     65959     65955     65956
     65961     65965     65966     65962     65961     65964     65962     65961     65963
     65963     65961     65964     65965     65961     65964     65965     65961     65963
     65965     65961     65962     65967     65971     65972     65968     65967     65970
     65968     65967     65969     65969     65967     65970     65971     65967     65970
     65971     65967     65969     65971     65967     65968     65973     65977     65978
     65974     65973     65976     65974     65973     65975     65975     65973     65976
     65977     65973     65976     65977     65973     65975     65977     65973     65974
     65979     65983     65984     65980     65979     65982     65980     65979     65981
     65981     65979     65982     65983     65979     65982     65983     65979     65981
     65983     65979     65980     65985     65989     65990     65986     65985     65988
     65986     65985     65987     65987     65985     65988     65989     65985     65988
     65989     65985     65987     65989     65985     65986     65991     65995     65996
     65992     65991     65994     65992     65991     65993     65993     65991     65994
     65995     65991     65994     65995     65991     65993     65995     65991     65992
     65997     66001     66002     65998     65997     66000     65998     65997     65999
     65999     65997     66000     66001     65997     66000     66001     65997     65999
     66001     65997     65998     66003     66007     66008     66004     66003     66006
     66004     66003     66005     66005     66003     66006     66007     66003     66006
     66007     66003     66005     66007     66003     66004     66009     66013     66014
     66010     66009     66012     66010     66009     66011     66011     66009     66012
     66013     66009     66012     66013     66009     66011     66013     66009     66010
     66015     66019     66020     66016     66015     66018     66016     66015     66017
     66017     66015     66018     66019     66015     66018     66019     66015     66017
     66019     66015     66016     66021     66025     66026     66022     66021     66024
     66022     66021     66023     66023     66021     66024     66025     66021     66024
     66025     66021     66023     66025     66021     66022     66027     66031     66032
     66028     66027     66030     66028     66027     66029     66029     66027     66030
     66031     66027     66030     66031     66027     66029     66031     66027     66028
     66033     66037     66038     66034     66033     66036     66034     66033     66035
     66035     66033     66036     66037     66033     66036     66037     66033     66035
     66037     66033     66034     66039     66043     66044     66040     66039     66042
     66040     66039     66041     66041     66039     66042     66043     66039     66042
     66043     66039     66041     66043     66039     66040     66045     66049     66050
     66046     66045     66048     66046     66045     66047     66047     66045     66048
     66049     66045     66048     66049     66045     66047     66049     66045     66046
     66051     66055     66056     66052     66051     66054     66052     66051     66053
     66053     66051     66054     66055     66051     66054     66055     66051     66053
     66055     66051     66052     66057     66061     66062     66058     66057     66060
     66058     66057     66059     66059     66057     66060     66061     66057     66060
     66061     66057     66059     66061     66057     66058     66063     66067     66068
     66064     66063     66066     66064     66063     66065     66065     66063     66066
     66067     66063     66066     66067     66063     66065     66067     66063     66064
     66069     66073     66074     66070     66069     66072     66070     66069     66071
     66071     66069     66072     66073     66069     66072     66073     66069     66071
     66073     66069     66070     66075     66079     66080     66076     66075     66078
     66076     66075     66077     66077     66075     66078     66079     66075     66078
     66079     66075     66077     66079     66075     66076     66081     66085     66086
     66082     66081     66084     66082     66081     66083     66083     66081     66084
     66085     66081     66084     66085     66081     66083     66085     66081     66082
     66087     66091     66092     66088     66087     66090     66088     66087     66089
     66089     66087     66090     66091     66087     66090     66091     66087     66089
     66091     66087     66088     66093     66097     66098     66094     66093     66096
     66094     66093     66095     66095     66093     66096     66097     66093     66096
     66097     66093     66095     66097     66093     66094     66099     66103     66104
     66100     66099     66102     66100     66099     66101     66101     66099     66102
     66103     66099     66102     66103     66099     66101     66103     66099     66100
     66105     66109     66110     66106     66105     66108     66106     66105     66107
     66107     66105     66108     66109     66105     66108     66109     66105     66107
     66109     66105     66106     66111     66115     66116     66112     66111     66114
     66112     66111     66113     66113     66111     66114     66115     66111     66114
     66115     66111     66113     66115     66111     66112     66117     66121     66122
     66118     66117     66120     66118     66117     66119     66119     66117     66120
     66121     66117     66120     66121     66117     66119     66121     66117     66118
     66123     66127     66128     66124     66123     66126     66124     66123     66125
     66125     66123     66126     66127     66123     66126     66127     66123     66125
     66127     66123     66124     66129     66133     66134     66130     66129     66132
     66130     66129     66131     66131     66129     66132     66133     66129     66132
     66133     66129     66131     66133     66129     66130     66135     66139     66140
     66136     66135     66138     66136     66135     66137     66137     66135     66138
     66139     66135     66138     66139     66135     66137     66139     66135     66136
     66141     66145     66146     66142     66141     66144     66142     66141     66143
     66143     66141     66144     66145     66141     66144     66145     66141     66143
     66145     66141     66142     66147     66151     66152     66148     66147     66150
     66148     66147     66149     66149     66147     66150     66151     66147     66150
     66151     66147     66149     66151     66147     66148     66153     66157     66158
     66154     66153     66156     66154     66153     66155     66155     66153     66156
     66157     66153     66156     66157     66153     66155     66157     66153     66154
     66159     66163     66164     66160     66159     66162     66160     66159     66161
     66161     66159     66162     66163     66159     66162     66163     66159     66161
     66163     66159     66160     66165     66169     66170     66166     66165     66168
     66166     66165     66167     66167     66165     66168     66169     66165     66168
     66169     66165     66167     66169     66165     66166     66171     66175     66176
     66172     66171     66174     66172     66171     66173     66173     66171     66174
     66175     66171     66174     66175     66171     66173     66175     66171     66172
     66177     66181     66182     66178     66177     66180     66178     66177     66179
     66179     66177     66180     66181     66177     66180     66181     66177     66179
     66181     66177     66178     66183     66187     66188     66184     66183     66186
     66184     66183     66185     66185     66183     66186     66187     66183     66186
     66187     66183     66185     66187     66183     66184     66189     66193     66194
     66190     66189     66192     66190     66189     66191     66191     66189     66192
     66193     66189     66192     66193     66189     66191     66193     66189     66190
     66195     66199     66200     66196     66195     66198     66196     66195     66197
     66197     66195     66198     66199     66195     66198     66199     66195     66197
     66199     66195     66196     66201     66205     66206     66202     66201     66204
     66202     66201     66203     66203     66201     66204     66205     66201     66204
     66205     66201     66203     66205     66201     66202     66207     66211     66212
     66208     66207     66210     66208     66207     66209     66209     66207     66210
     66211     66207     66210     66211     66207     66209     66211     66207     66208
     66213     66217     66218     66214     66213     66216     66214     66213     66215
     66215     66213     66216     66217     66213     66216     66217     66213     66215
     66217     66213     66214     66219     66223     66224     66220     66219     66222
     66220     66219     66221     66221     66219     66222     66223     66219     66222
     66223     66219     66221     66223     66219     66220     66225     66229     66230
     66226     66225     66228     66226     66225     66227     66227     66225     66228
     66229     66225     66228     66229     66225     66227     66229     66225     66226
     66231     66235     66236     66232     66231     66234     66232     66231     66233
     66233     66231     66234     66235     66231     66234     66235     66231     66233
     66235     66231     66232     66237     66241     66242     66238     66237     66240
     66238     66237     66239     66239     66237     66240     66241     66237     66240
     66241     66237     66239     66241     66237     66238     66243     66247     66248
     66244     66243     66246     66244     66243     66245     66245     66243     66246
     66247     66243     66246     66247     66243     66245     66247     66243     66244
     66249     66253     66254     66250     66249     66252     66250     66249     66251
     66251     66249     66252     66253     66249     66252     66253     66249     66251
     66253     66249     66250     66255     66259     66260     66256     66255     66258
     66256     66255     66257     66257     66255     66258     66259     66255     66258
     66259     66255     66257     66259     66255     66256     66261     66265     66266
     66262     66261     66264     66262     66261     66263     66263     66261     66264
     66265     66261     66264     66265     66261     66263     66265     66261     66262
     66267     66271     66272     66268     66267     66270     66268     66267     66269
     66269     66267     66270     66271     66267     66270     66271     66267     66269
     66271     66267     66268     66273     66277     66278     66274     66273     66276
     66274     66273     66275     66275     66273     66276     66277     66273     66276
     66277     66273     66275     66277     66273     66274     66279     66283     66284
     66280     66279     66282     66280     66279     66281     66281     66279     66282
     66283     66279     66282     66283     66279     66281     66283     66279     66280
     66285     66289     66290     66286     66285     66288     66286     66285     66287
     66287     66285     66288     66289     66285     66288     66289     66285     66287
     66289     66285     66286     66291     66295     66296     66292     66291     66294
     66292     66291     66293     66293     66291     66294     66295     66291     66294
     66295     66291     66293     66295     66291     66292     66297     66301     66302
     66298     66297     66300     66298     66297     66299     66299     66297     66300
     66301     66297     66300     66301     66297     66299     66301     66297     66298
     66303     66307     66308     66304     66303     66306     66304     66303     66305
     66305     66303     66306     66307     66303     66306     66307     66303     66305
     66307     66303     66304     66309     66313     66314     66310     66309     66312
     66310     66309     66311     66311     66309     66312     66313     66309     66312
     66313     66309     66311     66313     66309     66310     66315     66319     66320
     66316     66315     66318     66316     66315     66317     66317     66315     66318
     66319     66315     66318     66319     66315     66317     66319     66315     66316
     66321     66325     66326     66322     66321     66324     66322     66321     66323
     66323     66321     66324     66325     66321     66324     66325     66321     66323
     66325     66321     66322     66327     66331     66332     66328     66327     66330
     66328     66327     66329     66329     66327     66330     66331     66327     66330
     66331     66327     66329     66331     66327     66328     66333     66337     66338
     66334     66333     66336     66334     66333     66335     66335     66333     66336
     66337     66333     66336     66337     66333     66335     66337     66333     66334
     66339     66343     66344     66340     66339     66342     66340     66339     66341
     66341     66339     66342     66343     66339     66342     66343     66339     66341
     66343     66339     66340     66345     66349     66350     66346     66345     66348
     66346     66345     66347     66347     66345     66348     66349     66345     66348
     66349     66345     66347     66349     66345     66346     66351     66355     66356
     66352     66351     66354     66352     66351     66353     66353     66351     66354
     66355     66351     66354     66355     66351     66353     66355     66351     66352
     66357     66361     66362     66358     66357     66360     66358     66357     66359
     66359     66357     66360     66361     66357     66360     66361     66357     66359
     66361     66357     66358     66363     66367     66368     66364     66363     66366
     66364     66363     66365     66365     66363     66366     66367     66363     66366
     66367     66363     66365     66367     66363     66364     66369     66373     66374
     66370     66369     66372     66370     66369     66371     66371     66369     66372
     66373     66369     66372     66373     66369     66371     66373     66369     66370
     66375     66379     66380     66376     66375     66378     66376     66375     66377
     66377     66375     66378     66379     66375     66378     66379     66375     66377
     66379     66375     66376     66381     66385     66386     66382     66381     66384
     66382     66381     66383     66383     66381     66384     66385     66381     66384
     66385     66381     66383     66385     66381     66382     66387     66391     66392
     66388     66387     66390     66388     66387     66389     66389     66387     66390
     66391     66387     66390     66391     66387     66389     66391     66387     66388
     66393     66397     66398     66394     66393     66396     66394     66393     66395
     66395     66393     66396     66397     66393     66396     66397     66393     66395
     66397     66393     66394     66399     66403     66404     66400     66399     66402
     66400     66399     66401     66401     66399     66402     66403     66399     66402
     66403     66399     66401     66403     66399     66400     66405     66409     66410
     66406     66405     66408     66406     66405     66407     66407     66405     66408
     66409     66405     66408     66409     66405     66407     66409     66405     66406
     66411     66415     66416     66412     66411     66414     66412     66411     66413
     66413     66411     66414     66415     66411     66414     66415     66411     66413
     66415     66411     66412     66417     66421     66422     66418     66417     66420
     66418     66417     66419     66419     66417     66420     66421     66417     66420
     66421     66417     66419     66421     66417     66418     66423     66427     66428
     66424     66423     66426     66424     66423     66425     66425     66423     66426
     66427     66423     66426     66427     66423     66425     66427     66423     66424
     66429     66433     66434     66430     66429     66432     66430     66429     66431
     66431     66429     66432     66433     66429     66432     66433     66429     66431
     66433     66429     66430     66435     66439     66440     66436     66435     66438
     66436     66435     66437     66437     66435     66438     66439     66435     66438
     66439     66435     66437     66439     66435     66436     66441     66445     66446
     66442     66441     66444     66442     66441     66443     66443     66441     66444
     66445     66441     66444     66445     66441     66443     66445     66441     66442
     66447     66451     66452     66448     66447     66450     66448     66447     66449
     66449     66447     66450     66451     66447     66450     66451     66447     66449
     66451     66447     66448     66453     66457     66458     66454     66453     66456
     66454     66453     66455     66455     66453     66456     66457     66453     66456
     66457     66453     66455     66457     66453     66454     66459     66463     66464
     66460     66459     66462     66460     66459     66461     66461     66459     66462
     66463     66459     66462     66463     66459     66461     66463     66459     66460
     66465     66469     66470     66466     66465     66468     66466     66465     66467
     66467     66465     66468     66469     66465     66468     66469     66465     66467
     66469     66465     66466     66471     66475     66476     66472     66471     66474
     66472     66471     66473     66473     66471     66474     66475     66471     66474
     66475     66471     66473     66475     66471     66472     66477     66481     66482
     66478     66477     66480     66478     66477     66479     66479     66477     66480
     66481     66477     66480     66481     66477     66479     66481     66477     66478
     66483     66487     66488     66484     66483     66486     66484     66483     66485
     66485     66483     66486     66487     66483     66486     66487     66483     66485
     66487     66483     66484     66489     66493     66494     66490     66489     66492
     66490     66489     66491     66491     66489     66492     66493     66489     66492
     66493     66489     66491     66493     66489     66490     66495     66499     66500
     66496     66495     66498     66496     66495     66497     66497     66495     66498
     66499     66495     66498     66499     66495     66497     66499     66495     66496
     66501     66505     66506     66502     66501     66504     66502     66501     66503
     66503     66501     66504     66505     66501     66504     66505     66501     66503
     66505     66501     66502     66507     66511     66512     66508     66507     66510
     66508     66507     66509     66509     66507     66510     66511     66507     66510
     66511     66507     66509     66511     66507     66508     66513     66517     66518
     66514     66513     66516     66514     66513     66515     66515     66513     66516
     66517     66513     66516     66517     66513     66515     66517     66513     66514
     66519     66523     66524     66520     66519     66522     66520     66519     66521
     66521     66519     66522     66523     66519     66522     66523     66519     66521
     66523     66519     66520     66525     66529     66530     66526     66525     66528
     66526     66525     66527     66527     66525     66528     66529     66525     66528
     66529     66525     66527     66529     66525     66526     66531     66535     66536
     66532     66531     66534     66532     66531     66533     66533     66531     66534
     66535     66531     66534     66535     66531     66533     66535     66531     66532
     66537     66541     66542     66538     66537     66540     66538     66537     66539
     66539     66537     66540     66541     66537     66540     66541     66537     66539
     66541     66537     66538     66543     66547     66548     66544     66543     66546
     66544     66543     66545     66545     66543     66546     66547     66543     66546
     66547     66543     66545     66547     66543     66544     66549     66553     66554
     66550     66549     66552     66550     66549     66551     66551     66549     66552
     66553     66549     66552     66553     66549     66551     66553     66549     66550
     66555     66559     66560     66556     66555     66558     66556     66555     66557
     66557     66555     66558     66559     66555     66558     66559     66555     66557
     66559     66555     66556     66561     66565     66566     66562     66561     66564
     66562     66561     66563     66563     66561     66564     66565     66561     66564
     66565     66561     66563     66565     66561     66562     66567     66571     66572
     66568     66567     66570     66568     66567     66569     66569     66567     66570
     66571     66567     66570     66571     66567     66569     66571     66567     66568
     66573     66577     66578     66574     66573     66576     66574     66573     66575
     66575     66573     66576     66577     66573     66576     66577     66573     66575
     66577     66573     66574     66579     66583     66584     66580     66579     66582
     66580     66579     66581     66581     66579     66582     66583     66579     66582
     66583     66579     66581     66583     66579     66580     66585     66589     66590
     66586     66585     66588     66586     66585     66587     66587     66585     66588
     66589     66585     66588     66589     66585     66587     66589     66585     66586
     66591     66595     66596     66592     66591     66594     66592     66591     66593
     66593     66591     66594     66595     66591     66594     66595     66591     66593
     66595     66591     66592     66597     66601     66602     66598     66597     66600
     66598     66597     66599     66599     66597     66600     66601     66597     66600
     66601     66597     66599     66601     66597     66598     66603     66607     66608
     66604     66603     66606     66604     66603     66605     66605     66603     66606
     66607     66603     66606     66607     66603     66605     66607     66603     66604
     66609     66613     66614     66610     66609     66612     66610     66609     66611
     66611     66609     66612     66613     66609     66612     66613     66609     66611
     66613     66609     66610     66615     66619     66620     66616     66615     66618
     66616     66615     66617     66617     66615     66618     66619     66615     66618
     66619     66615     66617     66619     66615     66616     66621     66625     66626
     66622     66621     66624     66622     66621     66623     66623     66621     66624
     66625     66621     66624     66625     66621     66623     66625     66621     66622
     66627     66631     66632     66628     66627     66630     66628     66627     66629
     66629     66627     66630     66631     66627     66630     66631     66627     66629
     66631     66627     66628     66633     66637     66638     66634     66633     66636
     66634     66633     66635     66635     66633     66636     66637     66633     66636
     66637     66633     66635     66637     66633     66634     66639     66643     66644
     66640     66639     66642     66640     66639     66641     66641     66639     66642
     66643     66639     66642     66643     66639     66641     66643     66639     66640
     66645     66649     66650     66646     66645     66648     66646     66645     66647
     66647     66645     66648     66649     66645     66648     66649     66645     66647
     66649     66645     66646     66651     66655     66656     66652     66651     66654
     66652     66651     66653     66653     66651     66654     66655     66651     66654
     66655     66651     66653     66655     66651     66652     66657     66661     66662
     66658     66657     66660     66658     66657     66659     66659     66657     66660
     66661     66657     66660     66661     66657     66659     66661     66657     66658
     66663     66667     66668     66664     66663     66666     66664     66663     66665
     66665     66663     66666     66667     66663     66666     66667     66663     66665
     66667     66663     66664     66669     66673     66674     66670     66669     66672
     66670     66669     66671     66671     66669     66672     66673     66669     66672
     66673     66669     66671     66673     66669     66670     66675     66679     66680
     66676     66675     66678     66676     66675     66677     66677     66675     66678
     66679     66675     66678     66679     66675     66677     66679     66675     66676
     66681     66685     66686     66682     66681     66684     66682     66681     66683
     66683     66681     66684     66685     66681     66684     66685     66681     66683
     66685     66681     66682     66687     66691     66692     66688     66687     66690
     66688     66687     66689     66689     66687     66690     66691     66687     66690
     66691     66687     66689     66691     66687     66688     66693     66697     66698
     66694     66693     66696     66694     66693     66695     66695     66693     66696
     66697     66693     66696     66697     66693     66695     66697     66693     66694
     66699     66703     66704     66700     66699     66702     66700     66699     66701
     66701     66699     66702     66703     66699     66702     66703     66699     66701
     66703     66699     66700     66705     66709     66710     66706     66705     66708
     66706     66705     66707     66707     66705     66708     66709     66705     66708
     66709     66705     66707     66709     66705     66706     66711     66715     66716
     66712     66711     66714     66712     66711     66713     66713     66711     66714
     66715     66711     66714     66715     66711     66713     66715     66711     66712
     66717     66721     66722     66718     66717     66720     66718     66717     66719
     66719     66717     66720     66721     66717     66720     66721     66717     66719
     66721     66717     66718     66723     66727     66728     66724     66723     66726
     66724     66723     66725     66725     66723     66726     66727     66723     66726
     66727     66723     66725     66727     66723     66724     66729     66733     66734
     66730     66729     66732     66730     66729     66731     66731     66729     66732
     66733     66729     66732     66733     66729     66731     66733     66729     66730
     66735     66739     66740     66736     66735     66738     66736     66735     66737
     66737     66735     66738     66739     66735     66738     66739     66735     66737
     66739     66735     66736     66741     66745     66746     66742     66741     66744
     66742     66741     66743     66743     66741     66744     66745     66741     66744
     66745     66741     66743     66745     66741     66742     66747     66751     66752
     66748     66747     66750     66748     66747     66749     66749     66747     66750
     66751     66747     66750     66751     66747     66749     66751     66747     66748
     66753     66757     66758     66754     66753     66756     66754     66753     66755
     66755     66753     66756     66757     66753     66756     66757     66753     66755
     66757     66753     66754     66759     66763     66764     66760     66759     66762
     66760     66759     66761     66761     66759     66762     66763     66759     66762
     66763     66759     66761     66763     66759     66760     66765     66769     66770
     66766     66765     66768     66766     66765     66767     66767     66765     66768
     66769     66765     66768     66769     66765     66767     66769     66765     66766
     66771     66775     66776     66772     66771     66774     66772     66771     66773
     66773     66771     66774     66775     66771     66774     66775     66771     66773
     66775     66771     66772     66777     66781     66782     66778     66777     66780
     66778     66777     66779     66779     66777     66780     66781     66777     66780
     66781     66777     66779     66781     66777     66778     66783     66787     66788
     66784     66783     66786     66784     66783     66785     66785     66783     66786
     66787     66783     66786     66787     66783     66785     66787     66783     66784
     66789     66793     66794     66790     66789     66792     66790     66789     66791
     66791     66789     66792     66793     66789     66792     66793     66789     66791
     66793     66789     66790     66795     66799     66800     66796     66795     66798
     66796     66795     66797     66797     66795     66798     66799     66795     66798
     66799     66795     66797     66799     66795     66796     66801     66805     66806
     66802     66801     66804     66802     66801     66803     66803     66801     66804
     66805     66801     66804     66805     66801     66803     66805     66801     66802
     66807     66811     66812     66808     66807     66810     66808     66807     66809
     66809     66807     66810     66811     66807     66810     66811     66807     66809
     66811     66807     66808     66813     66817     66818     66814     66813     66816
     66814     66813     66815     66815     66813     66816     66817     66813     66816
     66817     66813     66815     66817     66813     66814     66819     66823     66824
     66820     66819     66822     66820     66819     66821     66821     66819     66822
     66823     66819     66822     66823     66819     66821     66823     66819     66820
     66825     66829     66830     66826     66825     66828     66826     66825     66827
     66827     66825     66828     66829     66825     66828     66829     66825     66827
     66829     66825     66826     66831     66835     66836     66832     66831     66834
     66832     66831     66833     66833     66831     66834     66835     66831     66834
     66835     66831     66833     66835     66831     66832     66837     66841     66842
     66838     66837     66840     66838     66837     66839     66839     66837     66840
     66841     66837     66840     66841     66837     66839     66841     66837     66838
     66843     66847     66848     66844     66843     66846     66844     66843     66845
     66845     66843     66846     66847     66843     66846     66847     66843     66845
     66847     66843     66844     66849     66853     66854     66850     66849     66852
     66850     66849     66851     66851     66849     66852     66853     66849     66852
     66853     66849     66851     66853     66849     66850     66855     66859     66860
     66856     66855     66858     66856     66855     66857     66857     66855     66858
     66859     66855     66858     66859     66855     66857     66859     66855     66856
     66861     66865     66866     66862     66861     66864     66862     66861     66863
     66863     66861     66864     66865     66861     66864     66865     66861     66863
     66865     66861     66862     66867     66871     66872     66868     66867     66870
     66868     66867     66869     66869     66867     66870     66871     66867     66870
     66871     66867     66869     66871     66867     66868     66873     66877     66878
     66874     66873     66876     66874     66873     66875     66875     66873     66876
     66877     66873     66876     66877     66873     66875     66877     66873     66874
     66879     66883     66884     66880     66879     66882     66880     66879     66881
     66881     66879     66882     66883     66879     66882     66883     66879     66881
     66883     66879     66880     66885     66889     66890     66886     66885     66888
     66886     66885     66887     66887     66885     66888     66889     66885     66888
     66889     66885     66887     66889     66885     66886     66891     66895     66896
     66892     66891     66894     66892     66891     66893     66893     66891     66894
     66895     66891     66894     66895     66891     66893     66895     66891     66892
     66897     66901     66902     66898     66897     66900     66898     66897     66899
     66899     66897     66900     66901     66897     66900     66901     66897     66899
     66901     66897     66898     66903     66907     66908     66904     66903     66906
     66904     66903     66905     66905     66903     66906     66907     66903     66906
     66907     66903     66905     66907     66903     66904     66909     66913     66914
     66910     66909     66912     66910     66909     66911     66911     66909     66912
     66913     66909     66912     66913     66909     66911     66913     66909     66910
     66915     66919     66920     66916     66915     66918     66916     66915     66917
     66917     66915     66918     66919     66915     66918     66919     66915     66917
     66919     66915     66916     66921     66925     66926     66922     66921     66924
     66922     66921     66923     66923     66921     66924     66925     66921     66924
     66925     66921     66923     66925     66921     66922     66927     66931     66932
     66928     66927     66930     66928     66927     66929     66929     66927     66930
     66931     66927     66930     66931     66927     66929     66931     66927     66928
     66933     66937     66938     66934     66933     66936     66934     66933     66935
     66935     66933     66936     66937     66933     66936     66937     66933     66935
     66937     66933     66934     66939     66943     66944     66940     66939     66942
     66940     66939     66941     66941     66939     66942     66943     66939     66942
     66943     66939     66941     66943     66939     66940     66945     66949     66950
     66946     66945     66948     66946     66945     66947     66947     66945     66948
     66949     66945     66948     66949     66945     66947     66949     66945     66946
     66951     66955     66956     66952     66951     66954     66952     66951     66953
     66953     66951     66954     66955     66951     66954     66955     66951     66953
     66955     66951     66952     66957     66961     66962     66958     66957     66960
     66958     66957     66959     66959     66957     66960     66961     66957     66960
     66961     66957     66959     66961     66957     66958     66963     66967     66968
     66964     66963     66966     66964     66963     66965     66965     66963     66966
     66967     66963     66966     66967     66963     66965     66967     66963     66964
     66969     66973     66974     66970     66969     66972     66970     66969     66971
     66971     66969     66972     66973     66969     66972     66973     66969     66971
     66973     66969     66970     66975     66979     66980     66976     66975     66978
     66976     66975     66977     66977     66975     66978     66979     66975     66978
     66979     66975     66977     66979     66975     66976     66981     66985     66986
     66982     66981     66984     66982     66981     66983     66983     66981     66984
     66985     66981     66984     66985     66981     66983     66985     66981     66982
     66987     66991     66992     66988     66987     66990     66988     66987     66989
     66989     66987     66990     66991     66987     66990     66991     66987     66989
     66991     66987     66988     66993     66997     66998     66994     66993     66996
     66994     66993     66995     66995     66993     66996     66997     66993     66996
     66997     66993     66995     66997     66993     66994     66999     67003     67004
     67000     66999     67002     67000     66999     67001     67001     66999     67002
     67003     66999     67002     67003     66999     67001     67003     66999     67000
     67005     67009     67010     67006     67005     67008     67006     67005     67007
     67007     67005     67008     67009     67005     67008     67009     67005     67007
     67009     67005     67006     67011     67015     67016     67012     67011     67014
     67012     67011     67013     67013     67011     67014     67015     67011     67014
     67015     67011     67013     67015     67011     67012     67017     67021     67022
     67018     67017     67020     67018     67017     67019     67019     67017     67020
     67021     67017     67020     67021     67017     67019     67021     67017     67018
     67023     67027     67028     67024     67023     67026     67024     67023     67025
     67025     67023     67026     67027     67023     67026     67027     67023     67025
     67027     67023     67024     67029     67033     67034     67030     67029     67032
     67030     67029     67031     67031     67029     67032     67033     67029     67032
     67033     67029     67031     67033     67029     67030     67035     67039     67040
     67036     67035     67038     67036     67035     67037     67037     67035     67038
     67039     67035     67038     67039     67035     67037     67039     67035     67036
     67041     67045     67046     67042     67041     67044     67042     67041     67043
     67043     67041     67044     67045     67041     67044     67045     67041     67043
     67045     67041     67042     67047     67051     67052     67048     67047     67050
     67048     67047     67049     67049     67047     67050     67051     67047     67050
     67051     67047     67049     67051     67047     67048     67053     67057     67058
     67054     67053     67056     67054     67053     67055     67055     67053     67056
     67057     67053     67056     67057     67053     67055     67057     67053     67054
     67059     67063     67064     67060     67059     67062     67060     67059     67061
     67061     67059     67062     67063     67059     67062     67063     67059     67061
     67063     67059     67060     67065     67069     67070     67066     67065     67068
     67066     67065     67067     67067     67065     67068     67069     67065     67068
     67069     67065     67067     67069     67065     67066     67071     67075     67076
     67072     67071     67074     67072     67071     67073     67073     67071     67074
     67075     67071     67074     67075     67071     67073     67075     67071     67072
     67077     67081     67082     67078     67077     67080     67078     67077     67079
     67079     67077     67080     67081     67077     67080     67081     67077     67079
     67081     67077     67078     67083     67087     67088     67084     67083     67086
     67084     67083     67085     67085     67083     67086     67087     67083     67086
     67087     67083     67085     67087     67083     67084     67089     67093     67094
     67090     67089     67092     67090     67089     67091     67091     67089     67092
     67093     67089     67092     67093     67089     67091     67093     67089     67090
     67095     67099     67100     67096     67095     67098     67096     67095     67097
     67097     67095     67098     67099     67095     67098     67099     67095     67097
     67099     67095     67096     67101     67105     67106     67102     67101     67104
     67102     67101     67103     67103     67101     67104     67105     67101     67104
     67105     67101     67103     67105     67101     67102     67107     67111     67112
     67108     67107     67110     67108     67107     67109     67109     67107     67110
     67111     67107     67110     67111     67107     67109     67111     67107     67108
     67113     67117     67118     67114     67113     67116     67114     67113     67115
     67115     67113     67116     67117     67113     67116     67117     67113     67115
     67117     67113     67114     67119     67123     67124     67120     67119     67122
     67120     67119     67121     67121     67119     67122     67123     67119     67122
     67123     67119     67121     67123     67119     67120     67125     67129     67130
     67126     67125     67128     67126     67125     67127     67127     67125     67128
     67129     67125     67128     67129     67125     67127     67129     67125     67126
     67131     67135     67136     67132     67131     67134     67132     67131     67133
     67133     67131     67134     67135     67131     67134     67135     67131     67133
     67135     67131     67132     67137     67141     67142     67138     67137     67140
     67138     67137     67139     67139     67137     67140     67141     67137     67140
     67141     67137     67139     67141     67137     67138     67143     67147     67148
     67144     67143     67146     67144     67143     67145     67145     67143     67146
     67147     67143     67146     67147     67143     67145     67147     67143     67144
     67149     67153     67154     67150     67149     67152     67150     67149     67151
     67151     67149     67152     67153     67149     67152     67153     67149     67151
     67153     67149     67150     67155     67159     67160     67156     67155     67158
     67156     67155     67157     67157     67155     67158     67159     67155     67158
     67159     67155     67157     67159     67155     67156     67161     67165     67166
     67162     67161     67164     67162     67161     67163     67163     67161     67164
     67165     67161     67164     67165     67161     67163     67165     67161     67162
     67167     67171     67172     67168     67167     67170     67168     67167     67169
     67169     67167     67170     67171     67167     67170     67171     67167     67169
     67171     67167     67168     67173     67177     67178     67174     67173     67176
     67174     67173     67175     67175     67173     67176     67177     67173     67176
     67177     67173     67175     67177     67173     67174     67179     67183     67184
     67180     67179     67182     67180     67179     67181     67181     67179     67182
     67183     67179     67182     67183     67179     67181     67183     67179     67180
     67185     67189     67190     67186     67185     67188     67186     67185     67187
     67187     67185     67188     67189     67185     67188     67189     67185     67187
     67189     67185     67186     67191     67195     67196     67192     67191     67194
     67192     67191     67193     67193     67191     67194     67195     67191     67194
     67195     67191     67193     67195     67191     67192     67197     67201     67202
     67198     67197     67200     67198     67197     67199     67199     67197     67200
     67201     67197     67200     67201     67197     67199     67201     67197     67198
     67203     67207     67208     67204     67203     67206     67204     67203     67205
     67205     67203     67206     67207     67203     67206     67207     67203     67205
     67207     67203     67204     67209     67213     67214     67210     67209     67212
     67210     67209     67211     67211     67209     67212     67213     67209     67212
     67213     67209     67211     67213     67209     67210     67215     67219     67220
     67216     67215     67218     67216     67215     67217     67217     67215     67218
     67219     67215     67218     67219     67215     67217     67219     67215     67216
     67221     67225     67226     67222     67221     67224     67222     67221     67223
     67223     67221     67224     67225     67221     67224     67225     67221     67223
     67225     67221     67222     67227     67231     67232     67228     67227     67230
     67228     67227     67229     67229     67227     67230     67231     67227     67230
     67231     67227     67229     67231     67227     67228     67233     67237     67238
     67234     67233     67236     67234     67233     67235     67235     67233     67236
     67237     67233     67236     67237     67233     67235     67237     67233     67234
     67239     67243     67244     67240     67239     67242     67240     67239     67241
     67241     67239     67242     67243     67239     67242     67243     67239     67241
     67243     67239     67240     67245     67249     67250     67246     67245     67248
     67246     67245     67247     67247     67245     67248     67249     67245     67248
     67249     67245     67247     67249     67245     67246     67251     67255     67256
     67252     67251     67254     67252     67251     67253     67253     67251     67254
     67255     67251     67254     67255     67251     67253     67255     67251     67252
     67257     67261     67262     67258     67257     67260     67258     67257     67259
     67259     67257     67260     67261     67257     67260     67261     67257     67259
     67261     67257     67258     67263     67267     67268     67264     67263     67266
     67264     67263     67265     67265     67263     67266     67267     67263     67266
     67267     67263     67265     67267     67263     67264     67269     67273     67274
     67270     67269     67272     67270     67269     67271     67271     67269     67272
     67273     67269     67272     67273     67269     67271     67273     67269     67270
     67275     67279     67280     67276     67275     67278     67276     67275     67277
     67277     67275     67278     67279     67275     67278     67279     67275     67277
     67279     67275     67276     67281     67285     67286     67282     67281     67284
     67282     67281     67283     67283     67281     67284     67285     67281     67284
     67285     67281     67283     67285     67281     67282     67287     67291     67292
     67288     67287     67290     67288     67287     67289     67289     67287     67290
     67291     67287     67290     67291     67287     67289     67291     67287     67288
     67293     67297     67298     67294     67293     67296     67294     67293     67295
     67295     67293     67296     67297     67293     67296     67297     67293     67295
     67297     67293     67294     67299     67303     67304     67300     67299     67302
     67300     67299     67301     67301     67299     67302     67303     67299     67302
     67303     67299     67301     67303     67299     67300     67305     67309     67310
     67306     67305     67308     67306     67305     67307     67307     67305     67308
     67309     67305     67308     67309     67305     67307     67309     67305     67306
     67311     67315     67316     67312     67311     67314     67312     67311     67313
     67313     67311     67314     67315     67311     67314     67315     67311     67313
     67315     67311     67312     67317     67321     67322     67318     67317     67320
     67318     67317     67319     67319     67317     67320     67321     67317     67320
     67321     67317     67319     67321     67317     67318     67323     67327     67328
     67324     67323     67326     67324     67323     67325     67325     67323     67326
     67327     67323     67326     67327     67323     67325     67327     67323     67324
     67329     67333     67334     67330     67329     67332     67330     67329     67331
     67331     67329     67332     67333     67329     67332     67333     67329     67331
     67333     67329     67330     67335     67339     67340     67336     67335     67338
     67336     67335     67337     67337     67335     67338     67339     67335     67338
     67339     67335     67337     67339     67335     67336     67341     67345     67346
     67342     67341     67344     67342     67341     67343     67343     67341     67344
     67345     67341     67344     67345     67341     67343     67345     67341     67342
     67347     67351     67352     67348     67347     67350     67348     67347     67349
     67349     67347     67350     67351     67347     67350     67351     67347     67349
     67351     67347     67348     67353     67357     67358     67354     67353     67356
     67354     67353     67355     67355     67353     67356     67357     67353     67356
     67357     67353     67355     67357     67353     67354     67359     67363     67364
     67360     67359     67362     67360     67359     67361     67361     67359     67362
     67363     67359     67362     67363     67359     67361     67363     67359     67360
     67365     67369     67370     67366     67365     67368     67366     67365     67367
     67367     67365     67368     67369     67365     67368     67369     67365     67367
     67369     67365     67366     67371     67375     67376     67372     67371     67374
     67372     67371     67373     67373     67371     67374     67375     67371     67374
     67375     67371     67373     67375     67371     67372     67377     67381     67382
     67378     67377     67380     67378     67377     67379     67379     67377     67380
     67381     67377     67380     67381     67377     67379     67381     67377     67378
     67383     67387     67388     67384     67383     67386     67384     67383     67385
     67385     67383     67386     67387     67383     67386     67387     67383     67385
     67387     67383     67384     67389     67393     67394     67390     67389     67392
     67390     67389     67391     67391     67389     67392     67393     67389     67392
     67393     67389     67391     67393     67389     67390     67395     67399     67400
     67396     67395     67398     67396     67395     67397     67397     67395     67398
     67399     67395     67398     67399     67395     67397     67399     67395     67396
     67401     67405     67406     67402     67401     67404     67402     67401     67403
     67403     67401     67404     67405     67401     67404     67405     67401     67403
     67405     67401     67402     67407     67411     67412     67408     67407     67410
     67408     67407     67409     67409     67407     67410     67411     67407     67410
     67411     67407     67409     67411     67407     67408     67413     67417     67418
     67414     67413     67416     67414     67413     67415     67415     67413     67416
     67417     67413     67416     67417     67413     67415     67417     67413     67414
     67419     67423     67424     67420     67419     67422     67420     67419     67421
     67421     67419     67422     67423     67419     67422     67423     67419     67421
     67423     67419     67420     67425     67429     67430     67426     67425     67428
     67426     67425     67427     67427     67425     67428     67429     67425     67428
     67429     67425     67427     67429     67425     67426     67431     67435     67436
     67432     67431     67434     67432     67431     67433     67433     67431     67434
     67435     67431     67434     67435     67431     67433     67435     67431     67432
     67437     67441     67442     67438     67437     67440     67438     67437     67439
     67439     67437     67440     67441     67437     67440     67441     67437     67439
     67441     67437     67438     67443     67447     67448     67444     67443     67446
     67444     67443     67445     67445     67443     67446     67447     67443     67446
     67447     67443     67445     67447     67443     67444     67449     67453     67454
     67450     67449     67452     67450     67449     67451     67451     67449     67452
     67453     67449     67452     67453     67449     67451     67453     67449     67450
     67455     67459     67460     67456     67455     67458     67456     67455     67457
     67457     67455     67458     67459     67455     67458     67459     67455     67457
     67459     67455     67456     67461     67465     67466     67462     67461     67464
     67462     67461     67463     67463     67461     67464     67465     67461     67464
     67465     67461     67463     67465     67461     67462     67467     67471     67472
     67468     67467     67470     67468     67467     67469     67469     67467     67470
     67471     67467     67470     67471     67467     67469     67471     67467     67468
     67473     67477     67478     67474     67473     67476     67474     67473     67475
     67475     67473     67476     67477     67473     67476     67477     67473     67475
     67477     67473     67474     67479     67483     67484     67480     67479     67482
     67480     67479     67481     67481     67479     67482     67483     67479     67482
     67483     67479     67481     67483     67479     67480     67485     67489     67490
     67486     67485     67488     67486     67485     67487     67487     67485     67488
     67489     67485     67488     67489     67485     67487     67489     67485     67486
     67491     67495     67496     67492     67491     67494     67492     67491     67493
     67493     67491     67494     67495     67491     67494     67495     67491     67493
     67495     67491     67492     67497     67501     67502     67498     67497     67500
     67498     67497     67499     67499     67497     67500     67501     67497     67500
     67501     67497     67499     67501     67497     67498     67503     67507     67508
     67504     67503     67506     67504     67503     67505     67505     67503     67506
     67507     67503     67506     67507     67503     67505     67507     67503     67504
     67509     67513     67514     67510     67509     67512     67510     67509     67511
     67511     67509     67512     67513     67509     67512     67513     67509     67511
     67513     67509     67510     67515     67519     67520     67516     67515     67518
     67516     67515     67517     67517     67515     67518     67519     67515     67518
     67519     67515     67517     67519     67515     67516     67521     67525     67526
     67522     67521     67524     67522     67521     67523     67523     67521     67524
     67525     67521     67524     67525     67521     67523     67525     67521     67522
     67527     67531     67532     67528     67527     67530     67528     67527     67529
     67529     67527     67530     67531     67527     67530     67531     67527     67529
     67531     67527     67528     67533     67537     67538     67534     67533     67536
     67534     67533     67535     67535     67533     67536     67537     67533     67536
     67537     67533     67535     67537     67533     67534     67539     67543     67544
     67540     67539     67542     67540     67539     67541     67541     67539     67542
     67543     67539     67542     67543     67539     67541     67543     67539     67540
     67545     67549     67550     67546     67545     67548     67546     67545     67547
     67547     67545     67548     67549     67545     67548     67549     67545     67547
     67549     67545     67546     67551     67555     67556     67552     67551     67554
     67552     67551     67553     67553     67551     67554     67555     67551     67554
     67555     67551     67553     67555     67551     67552     67557     67561     67562
     67558     67557     67560     67558     67557     67559     67559     67557     67560
     67561     67557     67560     67561     67557     67559     67561     67557     67558
     67563     67567     67568     67564     67563     67566     67564     67563     67565
     67565     67563     67566     67567     67563     67566     67567     67563     67565
     67567     67563     67564     67569     67573     67574     67570     67569     67572
     67570     67569     67571     67571     67569     67572     67573     67569     67572
     67573     67569     67571     67573     67569     67570     67575     67579     67580
     67576     67575     67578     67576     67575     67577     67577     67575     67578
     67579     67575     67578     67579     67575     67577     67579     67575     67576
     67581     67585     67586     67582     67581     67584     67582     67581     67583
     67583     67581     67584     67585     67581     67584     67585     67581     67583
     67585     67581     67582     67587     67591     67592     67588     67587     67590
     67588     67587     67589     67589     67587     67590     67591     67587     67590
     67591     67587     67589     67591     67587     67588     67593     67597     67598
     67594     67593     67596     67594     67593     67595     67595     67593     67596
     67597     67593     67596     67597     67593     67595     67597     67593     67594
     67599     67603     67604     67600     67599     67602     67600     67599     67601
     67601     67599     67602     67603     67599     67602     67603     67599     67601
     67603     67599     67600     67605     67609     67610     67606     67605     67608
     67606     67605     67607     67607     67605     67608     67609     67605     67608
     67609     67605     67607     67609     67605     67606     67611     67615     67616
     67612     67611     67614     67612     67611     67613     67613     67611     67614
     67615     67611     67614     67615     67611     67613     67615     67611     67612
     67617     67621     67622     67618     67617     67620     67618     67617     67619
     67619     67617     67620     67621     67617     67620     67621     67617     67619
     67621     67617     67618     67623     67627     67628     67624     67623     67626
     67624     67623     67625     67625     67623     67626     67627     67623     67626
     67627     67623     67625     67627     67623     67624     67629     67633     67634
     67630     67629     67632     67630     67629     67631     67631     67629     67632
     67633     67629     67632     67633     67629     67631     67633     67629     67630
     67635     67639     67640     67636     67635     67638     67636     67635     67637
     67637     67635     67638     67639     67635     67638     67639     67635     67637
     67639     67635     67636     67641     67645     67646     67642     67641     67644
     67642     67641     67643     67643     67641     67644     67645     67641     67644
     67645     67641     67643     67645     67641     67642     67647     67651     67652
     67648     67647     67650     67648     67647     67649     67649     67647     67650
     67651     67647     67650     67651     67647     67649     67651     67647     67648
     67653     67657     67658     67654     67653     67656     67654     67653     67655
     67655     67653     67656     67657     67653     67656     67657     67653     67655
     67657     67653     67654     67659     67663     67664     67660     67659     67662
     67660     67659     67661     67661     67659     67662     67663     67659     67662
     67663     67659     67661     67663     67659     67660     67665     67669     67670
     67666     67665     67668     67666     67665     67667     67667     67665     67668
     67669     67665     67668     67669     67665     67667     67669     67665     67666
     67671     67675     67676     67672     67671     67674     67672     67671     67673
     67673     67671     67674     67675     67671     67674     67675     67671     67673
     67675     67671     67672     67677     67681     67682     67678     67677     67680
     67678     67677     67679     67679     67677     67680     67681     67677     67680
     67681     67677     67679     67681     67677     67678     67683     67687     67688
     67684     67683     67686     67684     67683     67685     67685     67683     67686
     67687     67683     67686     67687     67683     67685     67687     67683     67684
     67689     67693     67694     67690     67689     67692     67690     67689     67691
     67691     67689     67692     67693     67689     67692     67693     67689     67691
     67693     67689     67690     67695     67699     67700     67696     67695     67698
     67696     67695     67697     67697     67695     67698     67699     67695     67698
     67699     67695     67697     67699     67695     67696     67701     67705     67706
     67702     67701     67704     67702     67701     67703     67703     67701     67704
     67705     67701     67704     67705     67701     67703     67705     67701     67702
     67707     67711     67712     67708     67707     67710     67708     67707     67709
     67709     67707     67710     67711     67707     67710     67711     67707     67709
     67711     67707     67708     67713     67717     67718     67714     67713     67716
     67714     67713     67715     67715     67713     67716     67717     67713     67716
     67717     67713     67715     67717     67713     67714     67719     67723     67724
     67720     67719     67722     67720     67719     67721     67721     67719     67722
     67723     67719     67722     67723     67719     67721     67723     67719     67720
     67725     67729     67730     67726     67725     67728     67726     67725     67727
     67727     67725     67728     67729     67725     67728     67729     67725     67727
     67729     67725     67726     67731     67735     67736     67732     67731     67734
     67732     67731     67733     67733     67731     67734     67735     67731     67734
     67735     67731     67733     67735     67731     67732     67737     67741     67742
     67738     67737     67740     67738     67737     67739     67739     67737     67740
     67741     67737     67740     67741     67737     67739     67741     67737     67738
     67743     67747     67748     67744     67743     67746     67744     67743     67745
     67745     67743     67746     67747     67743     67746     67747     67743     67745
     67747     67743     67744     67749     67753     67754     67750     67749     67752
     67750     67749     67751     67751     67749     67752     67753     67749     67752
     67753     67749     67751     67753     67749     67750     67755     67759     67760
     67756     67755     67758     67756     67755     67757     67757     67755     67758
     67759     67755     67758     67759     67755     67757     67759     67755     67756
     67761     67765     67766     67762     67761     67764     67762     67761     67763
     67763     67761     67764     67765     67761     67764     67765     67761     67763
     67765     67761     67762     67767     67771     67772     67768     67767     67770
     67768     67767     67769     67769     67767     67770     67771     67767     67770
     67771     67767     67769     67771     67767     67768     67773     67777     67778
     67774     67773     67776     67774     67773     67775     67775     67773     67776
     67777     67773     67776     67777     67773     67775     67777     67773     67774
     67779     67783     67784     67780     67779     67782     67780     67779     67781
     67781     67779     67782     67783     67779     67782     67783     67779     67781
     67783     67779     67780     67785     67789     67790     67786     67785     67788
     67786     67785     67787     67787     67785     67788     67789     67785     67788
     67789     67785     67787     67789     67785     67786     67791     67795     67796
     67792     67791     67794     67792     67791     67793     67793     67791     67794
     67795     67791     67794     67795     67791     67793     67795     67791     67792
     67797     67801     67802     67798     67797     67800     67798     67797     67799
     67799     67797     67800     67801     67797     67800     67801     67797     67799
     67801     67797     67798     67803     67807     67808     67804     67803     67806
     67804     67803     67805     67805     67803     67806     67807     67803     67806
     67807     67803     67805     67807     67803     67804     67809     67813     67814
     67810     67809     67812     67810     67809     67811     67811     67809     67812
     67813     67809     67812     67813     67809     67811     67813     67809     67810
     67815     67819     67820     67816     67815     67818     67816     67815     67817
     67817     67815     67818     67819     67815     67818     67819     67815     67817
     67819     67815     67816     67821     67825     67826     67822     67821     67824
     67822     67821     67823     67823     67821     67824     67825     67821     67824
     67825     67821     67823     67825     67821     67822     67827     67831     67832
     67828     67827     67830     67828     67827     67829     67829     67827     67830
     67831     67827     67830     67831     67827     67829     67831     67827     67828
     67833     67837     67838     67834     67833     67836     67834     67833     67835
     67835     67833     67836     67837     67833     67836     67837     67833     67835
     67837     67833     67834     67839     67843     67844     67840     67839     67842
     67840     67839     67841     67841     67839     67842     67843     67839     67842
     67843     67839     67841     67843     67839     67840     67845     67849     67850
     67846     67845     67848     67846     67845     67847     67847     67845     67848
     67849     67845     67848     67849     67845     67847     67849     67845     67846
     67851     67855     67856     67852     67851     67854     67852     67851     67853
     67853     67851     67854     67855     67851     67854     67855     67851     67853
     67855     67851     67852     67857     67861     67862     67858     67857     67860
     67858     67857     67859     67859     67857     67860     67861     67857     67860
     67861     67857     67859     67861     67857     67858     67863     67867     67868
     67864     67863     67866     67864     67863     67865     67865     67863     67866
     67867     67863     67866     67867     67863     67865     67867     67863     67864
     67869     67873     67874     67870     67869     67872     67870     67869     67871
     67871     67869     67872     67873     67869     67872     67873     67869     67871
     67873     67869     67870     67875     67879     67880     67876     67875     67878
     67876     67875     67877     67877     67875     67878     67879     67875     67878
     67879     67875     67877     67879     67875     67876     67881     67885     67886
     67882     67881     67884     67882     67881     67883     67883     67881     67884
     67885     67881     67884     67885     67881     67883     67885     67881     67882
     67887     67891     67892     67888     67887     67890     67888     67887     67889
     67889     67887     67890     67891     67887     67890     67891     67887     67889
     67891     67887     67888     67893     67897     67898     67894     67893     67896
     67894     67893     67895     67895     67893     67896     67897     67893     67896
     67897     67893     67895     67897     67893     67894     67899     67903     67904
     67900     67899     67902     67900     67899     67901     67901     67899     67902
     67903     67899     67902     67903     67899     67901     67903     67899     67900
     67905     67909     67910     67906     67905     67908     67906     67905     67907
     67907     67905     67908     67909     67905     67908     67909     67905     67907
     67909     67905     67906     67911     67915     67916     67912     67911     67914
     67912     67911     67913     67913     67911     67914     67915     67911     67914
     67915     67911     67913     67915     67911     67912     67917     67921     67922
     67918     67917     67920     67918     67917     67919     67919     67917     67920
     67921     67917     67920     67921     67917     67919     67921     67917     67918
     67923     67927     67928     67924     67923     67926     67924     67923     67925
     67925     67923     67926     67927     67923     67926     67927     67923     67925
     67927     67923     67924     67929     67933     67934     67930     67929     67932
     67930     67929     67931     67931     67929     67932     67933     67929     67932
     67933     67929     67931     67933     67929     67930     67935     67939     67940
     67936     67935     67938     67936     67935     67937     67937     67935     67938
     67939     67935     67938     67939     67935     67937     67939     67935     67936
     67941     67945     67946     67942     67941     67944     67942     67941     67943
     67943     67941     67944     67945     67941     67944     67945     67941     67943
     67945     67941     67942     67947     67951     67952     67948     67947     67950
     67948     67947     67949     67949     67947     67950     67951     67947     67950
     67951     67947     67949     67951     67947     67948     67953     67957     67958
     67954     67953     67956     67954     67953     67955     67955     67953     67956
     67957     67953     67956     67957     67953     67955     67957     67953     67954
     67959     67963     67964     67960     67959     67962     67960     67959     67961
     67961     67959     67962     67963     67959     67962     67963     67959     67961
     67963     67959     67960     67965     67969     67970     67966     67965     67968
     67966     67965     67967     67967     67965     67968     67969     67965     67968
     67969     67965     67967     67969     67965     67966     67971     67975     67976
     67972     67971     67974     67972     67971     67973     67973     67971     67974
     67975     67971     67974     67975     67971     67973     67975     67971     67972
     67977     67981     67982     67978     67977     67980     67978     67977     67979
     67979     67977     67980     67981     67977     67980     67981     67977     67979
     67981     67977     67978     67983     67987     67988     67984     67983     67986
     67984     67983     67985     67985     67983     67986     67987     67983     67986
     67987     67983     67985     67987     67983     67984     67989     67993     67994
     67990     67989     67992     67990     67989     67991     67991     67989     67992
     67993     67989     67992     67993     67989     67991     67993     67989     67990
     67995     67999     68000     67996     67995     67998     67996     67995     67997
     67997     67995     67998     67999     67995     67998     67999     67995     67997
     67999     67995     67996     68001     68005     68006     68002     68001     68004
     68002     68001     68003     68003     68001     68004     68005     68001     68004
     68005     68001     68003     68005     68001     68002     68007     68011     68012
     68008     68007     68010     68008     68007     68009     68009     68007     68010
     68011     68007     68010     68011     68007     68009     68011     68007     68008
     68013     68017     68018     68014     68013     68016     68014     68013     68015
     68015     68013     68016     68017     68013     68016     68017     68013     68015
     68017     68013     68014     68019     68023     68024     68020     68019     68022
     68020     68019     68021     68021     68019     68022     68023     68019     68022
     68023     68019     68021     68023     68019     68020     68025     68029     68030
     68026     68025     68028     68026     68025     68027     68027     68025     68028
     68029     68025     68028     68029     68025     68027     68029     68025     68026
     68031     68035     68036     68032     68031     68034     68032     68031     68033
     68033     68031     68034     68035     68031     68034     68035     68031     68033
     68035     68031     68032     68037     68041     68042     68038     68037     68040
     68038     68037     68039     68039     68037     68040     68041     68037     68040
     68041     68037     68039     68041     68037     68038     68043     68047     68048
     68044     68043     68046     68044     68043     68045     68045     68043     68046
     68047     68043     68046     68047     68043     68045     68047     68043     68044
     68049     68053     68054     68050     68049     68052     68050     68049     68051
     68051     68049     68052     68053     68049     68052     68053     68049     68051
     68053     68049     68050     68055     68059     68060     68056     68055     68058
     68056     68055     68057     68057     68055     68058     68059     68055     68058
     68059     68055     68057     68059     68055     68056     68061     68065     68066
     68062     68061     68064     68062     68061     68063     68063     68061     68064
     68065     68061     68064     68065     68061     68063     68065     68061     68062
     68067     68071     68072     68068     68067     68070     68068     68067     68069
     68069     68067     68070     68071     68067     68070     68071     68067     68069
     68071     68067     68068     68073     68077     68078     68074     68073     68076
     68074     68073     68075     68075     68073     68076     68077     68073     68076
     68077     68073     68075     68077     68073     68074     68079     68083     68084
     68080     68079     68082     68080     68079     68081     68081     68079     68082
     68083     68079     68082     68083     68079     68081     68083     68079     68080
     68085     68089     68090     68086     68085     68088     68086     68085     68087
     68087     68085     68088     68089     68085     68088     68089     68085     68087
     68089     68085     68086     68091     68095     68096     68092     68091     68094
     68092     68091     68093     68093     68091     68094     68095     68091     68094
     68095     68091     68093     68095     68091     68092     68097     68101     68102
     68098     68097     68100     68098     68097     68099     68099     68097     68100
     68101     68097     68100     68101     68097     68099     68101     68097     68098
     68103     68107     68108     68104     68103     68106     68104     68103     68105
     68105     68103     68106     68107     68103     68106     68107     68103     68105
     68107     68103     68104     68109     68113     68114     68110     68109     68112
     68110     68109     68111     68111     68109     68112     68113     68109     68112
     68113     68109     68111     68113     68109     68110     68115     68119     68120
     68116     68115     68118     68116     68115     68117     68117     68115     68118
     68119     68115     68118     68119     68115     68117     68119     68115     68116
     68121     68125     68126     68122     68121     68124     68122     68121     68123
     68123     68121     68124     68125     68121     68124     68125     68121     68123
     68125     68121     68122     68127     68131     68132     68128     68127     68130
     68128     68127     68129     68129     68127     68130     68131     68127     68130
     68131     68127     68129     68131     68127     68128     68133     68137     68138
     68134     68133     68136     68134     68133     68135     68135     68133     68136
     68137     68133     68136     68137     68133     68135     68137     68133     68134
     68139     68143     68144     68140     68139     68142     68140     68139     68141
     68141     68139     68142     68143     68139     68142     68143     68139     68141
     68143     68139     68140     68145     68149     68150     68146     68145     68148
     68146     68145     68147     68147     68145     68148     68149     68145     68148
     68149     68145     68147     68149     68145     68146     68151     68155     68156
     68152     68151     68154     68152     68151     68153     68153     68151     68154
     68155     68151     68154     68155     68151     68153     68155     68151     68152
     68157     68161     68162     68158     68157     68160     68158     68157     68159
     68159     68157     68160     68161     68157     68160     68161     68157     68159
     68161     68157     68158     68163     68167     68168     68164     68163     68166
     68164     68163     68165     68165     68163     68166     68167     68163     68166
     68167     68163     68165     68167     68163     68164     68169     68173     68174
     68170     68169     68172     68170     68169     68171     68171     68169     68172
     68173     68169     68172     68173     68169     68171     68173     68169     68170
     68175     68179     68180     68176     68175     68178     68176     68175     68177
     68177     68175     68178     68179     68175     68178     68179     68175     68177
     68179     68175     68176     68181     68185     68186     68182     68181     68184
     68182     68181     68183     68183     68181     68184     68185     68181     68184
     68185     68181     68183     68185     68181     68182     68187     68191     68192
     68188     68187     68190     68188     68187     68189     68189     68187     68190
     68191     68187     68190     68191     68187     68189     68191     68187     68188
     68193     68197     68198     68194     68193     68196     68194     68193     68195
     68195     68193     68196     68197     68193     68196     68197     68193     68195
     68197     68193     68194     68199     68203     68204     68200     68199     68202
     68200     68199     68201     68201     68199     68202     68203     68199     68202
     68203     68199     68201     68203     68199     68200     68205     68209     68210
     68206     68205     68208     68206     68205     68207     68207     68205     68208
     68209     68205     68208     68209     68205     68207     68209     68205     68206
     68211     68215     68216     68212     68211     68214     68212     68211     68213
     68213     68211     68214     68215     68211     68214     68215     68211     68213
     68215     68211     68212     68217     68221     68222     68218     68217     68220
     68218     68217     68219     68219     68217     68220     68221     68217     68220
     68221     68217     68219     68221     68217     68218     68223     68227     68228
     68224     68223     68226     68224     68223     68225     68225     68223     68226
     68227     68223     68226     68227     68223     68225     68227     68223     68224
     68229     68233     68234     68230     68229     68232     68230     68229     68231
     68231     68229     68232     68233     68229     68232     68233     68229     68231
     68233     68229     68230     68235     68239     68240     68236     68235     68238
     68236     68235     68237     68237     68235     68238     68239     68235     68238
     68239     68235     68237     68239     68235     68236     68241     68245     68246
     68242     68241     68244     68242     68241     68243     68243     68241     68244
     68245     68241     68244     68245     68241     68243     68245     68241     68242
     68247     68251     68252     68248     68247     68250     68248     68247     68249
     68249     68247     68250     68251     68247     68250     68251     68247     68249
     68251     68247     68248     68253     68257     68258     68254     68253     68256
     68254     68253     68255     68255     68253     68256     68257     68253     68256
     68257     68253     68255     68257     68253     68254     68259     68263     68264
     68260     68259     68262     68260     68259     68261     68261     68259     68262
     68263     68259     68262     68263     68259     68261     68263     68259     68260
     68265     68269     68270     68266     68265     68268     68266     68265     68267
     68267     68265     68268     68269     68265     68268     68269     68265     68267
     68269     68265     68266     68271     68275     68276     68272     68271     68274
     68272     68271     68273     68273     68271     68274     68275     68271     68274
     68275     68271     68273     68275     68271     68272     68277     68281     68282
     68278     68277     68280     68278     68277     68279     68279     68277     68280
     68281     68277     68280     68281     68277     68279     68281     68277     68278
     68283     68287     68288     68284     68283     68286     68284     68283     68285
     68285     68283     68286     68287     68283     68286     68287     68283     68285
     68287     68283     68284     68289     68293     68294     68290     68289     68292
     68290     68289     68291     68291     68289     68292     68293     68289     68292
     68293     68289     68291     68293     68289     68290     68295     68299     68300
     68296     68295     68298     68296     68295     68297     68297     68295     68298
     68299     68295     68298     68299     68295     68297     68299     68295     68296
     68301     68305     68306     68302     68301     68304     68302     68301     68303
     68303     68301     68304     68305     68301     68304     68305     68301     68303
     68305     68301     68302     68307     68311     68312     68308     68307     68310
     68308     68307     68309     68309     68307     68310     68311     68307     68310
     68311     68307     68309     68311     68307     68308     68313     68317     68318
     68314     68313     68316     68314     68313     68315     68315     68313     68316
     68317     68313     68316     68317     68313     68315     68317     68313     68314
     68319     68323     68324     68320     68319     68322     68320     68319     68321
     68321     68319     68322     68323     68319     68322     68323     68319     68321
     68323     68319     68320     68325     68329     68330     68326     68325     68328
     68326     68325     68327     68327     68325     68328     68329     68325     68328
     68329     68325     68327     68329     68325     68326     68331     68335     68336
     68332     68331     68334     68332     68331     68333     68333     68331     68334
     68335     68331     68334     68335     68331     68333     68335     68331     68332
     68337     68341     68342     68338     68337     68340     68338     68337     68339
     68339     68337     68340     68341     68337     68340     68341     68337     68339
     68341     68337     68338     68343     68347     68348     68344     68343     68346
     68344     68343     68345     68345     68343     68346     68347     68343     68346
     68347     68343     68345     68347     68343     68344     68349     68353     68354
     68350     68349     68352     68350     68349     68351     68351     68349     68352
     68353     68349     68352     68353     68349     68351     68353     68349     68350
     68355     68359     68360     68356     68355     68358     68356     68355     68357
     68357     68355     68358     68359     68355     68358     68359     68355     68357
     68359     68355     68356     68361     68365     68366     68362     68361     68364
     68362     68361     68363     68363     68361     68364     68365     68361     68364
     68365     68361     68363     68365     68361     68362     68367     68371     68372
     68368     68367     68370     68368     68367     68369     68369     68367     68370
     68371     68367     68370     68371     68367     68369     68371     68367     68368
     68373     68377     68378     68374     68373     68376     68374     68373     68375
     68375     68373     68376     68377     68373     68376     68377     68373     68375
     68377     68373     68374     68379     68383     68384     68380     68379     68382
     68380     68379     68381     68381     68379     68382     68383     68379     68382
     68383     68379     68381     68383     68379     68380     68385     68389     68390
     68386     68385     68388     68386     68385     68387     68387     68385     68388
     68389     68385     68388     68389     68385     68387     68389     68385     68386
     68391     68395     68396     68392     68391     68394     68392     68391     68393
     68393     68391     68394     68395     68391     68394     68395     68391     68393
     68395     68391     68392     68397     68401     68402     68398     68397     68400
     68398     68397     68399     68399     68397     68400     68401     68397     68400
     68401     68397     68399     68401     68397     68398     68403     68407     68408
     68404     68403     68406     68404     68403     68405     68405     68403     68406
     68407     68403     68406     68407     68403     68405     68407     68403     68404
     68409     68413     68414     68410     68409     68412     68410     68409     68411
     68411     68409     68412     68413     68409     68412     68413     68409     68411
     68413     68409     68410     68415     68419     68420     68416     68415     68418
     68416     68415     68417     68417     68415     68418     68419     68415     68418
     68419     68415     68417     68419     68415     68416     68421     68425     68426
     68422     68421     68424     68422     68421     68423     68423     68421     68424
     68425     68421     68424     68425     68421     68423     68425     68421     68422
     68427     68431     68432     68428     68427     68430     68428     68427     68429
     68429     68427     68430     68431     68427     68430     68431     68427     68429
     68431     68427     68428     68433     68437     68438     68434     68433     68436
     68434     68433     68435     68435     68433     68436     68437     68433     68436
     68437     68433     68435     68437     68433     68434     68439     68443     68444
     68440     68439     68442     68440     68439     68441     68441     68439     68442
     68443     68439     68442     68443     68439     68441     68443     68439     68440
     68445     68449     68450     68446     68445     68448     68446     68445     68447
     68447     68445     68448     68449     68445     68448     68449     68445     68447
     68449     68445     68446     68451     68455     68456     68452     68451     68454
     68452     68451     68453     68453     68451     68454     68455     68451     68454
     68455     68451     68453     68455     68451     68452     68457     68461     68462
     68458     68457     68460     68458     68457     68459     68459     68457     68460
     68461     68457     68460     68461     68457     68459     68461     68457     68458
     68463     68467     68468     68464     68463     68466     68464     68463     68465
     68465     68463     68466     68467     68463     68466     68467     68463     68465
     68467     68463     68464     68469     68473     68474     68470     68469     68472
     68470     68469     68471     68471     68469     68472     68473     68469     68472
     68473     68469     68471     68473     68469     68470     68475     68479     68480
     68476     68475     68478     68476     68475     68477     68477     68475     68478
     68479     68475     68478     68479     68475     68477     68479     68475     68476
     68481     68485     68486     68482     68481     68484     68482     68481     68483
     68483     68481     68484     68485     68481     68484     68485     68481     68483
     68485     68481     68482     68487     68491     68492     68488     68487     68490
     68488     68487     68489     68489     68487     68490     68491     68487     68490
     68491     68487     68489     68491     68487     68488     68493     68497     68498
     68494     68493     68496     68494     68493     68495     68495     68493     68496
     68497     68493     68496     68497     68493     68495     68497     68493     68494
     68499     68503     68504     68500     68499     68502     68500     68499     68501
     68501     68499     68502     68503     68499     68502     68503     68499     68501
     68503     68499     68500     68505     68509     68510     68506     68505     68508
     68506     68505     68507     68507     68505     68508     68509     68505     68508
     68509     68505     68507     68509     68505     68506     68511     68515     68516
     68512     68511     68514     68512     68511     68513     68513     68511     68514
     68515     68511     68514     68515     68511     68513     68515     68511     68512
     68517     68521     68522     68518     68517     68520     68518     68517     68519
     68519     68517     68520     68521     68517     68520     68521     68517     68519
     68521     68517     68518     68523     68527     68528     68524     68523     68526
     68524     68523     68525     68525     68523     68526     68527     68523     68526
     68527     68523     68525     68527     68523     68524     68529     68533     68534
     68530     68529     68532     68530     68529     68531     68531     68529     68532
     68533     68529     68532     68533     68529     68531     68533     68529     68530
     68535     68539     68540     68536     68535     68538     68536     68535     68537
     68537     68535     68538     68539     68535     68538     68539     68535     68537
     68539     68535     68536     68541     68545     68546     68542     68541     68544
     68542     68541     68543     68543     68541     68544     68545     68541     68544
     68545     68541     68543     68545     68541     68542     68547     68551     68552
     68548     68547     68550     68548     68547     68549     68549     68547     68550
     68551     68547     68550     68551     68547     68549     68551     68547     68548
     68553     68557     68558     68554     68553     68556     68554     68553     68555
     68555     68553     68556     68557     68553     68556     68557     68553     68555
     68557     68553     68554     68559     68563     68564     68560     68559     68562
     68560     68559     68561     68561     68559     68562     68563     68559     68562
     68563     68559     68561     68563     68559     68560     68565     68569     68570
     68566     68565     68568     68566     68565     68567     68567     68565     68568
     68569     68565     68568     68569     68565     68567     68569     68565     68566
     68571     68575     68576     68572     68571     68574     68572     68571     68573
     68573     68571     68574     68575     68571     68574     68575     68571     68573
     68575     68571     68572     68577     68581     68582     68578     68577     68580
     68578     68577     68579     68579     68577     68580     68581     68577     68580
     68581     68577     68579     68581     68577     68578     68583     68587     68588
     68584     68583     68586     68584     68583     68585     68585     68583     68586
     68587     68583     68586     68587     68583     68585     68587     68583     68584
     68589     68593     68594     68590     68589     68592     68590     68589     68591
     68591     68589     68592     68593     68589     68592     68593     68589     68591
     68593     68589     68590     68595     68599     68600     68596     68595     68598
     68596     68595     68597     68597     68595     68598     68599     68595     68598
     68599     68595     68597     68599     68595     68596     68601     68605     68606
     68602     68601     68604     68602     68601     68603     68603     68601     68604
     68605     68601     68604     68605     68601     68603     68605     68601     68602
     68607     68611     68612     68608     68607     68610     68608     68607     68609
     68609     68607     68610     68611     68607     68610     68611     68607     68609
     68611     68607     68608     68613     68617     68618     68614     68613     68616
     68614     68613     68615     68615     68613     68616     68617     68613     68616
     68617     68613     68615     68617     68613     68614     68619     68623     68624
     68620     68619     68622     68620     68619     68621     68621     68619     68622
     68623     68619     68622     68623     68619     68621     68623     68619     68620
     68625     68629     68630     68626     68625     68628     68626     68625     68627
     68627     68625     68628     68629     68625     68628     68629     68625     68627
     68629     68625     68626     68631     68635     68636     68632     68631     68634
     68632     68631     68633     68633     68631     68634     68635     68631     68634
     68635     68631     68633     68635     68631     68632     68637     68641     68642
     68638     68637     68640     68638     68637     68639     68639     68637     68640
     68641     68637     68640     68641     68637     68639     68641     68637     68638
     68643     68647     68648     68644     68643     68646     68644     68643     68645
     68645     68643     68646     68647     68643     68646     68647     68643     68645
     68647     68643     68644     68649     68653     68654     68650     68649     68652
     68650     68649     68651     68651     68649     68652     68653     68649     68652
     68653     68649     68651     68653     68649     68650     68655     68659     68660
     68656     68655     68658     68656     68655     68657     68657     68655     68658
     68659     68655     68658     68659     68655     68657     68659     68655     68656
     68661     68665     68666     68662     68661     68664     68662     68661     68663
     68663     68661     68664     68665     68661     68664     68665     68661     68663
     68665     68661     68662     68667     68671     68672     68668     68667     68670
     68668     68667     68669     68669     68667     68670     68671     68667     68670
     68671     68667     68669     68671     68667     68668     68673     68677     68678
     68674     68673     68676     68674     68673     68675     68675     68673     68676
     68677     68673     68676     68677     68673     68675     68677     68673     68674
     68679     68683     68684     68680     68679     68682     68680     68679     68681
     68681     68679     68682     68683     68679     68682     68683     68679     68681
     68683     68679     68680     68685     68689     68690     68686     68685     68688
     68686     68685     68687     68687     68685     68688     68689     68685     68688
     68689     68685     68687     68689     68685     68686     68691     68695     68696
     68692     68691     68694     68692     68691     68693     68693     68691     68694
     68695     68691     68694     68695     68691     68693     68695     68691     68692
     68697     68701     68702     68698     68697     68700     68698     68697     68699
     68699     68697     68700     68701     68697     68700     68701     68697     68699
     68701     68697     68698     68703     68707     68708     68704     68703     68706
     68704     68703     68705     68705     68703     68706     68707     68703     68706
     68707     68703     68705     68707     68703     68704     68709     68713     68714
     68710     68709     68712     68710     68709     68711     68711     68709     68712
     68713     68709     68712     68713     68709     68711     68713     68709     68710
     68715     68719     68720     68716     68715     68718     68716     68715     68717
     68717     68715     68718     68719     68715     68718     68719     68715     68717
     68719     68715     68716     68721     68725     68726     68722     68721     68724
     68722     68721     68723     68723     68721     68724     68725     68721     68724
     68725     68721     68723     68725     68721     68722     68727     68731     68732
     68728     68727     68730     68728     68727     68729     68729     68727     68730
     68731     68727     68730     68731     68727     68729     68731     68727     68728
     68733     68737     68738     68734     68733     68736     68734     68733     68735
     68735     68733     68736     68737     68733     68736     68737     68733     68735
     68737     68733     68734     68739     68743     68744     68740     68739     68742
     68740     68739     68741     68741     68739     68742     68743     68739     68742
     68743     68739     68741     68743     68739     68740     68745     68749     68750
     68746     68745     68748     68746     68745     68747     68747     68745     68748
     68749     68745     68748     68749     68745     68747     68749     68745     68746
     68751     68755     68756     68752     68751     68754     68752     68751     68753
     68753     68751     68754     68755     68751     68754     68755     68751     68753
     68755     68751     68752     68757     68761     68762     68758     68757     68760
     68758     68757     68759     68759     68757     68760     68761     68757     68760
     68761     68757     68759     68761     68757     68758     68763     68767     68768
     68764     68763     68766     68764     68763     68765     68765     68763     68766
     68767     68763     68766     68767     68763     68765     68767     68763     68764
     68769     68773     68774     68770     68769     68772     68770     68769     68771
     68771     68769     68772     68773     68769     68772     68773     68769     68771
     68773     68769     68770     68775     68779     68780     68776     68775     68778
     68776     68775     68777     68777     68775     68778     68779     68775     68778
     68779     68775     68777     68779     68775     68776     68781     68785     68786
     68782     68781     68784     68782     68781     68783     68783     68781     68784
     68785     68781     68784     68785     68781     68783     68785     68781     68782
     68787     68791     68792     68788     68787     68790     68788     68787     68789
     68789     68787     68790     68791     68787     68790     68791     68787     68789
     68791     68787     68788     68793     68797     68798     68794     68793     68796
     68794     68793     68795     68795     68793     68796     68797     68793     68796
     68797     68793     68795     68797     68793     68794     68799     68803     68804
     68800     68799     68802     68800     68799     68801     68801     68799     68802
     68803     68799     68802     68803     68799     68801     68803     68799     68800
     68805     68809     68810     68806     68805     68808     68806     68805     68807
     68807     68805     68808     68809     68805     68808     68809     68805     68807
     68809     68805     68806     68811     68815     68816     68812     68811     68814
     68812     68811     68813     68813     68811     68814     68815     68811     68814
     68815     68811     68813     68815     68811     68812     68817     68821     68822
     68818     68817     68820     68818     68817     68819     68819     68817     68820
     68821     68817     68820     68821     68817     68819     68821     68817     68818
     68823     68827     68828     68824     68823     68826     68824     68823     68825
     68825     68823     68826     68827     68823     68826     68827     68823     68825
     68827     68823     68824     68829     68833     68834     68830     68829     68832
     68830     68829     68831     68831     68829     68832     68833     68829     68832
     68833     68829     68831     68833     68829     68830     68835     68839     68840
     68836     68835     68838     68836     68835     68837     68837     68835     68838
     68839     68835     68838     68839     68835     68837     68839     68835     68836
     68841     68845     68846     68842     68841     68844     68842     68841     68843
     68843     68841     68844     68845     68841     68844     68845     68841     68843
     68845     68841     68842     68847     68851     68852     68848     68847     68850
     68848     68847     68849     68849     68847     68850     68851     68847     68850
     68851     68847     68849     68851     68847     68848     68853     68857     68858
     68854     68853     68856     68854     68853     68855     68855     68853     68856
     68857     68853     68856     68857     68853     68855     68857     68853     68854
     68859     68863     68864     68860     68859     68862     68860     68859     68861
     68861     68859     68862     68863     68859     68862     68863     68859     68861
     68863     68859     68860     68865     68869     68870     68866     68865     68868
     68866     68865     68867     68867     68865     68868     68869     68865     68868
     68869     68865     68867     68869     68865     68866     68871     68875     68876
     68872     68871     68874     68872     68871     68873     68873     68871     68874
     68875     68871     68874     68875     68871     68873     68875     68871     68872
     68877     68881     68882     68878     68877     68880     68878     68877     68879
     68879     68877     68880     68881     68877     68880     68881     68877     68879
     68881     68877     68878     68883     68887     68888     68884     68883     68886
     68884     68883     68885     68885     68883     68886     68887     68883     68886
     68887     68883     68885     68887     68883     68884     68889     68893     68894
     68890     68889     68892     68890     68889     68891     68891     68889     68892
     68893     68889     68892     68893     68889     68891     68893     68889     68890
     68895     68899     68900     68896     68895     68898     68896     68895     68897
     68897     68895     68898     68899     68895     68898     68899     68895     68897
     68899     68895     68896     68901     68905     68906     68902     68901     68904
     68902     68901     68903     68903     68901     68904     68905     68901     68904
     68905     68901     68903     68905     68901     68902     68907     68911     68912
     68908     68907     68910     68908     68907     68909     68909     68907     68910
     68911     68907     68910     68911     68907     68909     68911     68907     68908
     68913     68917     68918     68914     68913     68916     68914     68913     68915
     68915     68913     68916     68917     68913     68916     68917     68913     68915
     68917     68913     68914     68919     68923     68924     68920     68919     68922
     68920     68919     68921     68921     68919     68922     68923     68919     68922
     68923     68919     68921     68923     68919     68920     68925     68929     68930
     68926     68925     68928     68926     68925     68927     68927     68925     68928
     68929     68925     68928     68929     68925     68927     68929     68925     68926
     68931     68935     68936     68932     68931     68934     68932     68931     68933
     68933     68931     68934     68935     68931     68934     68935     68931     68933
     68935     68931     68932     68937     68941     68942     68938     68937     68940
     68938     68937     68939     68939     68937     68940     68941     68937     68940
     68941     68937     68939     68941     68937     68938     68943     68947     68948
     68944     68943     68946     68944     68943     68945     68945     68943     68946
     68947     68943     68946     68947     68943     68945     68947     68943     68944
     68949     68953     68954     68950     68949     68952     68950     68949     68951
     68951     68949     68952     68953     68949     68952     68953     68949     68951
     68953     68949     68950     68955     68959     68960     68956     68955     68958
     68956     68955     68957     68957     68955     68958     68959     68955     68958
     68959     68955     68957     68959     68955     68956     68961     68965     68966
     68962     68961     68964     68962     68961     68963     68963     68961     68964
     68965     68961     68964     68965     68961     68963     68965     68961     68962
     68967     68971     68972     68968     68967     68970     68968     68967     68969
     68969     68967     68970     68971     68967     68970     68971     68967     68969
     68971     68967     68968     68973     68977     68978     68974     68973     68976
     68974     68973     68975     68975     68973     68976     68977     68973     68976
     68977     68973     68975     68977     68973     68974     68979     68983     68984
     68980     68979     68982     68980     68979     68981     68981     68979     68982
     68983     68979     68982     68983     68979     68981     68983     68979     68980
     68985     68989     68990     68986     68985     68988     68986     68985     68987
     68987     68985     68988     68989     68985     68988     68989     68985     68987
     68989     68985     68986     68991     68995     68996     68992     68991     68994
     68992     68991     68993     68993     68991     68994     68995     68991     68994
     68995     68991     68993     68995     68991     68992     68997     69001     69002
     68998     68997     69000     68998     68997     68999     68999     68997     69000
     69001     68997     69000     69001     68997     68999     69001     68997     68998
     69003     69007     69008     69004     69003     69006     69004     69003     69005
     69005     69003     69006     69007     69003     69006     69007     69003     69005
     69007     69003     69004     69009     69013     69014     69010     69009     69012
     69010     69009     69011     69011     69009     69012     69013     69009     69012
     69013     69009     69011     69013     69009     69010     69015     69019     69020
     69016     69015     69018     69016     69015     69017     69017     69015     69018
     69019     69015     69018     69019     69015     69017     69019     69015     69016
     69021     69025     69026     69022     69021     69024     69022     69021     69023
     69023     69021     69024     69025     69021     69024     69025     69021     69023
     69025     69021     69022     69027     69031     69032     69028     69027     69030
     69028     69027     69029     69029     69027     69030     69031     69027     69030
     69031     69027     69029     69031     69027     69028     69033     69037     69038
     69034     69033     69036     69034     69033     69035     69035     69033     69036
     69037     69033     69036     69037     69033     69035     69037     69033     69034
     69039     69043     69044     69040     69039     69042     69040     69039     69041
     69041     69039     69042     69043     69039     69042     69043     69039     69041
     69043     69039     69040     69045     69049     69050     69046     69045     69048
     69046     69045     69047     69047     69045     69048     69049     69045     69048
     69049     69045     69047     69049     69045     69046     69051     69055     69056
     69052     69051     69054     69052     69051     69053     69053     69051     69054
     69055     69051     69054     69055     69051     69053     69055     69051     69052
     69057     69061     69062     69058     69057     69060     69058     69057     69059
     69059     69057     69060     69061     69057     69060     69061     69057     69059
     69061     69057     69058     69063     69067     69068     69064     69063     69066
     69064     69063     69065     69065     69063     69066     69067     69063     69066
     69067     69063     69065     69067     69063     69064     69069     69073     69074
     69070     69069     69072     69070     69069     69071     69071     69069     69072
     69073     69069     69072     69073     69069     69071     69073     69069     69070
     69075     69079     69080     69076     69075     69078     69076     69075     69077
     69077     69075     69078     69079     69075     69078     69079     69075     69077
     69079     69075     69076     69081     69085     69086     69082     69081     69084
     69082     69081     69083     69083     69081     69084     69085     69081     69084
     69085     69081     69083     69085     69081     69082     69087     69091     69092
     69088     69087     69090     69088     69087     69089     69089     69087     69090
     69091     69087     69090     69091     69087     69089     69091     69087     69088
     69093     69097     69098     69094     69093     69096     69094     69093     69095
     69095     69093     69096     69097     69093     69096     69097     69093     69095
     69097     69093     69094     69099     69103     69104     69100     69099     69102
     69100     69099     69101     69101     69099     69102     69103     69099     69102
     69103     69099     69101     69103     69099     69100     69105     69109     69110
     69106     69105     69108     69106     69105     69107     69107     69105     69108
     69109     69105     69108     69109     69105     69107     69109     69105     69106
     69111     69115     69116     69112     69111     69114     69112     69111     69113
     69113     69111     69114     69115     69111     69114     69115     69111     69113
     69115     69111     69112     69117     69121     69122     69118     69117     69120
     69118     69117     69119     69119     69117     69120     69121     69117     69120
     69121     69117     69119     69121     69117     69118     69123     69127     69128
     69124     69123     69126     69124     69123     69125     69125     69123     69126
     69127     69123     69126     69127     69123     69125     69127     69123     69124
     69129     69133     69134     69130     69129     69132     69130     69129     69131
     69131     69129     69132     69133     69129     69132     69133     69129     69131
     69133     69129     69130     69135     69139     69140     69136     69135     69138
     69136     69135     69137     69137     69135     69138     69139     69135     69138
     69139     69135     69137     69139     69135     69136     69141     69145     69146
     69142     69141     69144     69142     69141     69143     69143     69141     69144
     69145     69141     69144     69145     69141     69143     69145     69141     69142
     69147     69151     69152     69148     69147     69150     69148     69147     69149
     69149     69147     69150     69151     69147     69150     69151     69147     69149
     69151     69147     69148     69153     69157     69158     69154     69153     69156
     69154     69153     69155     69155     69153     69156     69157     69153     69156
     69157     69153     69155     69157     69153     69154     69159     69163     69164
     69160     69159     69162     69160     69159     69161     69161     69159     69162
     69163     69159     69162     69163     69159     69161     69163     69159     69160
     69165     69169     69170     69166     69165     69168     69166     69165     69167
     69167     69165     69168     69169     69165     69168     69169     69165     69167
     69169     69165     69166     69171     69175     69176     69172     69171     69174
     69172     69171     69173     69173     69171     69174     69175     69171     69174
     69175     69171     69173     69175     69171     69172     69177     69181     69182
     69178     69177     69180     69178     69177     69179     69179     69177     69180
     69181     69177     69180     69181     69177     69179     69181     69177     69178
     69183     69187     69188     69184     69183     69186     69184     69183     69185
     69185     69183     69186     69187     69183     69186     69187     69183     69185
     69187     69183     69184     69189     69193     69194     69190     69189     69192
     69190     69189     69191     69191     69189     69192     69193     69189     69192
     69193     69189     69191     69193     69189     69190     69195     69199     69200
     69196     69195     69198     69196     69195     69197     69197     69195     69198
     69199     69195     69198     69199     69195     69197     69199     69195     69196
     69201     69205     69206     69202     69201     69204     69202     69201     69203
     69203     69201     69204     69205     69201     69204     69205     69201     69203
     69205     69201     69202     69207     69211     69212     69208     69207     69210
     69208     69207     69209     69209     69207     69210     69211     69207     69210
     69211     69207     69209     69211     69207     69208     69213     69217     69218
     69214     69213     69216     69214     69213     69215     69215     69213     69216
     69217     69213     69216     69217     69213     69215     69217     69213     69214
     69219     69223     69224     69220     69219     69222     69220     69219     69221
     69221     69219     69222     69223     69219     69222     69223     69219     69221
     69223     69219     69220     69225     69229     69230     69226     69225     69228
     69226     69225     69227     69227     69225     69228     69229     69225     69228
     69229     69225     69227     69229     69225     69226     69231     69235     69236
     69232     69231     69234     69232     69231     69233     69233     69231     69234
     69235     69231     69234     69235     69231     69233     69235     69231     69232
     69237     69241     69242     69238     69237     69240     69238     69237     69239
     69239     69237     69240     69241     69237     69240     69241     69237     69239
     69241     69237     69238     69243     69247     69248     69244     69243     69246
     69244     69243     69245     69245     69243     69246     69247     69243     69246
     69247     69243     69245     69247     69243     69244     69249     69253     69254
     69250     69249     69252     69250     69249     69251     69251     69249     69252
     69253     69249     69252     69253     69249     69251     69253     69249     69250
     69255     69259     69260     69256     69255     69258     69256     69255     69257
     69257     69255     69258     69259     69255     69258     69259     69255     69257
     69259     69255     69256     69261     69265     69266     69262     69261     69264
     69262     69261     69263     69263     69261     69264     69265     69261     69264
     69265     69261     69263     69265     69261     69262     69267     69271     69272
     69268     69267     69270     69268     69267     69269     69269     69267     69270
     69271     69267     69270     69271     69267     69269     69271     69267     69268
     69273     69277     69278     69274     69273     69276     69274     69273     69275
     69275     69273     69276     69277     69273     69276     69277     69273     69275
     69277     69273     69274     69279     69283     69284     69280     69279     69282
     69280     69279     69281     69281     69279     69282     69283     69279     69282
     69283     69279     69281     69283     69279     69280     69285     69289     69290
     69286     69285     69288     69286     69285     69287     69287     69285     69288
     69289     69285     69288     69289     69285     69287     69289     69285     69286
     69291     69295     69296     69292     69291     69294     69292     69291     69293
     69293     69291     69294     69295     69291     69294     69295     69291     69293
     69295     69291     69292     69297     69301     69302     69298     69297     69300
     69298     69297     69299     69299     69297     69300     69301     69297     69300
     69301     69297     69299     69301     69297     69298     69303     69307     69308
     69304     69303     69306     69304     69303     69305     69305     69303     69306
     69307     69303     69306     69307     69303     69305     69307     69303     69304
     69309     69313     69314     69310     69309     69312     69310     69309     69311
     69311     69309     69312     69313     69309     69312     69313     69309     69311
     69313     69309     69310     69315     69319     69320     69316     69315     69318
     69316     69315     69317     69317     69315     69318     69319     69315     69318
     69319     69315     69317     69319     69315     69316     69321     69325     69326
     69322     69321     69324     69322     69321     69323     69323     69321     69324
     69325     69321     69324     69325     69321     69323     69325     69321     69322
     69327     69331     69332     69328     69327     69330     69328     69327     69329
     69329     69327     69330     69331     69327     69330     69331     69327     69329
     69331     69327     69328     69333     69337     69338     69334     69333     69336
     69334     69333     69335     69335     69333     69336     69337     69333     69336
     69337     69333     69335     69337     69333     69334     69339     69343     69344
     69340     69339     69342     69340     69339     69341     69341     69339     69342
     69343     69339     69342     69343     69339     69341     69343     69339     69340
     69345     69349     69350     69346     69345     69348     69346     69345     69347
     69347     69345     69348     69349     69345     69348     69349     69345     69347
     69349     69345     69346     69351     69355     69356     69352     69351     69354
     69352     69351     69353     69353     69351     69354     69355     69351     69354
     69355     69351     69353     69355     69351     69352     69357     69361     69362
     69358     69357     69360     69358     69357     69359     69359     69357     69360
     69361     69357     69360     69361     69357     69359     69361     69357     69358
     69363     69367     69368     69364     69363     69366     69364     69363     69365
     69365     69363     69366     69367     69363     69366     69367     69363     69365
     69367     69363     69364     69369     69373     69374     69370     69369     69372
     69370     69369     69371     69371     69369     69372     69373     69369     69372
     69373     69369     69371     69373     69369     69370     69375     69379     69380
     69376     69375     69378     69376     69375     69377     69377     69375     69378
     69379     69375     69378     69379     69375     69377     69379     69375     69376
     69381     69385     69386     69382     69381     69384     69382     69381     69383
     69383     69381     69384     69385     69381     69384     69385     69381     69383
     69385     69381     69382     69387     69391     69392     69388     69387     69390
     69388     69387     69389     69389     69387     69390     69391     69387     69390
     69391     69387     69389     69391     69387     69388     69393     69397     69398
     69394     69393     69396     69394     69393     69395     69395     69393     69396
     69397     69393     69396     69397     69393     69395     69397     69393     69394
     69399     69403     69404     69400     69399     69402     69400     69399     69401
     69401     69399     69402     69403     69399     69402     69403     69399     69401
     69403     69399     69400     69405     69409     69410     69406     69405     69408
     69406     69405     69407     69407     69405     69408     69409     69405     69408
     69409     69405     69407     69409     69405     69406     69411     69415     69416
     69412     69411     69414     69412     69411     69413     69413     69411     69414
     69415     69411     69414     69415     69411     69413     69415     69411     69412
     69417     69421     69422     69418     69417     69420     69418     69417     69419
     69419     69417     69420     69421     69417     69420     69421     69417     69419
     69421     69417     69418     69423     69427     69428     69424     69423     69426
     69424     69423     69425     69425     69423     69426     69427     69423     69426
     69427     69423     69425     69427     69423     69424     69429     69433     69434
     69430     69429     69432     69430     69429     69431     69431     69429     69432
     69433     69429     69432     69433     69429     69431     69433     69429     69430
     69435     69439     69440     69436     69435     69438     69436     69435     69437
     69437     69435     69438     69439     69435     69438     69439     69435     69437
     69439     69435     69436     69441     69445     69446     69442     69441     69444
     69442     69441     69443     69443     69441     69444     69445     69441     69444
     69445     69441     69443     69445     69441     69442     69447     69451     69452
     69448     69447     69450     69448     69447     69449     69449     69447     69450
     69451     69447     69450     69451     69447     69449     69451     69447     69448
     69453     69457     69458     69454     69453     69456     69454     69453     69455
     69455     69453     69456     69457     69453     69456     69457     69453     69455
     69457     69453     69454     69459     69463     69464     69460     69459     69462
     69460     69459     69461     69461     69459     69462     69463     69459     69462
     69463     69459     69461     69463     69459     69460     69465     69469     69470
     69466     69465     69468     69466     69465     69467     69467     69465     69468
     69469     69465     69468     69469     69465     69467     69469     69465     69466
     69471     69475     69476     69472     69471     69474     69472     69471     69473
     69473     69471     69474     69475     69471     69474     69475     69471     69473
     69475     69471     69472     69477     69481     69482     69478     69477     69480
     69478     69477     69479     69479     69477     69480     69481     69477     69480
     69481     69477     69479     69481     69477     69478     69483     69487     69488
     69484     69483     69486     69484     69483     69485     69485     69483     69486
     69487     69483     69486     69487     69483     69485     69487     69483     69484
     69489     69493     69494     69490     69489     69492     69490     69489     69491
     69491     69489     69492     69493     69489     69492     69493     69489     69491
     69493     69489     69490     69495     69499     69500     69496     69495     69498
     69496     69495     69497     69497     69495     69498     69499     69495     69498
     69499     69495     69497     69499     69495     69496     69501     69505     69506
     69502     69501     69504     69502     69501     69503     69503     69501     69504
     69505     69501     69504     69505     69501     69503     69505     69501     69502
     69507     69511     69512     69508     69507     69510     69508     69507     69509
     69509     69507     69510     69511     69507     69510     69511     69507     69509
     69511     69507     69508     69513     69517     69518     69514     69513     69516
     69514     69513     69515     69515     69513     69516     69517     69513     69516
     69517     69513     69515     69517     69513     69514     69519     69523     69524
     69520     69519     69522     69520     69519     69521     69521     69519     69522
     69523     69519     69522     69523     69519     69521     69523     69519     69520
     69525     69529     69530     69526     69525     69528     69526     69525     69527
     69527     69525     69528     69529     69525     69528     69529     69525     69527
     69529     69525     69526     69531     69535     69536     69532     69531     69534
     69532     69531     69533     69533     69531     69534     69535     69531     69534
     69535     69531     69533     69535     69531     69532     69537     69541     69542
     69538     69537     69540     69538     69537     69539     69539     69537     69540
     69541     69537     69540     69541     69537     69539     69541     69537     69538
     69543     69547     69548     69544     69543     69546     69544     69543     69545
     69545     69543     69546     69547     69543     69546     69547     69543     69545
     69547     69543     69544     69549     69553     69554     69550     69549     69552
     69550     69549     69551     69551     69549     69552     69553     69549     69552
     69553     69549     69551     69553     69549     69550     69555     69559     69560
     69556     69555     69558     69556     69555     69557     69557     69555     69558
     69559     69555     69558     69559     69555     69557     69559     69555     69556
     69561     69565     69566     69562     69561     69564     69562     69561     69563
     69563     69561     69564     69565     69561     69564     69565     69561     69563
     69565     69561     69562     69567     69571     69572     69568     69567     69570
     69568     69567     69569     69569     69567     69570     69571     69567     69570
     69571     69567     69569     69571     69567     69568     69573     69577     69578
     69574     69573     69576     69574     69573     69575     69575     69573     69576
     69577     69573     69576     69577     69573     69575     69577     69573     69574
     69579     69583     69584     69580     69579     69582     69580     69579     69581
     69581     69579     69582     69583     69579     69582     69583     69579     69581
     69583     69579     69580     69585     69589     69590     69586     69585     69588
     69586     69585     69587     69587     69585     69588     69589     69585     69588
     69589     69585     69587     69589     69585     69586     69591     69595     69596
     69592     69591     69594     69592     69591     69593     69593     69591     69594
     69595     69591     69594     69595     69591     69593     69595     69591     69592
     69597     69601     69602     69598     69597     69600     69598     69597     69599
     69599     69597     69600     69601     69597     69600     69601     69597     69599
     69601     69597     69598     69603     69607     69608     69604     69603     69606
     69604     69603     69605     69605     69603     69606     69607     69603     69606
     69607     69603     69605     69607     69603     69604     69609     69613     69614
     69610     69609     69612     69610     69609     69611     69611     69609     69612
     69613     69609     69612     69613     69609     69611     69613     69609     69610
     69615     69619     69620     69616     69615     69618     69616     69615     69617
     69617     69615     69618     69619     69615     69618     69619     69615     69617
     69619     69615     69616     69621     69625     69626     69622     69621     69624
     69622     69621     69623     69623     69621     69624     69625     69621     69624
     69625     69621     69623     69625     69621     69622     69627     69631     69632
     69628     69627     69630     69628     69627     69629     69629     69627     69630
     69631     69627     69630     69631     69627     69629     69631     69627     69628
     69633     69637     69638     69634     69633     69636     69634     69633     69635
     69635     69633     69636     69637     69633     69636     69637     69633     69635
     69637     69633     69634     69639     69643     69644     69640     69639     69642
     69640     69639     69641     69641     69639     69642     69643     69639     69642
     69643     69639     69641     69643     69639     69640     69645     69649     69650
     69646     69645     69648     69646     69645     69647     69647     69645     69648
     69649     69645     69648     69649     69645     69647     69649     69645     69646
     69651     69655     69656     69652     69651     69654     69652     69651     69653
     69653     69651     69654     69655     69651     69654     69655     69651     69653
     69655     69651     69652     69657     69661     69662     69658     69657     69660
     69658     69657     69659     69659     69657     69660     69661     69657     69660
     69661     69657     69659     69661     69657     69658     69663     69667     69668
     69664     69663     69666     69664     69663     69665     69665     69663     69666
     69667     69663     69666     69667     69663     69665     69667     69663     69664
     69669     69673     69674     69670     69669     69672     69670     69669     69671
     69671     69669     69672     69673     69669     69672     69673     69669     69671
     69673     69669     69670     69675     69679     69680     69676     69675     69678
     69676     69675     69677     69677     69675     69678     69679     69675     69678
     69679     69675     69677     69679     69675     69676     69681     69685     69686
     69682     69681     69684     69682     69681     69683     69683     69681     69684
     69685     69681     69684     69685     69681     69683     69685     69681     69682
     69687     69691     69692     69688     69687     69690     69688     69687     69689
     69689     69687     69690     69691     69687     69690     69691     69687     69689
     69691     69687     69688     69693     69697     69698     69694     69693     69696
     69694     69693     69695     69695     69693     69696     69697     69693     69696
     69697     69693     69695     69697     69693     69694     69699     69703     69704
     69700     69699     69702     69700     69699     69701     69701     69699     69702
     69703     69699     69702     69703     69699     69701     69703     69699     69700
     69705     69709     69710     69706     69705     69708     69706     69705     69707
     69707     69705     69708     69709     69705     69708     69709     69705     69707
     69709     69705     69706     69711     69715     69716     69712     69711     69714
     69712     69711     69713     69713     69711     69714     69715     69711     69714
     69715     69711     69713     69715     69711     69712     69717     69721     69722
     69718     69717     69720     69718     69717     69719     69719     69717     69720
     69721     69717     69720     69721     69717     69719     69721     69717     69718
     69723     69727     69728     69724     69723     69726     69724     69723     69725
     69725     69723     69726     69727     69723     69726     69727     69723     69725
     69727     69723     69724     69729     69733     69734     69730     69729     69732
     69730     69729     69731     69731     69729     69732     69733     69729     69732
     69733     69729     69731     69733     69729     69730     69735     69739     69740
     69736     69735     69738     69736     69735     69737     69737     69735     69738
     69739     69735     69738     69739     69735     69737     69739     69735     69736
     69741     69745     69746     69742     69741     69744     69742     69741     69743
     69743     69741     69744     69745     69741     69744     69745     69741     69743
     69745     69741     69742     69747     69751     69752     69748     69747     69750
     69748     69747     69749     69749     69747     69750     69751     69747     69750
     69751     69747     69749     69751     69747     69748     69753     69757     69758
     69754     69753     69756     69754     69753     69755     69755     69753     69756
     69757     69753     69756     69757     69753     69755     69757     69753     69754
     69759     69763     69764     69760     69759     69762     69760     69759     69761
     69761     69759     69762     69763     69759     69762     69763     69759     69761
     69763     69759     69760     69765     69769     69770     69766     69765     69768
     69766     69765     69767     69767     69765     69768     69769     69765     69768
     69769     69765     69767     69769     69765     69766     69771     69775     69776
     69772     69771     69774     69772     69771     69773     69773     69771     69774
     69775     69771     69774     69775     69771     69773     69775     69771     69772
     69777     69781     69782     69778     69777     69780     69778     69777     69779
     69779     69777     69780     69781     69777     69780     69781     69777     69779
     69781     69777     69778     69783     69787     69788     69784     69783     69786
     69784     69783     69785     69785     69783     69786     69787     69783     69786
     69787     69783     69785     69787     69783     69784     69789     69793     69794
     69790     69789     69792     69790     69789     69791     69791     69789     69792
     69793     69789     69792     69793     69789     69791     69793     69789     69790
     69795     69799     69800     69796     69795     69798     69796     69795     69797
     69797     69795     69798     69799     69795     69798     69799     69795     69797
     69799     69795     69796     69801     69805     69806     69802     69801     69804
     69802     69801     69803     69803     69801     69804     69805     69801     69804
     69805     69801     69803     69805     69801     69802     69807     69811     69812
     69808     69807     69810     69808     69807     69809     69809     69807     69810
     69811     69807     69810     69811     69807     69809     69811     69807     69808
     69813     69817     69818     69814     69813     69816     69814     69813     69815
     69815     69813     69816     69817     69813     69816     69817     69813     69815
     69817     69813     69814     69819     69823     69824     69820     69819     69822
     69820     69819     69821     69821     69819     69822     69823     69819     69822
     69823     69819     69821     69823     69819     69820     69825     69829     69830
     69826     69825     69828     69826     69825     69827     69827     69825     69828
     69829     69825     69828     69829     69825     69827     69829     69825     69826
     69831     69835     69836     69832     69831     69834     69832     69831     69833
     69833     69831     69834     69835     69831     69834     69835     69831     69833
     69835     69831     69832     69837     69841     69842     69838     69837     69840
     69838     69837     69839     69839     69837     69840     69841     69837     69840
     69841     69837     69839     69841     69837     69838     69843     69847     69848
     69844     69843     69846     69844     69843     69845     69845     69843     69846
     69847     69843     69846     69847     69843     69845     69847     69843     69844
     69849     69853     69854     69850     69849     69852     69850     69849     69851
     69851     69849     69852     69853     69849     69852     69853     69849     69851
     69853     69849     69850     69855     69859     69860     69856     69855     69858
     69856     69855     69857     69857     69855     69858     69859     69855     69858
     69859     69855     69857     69859     69855     69856     69861     69865     69866
     69862     69861     69864     69862     69861     69863     69863     69861     69864
     69865     69861     69864     69865     69861     69863     69865     69861     69862
     69867     69871     69872     69868     69867     69870     69868     69867     69869
     69869     69867     69870     69871     69867     69870     69871     69867     69869
     69871     69867     69868     69873     69877     69878     69874     69873     69876
     69874     69873     69875     69875     69873     69876     69877     69873     69876
     69877     69873     69875     69877     69873     69874     69879     69883     69884
     69880     69879     69882     69880     69879     69881     69881     69879     69882
     69883     69879     69882     69883     69879     69881     69883     69879     69880
     69885     69889     69890     69886     69885     69888     69886     69885     69887
     69887     69885     69888     69889     69885     69888     69889     69885     69887
     69889     69885     69886     69891     69895     69896     69892     69891     69894
     69892     69891     69893     69893     69891     69894     69895     69891     69894
     69895     69891     69893     69895     69891     69892     69897     69901     69902
     69898     69897     69900     69898     69897     69899     69899     69897     69900
     69901     69897     69900     69901     69897     69899     69901     69897     69898
     69903     69907     69908     69904     69903     69906     69904     69903     69905
     69905     69903     69906     69907     69903     69906     69907     69903     69905
     69907     69903     69904     69909     69913     69914     69910     69909     69912
     69910     69909     69911     69911     69909     69912     69913     69909     69912
     69913     69909     69911     69913     69909     69910     69915     69919     69920
     69916     69915     69918     69916     69915     69917     69917     69915     69918
     69919     69915     69918     69919     69915     69917     69919     69915     69916
     69921     69925     69926     69922     69921     69924     69922     69921     69923
     69923     69921     69924     69925     69921     69924     69925     69921     69923
     69925     69921     69922     69927     69931     69932     69928     69927     69930
     69928     69927     69929     69929     69927     69930     69931     69927     69930
     69931     69927     69929     69931     69927     69928     69933     69937     69938
     69934     69933     69936     69934     69933     69935     69935     69933     69936
     69937     69933     69936     69937     69933     69935     69937     69933     69934
     69939     69943     69944     69940     69939     69942     69940     69939     69941
     69941     69939     69942     69943     69939     69942     69943     69939     69941
     69943     69939     69940     69945     69949     69950     69946     69945     69948
     69946     69945     69947     69947     69945     69948     69949     69945     69948
     69949     69945     69947     69949     69945     69946     69951     69955     69956
     69952     69951     69954     69952     69951     69953     69953     69951     69954
     69955     69951     69954     69955     69951     69953     69955     69951     69952
     69957     69961     69962     69958     69957     69960     69958     69957     69959
     69959     69957     69960     69961     69957     69960     69961     69957     69959
     69961     69957     69958     69963     69967     69968     69964     69963     69966
     69964     69963     69965     69965     69963     69966     69967     69963     69966
     69967     69963     69965     69967     69963     69964     69969     69973     69974
     69970     69969     69972     69970     69969     69971     69971     69969     69972
     69973     69969     69972     69973     69969     69971     69973     69969     69970
     69975     69979     69980     69976     69975     69978     69976     69975     69977
     69977     69975     69978     69979     69975     69978     69979     69975     69977
     69979     69975     69976     69981     69985     69986     69982     69981     69984
     69982     69981     69983     69983     69981     69984     69985     69981     69984
     69985     69981     69983     69985     69981     69982     69987     69991     69992
     69988     69987     69990     69988     69987     69989     69989     69987     69990
     69991     69987     69990     69991     69987     69989     69991     69987     69988
     69993     69997     69998     69994     69993     69996     69994     69993     69995
     69995     69993     69996     69997     69993     69996     69997     69993     69995
     69997     69993     69994     69999     70003     70004     70000     69999     70002
     70000     69999     70001     70001     69999     70002     70003     69999     70002
     70003     69999     70001     70003     69999     70000     70005     70009     70010
     70006     70005     70008     70006     70005     70007     70007     70005     70008
     70009     70005     70008     70009     70005     70007     70009     70005     70006
     70011     70015     70016     70012     70011     70014     70012     70011     70013
     70013     70011     70014     70015     70011     70014     70015     70011     70013
     70015     70011     70012     70017     70021     70022     70018     70017     70020
     70018     70017     70019     70019     70017     70020     70021     70017     70020
     70021     70017     70019     70021     70017     70018     70023     70027     70028
     70024     70023     70026     70024     70023     70025     70025     70023     70026
     70027     70023     70026     70027     70023     70025     70027     70023     70024
     70029     70033     70034     70030     70029     70032     70030     70029     70031
     70031     70029     70032     70033     70029     70032     70033     70029     70031
     70033     70029     70030     70035     70039     70040     70036     70035     70038
     70036     70035     70037     70037     70035     70038     70039     70035     70038
     70039     70035     70037     70039     70035     70036     70041     70045     70046
     70042     70041     70044     70042     70041     70043     70043     70041     70044
     70045     70041     70044     70045     70041     70043     70045     70041     70042
     70047     70051     70052     70048     70047     70050     70048     70047     70049
     70049     70047     70050     70051     70047     70050     70051     70047     70049
     70051     70047     70048     70053     70057     70058     70054     70053     70056
     70054     70053     70055     70055     70053     70056     70057     70053     70056
     70057     70053     70055     70057     70053     70054     70059     70063     70064
     70060     70059     70062     70060     70059     70061     70061     70059     70062
     70063     70059     70062     70063     70059     70061     70063     70059     70060
     70065     70069     70070     70066     70065     70068     70066     70065     70067
     70067     70065     70068     70069     70065     70068     70069     70065     70067
     70069     70065     70066     70071     70075     70076     70072     70071     70074
     70072     70071     70073     70073     70071     70074     70075     70071     70074
     70075     70071     70073     70075     70071     70072     70077     70081     70082
     70078     70077     70080     70078     70077     70079     70079     70077     70080
     70081     70077     70080     70081     70077     70079     70081     70077     70078
     70083     70087     70088     70084     70083     70086     70084     70083     70085
     70085     70083     70086     70087     70083     70086     70087     70083     70085
     70087     70083     70084     70089     70093     70094     70090     70089     70092
     70090     70089     70091     70091     70089     70092     70093     70089     70092
     70093     70089     70091     70093     70089     70090     70095     70099     70100
     70096     70095     70098     70096     70095     70097     70097     70095     70098
     70099     70095     70098     70099     70095     70097     70099     70095     70096
     70101     70105     70106     70102     70101     70104     70102     70101     70103
     70103     70101     70104     70105     70101     70104     70105     70101     70103
     70105     70101     70102     70107     70111     70112     70108     70107     70110
     70108     70107     70109     70109     70107     70110     70111     70107     70110
     70111     70107     70109     70111     70107     70108     70113     70117     70118
     70114     70113     70116     70114     70113     70115     70115     70113     70116
     70117     70113     70116     70117     70113     70115     70117     70113     70114
     70119     70123     70124     70120     70119     70122     70120     70119     70121
     70121     70119     70122     70123     70119     70122     70123     70119     70121
     70123     70119     70120     70125     70129     70130     70126     70125     70128
     70126     70125     70127     70127     70125     70128     70129     70125     70128
     70129     70125     70127     70129     70125     70126     70131     70135     70136
     70132     70131     70134     70132     70131     70133     70133     70131     70134
     70135     70131     70134     70135     70131     70133     70135     70131     70132
     70137     70141     70142     70138     70137     70140     70138     70137     70139
     70139     70137     70140     70141     70137     70140     70141     70137     70139
     70141     70137     70138     70143     70147     70148     70144     70143     70146
     70144     70143     70145     70145     70143     70146     70147     70143     70146
     70147     70143     70145     70147     70143     70144     70149     70153     70154
     70150     70149     70152     70150     70149     70151     70151     70149     70152
     70153     70149     70152     70153     70149     70151     70153     70149     70150
     70155     70159     70160     70156     70155     70158     70156     70155     70157
     70157     70155     70158     70159     70155     70158     70159     70155     70157
     70159     70155     70156     70161     70165     70166     70162     70161     70164
     70162     70161     70163     70163     70161     70164     70165     70161     70164
     70165     70161     70163     70165     70161     70162     70167     70171     70172
     70168     70167     70170     70168     70167     70169     70169     70167     70170
     70171     70167     70170     70171     70167     70169     70171     70167     70168
     70173     70177     70178     70174     70173     70176     70174     70173     70175
     70175     70173     70176     70177     70173     70176     70177     70173     70175
     70177     70173     70174     70179     70183     70184     70180     70179     70182
     70180     70179     70181     70181     70179     70182     70183     70179     70182
     70183     70179     70181     70183     70179     70180     70185     70189     70190
     70186     70185     70188     70186     70185     70187     70187     70185     70188
     70189     70185     70188     70189     70185     70187     70189     70185     70186
     70191     70195     70196     70192     70191     70194     70192     70191     70193
     70193     70191     70194     70195     70191     70194     70195     70191     70193
     70195     70191     70192     70197     70201     70202     70198     70197     70200
     70198     70197     70199     70199     70197     70200     70201     70197     70200
     70201     70197     70199     70201     70197     70198     70203     70207     70208
     70204     70203     70206     70204     70203     70205     70205     70203     70206
     70207     70203     70206     70207     70203     70205     70207     70203     70204
     70209     70213     70214     70210     70209     70212     70210     70209     70211
     70211     70209     70212     70213     70209     70212     70213     70209     70211
     70213     70209     70210     70215     70219     70220     70216     70215     70218
     70216     70215     70217     70217     70215     70218     70219     70215     70218
     70219     70215     70217     70219     70215     70216     70221     70225     70226
     70222     70221     70224     70222     70221     70223     70223     70221     70224
     70225     70221     70224     70225     70221     70223     70225     70221     70222
     70227     70231     70232     70228     70227     70230     70228     70227     70229
     70229     70227     70230     70231     70227     70230     70231     70227     70229
     70231     70227     70228     70233     70237     70238     70234     70233     70236
     70234     70233     70235     70235     70233     70236     70237     70233     70236
     70237     70233     70235     70237     70233     70234     70239     70243     70244
     70240     70239     70242     70240     70239     70241     70241     70239     70242
     70243     70239     70242     70243     70239     70241     70243     70239     70240
     70245     70249     70250     70246     70245     70248     70246     70245     70247
     70247     70245     70248     70249     70245     70248     70249     70245     70247
     70249     70245     70246     70251     70255     70256     70252     70251     70254
     70252     70251     70253     70253     70251     70254     70255     70251     70254
     70255     70251     70253     70255     70251     70252     70257     70261     70262
     70258     70257     70260     70258     70257     70259     70259     70257     70260
     70261     70257     70260     70261     70257     70259     70261     70257     70258
     70263     70267     70268     70264     70263     70266     70264     70263     70265
     70265     70263     70266     70267     70263     70266     70267     70263     70265
     70267     70263     70264     70269     70273     70274     70270     70269     70272
     70270     70269     70271     70271     70269     70272     70273     70269     70272
     70273     70269     70271     70273     70269     70270     70275     70279     70280
     70276     70275     70278     70276     70275     70277     70277     70275     70278
     70279     70275     70278     70279     70275     70277     70279     70275     70276
     70281     70285     70286     70282     70281     70284     70282     70281     70283
     70283     70281     70284     70285     70281     70284     70285     70281     70283
     70285     70281     70282     70287     70291     70292     70288     70287     70290
     70288     70287     70289     70289     70287     70290     70291     70287     70290
     70291     70287     70289     70291     70287     70288     70293     70297     70298
     70294     70293     70296     70294     70293     70295     70295     70293     70296
     70297     70293     70296     70297     70293     70295     70297     70293     70294
     70299     70303     70304     70300     70299     70302     70300     70299     70301
     70301     70299     70302     70303     70299     70302     70303     70299     70301
     70303     70299     70300     70305     70309     70310     70306     70305     70308
     70306     70305     70307     70307     70305     70308     70309     70305     70308
     70309     70305     70307     70309     70305     70306     70311     70315     70316
     70312     70311     70314     70312     70311     70313     70313     70311     70314
     70315     70311     70314     70315     70311     70313     70315     70311     70312
     70317     70321     70322     70318     70317     70320     70318     70317     70319
     70319     70317     70320     70321     70317     70320     70321     70317     70319
     70321     70317     70318     70323     70327     70328     70324     70323     70326
     70324     70323     70325     70325     70323     70326     70327     70323     70326
     70327     70323     70325     70327     70323     70324     70329     70333     70334
     70330     70329     70332     70330     70329     70331     70331     70329     70332
     70333     70329     70332     70333     70329     70331     70333     70329     70330
     70335     70339     70340     70336     70335     70338     70336     70335     70337
     70337     70335     70338     70339     70335     70338     70339     70335     70337
     70339     70335     70336     70341     70345     70346     70342     70341     70344
     70342     70341     70343     70343     70341     70344     70345     70341     70344
     70345     70341     70343     70345     70341     70342     70347     70351     70352
     70348     70347     70350     70348     70347     70349     70349     70347     70350
     70351     70347     70350     70351     70347     70349     70351     70347     70348
     70353     70357     70358     70354     70353     70356     70354     70353     70355
     70355     70353     70356     70357     70353     70356     70357     70353     70355
     70357     70353     70354     70359     70363     70364     70360     70359     70362
     70360     70359     70361     70361     70359     70362     70363     70359     70362
     70363     70359     70361     70363     70359     70360     70365     70369     70370
     70366     70365     70368     70366     70365     70367     70367     70365     70368
     70369     70365     70368     70369     70365     70367     70369     70365     70366
     70371     70375     70376     70372     70371     70374     70372     70371     70373
     70373     70371     70374     70375     70371     70374     70375     70371     70373
     70375     70371     70372     70377     70381     70382     70378     70377     70380
     70378     70377     70379     70379     70377     70380     70381     70377     70380
     70381     70377     70379     70381     70377     70378     70383     70387     70388
     70384     70383     70386     70384     70383     70385     70385     70383     70386
     70387     70383     70386     70387     70383     70385     70387     70383     70384
     70389     70393     70394     70390     70389     70392     70390     70389     70391
     70391     70389     70392     70393     70389     70392     70393     70389     70391
     70393     70389     70390     70395     70399     70400     70396     70395     70398
     70396     70395     70397     70397     70395     70398     70399     70395     70398
     70399     70395     70397     70399     70395     70396     70401     70405     70406
     70402     70401     70404     70402     70401     70403     70403     70401     70404
     70405     70401     70404     70405     70401     70403     70405     70401     70402
     70407     70411     70412     70408     70407     70410     70408     70407     70409
     70409     70407     70410     70411     70407     70410     70411     70407     70409
     70411     70407     70408     70413     70417     70418     70414     70413     70416
     70414     70413     70415     70415     70413     70416     70417     70413     70416
     70417     70413     70415     70417     70413     70414     70419     70423     70424
     70420     70419     70422     70420     70419     70421     70421     70419     70422
     70423     70419     70422     70423     70419     70421     70423     70419     70420
     70425     70429     70430     70426     70425     70428     70426     70425     70427
     70427     70425     70428     70429     70425     70428     70429     70425     70427
     70429     70425     70426     70431     70435     70436     70432     70431     70434
     70432     70431     70433     70433     70431     70434     70435     70431     70434
     70435     70431     70433     70435     70431     70432     70437     70441     70442
     70438     70437     70440     70438     70437     70439     70439     70437     70440
     70441     70437     70440     70441     70437     70439     70441     70437     70438
     70443     70447     70448     70444     70443     70446     70444     70443     70445
     70445     70443     70446     70447     70443     70446     70447     70443     70445
     70447     70443     70444     70449     70453     70454     70450     70449     70452
     70450     70449     70451     70451     70449     70452     70453     70449     70452
     70453     70449     70451     70453     70449     70450     70455     70459     70460
     70456     70455     70458     70456     70455     70457     70457     70455     70458
     70459     70455     70458     70459     70455     70457     70459     70455     70456
     70461     70465     70466     70462     70461     70464     70462     70461     70463
     70463     70461     70464     70465     70461     70464     70465     70461     70463
     70465     70461     70462     70467     70471     70472     70468     70467     70470
     70468     70467     70469     70469     70467     70470     70471     70467     70470
     70471     70467     70469     70471     70467     70468     70473     70477     70478
     70474     70473     70476     70474     70473     70475     70475     70473     70476
     70477     70473     70476     70477     70473     70475     70477     70473     70474
     70479     70483     70484     70480     70479     70482     70480     70479     70481
     70481     70479     70482     70483     70479     70482     70483     70479     70481
     70483     70479     70480     70485     70489     70490     70486     70485     70488
     70486     70485     70487     70487     70485     70488     70489     70485     70488
     70489     70485     70487     70489     70485     70486     70491     70495     70496
     70492     70491     70494     70492     70491     70493     70493     70491     70494
     70495     70491     70494     70495     70491     70493     70495     70491     70492
     70497     70501     70502     70498     70497     70500     70498     70497     70499
     70499     70497     70500     70501     70497     70500     70501     70497     70499
     70501     70497     70498     70503     70507     70508     70504     70503     70506
     70504     70503     70505     70505     70503     70506     70507     70503     70506
     70507     70503     70505     70507     70503     70504     70509     70513     70514
     70510     70509     70512     70510     70509     70511     70511     70509     70512
     70513     70509     70512     70513     70509     70511     70513     70509     70510
     70515     70519     70520     70516     70515     70518     70516     70515     70517
     70517     70515     70518     70519     70515     70518     70519     70515     70517
     70519     70515     70516     70521     70525     70526     70522     70521     70524
     70522     70521     70523     70523     70521     70524     70525     70521     70524
     70525     70521     70523     70525     70521     70522     70527     70531     70532
     70528     70527     70530     70528     70527     70529     70529     70527     70530
     70531     70527     70530     70531     70527     70529     70531     70527     70528
     70533     70537     70538     70534     70533     70536     70534     70533     70535
     70535     70533     70536     70537     70533     70536     70537     70533     70535
     70537     70533     70534     70539     70543     70544     70540     70539     70542
     70540     70539     70541     70541     70539     70542     70543     70539     70542
     70543     70539     70541     70543     70539     70540     70545     70549     70550
     70546     70545     70548     70546     70545     70547     70547     70545     70548
     70549     70545     70548     70549     70545     70547     70549     70545     70546
     70551     70555     70556     70552     70551     70554     70552     70551     70553
     70553     70551     70554     70555     70551     70554     70555     70551     70553
     70555     70551     70552     70557     70561     70562     70558     70557     70560
     70558     70557     70559     70559     70557     70560     70561     70557     70560
     70561     70557     70559     70561     70557     70558     70563     70567     70568
     70564     70563     70566     70564     70563     70565     70565     70563     70566
     70567     70563     70566     70567     70563     70565     70567     70563     70564
     70569     70573     70574     70570     70569     70572     70570     70569     70571
     70571     70569     70572     70573     70569     70572     70573     70569     70571
     70573     70569     70570     70575     70579     70580     70576     70575     70578
     70576     70575     70577     70577     70575     70578     70579     70575     70578
     70579     70575     70577     70579     70575     70576     70581     70585     70586
     70582     70581     70584     70582     70581     70583     70583     70581     70584
     70585     70581     70584     70585     70581     70583     70585     70581     70582
     70587     70591     70592     70588     70587     70590     70588     70587     70589
     70589     70587     70590     70591     70587     70590     70591     70587     70589
     70591     70587     70588     70593     70597     70598     70594     70593     70596
     70594     70593     70595     70595     70593     70596     70597     70593     70596
     70597     70593     70595     70597     70593     70594     70599     70603     70604
     70600     70599     70602     70600     70599     70601     70601     70599     70602
     70603     70599     70602     70603     70599     70601     70603     70599     70600
     70605     70609     70610     70606     70605     70608     70606     70605     70607
     70607     70605     70608     70609     70605     70608     70609     70605     70607
     70609     70605     70606     70611     70615     70616     70612     70611     70614
     70612     70611     70613     70613     70611     70614     70615     70611     70614
     70615     70611     70613     70615     70611     70612     70617     70621     70622
     70618     70617     70620     70618     70617     70619     70619     70617     70620
     70621     70617     70620     70621     70617     70619     70621     70617     70618
     70623     70627     70628     70624     70623     70626     70624     70623     70625
     70625     70623     70626     70627     70623     70626     70627     70623     70625
     70627     70623     70624     70629     70633     70634     70630     70629     70632
     70630     70629     70631     70631     70629     70632     70633     70629     70632
     70633     70629     70631     70633     70629     70630     70635     70639     70640
     70636     70635     70638     70636     70635     70637     70637     70635     70638
     70639     70635     70638     70639     70635     70637     70639     70635     70636
     70641     70645     70646     70642     70641     70644     70642     70641     70643
     70643     70641     70644     70645     70641     70644     70645     70641     70643
     70645     70641     70642     70647     70651     70652     70648     70647     70650
     70648     70647     70649     70649     70647     70650     70651     70647     70650
     70651     70647     70649     70651     70647     70648     70653     70657     70658
     70654     70653     70656     70654     70653     70655     70655     70653     70656
     70657     70653     70656     70657     70653     70655     70657     70653     70654
     70659     70663     70664     70660     70659     70662     70660     70659     70661
     70661     70659     70662     70663     70659     70662     70663     70659     70661
     70663     70659     70660     70665     70669     70670     70666     70665     70668
     70666     70665     70667     70667     70665     70668     70669     70665     70668
     70669     70665     70667     70669     70665     70666     70671     70675     70676
     70672     70671     70674     70672     70671     70673     70673     70671     70674
     70675     70671     70674     70675     70671     70673     70675     70671     70672
     70677     70681     70682     70678     70677     70680     70678     70677     70679
     70679     70677     70680     70681     70677     70680     70681     70677     70679
     70681     70677     70678     70683     70687     70688     70684     70683     70686
     70684     70683     70685     70685     70683     70686     70687     70683     70686
     70687     70683     70685     70687     70683     70684     70689     70693     70694
     70690     70689     70692     70690     70689     70691     70691     70689     70692
     70693     70689     70692     70693     70689     70691     70693     70689     70690
     70695     70699     70700     70696     70695     70698     70696     70695     70697
     70697     70695     70698     70699     70695     70698     70699     70695     70697
     70699     70695     70696     70701     70705     70706     70702     70701     70704
     70702     70701     70703     70703     70701     70704     70705     70701     70704
     70705     70701     70703     70705     70701     70702     70707     70711     70712
     70708     70707     70710     70708     70707     70709     70709     70707     70710
     70711     70707     70710     70711     70707     70709     70711     70707     70708
     70713     70717     70718     70714     70713     70716     70714     70713     70715
     70715     70713     70716     70717     70713     70716     70717     70713     70715
     70717     70713     70714     70719     70723     70724     70720     70719     70722
     70720     70719     70721     70721     70719     70722     70723     70719     70722
     70723     70719     70721     70723     70719     70720     70725     70729     70730
     70726     70725     70728     70726     70725     70727     70727     70725     70728
     70729     70725     70728     70729     70725     70727     70729     70725     70726
     70731     70735     70736     70732     70731     70734     70732     70731     70733
     70733     70731     70734     70735     70731     70734     70735     70731     70733
     70735     70731     70732     70737     70741     70742     70738     70737     70740
     70738     70737     70739     70739     70737     70740     70741     70737     70740
     70741     70737     70739     70741     70737     70738     70743     70747     70748
     70744     70743     70746     70744     70743     70745     70745     70743     70746
     70747     70743     70746     70747     70743     70745     70747     70743     70744
     70749     70753     70754     70750     70749     70752     70750     70749     70751
     70751     70749     70752     70753     70749     70752     70753     70749     70751
     70753     70749     70750     70755     70759     70760     70756     70755     70758
     70756     70755     70757     70757     70755     70758     70759     70755     70758
     70759     70755     70757     70759     70755     70756     70761     70765     70766
     70762     70761     70764     70762     70761     70763     70763     70761     70764
     70765     70761     70764     70765     70761     70763     70765     70761     70762
     70767     70771     70772     70768     70767     70770     70768     70767     70769
     70769     70767     70770     70771     70767     70770     70771     70767     70769
     70771     70767     70768     70773     70777     70778     70774     70773     70776
     70774     70773     70775     70775     70773     70776     70777     70773     70776
     70777     70773     70775     70777     70773     70774     70779     70783     70784
     70780     70779     70782     70780     70779     70781     70781     70779     70782
     70783     70779     70782     70783     70779     70781     70783     70779     70780
     70785     70789     70790     70786     70785     70788     70786     70785     70787
     70787     70785     70788     70789     70785     70788     70789     70785     70787
     70789     70785     70786     70791     70795     70796     70792     70791     70794
     70792     70791     70793     70793     70791     70794     70795     70791     70794
     70795     70791     70793     70795     70791     70792     70797     70801     70802
     70798     70797     70800     70798     70797     70799     70799     70797     70800
     70801     70797     70800     70801     70797     70799     70801     70797     70798
     70803     70807     70808     70804     70803     70806     70804     70803     70805
     70805     70803     70806     70807     70803     70806     70807     70803     70805
     70807     70803     70804     70809     70813     70814     70810     70809     70812
     70810     70809     70811     70811     70809     70812     70813     70809     70812
     70813     70809     70811     70813     70809     70810     70815     70819     70820
     70816     70815     70818     70816     70815     70817     70817     70815     70818
     70819     70815     70818     70819     70815     70817     70819     70815     70816
     70821     70825     70826     70822     70821     70824     70822     70821     70823
     70823     70821     70824     70825     70821     70824     70825     70821     70823
     70825     70821     70822     70827     70831     70832     70828     70827     70830
     70828     70827     70829     70829     70827     70830     70831     70827     70830
     70831     70827     70829     70831     70827     70828     70833     70837     70838
     70834     70833     70836     70834     70833     70835     70835     70833     70836
     70837     70833     70836     70837     70833     70835     70837     70833     70834
     70839     70843     70844     70840     70839     70842     70840     70839     70841
     70841     70839     70842     70843     70839     70842     70843     70839     70841
     70843     70839     70840     70845     70849     70850     70846     70845     70848
     70846     70845     70847     70847     70845     70848     70849     70845     70848
     70849     70845     70847     70849     70845     70846     70851     70855     70856
     70852     70851     70854     70852     70851     70853     70853     70851     70854
     70855     70851     70854     70855     70851     70853     70855     70851     70852
     70857     70861     70862     70858     70857     70860     70858     70857     70859
     70859     70857     70860     70861     70857     70860     70861     70857     70859
     70861     70857     70858     70863     70867     70868     70864     70863     70866
     70864     70863     70865     70865     70863     70866     70867     70863     70866
     70867     70863     70865     70867     70863     70864     70869     70873     70874
     70870     70869     70872     70870     70869     70871     70871     70869     70872
     70873     70869     70872     70873     70869     70871     70873     70869     70870
     70875     70879     70880     70876     70875     70878     70876     70875     70877
     70877     70875     70878     70879     70875     70878     70879     70875     70877
     70879     70875     70876     70881     70885     70886     70882     70881     70884
     70882     70881     70883     70883     70881     70884     70885     70881     70884
     70885     70881     70883     70885     70881     70882     70887     70891     70892
     70888     70887     70890     70888     70887     70889     70889     70887     70890
     70891     70887     70890     70891     70887     70889     70891     70887     70888
     70893     70897     70898     70894     70893     70896     70894     70893     70895
     70895     70893     70896     70897     70893     70896     70897     70893     70895
     70897     70893     70894     70899     70903     70904     70900     70899     70902
     70900     70899     70901     70901     70899     70902     70903     70899     70902
     70903     70899     70901     70903     70899     70900     70905     70909     70910
     70906     70905     70908     70906     70905     70907     70907     70905     70908
     70909     70905     70908     70909     70905     70907     70909     70905     70906
     70911     70915     70916     70912     70911     70914     70912     70911     70913
     70913     70911     70914     70915     70911     70914     70915     70911     70913
     70915     70911     70912     70917     70921     70922     70918     70917     70920
     70918     70917     70919     70919     70917     70920     70921     70917     70920
     70921     70917     70919     70921     70917     70918     70923     70927     70928
     70924     70923     70926     70924     70923     70925     70925     70923     70926
     70927     70923     70926     70927     70923     70925     70927     70923     70924
     70929     70933     70934     70930     70929     70932     70930     70929     70931
     70931     70929     70932     70933     70929     70932     70933     70929     70931
     70933     70929     70930     70935     70939     70940     70936     70935     70938
     70936     70935     70937     70937     70935     70938     70939     70935     70938
     70939     70935     70937     70939     70935     70936     70941     70945     70946
     70942     70941     70944     70942     70941     70943     70943     70941     70944
     70945     70941     70944     70945     70941     70943     70945     70941     70942
     70947     70951     70952     70948     70947     70950     70948     70947     70949
     70949     70947     70950     70951     70947     70950     70951     70947     70949
     70951     70947     70948     70953     70957     70958     70954     70953     70956
     70954     70953     70955     70955     70953     70956     70957     70953     70956
     70957     70953     70955     70957     70953     70954     70959     70963     70964
     70960     70959     70962     70960     70959     70961     70961     70959     70962
     70963     70959     70962     70963     70959     70961     70963     70959     70960
     70965     70969     70970     70966     70965     70968     70966     70965     70967
     70967     70965     70968     70969     70965     70968     70969     70965     70967
     70969     70965     70966     70971     70975     70976     70972     70971     70974
     70972     70971     70973     70973     70971     70974     70975     70971     70974
     70975     70971     70973     70975     70971     70972     70977     70981     70982
     70978     70977     70980     70978     70977     70979     70979     70977     70980
     70981     70977     70980     70981     70977     70979     70981     70977     70978
     70983     70987     70988     70984     70983     70986     70984     70983     70985
     70985     70983     70986     70987     70983     70986     70987     70983     70985
     70987     70983     70984     70989     70993     70994     70990     70989     70992
     70990     70989     70991     70991     70989     70992     70993     70989     70992
     70993     70989     70991     70993     70989     70990     70995     70999     71000
     70996     70995     70998     70996     70995     70997     70997     70995     70998
     70999     70995     70998     70999     70995     70997     70999     70995     70996
     71001     71005     71006     71002     71001     71004     71002     71001     71003
     71003     71001     71004     71005     71001     71004     71005     71001     71003
     71005     71001     71002     71007     71011     71012     71008     71007     71010
     71008     71007     71009     71009     71007     71010     71011     71007     71010
     71011     71007     71009     71011     71007     71008     71013     71017     71018
     71014     71013     71016     71014     71013     71015     71015     71013     71016
     71017     71013     71016     71017     71013     71015     71017     71013     71014
     71019     71023     71024     71020     71019     71022     71020     71019     71021
     71021     71019     71022     71023     71019     71022     71023     71019     71021
     71023     71019     71020     71025     71029     71030     71026     71025     71028
     71026     71025     71027     71027     71025     71028     71029     71025     71028
     71029     71025     71027     71029     71025     71026     71031     71035     71036
     71032     71031     71034     71032     71031     71033     71033     71031     71034
     71035     71031     71034     71035     71031     71033     71035     71031     71032
     71037     71041     71042     71038     71037     71040     71038     71037     71039
     71039     71037     71040     71041     71037     71040     71041     71037     71039
     71041     71037     71038     71043     71047     71048     71044     71043     71046
     71044     71043     71045     71045     71043     71046     71047     71043     71046
     71047     71043     71045     71047     71043     71044     71049     71053     71054
     71050     71049     71052     71050     71049     71051     71051     71049     71052
     71053     71049     71052     71053     71049     71051     71053     71049     71050
     71055     71059     71060     71056     71055     71058     71056     71055     71057
     71057     71055     71058     71059     71055     71058     71059     71055     71057
     71059     71055     71056     71061     71065     71066     71062     71061     71064
     71062     71061     71063     71063     71061     71064     71065     71061     71064
     71065     71061     71063     71065     71061     71062     71067     71071     71072
     71068     71067     71070     71068     71067     71069     71069     71067     71070
     71071     71067     71070     71071     71067     71069     71071     71067     71068
     71073     71077     71078     71074     71073     71076     71074     71073     71075
     71075     71073     71076     71077     71073     71076     71077     71073     71075
     71077     71073     71074     71079     71083     71084     71080     71079     71082
     71080     71079     71081     71081     71079     71082     71083     71079     71082
     71083     71079     71081     71083     71079     71080     71085     71089     71090
     71086     71085     71088     71086     71085     71087     71087     71085     71088
     71089     71085     71088     71089     71085     71087     71089     71085     71086
     71091     71095     71096     71092     71091     71094     71092     71091     71093
     71093     71091     71094     71095     71091     71094     71095     71091     71093
     71095     71091     71092     71097     71101     71102     71098     71097     71100
     71098     71097     71099     71099     71097     71100     71101     71097     71100
     71101     71097     71099     71101     71097     71098     71103     71107     71108
     71104     71103     71106     71104     71103     71105     71105     71103     71106
     71107     71103     71106     71107     71103     71105     71107     71103     71104
     71109     71113     71114     71110     71109     71112     71110     71109     71111
     71111     71109     71112     71113     71109     71112     71113     71109     71111
     71113     71109     71110     71115     71119     71120     71116     71115     71118
     71116     71115     71117     71117     71115     71118     71119     71115     71118
     71119     71115     71117     71119     71115     71116     71121     71125     71126
     71122     71121     71124     71122     71121     71123     71123     71121     71124
     71125     71121     71124     71125     71121     71123     71125     71121     71122
     71127     71131     71132     71128     71127     71130     71128     71127     71129
     71129     71127     71130     71131     71127     71130     71131     71127     71129
     71131     71127     71128     71133     71137     71138     71134     71133     71136
     71134     71133     71135     71135     71133     71136     71137     71133     71136
     71137     71133     71135     71137     71133     71134     71139     71143     71144
     71140     71139     71142     71140     71139     71141     71141     71139     71142
     71143     71139     71142     71143     71139     71141     71143     71139     71140
     71145     71149     71150     71146     71145     71148     71146     71145     71147
     71147     71145     71148     71149     71145     71148     71149     71145     71147
     71149     71145     71146     71151     71155     71156     71152     71151     71154
     71152     71151     71153     71153     71151     71154     71155     71151     71154
     71155     71151     71153     71155     71151     71152     71157     71161     71162
     71158     71157     71160     71158     71157     71159     71159     71157     71160
     71161     71157     71160     71161     71157     71159     71161     71157     71158
     71163     71167     71168     71164     71163     71166     71164     71163     71165
     71165     71163     71166     71167     71163     71166     71167     71163     71165
     71167     71163     71164     71169     71173     71174     71170     71169     71172
     71170     71169     71171     71171     71169     71172     71173     71169     71172
     71173     71169     71171     71173     71169     71170     71175     71179     71180
     71176     71175     71178     71176     71175     71177     71177     71175     71178
     71179     71175     71178     71179     71175     71177     71179     71175     71176
     71181     71185     71186     71182     71181     71184     71182     71181     71183
     71183     71181     71184     71185     71181     71184     71185     71181     71183
     71185     71181     71182     71187     71191     71192     71188     71187     71190
     71188     71187     71189     71189     71187     71190     71191     71187     71190
     71191     71187     71189     71191     71187     71188     71193     71197     71198
     71194     71193     71196     71194     71193     71195     71195     71193     71196
     71197     71193     71196     71197     71193     71195     71197     71193     71194
     71199     71203     71204     71200     71199     71202     71200     71199     71201
     71201     71199     71202     71203     71199     71202     71203     71199     71201
     71203     71199     71200     71205     71209     71210     71206     71205     71208
     71206     71205     71207     71207     71205     71208     71209     71205     71208
     71209     71205     71207     71209     71205     71206     71211     71215     71216
     71212     71211     71214     71212     71211     71213     71213     71211     71214
     71215     71211     71214     71215     71211     71213     71215     71211     71212
     71217     71221     71222     71218     71217     71220     71218     71217     71219
     71219     71217     71220     71221     71217     71220     71221     71217     71219
     71221     71217     71218     71223     71227     71228     71224     71223     71226
     71224     71223     71225     71225     71223     71226     71227     71223     71226
     71227     71223     71225     71227     71223     71224     71229     71233     71234
     71230     71229     71232     71230     71229     71231     71231     71229     71232
     71233     71229     71232     71233     71229     71231     71233     71229     71230
     71235     71239     71240     71236     71235     71238     71236     71235     71237
     71237     71235     71238     71239     71235     71238     71239     71235     71237
     71239     71235     71236     71241     71245     71246     71242     71241     71244
     71242     71241     71243     71243     71241     71244     71245     71241     71244
     71245     71241     71243     71245     71241     71242     71247     71251     71252
     71248     71247     71250     71248     71247     71249     71249     71247     71250
     71251     71247     71250     71251     71247     71249     71251     71247     71248
     71253     71257     71258     71254     71253     71256     71254     71253     71255
     71255     71253     71256     71257     71253     71256     71257     71253     71255
     71257     71253     71254     71259     71263     71264     71260     71259     71262
     71260     71259     71261     71261     71259     71262     71263     71259     71262
     71263     71259     71261     71263     71259     71260     71265     71269     71270
     71266     71265     71268     71266     71265     71267     71267     71265     71268
     71269     71265     71268     71269     71265     71267     71269     71265     71266
     71271     71275     71276     71272     71271     71274     71272     71271     71273
     71273     71271     71274     71275     71271     71274     71275     71271     71273
     71275     71271     71272     71277     71281     71282     71278     71277     71280
     71278     71277     71279     71279     71277     71280     71281     71277     71280
     71281     71277     71279     71281     71277     71278     71283     71287     71288
     71284     71283     71286     71284     71283     71285     71285     71283     71286
     71287     71283     71286     71287     71283     71285     71287     71283     71284
     71289     71293     71294     71290     71289     71292     71290     71289     71291
     71291     71289     71292     71293     71289     71292     71293     71289     71291
     71293     71289     71290     71295     71299     71300     71296     71295     71298
     71296     71295     71297     71297     71295     71298     71299     71295     71298
     71299     71295     71297     71299     71295     71296     71301     71305     71306
     71302     71301     71304     71302     71301     71303     71303     71301     71304
     71305     71301     71304     71305     71301     71303     71305     71301     71302
     71307     71311     71312     71308     71307     71310     71308     71307     71309
     71309     71307     71310     71311     71307     71310     71311     71307     71309
     71311     71307     71308     71313     71317     71318     71314     71313     71316
     71314     71313     71315     71315     71313     71316     71317     71313     71316
     71317     71313     71315     71317     71313     71314     71319     71323     71324
     71320     71319     71322     71320     71319     71321     71321     71319     71322
     71323     71319     71322     71323     71319     71321     71323     71319     71320
     71325     71329     71330     71326     71325     71328     71326     71325     71327
     71327     71325     71328     71329     71325     71328     71329     71325     71327
     71329     71325     71326     71331     71335     71336     71332     71331     71334
     71332     71331     71333     71333     71331     71334     71335     71331     71334
     71335     71331     71333     71335     71331     71332     71337     71341     71342
     71338     71337     71340     71338     71337     71339     71339     71337     71340
     71341     71337     71340     71341     71337     71339     71341     71337     71338
     71343     71347     71348     71344     71343     71346     71344     71343     71345
     71345     71343     71346     71347     71343     71346     71347     71343     71345
     71347     71343     71344     71349     71353     71354     71350     71349     71352
     71350     71349     71351     71351     71349     71352     71353     71349     71352
     71353     71349     71351     71353     71349     71350     71355     71359     71360
     71356     71355     71358     71356     71355     71357     71357     71355     71358
     71359     71355     71358     71359     71355     71357     71359     71355     71356
     71361     71365     71366     71362     71361     71364     71362     71361     71363
     71363     71361     71364     71365     71361     71364     71365     71361     71363
     71365     71361     71362     71367     71371     71372     71368     71367     71370
     71368     71367     71369     71369     71367     71370     71371     71367     71370
     71371     71367     71369     71371     71367     71368     71373     71377     71378
     71374     71373     71376     71374     71373     71375     71375     71373     71376
     71377     71373     71376     71377     71373     71375     71377     71373     71374
     71379     71383     71384     71380     71379     71382     71380     71379     71381
     71381     71379     71382     71383     71379     71382     71383     71379     71381
     71383     71379     71380     71385     71389     71390     71386     71385     71388
     71386     71385     71387     71387     71385     71388     71389     71385     71388
     71389     71385     71387     71389     71385     71386     71391     71395     71396
     71392     71391     71394     71392     71391     71393     71393     71391     71394
     71395     71391     71394     71395     71391     71393     71395     71391     71392
     71397     71401     71402     71398     71397     71400     71398     71397     71399
     71399     71397     71400     71401     71397     71400     71401     71397     71399
     71401     71397     71398     71403     71407     71408     71404     71403     71406
     71404     71403     71405     71405     71403     71406     71407     71403     71406
     71407     71403     71405     71407     71403     71404     71409     71413     71414
     71410     71409     71412     71410     71409     71411     71411     71409     71412
     71413     71409     71412     71413     71409     71411     71413     71409     71410
     71415     71419     71420     71416     71415     71418     71416     71415     71417
     71417     71415     71418     71419     71415     71418     71419     71415     71417
     71419     71415     71416     71421     71425     71426     71422     71421     71424
     71422     71421     71423     71423     71421     71424     71425     71421     71424
     71425     71421     71423     71425     71421     71422     71427     71431     71432
     71428     71427     71430     71428     71427     71429     71429     71427     71430
     71431     71427     71430     71431     71427     71429     71431     71427     71428
     71433     71437     71438     71434     71433     71436     71434     71433     71435
     71435     71433     71436     71437     71433     71436     71437     71433     71435
     71437     71433     71434     71439     71443     71444     71440     71439     71442
     71440     71439     71441     71441     71439     71442     71443     71439     71442
     71443     71439     71441     71443     71439     71440     71445     71449     71450
     71446     71445     71448     71446     71445     71447     71447     71445     71448
     71449     71445     71448     71449     71445     71447     71449     71445     71446
     71451     71455     71456     71452     71451     71454     71452     71451     71453
     71453     71451     71454     71455     71451     71454     71455     71451     71453
     71455     71451     71452     71457     71461     71462     71458     71457     71460
     71458     71457     71459     71459     71457     71460     71461     71457     71460
     71461     71457     71459     71461     71457     71458     71463     71467     71468
     71464     71463     71466     71464     71463     71465     71465     71463     71466
     71467     71463     71466     71467     71463     71465     71467     71463     71464
     71469     71473     71474     71470     71469     71472     71470     71469     71471
     71471     71469     71472     71473     71469     71472     71473     71469     71471
     71473     71469     71470     71475     71479     71480     71476     71475     71478
     71476     71475     71477     71477     71475     71478     71479     71475     71478
     71479     71475     71477     71479     71475     71476     71481     71485     71486
     71482     71481     71484     71482     71481     71483     71483     71481     71484
     71485     71481     71484     71485     71481     71483     71485     71481     71482
     71487     71491     71492     71488     71487     71490     71488     71487     71489
     71489     71487     71490     71491     71487     71490     71491     71487     71489
     71491     71487     71488     71493     71497     71498     71494     71493     71496
     71494     71493     71495     71495     71493     71496     71497     71493     71496
     71497     71493     71495     71497     71493     71494     71499     71503     71504
     71500     71499     71502     71500     71499     71501     71501     71499     71502
     71503     71499     71502     71503     71499     71501     71503     71499     71500
     71505     71509     71510     71506     71505     71508     71506     71505     71507
     71507     71505     71508     71509     71505     71508     71509     71505     71507
     71509     71505     71506     71511     71515     71516     71512     71511     71514
     71512     71511     71513     71513     71511     71514     71515     71511     71514
     71515     71511     71513     71515     71511     71512     71517     71521     71522
     71518     71517     71520     71518     71517     71519     71519     71517     71520
     71521     71517     71520     71521     71517     71519     71521     71517     71518
     71523     71527     71528     71524     71523     71526     71524     71523     71525
     71525     71523     71526     71527     71523     71526     71527     71523     71525
     71527     71523     71524     71529     71533     71534     71530     71529     71532
     71530     71529     71531     71531     71529     71532     71533     71529     71532
     71533     71529     71531     71533     71529     71530     71535     71539     71540
     71536     71535     71538     71536     71535     71537     71537     71535     71538
     71539     71535     71538     71539     71535     71537     71539     71535     71536
     71541     71545     71546     71542     71541     71544     71542     71541     71543
     71543     71541     71544     71545     71541     71544     71545     71541     71543
     71545     71541     71542     71547     71551     71552     71548     71547     71550
     71548     71547     71549     71549     71547     71550     71551     71547     71550
     71551     71547     71549     71551     71547     71548     71553     71557     71558
     71554     71553     71556     71554     71553     71555     71555     71553     71556
     71557     71553     71556     71557     71553     71555     71557     71553     71554
     71559     71563     71564     71560     71559     71562     71560     71559     71561
     71561     71559     71562     71563     71559     71562     71563     71559     71561
     71563     71559     71560     71565     71569     71570     71566     71565     71568
     71566     71565     71567     71567     71565     71568     71569     71565     71568
     71569     71565     71567     71569     71565     71566     71571     71575     71576
     71572     71571     71574     71572     71571     71573     71573     71571     71574
     71575     71571     71574     71575     71571     71573     71575     71571     71572
     71577     71581     71582     71578     71577     71580     71578     71577     71579
     71579     71577     71580     71581     71577     71580     71581     71577     71579
     71581     71577     71578     71583     71587     71588     71584     71583     71586
     71584     71583     71585     71585     71583     71586     71587     71583     71586
     71587     71583     71585     71587     71583     71584     71589     71593     71594
     71590     71589     71592     71590     71589     71591     71591     71589     71592
     71593     71589     71592     71593     71589     71591     71593     71589     71590
     71595     71599     71600     71596     71595     71598     71596     71595     71597
     71597     71595     71598     71599     71595     71598     71599     71595     71597
     71599     71595     71596     71601     71605     71606     71602     71601     71604
     71602     71601     71603     71603     71601     71604     71605     71601     71604
     71605     71601     71603     71605     71601     71602     71607     71611     71612
     71608     71607     71610     71608     71607     71609     71609     71607     71610
     71611     71607     71610     71611     71607     71609     71611     71607     71608
     71613     71617     71618     71614     71613     71616     71614     71613     71615
     71615     71613     71616     71617     71613     71616     71617     71613     71615
     71617     71613     71614     71619     71623     71624     71620     71619     71622
     71620     71619     71621     71621     71619     71622     71623     71619     71622
     71623     71619     71621     71623     71619     71620     71625     71629     71630
     71626     71625     71628     71626     71625     71627     71627     71625     71628
     71629     71625     71628     71629     71625     71627     71629     71625     71626
     71631     71635     71636     71632     71631     71634     71632     71631     71633
     71633     71631     71634     71635     71631     71634     71635     71631     71633
     71635     71631     71632     71637     71641     71642     71638     71637     71640
     71638     71637     71639     71639     71637     71640     71641     71637     71640
     71641     71637     71639     71641     71637     71638     71643     71647     71648
     71644     71643     71646     71644     71643     71645     71645     71643     71646
     71647     71643     71646     71647     71643     71645     71647     71643     71644
     71649     71653     71654     71650     71649     71652     71650     71649     71651
     71651     71649     71652     71653     71649     71652     71653     71649     71651
     71653     71649     71650     71655     71659     71660     71656     71655     71658
     71656     71655     71657     71657     71655     71658     71659     71655     71658
     71659     71655     71657     71659     71655     71656     71661     71665     71666
     71662     71661     71664     71662     71661     71663     71663     71661     71664
     71665     71661     71664     71665     71661     71663     71665     71661     71662
     71667     71671     71672     71668     71667     71670     71668     71667     71669
     71669     71667     71670     71671     71667     71670     71671     71667     71669
     71671     71667     71668     71673     71677     71678     71674     71673     71676
     71674     71673     71675     71675     71673     71676     71677     71673     71676
     71677     71673     71675     71677     71673     71674     71679     71683     71684
     71680     71679     71682     71680     71679     71681     71681     71679     71682
     71683     71679     71682     71683     71679     71681     71683     71679     71680
     71685     71689     71690     71686     71685     71688     71686     71685     71687
     71687     71685     71688     71689     71685     71688     71689     71685     71687
     71689     71685     71686     71691     71695     71696     71692     71691     71694
     71692     71691     71693     71693     71691     71694     71695     71691     71694
     71695     71691     71693     71695     71691     71692     71697     71701     71702
     71698     71697     71700     71698     71697     71699     71699     71697     71700
     71701     71697     71700     71701     71697     71699     71701     71697     71698
     71703     71707     71708     71704     71703     71706     71704     71703     71705
     71705     71703     71706     71707     71703     71706     71707     71703     71705
     71707     71703     71704     71709     71713     71714     71710     71709     71712
     71710     71709     71711     71711     71709     71712     71713     71709     71712
     71713     71709     71711     71713     71709     71710     71715     71719     71720
     71716     71715     71718     71716     71715     71717     71717     71715     71718
     71719     71715     71718     71719     71715     71717     71719     71715     71716
     71721     71725     71726     71722     71721     71724     71722     71721     71723
     71723     71721     71724     71725     71721     71724     71725     71721     71723
     71725     71721     71722     71727     71731     71732     71728     71727     71730
     71728     71727     71729     71729     71727     71730     71731     71727     71730
     71731     71727     71729     71731     71727     71728     71733     71737     71738
     71734     71733     71736     71734     71733     71735     71735     71733     71736
     71737     71733     71736     71737     71733     71735     71737     71733     71734
     71739     71743     71744     71740     71739     71742     71740     71739     71741
     71741     71739     71742     71743     71739     71742     71743     71739     71741
     71743     71739     71740     71745     71749     71750     71746     71745     71748
     71746     71745     71747     71747     71745     71748     71749     71745     71748
     71749     71745     71747     71749     71745     71746     71751     71755     71756
     71752     71751     71754     71752     71751     71753     71753     71751     71754
     71755     71751     71754     71755     71751     71753     71755     71751     71752
     71757     71761     71762     71758     71757     71760     71758     71757     71759
     71759     71757     71760     71761     71757     71760     71761     71757     71759
     71761     71757     71758     71763     71767     71768     71764     71763     71766
     71764     71763     71765     71765     71763     71766     71767     71763     71766
     71767     71763     71765     71767     71763     71764     71769     71773     71774
     71770     71769     71772     71770     71769     71771     71771     71769     71772
     71773     71769     71772     71773     71769     71771     71773     71769     71770
     71775     71779     71780     71776     71775     71778     71776     71775     71777
     71777     71775     71778     71779     71775     71778     71779     71775     71777
     71779     71775     71776     71781     71785     71786     71782     71781     71784
     71782     71781     71783     71783     71781     71784     71785     71781     71784
     71785     71781     71783     71785     71781     71782     71787     71791     71792
     71788     71787     71790     71788     71787     71789     71789     71787     71790
     71791     71787     71790     71791     71787     71789     71791     71787     71788
     71793     71797     71798     71794     71793     71796     71794     71793     71795
     71795     71793     71796     71797     71793     71796     71797     71793     71795
     71797     71793     71794     71799     71803     71804     71800     71799     71802
     71800     71799     71801     71801     71799     71802     71803     71799     71802
     71803     71799     71801     71803     71799     71800     71805     71809     71810
     71806     71805     71808     71806     71805     71807     71807     71805     71808
     71809     71805     71808     71809     71805     71807     71809     71805     71806
     71811     71815     71816     71812     71811     71814     71812     71811     71813
     71813     71811     71814     71815     71811     71814     71815     71811     71813
     71815     71811     71812     71817     71821     71822     71818     71817     71820
     71818     71817     71819     71819     71817     71820     71821     71817     71820
     71821     71817     71819     71821     71817     71818     71823     71827     71828
     71824     71823     71826     71824     71823     71825     71825     71823     71826
     71827     71823     71826     71827     71823     71825     71827     71823     71824
     71829     71833     71834     71830     71829     71832     71830     71829     71831
     71831     71829     71832     71833     71829     71832     71833     71829     71831
     71833     71829     71830     71835     71839     71840     71836     71835     71838
     71836     71835     71837     71837     71835     71838     71839     71835     71838
     71839     71835     71837     71839     71835     71836     71841     71845     71846
     71842     71841     71844     71842     71841     71843     71843     71841     71844
     71845     71841     71844     71845     71841     71843     71845     71841     71842
     71847     71851     71852     71848     71847     71850     71848     71847     71849
     71849     71847     71850     71851     71847     71850     71851     71847     71849
     71851     71847     71848     71853     71857     71858     71854     71853     71856
     71854     71853     71855     71855     71853     71856     71857     71853     71856
     71857     71853     71855     71857     71853     71854     71859     71863     71864
     71860     71859     71862     71860     71859     71861     71861     71859     71862
     71863     71859     71862     71863     71859     71861     71863     71859     71860
     71865     71869     71870     71866     71865     71868     71866     71865     71867
     71867     71865     71868     71869     71865     71868     71869     71865     71867
     71869     71865     71866     71871     71875     71876     71872     71871     71874
     71872     71871     71873     71873     71871     71874     71875     71871     71874
     71875     71871     71873     71875     71871     71872     71877     71881     71882
     71878     71877     71880     71878     71877     71879     71879     71877     71880
     71881     71877     71880     71881     71877     71879     71881     71877     71878
     71883     71887     71888     71884     71883     71886     71884     71883     71885
     71885     71883     71886     71887     71883     71886     71887     71883     71885
     71887     71883     71884     71889     71893     71894     71890     71889     71892
     71890     71889     71891     71891     71889     71892     71893     71889     71892
     71893     71889     71891     71893     71889     71890     71895     71899     71900
     71896     71895     71898     71896     71895     71897     71897     71895     71898
     71899     71895     71898     71899     71895     71897     71899     71895     71896
     71901     71905     71906     71902     71901     71904     71902     71901     71903
     71903     71901     71904     71905     71901     71904     71905     71901     71903
     71905     71901     71902     71907     71911     71912     71908     71907     71910
     71908     71907     71909     71909     71907     71910     71911     71907     71910
     71911     71907     71909     71911     71907     71908     71913     71917     71918
     71914     71913     71916     71914     71913     71915     71915     71913     71916
     71917     71913     71916     71917     71913     71915     71917     71913     71914
     71919     71923     71924     71920     71919     71922     71920     71919     71921
     71921     71919     71922     71923     71919     71922     71923     71919     71921
     71923     71919     71920     71925     71929     71930     71926     71925     71928
     71926     71925     71927     71927     71925     71928     71929     71925     71928
     71929     71925     71927     71929     71925     71926     71931     71935     71936
     71932     71931     71934     71932     71931     71933     71933     71931     71934
     71935     71931     71934     71935     71931     71933     71935     71931     71932
     71937     71941     71942     71938     71937     71940     71938     71937     71939
     71939     71937     71940     71941     71937     71940     71941     71937     71939
     71941     71937     71938     71943     71947     71948     71944     71943     71946
     71944     71943     71945     71945     71943     71946     71947     71943     71946
     71947     71943     71945     71947     71943     71944     71949     71953     71954
     71950     71949     71952     71950     71949     71951     71951     71949     71952
     71953     71949     71952     71953     71949     71951     71953     71949     71950
     71955     71959     71960     71956     71955     71958     71956     71955     71957
     71957     71955     71958     71959     71955     71958     71959     71955     71957
     71959     71955     71956     71961     71965     71966     71962     71961     71964
     71962     71961     71963     71963     71961     71964     71965     71961     71964
     71965     71961     71963     71965     71961     71962     71967     71971     71972
     71968     71967     71970     71968     71967     71969     71969     71967     71970
     71971     71967     71970     71971     71967     71969     71971     71967     71968
     71973     71977     71978     71974     71973     71976     71974     71973     71975
     71975     71973     71976     71977     71973     71976     71977     71973     71975
     71977     71973     71974     71979     71983     71984     71980     71979     71982
     71980     71979     71981     71981     71979     71982     71983     71979     71982
     71983     71979     71981     71983     71979     71980     71985     71989     71990
     71986     71985     71988     71986     71985     71987     71987     71985     71988
     71989     71985     71988     71989     71985     71987     71989     71985     71986
     71991     71995     71996     71992     71991     71994     71992     71991     71993
     71993     71991     71994     71995     71991     71994     71995     71991     71993
     71995     71991     71992     71997     72001     72002     71998     71997     72000
     71998     71997     71999     71999     71997     72000     72001     71997     72000
     72001     71997     71999     72001     71997     71998     72003     72007     72008
     72004     72003     72006     72004     72003     72005     72005     72003     72006
     72007     72003     72006     72007     72003     72005     72007     72003     72004
     72009     72013     72014     72010     72009     72012     72010     72009     72011
     72011     72009     72012     72013     72009     72012     72013     72009     72011
     72013     72009     72010     72015     72019     72020     72016     72015     72018
     72016     72015     72017     72017     72015     72018     72019     72015     72018
     72019     72015     72017     72019     72015     72016     72021     72025     72026
     72022     72021     72024     72022     72021     72023     72023     72021     72024
     72025     72021     72024     72025     72021     72023     72025     72021     72022
     72027     72031     72032     72028     72027     72030     72028     72027     72029
     72029     72027     72030     72031     72027     72030     72031     72027     72029
     72031     72027     72028     72033     72037     72038     72034     72033     72036
     72034     72033     72035     72035     72033     72036     72037     72033     72036
     72037     72033     72035     72037     72033     72034     72039     72043     72044
     72040     72039     72042     72040     72039     72041     72041     72039     72042
     72043     72039     72042     72043     72039     72041     72043     72039     72040
     72045     72049     72050     72046     72045     72048     72046     72045     72047
     72047     72045     72048     72049     72045     72048     72049     72045     72047
     72049     72045     72046     72051     72055     72056     72052     72051     72054
     72052     72051     72053     72053     72051     72054     72055     72051     72054
     72055     72051     72053     72055     72051     72052     72057     72061     72062
     72058     72057     72060     72058     72057     72059     72059     72057     72060
     72061     72057     72060     72061     72057     72059     72061     72057     72058
     72063     72067     72068     72064     72063     72066     72064     72063     72065
     72065     72063     72066     72067     72063     72066     72067     72063     72065
     72067     72063     72064     72069     72073     72074     72070     72069     72072
     72070     72069     72071     72071     72069     72072     72073     72069     72072
     72073     72069     72071     72073     72069     72070     72075     72079     72080
     72076     72075     72078     72076     72075     72077     72077     72075     72078
     72079     72075     72078     72079     72075     72077     72079     72075     72076
     72081     72085     72086     72082     72081     72084     72082     72081     72083
     72083     72081     72084     72085     72081     72084     72085     72081     72083
     72085     72081     72082     72087     72091     72092     72088     72087     72090
     72088     72087     72089     72089     72087     72090     72091     72087     72090
     72091     72087     72089     72091     72087     72088     72093     72097     72098
     72094     72093     72096     72094     72093     72095     72095     72093     72096
     72097     72093     72096     72097     72093     72095     72097     72093     72094
     72099     72103     72104     72100     72099     72102     72100     72099     72101
     72101     72099     72102     72103     72099     72102     72103     72099     72101
     72103     72099     72100     72105     72109     72110     72106     72105     72108
     72106     72105     72107     72107     72105     72108     72109     72105     72108
     72109     72105     72107     72109     72105     72106     72111     72115     72116
     72112     72111     72114     72112     72111     72113     72113     72111     72114
     72115     72111     72114     72115     72111     72113     72115     72111     72112
     72117     72121     72122     72118     72117     72120     72118     72117     72119
     72119     72117     72120     72121     72117     72120     72121     72117     72119
     72121     72117     72118     72123     72127     72128     72124     72123     72126
     72124     72123     72125     72125     72123     72126     72127     72123     72126
     72127     72123     72125     72127     72123     72124     72129     72133     72134
     72130     72129     72132     72130     72129     72131     72131     72129     72132
     72133     72129     72132     72133     72129     72131     72133     72129     72130
     72135     72139     72140     72136     72135     72138     72136     72135     72137
     72137     72135     72138     72139     72135     72138     72139     72135     72137
     72139     72135     72136     72141     72145     72146     72142     72141     72144
     72142     72141     72143     72143     72141     72144     72145     72141     72144
     72145     72141     72143     72145     72141     72142     72147     72151     72152
     72148     72147     72150     72148     72147     72149     72149     72147     72150
     72151     72147     72150     72151     72147     72149     72151     72147     72148
     72153     72157     72158     72154     72153     72156     72154     72153     72155
     72155     72153     72156     72157     72153     72156     72157     72153     72155
     72157     72153     72154     72159     72163     72164     72160     72159     72162
     72160     72159     72161     72161     72159     72162     72163     72159     72162
     72163     72159     72161     72163     72159     72160     72165     72169     72170
     72166     72165     72168     72166     72165     72167     72167     72165     72168
     72169     72165     72168     72169     72165     72167     72169     72165     72166
     72171     72175     72176     72172     72171     72174     72172     72171     72173
     72173     72171     72174     72175     72171     72174     72175     72171     72173
     72175     72171     72172     72177     72181     72182     72178     72177     72180
     72178     72177     72179     72179     72177     72180     72181     72177     72180
     72181     72177     72179     72181     72177     72178     72183     72187     72188
     72184     72183     72186     72184     72183     72185     72185     72183     72186
     72187     72183     72186     72187     72183     72185     72187     72183     72184
     72189     72193     72194     72190     72189     72192     72190     72189     72191
     72191     72189     72192     72193     72189     72192     72193     72189     72191
     72193     72189     72190     72195     72199     72200     72196     72195     72198
     72196     72195     72197     72197     72195     72198     72199     72195     72198
     72199     72195     72197     72199     72195     72196     72201     72205     72206
     72202     72201     72204     72202     72201     72203     72203     72201     72204
     72205     72201     72204     72205     72201     72203     72205     72201     72202
     72207     72211     72212     72208     72207     72210     72208     72207     72209
     72209     72207     72210     72211     72207     72210     72211     72207     72209
     72211     72207     72208     72213     72217     72218     72214     72213     72216
     72214     72213     72215     72215     72213     72216     72217     72213     72216
     72217     72213     72215     72217     72213     72214     72219     72223     72224
     72220     72219     72222     72220     72219     72221     72221     72219     72222
     72223     72219     72222     72223     72219     72221     72223     72219     72220
     72225     72229     72230     72226     72225     72228     72226     72225     72227
     72227     72225     72228     72229     72225     72228     72229     72225     72227
     72229     72225     72226     72231     72235     72236     72232     72231     72234
     72232     72231     72233     72233     72231     72234     72235     72231     72234
     72235     72231     72233     72235     72231     72232     72237     72241     72242
     72238     72237     72240     72238     72237     72239     72239     72237     72240
     72241     72237     72240     72241     72237     72239     72241     72237     72238
     72243     72247     72248     72244     72243     72246     72244     72243     72245
     72245     72243     72246     72247     72243     72246     72247     72243     72245
     72247     72243     72244     72249     72253     72254     72250     72249     72252
     72250     72249     72251     72251     72249     72252     72253     72249     72252
     72253     72249     72251     72253     72249     72250     72255     72259     72260
     72256     72255     72258     72256     72255     72257     72257     72255     72258
     72259     72255     72258     72259     72255     72257     72259     72255     72256
     72261     72265     72266     72262     72261     72264     72262     72261     72263
     72263     72261     72264     72265     72261     72264     72265     72261     72263
     72265     72261     72262     72267     72271     72272     72268     72267     72270
     72268     72267     72269     72269     72267     72270     72271     72267     72270
     72271     72267     72269     72271     72267     72268     72273     72277     72278
     72274     72273     72276     72274     72273     72275     72275     72273     72276
     72277     72273     72276     72277     72273     72275     72277     72273     72274
     72279     72283     72284     72280     72279     72282     72280     72279     72281
     72281     72279     72282     72283     72279     72282     72283     72279     72281
     72283     72279     72280     72285     72289     72290     72286     72285     72288
     72286     72285     72287     72287     72285     72288     72289     72285     72288
     72289     72285     72287     72289     72285     72286     72291     72295     72296
     72292     72291     72294     72292     72291     72293     72293     72291     72294
     72295     72291     72294     72295     72291     72293     72295     72291     72292
     72297     72301     72302     72298     72297     72300     72298     72297     72299
     72299     72297     72300     72301     72297     72300     72301     72297     72299
     72301     72297     72298     72303     72307     72308     72304     72303     72306
     72304     72303     72305     72305     72303     72306     72307     72303     72306
     72307     72303     72305     72307     72303     72304     72309     72313     72314
     72310     72309     72312     72310     72309     72311     72311     72309     72312
     72313     72309     72312     72313     72309     72311     72313     72309     72310
     72315     72319     72320     72316     72315     72318     72316     72315     72317
     72317     72315     72318     72319     72315     72318     72319     72315     72317
     72319     72315     72316     72321     72325     72326     72322     72321     72324
     72322     72321     72323     72323     72321     72324     72325     72321     72324
     72325     72321     72323     72325     72321     72322     72327     72331     72332
     72328     72327     72330     72328     72327     72329     72329     72327     72330
     72331     72327     72330     72331     72327     72329     72331     72327     72328
     72333     72337     72338     72334     72333     72336     72334     72333     72335
     72335     72333     72336     72337     72333     72336     72337     72333     72335
     72337     72333     72334     72339     72343     72344     72340     72339     72342
     72340     72339     72341     72341     72339     72342     72343     72339     72342
     72343     72339     72341     72343     72339     72340     72345     72349     72350
     72346     72345     72348     72346     72345     72347     72347     72345     72348
     72349     72345     72348     72349     72345     72347     72349     72345     72346
     72351     72355     72356     72352     72351     72354     72352     72351     72353
     72353     72351     72354     72355     72351     72354     72355     72351     72353
     72355     72351     72352     72357     72361     72362     72358     72357     72360
     72358     72357     72359     72359     72357     72360     72361     72357     72360
     72361     72357     72359     72361     72357     72358     72363     72367     72368
     72364     72363     72366     72364     72363     72365     72365     72363     72366
     72367     72363     72366     72367     72363     72365     72367     72363     72364
     72369     72373     72374     72370     72369     72372     72370     72369     72371
     72371     72369     72372     72373     72369     72372     72373     72369     72371
     72373     72369     72370     72375     72379     72380     72376     72375     72378
     72376     72375     72377     72377     72375     72378     72379     72375     72378
     72379     72375     72377     72379     72375     72376     72381     72385     72386
     72382     72381     72384     72382     72381     72383     72383     72381     72384
     72385     72381     72384     72385     72381     72383     72385     72381     72382
     72387     72391     72392     72388     72387     72390     72388     72387     72389
     72389     72387     72390     72391     72387     72390     72391     72387     72389
     72391     72387     72388     72393     72397     72398     72394     72393     72396
     72394     72393     72395     72395     72393     72396     72397     72393     72396
     72397     72393     72395     72397     72393     72394     72399     72403     72404
     72400     72399     72402     72400     72399     72401     72401     72399     72402
     72403     72399     72402     72403     72399     72401     72403     72399     72400
     72405     72409     72410     72406     72405     72408     72406     72405     72407
     72407     72405     72408     72409     72405     72408     72409     72405     72407
     72409     72405     72406     72411     72415     72416     72412     72411     72414
     72412     72411     72413     72413     72411     72414     72415     72411     72414
     72415     72411     72413     72415     72411     72412     72417     72421     72422
     72418     72417     72420     72418     72417     72419     72419     72417     72420
     72421     72417     72420     72421     72417     72419     72421     72417     72418
     72423     72427     72428     72424     72423     72426     72424     72423     72425
     72425     72423     72426     72427     72423     72426     72427     72423     72425
     72427     72423     72424     72429     72433     72434     72430     72429     72432
     72430     72429     72431     72431     72429     72432     72433     72429     72432
     72433     72429     72431     72433     72429     72430     72435     72439     72440
     72436     72435     72438     72436     72435     72437     72437     72435     72438
     72439     72435     72438     72439     72435     72437     72439     72435     72436
     72441     72445     72446     72442     72441     72444     72442     72441     72443
     72443     72441     72444     72445     72441     72444     72445     72441     72443
     72445     72441     72442     72447     72451     72452     72448     72447     72450
     72448     72447     72449     72449     72447     72450     72451     72447     72450
     72451     72447     72449     72451     72447     72448     72453     72457     72458
     72454     72453     72456     72454     72453     72455     72455     72453     72456
     72457     72453     72456     72457     72453     72455     72457     72453     72454
     72459     72463     72464     72460     72459     72462     72460     72459     72461
     72461     72459     72462     72463     72459     72462     72463     72459     72461
     72463     72459     72460     72465     72469     72470     72466     72465     72468
     72466     72465     72467     72467     72465     72468     72469     72465     72468
     72469     72465     72467     72469     72465     72466     72471     72475     72476
     72472     72471     72474     72472     72471     72473     72473     72471     72474
     72475     72471     72474     72475     72471     72473     72475     72471     72472
     72477     72481     72482     72478     72477     72480     72478     72477     72479
     72479     72477     72480     72481     72477     72480     72481     72477     72479
     72481     72477     72478     72483     72487     72488     72484     72483     72486
     72484     72483     72485     72485     72483     72486     72487     72483     72486
     72487     72483     72485     72487     72483     72484     72489     72493     72494
     72490     72489     72492     72490     72489     72491     72491     72489     72492
     72493     72489     72492     72493     72489     72491     72493     72489     72490
     72495     72499     72500     72496     72495     72498     72496     72495     72497
     72497     72495     72498     72499     72495     72498     72499     72495     72497
     72499     72495     72496     72501     72505     72506     72502     72501     72504
     72502     72501     72503     72503     72501     72504     72505     72501     72504
     72505     72501     72503     72505     72501     72502     72507     72511     72512
     72508     72507     72510     72508     72507     72509     72509     72507     72510
     72511     72507     72510     72511     72507     72509     72511     72507     72508
     72513     72517     72518     72514     72513     72516     72514     72513     72515
     72515     72513     72516     72517     72513     72516     72517     72513     72515
     72517     72513     72514     72519     72523     72524     72520     72519     72522
     72520     72519     72521     72521     72519     72522     72523     72519     72522
     72523     72519     72521     72523     72519     72520     72525     72529     72530
     72526     72525     72528     72526     72525     72527     72527     72525     72528
     72529     72525     72528     72529     72525     72527     72529     72525     72526
     72531     72535     72536     72532     72531     72534     72532     72531     72533
     72533     72531     72534     72535     72531     72534     72535     72531     72533
     72535     72531     72532     72537     72541     72542     72538     72537     72540
     72538     72537     72539     72539     72537     72540     72541     72537     72540
     72541     72537     72539     72541     72537     72538     72543     72547     72548
     72544     72543     72546     72544     72543     72545     72545     72543     72546
     72547     72543     72546     72547     72543     72545     72547     72543     72544
     72549     72553     72554     72550     72549     72552     72550     72549     72551
     72551     72549     72552     72553     72549     72552     72553     72549     72551
     72553     72549     72550     72555     72559     72560     72556     72555     72558
     72556     72555     72557     72557     72555     72558     72559     72555     72558
     72559     72555     72557     72559     72555     72556     72561     72565     72566
     72562     72561     72564     72562     72561     72563     72563     72561     72564
     72565     72561     72564     72565     72561     72563     72565     72561     72562
     72567     72571     72572     72568     72567     72570     72568     72567     72569
     72569     72567     72570     72571     72567     72570     72571     72567     72569
     72571     72567     72568     72573     72577     72578     72574     72573     72576
     72574     72573     72575     72575     72573     72576     72577     72573     72576
     72577     72573     72575     72577     72573     72574     72579     72583     72584
     72580     72579     72582     72580     72579     72581     72581     72579     72582
     72583     72579     72582     72583     72579     72581     72583     72579     72580
     72585     72589     72590     72586     72585     72588     72586     72585     72587
     72587     72585     72588     72589     72585     72588     72589     72585     72587
     72589     72585     72586     72591     72595     72596     72592     72591     72594
     72592     72591     72593     72593     72591     72594     72595     72591     72594
     72595     72591     72593     72595     72591     72592     72597     72601     72602
     72598     72597     72600     72598     72597     72599     72599     72597     72600
     72601     72597     72600     72601     72597     72599     72601     72597     72598
     72603     72607     72608     72604     72603     72606     72604     72603     72605
     72605     72603     72606     72607     72603     72606     72607     72603     72605
     72607     72603     72604     72609     72613     72614     72610     72609     72612
     72610     72609     72611     72611     72609     72612     72613     72609     72612
     72613     72609     72611     72613     72609     72610     72615     72619     72620
     72616     72615     72618     72616     72615     72617     72617     72615     72618
     72619     72615     72618     72619     72615     72617     72619     72615     72616
     72621     72625     72626     72622     72621     72624     72622     72621     72623
     72623     72621     72624     72625     72621     72624     72625     72621     72623
     72625     72621     72622     72627     72631     72632     72628     72627     72630
     72628     72627     72629     72629     72627     72630     72631     72627     72630
     72631     72627     72629     72631     72627     72628     72633     72637     72638
     72634     72633     72636     72634     72633     72635     72635     72633     72636
     72637     72633     72636     72637     72633     72635     72637     72633     72634
     72639     72643     72644     72640     72639     72642     72640     72639     72641
     72641     72639     72642     72643     72639     72642     72643     72639     72641
     72643     72639     72640     72645     72649     72650     72646     72645     72648
     72646     72645     72647     72647     72645     72648     72649     72645     72648
     72649     72645     72647     72649     72645     72646     72651     72655     72656
     72652     72651     72654     72652     72651     72653     72653     72651     72654
     72655     72651     72654     72655     72651     72653     72655     72651     72652
     72657     72661     72662     72658     72657     72660     72658     72657     72659
     72659     72657     72660     72661     72657     72660     72661     72657     72659
     72661     72657     72658     72663     72667     72668     72664     72663     72666
     72664     72663     72665     72665     72663     72666     72667     72663     72666
     72667     72663     72665     72667     72663     72664     72669     72673     72674
     72670     72669     72672     72670     72669     72671     72671     72669     72672
     72673     72669     72672     72673     72669     72671     72673     72669     72670
     72675     72679     72680     72676     72675     72678     72676     72675     72677
     72677     72675     72678     72679     72675     72678     72679     72675     72677
     72679     72675     72676     72681     72685     72686     72682     72681     72684
     72682     72681     72683     72683     72681     72684     72685     72681     72684
     72685     72681     72683     72685     72681     72682     72687     72691     72692
     72688     72687     72690     72688     72687     72689     72689     72687     72690
     72691     72687     72690     72691     72687     72689     72691     72687     72688
     72693     72697     72698     72694     72693     72696     72694     72693     72695
     72695     72693     72696     72697     72693     72696     72697     72693     72695
     72697     72693     72694     72699     72703     72704     72700     72699     72702
     72700     72699     72701     72701     72699     72702     72703     72699     72702
     72703     72699     72701     72703     72699     72700     72705     72709     72710
     72706     72705     72708     72706     72705     72707     72707     72705     72708
     72709     72705     72708     72709     72705     72707     72709     72705     72706
     72711     72715     72716     72712     72711     72714     72712     72711     72713
     72713     72711     72714     72715     72711     72714     72715     72711     72713
     72715     72711     72712     72717     72721     72722     72718     72717     72720
     72718     72717     72719     72719     72717     72720     72721     72717     72720
     72721     72717     72719     72721     72717     72718     72723     72727     72728
     72724     72723     72726     72724     72723     72725     72725     72723     72726
     72727     72723     72726     72727     72723     72725     72727     72723     72724
     72729     72733     72734     72730     72729     72732     72730     72729     72731
     72731     72729     72732     72733     72729     72732     72733     72729     72731
     72733     72729     72730     72735     72739     72740     72736     72735     72738
     72736     72735     72737     72737     72735     72738     72739     72735     72738
     72739     72735     72737     72739     72735     72736     72741     72745     72746
     72742     72741     72744     72742     72741     72743     72743     72741     72744
     72745     72741     72744     72745     72741     72743     72745     72741     72742
     72747     72751     72752     72748     72747     72750     72748     72747     72749
     72749     72747     72750     72751     72747     72750     72751     72747     72749
     72751     72747     72748     72753     72757     72758     72754     72753     72756
     72754     72753     72755     72755     72753     72756     72757     72753     72756
     72757     72753     72755     72757     72753     72754     72759     72763     72764
     72760     72759     72762     72760     72759     72761     72761     72759     72762
     72763     72759     72762     72763     72759     72761     72763     72759     72760
     72765     72769     72770     72766     72765     72768     72766     72765     72767
     72767     72765     72768     72769     72765     72768     72769     72765     72767
     72769     72765     72766     72771     72775     72776     72772     72771     72774
     72772     72771     72773     72773     72771     72774     72775     72771     72774
     72775     72771     72773     72775     72771     72772     72777     72781     72782
     72778     72777     72780     72778     72777     72779     72779     72777     72780
     72781     72777     72780     72781     72777     72779     72781     72777     72778
     72783     72787     72788     72784     72783     72786     72784     72783     72785
     72785     72783     72786     72787     72783     72786     72787     72783     72785
     72787     72783     72784     72789     72793     72794     72790     72789     72792
     72790     72789     72791     72791     72789     72792     72793     72789     72792
     72793     72789     72791     72793     72789     72790     72795     72799     72800
     72796     72795     72798     72796     72795     72797     72797     72795     72798
     72799     72795     72798     72799     72795     72797     72799     72795     72796
     72801     72805     72806     72802     72801     72804     72802     72801     72803
     72803     72801     72804     72805     72801     72804     72805     72801     72803
     72805     72801     72802     72807     72811     72812     72808     72807     72810
     72808     72807     72809     72809     72807     72810     72811     72807     72810
     72811     72807     72809     72811     72807     72808     72813     72817     72818
     72814     72813     72816     72814     72813     72815     72815     72813     72816
     72817     72813     72816     72817     72813     72815     72817     72813     72814
     72819     72823     72824     72820     72819     72822     72820     72819     72821
     72821     72819     72822     72823     72819     72822     72823     72819     72821
     72823     72819     72820     72825     72829     72830     72826     72825     72828
     72826     72825     72827     72827     72825     72828     72829     72825     72828
     72829     72825     72827     72829     72825     72826     72831     72835     72836
     72832     72831     72834     72832     72831     72833     72833     72831     72834
     72835     72831     72834     72835     72831     72833     72835     72831     72832
     72837     72841     72842     72838     72837     72840     72838     72837     72839
     72839     72837     72840     72841     72837     72840     72841     72837     72839
     72841     72837     72838     72843     72847     72848     72844     72843     72846
     72844     72843     72845     72845     72843     72846     72847     72843     72846
     72847     72843     72845     72847     72843     72844     72849     72853     72854
     72850     72849     72852     72850     72849     72851     72851     72849     72852
     72853     72849     72852     72853     72849     72851     72853     72849     72850
     72855     72859     72860     72856     72855     72858     72856     72855     72857
     72857     72855     72858     72859     72855     72858     72859     72855     72857
     72859     72855     72856     72861     72865     72866     72862     72861     72864
     72862     72861     72863     72863     72861     72864     72865     72861     72864
     72865     72861     72863     72865     72861     72862     72867     72871     72872
     72868     72867     72870     72868     72867     72869     72869     72867     72870
     72871     72867     72870     72871     72867     72869     72871     72867     72868
     72873     72877     72878     72874     72873     72876     72874     72873     72875
     72875     72873     72876     72877     72873     72876     72877     72873     72875
     72877     72873     72874     72879     72883     72884     72880     72879     72882
     72880     72879     72881     72881     72879     72882     72883     72879     72882
     72883     72879     72881     72883     72879     72880     72885     72889     72890
     72886     72885     72888     72886     72885     72887     72887     72885     72888
     72889     72885     72888     72889     72885     72887     72889     72885     72886
     72891     72895     72896     72892     72891     72894     72892     72891     72893
     72893     72891     72894     72895     72891     72894     72895     72891     72893
     72895     72891     72892     72897     72901     72902     72898     72897     72900
     72898     72897     72899     72899     72897     72900     72901     72897     72900
     72901     72897     72899     72901     72897     72898     72903     72907     72908
     72904     72903     72906     72904     72903     72905     72905     72903     72906
     72907     72903     72906     72907     72903     72905     72907     72903     72904
     72909     72913     72914     72910     72909     72912     72910     72909     72911
     72911     72909     72912     72913     72909     72912     72913     72909     72911
     72913     72909     72910     72915     72919     72920     72916     72915     72918
     72916     72915     72917     72917     72915     72918     72919     72915     72918
     72919     72915     72917     72919     72915     72916     72921     72925     72926
     72922     72921     72924     72922     72921     72923     72923     72921     72924
     72925     72921     72924     72925     72921     72923     72925     72921     72922
     72927     72931     72932     72928     72927     72930     72928     72927     72929
     72929     72927     72930     72931     72927     72930     72931     72927     72929
     72931     72927     72928     72933     72937     72938     72934     72933     72936
     72934     72933     72935     72935     72933     72936     72937     72933     72936
     72937     72933     72935     72937     72933     72934     72939     72943     72944
     72940     72939     72942     72940     72939     72941     72941     72939     72942
     72943     72939     72942     72943     72939     72941     72943     72939     72940
     72945     72949     72950     72946     72945     72948     72946     72945     72947
     72947     72945     72948     72949     72945     72948     72949     72945     72947
     72949     72945     72946     72951     72955     72956     72952     72951     72954
     72952     72951     72953     72953     72951     72954     72955     72951     72954
     72955     72951     72953     72955     72951     72952     72957     72961     72962
     72958     72957     72960     72958     72957     72959     72959     72957     72960
     72961     72957     72960     72961     72957     72959     72961     72957     72958
     72963     72967     72968     72964     72963     72966     72964     72963     72965
     72965     72963     72966     72967     72963     72966     72967     72963     72965
     72967     72963     72964     72969     72973     72974     72970     72969     72972
     72970     72969     72971     72971     72969     72972     72973     72969     72972
     72973     72969     72971     72973     72969     72970     72975     72979     72980
     72976     72975     72978     72976     72975     72977     72977     72975     72978
     72979     72975     72978     72979     72975     72977     72979     72975     72976
     72981     72985     72986     72982     72981     72984     72982     72981     72983
     72983     72981     72984     72985     72981     72984     72985     72981     72983
     72985     72981     72982     72987     72991     72992     72988     72987     72990
     72988     72987     72989     72989     72987     72990     72991     72987     72990
     72991     72987     72989     72991     72987     72988     72993     72997     72998
     72994     72993     72996     72994     72993     72995     72995     72993     72996
     72997     72993     72996     72997     72993     72995     72997     72993     72994
     72999     73003     73004     73000     72999     73002     73000     72999     73001
     73001     72999     73002     73003     72999     73002     73003     72999     73001
     73003     72999     73000     73005     73009     73010     73006     73005     73008
     73006     73005     73007     73007     73005     73008     73009     73005     73008
     73009     73005     73007     73009     73005     73006     73011     73015     73016
     73012     73011     73014     73012     73011     73013     73013     73011     73014
     73015     73011     73014     73015     73011     73013     73015     73011     73012
     73017     73021     73022     73018     73017     73020     73018     73017     73019
     73019     73017     73020     73021     73017     73020     73021     73017     73019
     73021     73017     73018     73023     73027     73028     73024     73023     73026
     73024     73023     73025     73025     73023     73026     73027     73023     73026
     73027     73023     73025     73027     73023     73024     73029     73033     73034
     73030     73029     73032     73030     73029     73031     73031     73029     73032
     73033     73029     73032     73033     73029     73031     73033     73029     73030
     73035     73039     73040     73036     73035     73038     73036     73035     73037
     73037     73035     73038     73039     73035     73038     73039     73035     73037
     73039     73035     73036     73041     73045     73046     73042     73041     73044
     73042     73041     73043     73043     73041     73044     73045     73041     73044
     73045     73041     73043     73045     73041     73042     73047     73051     73052
     73048     73047     73050     73048     73047     73049     73049     73047     73050
     73051     73047     73050     73051     73047     73049     73051     73047     73048
     73053     73057     73058     73054     73053     73056     73054     73053     73055
     73055     73053     73056     73057     73053     73056     73057     73053     73055
     73057     73053     73054     73059     73063     73064     73060     73059     73062
     73060     73059     73061     73061     73059     73062     73063     73059     73062
     73063     73059     73061     73063     73059     73060     73065     73069     73070
     73066     73065     73068     73066     73065     73067     73067     73065     73068
     73069     73065     73068     73069     73065     73067     73069     73065     73066
     73071     73075     73076     73072     73071     73074     73072     73071     73073
     73073     73071     73074     73075     73071     73074     73075     73071     73073
     73075     73071     73072     73077     73081     73082     73078     73077     73080
     73078     73077     73079     73079     73077     73080     73081     73077     73080
     73081     73077     73079     73081     73077     73078     73083     73087     73088
     73084     73083     73086     73084     73083     73085     73085     73083     73086
     73087     73083     73086     73087     73083     73085     73087     73083     73084
     73089     73093     73094     73090     73089     73092     73090     73089     73091
     73091     73089     73092     73093     73089     73092     73093     73089     73091
     73093     73089     73090     73095     73099     73100     73096     73095     73098
     73096     73095     73097     73097     73095     73098     73099     73095     73098
     73099     73095     73097     73099     73095     73096     73101     73105     73106
     73102     73101     73104     73102     73101     73103     73103     73101     73104
     73105     73101     73104     73105     73101     73103     73105     73101     73102
     73107     73111     73112     73108     73107     73110     73108     73107     73109
     73109     73107     73110     73111     73107     73110     73111     73107     73109
     73111     73107     73108     73113     73117     73118     73114     73113     73116
     73114     73113     73115     73115     73113     73116     73117     73113     73116
     73117     73113     73115     73117     73113     73114     73119     73123     73124
     73120     73119     73122     73120     73119     73121     73121     73119     73122
     73123     73119     73122     73123     73119     73121     73123     73119     73120
     73125     73129     73130     73126     73125     73128     73126     73125     73127
     73127     73125     73128     73129     73125     73128     73129     73125     73127
     73129     73125     73126     73131     73135     73136     73132     73131     73134
     73132     73131     73133     73133     73131     73134     73135     73131     73134
     73135     73131     73133     73135     73131     73132     73137     73141     73142
     73138     73137     73140     73138     73137     73139     73139     73137     73140
     73141     73137     73140     73141     73137     73139     73141     73137     73138
     73143     73147     73148     73144     73143     73146     73144     73143     73145
     73145     73143     73146     73147     73143     73146     73147     73143     73145
     73147     73143     73144     73149     73153     73154     73150     73149     73152
     73150     73149     73151     73151     73149     73152     73153     73149     73152
     73153     73149     73151     73153     73149     73150     73155     73159     73160
     73156     73155     73158     73156     73155     73157     73157     73155     73158
     73159     73155     73158     73159     73155     73157     73159     73155     73156
     73161     73165     73166     73162     73161     73164     73162     73161     73163
     73163     73161     73164     73165     73161     73164     73165     73161     73163
     73165     73161     73162     73167     73171     73172     73168     73167     73170
     73168     73167     73169     73169     73167     73170     73171     73167     73170
     73171     73167     73169     73171     73167     73168     73173     73177     73178
     73174     73173     73176     73174     73173     73175     73175     73173     73176
     73177     73173     73176     73177     73173     73175     73177     73173     73174
     73179     73183     73184     73180     73179     73182     73180     73179     73181
     73181     73179     73182     73183     73179     73182     73183     73179     73181
     73183     73179     73180     73185     73189     73190     73186     73185     73188
     73186     73185     73187     73187     73185     73188     73189     73185     73188
     73189     73185     73187     73189     73185     73186     73191     73195     73196
     73192     73191     73194     73192     73191     73193     73193     73191     73194
     73195     73191     73194     73195     73191     73193     73195     73191     73192
     73197     73201     73202     73198     73197     73200     73198     73197     73199
     73199     73197     73200     73201     73197     73200     73201     73197     73199
     73201     73197     73198     73203     73207     73208     73204     73203     73206
     73204     73203     73205     73205     73203     73206     73207     73203     73206
     73207     73203     73205     73207     73203     73204     73209     73213     73214
     73210     73209     73212     73210     73209     73211     73211     73209     73212
     73213     73209     73212     73213     73209     73211     73213     73209     73210
     73215     73219     73220     73216     73215     73218     73216     73215     73217
     73217     73215     73218     73219     73215     73218     73219     73215     73217
     73219     73215     73216     73221     73225     73226     73222     73221     73224
     73222     73221     73223     73223     73221     73224     73225     73221     73224
     73225     73221     73223     73225     73221     73222     73227     73231     73232
     73228     73227     73230     73228     73227     73229     73229     73227     73230
     73231     73227     73230     73231     73227     73229     73231     73227     73228
     73233     73237     73238     73234     73233     73236     73234     73233     73235
     73235     73233     73236     73237     73233     73236     73237     73233     73235
     73237     73233     73234     73239     73243     73244     73240     73239     73242
     73240     73239     73241     73241     73239     73242     73243     73239     73242
     73243     73239     73241     73243     73239     73240     73245     73249     73250
     73246     73245     73248     73246     73245     73247     73247     73245     73248
     73249     73245     73248     73249     73245     73247     73249     73245     73246
     73251     73255     73256     73252     73251     73254     73252     73251     73253
     73253     73251     73254     73255     73251     73254     73255     73251     73253
     73255     73251     73252     73257     73261     73262     73258     73257     73260
     73258     73257     73259     73259     73257     73260     73261     73257     73260
     73261     73257     73259     73261     73257     73258     73263     73267     73268
     73264     73263     73266     73264     73263     73265     73265     73263     73266
     73267     73263     73266     73267     73263     73265     73267     73263     73264
     73269     73273     73274     73270     73269     73272     73270     73269     73271
     73271     73269     73272     73273     73269     73272     73273     73269     73271
     73273     73269     73270     73275     73279     73280     73276     73275     73278
     73276     73275     73277     73277     73275     73278     73279     73275     73278
     73279     73275     73277     73279     73275     73276     73281     73285     73286
     73282     73281     73284     73282     73281     73283     73283     73281     73284
     73285     73281     73284     73285     73281     73283     73285     73281     73282
     73287     73291     73292     73288     73287     73290     73288     73287     73289
     73289     73287     73290     73291     73287     73290     73291     73287     73289
     73291     73287     73288     73293     73297     73298     73294     73293     73296
     73294     73293     73295     73295     73293     73296     73297     73293     73296
     73297     73293     73295     73297     73293     73294     73299     73303     73304
     73300     73299     73302     73300     73299     73301     73301     73299     73302
     73303     73299     73302     73303     73299     73301     73303     73299     73300
     73305     73309     73310     73306     73305     73308     73306     73305     73307
     73307     73305     73308     73309     73305     73308     73309     73305     73307
     73309     73305     73306     73311     73315     73316     73312     73311     73314
     73312     73311     73313     73313     73311     73314     73315     73311     73314
     73315     73311     73313     73315     73311     73312     73317     73321     73322
     73318     73317     73320     73318     73317     73319     73319     73317     73320
     73321     73317     73320     73321     73317     73319     73321     73317     73318
     73323     73327     73328     73324     73323     73326     73324     73323     73325
     73325     73323     73326     73327     73323     73326     73327     73323     73325
     73327     73323     73324     73329     73333     73334     73330     73329     73332
     73330     73329     73331     73331     73329     73332     73333     73329     73332
     73333     73329     73331     73333     73329     73330     73335     73339     73340
     73336     73335     73338     73336     73335     73337     73337     73335     73338
     73339     73335     73338     73339     73335     73337     73339     73335     73336
     73341     73345     73346     73342     73341     73344     73342     73341     73343
     73343     73341     73344     73345     73341     73344     73345     73341     73343
     73345     73341     73342     73347     73351     73352     73348     73347     73350
     73348     73347     73349     73349     73347     73350     73351     73347     73350
     73351     73347     73349     73351     73347     73348     73353     73357     73358
     73354     73353     73356     73354     73353     73355     73355     73353     73356
     73357     73353     73356     73357     73353     73355     73357     73353     73354
     73359     73363     73364     73360     73359     73362     73360     73359     73361
     73361     73359     73362     73363     73359     73362     73363     73359     73361
     73363     73359     73360     73365     73369     73370     73366     73365     73368
     73366     73365     73367     73367     73365     73368     73369     73365     73368
     73369     73365     73367     73369     73365     73366     73371     73375     73376
     73372     73371     73374     73372     73371     73373     73373     73371     73374
     73375     73371     73374     73375     73371     73373     73375     73371     73372
     73377     73381     73382     73378     73377     73380     73378     73377     73379
     73379     73377     73380     73381     73377     73380     73381     73377     73379
     73381     73377     73378     73383     73387     73388     73384     73383     73386
     73384     73383     73385     73385     73383     73386     73387     73383     73386
     73387     73383     73385     73387     73383     73384     73389     73393     73394
     73390     73389     73392     73390     73389     73391     73391     73389     73392
     73393     73389     73392     73393     73389     73391     73393     73389     73390
     73395     73399     73400     73396     73395     73398     73396     73395     73397
     73397     73395     73398     73399     73395     73398     73399     73395     73397
     73399     73395     73396     73401     73405     73406     73402     73401     73404
     73402     73401     73403     73403     73401     73404     73405     73401     73404
     73405     73401     73403     73405     73401     73402     73407     73411     73412
     73408     73407     73410     73408     73407     73409     73409     73407     73410
     73411     73407     73410     73411     73407     73409     73411     73407     73408
     73413     73417     73418     73414     73413     73416     73414     73413     73415
     73415     73413     73416     73417     73413     73416     73417     73413     73415
     73417     73413     73414     73419     73423     73424     73420     73419     73422
     73420     73419     73421     73421     73419     73422     73423     73419     73422
     73423     73419     73421     73423     73419     73420     73425     73429     73430
     73426     73425     73428     73426     73425     73427     73427     73425     73428
     73429     73425     73428     73429     73425     73427     73429     73425     73426
     73431     73435     73436     73432     73431     73434     73432     73431     73433
     73433     73431     73434     73435     73431     73434     73435     73431     73433
     73435     73431     73432     73437     73441     73442     73438     73437     73440
     73438     73437     73439     73439     73437     73440     73441     73437     73440
     73441     73437     73439     73441     73437     73438     73443     73447     73448
     73444     73443     73446     73444     73443     73445     73445     73443     73446
     73447     73443     73446     73447     73443     73445     73447     73443     73444
     73449     73453     73454     73450     73449     73452     73450     73449     73451
     73451     73449     73452     73453     73449     73452     73453     73449     73451
     73453     73449     73450     73455     73459     73460     73456     73455     73458
     73456     73455     73457     73457     73455     73458     73459     73455     73458
     73459     73455     73457     73459     73455     73456     73461     73465     73466
     73462     73461     73464     73462     73461     73463     73463     73461     73464
     73465     73461     73464     73465     73461     73463     73465     73461     73462
     73467     73471     73472     73468     73467     73470     73468     73467     73469
     73469     73467     73470     73471     73467     73470     73471     73467     73469
     73471     73467     73468     73473     73477     73478     73474     73473     73476
     73474     73473     73475     73475     73473     73476     73477     73473     73476
     73477     73473     73475     73477     73473     73474     73479     73483     73484
     73480     73479     73482     73480     73479     73481     73481     73479     73482
     73483     73479     73482     73483     73479     73481     73483     73479     73480
     73485     73489     73490     73486     73485     73488     73486     73485     73487
     73487     73485     73488     73489     73485     73488     73489     73485     73487
     73489     73485     73486     73491     73495     73496     73492     73491     73494
     73492     73491     73493     73493     73491     73494     73495     73491     73494
     73495     73491     73493     73495     73491     73492     73497     73501     73502
     73498     73497     73500     73498     73497     73499     73499     73497     73500
     73501     73497     73500     73501     73497     73499     73501     73497     73498
     73503     73507     73508     73504     73503     73506     73504     73503     73505
     73505     73503     73506     73507     73503     73506     73507     73503     73505
     73507     73503     73504     73509     73513     73514     73510     73509     73512
     73510     73509     73511     73511     73509     73512     73513     73509     73512
     73513     73509     73511     73513     73509     73510     73515     73519     73520
     73516     73515     73518     73516     73515     73517     73517     73515     73518
     73519     73515     73518     73519     73515     73517     73519     73515     73516
     73521     73525     73526     73522     73521     73524     73522     73521     73523
     73523     73521     73524     73525     73521     73524     73525     73521     73523
     73525     73521     73522     73527     73531     73532     73528     73527     73530
     73528     73527     73529     73529     73527     73530     73531     73527     73530
     73531     73527     73529     73531     73527     73528     73533     73537     73538
     73534     73533     73536     73534     73533     73535     73535     73533     73536
     73537     73533     73536     73537     73533     73535     73537     73533     73534
     73539     73543     73544     73540     73539     73542     73540     73539     73541
     73541     73539     73542     73543     73539     73542     73543     73539     73541
     73543     73539     73540     73545     73549     73550     73546     73545     73548
     73546     73545     73547     73547     73545     73548     73549     73545     73548
     73549     73545     73547     73549     73545     73546     73551     73555     73556
     73552     73551     73554     73552     73551     73553     73553     73551     73554
     73555     73551     73554     73555     73551     73553     73555     73551     73552
     73557     73561     73562     73558     73557     73560     73558     73557     73559
     73559     73557     73560     73561     73557     73560     73561     73557     73559
     73561     73557     73558     73563     73567     73568     73564     73563     73566
     73564     73563     73565     73565     73563     73566     73567     73563     73566
     73567     73563     73565     73567     73563     73564     73569     73573     73574
     73570     73569     73572     73570     73569     73571     73571     73569     73572
     73573     73569     73572     73573     73569     73571     73573     73569     73570
     73575     73579     73580     73576     73575     73578     73576     73575     73577
     73577     73575     73578     73579     73575     73578     73579     73575     73577
     73579     73575     73576     73581     73585     73586     73582     73581     73584
     73582     73581     73583     73583     73581     73584     73585     73581     73584
     73585     73581     73583     73585     73581     73582     73587     73591     73592
     73588     73587     73590     73588     73587     73589     73589     73587     73590
     73591     73587     73590     73591     73587     73589     73591     73587     73588
     73593     73597     73598     73594     73593     73596     73594     73593     73595
     73595     73593     73596     73597     73593     73596     73597     73593     73595
     73597     73593     73594     73599     73603     73604     73600     73599     73602
     73600     73599     73601     73601     73599     73602     73603     73599     73602
     73603     73599     73601     73603     73599     73600     73605     73609     73610
     73606     73605     73608     73606     73605     73607     73607     73605     73608
     73609     73605     73608     73609     73605     73607     73609     73605     73606
     73611     73615     73616     73612     73611     73614     73612     73611     73613
     73613     73611     73614     73615     73611     73614     73615     73611     73613
     73615     73611     73612     73617     73621     73622     73618     73617     73620
     73618     73617     73619     73619     73617     73620     73621     73617     73620
     73621     73617     73619     73621     73617     73618     73623     73627     73628
     73624     73623     73626     73624     73623     73625     73625     73623     73626
     73627     73623     73626     73627     73623     73625     73627     73623     73624
     73629     73633     73634     73630     73629     73632     73630     73629     73631
     73631     73629     73632     73633     73629     73632     73633     73629     73631
     73633     73629     73630     73635     73639     73640     73636     73635     73638
     73636     73635     73637     73637     73635     73638     73639     73635     73638
     73639     73635     73637     73639     73635     73636     73641     73645     73646
     73642     73641     73644     73642     73641     73643     73643     73641     73644
     73645     73641     73644     73645     73641     73643     73645     73641     73642
     73647     73651     73652     73648     73647     73650     73648     73647     73649
     73649     73647     73650     73651     73647     73650     73651     73647     73649
     73651     73647     73648     73653     73657     73658     73654     73653     73656
     73654     73653     73655     73655     73653     73656     73657     73653     73656
     73657     73653     73655     73657     73653     73654     73659     73663     73664
     73660     73659     73662     73660     73659     73661     73661     73659     73662
     73663     73659     73662     73663     73659     73661     73663     73659     73660
     73665     73669     73670     73666     73665     73668     73666     73665     73667
     73667     73665     73668     73669     73665     73668     73669     73665     73667
     73669     73665     73666     73671     73675     73676     73672     73671     73674
     73672     73671     73673     73673     73671     73674     73675     73671     73674
     73675     73671     73673     73675     73671     73672     73677     73681     73682
     73678     73677     73680     73678     73677     73679     73679     73677     73680
     73681     73677     73680     73681     73677     73679     73681     73677     73678
     73683     73687     73688     73684     73683     73686     73684     73683     73685
     73685     73683     73686     73687     73683     73686     73687     73683     73685
     73687     73683     73684     73689     73693     73694     73690     73689     73692
     73690     73689     73691     73691     73689     73692     73693     73689     73692
     73693     73689     73691     73693     73689     73690     73695     73699     73700
     73696     73695     73698     73696     73695     73697     73697     73695     73698
     73699     73695     73698     73699     73695     73697     73699     73695     73696
     73701     73705     73706     73702     73701     73704     73702     73701     73703
     73703     73701     73704     73705     73701     73704     73705     73701     73703
     73705     73701     73702     73707     73711     73712     73708     73707     73710
     73708     73707     73709     73709     73707     73710     73711     73707     73710
     73711     73707     73709     73711     73707     73708     73713     73717     73718
     73714     73713     73716     73714     73713     73715     73715     73713     73716
     73717     73713     73716     73717     73713     73715     73717     73713     73714
     73719     73723     73724     73720     73719     73722     73720     73719     73721
     73721     73719     73722     73723     73719     73722     73723     73719     73721
     73723     73719     73720     73725     73729     73730     73726     73725     73728
     73726     73725     73727     73727     73725     73728     73729     73725     73728
     73729     73725     73727     73729     73725     73726     73731     73735     73736
     73732     73731     73734     73732     73731     73733     73733     73731     73734
     73735     73731     73734     73735     73731     73733     73735     73731     73732
     73737     73741     73742     73738     73737     73740     73738     73737     73739
     73739     73737     73740     73741     73737     73740     73741     73737     73739
     73741     73737     73738     73743     73747     73748     73744     73743     73746
     73744     73743     73745     73745     73743     73746     73747     73743     73746
     73747     73743     73745     73747     73743     73744     73749     73753     73754
     73750     73749     73752     73750     73749     73751     73751     73749     73752
     73753     73749     73752     73753     73749     73751     73753     73749     73750
     73755     73759     73760     73756     73755     73758     73756     73755     73757
     73757     73755     73758     73759     73755     73758     73759     73755     73757
     73759     73755     73756     73761     73765     73766     73762     73761     73764
     73762     73761     73763     73763     73761     73764     73765     73761     73764
     73765     73761     73763     73765     73761     73762     73767     73771     73772
     73768     73767     73770     73768     73767     73769     73769     73767     73770
     73771     73767     73770     73771     73767     73769     73771     73767     73768
     73773     73777     73778     73774     73773     73776     73774     73773     73775
     73775     73773     73776     73777     73773     73776     73777     73773     73775
     73777     73773     73774     73779     73783     73784     73780     73779     73782
     73780     73779     73781     73781     73779     73782     73783     73779     73782
     73783     73779     73781     73783     73779     73780     73785     73789     73790
     73786     73785     73788     73786     73785     73787     73787     73785     73788
     73789     73785     73788     73789     73785     73787     73789     73785     73786
     73791     73795     73796     73792     73791     73794     73792     73791     73793
     73793     73791     73794     73795     73791     73794     73795     73791     73793
     73795     73791     73792     73797     73801     73802     73798     73797     73800
     73798     73797     73799     73799     73797     73800     73801     73797     73800
     73801     73797     73799     73801     73797     73798     73803     73807     73808
     73804     73803     73806     73804     73803     73805     73805     73803     73806
     73807     73803     73806     73807     73803     73805     73807     73803     73804
     73809     73813     73814     73810     73809     73812     73810     73809     73811
     73811     73809     73812     73813     73809     73812     73813     73809     73811
     73813     73809     73810     73815     73819     73820     73816     73815     73818
     73816     73815     73817     73817     73815     73818     73819     73815     73818
     73819     73815     73817     73819     73815     73816     73821     73825     73826
     73822     73821     73824     73822     73821     73823     73823     73821     73824
     73825     73821     73824     73825     73821     73823     73825     73821     73822
     73827     73831     73832     73828     73827     73830     73828     73827     73829
     73829     73827     73830     73831     73827     73830     73831     73827     73829
     73831     73827     73828     73833     73837     73838     73834     73833     73836
     73834     73833     73835     73835     73833     73836     73837     73833     73836
     73837     73833     73835     73837     73833     73834     73839     73843     73844
     73840     73839     73842     73840     73839     73841     73841     73839     73842
     73843     73839     73842     73843     73839     73841     73843     73839     73840
     73845     73849     73850     73846     73845     73848     73846     73845     73847
     73847     73845     73848     73849     73845     73848     73849     73845     73847
     73849     73845     73846     73851     73855     73856     73852     73851     73854
     73852     73851     73853     73853     73851     73854     73855     73851     73854
     73855     73851     73853     73855     73851     73852     73857     73861     73862
     73858     73857     73860     73858     73857     73859     73859     73857     73860
     73861     73857     73860     73861     73857     73859     73861     73857     73858
     73863     73867     73868     73864     73863     73866     73864     73863     73865
     73865     73863     73866     73867     73863     73866     73867     73863     73865
     73867     73863     73864     73869     73873     73874     73870     73869     73872
     73870     73869     73871     73871     73869     73872     73873     73869     73872
     73873     73869     73871     73873     73869     73870     73875     73879     73880
     73876     73875     73878     73876     73875     73877     73877     73875     73878
     73879     73875     73878     73879     73875     73877     73879     73875     73876
     73881     73885     73886     73882     73881     73884     73882     73881     73883
     73883     73881     73884     73885     73881     73884     73885     73881     73883
     73885     73881     73882     73887     73891     73892     73888     73887     73890
     73888     73887     73889     73889     73887     73890     73891     73887     73890
     73891     73887     73889     73891     73887     73888     73893     73897     73898
     73894     73893     73896     73894     73893     73895     73895     73893     73896
     73897     73893     73896     73897     73893     73895     73897     73893     73894
     73899     73903     73904     73900     73899     73902     73900     73899     73901
     73901     73899     73902     73903     73899     73902     73903     73899     73901
     73903     73899     73900     73905     73909     73910     73906     73905     73908
     73906     73905     73907     73907     73905     73908     73909     73905     73908
     73909     73905     73907     73909     73905     73906     73911     73915     73916
     73912     73911     73914     73912     73911     73913     73913     73911     73914
     73915     73911     73914     73915     73911     73913     73915     73911     73912
     73917     73921     73922     73918     73917     73920     73918     73917     73919
     73919     73917     73920     73921     73917     73920     73921     73917     73919
     73921     73917     73918     73923     73927     73928     73924     73923     73926
     73924     73923     73925     73925     73923     73926     73927     73923     73926
     73927     73923     73925     73927     73923     73924     73929     73933     73934
     73930     73929     73932     73930     73929     73931     73931     73929     73932
     73933     73929     73932     73933     73929     73931     73933     73929     73930
     73935     73939     73940     73936     73935     73938     73936     73935     73937
     73937     73935     73938     73939     73935     73938     73939     73935     73937
     73939     73935     73936     73941     73945     73946     73942     73941     73944
     73942     73941     73943     73943     73941     73944     73945     73941     73944
     73945     73941     73943     73945     73941     73942     73947     73951     73952
     73948     73947     73950     73948     73947     73949     73949     73947     73950
     73951     73947     73950     73951     73947     73949     73951     73947     73948
     73953     73957     73958     73954     73953     73956     73954     73953     73955
     73955     73953     73956     73957     73953     73956     73957     73953     73955
     73957     73953     73954     73959     73963     73964     73960     73959     73962
     73960     73959     73961     73961     73959     73962     73963     73959     73962
     73963     73959     73961     73963     73959     73960     73965     73969     73970
     73966     73965     73968     73966     73965     73967     73967     73965     73968
     73969     73965     73968     73969     73965     73967     73969     73965     73966
     73971     73975     73976     73972     73971     73974     73972     73971     73973
     73973     73971     73974     73975     73971     73974     73975     73971     73973
     73975     73971     73972     73977     73981     73982     73978     73977     73980
     73978     73977     73979     73979     73977     73980     73981     73977     73980
     73981     73977     73979     73981     73977     73978     73983     73987     73988
     73984     73983     73986     73984     73983     73985     73985     73983     73986
     73987     73983     73986     73987     73983     73985     73987     73983     73984
     73989     73993     73994     73990     73989     73992     73990     73989     73991
     73991     73989     73992     73993     73989     73992     73993     73989     73991
     73993     73989     73990     73995     73999     74000     73996     73995     73998
     73996     73995     73997     73997     73995     73998     73999     73995     73998
     73999     73995     73997     73999     73995     73996     74001     74005     74006
     74002     74001     74004     74002     74001     74003     74003     74001     74004
     74005     74001     74004     74005     74001     74003     74005     74001     74002
     74007     74011     74012     74008     74007     74010     74008     74007     74009
     74009     74007     74010     74011     74007     74010     74011     74007     74009
     74011     74007     74008     74013     74017     74018     74014     74013     74016
     74014     74013     74015     74015     74013     74016     74017     74013     74016
     74017     74013     74015     74017     74013     74014     74019     74023     74024
     74020     74019     74022     74020     74019     74021     74021     74019     74022
     74023     74019     74022     74023     74019     74021     74023     74019     74020
     74025     74029     74030     74026     74025     74028     74026     74025     74027
     74027     74025     74028     74029     74025     74028     74029     74025     74027
     74029     74025     74026     74031     74035     74036     74032     74031     74034
     74032     74031     74033     74033     74031     74034     74035     74031     74034
     74035     74031     74033     74035     74031     74032     74037     74041     74042
     74038     74037     74040     74038     74037     74039     74039     74037     74040
     74041     74037     74040     74041     74037     74039     74041     74037     74038
     74043     74047     74048     74044     74043     74046     74044     74043     74045
     74045     74043     74046     74047     74043     74046     74047     74043     74045
     74047     74043     74044     74049     74053     74054     74050     74049     74052
     74050     74049     74051     74051     74049     74052     74053     74049     74052
     74053     74049     74051     74053     74049     74050     74055     74059     74060
     74056     74055     74058     74056     74055     74057     74057     74055     74058
     74059     74055     74058     74059     74055     74057     74059     74055     74056
     74061     74065     74066     74062     74061     74064     74062     74061     74063
     74063     74061     74064     74065     74061     74064     74065     74061     74063
     74065     74061     74062     74067     74071     74072     74068     74067     74070
     74068     74067     74069     74069     74067     74070     74071     74067     74070
     74071     74067     74069     74071     74067     74068     74073     74077     74078
     74074     74073     74076     74074     74073     74075     74075     74073     74076
     74077     74073     74076     74077     74073     74075     74077     74073     74074
     74079     74083     74084     74080     74079     74082     74080     74079     74081
     74081     74079     74082     74083     74079     74082     74083     74079     74081
     74083     74079     74080     74085     74089     74090     74086     74085     74088
     74086     74085     74087     74087     74085     74088     74089     74085     74088
     74089     74085     74087     74089     74085     74086     74091     74095     74096
     74092     74091     74094     74092     74091     74093     74093     74091     74094
     74095     74091     74094     74095     74091     74093     74095     74091     74092
     74097     74101     74102     74098     74097     74100     74098     74097     74099
     74099     74097     74100     74101     74097     74100     74101     74097     74099
     74101     74097     74098     74103     74107     74108     74104     74103     74106
     74104     74103     74105     74105     74103     74106     74107     74103     74106
     74107     74103     74105     74107     74103     74104     74109     74113     74114
     74110     74109     74112     74110     74109     74111     74111     74109     74112
     74113     74109     74112     74113     74109     74111     74113     74109     74110
     74115     74119     74120     74116     74115     74118     74116     74115     74117
     74117     74115     74118     74119     74115     74118     74119     74115     74117
     74119     74115     74116     74121     74125     74126     74122     74121     74124
     74122     74121     74123     74123     74121     74124     74125     74121     74124
     74125     74121     74123     74125     74121     74122     74127     74131     74132
     74128     74127     74130     74128     74127     74129     74129     74127     74130
     74131     74127     74130     74131     74127     74129     74131     74127     74128
     74133     74137     74138     74134     74133     74136     74134     74133     74135
     74135     74133     74136     74137     74133     74136     74137     74133     74135
     74137     74133     74134     74139     74143     74144     74140     74139     74142
     74140     74139     74141     74141     74139     74142     74143     74139     74142
     74143     74139     74141     74143     74139     74140     74145     74149     74150
     74146     74145     74148     74146     74145     74147     74147     74145     74148
     74149     74145     74148     74149     74145     74147     74149     74145     74146
     74151     74155     74156     74152     74151     74154     74152     74151     74153
     74153     74151     74154     74155     74151     74154     74155     74151     74153
     74155     74151     74152     74157     74161     74162     74158     74157     74160
     74158     74157     74159     74159     74157     74160     74161     74157     74160
     74161     74157     74159     74161     74157     74158     74163     74167     74168
     74164     74163     74166     74164     74163     74165     74165     74163     74166
     74167     74163     74166     74167     74163     74165     74167     74163     74164
     74169     74173     74174     74170     74169     74172     74170     74169     74171
     74171     74169     74172     74173     74169     74172     74173     74169     74171
     74173     74169     74170     74175     74179     74180     74176     74175     74178
     74176     74175     74177     74177     74175     74178     74179     74175     74178
     74179     74175     74177     74179     74175     74176     74181     74185     74186
     74182     74181     74184     74182     74181     74183     74183     74181     74184
     74185     74181     74184     74185     74181     74183     74185     74181     74182
     74187     74191     74192     74188     74187     74190     74188     74187     74189
     74189     74187     74190     74191     74187     74190     74191     74187     74189
     74191     74187     74188     74193     74197     74198     74194     74193     74196
     74194     74193     74195     74195     74193     74196     74197     74193     74196
     74197     74193     74195     74197     74193     74194     74199     74203     74204
     74200     74199     74202     74200     74199     74201     74201     74199     74202
     74203     74199     74202     74203     74199     74201     74203     74199     74200
     74205     74209     74210     74206     74205     74208     74206     74205     74207
     74207     74205     74208     74209     74205     74208     74209     74205     74207
     74209     74205     74206     74211     74215     74216     74212     74211     74214
     74212     74211     74213     74213     74211     74214     74215     74211     74214
     74215     74211     74213     74215     74211     74212     74217     74221     74222
     74218     74217     74220     74218     74217     74219     74219     74217     74220
     74221     74217     74220     74221     74217     74219     74221     74217     74218
     74223     74227     74228     74224     74223     74226     74224     74223     74225
     74225     74223     74226     74227     74223     74226     74227     74223     74225
     74227     74223     74224     74229     74233     74234     74230     74229     74232
     74230     74229     74231     74231     74229     74232     74233     74229     74232
     74233     74229     74231     74233     74229     74230     74235     74239     74240
     74236     74235     74238     74236     74235     74237     74237     74235     74238
     74239     74235     74238     74239     74235     74237     74239     74235     74236
     74241     74245     74246     74242     74241     74244     74242     74241     74243
     74243     74241     74244     74245     74241     74244     74245     74241     74243
     74245     74241     74242     74247     74251     74252     74248     74247     74250
     74248     74247     74249     74249     74247     74250     74251     74247     74250
     74251     74247     74249     74251     74247     74248     74253     74257     74258
     74254     74253     74256     74254     74253     74255     74255     74253     74256
     74257     74253     74256     74257     74253     74255     74257     74253     74254
     74259     74263     74264     74260     74259     74262     74260     74259     74261
     74261     74259     74262     74263     74259     74262     74263     74259     74261
     74263     74259     74260     74265     74269     74270     74266     74265     74268
     74266     74265     74267     74267     74265     74268     74269     74265     74268
     74269     74265     74267     74269     74265     74266     74271     74275     74276
     74272     74271     74274     74272     74271     74273     74273     74271     74274
     74275     74271     74274     74275     74271     74273     74275     74271     74272
     74277     74281     74282     74278     74277     74280     74278     74277     74279
     74279     74277     74280     74281     74277     74280     74281     74277     74279
     74281     74277     74278     74283     74287     74288     74284     74283     74286
     74284     74283     74285     74285     74283     74286     74287     74283     74286
     74287     74283     74285     74287     74283     74284     74289     74293     74294
     74290     74289     74292     74290     74289     74291     74291     74289     74292
     74293     74289     74292     74293     74289     74291     74293     74289     74290
     74295     74299     74300     74296     74295     74298     74296     74295     74297
     74297     74295     74298     74299     74295     74298     74299     74295     74297
     74299     74295     74296     74301     74305     74306     74302     74301     74304
     74302     74301     74303     74303     74301     74304     74305     74301     74304
     74305     74301     74303     74305     74301     74302     74307     74311     74312
     74308     74307     74310     74308     74307     74309     74309     74307     74310
     74311     74307     74310     74311     74307     74309     74311     74307     74308
     74313     74317     74318     74314     74313     74316     74314     74313     74315
     74315     74313     74316     74317     74313     74316     74317     74313     74315
     74317     74313     74314     74319     74323     74324     74320     74319     74322
     74320     74319     74321     74321     74319     74322     74323     74319     74322
     74323     74319     74321     74323     74319     74320     74325     74329     74330
     74326     74325     74328     74326     74325     74327     74327     74325     74328
     74329     74325     74328     74329     74325     74327     74329     74325     74326
     74331     74335     74336     74332     74331     74334     74332     74331     74333
     74333     74331     74334     74335     74331     74334     74335     74331     74333
     74335     74331     74332     74337     74341     74342     74338     74337     74340
     74338     74337     74339     74339     74337     74340     74341     74337     74340
     74341     74337     74339     74341     74337     74338     74343     74347     74348
     74344     74343     74346     74344     74343     74345     74345     74343     74346
     74347     74343     74346     74347     74343     74345     74347     74343     74344
     74349     74353     74354     74350     74349     74352     74350     74349     74351
     74351     74349     74352     74353     74349     74352     74353     74349     74351
     74353     74349     74350     74355     74359     74360     74356     74355     74358
     74356     74355     74357     74357     74355     74358     74359     74355     74358
     74359     74355     74357     74359     74355     74356     74361     74365     74366
     74362     74361     74364     74362     74361     74363     74363     74361     74364
     74365     74361     74364     74365     74361     74363     74365     74361     74362
     74367     74371     74372     74368     74367     74370     74368     74367     74369
     74369     74367     74370     74371     74367     74370     74371     74367     74369
     74371     74367     74368     74373     74377     74378     74374     74373     74376
     74374     74373     74375     74375     74373     74376     74377     74373     74376
     74377     74373     74375     74377     74373     74374     74379     74383     74384
     74380     74379     74382     74380     74379     74381     74381     74379     74382
     74383     74379     74382     74383     74379     74381     74383     74379     74380
     74385     74389     74390     74386     74385     74388     74386     74385     74387
     74387     74385     74388     74389     74385     74388     74389     74385     74387
     74389     74385     74386     74391     74395     74396     74392     74391     74394
     74392     74391     74393     74393     74391     74394     74395     74391     74394
     74395     74391     74393     74395     74391     74392     74397     74401     74402
     74398     74397     74400     74398     74397     74399     74399     74397     74400
     74401     74397     74400     74401     74397     74399     74401     74397     74398
     74403     74407     74408     74404     74403     74406     74404     74403     74405
     74405     74403     74406     74407     74403     74406     74407     74403     74405
     74407     74403     74404     74409     74413     74414     74410     74409     74412
     74410     74409     74411     74411     74409     74412     74413     74409     74412
     74413     74409     74411     74413     74409     74410     74415     74419     74420
     74416     74415     74418     74416     74415     74417     74417     74415     74418
     74419     74415     74418     74419     74415     74417     74419     74415     74416
     74421     74425     74426     74422     74421     74424     74422     74421     74423
     74423     74421     74424     74425     74421     74424     74425     74421     74423
     74425     74421     74422     74427     74431     74432     74428     74427     74430
     74428     74427     74429     74429     74427     74430     74431     74427     74430
     74431     74427     74429     74431     74427     74428     74433     74437     74438
     74434     74433     74436     74434     74433     74435     74435     74433     74436
     74437     74433     74436     74437     74433     74435     74437     74433     74434
     74439     74443     74444     74440     74439     74442     74440     74439     74441
     74441     74439     74442     74443     74439     74442     74443     74439     74441
     74443     74439     74440     74445     74449     74450     74446     74445     74448
     74446     74445     74447     74447     74445     74448     74449     74445     74448
     74449     74445     74447     74449     74445     74446     74451     74455     74456
     74452     74451     74454     74452     74451     74453     74453     74451     74454
     74455     74451     74454     74455     74451     74453     74455     74451     74452
     74457     74461     74462     74458     74457     74460     74458     74457     74459
     74459     74457     74460     74461     74457     74460     74461     74457     74459
     74461     74457     74458     74463     74467     74468     74464     74463     74466
     74464     74463     74465     74465     74463     74466     74467     74463     74466
     74467     74463     74465     74467     74463     74464     74469     74473     74474
     74470     74469     74472     74470     74469     74471     74471     74469     74472
     74473     74469     74472     74473     74469     74471     74473     74469     74470
     74475     74479     74480     74476     74475     74478     74476     74475     74477
     74477     74475     74478     74479     74475     74478     74479     74475     74477
     74479     74475     74476     74481     74485     74486     74482     74481     74484
     74482     74481     74483     74483     74481     74484     74485     74481     74484
     74485     74481     74483     74485     74481     74482     74487     74491     74492
     74488     74487     74490     74488     74487     74489     74489     74487     74490
     74491     74487     74490     74491     74487     74489     74491     74487     74488
     74493     74497     74498     74494     74493     74496     74494     74493     74495
     74495     74493     74496     74497     74493     74496     74497     74493     74495
     74497     74493     74494     74499     74503     74504     74500     74499     74502
     74500     74499     74501     74501     74499     74502     74503     74499     74502
     74503     74499     74501     74503     74499     74500     74505     74509     74510
     74506     74505     74508     74506     74505     74507     74507     74505     74508
     74509     74505     74508     74509     74505     74507     74509     74505     74506
     74511     74515     74516     74512     74511     74514     74512     74511     74513
     74513     74511     74514     74515     74511     74514     74515     74511     74513
     74515     74511     74512     74517     74521     74522     74518     74517     74520
     74518     74517     74519     74519     74517     74520     74521     74517     74520
     74521     74517     74519     74521     74517     74518     74523     74527     74528
     74524     74523     74526     74524     74523     74525     74525     74523     74526
     74527     74523     74526     74527     74523     74525     74527     74523     74524
     74529     74533     74534     74530     74529     74532     74530     74529     74531
     74531     74529     74532     74533     74529     74532     74533     74529     74531
     74533     74529     74530     74535     74539     74540     74536     74535     74538
     74536     74535     74537     74537     74535     74538     74539     74535     74538
     74539     74535     74537     74539     74535     74536     74541     74545     74546
     74542     74541     74544     74542     74541     74543     74543     74541     74544
     74545     74541     74544     74545     74541     74543     74545     74541     74542
     74547     74551     74552     74548     74547     74550     74548     74547     74549
     74549     74547     74550     74551     74547     74550     74551     74547     74549
     74551     74547     74548     74553     74557     74558     74554     74553     74556
     74554     74553     74555     74555     74553     74556     74557     74553     74556
     74557     74553     74555     74557     74553     74554     74559     74563     74564
     74560     74559     74562     74560     74559     74561     74561     74559     74562
     74563     74559     74562     74563     74559     74561     74563     74559     74560
     74565     74569     74570     74566     74565     74568     74566     74565     74567
     74567     74565     74568     74569     74565     74568     74569     74565     74567
     74569     74565     74566     74571     74575     74576     74572     74571     74574
     74572     74571     74573     74573     74571     74574     74575     74571     74574
     74575     74571     74573     74575     74571     74572     74577     74581     74582
     74578     74577     74580     74578     74577     74579     74579     74577     74580
     74581     74577     74580     74581     74577     74579     74581     74577     74578
     74583     74587     74588     74584     74583     74586     74584     74583     74585
     74585     74583     74586     74587     74583     74586     74587     74583     74585
     74587     74583     74584     74589     74593     74594     74590     74589     74592
     74590     74589     74591     74591     74589     74592     74593     74589     74592
     74593     74589     74591     74593     74589     74590     74595     74599     74600
     74596     74595     74598     74596     74595     74597     74597     74595     74598
     74599     74595     74598     74599     74595     74597     74599     74595     74596
     74601     74605     74606     74602     74601     74604     74602     74601     74603
     74603     74601     74604     74605     74601     74604     74605     74601     74603
     74605     74601     74602     74607     74611     74612     74608     74607     74610
     74608     74607     74609     74609     74607     74610     74611     74607     74610
     74611     74607     74609     74611     74607     74608     74613     74617     74618
     74614     74613     74616     74614     74613     74615     74615     74613     74616
     74617     74613     74616     74617     74613     74615     74617     74613     74614
     74619     74623     74624     74620     74619     74622     74620     74619     74621
     74621     74619     74622     74623     74619     74622     74623     74619     74621
     74623     74619     74620     74625     74629     74630     74626     74625     74628
     74626     74625     74627     74627     74625     74628     74629     74625     74628
     74629     74625     74627     74629     74625     74626     74631     74635     74636
     74632     74631     74634     74632     74631     74633     74633     74631     74634
     74635     74631     74634     74635     74631     74633     74635     74631     74632
     74637     74641     74642     74638     74637     74640     74638     74637     74639
     74639     74637     74640     74641     74637     74640     74641     74637     74639
     74641     74637     74638     74643     74647     74648     74644     74643     74646
     74644     74643     74645     74645     74643     74646     74647     74643     74646
     74647     74643     74645     74647     74643     74644     74649     74653     74654
     74650     74649     74652     74650     74649     74651     74651     74649     74652
     74653     74649     74652     74653     74649     74651     74653     74649     74650
     74655     74659     74660     74656     74655     74658     74656     74655     74657
     74657     74655     74658     74659     74655     74658     74659     74655     74657
     74659     74655     74656     74661     74665     74666     74662     74661     74664
     74662     74661     74663     74663     74661     74664     74665     74661     74664
     74665     74661     74663     74665     74661     74662     74667     74671     74672
     74668     74667     74670     74668     74667     74669     74669     74667     74670
     74671     74667     74670     74671     74667     74669     74671     74667     74668
     74673     74677     74678     74674     74673     74676     74674     74673     74675
     74675     74673     74676     74677     74673     74676     74677     74673     74675
     74677     74673     74674     74679     74683     74684     74680     74679     74682
     74680     74679     74681     74681     74679     74682     74683     74679     74682
     74683     74679     74681     74683     74679     74680     74685     74689     74690
     74686     74685     74688     74686     74685     74687     74687     74685     74688
     74689     74685     74688     74689     74685     74687     74689     74685     74686
     74691     74695     74696     74692     74691     74694     74692     74691     74693
     74693     74691     74694     74695     74691     74694     74695     74691     74693
     74695     74691     74692     74697     74701     74702     74698     74697     74700
     74698     74697     74699     74699     74697     74700     74701     74697     74700
     74701     74697     74699     74701     74697     74698     74703     74707     74708
     74704     74703     74706     74704     74703     74705     74705     74703     74706
     74707     74703     74706     74707     74703     74705     74707     74703     74704
     74709     74713     74714     74710     74709     74712     74710     74709     74711
     74711     74709     74712     74713     74709     74712     74713     74709     74711
     74713     74709     74710     74715     74719     74720     74716     74715     74718
     74716     74715     74717     74717     74715     74718     74719     74715     74718
     74719     74715     74717     74719     74715     74716     74721     74725     74726
     74722     74721     74724     74722     74721     74723     74723     74721     74724
     74725     74721     74724     74725     74721     74723     74725     74721     74722
     74727     74731     74732     74728     74727     74730     74728     74727     74729
     74729     74727     74730     74731     74727     74730     74731     74727     74729
     74731     74727     74728     74733     74737     74738     74734     74733     74736
     74734     74733     74735     74735     74733     74736     74737     74733     74736
     74737     74733     74735     74737     74733     74734     74739     74743     74744
     74740     74739     74742     74740     74739     74741     74741     74739     74742
     74743     74739     74742     74743     74739     74741     74743     74739     74740
     74745     74749     74750     74746     74745     74748     74746     74745     74747
     74747     74745     74748     74749     74745     74748     74749     74745     74747
     74749     74745     74746     74751     74755     74756     74752     74751     74754
     74752     74751     74753     74753     74751     74754     74755     74751     74754
     74755     74751     74753     74755     74751     74752     74757     74761     74762
     74758     74757     74760     74758     74757     74759     74759     74757     74760
     74761     74757     74760     74761     74757     74759     74761     74757     74758
     74763     74767     74768     74764     74763     74766     74764     74763     74765
     74765     74763     74766     74767     74763     74766     74767     74763     74765
     74767     74763     74764     74769     74773     74774     74770     74769     74772
     74770     74769     74771     74771     74769     74772     74773     74769     74772
     74773     74769     74771     74773     74769     74770     74775     74779     74780
     74776     74775     74778     74776     74775     74777     74777     74775     74778
     74779     74775     74778     74779     74775     74777     74779     74775     74776
     74781     74785     74786     74782     74781     74784     74782     74781     74783
     74783     74781     74784     74785     74781     74784     74785     74781     74783
     74785     74781     74782     74787     74791     74792     74788     74787     74790
     74788     74787     74789     74789     74787     74790     74791     74787     74790
     74791     74787     74789     74791     74787     74788     74793     74797     74798
     74794     74793     74796     74794     74793     74795     74795     74793     74796
     74797     74793     74796     74797     74793     74795     74797     74793     74794
     74799     74803     74804     74800     74799     74802     74800     74799     74801
     74801     74799     74802     74803     74799     74802     74803     74799     74801
     74803     74799     74800     74805     74809     74810     74806     74805     74808
     74806     74805     74807     74807     74805     74808     74809     74805     74808
     74809     74805     74807     74809     74805     74806     74811     74815     74816
     74812     74811     74814     74812     74811     74813     74813     74811     74814
     74815     74811     74814     74815     74811     74813     74815     74811     74812
     74817     74821     74822     74818     74817     74820     74818     74817     74819
     74819     74817     74820     74821     74817     74820     74821     74817     74819
     74821     74817     74818     74823     74827     74828     74824     74823     74826
     74824     74823     74825     74825     74823     74826     74827     74823     74826
     74827     74823     74825     74827     74823     74824     74829     74833     74834
     74830     74829     74832     74830     74829     74831     74831     74829     74832
     74833     74829     74832     74833     74829     74831     74833     74829     74830
     74835     74839     74840     74836     74835     74838     74836     74835     74837
     74837     74835     74838     74839     74835     74838     74839     74835     74837
     74839     74835     74836     74841     74845     74846     74842     74841     74844
     74842     74841     74843     74843     74841     74844     74845     74841     74844
     74845     74841     74843     74845     74841     74842     74847     74851     74852
     74848     74847     74850     74848     74847     74849     74849     74847     74850
     74851     74847     74850     74851     74847     74849     74851     74847     74848
     74853     74857     74858     74854     74853     74856     74854     74853     74855
     74855     74853     74856     74857     74853     74856     74857     74853     74855
     74857     74853     74854     74859     74863     74864     74860     74859     74862
     74860     74859     74861     74861     74859     74862     74863     74859     74862
     74863     74859     74861     74863     74859     74860     74865     74869     74870
     74866     74865     74868     74866     74865     74867     74867     74865     74868
     74869     74865     74868     74869     74865     74867     74869     74865     74866
     74871     74875     74876     74872     74871     74874     74872     74871     74873
     74873     74871     74874     74875     74871     74874     74875     74871     74873
     74875     74871     74872     74877     74881     74882     74878     74877     74880
     74878     74877     74879     74879     74877     74880     74881     74877     74880
     74881     74877     74879     74881     74877     74878     74883     74887     74888
     74884     74883     74886     74884     74883     74885     74885     74883     74886
     74887     74883     74886     74887     74883     74885     74887     74883     74884
     74889     74893     74894     74890     74889     74892     74890     74889     74891
     74891     74889     74892     74893     74889     74892     74893     74889     74891
     74893     74889     74890     74895     74899     74900     74896     74895     74898
     74896     74895     74897     74897     74895     74898     74899     74895     74898
     74899     74895     74897     74899     74895     74896     74901     74905     74906
     74902     74901     74904     74902     74901     74903     74903     74901     74904
     74905     74901     74904     74905     74901     74903     74905     74901     74902
     74907     74911     74912     74908     74907     74910     74908     74907     74909
     74909     74907     74910     74911     74907     74910     74911     74907     74909
     74911     74907     74908     74913     74917     74918     74914     74913     74916
     74914     74913     74915     74915     74913     74916     74917     74913     74916
     74917     74913     74915     74917     74913     74914     74919     74923     74924
     74920     74919     74922     74920     74919     74921     74921     74919     74922
     74923     74919     74922     74923     74919     74921     74923     74919     74920
     74925     74929     74930     74926     74925     74928     74926     74925     74927
     74927     74925     74928     74929     74925     74928     74929     74925     74927
     74929     74925     74926     74931     74935     74936     74932     74931     74934
     74932     74931     74933     74933     74931     74934     74935     74931     74934
     74935     74931     74933     74935     74931     74932     74937     74941     74942
     74938     74937     74940     74938     74937     74939     74939     74937     74940
     74941     74937     74940     74941     74937     74939     74941     74937     74938
     74943     74947     74948     74944     74943     74946     74944     74943     74945
     74945     74943     74946     74947     74943     74946     74947     74943     74945
     74947     74943     74944     74949     74953     74954     74950     74949     74952
     74950     74949     74951     74951     74949     74952     74953     74949     74952
     74953     74949     74951     74953     74949     74950     74955     74959     74960
     74956     74955     74958     74956     74955     74957     74957     74955     74958
     74959     74955     74958     74959     74955     74957     74959     74955     74956
     74961     74965     74966     74962     74961     74964     74962     74961     74963
     74963     74961     74964     74965     74961     74964     74965     74961     74963
     74965     74961     74962     74967     74971     74972     74968     74967     74970
     74968     74967     74969     74969     74967     74970     74971     74967     74970
     74971     74967     74969     74971     74967     74968     74973     74977     74978
     74974     74973     74976     74974     74973     74975     74975     74973     74976
     74977     74973     74976     74977     74973     74975     74977     74973     74974
     74979     74983     74984     74980     74979     74982     74980     74979     74981
     74981     74979     74982     74983     74979     74982     74983     74979     74981
     74983     74979     74980     74985     74989     74990     74986     74985     74988
     74986     74985     74987     74987     74985     74988     74989     74985     74988
     74989     74985     74987     74989     74985     74986     74991     74995     74996
     74992     74991     74994     74992     74991     74993     74993     74991     74994
     74995     74991     74994     74995     74991     74993     74995     74991     74992
     74997     75001     75002     74998     74997     75000     74998     74997     74999
     74999     74997     75000     75001     74997     75000     75001     74997     74999
     75001     74997     74998     75003     75007     75008     75004     75003     75006
     75004     75003     75005     75005     75003     75006     75007     75003     75006
     75007     75003     75005     75007     75003     75004     75009     75013     75014
     75010     75009     75012     75010     75009     75011     75011     75009     75012
     75013     75009     75012     75013     75009     75011     75013     75009     75010
     75015     75019     75020     75016     75015     75018     75016     75015     75017
     75017     75015     75018     75019     75015     75018     75019     75015     75017
     75019     75015     75016     75021     75025     75026     75022     75021     75024
     75022     75021     75023     75023     75021     75024     75025     75021     75024
     75025     75021     75023     75025     75021     75022     75027     75031     75032
     75028     75027     75030     75028     75027     75029     75029     75027     75030
     75031     75027     75030     75031     75027     75029     75031     75027     75028
     75033     75037     75038     75034     75033     75036     75034     75033     75035
     75035     75033     75036     75037     75033     75036     75037     75033     75035
     75037     75033     75034     75039     75043     75044     75040     75039     75042
     75040     75039     75041     75041     75039     75042     75043     75039     75042
     75043     75039     75041     75043     75039     75040     75045     75049     75050
     75046     75045     75048     75046     75045     75047     75047     75045     75048
     75049     75045     75048     75049     75045     75047     75049     75045     75046
     75051     75055     75056     75052     75051     75054     75052     75051     75053
     75053     75051     75054     75055     75051     75054     75055     75051     75053
     75055     75051     75052     75057     75061     75062     75058     75057     75060
     75058     75057     75059     75059     75057     75060     75061     75057     75060
     75061     75057     75059     75061     75057     75058     75063     75067     75068
     75064     75063     75066     75064     75063     75065     75065     75063     75066
     75067     75063     75066     75067     75063     75065     75067     75063     75064
     75069     75073     75074     75070     75069     75072     75070     75069     75071
     75071     75069     75072     75073     75069     75072     75073     75069     75071
     75073     75069     75070     75075     75079     75080     75076     75075     75078
     75076     75075     75077     75077     75075     75078     75079     75075     75078
     75079     75075     75077     75079     75075     75076     75081     75085     75086
     75082     75081     75084     75082     75081     75083     75083     75081     75084
     75085     75081     75084     75085     75081     75083     75085     75081     75082
     75087     75091     75092     75088     75087     75090     75088     75087     75089
     75089     75087     75090     75091     75087     75090     75091     75087     75089
     75091     75087     75088     75093     75097     75098     75094     75093     75096
     75094     75093     75095     75095     75093     75096     75097     75093     75096
     75097     75093     75095     75097     75093     75094     75099     75103     75104
     75100     75099     75102     75100     75099     75101     75101     75099     75102
     75103     75099     75102     75103     75099     75101     75103     75099     75100
     75105     75109     75110     75106     75105     75108     75106     75105     75107
     75107     75105     75108     75109     75105     75108     75109     75105     75107
     75109     75105     75106     75111     75115     75116     75112     75111     75114
     75112     75111     75113     75113     75111     75114     75115     75111     75114
     75115     75111     75113     75115     75111     75112     75117     75121     75122
     75118     75117     75120     75118     75117     75119     75119     75117     75120
     75121     75117     75120     75121     75117     75119     75121     75117     75118
     75123     75127     75128     75124     75123     75126     75124     75123     75125
     75125     75123     75126     75127     75123     75126     75127     75123     75125
     75127     75123     75124     75129     75133     75134     75130     75129     75132
     75130     75129     75131     75131     75129     75132     75133     75129     75132
     75133     75129     75131     75133     75129     75130     75135     75139     75140
     75136     75135     75138     75136     75135     75137     75137     75135     75138
     75139     75135     75138     75139     75135     75137     75139     75135     75136
     75141     75145     75146     75142     75141     75144     75142     75141     75143
     75143     75141     75144     75145     75141     75144     75145     75141     75143
     75145     75141     75142     75147     75151     75152     75148     75147     75150
     75148     75147     75149     75149     75147     75150     75151     75147     75150
     75151     75147     75149     75151     75147     75148     75153     75157     75158
     75154     75153     75156     75154     75153     75155     75155     75153     75156
     75157     75153     75156     75157     75153     75155     75157     75153     75154
     75159     75163     75164     75160     75159     75162     75160     75159     75161
     75161     75159     75162     75163     75159     75162     75163     75159     75161
     75163     75159     75160     75165     75169     75170     75166     75165     75168
     75166     75165     75167     75167     75165     75168     75169     75165     75168
     75169     75165     75167     75169     75165     75166     75171     75175     75176
     75172     75171     75174     75172     75171     75173     75173     75171     75174
     75175     75171     75174     75175     75171     75173     75175     75171     75172
     75177     75181     75182     75178     75177     75180     75178     75177     75179
     75179     75177     75180     75181     75177     75180     75181     75177     75179
     75181     75177     75178     75183     75187     75188     75184     75183     75186
     75184     75183     75185     75185     75183     75186     75187     75183     75186
     75187     75183     75185     75187     75183     75184     75189     75193     75194
     75190     75189     75192     75190     75189     75191     75191     75189     75192
     75193     75189     75192     75193     75189     75191     75193     75189     75190
     75195     75199     75200     75196     75195     75198     75196     75195     75197
     75197     75195     75198     75199     75195     75198     75199     75195     75197
     75199     75195     75196     75201     75205     75206     75202     75201     75204
     75202     75201     75203     75203     75201     75204     75205     75201     75204
     75205     75201     75203     75205     75201     75202     75207     75211     75212
     75208     75207     75210     75208     75207     75209     75209     75207     75210
     75211     75207     75210     75211     75207     75209     75211     75207     75208
     75213     75217     75218     75214     75213     75216     75214     75213     75215
     75215     75213     75216     75217     75213     75216     75217     75213     75215
     75217     75213     75214     75219     75223     75224     75220     75219     75222
     75220     75219     75221     75221     75219     75222     75223     75219     75222
     75223     75219     75221     75223     75219     75220     75225     75229     75230
     75226     75225     75228     75226     75225     75227     75227     75225     75228
     75229     75225     75228     75229     75225     75227     75229     75225     75226
     75231     75235     75236     75232     75231     75234     75232     75231     75233
     75233     75231     75234     75235     75231     75234     75235     75231     75233
     75235     75231     75232     75237     75241     75242     75238     75237     75240
     75238     75237     75239     75239     75237     75240     75241     75237     75240
     75241     75237     75239     75241     75237     75238     75243     75247     75248
     75244     75243     75246     75244     75243     75245     75245     75243     75246
     75247     75243     75246     75247     75243     75245     75247     75243     75244
     75249     75253     75254     75250     75249     75252     75250     75249     75251
     75251     75249     75252     75253     75249     75252     75253     75249     75251
     75253     75249     75250     75255     75259     75260     75256     75255     75258
     75256     75255     75257     75257     75255     75258     75259     75255     75258
     75259     75255     75257     75259     75255     75256     75261     75265     75266
     75262     75261     75264     75262     75261     75263     75263     75261     75264
     75265     75261     75264     75265     75261     75263     75265     75261     75262
     75267     75271     75272     75268     75267     75270     75268     75267     75269
     75269     75267     75270     75271     75267     75270     75271     75267     75269
     75271     75267     75268     75273     75277     75278     75274     75273     75276
     75274     75273     75275     75275     75273     75276     75277     75273     75276
     75277     75273     75275     75277     75273     75274     75279     75283     75284
     75280     75279     75282     75280     75279     75281     75281     75279     75282
     75283     75279     75282     75283     75279     75281     75283     75279     75280
     75285     75289     75290     75286     75285     75288     75286     75285     75287
     75287     75285     75288     75289     75285     75288     75289     75285     75287
     75289     75285     75286     75291     75295     75296     75292     75291     75294
     75292     75291     75293     75293     75291     75294     75295     75291     75294
     75295     75291     75293     75295     75291     75292     75297     75301     75302
     75298     75297     75300     75298     75297     75299     75299     75297     75300
     75301     75297     75300     75301     75297     75299     75301     75297     75298
     75303     75307     75308     75304     75303     75306     75304     75303     75305
     75305     75303     75306     75307     75303     75306     75307     75303     75305
     75307     75303     75304     75309     75313     75314     75310     75309     75312
     75310     75309     75311     75311     75309     75312     75313     75309     75312
     75313     75309     75311     75313     75309     75310     75315     75319     75320
     75316     75315     75318     75316     75315     75317     75317     75315     75318
     75319     75315     75318     75319     75315     75317     75319     75315     75316
     75321     75325     75326     75322     75321     75324     75322     75321     75323
     75323     75321     75324     75325     75321     75324     75325     75321     75323
     75325     75321     75322     75327     75331     75332     75328     75327     75330
     75328     75327     75329     75329     75327     75330     75331     75327     75330
     75331     75327     75329     75331     75327     75328     75333     75337     75338
     75334     75333     75336     75334     75333     75335     75335     75333     75336
     75337     75333     75336     75337     75333     75335     75337     75333     75334
     75339     75343     75344     75340     75339     75342     75340     75339     75341
     75341     75339     75342     75343     75339     75342     75343     75339     75341
     75343     75339     75340     75345     75349     75350     75346     75345     75348
     75346     75345     75347     75347     75345     75348     75349     75345     75348
     75349     75345     75347     75349     75345     75346     75351     75355     75356
     75352     75351     75354     75352     75351     75353     75353     75351     75354
     75355     75351     75354     75355     75351     75353     75355     75351     75352
     75357     75361     75362     75358     75357     75360     75358     75357     75359
     75359     75357     75360     75361     75357     75360     75361     75357     75359
     75361     75357     75358     75363     75367     75368     75364     75363     75366
     75364     75363     75365     75365     75363     75366     75367     75363     75366
     75367     75363     75365     75367     75363     75364     75369     75373     75374
     75370     75369     75372     75370     75369     75371     75371     75369     75372
     75373     75369     75372     75373     75369     75371     75373     75369     75370
     75375     75379     75380     75376     75375     75378     75376     75375     75377
     75377     75375     75378     75379     75375     75378     75379     75375     75377
     75379     75375     75376     75381     75385     75386     75382     75381     75384
     75382     75381     75383     75383     75381     75384     75385     75381     75384
     75385     75381     75383     75385     75381     75382     75387     75391     75392
     75388     75387     75390     75388     75387     75389     75389     75387     75390
     75391     75387     75390     75391     75387     75389     75391     75387     75388
     75393     75397     75398     75394     75393     75396     75394     75393     75395
     75395     75393     75396     75397     75393     75396     75397     75393     75395
     75397     75393     75394     75399     75403     75404     75400     75399     75402
     75400     75399     75401     75401     75399     75402     75403     75399     75402
     75403     75399     75401     75403     75399     75400     75405     75409     75410
     75406     75405     75408     75406     75405     75407     75407     75405     75408
     75409     75405     75408     75409     75405     75407     75409     75405     75406
     75411     75415     75416     75412     75411     75414     75412     75411     75413
     75413     75411     75414     75415     75411     75414     75415     75411     75413
     75415     75411     75412     75417     75421     75422     75418     75417     75420
     75418     75417     75419     75419     75417     75420     75421     75417     75420
     75421     75417     75419     75421     75417     75418     75423     75427     75428
     75424     75423     75426     75424     75423     75425     75425     75423     75426
     75427     75423     75426     75427     75423     75425     75427     75423     75424
     75429     75433     75434     75430     75429     75432     75430     75429     75431
     75431     75429     75432     75433     75429     75432     75433     75429     75431
     75433     75429     75430     75435     75439     75440     75436     75435     75438
     75436     75435     75437     75437     75435     75438     75439     75435     75438
     75439     75435     75437     75439     75435     75436     75441     75445     75446
     75442     75441     75444     75442     75441     75443     75443     75441     75444
     75445     75441     75444     75445     75441     75443     75445     75441     75442
     75447     75451     75452     75448     75447     75450     75448     75447     75449
     75449     75447     75450     75451     75447     75450     75451     75447     75449
     75451     75447     75448     75453     75457     75458     75454     75453     75456
     75454     75453     75455     75455     75453     75456     75457     75453     75456
     75457     75453     75455     75457     75453     75454     75459     75463     75464
     75460     75459     75462     75460     75459     75461     75461     75459     75462
     75463     75459     75462     75463     75459     75461     75463     75459     75460
     75465     75469     75470     75466     75465     75468     75466     75465     75467
     75467     75465     75468     75469     75465     75468     75469     75465     75467
     75469     75465     75466     75471     75475     75476     75472     75471     75474
     75472     75471     75473     75473     75471     75474     75475     75471     75474
     75475     75471     75473     75475     75471     75472     75477     75481     75482
     75478     75477     75480     75478     75477     75479     75479     75477     75480
     75481     75477     75480     75481     75477     75479     75481     75477     75478
     75483     75487     75488     75484     75483     75486     75484     75483     75485
     75485     75483     75486     75487     75483     75486     75487     75483     75485
     75487     75483     75484     75489     75493     75494     75490     75489     75492
     75490     75489     75491     75491     75489     75492     75493     75489     75492
     75493     75489     75491     75493     75489     75490     75495     75499     75500
     75496     75495     75498     75496     75495     75497     75497     75495     75498
     75499     75495     75498     75499     75495     75497     75499     75495     75496
     75501     75505     75506     75502     75501     75504     75502     75501     75503
     75503     75501     75504     75505     75501     75504     75505     75501     75503
     75505     75501     75502     75507     75511     75512     75508     75507     75510
     75508     75507     75509     75509     75507     75510     75511     75507     75510
     75511     75507     75509     75511     75507     75508     75513     75517     75518
     75514     75513     75516     75514     75513     75515     75515     75513     75516
     75517     75513     75516     75517     75513     75515     75517     75513     75514
     75519     75523     75524     75520     75519     75522     75520     75519     75521
     75521     75519     75522     75523     75519     75522     75523     75519     75521
     75523     75519     75520     75525     75529     75530     75526     75525     75528
     75526     75525     75527     75527     75525     75528     75529     75525     75528
     75529     75525     75527     75529     75525     75526     75531     75535     75536
     75532     75531     75534     75532     75531     75533     75533     75531     75534
     75535     75531     75534     75535     75531     75533     75535     75531     75532
     75537     75541     75542     75538     75537     75540     75538     75537     75539
     75539     75537     75540     75541     75537     75540     75541     75537     75539
     75541     75537     75538     75543     75547     75548     75544     75543     75546
     75544     75543     75545     75545     75543     75546     75547     75543     75546
     75547     75543     75545     75547     75543     75544     75549     75553     75554
     75550     75549     75552     75550     75549     75551     75551     75549     75552
     75553     75549     75552     75553     75549     75551     75553     75549     75550
     75555     75559     75560     75556     75555     75558     75556     75555     75557
     75557     75555     75558     75559     75555     75558     75559     75555     75557
     75559     75555     75556     75561     75565     75566     75562     75561     75564
     75562     75561     75563     75563     75561     75564     75565     75561     75564
     75565     75561     75563     75565     75561     75562     75567     75571     75572
     75568     75567     75570     75568     75567     75569     75569     75567     75570
     75571     75567     75570     75571     75567     75569     75571     75567     75568
     75573     75577     75578     75574     75573     75576     75574     75573     75575
     75575     75573     75576     75577     75573     75576     75577     75573     75575
     75577     75573     75574     75579     75583     75584     75580     75579     75582
     75580     75579     75581     75581     75579     75582     75583     75579     75582
     75583     75579     75581     75583     75579     75580     75585     75589     75590
     75586     75585     75588     75586     75585     75587     75587     75585     75588
     75589     75585     75588     75589     75585     75587     75589     75585     75586
     75591     75595     75596     75592     75591     75594     75592     75591     75593
     75593     75591     75594     75595     75591     75594     75595     75591     75593
     75595     75591     75592     75597     75601     75602     75598     75597     75600
     75598     75597     75599     75599     75597     75600     75601     75597     75600
     75601     75597     75599     75601     75597     75598     75603     75607     75608
     75604     75603     75606     75604     75603     75605     75605     75603     75606
     75607     75603     75606     75607     75603     75605     75607     75603     75604
     75609     75613     75614     75610     75609     75612     75610     75609     75611
     75611     75609     75612     75613     75609     75612     75613     75609     75611
     75613     75609     75610     75615     75619     75620     75616     75615     75618
     75616     75615     75617     75617     75615     75618     75619     75615     75618
     75619     75615     75617     75619     75615     75616     75621     75625     75626
     75622     75621     75624     75622     75621     75623     75623     75621     75624
     75625     75621     75624     75625     75621     75623     75625     75621     75622
     75627     75631     75632     75628     75627     75630     75628     75627     75629
     75629     75627     75630     75631     75627     75630     75631     75627     75629
     75631     75627     75628     75633     75637     75638     75634     75633     75636
     75634     75633     75635     75635     75633     75636     75637     75633     75636
     75637     75633     75635     75637     75633     75634     75639     75643     75644
     75640     75639     75642     75640     75639     75641     75641     75639     75642
     75643     75639     75642     75643     75639     75641     75643     75639     75640
     75645     75649     75650     75646     75645     75648     75646     75645     75647
     75647     75645     75648     75649     75645     75648     75649     75645     75647
     75649     75645     75646     75651     75655     75656     75652     75651     75654
     75652     75651     75653     75653     75651     75654     75655     75651     75654
     75655     75651     75653     75655     75651     75652     75657     75661     75662
     75658     75657     75660     75658     75657     75659     75659     75657     75660
     75661     75657     75660     75661     75657     75659     75661     75657     75658
     75663     75667     75668     75664     75663     75666     75664     75663     75665
     75665     75663     75666     75667     75663     75666     75667     75663     75665
     75667     75663     75664     75669     75673     75674     75670     75669     75672
     75670     75669     75671     75671     75669     75672     75673     75669     75672
     75673     75669     75671     75673     75669     75670     75675     75679     75680
     75676     75675     75678     75676     75675     75677     75677     75675     75678
     75679     75675     75678     75679     75675     75677     75679     75675     75676
     75681     75685     75686     75682     75681     75684     75682     75681     75683
     75683     75681     75684     75685     75681     75684     75685     75681     75683
     75685     75681     75682     75687     75691     75692     75688     75687     75690
     75688     75687     75689     75689     75687     75690     75691     75687     75690
     75691     75687     75689     75691     75687     75688     75693     75697     75698
     75694     75693     75696     75694     75693     75695     75695     75693     75696
     75697     75693     75696     75697     75693     75695     75697     75693     75694
     75699     75703     75704     75700     75699     75702     75700     75699     75701
     75701     75699     75702     75703     75699     75702     75703     75699     75701
     75703     75699     75700     75705     75709     75710     75706     75705     75708
     75706     75705     75707     75707     75705     75708     75709     75705     75708
     75709     75705     75707     75709     75705     75706     75711     75715     75716
     75712     75711     75714     75712     75711     75713     75713     75711     75714
     75715     75711     75714     75715     75711     75713     75715     75711     75712
     75717     75721     75722     75718     75717     75720     75718     75717     75719
     75719     75717     75720     75721     75717     75720     75721     75717     75719
     75721     75717     75718     75723     75727     75728     75724     75723     75726
     75724     75723     75725     75725     75723     75726     75727     75723     75726
     75727     75723     75725     75727     75723     75724     75729     75733     75734
     75730     75729     75732     75730     75729     75731     75731     75729     75732
     75733     75729     75732     75733     75729     75731     75733     75729     75730
     75735     75739     75740     75736     75735     75738     75736     75735     75737
     75737     75735     75738     75739     75735     75738     75739     75735     75737
     75739     75735     75736     75741     75745     75746     75742     75741     75744
     75742     75741     75743     75743     75741     75744     75745     75741     75744
     75745     75741     75743     75745     75741     75742     75747     75751     75752
     75748     75747     75750     75748     75747     75749     75749     75747     75750
     75751     75747     75750     75751     75747     75749     75751     75747     75748
     75753     75757     75758     75754     75753     75756     75754     75753     75755
     75755     75753     75756     75757     75753     75756     75757     75753     75755
     75757     75753     75754     75759     75763     75764     75760     75759     75762
     75760     75759     75761     75761     75759     75762     75763     75759     75762
     75763     75759     75761     75763     75759     75760     75765     75769     75770
     75766     75765     75768     75766     75765     75767     75767     75765     75768
     75769     75765     75768     75769     75765     75767     75769     75765     75766
     75771     75775     75776     75772     75771     75774     75772     75771     75773
     75773     75771     75774     75775     75771     75774     75775     75771     75773
     75775     75771     75772     75777     75781     75782     75778     75777     75780
     75778     75777     75779     75779     75777     75780     75781     75777     75780
     75781     75777     75779     75781     75777     75778     75783     75787     75788
     75784     75783     75786     75784     75783     75785     75785     75783     75786
     75787     75783     75786     75787     75783     75785     75787     75783     75784
     75789     75793     75794     75790     75789     75792     75790     75789     75791
     75791     75789     75792     75793     75789     75792     75793     75789     75791
     75793     75789     75790     75795     75799     75800     75796     75795     75798
     75796     75795     75797     75797     75795     75798     75799     75795     75798
     75799     75795     75797     75799     75795     75796     75801     75805     75806
     75802     75801     75804     75802     75801     75803     75803     75801     75804
     75805     75801     75804     75805     75801     75803     75805     75801     75802
     75807     75811     75812     75808     75807     75810     75808     75807     75809
     75809     75807     75810     75811     75807     75810     75811     75807     75809
     75811     75807     75808     75813     75817     75818     75814     75813     75816
     75814     75813     75815     75815     75813     75816     75817     75813     75816
     75817     75813     75815     75817     75813     75814     75819     75823     75824
     75820     75819     75822     75820     75819     75821     75821     75819     75822
     75823     75819     75822     75823     75819     75821     75823     75819     75820
     75825     75829     75830     75826     75825     75828     75826     75825     75827
     75827     75825     75828     75829     75825     75828     75829     75825     75827
     75829     75825     75826     75831     75835     75836     75832     75831     75834
     75832     75831     75833     75833     75831     75834     75835     75831     75834
     75835     75831     75833     75835     75831     75832     75837     75841     75842
     75838     75837     75840     75838     75837     75839     75839     75837     75840
     75841     75837     75840     75841     75837     75839     75841     75837     75838
     75843     75847     75848     75844     75843     75846     75844     75843     75845
     75845     75843     75846     75847     75843     75846     75847     75843     75845
     75847     75843     75844     75849     75853     75854     75850     75849     75852
     75850     75849     75851     75851     75849     75852     75853     75849     75852
     75853     75849     75851     75853     75849     75850     75855     75859     75860
     75856     75855     75858     75856     75855     75857     75857     75855     75858
     75859     75855     75858     75859     75855     75857     75859     75855     75856
     75861     75865     75866     75862     75861     75864     75862     75861     75863
     75863     75861     75864     75865     75861     75864     75865     75861     75863
     75865     75861     75862     75867     75871     75872     75868     75867     75870
     75868     75867     75869     75869     75867     75870     75871     75867     75870
     75871     75867     75869     75871     75867     75868     75873     75877     75878
     75874     75873     75876     75874     75873     75875     75875     75873     75876
     75877     75873     75876     75877     75873     75875     75877     75873     75874
     75879     75883     75884     75880     75879     75882     75880     75879     75881
     75881     75879     75882     75883     75879     75882     75883     75879     75881
     75883     75879     75880     75885     75889     75890     75886     75885     75888
     75886     75885     75887     75887     75885     75888     75889     75885     75888
     75889     75885     75887     75889     75885     75886     75891     75895     75896
     75892     75891     75894     75892     75891     75893     75893     75891     75894
     75895     75891     75894     75895     75891     75893     75895     75891     75892
     75897     75901     75902     75898     75897     75900     75898     75897     75899
     75899     75897     75900     75901     75897     75900     75901     75897     75899
     75901     75897     75898     75903     75907     75908     75904     75903     75906
     75904     75903     75905     75905     75903     75906     75907     75903     75906
     75907     75903     75905     75907     75903     75904     75909     75913     75914
     75910     75909     75912     75910     75909     75911     75911     75909     75912
     75913     75909     75912     75913     75909     75911     75913     75909     75910
     75915     75919     75920     75916     75915     75918     75916     75915     75917
     75917     75915     75918     75919     75915     75918     75919     75915     75917
     75919     75915     75916     75921     75925     75926     75922     75921     75924
     75922     75921     75923     75923     75921     75924     75925     75921     75924
     75925     75921     75923     75925     75921     75922     75927     75931     75932
     75928     75927     75930     75928     75927     75929     75929     75927     75930
     75931     75927     75930     75931     75927     75929     75931     75927     75928
     75933     75937     75938     75934     75933     75936     75934     75933     75935
     75935     75933     75936     75937     75933     75936     75937     75933     75935
     75937     75933     75934     75939     75943     75944     75940     75939     75942
     75940     75939     75941     75941     75939     75942     75943     75939     75942
     75943     75939     75941     75943     75939     75940     75945     75949     75950
     75946     75945     75948     75946     75945     75947     75947     75945     75948
     75949     75945     75948     75949     75945     75947     75949     75945     75946
     75951     75955     75956     75952     75951     75954     75952     75951     75953
     75953     75951     75954     75955     75951     75954     75955     75951     75953
     75955     75951     75952     75957     75961     75962     75958     75957     75960
     75958     75957     75959     75959     75957     75960     75961     75957     75960
     75961     75957     75959     75961     75957     75958     75963     75967     75968
     75964     75963     75966     75964     75963     75965     75965     75963     75966
     75967     75963     75966     75967     75963     75965     75967     75963     75964
     75969     75973     75974     75970     75969     75972     75970     75969     75971
     75971     75969     75972     75973     75969     75972     75973     75969     75971
     75973     75969     75970     75975     75979     75980     75976     75975     75978
     75976     75975     75977     75977     75975     75978     75979     75975     75978
     75979     75975     75977     75979     75975     75976     75981     75985     75986
     75982     75981     75984     75982     75981     75983     75983     75981     75984
     75985     75981     75984     75985     75981     75983     75985     75981     75982
     75987     75991     75992     75988     75987     75990     75988     75987     75989
     75989     75987     75990     75991     75987     75990     75991     75987     75989
     75991     75987     75988     75993     75997     75998     75994     75993     75996
     75994     75993     75995     75995     75993     75996     75997     75993     75996
     75997     75993     75995     75997     75993     75994     75999     76003     76004
     76000     75999     76002     76000     75999     76001     76001     75999     76002
     76003     75999     76002     76003     75999     76001     76003     75999     76000
     76005     76009     76010     76006     76005     76008     76006     76005     76007
     76007     76005     76008     76009     76005     76008     76009     76005     76007
     76009     76005     76006     76011     76015     76016     76012     76011     76014
     76012     76011     76013     76013     76011     76014     76015     76011     76014
     76015     76011     76013     76015     76011     76012     76017     76021     76022
     76018     76017     76020     76018     76017     76019     76019     76017     76020
     76021     76017     76020     76021     76017     76019     76021     76017     76018
     76023     76027     76028     76024     76023     76026     76024     76023     76025
     76025     76023     76026     76027     76023     76026     76027     76023     76025
     76027     76023     76024     76029     76033     76034     76030     76029     76032
     76030     76029     76031     76031     76029     76032     76033     76029     76032
     76033     76029     76031     76033     76029     76030     76035     76039     76040
     76036     76035     76038     76036     76035     76037     76037     76035     76038
     76039     76035     76038     76039     76035     76037     76039     76035     76036
     76041     76045     76046     76042     76041     76044     76042     76041     76043
     76043     76041     76044     76045     76041     76044     76045     76041     76043
     76045     76041     76042     76047     76051     76052     76048     76047     76050
     76048     76047     76049     76049     76047     76050     76051     76047     76050
     76051     76047     76049     76051     76047     76048     76053     76057     76058
     76054     76053     76056     76054     76053     76055     76055     76053     76056
     76057     76053     76056     76057     76053     76055     76057     76053     76054
     76059     76063     76064     76060     76059     76062     76060     76059     76061
     76061     76059     76062     76063     76059     76062     76063     76059     76061
     76063     76059     76060     76065     76069     76070     76066     76065     76068
     76066     76065     76067     76067     76065     76068     76069     76065     76068
     76069     76065     76067     76069     76065     76066     76071     76075     76076
     76072     76071     76074     76072     76071     76073     76073     76071     76074
     76075     76071     76074     76075     76071     76073     76075     76071     76072
     76077     76081     76082     76078     76077     76080     76078     76077     76079
     76079     76077     76080     76081     76077     76080     76081     76077     76079
     76081     76077     76078     76083     76087     76088     76084     76083     76086
     76084     76083     76085     76085     76083     76086     76087     76083     76086
     76087     76083     76085     76087     76083     76084     76089     76093     76094
     76090     76089     76092     76090     76089     76091     76091     76089     76092
     76093     76089     76092     76093     76089     76091     76093     76089     76090
     76095     76099     76100     76096     76095     76098     76096     76095     76097
     76097     76095     76098     76099     76095     76098     76099     76095     76097
     76099     76095     76096     76101     76105     76106     76102     76101     76104
     76102     76101     76103     76103     76101     76104     76105     76101     76104
     76105     76101     76103     76105     76101     76102     76107     76111     76112
     76108     76107     76110     76108     76107     76109     76109     76107     76110
     76111     76107     76110     76111     76107     76109     76111     76107     76108
     76113     76117     76118     76114     76113     76116     76114     76113     76115
     76115     76113     76116     76117     76113     76116     76117     76113     76115
     76117     76113     76114     76119     76123     76124     76120     76119     76122
     76120     76119     76121     76121     76119     76122     76123     76119     76122
     76123     76119     76121     76123     76119     76120     76125     76129     76130
     76126     76125     76128     76126     76125     76127     76127     76125     76128
     76129     76125     76128     76129     76125     76127     76129     76125     76126
     76131     76135     76136     76132     76131     76134     76132     76131     76133
     76133     76131     76134     76135     76131     76134     76135     76131     76133
     76135     76131     76132     76137     76141     76142     76138     76137     76140
     76138     76137     76139     76139     76137     76140     76141     76137     76140
     76141     76137     76139     76141     76137     76138     76143     76147     76148
     76144     76143     76146     76144     76143     76145     76145     76143     76146
     76147     76143     76146     76147     76143     76145     76147     76143     76144
     76149     76153     76154     76150     76149     76152     76150     76149     76151
     76151     76149     76152     76153     76149     76152     76153     76149     76151
     76153     76149     76150     76155     76159     76160     76156     76155     76158
     76156     76155     76157     76157     76155     76158     76159     76155     76158
     76159     76155     76157     76159     76155     76156     76161     76165     76166
     76162     76161     76164     76162     76161     76163     76163     76161     76164
     76165     76161     76164     76165     76161     76163     76165     76161     76162
     76167     76171     76172     76168     76167     76170     76168     76167     76169
     76169     76167     76170     76171     76167     76170     76171     76167     76169
     76171     76167     76168     76173     76177     76178     76174     76173     76176
     76174     76173     76175     76175     76173     76176     76177     76173     76176
     76177     76173     76175     76177     76173     76174     76179     76183     76184
     76180     76179     76182     76180     76179     76181     76181     76179     76182
     76183     76179     76182     76183     76179     76181     76183     76179     76180
     76185     76189     76190     76186     76185     76188     76186     76185     76187
     76187     76185     76188     76189     76185     76188     76189     76185     76187
     76189     76185     76186     76191     76195     76196     76192     76191     76194
     76192     76191     76193     76193     76191     76194     76195     76191     76194
     76195     76191     76193     76195     76191     76192     76197     76201     76202
     76198     76197     76200     76198     76197     76199     76199     76197     76200
     76201     76197     76200     76201     76197     76199     76201     76197     76198
     76203     76207     76208     76204     76203     76206     76204     76203     76205
     76205     76203     76206     76207     76203     76206     76207     76203     76205
     76207     76203     76204     76209     76213     76214     76210     76209     76212
     76210     76209     76211     76211     76209     76212     76213     76209     76212
     76213     76209     76211     76213     76209     76210     76215     76219     76220
     76216     76215     76218     76216     76215     76217     76217     76215     76218
     76219     76215     76218     76219     76215     76217     76219     76215     76216
     76221     76225     76226     76222     76221     76224     76222     76221     76223
     76223     76221     76224     76225     76221     76224     76225     76221     76223
     76225     76221     76222     76227     76231     76232     76228     76227     76230
     76228     76227     76229     76229     76227     76230     76231     76227     76230
     76231     76227     76229     76231     76227     76228     76233     76237     76238
     76234     76233     76236     76234     76233     76235     76235     76233     76236
     76237     76233     76236     76237     76233     76235     76237     76233     76234
     76239     76243     76244     76240     76239     76242     76240     76239     76241
     76241     76239     76242     76243     76239     76242     76243     76239     76241
     76243     76239     76240     76245     76249     76250     76246     76245     76248
     76246     76245     76247     76247     76245     76248     76249     76245     76248
     76249     76245     76247     76249     76245     76246     76251     76255     76256
     76252     76251     76254     76252     76251     76253     76253     76251     76254
     76255     76251     76254     76255     76251     76253     76255     76251     76252
     76257     76261     76262     76258     76257     76260     76258     76257     76259
     76259     76257     76260     76261     76257     76260     76261     76257     76259
     76261     76257     76258     76263     76267     76268     76264     76263     76266
     76264     76263     76265     76265     76263     76266     76267     76263     76266
     76267     76263     76265     76267     76263     76264     76269     76273     76274
     76270     76269     76272     76270     76269     76271     76271     76269     76272
     76273     76269     76272     76273     76269     76271     76273     76269     76270
     76275     76279     76280     76276     76275     76278     76276     76275     76277
     76277     76275     76278     76279     76275     76278     76279     76275     76277
     76279     76275     76276     76281     76285     76286     76282     76281     76284
     76282     76281     76283     76283     76281     76284     76285     76281     76284
     76285     76281     76283     76285     76281     76282     76287     76291     76292
     76288     76287     76290     76288     76287     76289     76289     76287     76290
     76291     76287     76290     76291     76287     76289     76291     76287     76288
     76293     76297     76298     76294     76293     76296     76294     76293     76295
     76295     76293     76296     76297     76293     76296     76297     76293     76295
     76297     76293     76294     76299     76303     76304     76300     76299     76302
     76300     76299     76301     76301     76299     76302     76303     76299     76302
     76303     76299     76301     76303     76299     76300     76305     76309     76310
     76306     76305     76308     76306     76305     76307     76307     76305     76308
     76309     76305     76308     76309     76305     76307     76309     76305     76306
     76311     76315     76316     76312     76311     76314     76312     76311     76313
     76313     76311     76314     76315     76311     76314     76315     76311     76313
     76315     76311     76312     76317     76321     76322     76318     76317     76320
     76318     76317     76319     76319     76317     76320     76321     76317     76320
     76321     76317     76319     76321     76317     76318     76323     76327     76328
     76324     76323     76326     76324     76323     76325     76325     76323     76326
     76327     76323     76326     76327     76323     76325     76327     76323     76324
     76329     76333     76334     76330     76329     76332     76330     76329     76331
     76331     76329     76332     76333     76329     76332     76333     76329     76331
     76333     76329     76330     76335     76339     76340     76336     76335     76338
     76336     76335     76337     76337     76335     76338     76339     76335     76338
     76339     76335     76337     76339     76335     76336     76341     76345     76346
     76342     76341     76344     76342     76341     76343     76343     76341     76344
     76345     76341     76344     76345     76341     76343     76345     76341     76342
     76347     76351     76352     76348     76347     76350     76348     76347     76349
     76349     76347     76350     76351     76347     76350     76351     76347     76349
     76351     76347     76348     76353     76357     76358     76354     76353     76356
     76354     76353     76355     76355     76353     76356     76357     76353     76356
     76357     76353     76355     76357     76353     76354     76359     76363     76364
     76360     76359     76362     76360     76359     76361     76361     76359     76362
     76363     76359     76362     76363     76359     76361     76363     76359     76360
     76365     76369     76370     76366     76365     76368     76366     76365     76367
     76367     76365     76368     76369     76365     76368     76369     76365     76367
     76369     76365     76366     76371     76375     76376     76372     76371     76374
     76372     76371     76373     76373     76371     76374     76375     76371     76374
     76375     76371     76373     76375     76371     76372     76377     76381     76382
     76378     76377     76380     76378     76377     76379     76379     76377     76380
     76381     76377     76380     76381     76377     76379     76381     76377     76378
     76383     76387     76388     76384     76383     76386     76384     76383     76385
     76385     76383     76386     76387     76383     76386     76387     76383     76385
     76387     76383     76384     76389     76393     76394     76390     76389     76392
     76390     76389     76391     76391     76389     76392     76393     76389     76392
     76393     76389     76391     76393     76389     76390     76395     76399     76400
     76396     76395     76398     76396     76395     76397     76397     76395     76398
     76399     76395     76398     76399     76395     76397     76399     76395     76396
     76401     76405     76406     76402     76401     76404     76402     76401     76403
     76403     76401     76404     76405     76401     76404     76405     76401     76403
     76405     76401     76402     76407     76411     76412     76408     76407     76410
     76408     76407     76409     76409     76407     76410     76411     76407     76410
     76411     76407     76409     76411     76407     76408     76413     76417     76418
     76414     76413     76416     76414     76413     76415     76415     76413     76416
     76417     76413     76416     76417     76413     76415     76417     76413     76414
     76419     76423     76424     76420     76419     76422     76420     76419     76421
     76421     76419     76422     76423     76419     76422     76423     76419     76421
     76423     76419     76420     76425     76429     76430     76426     76425     76428
     76426     76425     76427     76427     76425     76428     76429     76425     76428
     76429     76425     76427     76429     76425     76426     76431     76435     76436
     76432     76431     76434     76432     76431     76433     76433     76431     76434
     76435     76431     76434     76435     76431     76433     76435     76431     76432
     76437     76441     76442     76438     76437     76440     76438     76437     76439
     76439     76437     76440     76441     76437     76440     76441     76437     76439
     76441     76437     76438     76443     76447     76448     76444     76443     76446
     76444     76443     76445     76445     76443     76446     76447     76443     76446
     76447     76443     76445     76447     76443     76444     76449     76453     76454
     76450     76449     76452     76450     76449     76451     76451     76449     76452
     76453     76449     76452     76453     76449     76451     76453     76449     76450
     76455     76459     76460     76456     76455     76458     76456     76455     76457
     76457     76455     76458     76459     76455     76458     76459     76455     76457
     76459     76455     76456     76461     76465     76466     76462     76461     76464
     76462     76461     76463     76463     76461     76464     76465     76461     76464
     76465     76461     76463     76465     76461     76462     76467     76471     76472
     76468     76467     76470     76468     76467     76469     76469     76467     76470
     76471     76467     76470     76471     76467     76469     76471     76467     76468
     76473     76477     76478     76474     76473     76476     76474     76473     76475
     76475     76473     76476     76477     76473     76476     76477     76473     76475
     76477     76473     76474     76479     76483     76484     76480     76479     76482
     76480     76479     76481     76481     76479     76482     76483     76479     76482
     76483     76479     76481     76483     76479     76480     76485     76489     76490
     76486     76485     76488     76486     76485     76487     76487     76485     76488
     76489     76485     76488     76489     76485     76487     76489     76485     76486
     76491     76495     76496     76492     76491     76494     76492     76491     76493
     76493     76491     76494     76495     76491     76494     76495     76491     76493
     76495     76491     76492     76497     76501     76502     76498     76497     76500
     76498     76497     76499     76499     76497     76500     76501     76497     76500
     76501     76497     76499     76501     76497     76498     76503     76507     76508
     76504     76503     76506     76504     76503     76505     76505     76503     76506
     76507     76503     76506     76507     76503     76505     76507     76503     76504
     76509     76513     76514     76510     76509     76512     76510     76509     76511
     76511     76509     76512     76513     76509     76512     76513     76509     76511
     76513     76509     76510     76515     76519     76520     76516     76515     76518
     76516     76515     76517     76517     76515     76518     76519     76515     76518
     76519     76515     76517     76519     76515     76516     76521     76525     76526
     76522     76521     76524     76522     76521     76523     76523     76521     76524
     76525     76521     76524     76525     76521     76523     76525     76521     76522
     76527     76531     76532     76528     76527     76530     76528     76527     76529
     76529     76527     76530     76531     76527     76530     76531     76527     76529
     76531     76527     76528     76533     76537     76538     76534     76533     76536
     76534     76533     76535     76535     76533     76536     76537     76533     76536
     76537     76533     76535     76537     76533     76534     76539     76543     76544
     76540     76539     76542     76540     76539     76541     76541     76539     76542
     76543     76539     76542     76543     76539     76541     76543     76539     76540
     76545     76549     76550     76546     76545     76548     76546     76545     76547
     76547     76545     76548     76549     76545     76548     76549     76545     76547
     76549     76545     76546     76551     76555     76556     76552     76551     76554
     76552     76551     76553     76553     76551     76554     76555     76551     76554
     76555     76551     76553     76555     76551     76552     76557     76561     76562
     76558     76557     76560     76558     76557     76559     76559     76557     76560
     76561     76557     76560     76561     76557     76559     76561     76557     76558
     76563     76567     76568     76564     76563     76566     76564     76563     76565
     76565     76563     76566     76567     76563     76566     76567     76563     76565
     76567     76563     76564     76569     76573     76574     76570     76569     76572
     76570     76569     76571     76571     76569     76572     76573     76569     76572
     76573     76569     76571     76573     76569     76570     76575     76579     76580
     76576     76575     76578     76576     76575     76577     76577     76575     76578
     76579     76575     76578     76579     76575     76577     76579     76575     76576
     76581     76585     76586     76582     76581     76584     76582     76581     76583
     76583     76581     76584     76585     76581     76584     76585     76581     76583
     76585     76581     76582     76587     76591     76592     76588     76587     76590
     76588     76587     76589     76589     76587     76590     76591     76587     76590
     76591     76587     76589     76591     76587     76588     76593     76597     76598
     76594     76593     76596     76594     76593     76595     76595     76593     76596
     76597     76593     76596     76597     76593     76595     76597     76593     76594
     76599     76603     76604     76600     76599     76602     76600     76599     76601
     76601     76599     76602     76603     76599     76602     76603     76599     76601
     76603     76599     76600     76605     76609     76610     76606     76605     76608
     76606     76605     76607     76607     76605     76608     76609     76605     76608
     76609     76605     76607     76609     76605     76606     76611     76615     76616
     76612     76611     76614     76612     76611     76613     76613     76611     76614
     76615     76611     76614     76615     76611     76613     76615     76611     76612
     76617     76621     76622     76618     76617     76620     76618     76617     76619
     76619     76617     76620     76621     76617     76620     76621     76617     76619
     76621     76617     76618     76623     76627     76628     76624     76623     76626
     76624     76623     76625     76625     76623     76626     76627     76623     76626
     76627     76623     76625     76627     76623     76624     76629     76633     76634
     76630     76629     76632     76630     76629     76631     76631     76629     76632
     76633     76629     76632     76633     76629     76631     76633     76629     76630
     76635     76639     76640     76636     76635     76638     76636     76635     76637
     76637     76635     76638     76639     76635     76638     76639     76635     76637
     76639     76635     76636     76641     76645     76646     76642     76641     76644
     76642     76641     76643     76643     76641     76644     76645     76641     76644
     76645     76641     76643     76645     76641     76642     76647     76651     76652
     76648     76647     76650     76648     76647     76649     76649     76647     76650
     76651     76647     76650     76651     76647     76649     76651     76647     76648
     76653     76657     76658     76654     76653     76656     76654     76653     76655
     76655     76653     76656     76657     76653     76656     76657     76653     76655
     76657     76653     76654     76659     76663     76664     76660     76659     76662
     76660     76659     76661     76661     76659     76662     76663     76659     76662
     76663     76659     76661     76663     76659     76660     76665     76669     76670
     76666     76665     76668     76666     76665     76667     76667     76665     76668
     76669     76665     76668     76669     76665     76667     76669     76665     76666
     76671     76675     76676     76672     76671     76674     76672     76671     76673
     76673     76671     76674     76675     76671     76674     76675     76671     76673
     76675     76671     76672     76677     76681     76682     76678     76677     76680
     76678     76677     76679     76679     76677     76680     76681     76677     76680
     76681     76677     76679     76681     76677     76678     76683     76687     76688
     76684     76683     76686     76684     76683     76685     76685     76683     76686
     76687     76683     76686     76687     76683     76685     76687     76683     76684
     76689     76693     76694     76690     76689     76692     76690     76689     76691
     76691     76689     76692     76693     76689     76692     76693     76689     76691
     76693     76689     76690     76695     76699     76700     76696     76695     76698
     76696     76695     76697     76697     76695     76698     76699     76695     76698
     76699     76695     76697     76699     76695     76696     76701     76705     76706
     76702     76701     76704     76702     76701     76703     76703     76701     76704
     76705     76701     76704     76705     76701     76703     76705     76701     76702
     76707     76711     76712     76708     76707     76710     76708     76707     76709
     76709     76707     76710     76711     76707     76710     76711     76707     76709
     76711     76707     76708     76713     76717     76718     76714     76713     76716
     76714     76713     76715     76715     76713     76716     76717     76713     76716
     76717     76713     76715     76717     76713     76714     76719     76723     76724
     76720     76719     76722     76720     76719     76721     76721     76719     76722
     76723     76719     76722     76723     76719     76721     76723     76719     76720
     76725     76729     76730     76726     76725     76728     76726     76725     76727
     76727     76725     76728     76729     76725     76728     76729     76725     76727
     76729     76725     76726     76731     76735     76736     76732     76731     76734
     76732     76731     76733     76733     76731     76734     76735     76731     76734
     76735     76731     76733     76735     76731     76732     76737     76741     76742
     76738     76737     76740     76738     76737     76739     76739     76737     76740
     76741     76737     76740     76741     76737     76739     76741     76737     76738
     76743     76747     76748     76744     76743     76746     76744     76743     76745
     76745     76743     76746     76747     76743     76746     76747     76743     76745
     76747     76743     76744     76749     76753     76754     76750     76749     76752
     76750     76749     76751     76751     76749     76752     76753     76749     76752
     76753     76749     76751     76753     76749     76750     76755     76759     76760
     76756     76755     76758     76756     76755     76757     76757     76755     76758
     76759     76755     76758     76759     76755     76757     76759     76755     76756
     76761     76765     76766     76762     76761     76764     76762     76761     76763
     76763     76761     76764     76765     76761     76764     76765     76761     76763
     76765     76761     76762     76767     76771     76772     76768     76767     76770
     76768     76767     76769     76769     76767     76770     76771     76767     76770
     76771     76767     76769     76771     76767     76768     76773     76777     76778
     76774     76773     76776     76774     76773     76775     76775     76773     76776
     76777     76773     76776     76777     76773     76775     76777     76773     76774
     76779     76783     76784     76780     76779     76782     76780     76779     76781
     76781     76779     76782     76783     76779     76782     76783     76779     76781
     76783     76779     76780     76785     76789     76790     76786     76785     76788
     76786     76785     76787     76787     76785     76788     76789     76785     76788
     76789     76785     76787     76789     76785     76786     76791     76795     76796
     76792     76791     76794     76792     76791     76793     76793     76791     76794
     76795     76791     76794     76795     76791     76793     76795     76791     76792
     76797     76801     76802     76798     76797     76800     76798     76797     76799
     76799     76797     76800     76801     76797     76800     76801     76797     76799
     76801     76797     76798     76803     76807     76808     76804     76803     76806
     76804     76803     76805     76805     76803     76806     76807     76803     76806
     76807     76803     76805     76807     76803     76804     76809     76813     76814
     76810     76809     76812     76810     76809     76811     76811     76809     76812
     76813     76809     76812     76813     76809     76811     76813     76809     76810
     76815     76819     76820     76816     76815     76818     76816     76815     76817
     76817     76815     76818     76819     76815     76818     76819     76815     76817
     76819     76815     76816     76821     76825     76826     76822     76821     76824
     76822     76821     76823     76823     76821     76824     76825     76821     76824
     76825     76821     76823     76825     76821     76822     76827     76831     76832
     76828     76827     76830     76828     76827     76829     76829     76827     76830
     76831     76827     76830     76831     76827     76829     76831     76827     76828
     76833     76837     76838     76834     76833     76836     76834     76833     76835
     76835     76833     76836     76837     76833     76836     76837     76833     76835
     76837     76833     76834     76839     76843     76844     76840     76839     76842
     76840     76839     76841     76841     76839     76842     76843     76839     76842
     76843     76839     76841     76843     76839     76840     76845     76849     76850
     76846     76845     76848     76846     76845     76847     76847     76845     76848
     76849     76845     76848     76849     76845     76847     76849     76845     76846
     76851     76855     76856     76852     76851     76854     76852     76851     76853
     76853     76851     76854     76855     76851     76854     76855     76851     76853
     76855     76851     76852     76857     76861     76862     76858     76857     76860
     76858     76857     76859     76859     76857     76860     76861     76857     76860
     76861     76857     76859     76861     76857     76858     76863     76867     76868
     76864     76863     76866     76864     76863     76865     76865     76863     76866
     76867     76863     76866     76867     76863     76865     76867     76863     76864
     76869     76873     76874     76870     76869     76872     76870     76869     76871
     76871     76869     76872     76873     76869     76872     76873     76869     76871
     76873     76869     76870     76875     76879     76880     76876     76875     76878
     76876     76875     76877     76877     76875     76878     76879     76875     76878
     76879     76875     76877     76879     76875     76876     76881     76885     76886
     76882     76881     76884     76882     76881     76883     76883     76881     76884
     76885     76881     76884     76885     76881     76883     76885     76881     76882
     76887     76891     76892     76888     76887     76890     76888     76887     76889
     76889     76887     76890     76891     76887     76890     76891     76887     76889
     76891     76887     76888     76893     76897     76898     76894     76893     76896
     76894     76893     76895     76895     76893     76896     76897     76893     76896
     76897     76893     76895     76897     76893     76894     76899     76903     76904
     76900     76899     76902     76900     76899     76901     76901     76899     76902
     76903     76899     76902     76903     76899     76901     76903     76899     76900
     76905     76909     76910     76906     76905     76908     76906     76905     76907
     76907     76905     76908     76909     76905     76908     76909     76905     76907
     76909     76905     76906     76911     76915     76916     76912     76911     76914
     76912     76911     76913     76913     76911     76914     76915     76911     76914
     76915     76911     76913     76915     76911     76912     76917     76921     76922
     76918     76917     76920     76918     76917     76919     76919     76917     76920
     76921     76917     76920     76921     76917     76919     76921     76917     76918
     76923     76927     76928     76924     76923     76926     76924     76923     76925
     76925     76923     76926     76927     76923     76926     76927     76923     76925
     76927     76923     76924     76929     76933     76934     76930     76929     76932
     76930     76929     76931     76931     76929     76932     76933     76929     76932
     76933     76929     76931     76933     76929     76930     76935     76939     76940
     76936     76935     76938     76936     76935     76937     76937     76935     76938
     76939     76935     76938     76939     76935     76937     76939     76935     76936
     76941     76945     76946     76942     76941     76944     76942     76941     76943
     76943     76941     76944     76945     76941     76944     76945     76941     76943
     76945     76941     76942     76947     76951     76952     76948     76947     76950
     76948     76947     76949     76949     76947     76950     76951     76947     76950
     76951     76947     76949     76951     76947     76948     76953     76957     76958
     76954     76953     76956     76954     76953     76955     76955     76953     76956
     76957     76953     76956     76957     76953     76955     76957     76953     76954
     76959     76963     76964     76960     76959     76962     76960     76959     76961
     76961     76959     76962     76963     76959     76962     76963     76959     76961
     76963     76959     76960     76965     76969     76970     76966     76965     76968
     76966     76965     76967     76967     76965     76968     76969     76965     76968
     76969     76965     76967     76969     76965     76966     76971     76975     76976
     76972     76971     76974     76972     76971     76973     76973     76971     76974
     76975     76971     76974     76975     76971     76973     76975     76971     76972
     76977     76981     76982     76978     76977     76980     76978     76977     76979
     76979     76977     76980     76981     76977     76980     76981     76977     76979
     76981     76977     76978     76983     76987     76988     76984     76983     76986
     76984     76983     76985     76985     76983     76986     76987     76983     76986
     76987     76983     76985     76987     76983     76984     76989     76993     76994
     76990     76989     76992     76990     76989     76991     76991     76989     76992
     76993     76989     76992     76993     76989     76991     76993     76989     76990
     76995     76999     77000     76996     76995     76998     76996     76995     76997
     76997     76995     76998     76999     76995     76998     76999     76995     76997
     76999     76995     76996     77001     77005     77006     77002     77001     77004
     77002     77001     77003     77003     77001     77004     77005     77001     77004
     77005     77001     77003     77005     77001     77002     77007     77011     77012
     77008     77007     77010     77008     77007     77009     77009     77007     77010
     77011     77007     77010     77011     77007     77009     77011     77007     77008
     77013     77017     77018     77014     77013     77016     77014     77013     77015
     77015     77013     77016     77017     77013     77016     77017     77013     77015
     77017     77013     77014     77019     77023     77024     77020     77019     77022
     77020     77019     77021     77021     77019     77022     77023     77019     77022
     77023     77019     77021     77023     77019     77020     77025     77029     77030
     77026     77025     77028     77026     77025     77027     77027     77025     77028
     77029     77025     77028     77029     77025     77027     77029     77025     77026
     77031     77035     77036     77032     77031     77034     77032     77031     77033
     77033     77031     77034     77035     77031     77034     77035     77031     77033
     77035     77031     77032     77037     77041     77042     77038     77037     77040
     77038     77037     77039     77039     77037     77040     77041     77037     77040
     77041     77037     77039     77041     77037     77038     77043     77047     77048
     77044     77043     77046     77044     77043     77045     77045     77043     77046
     77047     77043     77046     77047     77043     77045     77047     77043     77044
     77049     77053     77054     77050     77049     77052     77050     77049     77051
     77051     77049     77052     77053     77049     77052     77053     77049     77051
     77053     77049     77050     77055     77059     77060     77056     77055     77058
     77056     77055     77057     77057     77055     77058     77059     77055     77058
     77059     77055     77057     77059     77055     77056     77061     77065     77066
     77062     77061     77064     77062     77061     77063     77063     77061     77064
     77065     77061     77064     77065     77061     77063     77065     77061     77062
     77067     77071     77072     77068     77067     77070     77068     77067     77069
     77069     77067     77070     77071     77067     77070     77071     77067     77069
     77071     77067     77068     77073     77077     77078     77074     77073     77076
     77074     77073     77075     77075     77073     77076     77077     77073     77076
     77077     77073     77075     77077     77073     77074     77079     77083     77084
     77080     77079     77082     77080     77079     77081     77081     77079     77082
     77083     77079     77082     77083     77079     77081     77083     77079     77080
     77085     77089     77090     77086     77085     77088     77086     77085     77087
     77087     77085     77088     77089     77085     77088     77089     77085     77087
     77089     77085     77086     77091     77095     77096     77092     77091     77094
     77092     77091     77093     77093     77091     77094     77095     77091     77094
     77095     77091     77093     77095     77091     77092     77097     77101     77102
     77098     77097     77100     77098     77097     77099     77099     77097     77100
     77101     77097     77100     77101     77097     77099     77101     77097     77098
     77103     77107     77108     77104     77103     77106     77104     77103     77105
     77105     77103     77106     77107     77103     77106     77107     77103     77105
     77107     77103     77104     77109     77113     77114     77110     77109     77112
     77110     77109     77111     77111     77109     77112     77113     77109     77112
     77113     77109     77111     77113     77109     77110     77115     77119     77120
     77116     77115     77118     77116     77115     77117     77117     77115     77118
     77119     77115     77118     77119     77115     77117     77119     77115     77116
     77121     77125     77126     77122     77121     77124     77122     77121     77123
     77123     77121     77124     77125     77121     77124     77125     77121     77123
     77125     77121     77122     77127     77131     77132     77128     77127     77130
     77128     77127     77129     77129     77127     77130     77131     77127     77130
     77131     77127     77129     77131     77127     77128     77133     77137     77138
     77134     77133     77136     77134     77133     77135     77135     77133     77136
     77137     77133     77136     77137     77133     77135     77137     77133     77134
     77139     77143     77144     77140     77139     77142     77140     77139     77141
     77141     77139     77142     77143     77139     77142     77143     77139     77141
     77143     77139     77140     77145     77149     77150     77146     77145     77148
     77146     77145     77147     77147     77145     77148     77149     77145     77148
     77149     77145     77147     77149     77145     77146     77151     77155     77156
     77152     77151     77154     77152     77151     77153     77153     77151     77154
     77155     77151     77154     77155     77151     77153     77155     77151     77152
     77157     77161     77162     77158     77157     77160     77158     77157     77159
     77159     77157     77160     77161     77157     77160     77161     77157     77159
     77161     77157     77158     77163     77167     77168     77164     77163     77166
     77164     77163     77165     77165     77163     77166     77167     77163     77166
     77167     77163     77165     77167     77163     77164     77169     77173     77174
     77170     77169     77172     77170     77169     77171     77171     77169     77172
     77173     77169     77172     77173     77169     77171     77173     77169     77170
     77175     77179     77180     77176     77175     77178     77176     77175     77177
     77177     77175     77178     77179     77175     77178     77179     77175     77177
     77179     77175     77176     77181     77185     77186     77182     77181     77184
     77182     77181     77183     77183     77181     77184     77185     77181     77184
     77185     77181     77183     77185     77181     77182     77187     77191     77192
     77188     77187     77190     77188     77187     77189     77189     77187     77190
     77191     77187     77190     77191     77187     77189     77191     77187     77188
     77193     77197     77198     77194     77193     77196     77194     77193     77195
     77195     77193     77196     77197     77193     77196     77197     77193     77195
     77197     77193     77194     77199     77203     77204     77200     77199     77202
     77200     77199     77201     77201     77199     77202     77203     77199     77202
     77203     77199     77201     77203     77199     77200     77205     77209     77210
     77206     77205     77208     77206     77205     77207     77207     77205     77208
     77209     77205     77208     77209     77205     77207     77209     77205     77206
     77211     77215     77216     77212     77211     77214     77212     77211     77213
     77213     77211     77214     77215     77211     77214     77215     77211     77213
     77215     77211     77212     77217     77221     77222     77218     77217     77220
     77218     77217     77219     77219     77217     77220     77221     77217     77220
     77221     77217     77219     77221     77217     77218     77223     77227     77228
     77224     77223     77226     77224     77223     77225     77225     77223     77226
     77227     77223     77226     77227     77223     77225     77227     77223     77224
     77229     77233     77234     77230     77229     77232     77230     77229     77231
     77231     77229     77232     77233     77229     77232     77233     77229     77231
     77233     77229     77230     77235     77239     77240     77236     77235     77238
     77236     77235     77237     77237     77235     77238     77239     77235     77238
     77239     77235     77237     77239     77235     77236     77241     77245     77246
     77242     77241     77244     77242     77241     77243     77243     77241     77244
     77245     77241     77244     77245     77241     77243     77245     77241     77242
     77247     77251     77252     77248     77247     77250     77248     77247     77249
     77249     77247     77250     77251     77247     77250     77251     77247     77249
     77251     77247     77248     77253     77257     77258     77254     77253     77256
     77254     77253     77255     77255     77253     77256     77257     77253     77256
     77257     77253     77255     77257     77253     77254     77259     77263     77264
     77260     77259     77262     77260     77259     77261     77261     77259     77262
     77263     77259     77262     77263     77259     77261     77263     77259     77260
     77265     77269     77270     77266     77265     77268     77266     77265     77267
     77267     77265     77268     77269     77265     77268     77269     77265     77267
     77269     77265     77266     77271     77275     77276     77272     77271     77274
     77272     77271     77273     77273     77271     77274     77275     77271     77274
     77275     77271     77273     77275     77271     77272     77277     77281     77282
     77278     77277     77280     77278     77277     77279     77279     77277     77280
     77281     77277     77280     77281     77277     77279     77281     77277     77278
     77283     77287     77288     77284     77283     77286     77284     77283     77285
     77285     77283     77286     77287     77283     77286     77287     77283     77285
     77287     77283     77284     77289     77293     77294     77290     77289     77292
     77290     77289     77291     77291     77289     77292     77293     77289     77292
     77293     77289     77291     77293     77289     77290     77295     77299     77300
     77296     77295     77298     77296     77295     77297     77297     77295     77298
     77299     77295     77298     77299     77295     77297     77299     77295     77296
     77301     77305     77306     77302     77301     77304     77302     77301     77303
     77303     77301     77304     77305     77301     77304     77305     77301     77303
     77305     77301     77302     77307     77311     77312     77308     77307     77310
     77308     77307     77309     77309     77307     77310     77311     77307     77310
     77311     77307     77309     77311     77307     77308     77313     77317     77318
     77314     77313     77316     77314     77313     77315     77315     77313     77316
     77317     77313     77316     77317     77313     77315     77317     77313     77314
     77319     77323     77324     77320     77319     77322     77320     77319     77321
     77321     77319     77322     77323     77319     77322     77323     77319     77321
     77323     77319     77320     77325     77329     77330     77326     77325     77328
     77326     77325     77327     77327     77325     77328     77329     77325     77328
     77329     77325     77327     77329     77325     77326     77331     77335     77336
     77332     77331     77334     77332     77331     77333     77333     77331     77334
     77335     77331     77334     77335     77331     77333     77335     77331     77332
     77337     77341     77342     77338     77337     77340     77338     77337     77339
     77339     77337     77340     77341     77337     77340     77341     77337     77339
     77341     77337     77338     77343     77347     77348     77344     77343     77346
     77344     77343     77345     77345     77343     77346     77347     77343     77346
     77347     77343     77345     77347     77343     77344     77349     77353     77354
     77350     77349     77352     77350     77349     77351     77351     77349     77352
     77353     77349     77352     77353     77349     77351     77353     77349     77350
     77355     77359     77360     77356     77355     77358     77356     77355     77357
     77357     77355     77358     77359     77355     77358     77359     77355     77357
     77359     77355     77356     77361     77365     77366     77362     77361     77364
     77362     77361     77363     77363     77361     77364     77365     77361     77364
     77365     77361     77363     77365     77361     77362     77367     77371     77372
     77368     77367     77370     77368     77367     77369     77369     77367     77370
     77371     77367     77370     77371     77367     77369     77371     77367     77368
     77373     77377     77378     77374     77373     77376     77374     77373     77375
     77375     77373     77376     77377     77373     77376     77377     77373     77375
     77377     77373     77374     77379     77383     77384     77380     77379     77382
     77380     77379     77381     77381     77379     77382     77383     77379     77382
     77383     77379     77381     77383     77379     77380     77385     77389     77390
     77386     77385     77388     77386     77385     77387     77387     77385     77388
     77389     77385     77388     77389     77385     77387     77389     77385     77386
     77391     77395     77396     77392     77391     77394     77392     77391     77393
     77393     77391     77394     77395     77391     77394     77395     77391     77393
     77395     77391     77392     77397     77401     77402     77398     77397     77400
     77398     77397     77399     77399     77397     77400     77401     77397     77400
     77401     77397     77399     77401     77397     77398     77403     77407     77408
     77404     77403     77406     77404     77403     77405     77405     77403     77406
     77407     77403     77406     77407     77403     77405     77407     77403     77404
     77409     77413     77414     77410     77409     77412     77410     77409     77411
     77411     77409     77412     77413     77409     77412     77413     77409     77411
     77413     77409     77410     77415     77419     77420     77416     77415     77418
     77416     77415     77417     77417     77415     77418     77419     77415     77418
     77419     77415     77417     77419     77415     77416     77421     77425     77426
     77422     77421     77424     77422     77421     77423     77423     77421     77424
     77425     77421     77424     77425     77421     77423     77425     77421     77422
     77427     77431     77432     77428     77427     77430     77428     77427     77429
     77429     77427     77430     77431     77427     77430     77431     77427     77429
     77431     77427     77428     77433     77437     77438     77434     77433     77436
     77434     77433     77435     77435     77433     77436     77437     77433     77436
     77437     77433     77435     77437     77433     77434     77439     77443     77444
     77440     77439     77442     77440     77439     77441     77441     77439     77442
     77443     77439     77442     77443     77439     77441     77443     77439     77440
     77445     77449     77450     77446     77445     77448     77446     77445     77447
     77447     77445     77448     77449     77445     77448     77449     77445     77447
     77449     77445     77446     77451     77455     77456     77452     77451     77454
     77452     77451     77453     77453     77451     77454     77455     77451     77454
     77455     77451     77453     77455     77451     77452     77457     77461     77462
     77458     77457     77460     77458     77457     77459     77459     77457     77460
     77461     77457     77460     77461     77457     77459     77461     77457     77458
     77463     77467     77468     77464     77463     77466     77464     77463     77465
     77465     77463     77466     77467     77463     77466     77467     77463     77465
     77467     77463     77464     77469     77473     77474     77470     77469     77472
     77470     77469     77471     77471     77469     77472     77473     77469     77472
     77473     77469     77471     77473     77469     77470     77475     77479     77480
     77476     77475     77478     77476     77475     77477     77477     77475     77478
     77479     77475     77478     77479     77475     77477     77479     77475     77476
     77481     77485     77486     77482     77481     77484     77482     77481     77483
     77483     77481     77484     77485     77481     77484     77485     77481     77483
     77485     77481     77482     77487     77491     77492     77488     77487     77490
     77488     77487     77489     77489     77487     77490     77491     77487     77490
     77491     77487     77489     77491     77487     77488     77493     77497     77498
     77494     77493     77496     77494     77493     77495     77495     77493     77496
     77497     77493     77496     77497     77493     77495     77497     77493     77494
     77499     77503     77504     77500     77499     77502     77500     77499     77501
     77501     77499     77502     77503     77499     77502     77503     77499     77501
     77503     77499     77500     77505     77509     77510     77506     77505     77508
     77506     77505     77507     77507     77505     77508     77509     77505     77508
     77509     77505     77507     77509     77505     77506     77511     77515     77516
     77512     77511     77514     77512     77511     77513     77513     77511     77514
     77515     77511     77514     77515     77511     77513     77515     77511     77512
     77517     77521     77522     77518     77517     77520     77518     77517     77519
     77519     77517     77520     77521     77517     77520     77521     77517     77519
     77521     77517     77518     77523     77527     77528     77524     77523     77526
     77524     77523     77525     77525     77523     77526     77527     77523     77526
     77527     77523     77525     77527     77523     77524     77529     77533     77534
     77530     77529     77532     77530     77529     77531     77531     77529     77532
     77533     77529     77532     77533     77529     77531     77533     77529     77530
     77535     77539     77540     77536     77535     77538     77536     77535     77537
     77537     77535     77538     77539     77535     77538     77539     77535     77537
     77539     77535     77536     77541     77545     77546     77542     77541     77544
     77542     77541     77543     77543     77541     77544     77545     77541     77544
     77545     77541     77543     77545     77541     77542     77547     77551     77552
     77548     77547     77550     77548     77547     77549     77549     77547     77550
     77551     77547     77550     77551     77547     77549     77551     77547     77548
     77553     77557     77558     77554     77553     77556     77554     77553     77555
     77555     77553     77556     77557     77553     77556     77557     77553     77555
     77557     77553     77554     77559     77563     77564     77560     77559     77562
     77560     77559     77561     77561     77559     77562     77563     77559     77562
     77563     77559     77561     77563     77559     77560     77565     77569     77570
     77566     77565     77568     77566     77565     77567     77567     77565     77568
     77569     77565     77568     77569     77565     77567     77569     77565     77566
     77571     77575     77576     77572     77571     77574     77572     77571     77573
     77573     77571     77574     77575     77571     77574     77575     77571     77573
     77575     77571     77572     77577     77581     77582     77578     77577     77580
     77578     77577     77579     77579     77577     77580     77581     77577     77580
     77581     77577     77579     77581     77577     77578     77583     77587     77588
     77584     77583     77586     77584     77583     77585     77585     77583     77586
     77587     77583     77586     77587     77583     77585     77587     77583     77584
     77589     77593     77594     77590     77589     77592     77590     77589     77591
     77591     77589     77592     77593     77589     77592     77593     77589     77591
     77593     77589     77590     77595     77599     77600     77596     77595     77598
     77596     77595     77597     77597     77595     77598     77599     77595     77598
     77599     77595     77597     77599     77595     77596     77601     77605     77606
     77602     77601     77604     77602     77601     77603     77603     77601     77604
     77605     77601     77604     77605     77601     77603     77605     77601     77602
     77607     77611     77612     77608     77607     77610     77608     77607     77609
     77609     77607     77610     77611     77607     77610     77611     77607     77609
     77611     77607     77608     77613     77617     77618     77614     77613     77616
     77614     77613     77615     77615     77613     77616     77617     77613     77616
     77617     77613     77615     77617     77613     77614     77619     77623     77624
     77620     77619     77622     77620     77619     77621     77621     77619     77622
     77623     77619     77622     77623     77619     77621     77623     77619     77620
     77625     77629     77630     77626     77625     77628     77626     77625     77627
     77627     77625     77628     77629     77625     77628     77629     77625     77627
     77629     77625     77626     77631     77635     77636     77632     77631     77634
     77632     77631     77633     77633     77631     77634     77635     77631     77634
     77635     77631     77633     77635     77631     77632     77637     77641     77642
     77638     77637     77640     77638     77637     77639     77639     77637     77640
     77641     77637     77640     77641     77637     77639     77641     77637     77638
     77643     77647     77648     77644     77643     77646     77644     77643     77645
     77645     77643     77646     77647     77643     77646     77647     77643     77645
     77647     77643     77644     77649     77653     77654     77650     77649     77652
     77650     77649     77651     77651     77649     77652     77653     77649     77652
     77653     77649     77651     77653     77649     77650     77655     77659     77660
     77656     77655     77658     77656     77655     77657     77657     77655     77658
     77659     77655     77658     77659     77655     77657     77659     77655     77656
     77661     77665     77666     77662     77661     77664     77662     77661     77663
     77663     77661     77664     77665     77661     77664     77665     77661     77663
     77665     77661     77662     77667     77671     77672     77668     77667     77670
     77668     77667     77669     77669     77667     77670     77671     77667     77670
     77671     77667     77669     77671     77667     77668     77673     77677     77678
     77674     77673     77676     77674     77673     77675     77675     77673     77676
     77677     77673     77676     77677     77673     77675     77677     77673     77674
     77679     77683     77684     77680     77679     77682     77680     77679     77681
     77681     77679     77682     77683     77679     77682     77683     77679     77681
     77683     77679     77680     77685     77689     77690     77686     77685     77688
     77686     77685     77687     77687     77685     77688     77689     77685     77688
     77689     77685     77687     77689     77685     77686     77691     77695     77696
     77692     77691     77694     77692     77691     77693     77693     77691     77694
     77695     77691     77694     77695     77691     77693     77695     77691     77692
     77697     77701     77702     77698     77697     77700     77698     77697     77699
     77699     77697     77700     77701     77697     77700     77701     77697     77699
     77701     77697     77698     77703     77707     77708     77704     77703     77706
     77704     77703     77705     77705     77703     77706     77707     77703     77706
     77707     77703     77705     77707     77703     77704     77709     77713     77714
     77710     77709     77712     77710     77709     77711     77711     77709     77712
     77713     77709     77712     77713     77709     77711     77713     77709     77710
     77715     77719     77720     77716     77715     77718     77716     77715     77717
     77717     77715     77718     77719     77715     77718     77719     77715     77717
     77719     77715     77716     77721     77725     77726     77722     77721     77724
     77722     77721     77723     77723     77721     77724     77725     77721     77724
     77725     77721     77723     77725     77721     77722     77727     77731     77732
     77728     77727     77730     77728     77727     77729     77729     77727     77730
     77731     77727     77730     77731     77727     77729     77731     77727     77728
     77733     77737     77738     77734     77733     77736     77734     77733     77735
     77735     77733     77736     77737     77733     77736     77737     77733     77735
     77737     77733     77734     77739     77743     77744     77740     77739     77742
     77740     77739     77741     77741     77739     77742     77743     77739     77742
     77743     77739     77741     77743     77739     77740     77745     77749     77750
     77746     77745     77748     77746     77745     77747     77747     77745     77748
     77749     77745     77748     77749     77745     77747     77749     77745     77746
     77751     77755     77756     77752     77751     77754     77752     77751     77753
     77753     77751     77754     77755     77751     77754     77755     77751     77753
     77755     77751     77752     77757     77761     77762     77758     77757     77760
     77758     77757     77759     77759     77757     77760     77761     77757     77760
     77761     77757     77759     77761     77757     77758     77763     77767     77768
     77764     77763     77766     77764     77763     77765     77765     77763     77766
     77767     77763     77766     77767     77763     77765     77767     77763     77764
     77769     77773     77774     77770     77769     77772     77770     77769     77771
     77771     77769     77772     77773     77769     77772     77773     77769     77771
     77773     77769     77770     77775     77779     77780     77776     77775     77778
     77776     77775     77777     77777     77775     77778     77779     77775     77778
     77779     77775     77777     77779     77775     77776     77781     77785     77786
     77782     77781     77784     77782     77781     77783     77783     77781     77784
     77785     77781     77784     77785     77781     77783     77785     77781     77782
     77787     77791     77792     77788     77787     77790     77788     77787     77789
     77789     77787     77790     77791     77787     77790     77791     77787     77789
     77791     77787     77788     77793     77797     77798     77794     77793     77796
     77794     77793     77795     77795     77793     77796     77797     77793     77796
     77797     77793     77795     77797     77793     77794     77799     77803     77804
     77800     77799     77802     77800     77799     77801     77801     77799     77802
     77803     77799     77802     77803     77799     77801     77803     77799     77800
     77805     77809     77810     77806     77805     77808     77806     77805     77807
     77807     77805     77808     77809     77805     77808     77809     77805     77807
     77809     77805     77806     77811     77815     77816     77812     77811     77814
     77812     77811     77813     77813     77811     77814     77815     77811     77814
     77815     77811     77813     77815     77811     77812     77817     77821     77822
     77818     77817     77820     77818     77817     77819     77819     77817     77820
     77821     77817     77820     77821     77817     77819     77821     77817     77818
     77823     77827     77828     77824     77823     77826     77824     77823     77825
     77825     77823     77826     77827     77823     77826     77827     77823     77825
     77827     77823     77824     77829     77833     77834     77830     77829     77832
     77830     77829     77831     77831     77829     77832     77833     77829     77832
     77833     77829     77831     77833     77829     77830     77835     77839     77840
     77836     77835     77838     77836     77835     77837     77837     77835     77838
     77839     77835     77838     77839     77835     77837     77839     77835     77836
     77841     77845     77846     77842     77841     77844     77842     77841     77843
     77843     77841     77844     77845     77841     77844     77845     77841     77843
     77845     77841     77842     77847     77851     77852     77848     77847     77850
     77848     77847     77849     77849     77847     77850     77851     77847     77850
     77851     77847     77849     77851     77847     77848     77853     77857     77858
     77854     77853     77856     77854     77853     77855     77855     77853     77856
     77857     77853     77856     77857     77853     77855     77857     77853     77854
     77859     77863     77864     77860     77859     77862     77860     77859     77861
     77861     77859     77862     77863     77859     77862     77863     77859     77861
     77863     77859     77860     77865     77869     77870     77866     77865     77868
     77866     77865     77867     77867     77865     77868     77869     77865     77868
     77869     77865     77867     77869     77865     77866     77871     77875     77876
     77872     77871     77874     77872     77871     77873     77873     77871     77874
     77875     77871     77874     77875     77871     77873     77875     77871     77872
     77877     77881     77882     77878     77877     77880     77878     77877     77879
     77879     77877     77880     77881     77877     77880     77881     77877     77879
     77881     77877     77878     77883     77887     77888     77884     77883     77886
     77884     77883     77885     77885     77883     77886     77887     77883     77886
     77887     77883     77885     77887     77883     77884     77889     77893     77894
     77890     77889     77892     77890     77889     77891     77891     77889     77892
     77893     77889     77892     77893     77889     77891     77893     77889     77890
     77895     77899     77900     77896     77895     77898     77896     77895     77897
     77897     77895     77898     77899     77895     77898     77899     77895     77897
     77899     77895     77896     77901     77905     77906     77902     77901     77904
     77902     77901     77903     77903     77901     77904     77905     77901     77904
     77905     77901     77903     77905     77901     77902     77907     77911     77912
     77908     77907     77910     77908     77907     77909     77909     77907     77910
     77911     77907     77910     77911     77907     77909     77911     77907     77908
     77913     77917     77918     77914     77913     77916     77914     77913     77915
     77915     77913     77916     77917     77913     77916     77917     77913     77915
     77917     77913     77914     77919     77923     77924     77920     77919     77922
     77920     77919     77921     77921     77919     77922     77923     77919     77922
     77923     77919     77921     77923     77919     77920     77925     77929     77930
     77926     77925     77928     77926     77925     77927     77927     77925     77928
     77929     77925     77928     77929     77925     77927     77929     77925     77926
     77931     77935     77936     77932     77931     77934     77932     77931     77933
     77933     77931     77934     77935     77931     77934     77935     77931     77933
     77935     77931     77932     77937     77941     77942     77938     77937     77940
     77938     77937     77939     77939     77937     77940     77941     77937     77940
     77941     77937     77939     77941     77937     77938     77943     77947     77948
     77944     77943     77946     77944     77943     77945     77945     77943     77946
     77947     77943     77946     77947     77943     77945     77947     77943     77944
     77949     77953     77954     77950     77949     77952     77950     77949     77951
     77951     77949     77952     77953     77949     77952     77953     77949     77951
     77953     77949     77950     77955     77959     77960     77956     77955     77958
     77956     77955     77957     77957     77955     77958     77959     77955     77958
     77959     77955     77957     77959     77955     77956     77961     77965     77966
     77962     77961     77964     77962     77961     77963     77963     77961     77964
     77965     77961     77964     77965     77961     77963     77965     77961     77962
     77967     77971     77972     77968     77967     77970     77968     77967     77969
     77969     77967     77970     77971     77967     77970     77971     77967     77969
     77971     77967     77968     77973     77977     77978     77974     77973     77976
     77974     77973     77975     77975     77973     77976     77977     77973     77976
     77977     77973     77975     77977     77973     77974     77979     77983     77984
     77980     77979     77982     77980     77979     77981     77981     77979     77982
     77983     77979     77982     77983     77979     77981     77983     77979     77980
     77985     77989     77990     77986     77985     77988     77986     77985     77987
     77987     77985     77988     77989     77985     77988     77989     77985     77987
     77989     77985     77986     77991     77995     77996     77992     77991     77994
     77992     77991     77993     77993     77991     77994     77995     77991     77994
     77995     77991     77993     77995     77991     77992     77997     78001     78002
     77998     77997     78000     77998     77997     77999     77999     77997     78000
     78001     77997     78000     78001     77997     77999     78001     77997     77998
     78003     78007     78008     78004     78003     78006     78004     78003     78005
     78005     78003     78006     78007     78003     78006     78007     78003     78005
     78007     78003     78004     78009     78013     78014     78010     78009     78012
     78010     78009     78011     78011     78009     78012     78013     78009     78012
     78013     78009     78011     78013     78009     78010     78015     78019     78020
     78016     78015     78018     78016     78015     78017     78017     78015     78018
     78019     78015     78018     78019     78015     78017     78019     78015     78016
     78021     78025     78026     78022     78021     78024     78022     78021     78023
     78023     78021     78024     78025     78021     78024     78025     78021     78023
     78025     78021     78022     78027     78031     78032     78028     78027     78030
     78028     78027     78029     78029     78027     78030     78031     78027     78030
     78031     78027     78029     78031     78027     78028     78033     78037     78038
     78034     78033     78036     78034     78033     78035     78035     78033     78036
     78037     78033     78036     78037     78033     78035     78037     78033     78034
     78039     78043     78044     78040     78039     78042     78040     78039     78041
     78041     78039     78042     78043     78039     78042     78043     78039     78041
     78043     78039     78040     78045     78049     78050     78046     78045     78048
     78046     78045     78047     78047     78045     78048     78049     78045     78048
     78049     78045     78047     78049     78045     78046     78051     78055     78056
     78052     78051     78054     78052     78051     78053     78053     78051     78054
     78055     78051     78054     78055     78051     78053     78055     78051     78052
     78057     78061     78062     78058     78057     78060     78058     78057     78059
     78059     78057     78060     78061     78057     78060     78061     78057     78059
     78061     78057     78058     78063     78067     78068     78064     78063     78066
     78064     78063     78065     78065     78063     78066     78067     78063     78066
     78067     78063     78065     78067     78063     78064     78069     78073     78074
     78070     78069     78072     78070     78069     78071     78071     78069     78072
     78073     78069     78072     78073     78069     78071     78073     78069     78070
     78075     78079     78080     78076     78075     78078     78076     78075     78077
     78077     78075     78078     78079     78075     78078     78079     78075     78077
     78079     78075     78076     78081     78085     78086     78082     78081     78084
     78082     78081     78083     78083     78081     78084     78085     78081     78084
     78085     78081     78083     78085     78081     78082     78087     78091     78092
     78088     78087     78090     78088     78087     78089     78089     78087     78090
     78091     78087     78090     78091     78087     78089     78091     78087     78088
     78093     78097     78098     78094     78093     78096     78094     78093     78095
     78095     78093     78096     78097     78093     78096     78097     78093     78095
     78097     78093     78094     78099     78103     78104     78100     78099     78102
     78100     78099     78101     78101     78099     78102     78103     78099     78102
     78103     78099     78101     78103     78099     78100     78105     78109     78110
     78106     78105     78108     78106     78105     78107     78107     78105     78108
     78109     78105     78108     78109     78105     78107     78109     78105     78106
     78111     78115     78116     78112     78111     78114     78112     78111     78113
     78113     78111     78114     78115     78111     78114     78115     78111     78113
     78115     78111     78112     78117     78121     78122     78118     78117     78120
     78118     78117     78119     78119     78117     78120     78121     78117     78120
     78121     78117     78119     78121     78117     78118     78123     78127     78128
     78124     78123     78126     78124     78123     78125     78125     78123     78126
     78127     78123     78126     78127     78123     78125     78127     78123     78124
     78129     78133     78134     78130     78129     78132     78130     78129     78131
     78131     78129     78132     78133     78129     78132     78133     78129     78131
     78133     78129     78130     78135     78139     78140     78136     78135     78138
     78136     78135     78137     78137     78135     78138     78139     78135     78138
     78139     78135     78137     78139     78135     78136     78141     78145     78146
     78142     78141     78144     78142     78141     78143     78143     78141     78144
     78145     78141     78144     78145     78141     78143     78145     78141     78142
     78147     78151     78152     78148     78147     78150     78148     78147     78149
     78149     78147     78150     78151     78147     78150     78151     78147     78149
     78151     78147     78148     78153     78157     78158     78154     78153     78156
     78154     78153     78155     78155     78153     78156     78157     78153     78156
     78157     78153     78155     78157     78153     78154     78159     78163     78164
     78160     78159     78162     78160     78159     78161     78161     78159     78162
     78163     78159     78162     78163     78159     78161     78163     78159     78160
     78165     78169     78170     78166     78165     78168     78166     78165     78167
     78167     78165     78168     78169     78165     78168     78169     78165     78167
     78169     78165     78166     78171     78175     78176     78172     78171     78174
     78172     78171     78173     78173     78171     78174     78175     78171     78174
     78175     78171     78173     78175     78171     78172     78177     78181     78182
     78178     78177     78180     78178     78177     78179     78179     78177     78180
     78181     78177     78180     78181     78177     78179     78181     78177     78178
     78183     78187     78188     78184     78183     78186     78184     78183     78185
     78185     78183     78186     78187     78183     78186     78187     78183     78185
     78187     78183     78184     78189     78193     78194     78190     78189     78192
     78190     78189     78191     78191     78189     78192     78193     78189     78192
     78193     78189     78191     78193     78189     78190     78195     78199     78200
     78196     78195     78198     78196     78195     78197     78197     78195     78198
     78199     78195     78198     78199     78195     78197     78199     78195     78196
     78201     78205     78206     78202     78201     78204     78202     78201     78203
     78203     78201     78204     78205     78201     78204     78205     78201     78203
     78205     78201     78202     78207     78211     78212     78208     78207     78210
     78208     78207     78209     78209     78207     78210     78211     78207     78210
     78211     78207     78209     78211     78207     78208     78213     78217     78218
     78214     78213     78216     78214     78213     78215     78215     78213     78216
     78217     78213     78216     78217     78213     78215     78217     78213     78214
     78219     78223     78224     78220     78219     78222     78220     78219     78221
     78221     78219     78222     78223     78219     78222     78223     78219     78221
     78223     78219     78220     78225     78229     78230     78226     78225     78228
     78226     78225     78227     78227     78225     78228     78229     78225     78228
     78229     78225     78227     78229     78225     78226     78231     78235     78236
     78232     78231     78234     78232     78231     78233     78233     78231     78234
     78235     78231     78234     78235     78231     78233     78235     78231     78232
     78237     78241     78242     78238     78237     78240     78238     78237     78239
     78239     78237     78240     78241     78237     78240     78241     78237     78239
     78241     78237     78238     78243     78247     78248     78244     78243     78246
     78244     78243     78245     78245     78243     78246     78247     78243     78246
     78247     78243     78245     78247     78243     78244     78249     78253     78254
     78250     78249     78252     78250     78249     78251     78251     78249     78252
     78253     78249     78252     78253     78249     78251     78253     78249     78250
     78255     78259     78260     78256     78255     78258     78256     78255     78257
     78257     78255     78258     78259     78255     78258     78259     78255     78257
     78259     78255     78256     78261     78265     78266     78262     78261     78264
     78262     78261     78263     78263     78261     78264     78265     78261     78264
     78265     78261     78263     78265     78261     78262     78267     78271     78272
     78268     78267     78270     78268     78267     78269     78269     78267     78270
     78271     78267     78270     78271     78267     78269     78271     78267     78268
     78273     78277     78278     78274     78273     78276     78274     78273     78275
     78275     78273     78276     78277     78273     78276     78277     78273     78275
     78277     78273     78274     78279     78283     78284     78280     78279     78282
     78280     78279     78281     78281     78279     78282     78283     78279     78282
     78283     78279     78281     78283     78279     78280     78285     78289     78290
     78286     78285     78288     78286     78285     78287     78287     78285     78288
     78289     78285     78288     78289     78285     78287     78289     78285     78286
     78291     78295     78296     78292     78291     78294     78292     78291     78293
     78293     78291     78294     78295     78291     78294     78295     78291     78293
     78295     78291     78292     78297     78301     78302     78298     78297     78300
     78298     78297     78299     78299     78297     78300     78301     78297     78300
     78301     78297     78299     78301     78297     78298     78303     78307     78308
     78304     78303     78306     78304     78303     78305     78305     78303     78306
     78307     78303     78306     78307     78303     78305     78307     78303     78304
     78309     78313     78314     78310     78309     78312     78310     78309     78311
     78311     78309     78312     78313     78309     78312     78313     78309     78311
     78313     78309     78310     78315     78319     78320     78316     78315     78318
     78316     78315     78317     78317     78315     78318     78319     78315     78318
     78319     78315     78317     78319     78315     78316     78321     78325     78326
     78322     78321     78324     78322     78321     78323     78323     78321     78324
     78325     78321     78324     78325     78321     78323     78325     78321     78322
     78327     78331     78332     78328     78327     78330     78328     78327     78329
     78329     78327     78330     78331     78327     78330     78331     78327     78329
     78331     78327     78328     78333     78337     78338     78334     78333     78336
     78334     78333     78335     78335     78333     78336     78337     78333     78336
     78337     78333     78335     78337     78333     78334     78339     78343     78344
     78340     78339     78342     78340     78339     78341     78341     78339     78342
     78343     78339     78342     78343     78339     78341     78343     78339     78340
     78345     78349     78350     78346     78345     78348     78346     78345     78347
     78347     78345     78348     78349     78345     78348     78349     78345     78347
     78349     78345     78346     78351     78355     78356     78352     78351     78354
     78352     78351     78353     78353     78351     78354     78355     78351     78354
     78355     78351     78353     78355     78351     78352     78357     78361     78362
     78358     78357     78360     78358     78357     78359     78359     78357     78360
     78361     78357     78360     78361     78357     78359     78361     78357     78358
     78363     78367     78368     78364     78363     78366     78364     78363     78365
     78365     78363     78366     78367     78363     78366     78367     78363     78365
     78367     78363     78364     78369     78373     78374     78370     78369     78372
     78370     78369     78371     78371     78369     78372     78373     78369     78372
     78373     78369     78371     78373     78369     78370     78375     78379     78380
     78376     78375     78378     78376     78375     78377     78377     78375     78378
     78379     78375     78378     78379     78375     78377     78379     78375     78376
     78381     78385     78386     78382     78381     78384     78382     78381     78383
     78383     78381     78384     78385     78381     78384     78385     78381     78383
     78385     78381     78382     78387     78391     78392     78388     78387     78390
     78388     78387     78389     78389     78387     78390     78391     78387     78390
     78391     78387     78389     78391     78387     78388     78393     78397     78398
     78394     78393     78396     78394     78393     78395     78395     78393     78396
     78397     78393     78396     78397     78393     78395     78397     78393     78394
     78399     78403     78404     78400     78399     78402     78400     78399     78401
     78401     78399     78402     78403     78399     78402     78403     78399     78401
     78403     78399     78400     78405     78409     78410     78406     78405     78408
     78406     78405     78407     78407     78405     78408     78409     78405     78408
     78409     78405     78407     78409     78405     78406     78411     78415     78416
     78412     78411     78414     78412     78411     78413     78413     78411     78414
     78415     78411     78414     78415     78411     78413     78415     78411     78412
     78417     78421     78422     78418     78417     78420     78418     78417     78419
     78419     78417     78420     78421     78417     78420     78421     78417     78419
     78421     78417     78418     78423     78427     78428     78424     78423     78426
     78424     78423     78425     78425     78423     78426     78427     78423     78426
     78427     78423     78425     78427     78423     78424     78429     78433     78434
     78430     78429     78432     78430     78429     78431     78431     78429     78432
     78433     78429     78432     78433     78429     78431     78433     78429     78430
     78435     78439     78440     78436     78435     78438     78436     78435     78437
     78437     78435     78438     78439     78435     78438     78439     78435     78437
     78439     78435     78436     78441     78445     78446     78442     78441     78444
     78442     78441     78443     78443     78441     78444     78445     78441     78444
     78445     78441     78443     78445     78441     78442     78447     78451     78452
     78448     78447     78450     78448     78447     78449     78449     78447     78450
     78451     78447     78450     78451     78447     78449     78451     78447     78448
     78453     78457     78458     78454     78453     78456     78454     78453     78455
     78455     78453     78456     78457     78453     78456     78457     78453     78455
     78457     78453     78454     78459     78463     78464     78460     78459     78462
     78460     78459     78461     78461     78459     78462     78463     78459     78462
     78463     78459     78461     78463     78459     78460     78465     78469     78470
     78466     78465     78468     78466     78465     78467     78467     78465     78468
     78469     78465     78468     78469     78465     78467     78469     78465     78466
     78471     78475     78476     78472     78471     78474     78472     78471     78473
     78473     78471     78474     78475     78471     78474     78475     78471     78473
     78475     78471     78472     78477     78481     78482     78478     78477     78480
     78478     78477     78479     78479     78477     78480     78481     78477     78480
     78481     78477     78479     78481     78477     78478     78483     78487     78488
     78484     78483     78486     78484     78483     78485     78485     78483     78486
     78487     78483     78486     78487     78483     78485     78487     78483     78484
     78489     78493     78494     78490     78489     78492     78490     78489     78491
     78491     78489     78492     78493     78489     78492     78493     78489     78491
     78493     78489     78490     78495     78499     78500     78496     78495     78498
     78496     78495     78497     78497     78495     78498     78499     78495     78498
     78499     78495     78497     78499     78495     78496     78501     78505     78506
     78502     78501     78504     78502     78501     78503     78503     78501     78504
     78505     78501     78504     78505     78501     78503     78505     78501     78502
     78507     78511     78512     78508     78507     78510     78508     78507     78509
     78509     78507     78510     78511     78507     78510     78511     78507     78509
     78511     78507     78508     78513     78517     78518     78514     78513     78516
     78514     78513     78515     78515     78513     78516     78517     78513     78516
     78517     78513     78515     78517     78513     78514     78519     78523     78524
     78520     78519     78522     78520     78519     78521     78521     78519     78522
     78523     78519     78522     78523     78519     78521     78523     78519     78520
     78525     78529     78530     78526     78525     78528     78526     78525     78527
     78527     78525     78528     78529     78525     78528     78529     78525     78527
     78529     78525     78526     78531     78535     78536     78532     78531     78534
     78532     78531     78533     78533     78531     78534     78535     78531     78534
     78535     78531     78533     78535     78531     78532     78537     78541     78542
     78538     78537     78540     78538     78537     78539     78539     78537     78540
     78541     78537     78540     78541     78537     78539     78541     78537     78538
     78543     78547     78548     78544     78543     78546     78544     78543     78545
     78545     78543     78546     78547     78543     78546     78547     78543     78545
     78547     78543     78544     78549     78553     78554     78550     78549     78552
     78550     78549     78551     78551     78549     78552     78553     78549     78552
     78553     78549     78551     78553     78549     78550     78555     78559     78560
     78556     78555     78558     78556     78555     78557     78557     78555     78558
     78559     78555     78558     78559     78555     78557     78559     78555     78556
     78561     78565     78566     78562     78561     78564     78562     78561     78563
     78563     78561     78564     78565     78561     78564     78565     78561     78563
     78565     78561     78562     78567     78571     78572     78568     78567     78570
     78568     78567     78569     78569     78567     78570     78571     78567     78570
     78571     78567     78569     78571     78567     78568     78573     78577     78578
     78574     78573     78576     78574     78573     78575     78575     78573     78576
     78577     78573     78576     78577     78573     78575     78577     78573     78574
     78579     78583     78584     78580     78579     78582     78580     78579     78581
     78581     78579     78582     78583     78579     78582     78583     78579     78581
     78583     78579     78580     78585     78589     78590     78586     78585     78588
     78586     78585     78587     78587     78585     78588     78589     78585     78588
     78589     78585     78587     78589     78585     78586     78591     78595     78596
     78592     78591     78594     78592     78591     78593     78593     78591     78594
     78595     78591     78594     78595     78591     78593     78595     78591     78592
     78597     78601     78602     78598     78597     78600     78598     78597     78599
     78599     78597     78600     78601     78597     78600     78601     78597     78599
     78601     78597     78598     78603     78607     78608     78604     78603     78606
     78604     78603     78605     78605     78603     78606     78607     78603     78606
     78607     78603     78605     78607     78603     78604     78609     78613     78614
     78610     78609     78612     78610     78609     78611     78611     78609     78612
     78613     78609     78612     78613     78609     78611     78613     78609     78610
     78615     78619     78620     78616     78615     78618     78616     78615     78617
     78617     78615     78618     78619     78615     78618     78619     78615     78617
     78619     78615     78616     78621     78625     78626     78622     78621     78624
     78622     78621     78623     78623     78621     78624     78625     78621     78624
     78625     78621     78623     78625     78621     78622     78627     78631     78632
     78628     78627     78630     78628     78627     78629     78629     78627     78630
     78631     78627     78630     78631     78627     78629     78631     78627     78628
     78633     78637     78638     78634     78633     78636     78634     78633     78635
     78635     78633     78636     78637     78633     78636     78637     78633     78635
     78637     78633     78634     78639     78643     78644     78640     78639     78642
     78640     78639     78641     78641     78639     78642     78643     78639     78642
     78643     78639     78641     78643     78639     78640     78645     78649     78650
     78646     78645     78648     78646     78645     78647     78647     78645     78648
     78649     78645     78648     78649     78645     78647     78649     78645     78646
     78651     78655     78656     78652     78651     78654     78652     78651     78653
     78653     78651     78654     78655     78651     78654     78655     78651     78653
     78655     78651     78652     78657     78661     78662     78658     78657     78660
     78658     78657     78659     78659     78657     78660     78661     78657     78660
     78661     78657     78659     78661     78657     78658     78663     78667     78668
     78664     78663     78666     78664     78663     78665     78665     78663     78666
     78667     78663     78666     78667     78663     78665     78667     78663     78664
     78669     78673     78674     78670     78669     78672     78670     78669     78671
     78671     78669     78672     78673     78669     78672     78673     78669     78671
     78673     78669     78670     78675     78679     78680     78676     78675     78678
     78676     78675     78677     78677     78675     78678     78679     78675     78678
     78679     78675     78677     78679     78675     78676     78681     78685     78686
     78682     78681     78684     78682     78681     78683     78683     78681     78684
     78685     78681     78684     78685     78681     78683     78685     78681     78682
     78687     78691     78692     78688     78687     78690     78688     78687     78689
     78689     78687     78690     78691     78687     78690     78691     78687     78689
     78691     78687     78688     78693     78697     78698     78694     78693     78696
     78694     78693     78695     78695     78693     78696     78697     78693     78696
     78697     78693     78695     78697     78693     78694     78699     78703     78704
     78700     78699     78702     78700     78699     78701     78701     78699     78702
     78703     78699     78702     78703     78699     78701     78703     78699     78700
     78705     78709     78710     78706     78705     78708     78706     78705     78707
     78707     78705     78708     78709     78705     78708     78709     78705     78707
     78709     78705     78706     78711     78715     78716     78712     78711     78714
     78712     78711     78713     78713     78711     78714     78715     78711     78714
     78715     78711     78713     78715     78711     78712     78717     78721     78722
     78718     78717     78720     78718     78717     78719     78719     78717     78720
     78721     78717     78720     78721     78717     78719     78721     78717     78718
     78723     78727     78728     78724     78723     78726     78724     78723     78725
     78725     78723     78726     78727     78723     78726     78727     78723     78725
     78727     78723     78724     78729     78733     78734     78730     78729     78732
     78730     78729     78731     78731     78729     78732     78733     78729     78732
     78733     78729     78731     78733     78729     78730     78735     78739     78740
     78736     78735     78738     78736     78735     78737     78737     78735     78738
     78739     78735     78738     78739     78735     78737     78739     78735     78736
     78741     78745     78746     78742     78741     78744     78742     78741     78743
     78743     78741     78744     78745     78741     78744     78745     78741     78743
     78745     78741     78742     78747     78751     78752     78748     78747     78750
     78748     78747     78749     78749     78747     78750     78751     78747     78750
     78751     78747     78749     78751     78747     78748     78753     78757     78758
     78754     78753     78756     78754     78753     78755     78755     78753     78756
     78757     78753     78756     78757     78753     78755     78757     78753     78754
     78759     78763     78764     78760     78759     78762     78760     78759     78761
     78761     78759     78762     78763     78759     78762     78763     78759     78761
     78763     78759     78760     78765     78769     78770     78766     78765     78768
     78766     78765     78767     78767     78765     78768     78769     78765     78768
     78769     78765     78767     78769     78765     78766     78771     78775     78776
     78772     78771     78774     78772     78771     78773     78773     78771     78774
     78775     78771     78774     78775     78771     78773     78775     78771     78772
     78777     78781     78782     78778     78777     78780     78778     78777     78779
     78779     78777     78780     78781     78777     78780     78781     78777     78779
     78781     78777     78778     78783     78787     78788     78784     78783     78786
     78784     78783     78785     78785     78783     78786     78787     78783     78786
     78787     78783     78785     78787     78783     78784     78789     78793     78794
     78790     78789     78792     78790     78789     78791     78791     78789     78792
     78793     78789     78792     78793     78789     78791     78793     78789     78790
     78795     78799     78800     78796     78795     78798     78796     78795     78797
     78797     78795     78798     78799     78795     78798     78799     78795     78797
     78799     78795     78796     78801     78805     78806     78802     78801     78804
     78802     78801     78803     78803     78801     78804     78805     78801     78804
     78805     78801     78803     78805     78801     78802     78807     78811     78812
     78808     78807     78810     78808     78807     78809     78809     78807     78810
     78811     78807     78810     78811     78807     78809     78811     78807     78808
     78813     78817     78818     78814     78813     78816     78814     78813     78815
     78815     78813     78816     78817     78813     78816     78817     78813     78815
     78817     78813     78814     78819     78823     78824     78820     78819     78822
     78820     78819     78821     78821     78819     78822     78823     78819     78822
     78823     78819     78821     78823     78819     78820     78825     78829     78830
     78826     78825     78828     78826     78825     78827     78827     78825     78828
     78829     78825     78828     78829     78825     78827     78829     78825     78826
     78831     78835     78836     78832     78831     78834     78832     78831     78833
     78833     78831     78834     78835     78831     78834     78835     78831     78833
     78835     78831     78832     78837     78841     78842     78838     78837     78840
     78838     78837     78839     78839     78837     78840     78841     78837     78840
     78841     78837     78839     78841     78837     78838     78843     78847     78848
     78844     78843     78846     78844     78843     78845     78845     78843     78846
     78847     78843     78846     78847     78843     78845     78847     78843     78844
     78849     78853     78854     78850     78849     78852     78850     78849     78851
     78851     78849     78852     78853     78849     78852     78853     78849     78851
     78853     78849     78850     78855     78859     78860     78856     78855     78858
     78856     78855     78857     78857     78855     78858     78859     78855     78858
     78859     78855     78857     78859     78855     78856     78861     78865     78866
     78862     78861     78864     78862     78861     78863     78863     78861     78864
     78865     78861     78864     78865     78861     78863     78865     78861     78862
     78867     78871     78872     78868     78867     78870     78868     78867     78869
     78869     78867     78870     78871     78867     78870     78871     78867     78869
     78871     78867     78868     78873     78877     78878     78874     78873     78876
     78874     78873     78875     78875     78873     78876     78877     78873     78876
     78877     78873     78875     78877     78873     78874     78879     78883     78884
     78880     78879     78882     78880     78879     78881     78881     78879     78882
     78883     78879     78882     78883     78879     78881     78883     78879     78880
     78885     78889     78890     78886     78885     78888     78886     78885     78887
     78887     78885     78888     78889     78885     78888     78889     78885     78887
     78889     78885     78886     78891     78895     78896     78892     78891     78894
     78892     78891     78893     78893     78891     78894     78895     78891     78894
     78895     78891     78893     78895     78891     78892     78897     78901     78902
     78898     78897     78900     78898     78897     78899     78899     78897     78900
     78901     78897     78900     78901     78897     78899     78901     78897     78898
     78903     78907     78908     78904     78903     78906     78904     78903     78905
     78905     78903     78906     78907     78903     78906     78907     78903     78905
     78907     78903     78904     78909     78913     78914     78910     78909     78912
     78910     78909     78911     78911     78909     78912     78913     78909     78912
     78913     78909     78911     78913     78909     78910     78915     78919     78920
     78916     78915     78918     78916     78915     78917     78917     78915     78918
     78919     78915     78918     78919     78915     78917     78919     78915     78916
     78921     78925     78926     78922     78921     78924     78922     78921     78923
     78923     78921     78924     78925     78921     78924     78925     78921     78923
     78925     78921     78922     78927     78931     78932     78928     78927     78930
     78928     78927     78929     78929     78927     78930     78931     78927     78930
     78931     78927     78929     78931     78927     78928     78933     78937     78938
     78934     78933     78936     78934     78933     78935     78935     78933     78936
     78937     78933     78936     78937     78933     78935     78937     78933     78934
     78939     78943     78944     78940     78939     78942     78940     78939     78941
     78941     78939     78942     78943     78939     78942     78943     78939     78941
     78943     78939     78940     78945     78949     78950     78946     78945     78948
     78946     78945     78947     78947     78945     78948     78949     78945     78948
     78949     78945     78947     78949     78945     78946     78951     78955     78956
     78952     78951     78954     78952     78951     78953     78953     78951     78954
     78955     78951     78954     78955     78951     78953     78955     78951     78952
     78957     78961     78962     78958     78957     78960     78958     78957     78959
     78959     78957     78960     78961     78957     78960     78961     78957     78959
     78961     78957     78958     78963     78967     78968     78964     78963     78966
     78964     78963     78965     78965     78963     78966     78967     78963     78966
     78967     78963     78965     78967     78963     78964     78969     78973     78974
     78970     78969     78972     78970     78969     78971     78971     78969     78972
     78973     78969     78972     78973     78969     78971     78973     78969     78970
     78975     78979     78980     78976     78975     78978     78976     78975     78977
     78977     78975     78978     78979     78975     78978     78979     78975     78977
     78979     78975     78976     78981     78985     78986     78982     78981     78984
     78982     78981     78983     78983     78981     78984     78985     78981     78984
     78985     78981     78983     78985     78981     78982     78987     78991     78992
     78988     78987     78990     78988     78987     78989     78989     78987     78990
     78991     78987     78990     78991     78987     78989     78991     78987     78988
     78993     78997     78998     78994     78993     78996     78994     78993     78995
     78995     78993     78996     78997     78993     78996     78997     78993     78995
     78997     78993     78994     78999     79003     79004     79000     78999     79002
     79000     78999     79001     79001     78999     79002     79003     78999     79002
     79003     78999     79001     79003     78999     79000     79005     79009     79010
     79006     79005     79008     79006     79005     79007     79007     79005     79008
     79009     79005     79008     79009     79005     79007     79009     79005     79006
     79011     79015     79016     79012     79011     79014     79012     79011     79013
     79013     79011     79014     79015     79011     79014     79015     79011     79013
     79015     79011     79012     79017     79021     79022     79018     79017     79020
     79018     79017     79019     79019     79017     79020     79021     79017     79020
     79021     79017     79019     79021     79017     79018     79023     79027     79028
     79024     79023     79026     79024     79023     79025     79025     79023     79026
     79027     79023     79026     79027     79023     79025     79027     79023     79024
     79029     79033     79034     79030     79029     79032     79030     79029     79031
     79031     79029     79032     79033     79029     79032     79033     79029     79031
     79033     79029     79030     79035     79039     79040     79036     79035     79038
     79036     79035     79037     79037     79035     79038     79039     79035     79038
     79039     79035     79037     79039     79035     79036     79041     79045     79046
     79042     79041     79044     79042     79041     79043     79043     79041     79044
     79045     79041     79044     79045     79041     79043     79045     79041     79042
     79047     79051     79052     79048     79047     79050     79048     79047     79049
     79049     79047     79050     79051     79047     79050     79051     79047     79049
     79051     79047     79048     79053     79057     79058     79054     79053     79056
     79054     79053     79055     79055     79053     79056     79057     79053     79056
     79057     79053     79055     79057     79053     79054     79059     79063     79064
     79060     79059     79062     79060     79059     79061     79061     79059     79062
     79063     79059     79062     79063     79059     79061     79063     79059     79060
     79065     79069     79070     79066     79065     79068     79066     79065     79067
     79067     79065     79068     79069     79065     79068     79069     79065     79067
     79069     79065     79066     79071     79075     79076     79072     79071     79074
     79072     79071     79073     79073     79071     79074     79075     79071     79074
     79075     79071     79073     79075     79071     79072     79077     79081     79082
     79078     79077     79080     79078     79077     79079     79079     79077     79080
     79081     79077     79080     79081     79077     79079     79081     79077     79078
     79083     79087     79088     79084     79083     79086     79084     79083     79085
     79085     79083     79086     79087     79083     79086     79087     79083     79085
     79087     79083     79084     79089     79093     79094     79090     79089     79092
     79090     79089     79091     79091     79089     79092     79093     79089     79092
     79093     79089     79091     79093     79089     79090     79095     79099     79100
     79096     79095     79098     79096     79095     79097     79097     79095     79098
     79099     79095     79098     79099     79095     79097     79099     79095     79096
     79101     79105     79106     79102     79101     79104     79102     79101     79103
     79103     79101     79104     79105     79101     79104     79105     79101     79103
     79105     79101     79102     79107     79111     79112     79108     79107     79110
     79108     79107     79109     79109     79107     79110     79111     79107     79110
     79111     79107     79109     79111     79107     79108     79113     79117     79118
     79114     79113     79116     79114     79113     79115     79115     79113     79116
     79117     79113     79116     79117     79113     79115     79117     79113     79114
     79119     79123     79124     79120     79119     79122     79120     79119     79121
     79121     79119     79122     79123     79119     79122     79123     79119     79121
     79123     79119     79120     79125     79129     79130     79126     79125     79128
     79126     79125     79127     79127     79125     79128     79129     79125     79128
     79129     79125     79127     79129     79125     79126     79131     79135     79136
     79132     79131     79134     79132     79131     79133     79133     79131     79134
     79135     79131     79134     79135     79131     79133     79135     79131     79132
     79137     79141     79142     79138     79137     79140     79138     79137     79139
     79139     79137     79140     79141     79137     79140     79141     79137     79139
     79141     79137     79138     79143     79147     79148     79144     79143     79146
     79144     79143     79145     79145     79143     79146     79147     79143     79146
     79147     79143     79145     79147     79143     79144     79149     79153     79154
     79150     79149     79152     79150     79149     79151     79151     79149     79152
     79153     79149     79152     79153     79149     79151     79153     79149     79150
     79155     79159     79160     79156     79155     79158     79156     79155     79157
     79157     79155     79158     79159     79155     79158     79159     79155     79157
     79159     79155     79156     79161     79165     79166     79162     79161     79164
     79162     79161     79163     79163     79161     79164     79165     79161     79164
     79165     79161     79163     79165     79161     79162     79167     79171     79172
     79168     79167     79170     79168     79167     79169     79169     79167     79170
     79171     79167     79170     79171     79167     79169     79171     79167     79168
     79173     79177     79178     79174     79173     79176     79174     79173     79175
     79175     79173     79176     79177     79173     79176     79177     79173     79175
     79177     79173     79174     79179     79183     79184     79180     79179     79182
     79180     79179     79181     79181     79179     79182     79183     79179     79182
     79183     79179     79181     79183     79179     79180     79185     79189     79190
     79186     79185     79188     79186     79185     79187     79187     79185     79188
     79189     79185     79188     79189     79185     79187     79189     79185     79186
     79191     79195     79196     79192     79191     79194     79192     79191     79193
     79193     79191     79194     79195     79191     79194     79195     79191     79193
     79195     79191     79192     79197     79201     79202     79198     79197     79200
     79198     79197     79199     79199     79197     79200     79201     79197     79200
     79201     79197     79199     79201     79197     79198     79203     79207     79208
     79204     79203     79206     79204     79203     79205     79205     79203     79206
     79207     79203     79206     79207     79203     79205     79207     79203     79204
     79209     79213     79214     79210     79209     79212     79210     79209     79211
     79211     79209     79212     79213     79209     79212     79213     79209     79211
     79213     79209     79210     79215     79219     79220     79216     79215     79218
     79216     79215     79217     79217     79215     79218     79219     79215     79218
     79219     79215     79217     79219     79215     79216     79221     79225     79226
     79222     79221     79224     79222     79221     79223     79223     79221     79224
     79225     79221     79224     79225     79221     79223     79225     79221     79222
     79227     79231     79232     79228     79227     79230     79228     79227     79229
     79229     79227     79230     79231     79227     79230     79231     79227     79229
     79231     79227     79228     79233     79237     79238     79234     79233     79236
     79234     79233     79235     79235     79233     79236     79237     79233     79236
     79237     79233     79235     79237     79233     79234     79239     79243     79244
     79240     79239     79242     79240     79239     79241     79241     79239     79242
     79243     79239     79242     79243     79239     79241     79243     79239     79240
     79245     79249     79250     79246     79245     79248     79246     79245     79247
     79247     79245     79248     79249     79245     79248     79249     79245     79247
     79249     79245     79246     79251     79255     79256     79252     79251     79254
     79252     79251     79253     79253     79251     79254     79255     79251     79254
     79255     79251     79253     79255     79251     79252     79257     79261     79262
     79258     79257     79260     79258     79257     79259     79259     79257     79260
     79261     79257     79260     79261     79257     79259     79261     79257     79258
     79263     79267     79268     79264     79263     79266     79264     79263     79265
     79265     79263     79266     79267     79263     79266     79267     79263     79265
     79267     79263     79264     79269     79273     79274     79270     79269     79272
     79270     79269     79271     79271     79269     79272     79273     79269     79272
     79273     79269     79271     79273     79269     79270     79275     79279     79280
     79276     79275     79278     79276     79275     79277     79277     79275     79278
     79279     79275     79278     79279     79275     79277     79279     79275     79276
     79281     79285     79286     79282     79281     79284     79282     79281     79283
     79283     79281     79284     79285     79281     79284     79285     79281     79283
     79285     79281     79282     79287     79291     79292     79288     79287     79290
     79288     79287     79289     79289     79287     79290     79291     79287     79290
     79291     79287     79289     79291     79287     79288     79293     79297     79298
     79294     79293     79296     79294     79293     79295     79295     79293     79296
     79297     79293     79296     79297     79293     79295     79297     79293     79294
     79299     79303     79304     79300     79299     79302     79300     79299     79301
     79301     79299     79302     79303     79299     79302     79303     79299     79301
     79303     79299     79300     79305     79309     79310     79306     79305     79308
     79306     79305     79307     79307     79305     79308     79309     79305     79308
     79309     79305     79307     79309     79305     79306     79311     79315     79316
     79312     79311     79314     79312     79311     79313     79313     79311     79314
     79315     79311     79314     79315     79311     79313     79315     79311     79312
     79317     79321     79322     79318     79317     79320     79318     79317     79319
     79319     79317     79320     79321     79317     79320     79321     79317     79319
     79321     79317     79318     79323     79327     79328     79324     79323     79326
     79324     79323     79325     79325     79323     79326     79327     79323     79326
     79327     79323     79325     79327     79323     79324     79329     79333     79334
     79330     79329     79332     79330     79329     79331     79331     79329     79332
     79333     79329     79332     79333     79329     79331     79333     79329     79330
     79335     79339     79340     79336     79335     79338     79336     79335     79337
     79337     79335     79338     79339     79335     79338     79339     79335     79337
     79339     79335     79336     79341     79345     79346     79342     79341     79344
     79342     79341     79343     79343     79341     79344     79345     79341     79344
     79345     79341     79343     79345     79341     79342     79347     79351     79352
     79348     79347     79350     79348     79347     79349     79349     79347     79350
     79351     79347     79350     79351     79347     79349     79351     79347     79348
     79353     79357     79358     79354     79353     79356     79354     79353     79355
     79355     79353     79356     79357     79353     79356     79357     79353     79355
     79357     79353     79354     79359     79363     79364     79360     79359     79362
     79360     79359     79361     79361     79359     79362     79363     79359     79362
     79363     79359     79361     79363     79359     79360     79365     79369     79370
     79366     79365     79368     79366     79365     79367     79367     79365     79368
     79369     79365     79368     79369     79365     79367     79369     79365     79366
     79371     79375     79376     79372     79371     79374     79372     79371     79373
     79373     79371     79374     79375     79371     79374     79375     79371     79373
     79375     79371     79372     79377     79381     79382     79378     79377     79380
     79378     79377     79379     79379     79377     79380     79381     79377     79380
     79381     79377     79379     79381     79377     79378     79383     79387     79388
     79384     79383     79386     79384     79383     79385     79385     79383     79386
     79387     79383     79386     79387     79383     79385     79387     79383     79384
     79389     79393     79394     79390     79389     79392     79390     79389     79391
     79391     79389     79392     79393     79389     79392     79393     79389     79391
     79393     79389     79390     79395     79399     79400     79396     79395     79398
     79396     79395     79397     79397     79395     79398     79399     79395     79398
     79399     79395     79397     79399     79395     79396     79401     79405     79406
     79402     79401     79404     79402     79401     79403     79403     79401     79404
     79405     79401     79404     79405     79401     79403     79405     79401     79402
     79407     79411     79412     79408     79407     79410     79408     79407     79409
     79409     79407     79410     79411     79407     79410     79411     79407     79409
     79411     79407     79408     79413     79417     79418     79414     79413     79416
     79414     79413     79415     79415     79413     79416     79417     79413     79416
     79417     79413     79415     79417     79413     79414     79419     79423     79424
     79420     79419     79422     79420     79419     79421     79421     79419     79422
     79423     79419     79422     79423     79419     79421     79423     79419     79420
     79425     79429     79430     79426     79425     79428     79426     79425     79427
     79427     79425     79428     79429     79425     79428     79429     79425     79427
     79429     79425     79426     79431     79435     79436     79432     79431     79434
     79432     79431     79433     79433     79431     79434     79435     79431     79434
     79435     79431     79433     79435     79431     79432     79437     79441     79442
     79438     79437     79440     79438     79437     79439     79439     79437     79440
     79441     79437     79440     79441     79437     79439     79441     79437     79438
     79443     79447     79448     79444     79443     79446     79444     79443     79445
     79445     79443     79446     79447     79443     79446     79447     79443     79445
     79447     79443     79444     79449     79453     79454     79450     79449     79452
     79450     79449     79451     79451     79449     79452     79453     79449     79452
     79453     79449     79451     79453     79449     79450     79455     79459     79460
     79456     79455     79458     79456     79455     79457     79457     79455     79458
     79459     79455     79458     79459     79455     79457     79459     79455     79456
     79461     79465     79466     79462     79461     79464     79462     79461     79463
     79463     79461     79464     79465     79461     79464     79465     79461     79463
     79465     79461     79462     79467     79471     79472     79468     79467     79470
     79468     79467     79469     79469     79467     79470     79471     79467     79470
     79471     79467     79469     79471     79467     79468     79473     79477     79478
     79474     79473     79476     79474     79473     79475     79475     79473     79476
     79477     79473     79476     79477     79473     79475     79477     79473     79474
     79479     79483     79484     79480     79479     79482     79480     79479     79481
     79481     79479     79482     79483     79479     79482     79483     79479     79481
     79483     79479     79480     79485     79489     79490     79486     79485     79488
     79486     79485     79487     79487     79485     79488     79489     79485     79488
     79489     79485     79487     79489     79485     79486     79491     79495     79496
     79492     79491     79494     79492     79491     79493     79493     79491     79494
     79495     79491     79494     79495     79491     79493     79495     79491     79492
     79497     79501     79502     79498     79497     79500     79498     79497     79499
     79499     79497     79500     79501     79497     79500     79501     79497     79499
     79501     79497     79498     79503     79507     79508     79504     79503     79506
     79504     79503     79505     79505     79503     79506     79507     79503     79506
     79507     79503     79505     79507     79503     79504     79509     79513     79514
     79510     79509     79512     79510     79509     79511     79511     79509     79512
     79513     79509     79512     79513     79509     79511     79513     79509     79510
     79515     79519     79520     79516     79515     79518     79516     79515     79517
     79517     79515     79518     79519     79515     79518     79519     79515     79517
     79519     79515     79516     79521     79525     79526     79522     79521     79524
     79522     79521     79523     79523     79521     79524     79525     79521     79524
     79525     79521     79523     79525     79521     79522     79527     79531     79532
     79528     79527     79530     79528     79527     79529     79529     79527     79530
     79531     79527     79530     79531     79527     79529     79531     79527     79528
     79533     79537     79538     79534     79533     79536     79534     79533     79535
     79535     79533     79536     79537     79533     79536     79537     79533     79535
     79537     79533     79534     79539     79543     79544     79540     79539     79542
     79540     79539     79541     79541     79539     79542     79543     79539     79542
     79543     79539     79541     79543     79539     79540     79545     79549     79550
     79546     79545     79548     79546     79545     79547     79547     79545     79548
     79549     79545     79548     79549     79545     79547     79549     79545     79546
     79551     79555     79556     79552     79551     79554     79552     79551     79553
     79553     79551     79554     79555     79551     79554     79555     79551     79553
     79555     79551     79552     79557     79561     79562     79558     79557     79560
     79558     79557     79559     79559     79557     79560     79561     79557     79560
     79561     79557     79559     79561     79557     79558     79563     79567     79568
     79564     79563     79566     79564     79563     79565     79565     79563     79566
     79567     79563     79566     79567     79563     79565     79567     79563     79564
     79569     79573     79574     79570     79569     79572     79570     79569     79571
     79571     79569     79572     79573     79569     79572     79573     79569     79571
     79573     79569     79570     79575     79579     79580     79576     79575     79578
     79576     79575     79577     79577     79575     79578     79579     79575     79578
     79579     79575     79577     79579     79575     79576     79581     79585     79586
     79582     79581     79584     79582     79581     79583     79583     79581     79584
     79585     79581     79584     79585     79581     79583     79585     79581     79582
     79587     79591     79592     79588     79587     79590     79588     79587     79589
     79589     79587     79590     79591     79587     79590     79591     79587     79589
     79591     79587     79588     79593     79597     79598     79594     79593     79596
     79594     79593     79595     79595     79593     79596     79597     79593     79596
     79597     79593     79595     79597     79593     79594     79599     79603     79604
     79600     79599     79602     79600     79599     79601     79601     79599     79602
     79603     79599     79602     79603     79599     79601     79603     79599     79600
     79605     79609     79610     79606     79605     79608     79606     79605     79607
     79607     79605     79608     79609     79605     79608     79609     79605     79607
     79609     79605     79606     79611     79615     79616     79612     79611     79614
     79612     79611     79613     79613     79611     79614     79615     79611     79614
     79615     79611     79613     79615     79611     79612     79617     79621     79622
     79618     79617     79620     79618     79617     79619     79619     79617     79620
     79621     79617     79620     79621     79617     79619     79621     79617     79618
     79623     79627     79628     79624     79623     79626     79624     79623     79625
     79625     79623     79626     79627     79623     79626     79627     79623     79625
     79627     79623     79624     79629     79633     79634     79630     79629     79632
     79630     79629     79631     79631     79629     79632     79633     79629     79632
     79633     79629     79631     79633     79629     79630     79635     79639     79640
     79636     79635     79638     79636     79635     79637     79637     79635     79638
     79639     79635     79638     79639     79635     79637     79639     79635     79636
     79641     79645     79646     79642     79641     79644     79642     79641     79643
     79643     79641     79644     79645     79641     79644     79645     79641     79643
     79645     79641     79642     79647     79651     79652     79648     79647     79650
     79648     79647     79649     79649     79647     79650     79651     79647     79650
     79651     79647     79649     79651     79647     79648     79653     79657     79658
     79654     79653     79656     79654     79653     79655     79655     79653     79656
     79657     79653     79656     79657     79653     79655     79657     79653     79654
     79659     79663     79664     79660     79659     79662     79660     79659     79661
     79661     79659     79662     79663     79659     79662     79663     79659     79661
     79663     79659     79660     79665     79669     79670     79666     79665     79668
     79666     79665     79667     79667     79665     79668     79669     79665     79668
     79669     79665     79667     79669     79665     79666     79671     79675     79676
     79672     79671     79674     79672     79671     79673     79673     79671     79674
     79675     79671     79674     79675     79671     79673     79675     79671     79672
     79677     79681     79682     79678     79677     79680     79678     79677     79679
     79679     79677     79680     79681     79677     79680     79681     79677     79679
     79681     79677     79678     79683     79687     79688     79684     79683     79686
     79684     79683     79685     79685     79683     79686     79687     79683     79686
     79687     79683     79685     79687     79683     79684     79689     79693     79694
     79690     79689     79692     79690     79689     79691     79691     79689     79692
     79693     79689     79692     79693     79689     79691     79693     79689     79690
     79695     79699     79700     79696     79695     79698     79696     79695     79697
     79697     79695     79698     79699     79695     79698     79699     79695     79697
     79699     79695     79696     79701     79705     79706     79702     79701     79704
     79702     79701     79703     79703     79701     79704     79705     79701     79704
     79705     79701     79703     79705     79701     79702     79707     79711     79712
     79708     79707     79710     79708     79707     79709     79709     79707     79710
     79711     79707     79710     79711     79707     79709     79711     79707     79708
     79713     79717     79718     79714     79713     79716     79714     79713     79715
     79715     79713     79716     79717     79713     79716     79717     79713     79715
     79717     79713     79714     79719     79723     79724     79720     79719     79722
     79720     79719     79721     79721     79719     79722     79723     79719     79722
     79723     79719     79721     79723     79719     79720     79725     79729     79730
     79726     79725     79728     79726     79725     79727     79727     79725     79728
     79729     79725     79728     79729     79725     79727     79729     79725     79726
     79731     79735     79736     79732     79731     79734     79732     79731     79733
     79733     79731     79734     79735     79731     79734     79735     79731     79733
     79735     79731     79732     79737     79741     79742     79738     79737     79740
     79738     79737     79739     79739     79737     79740     79741     79737     79740
     79741     79737     79739     79741     79737     79738     79743     79747     79748
     79744     79743     79746     79744     79743     79745     79745     79743     79746
     79747     79743     79746     79747     79743     79745     79747     79743     79744
     79749     79753     79754     79750     79749     79752     79750     79749     79751
     79751     79749     79752     79753     79749     79752     79753     79749     79751
     79753     79749     79750     79755     79759     79760     79756     79755     79758
     79756     79755     79757     79757     79755     79758     79759     79755     79758
     79759     79755     79757     79759     79755     79756     79761     79765     79766
     79762     79761     79764     79762     79761     79763     79763     79761     79764
     79765     79761     79764     79765     79761     79763     79765     79761     79762
     79767     79771     79772     79768     79767     79770     79768     79767     79769
     79769     79767     79770     79771     79767     79770     79771     79767     79769
     79771     79767     79768     79773     79777     79778     79774     79773     79776
     79774     79773     79775     79775     79773     79776     79777     79773     79776
     79777     79773     79775     79777     79773     79774     79779     79783     79784
     79780     79779     79782     79780     79779     79781     79781     79779     79782
     79783     79779     79782     79783     79779     79781     79783     79779     79780
     79785     79789     79790     79786     79785     79788     79786     79785     79787
     79787     79785     79788     79789     79785     79788     79789     79785     79787
     79789     79785     79786     79791     79795     79796     79792     79791     79794
     79792     79791     79793     79793     79791     79794     79795     79791     79794
     79795     79791     79793     79795     79791     79792     79797     79801     79802
     79798     79797     79800     79798     79797     79799     79799     79797     79800
     79801     79797     79800     79801     79797     79799     79801     79797     79798
     79803     79807     79808     79804     79803     79806     79804     79803     79805
     79805     79803     79806     79807     79803     79806     79807     79803     79805
     79807     79803     79804     79809     79813     79814     79810     79809     79812
     79810     79809     79811     79811     79809     79812     79813     79809     79812
     79813     79809     79811     79813     79809     79810     79815     79819     79820
     79816     79815     79818     79816     79815     79817     79817     79815     79818
     79819     79815     79818     79819     79815     79817     79819     79815     79816
     79821     79825     79826     79822     79821     79824     79822     79821     79823
     79823     79821     79824     79825     79821     79824     79825     79821     79823
     79825     79821     79822     79827     79831     79832     79828     79827     79830
     79828     79827     79829     79829     79827     79830     79831     79827     79830
     79831     79827     79829     79831     79827     79828     79833     79837     79838
     79834     79833     79836     79834     79833     79835     79835     79833     79836
     79837     79833     79836     79837     79833     79835     79837     79833     79834
     79839     79843     79844     79840     79839     79842     79840     79839     79841
     79841     79839     79842     79843     79839     79842     79843     79839     79841
     79843     79839     79840     79845     79849     79850     79846     79845     79848
     79846     79845     79847     79847     79845     79848     79849     79845     79848
     79849     79845     79847     79849     79845     79846     79851     79855     79856
     79852     79851     79854     79852     79851     79853     79853     79851     79854
     79855     79851     79854     79855     79851     79853     79855     79851     79852
     79857     79861     79862     79858     79857     79860     79858     79857     79859
     79859     79857     79860     79861     79857     79860     79861     79857     79859
     79861     79857     79858     79863     79867     79868     79864     79863     79866
     79864     79863     79865     79865     79863     79866     79867     79863     79866
     79867     79863     79865     79867     79863     79864     79869     79873     79874
     79870     79869     79872     79870     79869     79871     79871     79869     79872
     79873     79869     79872     79873     79869     79871     79873     79869     79870
     79875     79879     79880     79876     79875     79878     79876     79875     79877
     79877     79875     79878     79879     79875     79878     79879     79875     79877
     79879     79875     79876     79881     79885     79886     79882     79881     79884
     79882     79881     79883     79883     79881     79884     79885     79881     79884
     79885     79881     79883     79885     79881     79882     79887     79891     79892
     79888     79887     79890     79888     79887     79889     79889     79887     79890
     79891     79887     79890     79891     79887     79889     79891     79887     79888
     79893     79897     79898     79894     79893     79896     79894     79893     79895
     79895     79893     79896     79897     79893     79896     79897     79893     79895
     79897     79893     79894     79899     79903     79904     79900     79899     79902
     79900     79899     79901     79901     79899     79902     79903     79899     79902
     79903     79899     79901     79903     79899     79900     79905     79909     79910
     79906     79905     79908     79906     79905     79907     79907     79905     79908
     79909     79905     79908     79909     79905     79907     79909     79905     79906
     79911     79915     79916     79912     79911     79914     79912     79911     79913
     79913     79911     79914     79915     79911     79914     79915     79911     79913
     79915     79911     79912     79917     79921     79922     79918     79917     79920
     79918     79917     79919     79919     79917     79920     79921     79917     79920
     79921     79917     79919     79921     79917     79918     79923     79927     79928
     79924     79923     79926     79924     79923     79925     79925     79923     79926
     79927     79923     79926     79927     79923     79925     79927     79923     79924
     79929     79933     79934     79930     79929     79932     79930     79929     79931
     79931     79929     79932     79933     79929     79932     79933     79929     79931
     79933     79929     79930     79935     79939     79940     79936     79935     79938
     79936     79935     79937     79937     79935     79938     79939     79935     79938
     79939     79935     79937     79939     79935     79936     79941     79945     79946
     79942     79941     79944     79942     79941     79943     79943     79941     79944
     79945     79941     79944     79945     79941     79943     79945     79941     79942
     79947     79951     79952     79948     79947     79950     79948     79947     79949
     79949     79947     79950     79951     79947     79950     79951     79947     79949
     79951     79947     79948     79953     79957     79958     79954     79953     79956
     79954     79953     79955     79955     79953     79956     79957     79953     79956
     79957     79953     79955     79957     79953     79954     79959     79963     79964
     79960     79959     79962     79960     79959     79961     79961     79959     79962
     79963     79959     79962     79963     79959     79961     79963     79959     79960
     79965     79969     79970     79966     79965     79968     79966     79965     79967
     79967     79965     79968     79969     79965     79968     79969     79965     79967
     79969     79965     79966     79971     79975     79976     79972     79971     79974
     79972     79971     79973     79973     79971     79974     79975     79971     79974
     79975     79971     79973     79975     79971     79972     79977     79981     79982
     79978     79977     79980     79978     79977     79979     79979     79977     79980
     79981     79977     79980     79981     79977     79979     79981     79977     79978
     79983     79987     79988     79984     79983     79986     79984     79983     79985
     79985     79983     79986     79987     79983     79986     79987     79983     79985
     79987     79983     79984     79989     79993     79994     79990     79989     79992
     79990     79989     79991     79991     79989     79992     79993     79989     79992
     79993     79989     79991     79993     79989     79990     79995     79999     80000
     79996     79995     79998     79996     79995     79997     79997     79995     79998
     79999     79995     79998     79999     79995     79997     79999     79995     79996
     80001     80005     80006     80002     80001     80004     80002     80001     80003
     80003     80001     80004     80005     80001     80004     80005     80001     80003
     80005     80001     80002     80007     80011     80012     80008     80007     80010
     80008     80007     80009     80009     80007     80010     80011     80007     80010
     80011     80007     80009     80011     80007     80008     80013     80017     80018
     80014     80013     80016     80014     80013     80015     80015     80013     80016
     80017     80013     80016     80017     80013     80015     80017     80013     80014
     80019     80023     80024     80020     80019     80022     80020     80019     80021
     80021     80019     80022     80023     80019     80022     80023     80019     80021
     80023     80019     80020     80025     80029     80030     80026     80025     80028
     80026     80025     80027     80027     80025     80028     80029     80025     80028
     80029     80025     80027     80029     80025     80026     80031     80035     80036
     80032     80031     80034     80032     80031     80033     80033     80031     80034
     80035     80031     80034     80035     80031     80033     80035     80031     80032
     80037     80041     80042     80038     80037     80040     80038     80037     80039
     80039     80037     80040     80041     80037     80040     80041     80037     80039
     80041     80037     80038     80043     80047     80048     80044     80043     80046
     80044     80043     80045     80045     80043     80046     80047     80043     80046
     80047     80043     80045     80047     80043     80044     80049     80053     80054
     80050     80049     80052     80050     80049     80051     80051     80049     80052
     80053     80049     80052     80053     80049     80051     80053     80049     80050
     80055     80059     80060     80056     80055     80058     80056     80055     80057
     80057     80055     80058     80059     80055     80058     80059     80055     80057
     80059     80055     80056     80061     80065     80066     80062     80061     80064
     80062     80061     80063     80063     80061     80064     80065     80061     80064
     80065     80061     80063     80065     80061     80062     80067     80071     80072
     80068     80067     80070     80068     80067     80069     80069     80067     80070
     80071     80067     80070     80071     80067     80069     80071     80067     80068
     80073     80077     80078     80074     80073     80076     80074     80073     80075
     80075     80073     80076     80077     80073     80076     80077     80073     80075
     80077     80073     80074     80079     80083     80084     80080     80079     80082
     80080     80079     80081     80081     80079     80082     80083     80079     80082
     80083     80079     80081     80083     80079     80080     80085     80089     80090
     80086     80085     80088     80086     80085     80087     80087     80085     80088
     80089     80085     80088     80089     80085     80087     80089     80085     80086
     80091     80095     80096     80092     80091     80094     80092     80091     80093
     80093     80091     80094     80095     80091     80094     80095     80091     80093
     80095     80091     80092     80097     80101     80102     80098     80097     80100
     80098     80097     80099     80099     80097     80100     80101     80097     80100
     80101     80097     80099     80101     80097     80098     80103     80107     80108
     80104     80103     80106     80104     80103     80105     80105     80103     80106
     80107     80103     80106     80107     80103     80105     80107     80103     80104
     80109     80113     80114     80110     80109     80112     80110     80109     80111
     80111     80109     80112     80113     80109     80112     80113     80109     80111
     80113     80109     80110     80115     80119     80120     80116     80115     80118
     80116     80115     80117     80117     80115     80118     80119     80115     80118
     80119     80115     80117     80119     80115     80116     80121     80125     80126
     80122     80121     80124     80122     80121     80123     80123     80121     80124
     80125     80121     80124     80125     80121     80123     80125     80121     80122
     80127     80131     80132     80128     80127     80130     80128     80127     80129
     80129     80127     80130     80131     80127     80130     80131     80127     80129
     80131     80127     80128     80133     80137     80138     80134     80133     80136
     80134     80133     80135     80135     80133     80136     80137     80133     80136
     80137     80133     80135     80137     80133     80134     80139     80143     80144
     80140     80139     80142     80140     80139     80141     80141     80139     80142
     80143     80139     80142     80143     80139     80141     80143     80139     80140
     80145     80149     80150     80146     80145     80148     80146     80145     80147
     80147     80145     80148     80149     80145     80148     80149     80145     80147
     80149     80145     80146     80151     80155     80156     80152     80151     80154
     80152     80151     80153     80153     80151     80154     80155     80151     80154
     80155     80151     80153     80155     80151     80152     80157     80161     80162
     80158     80157     80160     80158     80157     80159     80159     80157     80160
     80161     80157     80160     80161     80157     80159     80161     80157     80158
     80163     80167     80168     80164     80163     80166     80164     80163     80165
     80165     80163     80166     80167     80163     80166     80167     80163     80165
     80167     80163     80164     80169     80173     80174     80170     80169     80172
     80170     80169     80171     80171     80169     80172     80173     80169     80172
     80173     80169     80171     80173     80169     80170     80175     80179     80180
     80176     80175     80178     80176     80175     80177     80177     80175     80178
     80179     80175     80178     80179     80175     80177     80179     80175     80176
     80181     80185     80186     80182     80181     80184     80182     80181     80183
     80183     80181     80184     80185     80181     80184     80185     80181     80183
     80185     80181     80182     80187     80191     80192     80188     80187     80190
     80188     80187     80189     80189     80187     80190     80191     80187     80190
     80191     80187     80189     80191     80187     80188     80193     80197     80198
     80194     80193     80196     80194     80193     80195     80195     80193     80196
     80197     80193     80196     80197     80193     80195     80197     80193     80194
     80199     80203     80204     80200     80199     80202     80200     80199     80201
     80201     80199     80202     80203     80199     80202     80203     80199     80201
     80203     80199     80200     80205     80209     80210     80206     80205     80208
     80206     80205     80207     80207     80205     80208     80209     80205     80208
     80209     80205     80207     80209     80205     80206     80211     80215     80216
     80212     80211     80214     80212     80211     80213     80213     80211     80214
     80215     80211     80214     80215     80211     80213     80215     80211     80212
     80217     80221     80222     80218     80217     80220     80218     80217     80219
     80219     80217     80220     80221     80217     80220     80221     80217     80219
     80221     80217     80218     80223     80227     80228     80224     80223     80226
     80224     80223     80225     80225     80223     80226     80227     80223     80226
     80227     80223     80225     80227     80223     80224     80229     80233     80234
     80230     80229     80232     80230     80229     80231     80231     80229     80232
     80233     80229     80232     80233     80229     80231     80233     80229     80230
     80235     80239     80240     80236     80235     80238     80236     80235     80237
     80237     80235     80238     80239     80235     80238     80239     80235     80237
     80239     80235     80236     80241     80245     80246     80242     80241     80244
     80242     80241     80243     80243     80241     80244     80245     80241     80244
     80245     80241     80243     80245     80241     80242     80247     80251     80252
     80248     80247     80250     80248     80247     80249     80249     80247     80250
     80251     80247     80250     80251     80247     80249     80251     80247     80248
     80253     80257     80258     80254     80253     80256     80254     80253     80255
     80255     80253     80256     80257     80253     80256     80257     80253     80255
     80257     80253     80254     80259     80263     80264     80260     80259     80262
     80260     80259     80261     80261     80259     80262     80263     80259     80262
     80263     80259     80261     80263     80259     80260     80265     80269     80270
     80266     80265     80268     80266     80265     80267     80267     80265     80268
     80269     80265     80268     80269     80265     80267     80269     80265     80266
     80271     80275     80276     80272     80271     80274     80272     80271     80273
     80273     80271     80274     80275     80271     80274     80275     80271     80273
     80275     80271     80272     80277     80281     80282     80278     80277     80280
     80278     80277     80279     80279     80277     80280     80281     80277     80280
     80281     80277     80279     80281     80277     80278     80283     80287     80288
     80284     80283     80286     80284     80283     80285     80285     80283     80286
     80287     80283     80286     80287     80283     80285     80287     80283     80284
     80289     80293     80294     80290     80289     80292     80290     80289     80291
     80291     80289     80292     80293     80289     80292     80293     80289     80291
     80293     80289     80290     80295     80299     80300     80296     80295     80298
     80296     80295     80297     80297     80295     80298     80299     80295     80298
     80299     80295     80297     80299     80295     80296     80301     80305     80306
     80302     80301     80304     80302     80301     80303     80303     80301     80304
     80305     80301     80304     80305     80301     80303     80305     80301     80302
     80307     80311     80312     80308     80307     80310     80308     80307     80309
     80309     80307     80310     80311     80307     80310     80311     80307     80309
     80311     80307     80308     80313     80317     80318     80314     80313     80316
     80314     80313     80315     80315     80313     80316     80317     80313     80316
     80317     80313     80315     80317     80313     80314     80319     80323     80324
     80320     80319     80322     80320     80319     80321     80321     80319     80322
     80323     80319     80322     80323     80319     80321     80323     80319     80320
     80325     80329     80330     80326     80325     80328     80326     80325     80327
     80327     80325     80328     80329     80325     80328     80329     80325     80327
     80329     80325     80326     80331     80335     80336     80332     80331     80334
     80332     80331     80333     80333     80331     80334     80335     80331     80334
     80335     80331     80333     80335     80331     80332     80337     80341     80342
     80338     80337     80340     80338     80337     80339     80339     80337     80340
     80341     80337     80340     80341     80337     80339     80341     80337     80338
     80343     80347     80348     80344     80343     80346     80344     80343     80345
     80345     80343     80346     80347     80343     80346     80347     80343     80345
     80347     80343     80344     80349     80353     80354     80350     80349     80352
     80350     80349     80351     80351     80349     80352     80353     80349     80352
     80353     80349     80351     80353     80349     80350     80355     80359     80360
     80356     80355     80358     80356     80355     80357     80357     80355     80358
     80359     80355     80358     80359     80355     80357     80359     80355     80356
     80361     80365     80366     80362     80361     80364     80362     80361     80363
     80363     80361     80364     80365     80361     80364     80365     80361     80363
     80365     80361     80362     80367     80371     80372     80368     80367     80370
     80368     80367     80369     80369     80367     80370     80371     80367     80370
     80371     80367     80369     80371     80367     80368     80373     80377     80378
     80374     80373     80376     80374     80373     80375     80375     80373     80376
     80377     80373     80376     80377     80373     80375     80377     80373     80374
     80379     80383     80384     80380     80379     80382     80380     80379     80381
     80381     80379     80382     80383     80379     80382     80383     80379     80381
     80383     80379     80380     80385     80389     80390     80386     80385     80388
     80386     80385     80387     80387     80385     80388     80389     80385     80388
     80389     80385     80387     80389     80385     80386     80391     80395     80396
     80392     80391     80394     80392     80391     80393     80393     80391     80394
     80395     80391     80394     80395     80391     80393     80395     80391     80392
     80397     80401     80402     80398     80397     80400     80398     80397     80399
     80399     80397     80400     80401     80397     80400     80401     80397     80399
     80401     80397     80398     80403     80407     80408     80404     80403     80406
     80404     80403     80405     80405     80403     80406     80407     80403     80406
     80407     80403     80405     80407     80403     80404     80409     80413     80414
     80410     80409     80412     80410     80409     80411     80411     80409     80412
     80413     80409     80412     80413     80409     80411     80413     80409     80410
     80415     80419     80420     80416     80415     80418     80416     80415     80417
     80417     80415     80418     80419     80415     80418     80419     80415     80417
     80419     80415     80416     80421     80425     80426     80422     80421     80424
     80422     80421     80423     80423     80421     80424     80425     80421     80424
     80425     80421     80423     80425     80421     80422     80427     80431     80432
     80428     80427     80430     80428     80427     80429     80429     80427     80430
     80431     80427     80430     80431     80427     80429     80431     80427     80428
     80433     80437     80438     80434     80433     80436     80434     80433     80435
     80435     80433     80436     80437     80433     80436     80437     80433     80435
     80437     80433     80434     80439     80443     80444     80440     80439     80442
     80440     80439     80441     80441     80439     80442     80443     80439     80442
     80443     80439     80441     80443     80439     80440     80445     80449     80450
     80446     80445     80448     80446     80445     80447     80447     80445     80448
     80449     80445     80448     80449     80445     80447     80449     80445     80446
     80451     80455     80456     80452     80451     80454     80452     80451     80453
     80453     80451     80454     80455     80451     80454     80455     80451     80453
     80455     80451     80452     80457     80461     80462     80458     80457     80460
     80458     80457     80459     80459     80457     80460     80461     80457     80460
     80461     80457     80459     80461     80457     80458     80463     80467     80468
     80464     80463     80466     80464     80463     80465     80465     80463     80466
     80467     80463     80466     80467     80463     80465     80467     80463     80464
     80469     80473     80474     80470     80469     80472     80470     80469     80471
     80471     80469     80472     80473     80469     80472     80473     80469     80471
     80473     80469     80470     80475     80479     80480     80476     80475     80478
     80476     80475     80477     80477     80475     80478     80479     80475     80478
     80479     80475     80477     80479     80475     80476     80481     80485     80486
     80482     80481     80484     80482     80481     80483     80483     80481     80484
     80485     80481     80484     80485     80481     80483     80485     80481     80482
     80487     80491     80492     80488     80487     80490     80488     80487     80489
     80489     80487     80490     80491     80487     80490     80491     80487     80489
     80491     80487     80488     80493     80497     80498     80494     80493     80496
     80494     80493     80495     80495     80493     80496     80497     80493     80496
     80497     80493     80495     80497     80493     80494     80499     80503     80504
     80500     80499     80502     80500     80499     80501     80501     80499     80502
     80503     80499     80502     80503     80499     80501     80503     80499     80500
     80505     80509     80510     80506     80505     80508     80506     80505     80507
     80507     80505     80508     80509     80505     80508     80509     80505     80507
     80509     80505     80506     80511     80515     80516     80512     80511     80514
     80512     80511     80513     80513     80511     80514     80515     80511     80514
     80515     80511     80513     80515     80511     80512     80517     80521     80522
     80518     80517     80520     80518     80517     80519     80519     80517     80520
     80521     80517     80520     80521     80517     80519     80521     80517     80518
     80523     80527     80528     80524     80523     80526     80524     80523     80525
     80525     80523     80526     80527     80523     80526     80527     80523     80525
     80527     80523     80524     80529     80533     80534     80530     80529     80532
     80530     80529     80531     80531     80529     80532     80533     80529     80532
     80533     80529     80531     80533     80529     80530     80535     80539     80540
     80536     80535     80538     80536     80535     80537     80537     80535     80538
     80539     80535     80538     80539     80535     80537     80539     80535     80536
     80541     80545     80546     80542     80541     80544     80542     80541     80543
     80543     80541     80544     80545     80541     80544     80545     80541     80543
     80545     80541     80542     80547     80551     80552     80548     80547     80550
     80548     80547     80549     80549     80547     80550     80551     80547     80550
     80551     80547     80549     80551     80547     80548     80553     80557     80558
     80554     80553     80556     80554     80553     80555     80555     80553     80556
     80557     80553     80556     80557     80553     80555     80557     80553     80554
     80559     80563     80564     80560     80559     80562     80560     80559     80561
     80561     80559     80562     80563     80559     80562     80563     80559     80561
     80563     80559     80560     80565     80569     80570     80566     80565     80568
     80566     80565     80567     80567     80565     80568     80569     80565     80568
     80569     80565     80567     80569     80565     80566     80571     80575     80576
     80572     80571     80574     80572     80571     80573     80573     80571     80574
     80575     80571     80574     80575     80571     80573     80575     80571     80572
     80577     80581     80582     80578     80577     80580     80578     80577     80579
     80579     80577     80580     80581     80577     80580     80581     80577     80579
     80581     80577     80578     80583     80587     80588     80584     80583     80586
     80584     80583     80585     80585     80583     80586     80587     80583     80586
     80587     80583     80585     80587     80583     80584     80589     80593     80594
     80590     80589     80592     80590     80589     80591     80591     80589     80592
     80593     80589     80592     80593     80589     80591     80593     80589     80590
     80595     80599     80600     80596     80595     80598     80596     80595     80597
     80597     80595     80598     80599     80595     80598     80599     80595     80597
     80599     80595     80596     80601     80605     80606     80602     80601     80604
     80602     80601     80603     80603     80601     80604     80605     80601     80604
     80605     80601     80603     80605     80601     80602     80607     80611     80612
     80608     80607     80610     80608     80607     80609     80609     80607     80610
     80611     80607     80610     80611     80607     80609     80611     80607     80608
     80613     80617     80618     80614     80613     80616     80614     80613     80615
     80615     80613     80616     80617     80613     80616     80617     80613     80615
     80617     80613     80614     80619     80623     80624     80620     80619     80622
     80620     80619     80621     80621     80619     80622     80623     80619     80622
     80623     80619     80621     80623     80619     80620     80625     80629     80630
     80626     80625     80628     80626     80625     80627     80627     80625     80628
     80629     80625     80628     80629     80625     80627     80629     80625     80626
     80631     80635     80636     80632     80631     80634     80632     80631     80633
     80633     80631     80634     80635     80631     80634     80635     80631     80633
     80635     80631     80632     80637     80641     80642     80638     80637     80640
     80638     80637     80639     80639     80637     80640     80641     80637     80640
     80641     80637     80639     80641     80637     80638     80643     80647     80648
     80644     80643     80646     80644     80643     80645     80645     80643     80646
     80647     80643     80646     80647     80643     80645     80647     80643     80644
     80649     80653     80654     80650     80649     80652     80650     80649     80651
     80651     80649     80652     80653     80649     80652     80653     80649     80651
     80653     80649     80650     80655     80659     80660     80656     80655     80658
     80656     80655     80657     80657     80655     80658     80659     80655     80658
     80659     80655     80657     80659     80655     80656     80661     80665     80666
     80662     80661     80664     80662     80661     80663     80663     80661     80664
     80665     80661     80664     80665     80661     80663     80665     80661     80662
     80667     80671     80672     80668     80667     80670     80668     80667     80669
     80669     80667     80670     80671     80667     80670     80671     80667     80669
     80671     80667     80668     80673     80677     80678     80674     80673     80676
     80674     80673     80675     80675     80673     80676     80677     80673     80676
     80677     80673     80675     80677     80673     80674     80679     80683     80684
     80680     80679     80682     80680     80679     80681     80681     80679     80682
     80683     80679     80682     80683     80679     80681     80683     80679     80680
     80685     80689     80690     80686     80685     80688     80686     80685     80687
     80687     80685     80688     80689     80685     80688     80689     80685     80687
     80689     80685     80686     80691     80695     80696     80692     80691     80694
     80692     80691     80693     80693     80691     80694     80695     80691     80694
     80695     80691     80693     80695     80691     80692     80697     80701     80702
     80698     80697     80700     80698     80697     80699     80699     80697     80700
     80701     80697     80700     80701     80697     80699     80701     80697     80698
     80703     80707     80708     80704     80703     80706     80704     80703     80705
     80705     80703     80706     80707     80703     80706     80707     80703     80705
     80707     80703     80704     80709     80713     80714     80710     80709     80712
     80710     80709     80711     80711     80709     80712     80713     80709     80712
     80713     80709     80711     80713     80709     80710     80715     80719     80720
     80716     80715     80718     80716     80715     80717     80717     80715     80718
     80719     80715     80718     80719     80715     80717     80719     80715     80716
     80721     80725     80726     80722     80721     80724     80722     80721     80723
     80723     80721     80724     80725     80721     80724     80725     80721     80723
     80725     80721     80722     80727     80731     80732     80728     80727     80730
     80728     80727     80729     80729     80727     80730     80731     80727     80730
     80731     80727     80729     80731     80727     80728     80733     80737     80738
     80734     80733     80736     80734     80733     80735     80735     80733     80736
     80737     80733     80736     80737     80733     80735     80737     80733     80734
     80739     80743     80744     80740     80739     80742     80740     80739     80741
     80741     80739     80742     80743     80739     80742     80743     80739     80741
     80743     80739     80740     80745     80749     80750     80746     80745     80748
     80746     80745     80747     80747     80745     80748     80749     80745     80748
     80749     80745     80747     80749     80745     80746     80751     80755     80756
     80752     80751     80754     80752     80751     80753     80753     80751     80754
     80755     80751     80754     80755     80751     80753     80755     80751     80752
     80757     80761     80762     80758     80757     80760     80758     80757     80759
     80759     80757     80760     80761     80757     80760     80761     80757     80759
     80761     80757     80758     80763     80767     80768     80764     80763     80766
     80764     80763     80765     80765     80763     80766     80767     80763     80766
     80767     80763     80765     80767     80763     80764     80769     80773     80774
     80770     80769     80772     80770     80769     80771     80771     80769     80772
     80773     80769     80772     80773     80769     80771     80773     80769     80770
     80775     80779     80780     80776     80775     80778     80776     80775     80777
     80777     80775     80778     80779     80775     80778     80779     80775     80777
     80779     80775     80776     80781     80785     80786     80782     80781     80784
     80782     80781     80783     80783     80781     80784     80785     80781     80784
     80785     80781     80783     80785     80781     80782     80787     80791     80792
     80788     80787     80790     80788     80787     80789     80789     80787     80790
     80791     80787     80790     80791     80787     80789     80791     80787     80788
     80793     80797     80798     80794     80793     80796     80794     80793     80795
     80795     80793     80796     80797     80793     80796     80797     80793     80795
     80797     80793     80794     80799     80803     80804     80800     80799     80802
     80800     80799     80801     80801     80799     80802     80803     80799     80802
     80803     80799     80801     80803     80799     80800     80805     80809     80810
     80806     80805     80808     80806     80805     80807     80807     80805     80808
     80809     80805     80808     80809     80805     80807     80809     80805     80806
     80811     80815     80816     80812     80811     80814     80812     80811     80813
     80813     80811     80814     80815     80811     80814     80815     80811     80813
     80815     80811     80812     80817     80821     80822     80818     80817     80820
     80818     80817     80819     80819     80817     80820     80821     80817     80820
     80821     80817     80819     80821     80817     80818     80823     80827     80828
     80824     80823     80826     80824     80823     80825     80825     80823     80826
     80827     80823     80826     80827     80823     80825     80827     80823     80824
     80829     80833     80834     80830     80829     80832     80830     80829     80831
     80831     80829     80832     80833     80829     80832     80833     80829     80831
     80833     80829     80830     80835     80839     80840     80836     80835     80838
     80836     80835     80837     80837     80835     80838     80839     80835     80838
     80839     80835     80837     80839     80835     80836     80841     80845     80846
     80842     80841     80844     80842     80841     80843     80843     80841     80844
     80845     80841     80844     80845     80841     80843     80845     80841     80842
     80847     80851     80852     80848     80847     80850     80848     80847     80849
     80849     80847     80850     80851     80847     80850     80851     80847     80849
     80851     80847     80848     80853     80857     80858     80854     80853     80856
     80854     80853     80855     80855     80853     80856     80857     80853     80856
     80857     80853     80855     80857     80853     80854     80859     80863     80864
     80860     80859     80862     80860     80859     80861     80861     80859     80862
     80863     80859     80862     80863     80859     80861     80863     80859     80860
     80865     80869     80870     80866     80865     80868     80866     80865     80867
     80867     80865     80868     80869     80865     80868     80869     80865     80867
     80869     80865     80866     80871     80875     80876     80872     80871     80874
     80872     80871     80873     80873     80871     80874     80875     80871     80874
     80875     80871     80873     80875     80871     80872     80877     80881     80882
     80878     80877     80880     80878     80877     80879     80879     80877     80880
     80881     80877     80880     80881     80877     80879     80881     80877     80878
     80883     80887     80888     80884     80883     80886     80884     80883     80885
     80885     80883     80886     80887     80883     80886     80887     80883     80885
     80887     80883     80884     80889     80893     80894     80890     80889     80892
     80890     80889     80891     80891     80889     80892     80893     80889     80892
     80893     80889     80891     80893     80889     80890     80895     80899     80900
     80896     80895     80898     80896     80895     80897     80897     80895     80898
     80899     80895     80898     80899     80895     80897     80899     80895     80896
     80901     80905     80906     80902     80901     80904     80902     80901     80903
     80903     80901     80904     80905     80901     80904     80905     80901     80903
     80905     80901     80902     80907     80911     80912     80908     80907     80910
     80908     80907     80909     80909     80907     80910     80911     80907     80910
     80911     80907     80909     80911     80907     80908     80913     80917     80918
     80914     80913     80916     80914     80913     80915     80915     80913     80916
     80917     80913     80916     80917     80913     80915     80917     80913     80914
     80919     80923     80924     80920     80919     80922     80920     80919     80921
     80921     80919     80922     80923     80919     80922     80923     80919     80921
     80923     80919     80920     80925     80929     80930     80926     80925     80928
     80926     80925     80927     80927     80925     80928     80929     80925     80928
     80929     80925     80927     80929     80925     80926     80931     80935     80936
     80932     80931     80934     80932     80931     80933     80933     80931     80934
     80935     80931     80934     80935     80931     80933     80935     80931     80932
     80937     80941     80942     80938     80937     80940     80938     80937     80939
     80939     80937     80940     80941     80937     80940     80941     80937     80939
     80941     80937     80938     80943     80947     80948     80944     80943     80946
     80944     80943     80945     80945     80943     80946     80947     80943     80946
     80947     80943     80945     80947     80943     80944     80949     80953     80954
     80950     80949     80952     80950     80949     80951     80951     80949     80952
     80953     80949     80952     80953     80949     80951     80953     80949     80950
     80955     80959     80960     80956     80955     80958     80956     80955     80957
     80957     80955     80958     80959     80955     80958     80959     80955     80957
     80959     80955     80956     80961     80965     80966     80962     80961     80964
     80962     80961     80963     80963     80961     80964     80965     80961     80964
     80965     80961     80963     80965     80961     80962     80967     80971     80972
     80968     80967     80970     80968     80967     80969     80969     80967     80970
     80971     80967     80970     80971     80967     80969     80971     80967     80968
     80973     80977     80978     80974     80973     80976     80974     80973     80975
     80975     80973     80976     80977     80973     80976     80977     80973     80975
     80977     80973     80974     80979     80983     80984     80980     80979     80982
     80980     80979     80981     80981     80979     80982     80983     80979     80982
     80983     80979     80981     80983     80979     80980     80985     80989     80990
     80986     80985     80988     80986     80985     80987     80987     80985     80988
     80989     80985     80988     80989     80985     80987     80989     80985     80986
     80991     80995     80996     80992     80991     80994     80992     80991     80993
     80993     80991     80994     80995     80991     80994     80995     80991     80993
     80995     80991     80992     80997     81001     81002     80998     80997     81000
     80998     80997     80999     80999     80997     81000     81001     80997     81000
     81001     80997     80999     81001     80997     80998     81003     81007     81008
     81004     81003     81006     81004     81003     81005     81005     81003     81006
     81007     81003     81006     81007     81003     81005     81007     81003     81004
     81009     81013     81014     81010     81009     81012     81010     81009     81011
     81011     81009     81012     81013     81009     81012     81013     81009     81011
     81013     81009     81010     81015     81019     81020     81016     81015     81018
     81016     81015     81017     81017     81015     81018     81019     81015     81018
     81019     81015     81017     81019     81015     81016     81021     81025     81026
     81022     81021     81024     81022     81021     81023     81023     81021     81024
     81025     81021     81024     81025     81021     81023     81025     81021     81022
     81027     81031     81032     81028     81027     81030     81028     81027     81029
     81029     81027     81030     81031     81027     81030     81031     81027     81029
     81031     81027     81028     81033     81037     81038     81034     81033     81036
     81034     81033     81035     81035     81033     81036     81037     81033     81036
     81037     81033     81035     81037     81033     81034     81039     81043     81044
     81040     81039     81042     81040     81039     81041     81041     81039     81042
     81043     81039     81042     81043     81039     81041     81043     81039     81040
     81045     81049     81050     81046     81045     81048     81046     81045     81047
     81047     81045     81048     81049     81045     81048     81049     81045     81047
     81049     81045     81046     81051     81055     81056     81052     81051     81054
     81052     81051     81053     81053     81051     81054     81055     81051     81054
     81055     81051     81053     81055     81051     81052     81057     81061     81062
     81058     81057     81060     81058     81057     81059     81059     81057     81060
     81061     81057     81060     81061     81057     81059     81061     81057     81058
     81063     81067     81068     81064     81063     81066     81064     81063     81065
     81065     81063     81066     81067     81063     81066     81067     81063     81065
     81067     81063     81064     81069     81073     81074     81070     81069     81072
     81070     81069     81071     81071     81069     81072     81073     81069     81072
     81073     81069     81071     81073     81069     81070     81075     81079     81080
     81076     81075     81078     81076     81075     81077     81077     81075     81078
     81079     81075     81078     81079     81075     81077     81079     81075     81076
     81081     81085     81086     81082     81081     81084     81082     81081     81083
     81083     81081     81084     81085     81081     81084     81085     81081     81083
     81085     81081     81082     81087     81091     81092     81088     81087     81090
     81088     81087     81089     81089     81087     81090     81091     81087     81090
     81091     81087     81089     81091     81087     81088     81093     81097     81098
     81094     81093     81096     81094     81093     81095     81095     81093     81096
     81097     81093     81096     81097     81093     81095     81097     81093     81094
     81099     81103     81104     81100     81099     81102     81100     81099     81101
     81101     81099     81102     81103     81099     81102     81103     81099     81101
     81103     81099     81100     81105     81109     81110     81106     81105     81108
     81106     81105     81107     81107     81105     81108     81109     81105     81108
     81109     81105     81107     81109     81105     81106     81111     81115     81116
     81112     81111     81114     81112     81111     81113     81113     81111     81114
     81115     81111     81114     81115     81111     81113     81115     81111     81112
     81117     81121     81122     81118     81117     81120     81118     81117     81119
     81119     81117     81120     81121     81117     81120     81121     81117     81119
     81121     81117     81118     81123     81127     81128     81124     81123     81126
     81124     81123     81125     81125     81123     81126     81127     81123     81126
     81127     81123     81125     81127     81123     81124     81129     81133     81134
     81130     81129     81132     81130     81129     81131     81131     81129     81132
     81133     81129     81132     81133     81129     81131     81133     81129     81130
     81135     81139     81140     81136     81135     81138     81136     81135     81137
     81137     81135     81138     81139     81135     81138     81139     81135     81137
     81139     81135     81136     81141     81145     81146     81142     81141     81144
     81142     81141     81143     81143     81141     81144     81145     81141     81144
     81145     81141     81143     81145     81141     81142     81147     81151     81152
     81148     81147     81150     81148     81147     81149     81149     81147     81150
     81151     81147     81150     81151     81147     81149     81151     81147     81148
     81153     81157     81158     81154     81153     81156     81154     81153     81155
     81155     81153     81156     81157     81153     81156     81157     81153     81155
     81157     81153     81154     81159     81163     81164     81160     81159     81162
     81160     81159     81161     81161     81159     81162     81163     81159     81162
     81163     81159     81161     81163     81159     81160     81165     81169     81170
     81166     81165     81168     81166     81165     81167     81167     81165     81168
     81169     81165     81168     81169     81165     81167     81169     81165     81166
     81171     81175     81176     81172     81171     81174     81172     81171     81173
     81173     81171     81174     81175     81171     81174     81175     81171     81173
     81175     81171     81172     81177     81181     81182     81178     81177     81180
     81178     81177     81179     81179     81177     81180     81181     81177     81180
     81181     81177     81179     81181     81177     81178     81183     81187     81188
     81184     81183     81186     81184     81183     81185     81185     81183     81186
     81187     81183     81186     81187     81183     81185     81187     81183     81184
     81189     81193     81194     81190     81189     81192     81190     81189     81191
     81191     81189     81192     81193     81189     81192     81193     81189     81191
     81193     81189     81190     81195     81199     81200     81196     81195     81198
     81196     81195     81197     81197     81195     81198     81199     81195     81198
     81199     81195     81197     81199     81195     81196     81201     81205     81206
     81202     81201     81204     81202     81201     81203     81203     81201     81204
     81205     81201     81204     81205     81201     81203     81205     81201     81202
     81207     81211     81212     81208     81207     81210     81208     81207     81209
     81209     81207     81210     81211     81207     81210     81211     81207     81209
     81211     81207     81208     81213     81217     81218     81214     81213     81216
     81214     81213     81215     81215     81213     81216     81217     81213     81216
     81217     81213     81215     81217     81213     81214     81219     81223     81224
     81220     81219     81222     81220     81219     81221     81221     81219     81222
     81223     81219     81222     81223     81219     81221     81223     81219     81220
     81225     81229     81230     81226     81225     81228     81226     81225     81227
     81227     81225     81228     81229     81225     81228     81229     81225     81227
     81229     81225     81226     81231     81235     81236     81232     81231     81234
     81232     81231     81233     81233     81231     81234     81235     81231     81234
     81235     81231     81233     81235     81231     81232     81237     81241     81242
     81238     81237     81240     81238     81237     81239     81239     81237     81240
     81241     81237     81240     81241     81237     81239     81241     81237     81238
     81243     81247     81248     81244     81243     81246     81244     81243     81245
     81245     81243     81246     81247     81243     81246     81247     81243     81245
     81247     81243     81244     81249     81253     81254     81250     81249     81252
     81250     81249     81251     81251     81249     81252     81253     81249     81252
     81253     81249     81251     81253     81249     81250     81255     81259     81260
     81256     81255     81258     81256     81255     81257     81257     81255     81258
     81259     81255     81258     81259     81255     81257     81259     81255     81256
     81261     81265     81266     81262     81261     81264     81262     81261     81263
     81263     81261     81264     81265     81261     81264     81265     81261     81263
     81265     81261     81262     81267     81271     81272     81268     81267     81270
     81268     81267     81269     81269     81267     81270     81271     81267     81270
     81271     81267     81269     81271     81267     81268     81273     81277     81278
     81274     81273     81276     81274     81273     81275     81275     81273     81276
     81277     81273     81276     81277     81273     81275     81277     81273     81274
     81279     81283     81284     81280     81279     81282     81280     81279     81281
     81281     81279     81282     81283     81279     81282     81283     81279     81281
     81283     81279     81280     81285     81289     81290     81286     81285     81288
     81286     81285     81287     81287     81285     81288     81289     81285     81288
     81289     81285     81287     81289     81285     81286     81291     81295     81296
     81292     81291     81294     81292     81291     81293     81293     81291     81294
     81295     81291     81294     81295     81291     81293     81295     81291     81292
     81297     81301     81302     81298     81297     81300     81298     81297     81299
     81299     81297     81300     81301     81297     81300     81301     81297     81299
     81301     81297     81298     81303     81307     81308     81304     81303     81306
     81304     81303     81305     81305     81303     81306     81307     81303     81306
     81307     81303     81305     81307     81303     81304     81309     81313     81314
     81310     81309     81312     81310     81309     81311     81311     81309     81312
     81313     81309     81312     81313     81309     81311     81313     81309     81310
     81315     81319     81320     81316     81315     81318     81316     81315     81317
     81317     81315     81318     81319     81315     81318     81319     81315     81317
     81319     81315     81316     81321     81325     81326     81322     81321     81324
     81322     81321     81323     81323     81321     81324     81325     81321     81324
     81325     81321     81323     81325     81321     81322     81327     81331     81332
     81328     81327     81330     81328     81327     81329     81329     81327     81330
     81331     81327     81330     81331     81327     81329     81331     81327     81328
     81333     81337     81338     81334     81333     81336     81334     81333     81335
     81335     81333     81336     81337     81333     81336     81337     81333     81335
     81337     81333     81334     81339     81343     81344     81340     81339     81342
     81340     81339     81341     81341     81339     81342     81343     81339     81342
     81343     81339     81341     81343     81339     81340     81345     81349     81350
     81346     81345     81348     81346     81345     81347     81347     81345     81348
     81349     81345     81348     81349     81345     81347     81349     81345     81346
     81351     81355     81356     81352     81351     81354     81352     81351     81353
     81353     81351     81354     81355     81351     81354     81355     81351     81353
     81355     81351     81352     81357     81361     81362     81358     81357     81360
     81358     81357     81359     81359     81357     81360     81361     81357     81360
     81361     81357     81359     81361     81357     81358     81363     81367     81368
     81364     81363     81366     81364     81363     81365     81365     81363     81366
     81367     81363     81366     81367     81363     81365     81367     81363     81364
     81369     81373     81374     81370     81369     81372     81370     81369     81371
     81371     81369     81372     81373     81369     81372     81373     81369     81371
     81373     81369     81370     81375     81379     81380     81376     81375     81378
     81376     81375     81377     81377     81375     81378     81379     81375     81378
     81379     81375     81377     81379     81375     81376     81381     81385     81386
     81382     81381     81384     81382     81381     81383     81383     81381     81384
     81385     81381     81384     81385     81381     81383     81385     81381     81382
     81387     81391     81392     81388     81387     81390     81388     81387     81389
     81389     81387     81390     81391     81387     81390     81391     81387     81389
     81391     81387     81388     81393     81397     81398     81394     81393     81396
     81394     81393     81395     81395     81393     81396     81397     81393     81396
     81397     81393     81395     81397     81393     81394     81399     81403     81404
     81400     81399     81402     81400     81399     81401     81401     81399     81402
     81403     81399     81402     81403     81399     81401     81403     81399     81400
     81405     81409     81410     81406     81405     81408     81406     81405     81407
     81407     81405     81408     81409     81405     81408     81409     81405     81407
     81409     81405     81406     81411     81415     81416     81412     81411     81414
     81412     81411     81413     81413     81411     81414     81415     81411     81414
     81415     81411     81413     81415     81411     81412     81417     81421     81422
     81418     81417     81420     81418     81417     81419     81419     81417     81420
     81421     81417     81420     81421     81417     81419     81421     81417     81418
     81423     81427     81428     81424     81423     81426     81424     81423     81425
     81425     81423     81426     81427     81423     81426     81427     81423     81425
     81427     81423     81424     81429     81433     81434     81430     81429     81432
     81430     81429     81431     81431     81429     81432     81433     81429     81432
     81433     81429     81431     81433     81429     81430     81435     81439     81440
     81436     81435     81438     81436     81435     81437     81437     81435     81438
     81439     81435     81438     81439     81435     81437     81439     81435     81436
     81441     81445     81446     81442     81441     81444     81442     81441     81443
     81443     81441     81444     81445     81441     81444     81445     81441     81443
     81445     81441     81442     81447     81451     81452     81448     81447     81450
     81448     81447     81449     81449     81447     81450     81451     81447     81450
     81451     81447     81449     81451     81447     81448     81453     81457     81458
     81454     81453     81456     81454     81453     81455     81455     81453     81456
     81457     81453     81456     81457     81453     81455     81457     81453     81454
     81459     81463     81464     81460     81459     81462     81460     81459     81461
     81461     81459     81462     81463     81459     81462     81463     81459     81461
     81463     81459     81460     81465     81469     81470     81466     81465     81468
     81466     81465     81467     81467     81465     81468     81469     81465     81468
     81469     81465     81467     81469     81465     81466     81471     81475     81476
     81472     81471     81474     81472     81471     81473     81473     81471     81474
     81475     81471     81474     81475     81471     81473     81475     81471     81472
     81477     81481     81482     81478     81477     81480     81478     81477     81479
     81479     81477     81480     81481     81477     81480     81481     81477     81479
     81481     81477     81478     81483     81487     81488     81484     81483     81486
     81484     81483     81485     81485     81483     81486     81487     81483     81486
     81487     81483     81485     81487     81483     81484     81489     81493     81494
     81490     81489     81492     81490     81489     81491     81491     81489     81492
     81493     81489     81492     81493     81489     81491     81493     81489     81490
     81495     81499     81500     81496     81495     81498     81496     81495     81497
     81497     81495     81498     81499     81495     81498     81499     81495     81497
     81499     81495     81496     81501     81505     81506     81502     81501     81504
     81502     81501     81503     81503     81501     81504     81505     81501     81504
     81505     81501     81503     81505     81501     81502     81507     81511     81512
     81508     81507     81510     81508     81507     81509     81509     81507     81510
     81511     81507     81510     81511     81507     81509     81511     81507     81508
     81513     81517     81518     81514     81513     81516     81514     81513     81515
     81515     81513     81516     81517     81513     81516     81517     81513     81515
     81517     81513     81514     81519     81523     81524     81520     81519     81522
     81520     81519     81521     81521     81519     81522     81523     81519     81522
     81523     81519     81521     81523     81519     81520     81525     81529     81530
     81526     81525     81528     81526     81525     81527     81527     81525     81528
     81529     81525     81528     81529     81525     81527     81529     81525     81526
     81531     81535     81536     81532     81531     81534     81532     81531     81533
     81533     81531     81534     81535     81531     81534     81535     81531     81533
     81535     81531     81532     81537     81541     81542     81538     81537     81540
     81538     81537     81539     81539     81537     81540     81541     81537     81540
     81541     81537     81539     81541     81537     81538     81543     81547     81548
     81544     81543     81546     81544     81543     81545     81545     81543     81546
     81547     81543     81546     81547     81543     81545     81547     81543     81544
     81549     81553     81554     81550     81549     81552     81550     81549     81551
     81551     81549     81552     81553     81549     81552     81553     81549     81551
     81553     81549     81550     81555     81559     81560     81556     81555     81558
     81556     81555     81557     81557     81555     81558     81559     81555     81558
     81559     81555     81557     81559     81555     81556     81561     81565     81566
     81562     81561     81564     81562     81561     81563     81563     81561     81564
     81565     81561     81564     81565     81561     81563     81565     81561     81562
     81567     81571     81572     81568     81567     81570     81568     81567     81569
     81569     81567     81570     81571     81567     81570     81571     81567     81569
     81571     81567     81568     81573     81577     81578     81574     81573     81576
     81574     81573     81575     81575     81573     81576     81577     81573     81576
     81577     81573     81575     81577     81573     81574     81579     81583     81584
     81580     81579     81582     81580     81579     81581     81581     81579     81582
     81583     81579     81582     81583     81579     81581     81583     81579     81580
     81585     81589     81590     81586     81585     81588     81586     81585     81587
     81587     81585     81588     81589     81585     81588     81589     81585     81587
     81589     81585     81586     81591     81595     81596     81592     81591     81594
     81592     81591     81593     81593     81591     81594     81595     81591     81594
     81595     81591     81593     81595     81591     81592     81597     81601     81602
     81598     81597     81600     81598     81597     81599     81599     81597     81600
     81601     81597     81600     81601     81597     81599     81601     81597     81598
     81603     81607     81608     81604     81603     81606     81604     81603     81605
     81605     81603     81606     81607     81603     81606     81607     81603     81605
     81607     81603     81604     81609     81613     81614     81610     81609     81612
     81610     81609     81611     81611     81609     81612     81613     81609     81612
     81613     81609     81611     81613     81609     81610     81615     81619     81620
     81616     81615     81618     81616     81615     81617     81617     81615     81618
     81619     81615     81618     81619     81615     81617     81619     81615     81616
     81621     81625     81626     81622     81621     81624     81622     81621     81623
     81623     81621     81624     81625     81621     81624     81625     81621     81623
     81625     81621     81622     81627     81631     81632     81628     81627     81630
     81628     81627     81629     81629     81627     81630     81631     81627     81630
     81631     81627     81629     81631     81627     81628     81633     81637     81638
     81634     81633     81636     81634     81633     81635     81635     81633     81636
     81637     81633     81636     81637     81633     81635     81637     81633     81634
     81639     81643     81644     81640     81639     81642     81640     81639     81641
     81641     81639     81642     81643     81639     81642     81643     81639     81641
     81643     81639     81640     81645     81649     81650     81646     81645     81648
     81646     81645     81647     81647     81645     81648     81649     81645     81648
     81649     81645     81647     81649     81645     81646     81651     81655     81656
     81652     81651     81654     81652     81651     81653     81653     81651     81654
     81655     81651     81654     81655     81651     81653     81655     81651     81652
     81657     81661     81662     81658     81657     81660     81658     81657     81659
     81659     81657     81660     81661     81657     81660     81661     81657     81659
     81661     81657     81658     81663     81667     81668     81664     81663     81666
     81664     81663     81665     81665     81663     81666     81667     81663     81666
     81667     81663     81665     81667     81663     81664     81669     81673     81674
     81670     81669     81672     81670     81669     81671     81671     81669     81672
     81673     81669     81672     81673     81669     81671     81673     81669     81670
     81675     81679     81680     81676     81675     81678     81676     81675     81677
     81677     81675     81678     81679     81675     81678     81679     81675     81677
     81679     81675     81676     81681     81685     81686     81682     81681     81684
     81682     81681     81683     81683     81681     81684     81685     81681     81684
     81685     81681     81683     81685     81681     81682     81687     81691     81692
     81688     81687     81690     81688     81687     81689     81689     81687     81690
     81691     81687     81690     81691     81687     81689     81691     81687     81688
     81693     81697     81698     81694     81693     81696     81694     81693     81695
     81695     81693     81696     81697     81693     81696     81697     81693     81695
     81697     81693     81694     81699     81703     81704     81700     81699     81702
     81700     81699     81701     81701     81699     81702     81703     81699     81702
     81703     81699     81701     81703     81699     81700     81705     81709     81710
     81706     81705     81708     81706     81705     81707     81707     81705     81708
     81709     81705     81708     81709     81705     81707     81709     81705     81706
     81711     81715     81716     81712     81711     81714     81712     81711     81713
     81713     81711     81714     81715     81711     81714     81715     81711     81713
     81715     81711     81712     81717     81721     81722     81718     81717     81720
     81718     81717     81719     81719     81717     81720     81721     81717     81720
     81721     81717     81719     81721     81717     81718     81723     81727     81728
     81724     81723     81726     81724     81723     81725     81725     81723     81726
     81727     81723     81726     81727     81723     81725     81727     81723     81724
     81729     81733     81734     81730     81729     81732     81730     81729     81731
     81731     81729     81732     81733     81729     81732     81733     81729     81731
     81733     81729     81730     81735     81739     81740     81736     81735     81738
     81736     81735     81737     81737     81735     81738     81739     81735     81738
     81739     81735     81737     81739     81735     81736     81741     81745     81746
     81742     81741     81744     81742     81741     81743     81743     81741     81744
     81745     81741     81744     81745     81741     81743     81745     81741     81742
     81747     81751     81752     81748     81747     81750     81748     81747     81749
     81749     81747     81750     81751     81747     81750     81751     81747     81749
     81751     81747     81748     81753     81757     81758     81754     81753     81756
     81754     81753     81755     81755     81753     81756     81757     81753     81756
     81757     81753     81755     81757     81753     81754     81759     81763     81764
     81760     81759     81762     81760     81759     81761     81761     81759     81762
     81763     81759     81762     81763     81759     81761     81763     81759     81760
     81765     81769     81770     81766     81765     81768     81766     81765     81767
     81767     81765     81768     81769     81765     81768     81769     81765     81767
     81769     81765     81766     81771     81775     81776     81772     81771     81774
     81772     81771     81773     81773     81771     81774     81775     81771     81774
     81775     81771     81773     81775     81771     81772     81777     81781     81782
     81778     81777     81780     81778     81777     81779     81779     81777     81780
     81781     81777     81780     81781     81777     81779     81781     81777     81778
     81783     81787     81788     81784     81783     81786     81784     81783     81785
     81785     81783     81786     81787     81783     81786     81787     81783     81785
     81787     81783     81784     81789     81793     81794     81790     81789     81792
     81790     81789     81791     81791     81789     81792     81793     81789     81792
     81793     81789     81791     81793     81789     81790     81795     81799     81800
     81796     81795     81798     81796     81795     81797     81797     81795     81798
     81799     81795     81798     81799     81795     81797     81799     81795     81796
     81801     81805     81806     81802     81801     81804     81802     81801     81803
     81803     81801     81804     81805     81801     81804     81805     81801     81803
     81805     81801     81802     81807     81811     81812     81808     81807     81810
     81808     81807     81809     81809     81807     81810     81811     81807     81810
     81811     81807     81809     81811     81807     81808     81813     81817     81818
     81814     81813     81816     81814     81813     81815     81815     81813     81816
     81817     81813     81816     81817     81813     81815     81817     81813     81814
     81819     81823     81824     81820     81819     81822     81820     81819     81821
     81821     81819     81822     81823     81819     81822     81823     81819     81821
     81823     81819     81820     81825     81829     81830     81826     81825     81828
     81826     81825     81827     81827     81825     81828     81829     81825     81828
     81829     81825     81827     81829     81825     81826     81831     81835     81836
     81832     81831     81834     81832     81831     81833     81833     81831     81834
     81835     81831     81834     81835     81831     81833     81835     81831     81832
     81837     81841     81842     81838     81837     81840     81838     81837     81839
     81839     81837     81840     81841     81837     81840     81841     81837     81839
     81841     81837     81838     81843     81847     81848     81844     81843     81846
     81844     81843     81845     81845     81843     81846     81847     81843     81846
     81847     81843     81845     81847     81843     81844     81849     81853     81854
     81850     81849     81852     81850     81849     81851     81851     81849     81852
     81853     81849     81852     81853     81849     81851     81853     81849     81850
     81855     81859     81860     81856     81855     81858     81856     81855     81857
     81857     81855     81858     81859     81855     81858     81859     81855     81857
     81859     81855     81856     81861     81865     81866     81862     81861     81864
     81862     81861     81863     81863     81861     81864     81865     81861     81864
     81865     81861     81863     81865     81861     81862     81867     81871     81872
     81868     81867     81870     81868     81867     81869     81869     81867     81870
     81871     81867     81870     81871     81867     81869     81871     81867     81868
     81873     81877     81878     81874     81873     81876     81874     81873     81875
     81875     81873     81876     81877     81873     81876     81877     81873     81875
     81877     81873     81874     81879     81883     81884     81880     81879     81882
     81880     81879     81881     81881     81879     81882     81883     81879     81882
     81883     81879     81881     81883     81879     81880     81885     81889     81890
     81886     81885     81888     81886     81885     81887     81887     81885     81888
     81889     81885     81888     81889     81885     81887     81889     81885     81886
     81891     81895     81896     81892     81891     81894     81892     81891     81893
     81893     81891     81894     81895     81891     81894     81895     81891     81893
     81895     81891     81892     81897     81901     81902     81898     81897     81900
     81898     81897     81899     81899     81897     81900     81901     81897     81900
     81901     81897     81899     81901     81897     81898     81903     81907     81908
     81904     81903     81906     81904     81903     81905     81905     81903     81906
     81907     81903     81906     81907     81903     81905     81907     81903     81904
     81909     81913     81914     81910     81909     81912     81910     81909     81911
     81911     81909     81912     81913     81909     81912     81913     81909     81911
     81913     81909     81910     81915     81919     81920     81916     81915     81918
     81916     81915     81917     81917     81915     81918     81919     81915     81918
     81919     81915     81917     81919     81915     81916     81921     81925     81926
     81922     81921     81924     81922     81921     81923     81923     81921     81924
     81925     81921     81924     81925     81921     81923     81925     81921     81922
     81927     81931     81932     81928     81927     81930     81928     81927     81929
     81929     81927     81930     81931     81927     81930     81931     81927     81929
     81931     81927     81928     81933     81937     81938     81934     81933     81936
     81934     81933     81935     81935     81933     81936     81937     81933     81936
     81937     81933     81935     81937     81933     81934     81939     81943     81944
     81940     81939     81942     81940     81939     81941     81941     81939     81942
     81943     81939     81942     81943     81939     81941     81943     81939     81940
     81945     81949     81950     81946     81945     81948     81946     81945     81947
     81947     81945     81948     81949     81945     81948     81949     81945     81947
     81949     81945     81946     81951     81955     81956     81952     81951     81954
     81952     81951     81953     81953     81951     81954     81955     81951     81954
     81955     81951     81953     81955     81951     81952     81957     81961     81962
     81958     81957     81960     81958     81957     81959     81959     81957     81960
     81961     81957     81960     81961     81957     81959     81961     81957     81958
     81963     81967     81968     81964     81963     81966     81964     81963     81965
     81965     81963     81966     81967     81963     81966     81967     81963     81965
     81967     81963     81964     81969     81973     81974     81970     81969     81972
     81970     81969     81971     81971     81969     81972     81973     81969     81972
     81973     81969     81971     81973     81969     81970     81975     81979     81980
     81976     81975     81978     81976     81975     81977     81977     81975     81978
     81979     81975     81978     81979     81975     81977     81979     81975     81976
     81981     81985     81986     81982     81981     81984     81982     81981     81983
     81983     81981     81984     81985     81981     81984     81985     81981     81983
     81985     81981     81982     81987     81991     81992     81988     81987     81990
     81988     81987     81989     81989     81987     81990     81991     81987     81990
     81991     81987     81989     81991     81987     81988     81993     81997     81998
     81994     81993     81996     81994     81993     81995     81995     81993     81996
     81997     81993     81996     81997     81993     81995     81997     81993     81994
     81999     82003     82004     82000     81999     82002     82000     81999     82001
     82001     81999     82002     82003     81999     82002     82003     81999     82001
     82003     81999     82000     82005     82009     82010     82006     82005     82008
     82006     82005     82007     82007     82005     82008     82009     82005     82008
     82009     82005     82007     82009     82005     82006     82011     82015     82016
     82012     82011     82014     82012     82011     82013     82013     82011     82014
     82015     82011     82014     82015     82011     82013     82015     82011     82012
     82017     82021     82022     82018     82017     82020     82018     82017     82019
     82019     82017     82020     82021     82017     82020     82021     82017     82019
     82021     82017     82018     82023     82027     82028     82024     82023     82026
     82024     82023     82025     82025     82023     82026     82027     82023     82026
     82027     82023     82025     82027     82023     82024     82029     82033     82034
     82030     82029     82032     82030     82029     82031     82031     82029     82032
     82033     82029     82032     82033     82029     82031     82033     82029     82030
     82035     82039     82040     82036     82035     82038     82036     82035     82037
     82037     82035     82038     82039     82035     82038     82039     82035     82037
     82039     82035     82036     82041     82045     82046     82042     82041     82044
     82042     82041     82043     82043     82041     82044     82045     82041     82044
     82045     82041     82043     82045     82041     82042     82047     82051     82052
     82048     82047     82050     82048     82047     82049     82049     82047     82050
     82051     82047     82050     82051     82047     82049     82051     82047     82048
     82053     82057     82058     82054     82053     82056     82054     82053     82055
     82055     82053     82056     82057     82053     82056     82057     82053     82055
     82057     82053     82054     82059     82063     82064     82060     82059     82062
     82060     82059     82061     82061     82059     82062     82063     82059     82062
     82063     82059     82061     82063     82059     82060     82065     82069     82070
     82066     82065     82068     82066     82065     82067     82067     82065     82068
     82069     82065     82068     82069     82065     82067     82069     82065     82066
     82071     82075     82076     82072     82071     82074     82072     82071     82073
     82073     82071     82074     82075     82071     82074     82075     82071     82073
     82075     82071     82072     82077     82081     82082     82078     82077     82080
     82078     82077     82079     82079     82077     82080     82081     82077     82080
     82081     82077     82079     82081     82077     82078     82083     82087     82088
     82084     82083     82086     82084     82083     82085     82085     82083     82086
     82087     82083     82086     82087     82083     82085     82087     82083     82084
     82089     82093     82094     82090     82089     82092     82090     82089     82091
     82091     82089     82092     82093     82089     82092     82093     82089     82091
     82093     82089     82090     82095     82099     82100     82096     82095     82098
     82096     82095     82097     82097     82095     82098     82099     82095     82098
     82099     82095     82097     82099     82095     82096     82101     82105     82106
     82102     82101     82104     82102     82101     82103     82103     82101     82104
     82105     82101     82104     82105     82101     82103     82105     82101     82102
     82107     82111     82112     82108     82107     82110     82108     82107     82109
     82109     82107     82110     82111     82107     82110     82111     82107     82109
     82111     82107     82108     82113     82117     82118     82114     82113     82116
     82114     82113     82115     82115     82113     82116     82117     82113     82116
     82117     82113     82115     82117     82113     82114     82119     82123     82124
     82120     82119     82122     82120     82119     82121     82121     82119     82122
     82123     82119     82122     82123     82119     82121     82123     82119     82120
     82125     82129     82130     82126     82125     82128     82126     82125     82127
     82127     82125     82128     82129     82125     82128     82129     82125     82127
     82129     82125     82126     82131     82135     82136     82132     82131     82134
     82132     82131     82133     82133     82131     82134     82135     82131     82134
     82135     82131     82133     82135     82131     82132     82137     82141     82142
     82138     82137     82140     82138     82137     82139     82139     82137     82140
     82141     82137     82140     82141     82137     82139     82141     82137     82138
     82143     82147     82148     82144     82143     82146     82144     82143     82145
     82145     82143     82146     82147     82143     82146     82147     82143     82145
     82147     82143     82144     82149     82153     82154     82150     82149     82152
     82150     82149     82151     82151     82149     82152     82153     82149     82152
     82153     82149     82151     82153     82149     82150     82155     82159     82160
     82156     82155     82158     82156     82155     82157     82157     82155     82158
     82159     82155     82158     82159     82155     82157     82159     82155     82156
     82161     82165     82166     82162     82161     82164     82162     82161     82163
     82163     82161     82164     82165     82161     82164     82165     82161     82163
     82165     82161     82162     82167     82171     82172     82168     82167     82170
     82168     82167     82169     82169     82167     82170     82171     82167     82170
     82171     82167     82169     82171     82167     82168     82173     82177     82178
     82174     82173     82176     82174     82173     82175     82175     82173     82176
     82177     82173     82176     82177     82173     82175     82177     82173     82174
     82179     82183     82184     82180     82179     82182     82180     82179     82181
     82181     82179     82182     82183     82179     82182     82183     82179     82181
     82183     82179     82180     82185     82189     82190     82186     82185     82188
     82186     82185     82187     82187     82185     82188     82189     82185     82188
     82189     82185     82187     82189     82185     82186     82191     82195     82196
     82192     82191     82194     82192     82191     82193     82193     82191     82194
     82195     82191     82194     82195     82191     82193     82195     82191     82192
     82197     82201     82202     82198     82197     82200     82198     82197     82199
     82199     82197     82200     82201     82197     82200     82201     82197     82199
     82201     82197     82198     82203     82207     82208     82204     82203     82206
     82204     82203     82205     82205     82203     82206     82207     82203     82206
     82207     82203     82205     82207     82203     82204     82209     82213     82214
     82210     82209     82212     82210     82209     82211     82211     82209     82212
     82213     82209     82212     82213     82209     82211     82213     82209     82210
     82215     82219     82220     82216     82215     82218     82216     82215     82217
     82217     82215     82218     82219     82215     82218     82219     82215     82217
     82219     82215     82216     82221     82225     82226     82222     82221     82224
     82222     82221     82223     82223     82221     82224     82225     82221     82224
     82225     82221     82223     82225     82221     82222     82227     82231     82232
     82228     82227     82230     82228     82227     82229     82229     82227     82230
     82231     82227     82230     82231     82227     82229     82231     82227     82228
     82233     82237     82238     82234     82233     82236     82234     82233     82235
     82235     82233     82236     82237     82233     82236     82237     82233     82235
     82237     82233     82234     82239     82243     82244     82240     82239     82242
     82240     82239     82241     82241     82239     82242     82243     82239     82242
     82243     82239     82241     82243     82239     82240     82245     82249     82250
     82246     82245     82248     82246     82245     82247     82247     82245     82248
     82249     82245     82248     82249     82245     82247     82249     82245     82246
     82251     82255     82256     82252     82251     82254     82252     82251     82253
     82253     82251     82254     82255     82251     82254     82255     82251     82253
     82255     82251     82252     82257     82261     82262     82258     82257     82260
     82258     82257     82259     82259     82257     82260     82261     82257     82260
     82261     82257     82259     82261     82257     82258     82263     82267     82268
     82264     82263     82266     82264     82263     82265     82265     82263     82266
     82267     82263     82266     82267     82263     82265     82267     82263     82264
     82269     82273     82274     82270     82269     82272     82270     82269     82271
     82271     82269     82272     82273     82269     82272     82273     82269     82271
     82273     82269     82270     82275     82279     82280     82276     82275     82278
     82276     82275     82277     82277     82275     82278     82279     82275     82278
     82279     82275     82277     82279     82275     82276     82281     82285     82286
     82282     82281     82284     82282     82281     82283     82283     82281     82284
     82285     82281     82284     82285     82281     82283     82285     82281     82282
     82287     82291     82292     82288     82287     82290     82288     82287     82289
     82289     82287     82290     82291     82287     82290     82291     82287     82289
     82291     82287     82288     82293     82297     82298     82294     82293     82296
     82294     82293     82295     82295     82293     82296     82297     82293     82296
     82297     82293     82295     82297     82293     82294     82299     82303     82304
     82300     82299     82302     82300     82299     82301     82301     82299     82302
     82303     82299     82302     82303     82299     82301     82303     82299     82300
     82305     82309     82310     82306     82305     82308     82306     82305     82307
     82307     82305     82308     82309     82305     82308     82309     82305     82307
     82309     82305     82306     82311     82315     82316     82312     82311     82314
     82312     82311     82313     82313     82311     82314     82315     82311     82314
     82315     82311     82313     82315     82311     82312     82317     82321     82322
     82318     82317     82320     82318     82317     82319     82319     82317     82320
     82321     82317     82320     82321     82317     82319     82321     82317     82318
     82323     82327     82328     82324     82323     82326     82324     82323     82325
     82325     82323     82326     82327     82323     82326     82327     82323     82325
     82327     82323     82324     82329     82333     82334     82330     82329     82332
     82330     82329     82331     82331     82329     82332     82333     82329     82332
     82333     82329     82331     82333     82329     82330     82335     82339     82340
     82336     82335     82338     82336     82335     82337     82337     82335     82338
     82339     82335     82338     82339     82335     82337     82339     82335     82336
     82341     82345     82346     82342     82341     82344     82342     82341     82343
     82343     82341     82344     82345     82341     82344     82345     82341     82343
     82345     82341     82342     82347     82351     82352     82348     82347     82350
     82348     82347     82349     82349     82347     82350     82351     82347     82350
     82351     82347     82349     82351     82347     82348     82353     82357     82358
     82354     82353     82356     82354     82353     82355     82355     82353     82356
     82357     82353     82356     82357     82353     82355     82357     82353     82354
     82359     82363     82364     82360     82359     82362     82360     82359     82361
     82361     82359     82362     82363     82359     82362     82363     82359     82361
     82363     82359     82360     82365     82369     82370     82366     82365     82368
     82366     82365     82367     82367     82365     82368     82369     82365     82368
     82369     82365     82367     82369     82365     82366     82371     82375     82376
     82372     82371     82374     82372     82371     82373     82373     82371     82374
     82375     82371     82374     82375     82371     82373     82375     82371     82372
     82377     82381     82382     82378     82377     82380     82378     82377     82379
     82379     82377     82380     82381     82377     82380     82381     82377     82379
     82381     82377     82378     82383     82387     82388     82384     82383     82386
     82384     82383     82385     82385     82383     82386     82387     82383     82386
     82387     82383     82385     82387     82383     82384     82389     82393     82394
     82390     82389     82392     82390     82389     82391     82391     82389     82392
     82393     82389     82392     82393     82389     82391     82393     82389     82390
     82395     82399     82400     82396     82395     82398     82396     82395     82397
     82397     82395     82398     82399     82395     82398     82399     82395     82397
     82399     82395     82396     82401     82405     82406     82402     82401     82404
     82402     82401     82403     82403     82401     82404     82405     82401     82404
     82405     82401     82403     82405     82401     82402     82407     82411     82412
     82408     82407     82410     82408     82407     82409     82409     82407     82410
     82411     82407     82410     82411     82407     82409     82411     82407     82408
     82413     82417     82418     82414     82413     82416     82414     82413     82415
     82415     82413     82416     82417     82413     82416     82417     82413     82415
     82417     82413     82414     82419     82423     82424     82420     82419     82422
     82420     82419     82421     82421     82419     82422     82423     82419     82422
     82423     82419     82421     82423     82419     82420     82425     82429     82430
     82426     82425     82428     82426     82425     82427     82427     82425     82428
     82429     82425     82428     82429     82425     82427     82429     82425     82426
     82431     82435     82436     82432     82431     82434     82432     82431     82433
     82433     82431     82434     82435     82431     82434     82435     82431     82433
     82435     82431     82432     82437     82441     82442     82438     82437     82440
     82438     82437     82439     82439     82437     82440     82441     82437     82440
     82441     82437     82439     82441     82437     82438     82443     82447     82448
     82444     82443     82446     82444     82443     82445     82445     82443     82446
     82447     82443     82446     82447     82443     82445     82447     82443     82444
     82449     82453     82454     82450     82449     82452     82450     82449     82451
     82451     82449     82452     82453     82449     82452     82453     82449     82451
     82453     82449     82450     82455     82459     82460     82456     82455     82458
     82456     82455     82457     82457     82455     82458     82459     82455     82458
     82459     82455     82457     82459     82455     82456     82461     82465     82466
     82462     82461     82464     82462     82461     82463     82463     82461     82464
     82465     82461     82464     82465     82461     82463     82465     82461     82462
     82467     82471     82472     82468     82467     82470     82468     82467     82469
     82469     82467     82470     82471     82467     82470     82471     82467     82469
     82471     82467     82468     82473     82477     82478     82474     82473     82476
     82474     82473     82475     82475     82473     82476     82477     82473     82476
     82477     82473     82475     82477     82473     82474     82479     82483     82484
     82480     82479     82482     82480     82479     82481     82481     82479     82482
     82483     82479     82482     82483     82479     82481     82483     82479     82480
     82485     82489     82490     82486     82485     82488     82486     82485     82487
     82487     82485     82488     82489     82485     82488     82489     82485     82487
     82489     82485     82486     82491     82495     82496     82492     82491     82494
     82492     82491     82493     82493     82491     82494     82495     82491     82494
     82495     82491     82493     82495     82491     82492     82497     82501     82502
     82498     82497     82500     82498     82497     82499     82499     82497     82500
     82501     82497     82500     82501     82497     82499     82501     82497     82498
     82503     82507     82508     82504     82503     82506     82504     82503     82505
     82505     82503     82506     82507     82503     82506     82507     82503     82505
     82507     82503     82504     82509     82513     82514     82510     82509     82512
     82510     82509     82511     82511     82509     82512     82513     82509     82512
     82513     82509     82511     82513     82509     82510     82515     82519     82520
     82516     82515     82518     82516     82515     82517     82517     82515     82518
     82519     82515     82518     82519     82515     82517     82519     82515     82516
     82521     82525     82526     82522     82521     82524     82522     82521     82523
     82523     82521     82524     82525     82521     82524     82525     82521     82523
     82525     82521     82522     82527     82531     82532     82528     82527     82530
     82528     82527     82529     82529     82527     82530     82531     82527     82530
     82531     82527     82529     82531     82527     82528     82533     82537     82538
     82534     82533     82536     82534     82533     82535     82535     82533     82536
     82537     82533     82536     82537     82533     82535     82537     82533     82534
     82539     82543     82544     82540     82539     82542     82540     82539     82541
     82541     82539     82542     82543     82539     82542     82543     82539     82541
     82543     82539     82540     82545     82549     82550     82546     82545     82548
     82546     82545     82547     82547     82545     82548     82549     82545     82548
     82549     82545     82547     82549     82545     82546     82551     82555     82556
     82552     82551     82554     82552     82551     82553     82553     82551     82554
     82555     82551     82554     82555     82551     82553     82555     82551     82552
     82557     82561     82562     82558     82557     82560     82558     82557     82559
     82559     82557     82560     82561     82557     82560     82561     82557     82559
     82561     82557     82558     82563     82567     82568     82564     82563     82566
     82564     82563     82565     82565     82563     82566     82567     82563     82566
     82567     82563     82565     82567     82563     82564     82569     82573     82574
     82570     82569     82572     82570     82569     82571     82571     82569     82572
     82573     82569     82572     82573     82569     82571     82573     82569     82570
     82575     82579     82580     82576     82575     82578     82576     82575     82577
     82577     82575     82578     82579     82575     82578     82579     82575     82577
     82579     82575     82576     82581     82585     82586     82582     82581     82584
     82582     82581     82583     82583     82581     82584     82585     82581     82584
     82585     82581     82583     82585     82581     82582     82587     82591     82592
     82588     82587     82590     82588     82587     82589     82589     82587     82590
     82591     82587     82590     82591     82587     82589     82591     82587     82588
     82593     82597     82598     82594     82593     82596     82594     82593     82595
     82595     82593     82596     82597     82593     82596     82597     82593     82595
     82597     82593     82594     82599     82603     82604     82600     82599     82602
     82600     82599     82601     82601     82599     82602     82603     82599     82602
     82603     82599     82601     82603     82599     82600     82605     82609     82610
     82606     82605     82608     82606     82605     82607     82607     82605     82608
     82609     82605     82608     82609     82605     82607     82609     82605     82606
     82611     82615     82616     82612     82611     82614     82612     82611     82613
     82613     82611     82614     82615     82611     82614     82615     82611     82613
     82615     82611     82612     82617     82621     82622     82618     82617     82620
     82618     82617     82619     82619     82617     82620     82621     82617     82620
     82621     82617     82619     82621     82617     82618     82623     82627     82628
     82624     82623     82626     82624     82623     82625     82625     82623     82626
     82627     82623     82626     82627     82623     82625     82627     82623     82624
     82629     82633     82634     82630     82629     82632     82630     82629     82631
     82631     82629     82632     82633     82629     82632     82633     82629     82631
     82633     82629     82630     82635     82639     82640     82636     82635     82638
     82636     82635     82637     82637     82635     82638     82639     82635     82638
     82639     82635     82637     82639     82635     82636     82641     82645     82646
     82642     82641     82644     82642     82641     82643     82643     82641     82644
     82645     82641     82644     82645     82641     82643     82645     82641     82642
     82647     82651     82652     82648     82647     82650     82648     82647     82649
     82649     82647     82650     82651     82647     82650     82651     82647     82649
     82651     82647     82648     82653     82657     82658     82654     82653     82656
     82654     82653     82655     82655     82653     82656     82657     82653     82656
     82657     82653     82655     82657     82653     82654     82659     82663     82664
     82660     82659     82662     82660     82659     82661     82661     82659     82662
     82663     82659     82662     82663     82659     82661     82663     82659     82660
     82665     82669     82670     82666     82665     82668     82666     82665     82667
     82667     82665     82668     82669     82665     82668     82669     82665     82667
     82669     82665     82666     82671     82675     82676     82672     82671     82674
     82672     82671     82673     82673     82671     82674     82675     82671     82674
     82675     82671     82673     82675     82671     82672     82677     82681     82682
     82678     82677     82680     82678     82677     82679     82679     82677     82680
     82681     82677     82680     82681     82677     82679     82681     82677     82678
     82683     82687     82688     82684     82683     82686     82684     82683     82685
     82685     82683     82686     82687     82683     82686     82687     82683     82685
     82687     82683     82684     82689     82693     82694     82690     82689     82692
     82690     82689     82691     82691     82689     82692     82693     82689     82692
     82693     82689     82691     82693     82689     82690     82695     82699     82700
     82696     82695     82698     82696     82695     82697     82697     82695     82698
     82699     82695     82698     82699     82695     82697     82699     82695     82696
     82701     82705     82706     82702     82701     82704     82702     82701     82703
     82703     82701     82704     82705     82701     82704     82705     82701     82703
     82705     82701     82702     82707     82711     82712     82708     82707     82710
     82708     82707     82709     82709     82707     82710     82711     82707     82710
     82711     82707     82709     82711     82707     82708     82713     82717     82718
     82714     82713     82716     82714     82713     82715     82715     82713     82716
     82717     82713     82716     82717     82713     82715     82717     82713     82714
     82719     82723     82724     82720     82719     82722     82720     82719     82721
     82721     82719     82722     82723     82719     82722     82723     82719     82721
     82723     82719     82720     82725     82729     82730     82726     82725     82728
     82726     82725     82727     82727     82725     82728     82729     82725     82728
     82729     82725     82727     82729     82725     82726     82731     82735     82736
     82732     82731     82734     82732     82731     82733     82733     82731     82734
     82735     82731     82734     82735     82731     82733     82735     82731     82732
     82737     82741     82742     82738     82737     82740     82738     82737     82739
     82739     82737     82740     82741     82737     82740     82741     82737     82739
     82741     82737     82738     82743     82747     82748     82744     82743     82746
     82744     82743     82745     82745     82743     82746     82747     82743     82746
     82747     82743     82745     82747     82743     82744     82749     82753     82754
     82750     82749     82752     82750     82749     82751     82751     82749     82752
     82753     82749     82752     82753     82749     82751     82753     82749     82750
     82755     82759     82760     82756     82755     82758     82756     82755     82757
     82757     82755     82758     82759     82755     82758     82759     82755     82757
     82759     82755     82756     82761     82765     82766     82762     82761     82764
     82762     82761     82763     82763     82761     82764     82765     82761     82764
     82765     82761     82763     82765     82761     82762     82767     82771     82772
     82768     82767     82770     82768     82767     82769     82769     82767     82770
     82771     82767     82770     82771     82767     82769     82771     82767     82768
     82773     82777     82778     82774     82773     82776     82774     82773     82775
     82775     82773     82776     82777     82773     82776     82777     82773     82775
     82777     82773     82774     82779     82783     82784     82780     82779     82782
     82780     82779     82781     82781     82779     82782     82783     82779     82782
     82783     82779     82781     82783     82779     82780     82785     82789     82790
     82786     82785     82788     82786     82785     82787     82787     82785     82788
     82789     82785     82788     82789     82785     82787     82789     82785     82786
     82791     82795     82796     82792     82791     82794     82792     82791     82793
     82793     82791     82794     82795     82791     82794     82795     82791     82793
     82795     82791     82792     82797     82801     82802     82798     82797     82800
     82798     82797     82799     82799     82797     82800     82801     82797     82800
     82801     82797     82799     82801     82797     82798     82803     82807     82808
     82804     82803     82806     82804     82803     82805     82805     82803     82806
     82807     82803     82806     82807     82803     82805     82807     82803     82804
     82809     82813     82814     82810     82809     82812     82810     82809     82811
     82811     82809     82812     82813     82809     82812     82813     82809     82811
     82813     82809     82810     82815     82819     82820     82816     82815     82818
     82816     82815     82817     82817     82815     82818     82819     82815     82818
     82819     82815     82817     82819     82815     82816     82821     82825     82826
     82822     82821     82824     82822     82821     82823     82823     82821     82824
     82825     82821     82824     82825     82821     82823     82825     82821     82822
     82827     82831     82832     82828     82827     82830     82828     82827     82829
     82829     82827     82830     82831     82827     82830     82831     82827     82829
     82831     82827     82828     82833     82837     82838     82834     82833     82836
     82834     82833     82835     82835     82833     82836     82837     82833     82836
     82837     82833     82835     82837     82833     82834     82839     82843     82844
     82840     82839     82842     82840     82839     82841     82841     82839     82842
     82843     82839     82842     82843     82839     82841     82843     82839     82840
     82845     82849     82850     82846     82845     82848     82846     82845     82847
     82847     82845     82848     82849     82845     82848     82849     82845     82847
     82849     82845     82846     82851     82855     82856     82852     82851     82854
     82852     82851     82853     82853     82851     82854     82855     82851     82854
     82855     82851     82853     82855     82851     82852     82857     82861     82862
     82858     82857     82860     82858     82857     82859     82859     82857     82860
     82861     82857     82860     82861     82857     82859     82861     82857     82858
     82863     82867     82868     82864     82863     82866     82864     82863     82865
     82865     82863     82866     82867     82863     82866     82867     82863     82865
     82867     82863     82864     82869     82873     82874     82870     82869     82872
     82870     82869     82871     82871     82869     82872     82873     82869     82872
     82873     82869     82871     82873     82869     82870     82875     82879     82880
     82876     82875     82878     82876     82875     82877     82877     82875     82878
     82879     82875     82878     82879     82875     82877     82879     82875     82876
     82881     82885     82886     82882     82881     82884     82882     82881     82883
     82883     82881     82884     82885     82881     82884     82885     82881     82883
     82885     82881     82882     82887     82891     82892     82888     82887     82890
     82888     82887     82889     82889     82887     82890     82891     82887     82890
     82891     82887     82889     82891     82887     82888     82893     82897     82898
     82894     82893     82896     82894     82893     82895     82895     82893     82896
     82897     82893     82896     82897     82893     82895     82897     82893     82894
     82899     82903     82904     82900     82899     82902     82900     82899     82901
     82901     82899     82902     82903     82899     82902     82903     82899     82901
     82903     82899     82900     82905     82909     82910     82906     82905     82908
     82906     82905     82907     82907     82905     82908     82909     82905     82908
     82909     82905     82907     82909     82905     82906

   65905 !NPHI: dihedrals
         1         2         3         4         1         6         7         4
         1         6         7         8         2         1         6         5
         2         1         6         7         2         3         4         7
         2         3         4       181         3         4         7         6
         3         4         7         8         3         4       181       182
         3         4       181       186         4         7         8        11
         4         7         8       185         4       181       182       183
         4       181       186       185         4       181       186       187
         5         6         7         4         5         6         7         8
         5        10        11         8         5        10        11        12
         6         1         2         3         6         5        10         9
         6         5        10        11         6         7         8        11
         6         7         8       185         7         4       181       182
         7         4       181       186         7         8        11        10
         7         8        11        12         7         8       185       186
         7         8       185       190         8        11        12        15
         8        11        12       189         8       185       186       181
         8       185       186       187         8       185       190       189
         8       185       190       191         9        10        11         8
         9        10        11        12         9        14        15        12
         9        14        15        16        10         5         6         1
        10         5         6         7        10         9        14        13
        10         9        14        15        10        11        12        15
        10        11        12       189        11         8       185       186
        11         8       185       190        11        12        15        14
        11        12        15        16        11        12       189       194
        11        12       189       190        12        15        16        19
        12        15        16       193        12       189       194       193
        12       189       194       195        12       189       190       185
        12       189       190       191        13        14        15        12
        13        14        15        16        13        18        19        16
        13        18        19        20        14         9        10         5
        14         9        10        11        14        13        18        17
        14        13        18        19        14        15        16        19
        14        15        16       193        15        12       189       194
        15        12       189       190        15        16        19        18
        15        16        19        20        15        16       193       198
        15        16       193       194        16        19        20        23
        16        19        20       197        16       193       198       197
        16       193       198       199        16       193       194       189
        16       193       194       195        17        18        19        16
        17        18        19        20        17        22        23        20
        17        22        23        24        18        13        14         9
        18        13        14        15        18        17        22        21
        18        17        22        23        18        19        20        23
        18        19        20       197        19        16       193       198
        19        16       193       194        19        20        23        22
        19        20        23        24        19        20       197       202
        19        20       197       198        20        23        24        27
        20        23        24       201        20       197       202       201
        20       197       202       203        20       197       198       193
        20       197       198       199        21        22        23        20
        21        22        23        24        21        26        27        24
        21        26        27        28        22        17        18        13
        22        17        18        19        22        21        26        25
        22        21        26        27        22        23        24        27
        22        23        24       201        23        20       197       202
        23        20       197       198        23        24        27        26
        23        24        27        28        23        24       201       202
        23        24       201       206        24        27        28        31
        24        27        28       205        24       201       202       197
        24       201       202       203        24       201       206       205
        24       201       206       207        25        26        27        24
        25        26        27        28        25        30        31        28
        25        30        31        32        26        21        22        17
        26        21        22        23        26        25        30        29
        26        25        30        31        26        27        28        31
        26        27        28       205        27        24       201       202
        27        24       201       206        27        28        31        30
        27        28        31        32        27        28       205       206
        27        28       205       210        28        31        32        35
        28        31        32       209        28       205       206       201
        28       205       206       207        28       205       210       209
        28       205       210       211        29        30        31        28
        29        30        31        32        29        34        35        32
        29        34        35        36        30        25        26        21
        30        25        26        27        30        29        34        33
        30        29        34        35        30        31        32        35
        30        31        32       209        31        28       205       206
        31        28       205       210        31        32        35        34
        31        32        35        36        31        32       209       214
        31        32       209       210        32        35        36        39
        32        35        36       213        32       209       214       213
        32       209       214       215        32       209       210       205
        32       209       210       211        33        34        35        32
        33        34        35        36        33        38        39        36
        33        38        39        40        34        29        30        25
        34        29        30        31        34        33        38        37
        34        33        38        39        34        35        36        39
        34        35        36       213        35        32       209       214
        35        32       209       210        35        36        39        38
        35        36        39        40        35        36       213       218
        35        36       213       214        36        39        40        43
        36        39        40       217        36       213       218       217
        36       213       218       219        36       213       214       209
        36       213       214       215        37        38        39        36
        37        38        39        40        37        42        43        40
        37        42        43        44        38        33        34        29
        38        33        34        35        38        37        42        41
        38        37        42        43        38        39        40        43
        38        39        40       217        39        36       213       218
        39        36       213       214        39        40        43        42
        39        40        43        44        39        40       217       222
        39        40       217       218        40        43        44        47
        40        43        44       221        40       217       222       221
        40       217       222       223        40       217       218       213
        40       217       218       219        41        42        43        40
        41        42        43        44        41        46        47        44
        41        46        47        48        42        37        38        33
        42        37        38        39        42        41        46        45
        42        41        46        47        42        43        44        47
        42        43        44       221        43        40       217       222
        43        40       217       218        43        44        47        46
        43        44        47        48        43        44       221       222
        43        44       221       226        44        47        48        51
        44        47        48       225        44       221       222       217
        44       221       222       223        44       221       226       225
        44       221       226       227        45        46        47        44
        45        46        47        48        45        50        51        48
        45        50        51        52        46        41        42        37
        46        41        42        43        46        45        50        49
        46        45        50        51        46        47        48        51
        46        47        48       225        47        44       221       222
        47        44       221       226        47        48        51        50
        47        48        51        52        47        48       225       226
        47        48       225       230        48        51        52        55
        48        51        52       229        48       225       226       221
        48       225       226       227        48       225       230       229
        48       225       230       231        49        50        51        48
        49        50        51        52        49        54        55        52
        49        54        55        56        50        45        46        41
        50        45        46        47        50        49        54        53
        50        49        54        55        50        51        52        55
        50        51        52       229        51        48       225       226
        51        48       225       230        51        52        55        54
        51        52        55        56        51        52       229       234
        51        52       229       230        52        55        56        59
        52        55        56       233        52       229       234       233
        52       229       234       235        52       229       230       225
        52       229       230       231        53        54        55        52
        53        54        55        56        53        58        59        56
        53        58        59        60        54        49        50        45
        54        49        50        51        54        53        58        57
        54        53        58        59        54        55        56        59
        54        55        56       233        55        52       229       234
        55        52       229       230        55        56        59        58
        55        56        59        60        55        56       233       238
        55        56       233       234        56        59        60        63
        56        59        60       237        56       233       238       237
        56       233       238       239        56       233       234       229
        56       233       234       235        57        58        59        56
        57        58        59        60        57        62        63        60
        57        62        63        64        58        53        54        49
        58        53        54        55        58        57        62        61
        58        57        62        63        58        59        60        63
        58        59        60       237        59        56       233       238
        59        56       233       234        59        60        63        62
        59        60        63        64        59        60       237       242
        59        60       237       238        60        63        64        67
        60        63        64       241        60       237       242       241
        60       237       242       243        60       237       238       233
        60       237       238       239        61        62        63        60
        61        62        63        64        61        66        67        64
        61        66        67        68        62        57        58        53
        62        57        58        59        62        61        66        65
        62        61        66        67        62        63        64        67
        62        63        64       241        63        60       237       242
        63        60       237       238        63        64        67        66
        63        64        67        68        63        64       241       242
        63        64       241       246        64        67        68        71
        64        67        68       245        64       241       242       237
        64       241       242       243        64       241       246       245
        64       241       246       247        65        66        67        64
        65        66        67        68        65        70        71        68
        65        70        71        72        66        61        62        57
        66        61        62        63        66        65        70        69
        66        65        70        71        66        67        68        71
        66        67        68       245        67        64       241       242
        67        64       241       246        67        68        71        70
        67        68        71        72        67        68       245       246
        67        68       245       250        68        71        72        75
        68        71        72       249        68       245       246       241
        68       245       246       247        68       245       250       249
        68       245       250       251        69        70        71        68
        69        70        71        72        69        74        75        72
        69        74        75        76        70        65        66        61
        70        65        66        67        70        69        74        73
        70        69        74        75        70        71        72        75
        70        71        72       249        71        68       245       246
        71        68       245       250        71        72        75        74
        71        72        75        76        71        72       249       254
        71        72       249       250        72        75        76        79
        72        75        76       253        72       249       254       253
        72       249       254       255        72       249       250       245
        72       249       250       251        73        74        75        72
        73        74        75        76        73        78        79        76
        73        78        79        80        74        69        70        65
        74        69        70        71        74        73        78        77
        74        73        78        79        74        75        76        79
        74        75        76       253        75        72       249       254
        75        72       249       250        75        76        79        78
        75        76        79        80        75        76       253       258
        75        76       253       254        76        79        80        83
        76        79        80       257        76       253       258       257
        76       253       258       259        76       253       254       249
        76       253       254       255        77        78        79        76
        77        78        79        80        77        82        83        80
        77        82        83        84        78        73        74        69
        78        73        74        75        78        77        82        81
        78        77        82        83        78        79        80        83
        78        79        80       257        79        76       253       258
        79        76       253       254        79        80        83        82
        79        80        83        84        79        80       257       262
        79        80       257       258        80        83        84        87
        80        83        84       261        80       257       262       261
        80       257       262       263        80       257       258       253
        80       257       258       259        81        82        83        80
        81        82        83        84        81        86        87        84
        81        86        87        88        82        77        78        73
        82        77        78        79        82        81        86        85
        82        81        86        87        82        83        84        87
        82        83        84       261        83        80       257       262
        83        80       257       258        83        84        87        86
        83        84        87        88        83        84       261       262
        83        84       261       266        84        87        88        91
        84        87        88       265        84       261       262       257
        84       261       262       263        84       261       266       265
        84       261       266       267        85        86        87        84
        85        86        87        88        85        90        91        88
        85        90        91        92        86        81        82        77
        86        81        82        83        86        85        90        89
        86        85        90        91        86        87        88        91
        86        87        88       265        87        84       261       262
        87        84       261       266        87        88        91        90
        87        88        91        92        87        88       265       266
        87        88       265       270        88        91        92        95
        88        91        92       269        88       265       266       261
        88       265       266       267        88       265       270       269
        88       265       270       271        89        90        91        88
        89        90        91        92        89        94        95        92
        89        94        95        96        90        85        86        81
        90        85        86        87        90        89        94        93
        90        89        94        95        90        91        92        95
        90        91        92       269        91        88       265       266
        91        88       265       270        91        92        95        94
        91        92        95        96        91        92       269       274
        91        92       269       270        92        95        96        99
        92        95        96       273        92       269       274       273
        92       269       274       275        92       269       270       265
        92       269       270       271        93        94        95        92
        93        94        95        96        93        98        99        96
        93        98        99       100        94        89        90        85
        94        89        90        91        94        93        98        97
        94        93        98        99        94        95        96        99
        94        95        96       273        95        92       269       274
        95        92       269       270        95        96        99        98
        95        96        99       100        95        96       273       278
        95        96       273       274        96        99       100       103
        96        99       100       277        96       273       278       277
        96       273       278       279        96       273       274       269
        96       273       274       275        97        98        99        96
        97        98        99       100        97       102       103       100
        97       102       103       104        98        93        94        89
        98        93        94        95        98        97       102       101
        98        97       102       103        98        99       100       103
        98        99       100       277        99        96       273       278
        99        96       273       274        99       100       103       102
        99       100       103       104        99       100       277       282
        99       100       277       278       100       103       104       107
       100       103       104       281       100       277       282       281
       100       277       282       283       100       277       278       273
       100       277       278       279       101       102       103       100
       101       102       103       104       101       106       107       104
       101       106       107       108       102        97        98        93
       102        97        98        99       102       101       106       105
       102       101       106       107       102       103       104       107
       102       103       104       281       103       100       277       282
       103       100       277       278       103       104       107       106
       103       104       107       108       103       104       281       282
       103       104       281       286       104       107       108       111
       104       107       108       285       104       281       282       277
       104       281       282       283       104       281       286       285
       104       281       286       287       105       106       107       104
       105       106       107       108       105       110       111       108
       105       110       111       112       106       101       102        97
       106       101       102       103       106       105       110       109
       106       105       110       111       106       107       108       111
       106       107       108       285       107       104       281       282
       107       104       281       286       107       108       111       110
       107       108       111       112       107       108       285       286
       107       108       285       290       108       111       112       115
       108       111       112       289       108       285       286       281
       108       285       286       287       108       285       290       289
       108       285       290       291       109       110       111       108
       109       110       111       112       109       114       115       112
       109       114       115       116       110       105       106       101
       110       105       106       107       110       109       114       113
       110       109       114       115       110       111       112       115
       110       111       112       289       111       108       285       286
       111       108       285       290       111       112       115       114
       111       112       115       116       111       112       289       294
       111       112       289       290       112       115       116       119
       112       115       116       293       112       289       294       293
       112       289       294       295       112       289       290       285
       112       289       290       291       113       114       115       112
       113       114       115       116       113       118       119       116
       113       118       119       120       114       109       110       105
       114       109       110       111       114       113       118       117
       114       113       118       119       114       115       116       119
       114       115       116       293       115       112       289       294
       115       112       289       290       115       116       119       118
       115       116       119       120       115       116       293       298
       115       116       293       294       116       119       120       123
       116       119       120       297       116       293       298       297
       116       293       298       299       116       293       294       289
       116       293       294       295       117       118       119       116
       117       118       119       120       117       122       123       120
       117       122       123       124       118       113       114       109
       118       113       114       115       118       117       122       121
       118       117       122       123       118       119       120       123
       118       119       120       297       119       116       293       298
       119       116       293       294       119       120       123       122
       119       120       123       124       119       120       297       302
       119       120       297       298       120       123       124       127
       120       123       124       301       120       297       302       301
       120       297       302       303       120       297       298       293
       120       297       298       299       121       122       123       120
       121       122       123       124       121       126       127       124
       121       126       127       128       122       117       118       113
       122       117       118       119       122       121       126       125
       122       121       126       127       122       123       124       127
       122       123       124       301       123       120       297       302
       123       120       297       298       123       124       127       126
       123       124       127       128       123       124       301       302
       123       124       301       306       124       127       128       131
       124       127       128       305       124       301       302       297
       124       301       302       303       124       301       306       305
       124       301       306       307       125       126       127       124
       125       126       127       128       125       130       131       128
       125       130       131       132       126       121       122       117
       126       121       122       123       126       125       130       129
       126       125       130       131       126       127       128       131
       126       127       128       305       127       124       301       302
       127       124       301       306       127       128       131       130
       127       128       131       132       127       128       305       306
       127       128       305       310       128       131       132       135
       128       131       132       309       128       305       306       301
       128       305       306       307       128       305       310       309
       128       305       310       311       129       130       131       128
       129       130       131       132       129       134       135       132
       129       134       135       136       130       125       126       121
       130       125       126       127       130       129       134       133
       130       129       134       135       130       131       132       135
       130       131       132       309       131       128       305       306
       131       128       305       310       131       132       135       134
       131       132       135       136       131       132       309       314
       131       132       309       310       132       135       136       139
       132       135       136       313       132       309       314       313
       132       309       314       315       132       309       310       305
       132       309       310       311       133       134       135       132
       133       134       135       136       133       138       139       136
       133       138       139       140       134       129       130       125
       134       129       130       131       134       133       138       137
       134       133       138       139       134       135       136       139
       134       135       136       313       135       132       309       314
       135       132       309       310       135       136       139       138
       135       136       139       140       135       136       313       318
       135       136       313       314       136       139       140       143
       136       139       140       317       136       313       318       317
       136       313       318       319       136       313       314       309
       136       313       314       315       137       138       139       136
       137       138       139       140       137       142       143       140
       137       142       143       144       138       133       134       129
       138       133       134       135       138       137       142       141
       138       137       142       143       138       139       140       143
       138       139       140       317       139       136       313       318
       139       136       313       314       139       140       143       142
       139       140       143       144       139       140       317       322
       139       140       317       318       140       143       144       147
       140       143       144       321       140       317       322       321
       140       317       322       323       140       317       318       313
       140       317       318       319       141       142       143       140
       141       142       143       144       141       146       147       144
       141       146       147       148       142       137       138       133
       142       137       138       139       142       141       146       145
       142       141       146       147       142       143       144       147
       142       143       144       321       143       140       317       322
       143       140       317       318       143       144       147       146
       143       144       147       148       143       144       321       322
       143       144       321       326       144       147       148       151
       144       147       148       325       144       321       322       317
       144       321       322       323       144       321       326       325
       144       321       326       327       145       146       147       144
       145       146       147       148       145       150       151       148
       145       150       151       152       146       141       142       137
       146       141       142       143       146       145       150       149
       146       145       150       151       146       147       148       151
       146       147       148       325       147       144       321       322
       147       144       321       326       147       148       151       150
       147       148       151       152       147       148       325       326
       147       148       325       330       148       151       152       155
       148       151       152       329       148       325       326       321
       148       325       326       327       148       325       330       329
       148       325       330       331       149       150       151       148
       149       150       151       152       149       154       155       152
       149       154       155       156       150       145       146       141
       150       145       146       147       150       149       154       153
       150       149       154       155       150       151       152       155
       150       151       152       329       151       148       325       326
       151       148       325       330       151       152       155       154
       151       152       155       156       151       152       329       334
       151       152       329       330       152       155       156       159
       152       155       156       333       152       329       334       333
       152       329       334       335       152       329       330       325
       152       329       330       331       153       154       155       152
       153       154       155       156       153       158       159       156
       153       158       159       160       154       149       150       145
       154       149       150       151       154       153       158       157
       154       153       158       159       154       155       156       159
       154       155       156       333       155       152       329       334
       155       152       329       330       155       156       159       158
       155       156       159       160       155       156       333       338
       155       156       333       334       156       159       160       163
       156       159       160       337       156       333       338       337
       156       333       338       339       156       333       334       329
       156       333       334       335       157       158       159       156
       157       158       159       160       157       162       163       160
       157       162       163       164       158       153       154       149
       158       153       154       155       158       157       162       161
       158       157       162       163       158       159       160       163
       158       159       160       337       159       156       333       338
       159       156       333       334       159       160       163       162
       159       160       163       164       159       160       337       342
       159       160       337       338       160       163       164       167
       160       163       164       341       160       337       342       341
       160       337       342       343       160       337       338       333
       160       337       338       339       161       162       163       160
       161       162       163       164       161       166       167       164
       161       166       167       168       162       157       158       153
       162       157       158       159       162       161       166       165
       162       161       166       167       162       163       164       167
       162       163       164       341       163       160       337       342
       163       160       337       338       163       164       167       166
       163       164       167       168       163       164       341       342
       163       164       341       346       164       167       168       171
       164       167       168       345       164       341       342       337
       164       341       342       343       164       341       346       345
       164       341       346       347       165       166       167       164
       165       166       167       168       165       170       171       168
       165       170       171       172       166       161       162       157
       166       161       162       163       166       165       170       169
       166       165       170       171       166       167       168       171
       166       167       168       345       167       164       341       342
       167       164       341       346       167       168       171       170
       167       168       171       172       167       168       345       346
       167       168       345       350       168       171       172       175
       168       171       172       349       168       345       346       341
       168       345       346       347       168       345       350       349
       168       345       350       351       169       170       171       168
       169       170       171       172       169       174       175       172
       169       174       175       176       170       165       166       161
       170       165       166       167       170       169       174       173
       170       169       174       175       170       171       172       175
       170       171       172       349       171       168       345       346
       171       168       345       350       171       172       175       174
       171       172       175       176       171       172       349       354
       171       172       349       350       172       175       176       179
       172       175       176       353       172       349       354       353
       172       349       354       355       172       349       350       345
       172       349       350       351       173       174       175       172
       173       174       175       176       173       178       179       176
       173       178       179       180       174       169       170       165
       174       169       170       171       174       173       178       177
       174       173       178       179       174       175       176       179
       174       175       176       353       175       172       349       354
       175       172       349       350       175       176       179       178
       175       176       179       180       175       176       353       354
       175       176       353       358       176       179       180       357
       176       353       354       349       176       353       354       355
       176       353       358       357       176       353       358       359
       177       178       179       176       177       178       179       180
       178       173       174       169       178       173       174       175
       178       179       180       357       179       176       353       354
       179       176       353       358       179       180       357       358
       180       357       358       353       180       357       358       359
       181         4         7         6       181         4         7         8
       181       182       183       184       181       186       187       184
       181       186       187       188       182       181       186       185
       182       181       186       187       182       183       184       187
       182       183       184       361       183       184       187       186
       183       184       187       188       183       184       361       362
       183       184       361       366       184       187       188       191
       184       187       188       365       184       361       362       363
       184       361       366       365       184       361       366       367
       185         8        11        10       185         8        11        12
       185       186       187       184       185       186       187       188
       185       190       191       188       185       190       191       192
       186       181       182       183       186       185       190       189
       186       185       190       191       186       187       188       191
       186       187       188       365       187       184       361       362
       187       184       361       366       187       188       191       190
       187       188       191       192       187       188       365       366
       187       188       365       370       188       191       192       195
       188       191       192       369       188       365       366       361
       188       365       366       367       188       365       370       369
       188       365       370       371       189        12        15        14
       189        12        15        16       189       190       191       188
       189       190       191       192       189       194       195       192
       189       194       195       196       190       185       186       181
       190       185       186       187       190       189       194       193
       190       189       194       195       190       191       192       195
       190       191       192       369       191       188       365       366
       191       188       365       370       191       192       195       194
       191       192       195       196       191       192       369       374
       191       192       369       370       192       195       196       199
       192       195       196       373       192       369       374       373
       192       369       374       375       192       369       370       365
       192       369       370       371       193        16        19        18
       193        16        19        20       193       194       195       192
       193       194       195       196       193       198       199       196
       193       198       199       200       194       189       190       185
       194       189       190       191       194       193       198       197
       194       193       198       199       194       195       196       199
       194       195       196       373       195       192       369       374
       195       192       369       370       195       196       199       198
       195       196       199       200       195       196       373       374
       195       196       373       378       196       199       200       203
       196       199       200       377       196       373       374       369
       196       373       374       375       196       373       378       377
       196       373       378       379       197        20        23        22
       197        20        23        24       197       198       199       196
       197       198       199       200       197       202       203       200
       197       202       203       204       198       193       194       189
       198       193       194       195       198       197       202       201
       198       197       202       203       198       199       200       203
       198       199       200       377       199       196       373       374
       199       196       373       378       199       200       203       202
       199       200       203       204       199       200       377       382
       199       200       377       378       200       203       204       207
       200       203       204       381       200       377       382       381
       200       377       382       383       200       377       378       373
       200       377       378       379       201        24        27        26
       201        24        27        28       201       202       203       200
       201       202       203       204       201       206       207       204
       201       206       207       208       202       197       198       193
       202       197       198       199       202       201       206       205
       202       201       206       207       202       203       204       207
       202       203       204       381       203       200       377       382
       203       200       377       378       203       204       207       206
       203       204       207       208       203       204       381       382
       203       204       381       386       204       207       208       211
       204       207       208       385       204       381       382       377
       204       381       382       383       204       381       386       385
       204       381       386       387       205        28        31        30
       205        28        31        32       205       206       207       204
       205       206       207       208       205       210       211       208
       205       210       211       212       206       201       202       197
       206       201       202       203       206       205       210       209
       206       205       210       211       206       207       208       211
       206       207       208       385       207       204       381       382
       207       204       381       386       207       208       211       210
       207       208       211       212       207       208       385       386
       207       208       385       390       208       211       212       215
       208       211       212       389       208       385       386       381
       208       385       386       387       208       385       390       389
       208       385       390       391       209        32        35        34
       209        32        35        36       209       210       211       208
       209       210       211       212       209       214       215       212
       209       214       215       216       210       205       206       201
       210       205       206       207       210       209       214       213
       210       209       214       215       210       211       212       215
       210       211       212       389       211       208       385       386
       211       208       385       390       211       212       215       214
       211       212       215       216       211       212       389       394
       211       212       389       390       212       215       216       219
       212       215       216       393       212       389       394       393
       212       389       394       395       212       389       390       385
       212       389       390       391       213        36        39        38
       213        36        39        40       213       214       215       212
       213       214       215       216       213       218       219       216
       213       218       219       220       214       209       210       205
       214       209       210       211       214       213       218       217
       214       213       218       219       214       215       216       219
       214       215       216       393       215       212       389       394
       215       212       389       390       215       216       219       218
       215       216       219       220       215       216       393       398
       215       216       393       394       216       219       220       223
       216       219       220       397       216       393       398       397
       216       393       398       399       216       393       394       389
       216       393       394       395       217        40        43        42
       217        40        43        44       217       218       219       216
       217       218       219       220       217       222       223       220
       217       222       223       224       218       213       214       209
       218       213       214       215       218       217       222       221
       218       217       222       223       218       219       220       223
       218       219       220       397       219       216       393       398
       219       216       393       394       219       220       223       222
       219       220       223       224       219       220       397       402
       219       220       397       398       220       223       224       227
       220       223       224       401       220       397       402       401
       220       397       402       403       220       397       398       393
       220       397       398       399       221        44        47        46
       221        44        47        48       221       222       223       220
       221       222       223       224       221       226       227       224
       221       226       227       228       222       217       218       213
       222       217       218       219       222       221       226       225
       222       221       226       227       222       223       224       227
       222       223       224       401       223       220       397       402
       223       220       397       398       223       224       227       226
       223       224       227       228       223       224       401       402
       223       224       401       406       224       227       228       231
       224       227       228       405       224       401       402       397
       224       401       402       403       224       401       406       405
       224       401       406       407       225        48        51        50
       225        48        51        52       225       226       227       224
       225       226       227       228       225       230       231       228
       225       230       231       232       226       221       222       217
       226       221       222       223       226       225       230       229
       226       225       230       231       226       227       228       231
       226       227       228       405       227       224       401       402
       227       224       401       406       227       228       231       230
       227       228       231       232       227       228       405       406
       227       228       405       410       228       231       232       235
       228       231       232       409       228       405       406       401
       228       405       406       407       228       405       410       409
       228       405       410       411       229        52        55        54
       229        52        55        56       229       230       231       228
       229       230       231       232       229       234       235       232
       229       234       235       236       230       225       226       221
       230       225       226       227       230       229       234       233
       230       229       234       235       230       231       232       235
       230       231       232       409       231       228       405       406
       231       228       405       410       231       232       235       234
       231       232       235       236       231       232       409       414
       231       232       409       410       232       235       236       239
       232       235       236       413       232       409       414       413
       232       409       414       415       232       409       410       405
       232       409       410       411       233        56        59        58
       233        56        59        60       233       234       235       232
       233       234       235       236       233       238       239       236
       233       238       239       240       234       229       230       225
       234       229       230       231       234       233       238       237
       234       233       238       239       234       235       236       239
       234       235       236       413       235       232       409       414
       235       232       409       410       235       236       239       238
       235       236       239       240       235       236       413       418
       235       236       413       414       236       239       240       243
       236       239       240       417       236       413       418       417
       236       413       418       419       236       413       414       409
       236       413       414       415       237        60        63        62
       237        60        63        64       237       238       239       236
       237       238       239       240       237       242       243       240
       237       242       243       244       238       233       234       229
       238       233       234       235       238       237       242       241
       238       237       242       243       238       239       240       243
       238       239       240       417       239       236       413       418
       239       236       413       414       239       240       243       242
       239       240       243       244       239       240       417       422
       239       240       417       418       240       243       244       247
       240       243       244       421       240       417       422       421
       240       417       422       423       240       417       418       413
       240       417       418       419       241        64        67        66
       241        64        67        68       241       242       243       240
       241       242       243       244       241       246       247       244
       241       246       247       248       242       237       238       233
       242       237       238       239       242       241       246       245
       242       241       246       247       242       243       244       247
       242       243       244       421       243       240       417       422
       243       240       417       418       243       244       247       246
       243       244       247       248       243       244       421       422
       243       244       421       426       244       247       248       251
       244       247       248       425       244       421       422       417
       244       421       422       423       244       421       426       425
       244       421       426       427       245        68        71        70
       245        68        71        72       245       246       247       244
       245       246       247       248       245       250       251       248
       245       250       251       252       246       241       242       237
       246       241       242       243       246       245       250       249
       246       245       250       251       246       247       248       251
       246       247       248       425       247       244       421       422
       247       244       421       426       247       248       251       250
       247       248       251       252       247       248       425       426
       247       248       425       430       248       251       252       255
       248       251       252       429       248       425       426       421
       248       425       426       427       248       425       430       429
       248       425       430       431       249        72        75        74
       249        72        75        76       249       250       251       248
       249       250       251       252       249       254       255       252
       249       254       255       256       250       245       246       241
       250       245       246       247       250       249       254       253
       250       249       254       255       250       251       252       255
       250       251       252       429       251       248       425       426
       251       248       425       430       251       252       255       254
       251       252       255       256       251       252       429       434
       251       252       429       430       252       255       256       259
       252       255       256       433       252       429       434       433
       252       429       434       435       252       429       430       425
       252       429       430       431       253        76        79        78
       253        76        79        80       253       254       255       252
       253       254       255       256       253       258       259       256
       253       258       259       260       254       249       250       245
       254       249       250       251       254       253       258       257
       254       253       258       259       254       255       256       259
       254       255       256       433       255       252       429       434
       255       252       429       430       255       256       259       258
       255       256       259       260       255       256       433       438
       255       256       433       434       256       259       260       263
       256       259       260       437       256       433       438       437
       256       433       438       439       256       433       434       429
       256       433       434       435       257        80        83        82
       257        80        83        84       257       258       259       256
       257       258       259       260       257       262       263       260
       257       262       263       264       258       253       254       249
       258       253       254       255       258       257       262       261
       258       257       262       263       258       259       260       263
       258       259       260       437       259       256       433       438
       259       256       433       434       259       260       263       262
       259       260       263       264       259       260       437       442
       259       260       437       438       260       263       264       267
       260       263       264       441       260       437       442       441
       260       437       442       443       260       437       438       433
       260       437       438       439       261        84        87        86
       261        84        87        88       261       262       263       260
       261       262       263       264       261       266       267       264
       261       266       267       268       262       257       258       253
       262       257       258       259       262       261       266       265
       262       261       266       267       262       263       264       267
       262       263       264       441       263       260       437       442
       263       260       437       438       263       264       267       266
       263       264       267       268       263       264       441       442
       263       264       441       446       264       267       268       271
       264       267       268       445       264       441       442       437
       264       441       442       443       264       441       446       445
       264       441       446       447       265        88        91        90
       265        88        91        92       265       266       267       264
       265       266       267       268       265       270       271       268
       265       270       271       272       266       261       262       257
       266       261       262       263       266       265       270       269
       266       265       270       271       266       267       268       271
       266       267       268       445       267       264       441       442
       267       264       441       446       267       268       271       270
       267       268       271       272       267       268       445       446
       267       268       445       450       268       271       272       275
       268       271       272       449       268       445       446       441
       268       445       446       447       268       445       450       449
       268       445       450       451       269        92        95        94
       269        92        95        96       269       270       271       268
       269       270       271       272       269       274       275       272
       269       274       275       276       270       265       266       261
       270       265       266       267       270       269       274       273
       270       269       274       275       270       271       272       275
       270       271       272       449       271       268       445       446
       271       268       445       450       271       272       275       274
       271       272       275       276       271       272       449       454
       271       272       449       450       272       275       276       279
       272       275       276       453       272       449       454       453
       272       449       454       455       272       449       450       445
       272       449       450       451       273        96        99        98
       273        96        99       100       273       274       275       272
       273       274       275       276       273       278       279       276
       273       278       279       280       274       269       270       265
       274       269       270       271       274       273       278       277
       274       273       278       279       274       275       276       279
       274       275       276       453       275       272       449       454
       275       272       449       450       275       276       279       278
       275       276       279       280       275       276       453       458
       275       276       453       454       276       279       280       283
       276       279       280       457       276       453       458       457
       276       453       458       459       276       453       454       449
       276       453       454       455       277       100       103       102
       277       100       103       104       277       278       279       276
       277       278       279       280       277       282       283       280
       277       282       283       284       278       273       274       269
       278       273       274       275       278       277       282       281
       278       277       282       283       278       279       280       283
       278       279       280       457       279       276       453       458
       279       276       453       454       279       280       283       282
       279       280       283       284       279       280       457       462
       279       280       457       458       280       283       284       287
       280       283       284       461       280       457       462       461
       280       457       462       463       280       457       458       453
       280       457       458       459       281       104       107       106
       281       104       107       108       281       282       283       280
       281       282       283       284       281       286       287       284
       281       286       287       288       282       277       278       273
       282       277       278       279       282       281       286       285
       282       281       286       287       282       283       284       287
       282       283       284       461       283       280       457       462
       283       280       457       458       283       284       287       286
       283       284       287       288       283       284       461       462
       283       284       461       466       284       287       288       291
       284       287       288       465       284       461       462       457
       284       461       462       463       284       461       466       465
       284       461       466       467       285       108       111       110
       285       108       111       112       285       286       287       284
       285       286       287       288       285       290       291       288
       285       290       291       292       286       281       282       277
       286       281       282       283       286       285       290       289
       286       285       290       291       286       287       288       291
       286       287       288       465       287       284       461       462
       287       284       461       466       287       288       291       290
       287       288       291       292       287       288       465       466
       287       288       465       470       288       291       292       295
       288       291       292       469       288       465       466       461
       288       465       466       467       288       465       470       469
       288       465       470       471       289       112       115       114
       289       112       115       116       289       290       291       288
       289       290       291       292       289       294       295       292
       289       294       295       296       290       285       286       281
       290       285       286       287       290       289       294       293
       290       289       294       295       290       291       292       295
       290       291       292       469       291       288       465       466
       291       288       465       470       291       292       295       294
       291       292       295       296       291       292       469       474
       291       292       469       470       292       295       296       299
       292       295       296       473       292       469       474       473
       292       469       474       475       292       469       470       465
       292       469       470       471       293       116       119       118
       293       116       119       120       293       294       295       292
       293       294       295       296       293       298       299       296
       293       298       299       300       294       289       290       285
       294       289       290       291       294       293       298       297
       294       293       298       299       294       295       296       299
       294       295       296       473       295       292       469       474
       295       292       469       470       295       296       299       298
       295       296       299       300       295       296       473       478
       295       296       473       474       296       299       300       303
       296       299       300       477       296       473       478       477
       296       473       478       479       296       473       474       469
       296       473       474       475       297       120       123       122
       297       120       123       124       297       298       299       296
       297       298       299       300       297       302       303       300
       297       302       303       304       298       293       294       289
       298       293       294       295       298       297       302       301
       298       297       302       303       298       299       300       303
       298       299       300       477       299       296       473       478
       299       296       473       474       299       300       303       302
       299       300       303       304       299       300       477       482
       299       300       477       478       300       303       304       307
       300       303       304       481       300       477       482       481
       300       477       482       483       300       477       478       473
       300       477       478       479       301       124       127       126
       301       124       127       128       301       302       303       300
       301       302       303       304       301       306       307       304
       301       306       307       308       302       297       298       293
       302       297       298       299       302       301       306       305
       302       301       306       307       302       303       304       307
       302       303       304       481       303       300       477       482
       303       300       477       478       303       304       307       306
       303       304       307       308       303       304       481       482
       303       304       481       486       304       307       308       311
       304       307       308       485       304       481       482       477
       304       481       482       483       304       481       486       485
       304       481       486       487       305       128       131       130
       305       128       131       132       305       306       307       304
       305       306       307       308       305       310       311       308
       305       310       311       312       306       301       302       297
       306       301       302       303       306       305       310       309
       306       305       310       311       306       307       308       311
       306       307       308       485       307       304       481       482
       307       304       481       486       307       308       311       310
       307       308       311       312       307       308       485       486
       307       308       485       490       308       311       312       315
       308       311       312       489       308       485       486       481
       308       485       486       487       308       485       490       489
       308       485       490       491       309       132       135       134
       309       132       135       136       309       310       311       308
       309       310       311       312       309       314       315       312
       309       314       315       316       310       305       306       301
       310       305       306       307       310       309       314       313
       310       309       314       315       310       311       312       315
       310       311       312       489       311       308       485       486
       311       308       485       490       311       312       315       314
       311       312       315       316       311       312       489       494
       311       312       489       490       312       315       316       319
       312       315       316       493       312       489       494       493
       312       489       494       495       312       489       490       485
       312       489       490       491       313       136       139       138
       313       136       139       140       313       314       315       312
       313       314       315       316       313       318       319       316
       313       318       319       320       314       309       310       305
       314       309       310       311       314       313       318       317
       314       313       318       319       314       315       316       319
       314       315       316       493       315       312       489       494
       315       312       489       490       315       316       319       318
       315       316       319       320       315       316       493       498
       315       316       493       494       316       319       320       323
       316       319       320       497       316       493       498       497
       316       493       498       499       316       493       494       489
       316       493       494       495       317       140       143       142
       317       140       143       144       317       318       319       316
       317       318       319       320       317       322       323       320
       317       322       323       324       318       313       314       309
       318       313       314       315       318       317       322       321
       318       317       322       323       318       319       320       323
       318       319       320       497       319       316       493       498
       319       316       493       494       319       320       323       322
       319       320       323       324       319       320       497       502
       319       320       497       498       320       323       324       327
       320       323       324       501       320       497       502       501
       320       497       502       503       320       497       498       493
       320       497       498       499       321       144       147       146
       321       144       147       148       321       322       323       320
       321       322       323       324       321       326       327       324
       321       326       327       328       322       317       318       313
       322       317       318       319       322       321       326       325
       322       321       326       327       322       323       324       327
       322       323       324       501       323       320       497       502
       323       320       497       498       323       324       327       326
       323       324       327       328       323       324       501       502
       323       324       501       506       324       327       328       331
       324       327       328       505       324       501       502       497
       324       501       502       503       324       501       506       505
       324       501       506       507       325       148       151       150
       325       148       151       152       325       326       327       324
       325       326       327       328       325       330       331       328
       325       330       331       332       326       321       322       317
       326       321       322       323       326       325       330       329
       326       325       330       331       326       327       328       331
       326       327       328       505       327       324       501       502
       327       324       501       506       327       328       331       330
       327       328       331       332       327       328       505       506
       327       328       505       510       328       331       332       335
       328       331       332       509       328       505       506       501
       328       505       506       507       328       505       510       509
       328       505       510       511       329       152       155       154
       329       152       155       156       329       330       331       328
       329       330       331       332       329       334       335       332
       329       334       335       336       330       325       326       321
       330       325       326       327       330       329       334       333
       330       329       334       335       330       331       332       335
       330       331       332       509       331       328       505       506
       331       328       505       510       331       332       335       334
       331       332       335       336       331       332       509       514
       331       332       509       510       332       335       336       339
       332       335       336       513       332       509       514       513
       332       509       514       515       332       509       510       505
       332       509       510       511       333       156       159       158
       333       156       159       160       333       334       335       332
       333       334       335       336       333       338       339       336
       333       338       339       340       334       329       330       325
       334       329       330       331       334       333       338       337
       334       333       338       339       334       335       336       339
       334       335       336       513       335       332       509       514
       335       332       509       510       335       336       339       338
       335       336       339       340       335       336       513       518
       335       336       513       514       336       339       340       343
       336       339       340       517       336       513       518       517
       336       513       518       519       336       513       514       509
       336       513       514       515       337       160       163       162
       337       160       163       164       337       338       339       336
       337       338       339       340       337       342       343       340
       337       342       343       344       338       333       334       329
       338       333       334       335       338       337       342       341
       338       337       342       343       338       339       340       343
       338       339       340       517       339       336       513       518
       339       336       513       514       339       340       343       342
       339       340       343       344       339       340       517       522
       339       340       517       518       340       343       344       347
       340       343       344       521       340       517       522       521
       340       517       522       523       340       517       518       513
       340       517       518       519       341       164       167       166
       341       164       167       168       341       342       343       340
       341       342       343       344       341       346       347       344
       341       346       347       348       342       337       338       333
       342       337       338       339       342       341       346       345
       342       341       346       347       342       343       344       347
       342       343       344       521       343       340       517       522
       343       340       517       518       343       344       347       346
       343       344       347       348       343       344       521       522
       343       344       521       526       344       347       348       351
       344       347       348       525       344       521       522       517
       344       521       522       523       344       521       526       525
       344       521       526       527       345       168       171       170
       345       168       171       172       345       346       347       344
       345       346       347       348       345       350       351       348
       345       350       351       352       346       341       342       337
       346       341       342       343       346       345       350       349
       346       345       350       351       346       347       348       351
       346       347       348       525       347       344       521       522
       347       344       521       526       347       348       351       350
       347       348       351       352       347       348       525       526
       347       348       525       530       348       351       352       355
       348       351       352       529       348       525       526       521
       348       525       526       527       348       525       530       529
       348       525       530       531       349       172       175       174
       349       172       175       176       349       350       351       348
       349       350       351       352       349       354       355       352
       349       354       355       356       350       345       346       341
       350       345       346       347       350       349       354       353
       350       349       354       355       350       351       352       355
       350       351       352       529       351       348       525       526
       351       348       525       530       351       352       355       354
       351       352       355       356       351       352       529       534
       351       352       529       530       352       355       356       359
       352       355       356       533       352       529       534       533
       352       529       534       535       352       529       530       525
       352       529       530       531       353       176       179       178
       353       176       179       180       353       354       355       352
       353       354       355       356       353       358       359       356
       353       358       359       360       354       349       350       345
       354       349       350       351       354       353       358       357
       354       353       358       359       354       355       356       359
       354       355       356       533       355       352       529       534
       355       352       529       530       355       356       359       358
       355       356       359       360       355       356       533       538
       355       356       533       534       356       359       360       537
       356       533       538       537       356       533       538       539
       356       533       534       529       356       533       534       535
       357       358       359       356       357       358       359       360
       358       353       354       349       358       353       354       355
       358       359       360       537       359       356       533       538
       359       356       533       534       359       360       537       538
       360       537       538       533       360       537       538       539
       361       184       187       186       361       184       187       188
       361       362       363       364       361       366       367       364
       361       366       367       368       362       361       366       365
       362       361       366       367       362       363       364       367
       362       363       364       541       363       364       367       366
       363       364       367       368       363       364       541       542
       363       364       541       546       364       367       368       371
       364       367       368       545       364       541       542       543
       364       541       546       545       364       541       546       547
       365       188       191       190       365       188       191       192
       365       366       367       364       365       366       367       368
       365       370       371       368       365       370       371       372
       366       361       362       363       366       365       370       369
       366       365       370       371       366       367       368       371
       366       367       368       545       367       364       541       542
       367       364       541       546       367       368       371       370
       367       368       371       372       367       368       545       546
       367       368       545       550       368       371       372       375
       368       371       372       549       368       545       546       541
       368       545       546       547       368       545       550       549
       368       545       550       551       369       192       195       194
       369       192       195       196       369       370       371       368
       369       370       371       372       369       374       375       372
       369       374       375       376       370       365       366       361
       370       365       366       367       370       369       374       373
       370       369       374       375       370       371       372       375
       370       371       372       549       371       368       545       546
       371       368       545       550       371       372       375       374
       371       372       375       376       371       372       549       554
       371       372       549       550       372       375       376       379
       372       375       376       553       372       549       554       553
       372       549       554       555       372       549       550       545
       372       549       550       551       373       196       199       198
       373       196       199       200       373       374       375       372
       373       374       375       376       373       378       379       376
       373       378       379       380       374       369       370       365
       374       369       370       371       374       373       378       377
       374       373       378       379       374       375       376       379
       374       375       376       553       375       372       549       554
       375       372       549       550       375       376       379       378
       375       376       379       380       375       376       553       558
       375       376       553       554       376       379       380       383
       376       379       380       557       376       553       558       557
       376       553       558       559       376       553       554       549
       376       553       554       555       377       200       203       202
       377       200       203       204       377       378       379       376
       377       378       379       380       377       382       383       380
       377       382       383       384       378       373       374       369
       378       373       374       375       378       377       382       381
       378       377       382       383       378       379       380       383
       378       379       380       557       379       376       553       558
       379       376       553       554       379       380       383       382
       379       380       383       384       379       380       557       562
       379       380       557       558       380       383       384       387
       380       383       384       561       380       557       562       561
       380       557       562       563       380       557       558       553
       380       557       558       559       381       204       207       206
       381       204       207       208       381       382       383       380
       381       382       383       384       381       386       387       384
       381       386       387       388       382       377       378       373
       382       377       378       379       382       381       386       385
       382       381       386       387       382       383       384       387
       382       383       384       561       383       380       557       562
       383       380       557       558       383       384       387       386
       383       384       387       388       383       384       561       562
       383       384       561       566       384       387       388       391
       384       387       388       565       384       561       562       557
       384       561       562       563       384       561       566       565
       384       561       566       567       385       208       211       210
       385       208       211       212       385       386       387       384
       385       386       387       388       385       390       391       388
       385       390       391       392       386       381       382       377
       386       381       382       383       386       385       390       389
       386       385       390       391       386       387       388       391
       386       387       388       565       387       384       561       562
       387       384       561       566       387       388       391       390
       387       388       391       392       387       388       565       566
       387       388       565       570       388       391       392       395
       388       391       392       569       388       565       566       561
       388       565       566       567       388       565       570       569
       388       565       570       571       389       212       215       214
       389       212       215       216       389       390       391       388
       389       390       391       392       389       394       395       392
       389       394       395       396       390       385       386       381
       390       385       386       387       390       389       394       393
       390       389       394       395       390       391       392       395
       390       391       392       569       391       388       565       566
       391       388       565       570       391       392       395       394
       391       392       395       396       391       392       569       574
       391       392       569       570       392       395       396       399
       392       395       396       573       392       569       574       573
       392       569       574       575       392       569       570       565
       392       569       570       571       393       216       219       218
       393       216       219       220       393       394       395       392
       393       394       395       396       393       398       399       396
       393       398       399       400       394       389       390       385
       394       389       390       391       394       393       398       397
       394       393       398       399       394       395       396       399
       394       395       396       573       395       392       569       574
       395       392       569       570       395       396       399       398
       395       396       399       400       395       396       573       578
       395       396       573       574       396       399       400       403
       396       399       400       577       396       573       578       577
       396       573       578       579       396       573       574       569
       396       573       574       575       397       220       223       222
       397       220       223       224       397       398       399       396
       397       398       399       400       397       402       403       400
       397       402       403       404       398       393       394       389
       398       393       394       395       398       397       402       401
       398       397       402       403       398       399       400       403
       398       399       400       577       399       396       573       578
       399       396       573       574       399       400       403       402
       399       400       403       404       399       400       577       582
       399       400       577       578       400       403       404       407
       400       403       404       581       400       577       582       581
       400       577       582       583       400       577       578       573
       400       577       578       579       401       224       227       226
       401       224       227       228       401       402       403       400
       401       402       403       404       401       406       407       404
       401       406       407       408       402       397       398       393
       402       397       398       399       402       401       406       405
       402       401       406       407       402       403       404       407
       402       403       404       581       403       400       577       582
       403       400       577       578       403       404       407       406
       403       404       407       408       403       404       581       582
       403       404       581       586       404       407       408       411
       404       407       408       585       404       581       582       577
       404       581       582       583       404       581       586       585
       404       581       586       587       405       228       231       230
       405       228       231       232       405       406       407       404
       405       406       407       408       405       410       411       408
       405       410       411       412       406       401       402       397
       406       401       402       403       406       405       410       409
       406       405       410       411       406       407       408       411
       406       407       408       585       407       404       581       582
       407       404       581       586       407       408       411       410
       407       408       411       412       407       408       585       586
       407       408       585       590       408       411       412       415
       408       411       412       589       408       585       586       581
       408       585       586       587       408       585       590       589
       408       585       590       591       409       232       235       234
       409       232       235       236       409       410       411       408
       409       410       411       412       409       414       415       412
       409       414       415       416       410       405       406       401
       410       405       406       407       410       409       414       413
       410       409       414       415       410       411       412       415
       410       411       412       589       411       408       585       586
       411       408       585       590       411       412       415       414
       411       412       415       416       411       412       589       594
       411       412       589       590       412       415       416       419
       412       415       416       593       412       589       594       593
       412       589       594       595       412       589       590       585
       412       589       590       591       413       236       239       238
       413       236       239       240       413       414       415       412
       413       414       415       416       413       418       419       416
       413       418       419       420       414       409       410       405
       414       409       410       411       414       413       418       417
       414       413       418       419       414       415       416       419
       414       415       416       593       415       412       589       594
       415       412       589       590       415       416       419       418
       415       416       419       420       415       416       593       594
       415       416       593       598       416       419       420       423
       416       419       420       597       416       593       594       589
       416       593       594       595       416       593       598       597
       416       593       598       599       417       240       243       242
       417       240       243       244       417       418       419       416
       417       418       419       420       417       422       423       420
       417       422       423       424       418       413       414       409
       418       413       414       415       418       417       422       421
       418       417       422       423       418       419       420       423
       418       419       420       597       419       416       593       594
       419       416       593       598       419       420       423       422
       419       420       423       424       419       420       597       602
       419       420       597       598       420       423       424       427
       420       423       424       601       420       597       602       601
       420       597       602       603       420       597       598       593
       420       597       598       599       421       244       247       246
       421       244       247       248       421       422       423       420
       421       422       423       424       421       426       427       424
       421       426       427       428       422       417       418       413
       422       417       418       419       422       421       426       425
       422       421       426       427       422       423       424       427
       422       423       424       601       423       420       597       602
       423       420       597       598       423       424       427       426
       423       424       427       428       423       424       601       602
       423       424       601       606       424       427       428       431
       424       427       428       605       424       601       602       597
       424       601       602       603       424       601       606       605
       424       601       606       607       425       248       251       250
       425       248       251       252       425       426       427       424
       425       426       427       428       425       430       431       428
       425       430       431       432       426       421       422       417
       426       421       422       423       426       425       430       429
       426       425       430       431       426       427       428       431
       426       427       428       605       427       424       601       602
       427       424       601       606       427       428       431       430
       427       428       431       432       427       428       605       606
       427       428       605       610       428       431       432       435
       428       431       432       609       428       605       606       601
       428       605       606       607       428       605       610       609
       428       605       610       611       429       252       255       254
       429       252       255       256       429       430       431       428
       429       430       431       432       429       434       435       432
       429       434       435       436       430       425       426       421
       430       425       426       427       430       429       434       433
       430       429       434       435       430       431       432       435
       430       431       432       609       431       428       605       606
       431       428       605       610       431       432       435       434
       431       432       435       436       431       432       609       614
       431       432       609       610       432       435       436       439
       432       435       436       613       432       609       614       613
       432       609       614       615       432       609       610       605
       432       609       610       611       433       256       259       258
       433       256       259       260       433       434       435       432
       433       434       435       436       433       438       439       436
       433       438       439       440       434       429       430       425
       434       429       430       431       434       433       438       437
       434       433       438       439       434       435       436       439
       434       435       436       613       435       432       609       614
       435       432       609       610       435       436       439       438
       435       436       439       440       435       436       613       618
       435       436       613       614       436       439       440       443
       436       439       440       617       436       613       618       617
       436       613       618       619       436       613       614       609
       436       613       614       615       437       260       263       262
       437       260       263       264       437       438       439       436
       437       438       439       440       437       442       443       440
       437       442       443       444       438       433       434       429
       438       433       434       435       438       437       442       441
       438       437       442       443       438       439       440       443
       438       439       440       617       439       436       613       618
       439       436       613       614       439       440       443       442
       439       440       443       444       439       440       617       622
       439       440       617       618       440       443       444       447
       440       443       444       621       440       617       622       621
       440       617       622       623       440       617       618       613
       440       617       618       619       441       264       267       266
       441       264       267       268       441       442       443       440
       441       442       443       444       441       446       447       444
       441       446       447       448       442       437       438       433
       442       437       438       439       442       441       446       445
       442       441       446       447       442       443       444       447
       442       443       444       621       443       440       617       622
       443       440       617       618       443       444       447       446
       443       444       447       448       443       444       621       622
       443       444       621       626       444       447       448       451
       444       447       448       625       444       621       622       617
       444       621       622       623       444       621       626       625
       444       621       626       627       445       268       271       270
       445       268       271       272       445       446       447       444
       445       446       447       448       445       450       451       448
       445       450       451       452       446       441       442       437
       446       441       442       443       446       445       450       449
       446       445       450       451       446       447       448       451
       446       447       448       625       447       444       621       622
       447       444       621       626       447       448       451       450
       447       448       451       452       447       448       625       626
       447       448       625       630       448       451       452       455
       448       451       452       629       448       625       626       621
       448       625       626       627       448       625       630       629
       448       625       630       631       449       272       275       274
       449       272       275       276       449       450       451       448
       449       450       451       452       449       454       455       452
       449       454       455       456       450       445       446       441
       450       445       446       447       450       449       454       453
       450       449       454       455       450       451       452       455
       450       451       452       629       451       448       625       626
       451       448       625       630       451       452       455       454
       451       452       455       456       451       452       629       634
       451       452       629       630       452       455       456       459
       452       455       456       633       452       629       634       633
       452       629       634       635       452       629       630       625
       452       629       630       631       453       276       279       278
       453       276       279       280       453       454       455       452
       453       454       455       456       453       458       459       456
       453       458       459       460       454       449       450       445
       454       449       450       451       454       453       458       457
       454       453       458       459       454       455       456       459
       454       455       456       633       455       452       629       634
       455       452       629       630       455       456       459       458
       455       456       459       460       455       456       633       638
       455       456       633       634       456       459       460       463
       456       459       460       637       456       633       638       637
       456       633       638       639       456       633       634       629
       456       633       634       635       457       280       283       282
       457       280       283       284       457       458       459       456
       457       458       459       460       457       462       463       460
       457       462       463       464       458       453       454       449
       458       453       454       455       458       457       462       461
       458       457       462       463       458       459       460       463
       458       459       460       637       459       456       633       638
       459       456       633       634       459       460       463       462
       459       460       463       464       459       460       637       642
       459       460       637       638       460       463       464       467
       460       463       464       641       460       637       642       641
       460       637       642       643       460       637       638       633
       460       637       638       639       461       284       287       286
       461       284       287       288       461       462       463       460
       461       462       463       464       461       466       467       464
       461       466       467       468       462       457       458       453
       462       457       458       459       462       461       466       465
       462       461       466       467       462       463       464       467
       462       463       464       641       463       460       637       642
       463       460       637       638       463       464       467       466
       463       464       467       468       463       464       641       642
       463       464       641       646       464       467       468       471
       464       467       468       645       464       641       642       637
       464       641       642       643       464       641       646       645
       464       641       646       647       465       288       291       290
       465       288       291       292       465       466       467       464
       465       466       467       468       465       470       471       468
       465       470       471       472       466       461       462       457
       466       461       462       463       466       465       470       469
       466       465       470       471       466       467       468       471
       466       467       468       645       467       464       641       642
       467       464       641       646       467       468       471       470
       467       468       471       472       467       468       645       646
       467       468       645       650       468       471       472       475
       468       471       472       649       468       645       646       641
       468       645       646       647       468       645       650       649
       468       645       650       651       469       292       295       294
       469       292       295       296       469       470       471       468
       469       470       471       472       469       474       475       472
       469       474       475       476       470       465       466       461
       470       465       466       467       470       469       474       473
       470       469       474       475       470       471       472       475
       470       471       472       649       471       468       645       646
       471       468       645       650       471       472       475       474
       471       472       475       476       471       472       649       654
       471       472       649       650       472       475       476       479
       472       475       476       653       472       649       654       653
       472       649       654       655       472       649       650       645
       472       649       650       651       473       296       299       298
       473       296       299       300       473       474       475       472
       473       474       475       476       473       478       479       476
       473       478       479       480       474       469       470       465
       474       469       470       471       474       473       478       477
       474       473       478       479       474       475       476       479
       474       475       476       653       475       472       649       654
       475       472       649       650       475       476       479       478
       475       476       479       480       475       476       653       658
       475       476       653       654       476       479       480       483
       476       479       480       657       476       653       658       657
       476       653       658       659       476       653       654       649
       476       653       654       655       477       300       303       302
       477       300       303       304       477       478       479       476
       477       478       479       480       477       482       483       480
       477       482       483       484       478       473       474       469
       478       473       474       475       478       477       482       481
       478       477       482       483       478       479       480       483
       478       479       480       657       479       476       653       658
       479       476       653       654       479       480       483       482
       479       480       483       484       479       480       657       662
       479       480       657       658       480       483       484       487
       480       483       484       661       480       657       662       661
       480       657       662       663       480       657       658       653
       480       657       658       659       481       304       307       306
       481       304       307       308       481       482       483       480
       481       482       483       484       481       486       487       484
       481       486       487       488       482       477       478       473
       482       477       478       479       482       481       486       485
       482       481       486       487       482       483       484       487
       482       483       484       661       483       480       657       662
       483       480       657       658       483       484       487       486
       483       484       487       488       483       484       661       662
       483       484       661       666       484       487       488       491
       484       487       488       665       484       661       662       657
       484       661       662       663       484       661       666       665
       484       661       666       667       485       308       311       310
       485       308       311       312       485       486       487       484
       485       486       487       488       485       490       491       488
       485       490       491       492       486       481       482       477
       486       481       482       483       486       485       490       489
       486       485       490       491       486       487       488       491
       486       487       488       665       487       484       661       662
       487       484       661       666       487       488       491       490
       487       488       491       492       487       488       665       666
       487       488       665       670       488       491       492       495
       488       491       492       669       488       665       666       661
       488       665       666       667       488       665       670       669
       488       665       670       671       489       312       315       314
       489       312       315       316       489       490       491       488
       489       490       491       492       489       494       495       492
       489       494       495       496       490       485       486       481
       490       485       486       487       490       489       494       493
       490       489       494       495       490       491       492       495
       490       491       492       669       491       488       665       666
       491       488       665       670       491       492       495       494
       491       492       495       496       491       492       669       674
       491       492       669       670       492       495       496       499
       492       495       496       673       492       669       674       673
       492       669       674       675       492       669       670       665
       492       669       670       671       493       316       319       318
       493       316       319       320       493       494       495       492
       493       494       495       496       493       498       499       496
       493       498       499       500       494       489       490       485
       494       489       490       491       494       493       498       497
       494       493       498       499       494       495       496       499
       494       495       496       673       495       492       669       674
       495       492       669       670       495       496       499       498
       495       496       499       500       495       496       673       678
       495       496       673       674       496       499       500       503
       496       499       500       677       496       673       678       677
       496       673       678       679       496       673       674       669
       496       673       674       675       497       320       323       322
       497       320       323       324       497       498       499       496
       497       498       499       500       497       502       503       500
       497       502       503       504       498       493       494       489
       498       493       494       495       498       497       502       501
       498       497       502       503       498       499       500       503
       498       499       500       677       499       496       673       678
       499       496       673       674       499       500       503       502
       499       500       503       504       499       500       677       682
       499       500       677       678       500       503       504       507
       500       503       504       681       500       677       682       681
       500       677       682       683       500       677       678       673
       500       677       678       679       501       324       327       326
       501       324       327       328       501       502       503       500
       501       502       503       504       501       506       507       504
       501       506       507       508       502       497       498       493
       502       497       498       499       502       501       506       505
       502       501       506       507       502       503       504       507
       502       503       504       681       503       500       677       682
       503       500       677       678       503       504       507       506
       503       504       507       508       503       504       681       682
       503       504       681       686       504       507       508       511
       504       507       508       685       504       681       682       677
       504       681       682       683       504       681       686       685
       504       681       686       687       505       328       331       330
       505       328       331       332       505       506       507       504
       505       506       507       508       505       510       511       508
       505       510       511       512       506       501       502       497
       506       501       502       503       506       505       510       509
       506       505       510       511       506       507       508       511
       506       507       508       685       507       504       681       682
       507       504       681       686       507       508       511       510
       507       508       511       512       507       508       685       686
       507       508       685       690       508       511       512       515
       508       511       512       689       508       685       686       681
       508       685       686       687       508       685       690       689
       508       685       690       691       509       332       335       334
       509       332       335       336       509       510       511       508
       509       510       511       512       509       514       515       512
       509       514       515       516       510       505       506       501
       510       505       506       507       510       509       514       513
       510       509       514       515       510       511       512       515
       510       511       512       689       511       508       685       686
       511       508       685       690       511       512       515       514
       511       512       515       516       511       512       689       694
       511       512       689       690       512       515       516       519
       512       515       516       693       512       689       694       693
       512       689       694       695       512       689       690       685
       512       689       690       691       513       336       339       338
       513       336       339       340       513       514       515       512
       513       514       515       516       513       518       519       516
       513       518       519       520       514       509       510       505
       514       509       510       511       514       513       518       517
       514       513       518       519       514       515       516       519
       514       515       516       693       515       512       689       694
       515       512       689       690       515       516       519       518
       515       516       519       520       515       516       693       698
       515       516       693       694       516       519       520       523
       516       519       520       697       516       693       698       697
       516       693       698       699       516       693       694       689
       516       693       694       695       517       340       343       342
       517       340       343       344       517       518       519       516
       517       518       519       520       517       522       523       520
       517       522       523       524       518       513       514       509
       518       513       514       515       518       517       522       521
       518       517       522       523       518       519       520       523
       518       519       520       697       519       516       693       698
       519       516       693       694       519       520       523       522
       519       520       523       524       519       520       697       702
       519       520       697       698       520       523       524       527
       520       523       524       701       520       697       702       701
       520       697       702       703       520       697       698       693
       520       697       698       699       521       344       347       346
       521       344       347       348       521       522       523       520
       521       522       523       524       521       526       527       524
       521       526       527       528       522       517       518       513
       522       517       518       519       522       521       526       525
       522       521       526       527       522       523       524       527
       522       523       524       701       523       520       697       702
       523       520       697       698       523       524       527       526
       523       524       527       528       523       524       701       702
       523       524       701       706       524       527       528       531
       524       527       528       705       524       701       702       697
       524       701       702       703       524       701       706       705
       524       701       706       707       525       348       351       350
       525       348       351       352       525       526       527       524
       525       526       527       528       525       530       531       528
       525       530       531       532       526       521       522       517
       526       521       522       523       526       525       530       529
       526       525       530       531       526       527       528       531
       526       527       528       705       527       524       701       702
       527       524       701       706       527       528       531       530
       527       528       531       532       527       528       705       706
       527       528       705       710       528       531       532       535
       528       531       532       709       528       705       706       701
       528       705       706       707       528       705       710       709
       528       705       710       711       529       352       355       354
       529       352       355       356       529       530       531       528
       529       530       531       532       529       534       535       532
       529       534       535       536       530       525       526       521
       530       525       526       527       530       529       534       533
       530       529       534       535       530       531       532       535
       530       531       532       709       531       528       705       706
       531       528       705       710       531       532       535       534
       531       532       535       536       531       532       709       714
       531       532       709       710       532       535       536       539
       532       535       536       713       532       709       714       713
       532       709       714       715       532       709       710       705
       532       709       710       711       533       356       359       358
       533       356       359       360       533       534       535       532
       533       534       535       536       533       538       539       536
       533       538       539       540       534       529       530       525
       534       529       530       531       534       533       538       537
       534       533       538       539       534       535       536       539
       534       535       536       713       535       532       709       714
       535       532       709       710       535       536       539       538
       535       536       539       540       535       536       713       718
       535       536       713       714       536       539       540       717
       536       713       718       717       536       713       718       719
       536       713       714       709       536       713       714       715
       537       538       539       536       537       538       539       540
       538       533       534       529       538       533       534       535
       538       539       540       717       539       536       713       718
       539       536       713       714       539       540       717       718
       540       717       718       713       540       717       718       719
       541       364       367       366       541       364       367       368
       541       542       543       544       541       546       547       544
       541       546       547       548       542       541       546       545
       542       541       546       547       542       543       544       547
       542       543       544       721       543       544       547       546
       543       544       547       548       543       544       721       722
       543       544       721       726       544       547       548       551
       544       547       548       725       544       721       722       723
       544       721       726       725       544       721       726       727
       545       368       371       370       545       368       371       372
       545       546       547       544       545       546       547       548
       545       550       551       548       545       550       551       552
       546       541       542       543       546       545       550       549
       546       545       550       551       546       547       548       551
       546       547       548       725       547       544       721       722
       547       544       721       726       547       548       551       550
       547       548       551       552       547       548       725       726
       547       548       725       730       548       551       552       555
       548       551       552       729       548       725       726       721
       548       725       726       727       548       725       730       729
       548       725       730       731       549       372       375       374
       549       372       375       376       549       550       551       548
       549       550       551       552       549       554       555       552
       549       554       555       556       550       545       546       541
       550       545       546       547       550       549       554       553
       550       549       554       555       550       551       552       555
       550       551       552       729       551       548       725       726
       551       548       725       730       551       552       555       554
       551       552       555       556       551       552       729       734
       551       552       729       730       552       555       556       559
       552       555       556       733       552       729       734       733
       552       729       734       735       552       729       730       725
       552       729       730       731       553       376       379       378
       553       376       379       380       553       554       555       552
       553       554       555       556       553       558       559       556
       553       558       559       560       554       549       550       545
       554       549       550       551       554       553       558       557
       554       553       558       559       554       555       556       559
       554       555       556       733       555       552       729       734
       555       552       729       730       555       556       559       558
       555       556       559       560       555       556       733       738
       555       556       733       734       556       559       560       563
       556       559       560       737       556       733       738       737
       556       733       738       739       556       733       734       729
       556       733       734       735       557       380       383       382
       557       380       383       384       557       558       559       556
       557       558       559       560       557       562       563       560
       557       562       563       564       558       553       554       549
       558       553       554       555       558       557       562       561
       558       557       562       563       558       559       560       563
       558       559       560       737       559       556       733       738
       559       556       733       734       559       560       563       562
       559       560       563       564       559       560       737       742
       559       560       737       738       560       563       564       567
       560       563       564       741       560       737       742       741
       560       737       742       743       560       737       738       733
       560       737       738       739       561       384       387       386
       561       384       387       388       561       562       563       560
       561       562       563       564       561       566       567       564
       561       566       567       568       562       557       558       553
       562       557       558       559       562       561       566       565
       562       561       566       567       562       563       564       567
       562       563       564       741       563       560       737       742
       563       560       737       738       563       564       567       566
       563       564       567       568       563       564       741       742
       563       564       741       746       564       567       568       571
       564       567       568       745       564       741       742       737
       564       741       742       743       564       741       746       745
       564       741       746       747       565       388       391       390
       565       388       391       392       565       566       567       564
       565       566       567       568       565       570       571       568
       565       570       571       572       566       561       562       557
       566       561       562       563       566       565       570       569
       566       565       570       571       566       567       568       571
       566       567       568       745       567       564       741       742
       567       564       741       746       567       568       571       570
       567       568       571       572       567       568       745       746
       567       568       745       750       568       571       572       575
       568       571       572       749       568       745       746       741
       568       745       746       747       568       745       750       749
       568       745       750       751       569       392       395       394
       569       392       395       396       569       570       571       568
       569       570       571       572       569       574       575       572
       569       574       575       576       570       565       566       561
       570       565       566       567       570       569       574       573
       570       569       574       575       570       571       572       575
       570       571       572       749       571       568       745       746
       571       568       745       750       571       572       575       574
       571       572       575       576       571       572       749       754
       571       572       749       750       572       575       576       579
       572       575       576       753       572       749       754       753
       572       749       754       755       572       749       750       745
       572       749       750       751       573       396       399       398
       573       396       399       400       573       574       575       572
       573       574       575       576       573       578       579       576
       573       578       579       580       574       569       570       565
       574       569       570       571       574       573       578       577
       574       573       578       579       574       575       576       579
       574       575       576       753       575       572       749       754
       575       572       749       750       575       576       579       578
       575       576       579       580       575       576       753       758
       575       576       753       754       576       579       580       583
       576       579       580       757       576       753       758       757
       576       753       758       759       576       753       754       749
       576       753       754       755       577       400       403       402
       577       400       403       404       577       578       579       576
       577       578       579       580       577       582       583       580
       577       582       583       584       578       573       574       569
       578       573       574       575       578       577       582       581
       578       577       582       583       578       579       580       583
       578       579       580       757       579       576       753       758
       579       576       753       754       579       580       583       582
       579       580       583       584       579       580       757       762
       579       580       757       758       580       583       584       587
       580       583       584       761       580       757       762       761
       580       757       762       763       580       757       758       753
       580       757       758       759       581       404       407       406
       581       404       407       408       581       582       583       580
       581       582       583       584       581       586       587       584
       581       586       587       588       582       577       578       573
       582       577       578       579       582       581       586       585
       582       581       586       587       582       583       584       587
       582       583       584       761       583       580       757       762
       583       580       757       758       583       584       587       586
       583       584       587       588       583       584       761       762
       583       584       761       766       584       587       588       591
       584       587       588       765       584       761       762       757
       584       761       762       763       584       761       766       765
       584       761       766       767       585       408       411       410
       585       408       411       412       585       586       587       584
       585       586       587       588       585       590       591       588
       585       590       591       592       586       581       582       577
       586       581       582       583       586       585       590       589
       586       585       590       591       586       587       588       591
       586       587       588       765       587       584       761       762
       587       584       761       766       587       588       591       590
       587       588       591       592       587       588       765       766
       587       588       765       770       588       591       592       595
       588       591       592       769       588       765       766       761
       588       765       766       767       588       765       770       769
       588       765       770       771       589       412       415       414
       589       412       415       416       589       590       591       588
       589       590       591       592       589       594       595       592
       589       594       595       596       590       585       586       581
       590       585       586       587       590       589       594       593
       590       589       594       595       590       591       592       595
       590       591       592       769       591       588       765       766
       591       588       765       770       591       592       595       594
       591       592       595       596       591       592       769       774
       591       592       769       770       592       595       596       599
       592       595       596       773       592       769       774       773
       592       769       774       775       592       769       770       765
       592       769       770       771       593       416       419       418
       593       416       419       420       593       594       595       592
       593       594       595       596       593       598       599       596
       593       598       599       600       594       589       590       585
       594       589       590       591       594       593       598       597
       594       593       598       599       594       595       596       599
       594       595       596       773       595       592       769       774
       595       592       769       770       595       596       599       598
       595       596       599       600       595       596       773       778
       595       596       773       774       596       599       600       603
       596       599       600       777       596       773       778       777
       596       773       778       779       596       773       774       769
       596       773       774       775       597       420       423       422
       597       420       423       424       597       598       599       596
       597       598       599       600       597       602       603       600
       597       602       603       604       598       593       594       589
       598       593       594       595       598       597       602       601
       598       597       602       603       598       599       600       603
       598       599       600       777       599       596       773       778
       599       596       773       774       599       600       603       602
       599       600       603       604       599       600       777       782
       599       600       777       778       600       603       604       607
       600       603       604       781       600       777       782       781
       600       777       782       783       600       777       778       773
       600       777       778       779       601       424       427       426
       601       424       427       428       601       602       603       600
       601       602       603       604       601       606       607       604
       601       606       607       608       602       597       598       593
       602       597       598       599       602       601       606       605
       602       601       606       607       602       603       604       607
       602       603       604       781       603       600       777       782
       603       600       777       778       603       604       607       606
       603       604       607       608       603       604       781       782
       603       604       781       786       604       607       608       611
       604       607       608       785       604       781       782       777
       604       781       782       783       604       781       786       785
       604       781       786       787       605       428       431       430
       605       428       431       432       605       606       607       604
       605       606       607       608       605       610       611       608
       605       610       611       612       606       601       602       597
       606       601       602       603       606       605       610       609
       606       605       610       611       606       607       608       611
       606       607       608       785       607       604       781       782
       607       604       781       786       607       608       611       610
       607       608       611       612       607       608       785       786
       607       608       785       790       608       611       612       615
       608       611       612       789       608       785       786       781
       608       785       786       787       608       785       790       789
       608       785       790       791       609       432       435       434
       609       432       435       436       609       610       611       608
       609       610       611       612       609       614       615       612
       609       614       615       616       610       605       606       601
       610       605       606       607       610       609       614       613
       610       609       614       615       610       611       612       615
       610       611       612       789       611       608       785       786
       611       608       785       790       611       612       615       614
       611       612       615       616       611       612       789       794
       611       612       789       790       612       615       616       619
       612       615       616       793       612       789       794       793
       612       789       794       795       612       789       790       785
       612       789       790       791       613       436       439       438
       613       436       439       440       613       614       615       612
       613       614       615       616       613       618       619       616
       613       618       619       620       614       609       610       605
       614       609       610       611       614       613       618       617
       614       613       618       619       614       615       616       619
       614       615       616       793       615       612       789       794
       615       612       789       790       615       616       619       618
       615       616       619       620       615       616       793       798
       615       616       793       794       616       619       620       623
       616       619       620       797       616       793       798       797
       616       793       798       799       616       793       794       789
       616       793       794       795       617       440       443       442
       617       440       443       444       617       618       619       616
       617       618       619       620       617       622       623       620
       617       622       623       624       618       613       614       609
       618       613       614       615       618       617       622       621
       618       617       622       623       618       619       620       623
       618       619       620       797       619       616       793       798
       619       616       793       794       619       620       623       622
       619       620       623       624       619       620       797       802
       619       620       797       798       620       623       624       627
       620       623       624       801       620       797       802       801
       620       797       802       803       620       797       798       793
       620       797       798       799       621       444       447       446
       621       444       447       448       621       622       623       620
       621       622       623       624       621       626       627       624
       621       626       627       628       622       617       618       613
       622       617       618       619       622       621       626       625
       622       621       626       627       622       623       624       627
       622       623       624       801       623       620       797       802
       623       620       797       798       623       624       627       626
       623       624       627       628       623       624       801       802
       623       624       801       806       624       627       628       631
       624       627       628       805       624       801       802       797
       624       801       802       803       624       801       806       805
       624       801       806       807       625       448       451       450
       625       448       451       452       625       626       627       624
       625       626       627       628       625       630       631       628
       625       630       631       632       626       621       622       617
       626       621       622       623       626       625       630       629
       626       625       630       631       626       627       628       631
       626       627       628       805       627       624       801       802
       627       624       801       806       627       628       631       630
       627       628       631       632       627       628       805       806
       627       628       805       810       628       631       632       635
       628       631       632       809       628       805       806       801
       628       805       806       807       628       805       810       809
       628       805       810       811       629       452       455       454
       629       452       455       456       629       630       631       628
       629       630       631       632       629       634       635       632
       629       634       635       636       630       625       626       621
       630       625       626       627       630       629       634       633
       630       629       634       635       630       631       632       635
       630       631       632       809       631       628       805       806
       631       628       805       810       631       632       635       634
       631       632       635       636       631       632       809       814
       631       632       809       810       632       635       636       639
       632       635       636       813       632       809       814       813
       632       809       814       815       632       809       810       805
       632       809       810       811       633       456       459       458
       633       456       459       460       633       634       635       632
       633       634       635       636       633       638       639       636
       633       638       639       640       634       629       630       625
       634       629       630       631       634       633       638       637
       634       633       638       639       634       635       636       639
       634       635       636       813       635       632       809       814
       635       632       809       810       635       636       639       638
       635       636       639       640       635       636       813       814
       635       636       813       818       636       639       640       643
       636       639       640       817       636       813       814       809
       636       813       814       815       636       813       818       817
       636       813       818       819       637       460       463       462
       637       460       463       464       637       638       639       636
       637       638       639       640       637       642       643       640
       637       642       643       644       638       633       634       629
       638       633       634       635       638       637       642       641
       638       637       642       643       638       639       640       643
       638       639       640       817       639       636       813       814
       639       636       813       818       639       640       643       642
       639       640       643       644       639       640       817       822
       639       640       817       818       640       643       644       647
       640       643       644       821       640       817       822       821
       640       817       822       823       640       817       818       813
       640       817       818       819       641       464       467       466
       641       464       467       468       641       642       643       640
       641       642       643       644       641       646       647       644
       641       646       647       648       642       637       638       633
       642       637       638       639       642       641       646       645
       642       641       646       647       642       643       644       647
       642       643       644       821       643       640       817       822
       643       640       817       818       643       644       647       646
       643       644       647       648       643       644       821       822
       643       644       821       826       644       647       648       651
       644       647       648       825       644       821       822       817
       644       821       822       823       644       821       826       825
       644       821       826       827       645       468       471       470
       645       468       471       472       645       646       647       644
       645       646       647       648       645       650       651       648
       645       650       651       652       646       641       642       637
       646       641       642       643       646       645       650       649
       646       645       650       651       646       647       648       651
       646       647       648       825       647       644       821       822
       647       644       821       826       647       648       651       650
       647       648       651       652       647       648       825       826
       647       648       825       830       648       651       652       655
       648       651       652       829       648       825       826       821
       648       825       826       827       648       825       830       829
       648       825       830       831       649       472       475       474
       649       472       475       476       649       650       651       648
       649       650       651       652       649       654       655       652
       649       654       655       656       650       645       646       641
       650       645       646       647       650       649       654       653
       650       649       654       655       650       651       652       655
       650       651       652       829       651       648       825       826
       651       648       825       830       651       652       655       654
       651       652       655       656       651       652       829       834
       651       652       829       830       652       655       656       659
       652       655       656       833       652       829       834       833
       652       829       834       835       652       829       830       825
       652       829       830       831       653       476       479       478
       653       476       479       480       653       654       655       652
       653       654       655       656       653       658       659       656
       653       658       659       660       654       649       650       645
       654       649       650       651       654       653       658       657
       654       653       658       659       654       655       656       659
       654       655       656       833       655       652       829       834
       655       652       829       830       655       656       659       658
       655       656       659       660       655       656       833       838
       655       656       833       834       656       659       660       663
       656       659       660       837       656       833       838       837
       656       833       838       839       656       833       834       829
       656       833       834       835       657       480       483       482
       657       480       483       484       657       658       659       656
       657       658       659       660       657       662       663       660
       657       662       663       664       658       653       654       649
       658       653       654       655       658       657       662       661
       658       657       662       663       658       659       660       663
       658       659       660       837       659       656       833       838
       659       656       833       834       659       660       663       662
       659       660       663       664       659       660       837       842
       659       660       837       838       660       663       664       667
       660       663       664       841       660       837       842       841
       660       837       842       843       660       837       838       833
       660       837       838       839       661       484       487       486
       661       484       487       488       661       662       663       660
       661       662       663       664       661       666       667       664
       661       666       667       668       662       657       658       653
       662       657       658       659       662       661       666       665
       662       661       666       667       662       663       664       667
       662       663       664       841       663       660       837       842
       663       660       837       838       663       664       667       666
       663       664       667       668       663       664       841       842
       663       664       841       846       664       667       668       671
       664       667       668       845       664       841       842       837
       664       841       842       843       664       841       846       845
       664       841       846       847       665       488       491       490
       665       488       491       492       665       666       667       664
       665       666       667       668       665       670       671       668
       665       670       671       672       666       661       662       657
       666       661       662       663       666       665       670       669
       666       665       670       671       666       667       668       671
       666       667       668       845       667       664       841       842
       667       664       841       846       667       668       671       670
       667       668       671       672       667       668       845       846
       667       668       845       850       668       671       672       675
       668       671       672       849       668       845       846       841
       668       845       846       847       668       845       850       849
       668       845       850       851       669       492       495       494
       669       492       495       496       669       670       671       668
       669       670       671       672       669       674       675       672
       669       674       675       676       670       665       666       661
       670       665       666       667       670       669       674       673
       670       669       674       675       670       671       672       675
       670       671       672       849       671       668       845       846
       671       668       845       850       671       672       675       674
       671       672       675       676       671       672       849       854
       671       672       849       850       672       675       676       679
       672       675       676       853       672       849       854       853
       672       849       854       855       672       849       850       845
       672       849       850       851       673       496       499       498
       673       496       499       500       673       674       675       672
       673       674       675       676       673       678       679       676
       673       678       679       680       674       669       670       665
       674       669       670       671       674       673       678       677
       674       673       678       679       674       675       676       679
       674       675       676       853       675       672       849       854
       675       672       849       850       675       676       679       678
       675       676       679       680       675       676       853       858
       675       676       853       854       676       679       680       683
       676       679       680       857       676       853       858       857
       676       853       858       859       676       853       854       849
       676       853       854       855       677       500       503       502
       677       500       503       504       677       678       679       676
       677       678       679       680       677       682       683       680
       677       682       683       684       678       673       674       669
       678       673       674       675       678       677       682       681
       678       677       682       683       678       679       680       683
       678       679       680       857       679       676       853       858
       679       676       853       854       679       680       683       682
       679       680       683       684       679       680       857       862
       679       680       857       858       680       683       684       687
       680       683       684       861       680       857       862       861
       680       857       862       863       680       857       858       853
       680       857       858       859       681       504       507       506
       681       504       507       508       681       682       683       680
       681       682       683       684       681       686       687       684
       681       686       687       688       682       677       678       673
       682       677       678       679       682       681       686       685
       682       681       686       687       682       683       684       687
       682       683       684       861       683       680       857       862
       683       680       857       858       683       684       687       686
       683       684       687       688       683       684       861       862
       683       684       861       866       684       687       688       691
       684       687       688       865       684       861       862       857
       684       861       862       863       684       861       866       865
       684       861       866       867       685       508       511       510
       685       508       511       512       685       686       687       684
       685       686       687       688       685       690       691       688
       685       690       691       692       686       681       682       677
       686       681       682       683       686       685       690       689
       686       685       690       691       686       687       688       691
       686       687       688       865       687       684       861       862
       687       684       861       866       687       688       691       690
       687       688       691       692       687       688       865       866
       687       688       865       870       688       691       692       695
       688       691       692       869       688       865       866       861
       688       865       866       867       688       865       870       869
       688       865       870       871       689       512       515       514
       689       512       515       516       689       690       691       688
       689       690       691       692       689       694       695       692
       689       694       695       696       690       685       686       681
       690       685       686       687       690       689       694       693
       690       689       694       695       690       691       692       695
       690       691       692       869       691       688       865       866
       691       688       865       870       691       692       695       694
       691       692       695       696       691       692       869       874
       691       692       869       870       692       695       696       699
       692       695       696       873       692       869       874       873
       692       869       874       875       692       869       870       865
       692       869       870       871       693       516       519       518
       693       516       519       520       693       694       695       692
       693       694       695       696       693       698       699       696
       693       698       699       700       694       689       690       685
       694       689       690       691       694       693       698       697
       694       693       698       699       694       695       696       699
       694       695       696       873       695       692       869       874
       695       692       869       870       695       696       699       698
       695       696       699       700       695       696       873       878
       695       696       873       874       696       699       700       703
       696       699       700       877       696       873       878       877
       696       873       878       879       696       873       874       869
       696       873       874       875       697       520       523       522
       697       520       523       524       697       698       699       696
       697       698       699       700       697       702       703       700
       697       702       703       704       698       693       694       689
       698       693       694       695       698       697       702       701
       698       697       702       703       698       699       700       703
       698       699       700       877       699       696       873       878
       699       696       873       874       699       700       703       702
       699       700       703       704       699       700       877       882
       699       700       877       878       700       703       704       707
       700       703       704       881       700       877       882       881
       700       877       882       883       700       877       878       873
       700       877       878       879       701       524       527       526
       701       524       527       528       701       702       703       700
       701       702       703       704       701       706       707       704
       701       706       707       708       702       697       698       693
       702       697       698       699       702       701       706       705
       702       701       706       707       702       703       704       707
       702       703       704       881       703       700       877       882
       703       700       877       878       703       704       707       706
       703       704       707       708       703       704       881       882
       703       704       881       886       704       707       708       711
       704       707       708       885       704       881       882       877
       704       881       882       883       704       881       886       885
       704       881       886       887       705       528       531       530
       705       528       531       532       705       706       707       704
       705       706       707       708       705       710       711       708
       705       710       711       712       706       701       702       697
       706       701       702       703       706       705       710       709
       706       705       710       711       706       707       708       711
       706       707       708       885       707       704       881       882
       707       704       881       886       707       708       711       710
       707       708       711       712       707       708       885       886
       707       708       885       890       708       711       712       715
       708       711       712       889       708       885       886       881
       708       885       886       887       708       885       890       889
       708       885       890       891       709       532       535       534
       709       532       535       536       709       710       711       708
       709       710       711       712       709       714       715       712
       709       714       715       716       710       705       706       701
       710       705       706       707       710       709       714       713
       710       709       714       715       710       711       712       715
       710       711       712       889       711       708       885       886
       711       708       885       890       711       712       715       714
       711       712       715       716       711       712       889       894
       711       712       889       890       712       715       716       719
       712       715       716       893       712       889       894       893
       712       889       894       895       712       889       890       885
       712       889       890       891       713       536       539       538
       713       536       539       540       713       714       715       712
       713       714       715       716       713       718       719       716
       713       718       719       720       714       709       710       705
       714       709       710       711       714       713       718       717
       714       713       718       719       714       715       716       719
       714       715       716       893       715       712       889       894
       715       712       889       890       715       716       719       718
       715       716       719       720       715       716       893       898
       715       716       893       894       716       719       720       897
       716       893       898       897       716       893       898       899
       716       893       894       889       716       893       894       895
       717       718       719       716       717       718       719       720
       718       713       714       709       718       713       714       715
       718       719       720       897       719       716       893       898
       719       716       893       894       719       720       897       898
       720       897       898       893       720       897       898       899
       721       544       547       546       721       544       547       548
       721       722       723       724       721       726       727       724
       721       726       727       728       722       721       726       725
       722       721       726       727       722       723       724       727
       722       723       724       901       723       724       727       726
       723       724       727       728       723       724       901       902
       723       724       901       906       724       727       728       731
       724       727       728       905       724       901       902       903
       724       901       906       905       724       901       906       907
       725       548       551       550       725       548       551       552
       725       726       727       724       725       726       727       728
       725       730       731       728       725       730       731       732
       726       721       722       723       726       725       730       729
       726       725       730       731       726       727       728       731
       726       727       728       905       727       724       901       902
       727       724       901       906       727       728       731       730
       727       728       731       732       727       728       905       906
       727       728       905       910       728       731       732       735
       728       731       732       909       728       905       906       901
       728       905       906       907       728       905       910       909
       728       905       910       911       729       552       555       554
       729       552       555       556       729       730       731       728
       729       730       731       732       729       734       735       732
       729       734       735       736       730       725       726       721
       730       725       726       727       730       729       734       733
       730       729       734       735       730       731       732       735
       730       731       732       909       731       728       905       906
       731       728       905       910       731       732       735       734
       731       732       735       736       731       732       909       914
       731       732       909       910       732       735       736       739
       732       735       736       913       732       909       914       913
       732       909       914       915       732       909       910       905
       732       909       910       911       733       556       559       558
       733       556       559       560       733       734       735       732
       733       734       735       736       733       738       739       736
       733       738       739       740       734       729       730       725
       734       729       730       731       734       733       738       737
       734       733       738       739       734       735       736       739
       734       735       736       913       735       732       909       914
       735       732       909       910       735       736       739       738
       735       736       739       740       735       736       913       918
       735       736       913       914       736       739       740       743
       736       739       740       917       736       913       918       917
       736       913       918       919       736       913       914       909
       736       913       914       915       737       560       563       562
       737       560       563       564       737       738       739       736
       737       738       739       740       737       742       743       740
       737       742       743       744       738       733       734       729
       738       733       734       735       738       737       742       741
       738       737       742       743       738       739       740       743
       738       739       740       917       739       736       913       918
       739       736       913       914       739       740       743       742
       739       740       743       744       739       740       917       922
       739       740       917       918       740       743       744       747
       740       743       744       921       740       917       922       921
       740       917       922       923       740       917       918       913
       740       917       918       919       741       564       567       566
       741       564       567       568       741       742       743       740
       741       742       743       744       741       746       747       744
       741       746       747       748       742       737       738       733
       742       737       738       739       742       741       746       745
       742       741       746       747       742       743       744       747
       742       743       744       921       743       740       917       922
       743       740       917       918       743       744       747       746
       743       744       747       748       743       744       921       922
       743       744       921       926       744       747       748       751
       744       747       748       925       744       921       922       917
       744       921       922       923       744       921       926       925
       744       921       926       927       745       568       571       570
       745       568       571       572       745       746       747       744
       745       746       747       748       745       750       751       748
       745       750       751       752       746       741       742       737
       746       741       742       743       746       745       750       749
       746       745       750       751       746       747       748       751
       746       747       748       925       747       744       921       922
       747       744       921       926       747       748       751       750
       747       748       751       752       747       748       925       926
       747       748       925       930       748       751       752       755
       748       751       752       929       748       925       926       921
       748       925       926       927       748       925       930       929
       748       925       930       931       749       572       575       574
       749       572       575       576       749       750       751       748
       749       750       751       752       749       754       755       752
       749       754       755       756       750       745       746       741
       750       745       746       747       750       749       754       753
       750       749       754       755       750       751       752       755
       750       751       752       929       751       748       925       926
       751       748       925       930       751       752       755       754
       751       752       755       756       751       752       929       934
       751       752       929       930       752       755       756       759
       752       755       756       933       752       929       934       933
       752       929       934       935       752       929       930       925
       752       929       930       931       753       576       579       578
       753       576       579       580       753       754       755       752
       753       754       755       756       753       758       759       756
       753       758       759       760       754       749       750       745
       754       749       750       751       754       753       758       757
       754       753       758       759       754       755       756       759
       754       755       756       933       755       752       929       934
       755       752       929       930       755       756       759       758
       755       756       759       760       755       756       933       938
       755       756       933       934       756       759       760       763
       756       759       760       937       756       933       938       937
       756       933       938       939       756       933       934       929
       756       933       934       935       757       580       583       582
       757       580       583       584       757       758       759       756
       757       758       759       760       757       762       763       760
       757       762       763       764       758       753       754       749
       758       753       754       755       758       757       762       761
       758       757       762       763       758       759       760       763
       758       759       760       937       759       756       933       938
       759       756       933       934       759       760       763       762
       759       760       763       764       759       760       937       942
       759       760       937       938       760       763       764       767
       760       763       764       941       760       937       942       941
       760       937       942       943       760       937       938       933
       760       937       938       939       761       584       587       586
       761       584       587       588       761       762       763       760
       761       762       763       764       761       766       767       764
       761       766       767       768       762       757       758       753
       762       757       758       759       762       761       766       765
       762       761       766       767       762       763       764       767
       762       763       764       941       763       760       937       942
       763       760       937       938       763       764       767       766
       763       764       767       768       763       764       941       942
       763       764       941       946       764       767       768       771
       764       767       768       945       764       941       942       937
       764       941       942       943       764       941       946       945
       764       941       946       947       765       588       591       590
       765       588       591       592       765       766       767       764
       765       766       767       768       765       770       771       768
       765       770       771       772       766       761       762       757
       766       761       762       763       766       765       770       769
       766       765       770       771       766       767       768       771
       766       767       768       945       767       764       941       942
       767       764       941       946       767       768       771       770
       767       768       771       772       767       768       945       946
       767       768       945       950       768       771       772       775
       768       771       772       949       768       945       946       941
       768       945       946       947       768       945       950       949
       768       945       950       951       769       592       595       594
       769       592       595       596       769       770       771       768
       769       770       771       772       769       774       775       772
       769       774       775       776       770       765       766       761
       770       765       766       767       770       769       774       773
       770       769       774       775       770       771       772       775
       770       771       772       949       771       768       945       946
       771       768       945       950       771       772       775       774
       771       772       775       776       771       772       949       954
       771       772       949       950       772       775       776       779
       772       775       776       953       772       949       954       953
       772       949       954       955       772       949       950       945
       772       949       950       951       773       596       599       598
       773       596       599       600       773       774       775       772
       773       774       775       776       773       778       779       776
       773       778       779       780       774       769       770       765
       774       769       770       771       774       773       778       777
       774       773       778       779       774       775       776       779
       774       775       776       953       775       772       949       954
       775       772       949       950       775       776       779       778
       775       776       779       780       775       776       953       958
       775       776       953       954       776       779       780       783
       776       779       780       957       776       953       958       957
       776       953       958       959       776       953       954       949
       776       953       954       955       777       600       603       602
       777       600       603       604       777       778       779       776
       777       778       779       780       777       782       783       780
       777       782       783       784       778       773       774       769
       778       773       774       775       778       777       782       781
       778       777       782       783       778       779       780       783
       778       779       780       957       779       776       953       958
       779       776       953       954       779       780       783       782
       779       780       783       784       779       780       957       962
       779       780       957       958       780       783       784       787
       780       783       784       961       780       957       962       961
       780       957       962       963       780       957       958       953
       780       957       958       959       781       604       607       606
       781       604       607       608       781       782       783       780
       781       782       783       784       781       786       787       784
       781       786       787       788       782       777       778       773
       782       777       778       779       782       781       786       785
       782       781       786       787       782       783       784       787
       782       783       784       961       783       780       957       962
       783       780       957       958       783       784       787       786
       783       784       787       788       783       784       961       962
       783       784       961       966       784       787       788       791
       784       787       788       965       784       961       962       957
       784       961       962       963       784       961       966       965
       784       961       966       967       785       608       611       610
       785       608       611       612       785       786       787       784
       785       786       787       788       785       790       791       788
       785       790       791       792       786       781       782       777
       786       781       782       783       786       785       790       789
       786       785       790       791       786       787       788       791
       786       787       788       965       787       784       961       962
       787       784       961       966       787       788       791       790
       787       788       791       792       787       788       965       966
       787       788       965       970       788       791       792       795
       788       791       792       969       788       965       966       961
       788       965       966       967       788       965       970       969
       788       965       970       971       789       612       615       614
       789       612       615       616       789       790       791       788
       789       790       791       792       789       794       795       792
       789       794       795       796       790       785       786       781
       790       785       786       787       790       789       794       793
       790       789       794       795       790       791       792       795
       790       791       792       969       791       788       965       966
       791       788       965       970       791       792       795       794
       791       792       795       796       791       792       969       974
       791       792       969       970       792       795       796       799
       792       795       796       973       792       969       974       973
       792       969       974       975       792       969       970       965
       792       969       970       971       793       616       619       618
       793       616       619       620       793       794       795       792
       793       794       795       796       793       798       799       796
       793       798       799       800       794       789       790       785
       794       789       790       791       794       793       798       797
       794       793       798       799       794       795       796       799
       794       795       796       973       795       792       969       974
       795       792       969       970       795       796       799       798
       795       796       799       800       795       796       973       978
       795       796       973       974       796       799       800       803
       796       799       800       977       796       973       978       977
       796       973       978       979       796       973       974       969
       796       973       974       975       797       620       623       622
       797       620       623       624       797       798       799       796
       797       798       799       800       797       802       803       800
       797       802       803       804       798       793       794       789
       798       793       794       795       798       797       802       801
       798       797       802       803       798       799       800       803
       798       799       800       977       799       796       973       978
       799       796       973       974       799       800       803       802
       799       800       803       804       799       800       977       982
       799       800       977       978       800       803       804       807
       800       803       804       981       800       977       982       981
       800       977       982       983       800       977       978       973
       800       977       978       979       801       624       627       626
       801       624       627       628       801       802       803       800
       801       802       803       804       801       806       807       804
       801       806       807       808       802       797       798       793
       802       797       798       799       802       801       806       805
       802       801       806       807       802       803       804       807
       802       803       804       981       803       800       977       982
       803       800       977       978       803       804       807       806
       803       804       807       808       803       804       981       982
       803       804       981       986       804       807       808       811
       804       807       808       985       804       981       982       977
       804       981       982       983       804       981       986       985
       804       981       986       987       805       628       631       630
       805       628       631       632       805       806       807       804
       805       806       807       808       805       810       811       808
       805       810       811       812       806       801       802       797
       806       801       802       803       806       805       810       809
       806       805       810       811       806       807       808       811
       806       807       808       985       807       804       981       982
       807       804       981       986       807       808       811       810
       807       808       811       812       807       808       985       986
       807       808       985       990       808       811       812       815
       808       811       812       989       808       985       986       981
       808       985       986       987       808       985       990       989
       808       985       990       991       809       632       635       634
       809       632       635       636       809       810       811       808
       809       810       811       812       809       814       815       812
       809       814       815       816       810       805       806       801
       810       805       806       807       810       809       814       813
       810       809       814       815       810       811       812       815
       810       811       812       989       811       808       985       986
       811       808       985       990       811       812       815       814
       811       812       815       816       811       812       989       994
       811       812       989       990       812       815       816       819
       812       815       816       993       812       989       994       993
       812       989       994       995       812       989       990       985
       812       989       990       991       813       636       639       638
       813       636       639       640       813       814       815       812
       813       814       815       816       813       818       819       816
       813       818       819       820       814       809       810       805
       814       809       810       811       814       813       818       817
       814       813       818       819       814       815       816       819
       814       815       816       993       815       812       989       994
       815       812       989       990       815       816       819       818
       815       816       819       820       815       816       993       998
       815       816       993       994       816       819       820       823
       816       819       820       997       816       993       998       997
       816       993       998       999       816       993       994       989
       816       993       994       995       817       640       643       642
       817       640       643       644       817       818       819       816
       817       818       819       820       817       822       823       820
       817       822       823       824       818       813       814       809
       818       813       814       815       818       817       822       821
       818       817       822       823       818       819       820       823
       818       819       820       997       819       816       993       998
       819       816       993       994       819       820       823       822
       819       820       823       824       819       820       997      1002
       819       820       997       998       820       823       824       827
       820       823       824      1001       820       997      1002      1001
       820       997      1002      1003       820       997       998       993
       820       997       998       999       821       644       647       646
       821       644       647       648       821       822       823       820
       821       822       823       824       821       826       827       824
       821       826       827       828       822       817       818       813
       822       817       818       819       822       821       826       825
       822       821       826       827       822       823       824       827
       822       823       824      1001       823       820       997      1002
       823       820       997       998       823       824       827       826
       823       824       827       828       823       824      1001      1002
       823       824      1001      1006       824       827       828       831
       824       827       828      1005       824      1001      1002       997
       824      1001      1002      1003       824      1001      1006      1005
       824      1001      1006      1007       825       648       651       650
       825       648       651       652       825       826       827       824
       825       826       827       828       825       830       831       828
       825       830       831       832       826       821       822       817
       826       821       822       823       826       825       830       829
       826       825       830       831       826       827       828       831
       826       827       828      1005       827       824      1001      1002
       827       824      1001      1006       827       828       831       830
       827       828       831       832       827       828      1005      1006
       827       828      1005      1010       828       831       832       835
       828       831       832      1009       828      1005      1006      1001
       828      1005      1006      1007       828      1005      1010      1009
       828      1005      1010      1011       829       652       655       654
       829       652       655       656       829       830       831       828
       829       830       831       832       829       834       835       832
       829       834       835       836       830       825       826       821
       830       825       826       827       830       829       834       833
       830       829       834       835       830       831       832       835
       830       831       832      1009       831       828      1005      1006
       831       828      1005      1010       831       832       835       834
       831       832       835       836       831       832      1009      1014
       831       832      1009      1010       832       835       836       839
       832       835       836      1013       832      1009      1014      1013
       832      1009      1014      1015       832      1009      1010      1005
       832      1009      1010      1011       833       656       659       658
       833       656       659       660       833       834       835       832
       833       834       835       836       833       838       839       836
       833       838       839       840       834       829       830       825
       834       829       830       831       834       833       838       837
       834       833       838       839       834       835       836       839
       834       835       836      1013       835       832      1009      1014
       835       832      1009      1010       835       836       839       838
       835       836       839       840       835       836      1013      1018
       835       836      1013      1014       836       839       840       843
       836       839       840      1017       836      1013      1018      1017
       836      1013      1018      1019       836      1013      1014      1009
       836      1013      1014      1015       837       660       663       662
       837       660       663       664       837       838       839       836
       837       838       839       840       837       842       843       840
       837       842       843       844       838       833       834       829
       838       833       834       835       838       837       842       841
       838       837       842       843       838       839       840       843
       838       839       840      1017       839       836      1013      1018
       839       836      1013      1014       839       840       843       842
       839       840       843       844       839       840      1017      1022
       839       840      1017      1018       840       843       844       847
       840       843       844      1021       840      1017      1022      1021
       840      1017      1022      1023       840      1017      1018      1013
       840      1017      1018      1019       841       664       667       666
       841       664       667       668       841       842       843       840
       841       842       843       844       841       846       847       844
       841       846       847       848       842       837       838       833
       842       837       838       839       842       841       846       845
       842       841       846       847       842       843       844       847
       842       843       844      1021       843       840      1017      1022
       843       840      1017      1018       843       844       847       846
       843       844       847       848       843       844      1021      1022
       843       844      1021      1026       844       847       848       851
       844       847       848      1025       844      1021      1022      1017
       844      1021      1022      1023       844      1021      1026      1025
       844      1021      1026      1027       845       668       671       670
       845       668       671       672       845       846       847       844
       845       846       847       848       845       850       851       848
       845       850       851       852       846       841       842       837
       846       841       842       843       846       845       850       849
       846       845       850       851       846       847       848       851
       846       847       848      1025       847       844      1021      1022
       847       844      1021      1026       847       848       851       850
       847       848       851       852       847       848      1025      1026
       847       848      1025      1030       848       851       852       855
       848       851       852      1029       848      1025      1026      1021
       848      1025      1026      1027       848      1025      1030      1029
       848      1025      1030      1031       849       672       675       674
       849       672       675       676       849       850       851       848
       849       850       851       852       849       854       855       852
       849       854       855       856       850       845       846       841
       850       845       846       847       850       849       854       853
       850       849       854       855       850       851       852       855
       850       851       852      1029       851       848      1025      1026
       851       848      1025      1030       851       852       855       854
       851       852       855       856       851       852      1029      1034
       851       852      1029      1030       852       855       856       859
       852       855       856      1033       852      1029      1034      1033
       852      1029      1034      1035       852      1029      1030      1025
       852      1029      1030      1031       853       676       679       678
       853       676       679       680       853       854       855       852
       853       854       855       856       853       858       859       856
       853       858       859       860       854       849       850       845
       854       849       850       851       854       853       858       857
       854       853       858       859       854       855       856       859
       854       855       856      1033       855       852      1029      1034
       855       852      1029      1030       855       856       859       858
       855       856       859       860       855       856      1033      1034
       855       856      1033      1038       856       859       860       863
       856       859       860      1037       856      1033      1034      1029
       856      1033      1034      1035       856      1033      1038      1037
       856      1033      1038      1039       857       680       683       682
       857       680       683       684       857       858       859       856
       857       858       859       860       857       862       863       860
       857       862       863       864       858       853       854       849
       858       853       854       855       858       857       862       861
       858       857       862       863       858       859       860       863
       858       859       860      1037       859       856      1033      1034
       859       856      1033      1038       859       860       863       862
       859       860       863       864       859       860      1037      1042
       859       860      1037      1038       860       863       864       867
       860       863       864      1041       860      1037      1042      1041
       860      1037      1042      1043       860      1037      1038      1033
       860      1037      1038      1039       861       684       687       686
       861       684       687       688       861       862       863       860
       861       862       863       864       861       866       867       864
       861       866       867       868       862       857       858       853
       862       857       858       859       862       861       866       865
       862       861       866       867       862       863       864       867
       862       863       864      1041       863       860      1037      1042
       863       860      1037      1038       863       864       867       866
       863       864       867       868       863       864      1041      1042
       863       864      1041      1046       864       867       868       871
       864       867       868      1045       864      1041      1042      1037
       864      1041      1042      1043       864      1041      1046      1045
       864      1041      1046      1047       865       688       691       690
       865       688       691       692       865       866       867       864
       865       866       867       868       865       870       871       868
       865       870       871       872       866       861       862       857
       866       861       862       863       866       865       870       869
       866       865       870       871       866       867       868       871
       866       867       868      1045       867       864      1041      1042
       867       864      1041      1046       867       868       871       870
       867       868       871       872       867       868      1045      1046
       867       868      1045      1050       868       871       872       875
       868       871       872      1049       868      1045      1046      1041
       868      1045      1046      1047       868      1045      1050      1049
       868      1045      1050      1051       869       692       695       694
       869       692       695       696       869       870       871       868
       869       870       871       872       869       874       875       872
       869       874       875       876       870       865       866       861
       870       865       866       867       870       869       874       873
       870       869       874       875       870       871       872       875
       870       871       872      1049       871       868      1045      1046
       871       868      1045      1050       871       872       875       874
       871       872       875       876       871       872      1049      1054
       871       872      1049      1050       872       875       876       879
       872       875       876      1053       872      1049      1054      1053
       872      1049      1054      1055       872      1049      1050      1045
       872      1049      1050      1051       873       696       699       698
       873       696       699       700       873       874       875       872
       873       874       875       876       873       878       879       876
       873       878       879       880       874       869       870       865
       874       869       870       871       874       873       878       877
       874       873       878       879       874       875       876       879
       874       875       876      1053       875       872      1049      1054
       875       872      1049      1050       875       876       879       878
       875       876       879       880       875       876      1053      1058
       875       876      1053      1054       876       879       880       883
       876       879       880      1057       876      1053      1058      1057
       876      1053      1058      1059       876      1053      1054      1049
       876      1053      1054      1055       877       700       703       702
       877       700       703       704       877       878       879       876
       877       878       879       880       877       882       883       880
       877       882       883       884       878       873       874       869
       878       873       874       875       878       877       882       881
       878       877       882       883       878       879       880       883
       878       879       880      1057       879       876      1053      1058
       879       876      1053      1054       879       880       883       882
       879       880       883       884       879       880      1057      1062
       879       880      1057      1058       880       883       884       887
       880       883       884      1061       880      1057      1062      1061
       880      1057      1062      1063       880      1057      1058      1053
       880      1057      1058      1059       881       704       707       706
       881       704       707       708       881       882       883       880
       881       882       883       884       881       886       887       884
       881       886       887       888       882       877       878       873
       882       877       878       879       882       881       886       885
       882       881       886       887       882       883       884       887
       882       883       884      1061       883       880      1057      1062
       883       880      1057      1058       883       884       887       886
       883       884       887       888       883       884      1061      1062
       883       884      1061      1066       884       887       888       891
       884       887       888      1065       884      1061      1062      1057
       884      1061      1062      1063       884      1061      1066      1065
       884      1061      1066      1067       885       708       711       710
       885       708       711       712       885       886       887       884
       885       886       887       888       885       890       891       888
       885       890       891       892       886       881       882       877
       886       881       882       883       886       885       890       889
       886       885       890       891       886       887       888       891
       886       887       888      1065       887       884      1061      1062
       887       884      1061      1066       887       888       891       890
       887       888       891       892       887       888      1065      1066
       887       888      1065      1070       888       891       892       895
       888       891       892      1069       888      1065      1066      1061
       888      1065      1066      1067       888      1065      1070      1069
       888      1065      1070      1071       889       712       715       714
       889       712       715       716       889       890       891       888
       889       890       891       892       889       894       895       892
       889       894       895       896       890       885       886       881
       890       885       886       887       890       889       894       893
       890       889       894       895       890       891       892       895
       890       891       892      1069       891       888      1065      1066
       891       888      1065      1070       891       892       895       894
       891       892       895       896       891       892      1069      1074
       891       892      1069      1070       892       895       896       899
       892       895       896      1073       892      1069      1074      1073
       892      1069      1074      1075       892      1069      1070      1065
       892      1069      1070      1071       893       716       719       718
       893       716       719       720       893       894       895       892
       893       894       895       896       893       898       899       896
       893       898       899       900       894       889       890       885
       894       889       890       891       894       893       898       897
       894       893       898       899       894       895       896       899
       894       895       896      1073       895       892      1069      1074
       895       892      1069      1070       895       896       899       898
       895       896       899       900       895       896      1073      1078
       895       896      1073      1074       896       899       900      1077
       896      1073      1078      1077       896      1073      1078      1079
       896      1073      1074      1069       896      1073      1074      1075
       897       898       899       896       897       898       899       900
       898       893       894       889       898       893       894       895
       898       899       900      1077       899       896      1073      1078
       899       896      1073      1074       899       900      1077      1078
       900      1077      1078      1073       900      1077      1078      1079
       901       724       727       726       901       724       727       728
       901       902       903       904       901       906       907       904
       901       906       907       908       902       901       906       905
       902       901       906       907       902       903       904       907
       902       903       904      1081       903       904       907       906
       903       904       907       908       903       904      1081      1082
       903       904      1081      1086       904       907       908       911
       904       907       908      1085       904      1081      1082      1083
       904      1081      1086      1085       904      1081      1086      1087
       905       728       731       730       905       728       731       732
       905       906       907       904       905       906       907       908
       905       910       911       908       905       910       911       912
       906       901       902       903       906       905       910       909
       906       905       910       911       906       907       908       911
       906       907       908      1085       907       904      1081      1082
       907       904      1081      1086       907       908       911       910
       907       908       911       912       907       908      1085      1086
       907       908      1085      1090       908       911       912       915
       908       911       912      1089       908      1085      1086      1081
       908      1085      1086      1087       908      1085      1090      1089
       908      1085      1090      1091       909       732       735       734
       909       732       735       736       909       910       911       908
       909       910       911       912       909       914       915       912
       909       914       915       916       910       905       906       901
       910       905       906       907       910       909       914       913
       910       909       914       915       910       911       912       915
       910       911       912      1089       911       908      1085      1086
       911       908      1085      1090       911       912       915       914
       911       912       915       916       911       912      1089      1094
       911       912      1089      1090       912       915       916       919
       912       915       916      1093       912      1089      1094      1093
       912      1089      1094      1095       912      1089      1090      1085
       912      1089      1090      1091       913       736       739       738
       913       736       739       740       913       914       915       912
       913       914       915       916       913       918       919       916
       913       918       919       920       914       909       910       905
       914       909       910       911       914       913       918       917
       914       913       918       919       914       915       916       919
       914       915       916      1093       915       912      1089      1094
       915       912      1089      1090       915       916       919       918
       915       916       919       920       915       916      1093      1098
       915       916      1093      1094       916       919       920       923
       916       919       920      1097       916      1093      1098      1097
       916      1093      1098      1099       916      1093      1094      1089
       916      1093      1094      1095       917       740       743       742
       917       740       743       744       917       918       919       916
       917       918       919       920       917       922       923       920
       917       922       923       924       918       913       914       909
       918       913       914       915       918       917       922       921
       918       917       922       923       918       919       920       923
       918       919       920      1097       919       916      1093      1098
       919       916      1093      1094       919       920       923       922
       919       920       923       924       919       920      1097      1102
       919       920      1097      1098       920       923       924       927
       920       923       924      1101       920      1097      1102      1101
       920      1097      1102      1103       920      1097      1098      1093
       920      1097      1098      1099       921       744       747       746
       921       744       747       748       921       922       923       920
       921       922       923       924       921       926       927       924
       921       926       927       928       922       917       918       913
       922       917       918       919       922       921       926       925
       922       921       926       927       922       923       924       927
       922       923       924      1101       923       920      1097      1102
       923       920      1097      1098       923       924       927       926
       923       924       927       928       923       924      1101      1102
       923       924      1101      1106       924       927       928       931
       924       927       928      1105       924      1101      1102      1097
       924      1101      1102      1103       924      1101      1106      1105
       924      1101      1106      1107       925       748       751       750
       925       748       751       752       925       926       927       924
       925       926       927       928       925       930       931       928
       925       930       931       932       926       921       922       917
       926       921       922       923       926       925       930       929
       926       925       930       931       926       927       928       931
       926       927       928      1105       927       924      1101      1102
       927       924      1101      1106       927       928       931       930
       927       928       931       932       927       928      1105      1106
       927       928      1105      1110       928       931       932       935
       928       931       932      1109       928      1105      1106      1101
       928      1105      1106      1107       928      1105      1110      1109
       928      1105      1110      1111       929       752       755       754
       929       752       755       756       929       930       931       928
       929       930       931       932       929       934       935       932
       929       934       935       936       930       925       926       921
       930       925       926       927       930       929       934       933
       930       929       934       935       930       931       932       935
       930       931       932      1109       931       928      1105      1106
       931       928      1105      1110       931       932       935       934
       931       932       935       936       931       932      1109      1114
       931       932      1109      1110       932       935       936       939
       932       935       936      1113       932      1109      1114      1113
       932      1109      1114      1115       932      1109      1110      1105
       932      1109      1110      1111       933       756       759       758
       933       756       759       760       933       934       935       932
       933       934       935       936       933       938       939       936
       933       938       939       940       934       929       930       925
       934       929       930       931       934       933       938       937
       934       933       938       939       934       935       936       939
       934       935       936      1113       935       932      1109      1114
       935       932      1109      1110       935       936       939       938
       935       936       939       940       935       936      1113      1118
       935       936      1113      1114       936       939       940       943
       936       939       940      1117       936      1113      1118      1117
       936      1113      1118      1119       936      1113      1114      1109
       936      1113      1114      1115       937       760       763       762
       937       760       763       764       937       938       939       936
       937       938       939       940       937       942       943       940
       937       942       943       944       938       933       934       929
       938       933       934       935       938       937       942       941
       938       937       942       943       938       939       940       943
       938       939       940      1117       939       936      1113      1118
       939       936      1113      1114       939       940       943       942
       939       940       943       944       939       940      1117      1122
       939       940      1117      1118       940       943       944       947
       940       943       944      1121       940      1117      1122      1121
       940      1117      1122      1123       940      1117      1118      1113
       940      1117      1118      1119       941       764       767       766
       941       764       767       768       941       942       943       940
       941       942       943       944       941       946       947       944
       941       946       947       948       942       937       938       933
       942       937       938       939       942       941       946       945
       942       941       946       947       942       943       944       947
       942       943       944      1121       943       940      1117      1122
       943       940      1117      1118       943       944       947       946
       943       944       947       948       943       944      1121      1122
       943       944      1121      1126       944       947       948       951
       944       947       948      1125       944      1121      1122      1117
       944      1121      1122      1123       944      1121      1126      1125
       944      1121      1126      1127       945       768       771       770
       945       768       771       772       945       946       947       944
       945       946       947       948       945       950       951       948
       945       950       951       952       946       941       942       937
       946       941       942       943       946       945       950       949
       946       945       950       951       946       947       948       951
       946       947       948      1125       947       944      1121      1122
       947       944      1121      1126       947       948       951       950
       947       948       951       952       947       948      1125      1126
       947       948      1125      1130       948       951       952       955
       948       951       952      1129       948      1125      1126      1121
       948      1125      1126      1127       948      1125      1130      1129
       948      1125      1130      1131       949       772       775       774
       949       772       775       776       949       950       951       948
       949       950       951       952       949       954       955       952
       949       954       955       956       950       945       946       941
       950       945       946       947       950       949       954       953
       950       949       954       955       950       951       952       955
       950       951       952      1129       951       948      1125      1126
       951       948      1125      1130       951       952       955       954
       951       952       955       956       951       952      1129      1134
       951       952      1129      1130       952       955       956       959
       952       955       956      1133       952      1129      1134      1133
       952      1129      1134      1135       952      1129      1130      1125
       952      1129      1130      1131       953       776       779       778
       953       776       779       780       953       954       955       952
       953       954       955       956       953       958       959       956
       953       958       959       960       954       949       950       945
       954       949       950       951       954       953       958       957
       954       953       958       959       954       955       956       959
       954       955       956      1133       955       952      1129      1134
       955       952      1129      1130       955       956       959       958
       955       956       959       960       955       956      1133      1138
       955       956      1133      1134       956       959       960       963
       956       959       960      1137       956      1133      1138      1137
       956      1133      1138      1139       956      1133      1134      1129
       956      1133      1134      1135       957       780       783       782
       957       780       783       784       957       958       959       956
       957       958       959       960       957       962       963       960
       957       962       963       964       958       953       954       949
       958       953       954       955       958       957       962       961
       958       957       962       963       958       959       960       963
       958       959       960      1137       959       956      1133      1138
       959       956      1133      1134       959       960       963       962
       959       960       963       964       959       960      1137      1142
       959       960      1137      1138       960       963       964       967
       960       963       964      1141       960      1137      1142      1141
       960      1137      1142      1143       960      1137      1138      1133
       960      1137      1138      1139       961       784       787       786
       961       784       787       788       961       962       963       960
       961       962       963       964       961       966       967       964
       961       966       967       968       962       957       958       953
       962       957       958       959       962       961       966       965
       962       961       966       967       962       963       964       967
       962       963       964      1141       963       960      1137      1142
       963       960      1137      1138       963       964       967       966
       963       964       967       968       963       964      1141      1142
       963       964      1141      1146       964       967       968       971
       964       967       968      1145       964      1141      1142      1137
       964      1141      1142      1143       964      1141      1146      1145
       964      1141      1146      1147       965       788       791       790
       965       788       791       792       965       966       967       964
       965       966       967       968       965       970       971       968
       965       970       971       972       966       961       962       957
       966       961       962       963       966       965       970       969
       966       965       970       971       966       967       968       971
       966       967       968      1145       967       964      1141      1142
       967       964      1141      1146       967       968       971       970
       967       968       971       972       967       968      1145      1146
       967       968      1145      1150       968       971       972       975
       968       971       972      1149       968      1145      1146      1141
       968      1145      1146      1147       968      1145      1150      1149
       968      1145      1150      1151       969       792       795       794
       969       792       795       796       969       970       971       968
       969       970       971       972       969       974       975       972
       969       974       975       976       970       965       966       961
       970       965       966       967       970       969       974       973
       970       969       974       975       970       971       972       975
       970       971       972      1149       971       968      1145      1146
       971       968      1145      1150       971       972       975       974
       971       972       975       976       971       972      1149      1154
       971       972      1149      1150       972       975       976       979
       972       975       976      1153       972      1149      1154      1153
       972      1149      1154      1155       972      1149      1150      1145
       972      1149      1150      1151       973       796       799       798
       973       796       799       800       973       974       975       972
       973       974       975       976       973       978       979       976
       973       978       979       980       974       969       970       965
       974       969       970       971       974       973       978       977
       974       973       978       979       974       975       976       979
       974       975       976      1153       975       972      1149      1154
       975       972      1149      1150       975       976       979       978
       975       976       979       980       975       976      1153      1158
       975       976      1153      1154       976       979       980       983
       976       979       980      1157       976      1153      1158      1157
       976      1153      1158      1159       976      1153      1154      1149
       976      1153      1154      1155       977       800       803       802
       977       800       803       804       977       978       979       976
       977       978       979       980       977       982       983       980
       977       982       983       984       978       973       974       969
       978       973       974       975       978       977       982       981
       978       977       982       983       978       979       980       983
       978       979       980      1157       979       976      1153      1158
       979       976      1153      1154       979       980       983       982
       979       980       983       984       979       980      1157      1162
       979       980      1157      1158       980       983       984       987
       980       983       984      1161       980      1157      1162      1161
       980      1157      1162      1163       980      1157      1158      1153
       980      1157      1158      1159       981       804       807       806
       981       804       807       808       981       982       983       980
       981       982       983       984       981       986       987       984
       981       986       987       988       982       977       978       973
       982       977       978       979       982       981       986       985
       982       981       986       987       982       983       984       987
       982       983       984      1161       983       980      1157      1162
       983       980      1157      1158       983       984       987       986
       983       984       987       988       983       984      1161      1162
       983       984      1161      1166       984       987       988       991
       984       987       988      1165       984      1161      1162      1157
       984      1161      1162      1163       984      1161      1166      1165
       984      1161      1166      1167       985       808       811       810
       985       808       811       812       985       986       987       984
       985       986       987       988       985       990       991       988
       985       990       991       992       986       981       982       977
       986       981       982       983       986       985       990       989
       986       985       990       991       986       987       988       991
       986       987       988      1165       987       984      1161      1162
       987       984      1161      1166       987       988       991       990
       987       988       991       992       987       988      1165      1166
       987       988      1165      1170       988       991       992       995
       988       991       992      1169       988      1165      1166      1161
       988      1165      1166      1167       988      1165      1170      1169
       988      1165      1170      1171       989       812       815       814
       989       812       815       816       989       990       991       988
       989       990       991       992       989       994       995       992
       989       994       995       996       990       985       986       981
       990       985       986       987       990       989       994       993
       990       989       994       995       990       991       992       995
       990       991       992      1169       991       988      1165      1166
       991       988      1165      1170       991       992       995       994
       991       992       995       996       991       992      1169      1174
       991       992      1169      1170       992       995       996       999
       992       995       996      1173       992      1169      1174      1173
       992      1169      1174      1175       992      1169      1170      1165
       992      1169      1170      1171       993       816       819       818
       993       816       819       820       993       994       995       992
       993       994       995       996       993       998       999       996
       993       998       999      1000       994       989       990       985
       994       989       990       991       994       993       998       997
       994       993       998       999       994       995       996       999
       994       995       996      1173       995       992      1169      1174
       995       992      1169      1170       995       996       999       998
       995       996       999      1000       995       996      1173      1178
       995       996      1173      1174       996       999      1000      1003
       996       999      1000      1177       996      1173      1178      1177
       996      1173      1178      1179       996      1173      1174      1169
       996      1173      1174      1175       997       820       823       822
       997       820       823       824       997       998       999       996
       997       998       999      1000       997      1002      1003      1000
       997      1002      1003      1004       998       993       994       989
       998       993       994       995       998       997      1002      1001
       998       997      1002      1003       998       999      1000      1003
       998       999      1000      1177       999       996      1173      1178
       999       996      1173      1174       999      1000      1003      1002
       999      1000      1003      1004       999      1000      1177      1182
       999      1000      1177      1178      1000      1003      1004      1007
      1000      1003      1004      1181      1000      1177      1182      1181
      1000      1177      1182      1183      1000      1177      1178      1173
      1000      1177      1178      1179      1001       824       827       826
      1001       824       827       828      1001      1002      1003      1000
      1001      1002      1003      1004      1001      1006      1007      1004
      1001      1006      1007      1008      1002       997       998       993
      1002       997       998       999      1002      1001      1006      1005
      1002      1001      1006      1007      1002      1003      1004      1007
      1002      1003      1004      1181      1003      1000      1177      1182
      1003      1000      1177      1178      1003      1004      1007      1006
      1003      1004      1007      1008      1003      1004      1181      1182
      1003      1004      1181      1186      1004      1007      1008      1011
      1004      1007      1008      1185      1004      1181      1182      1177
      1004      1181      1182      1183      1004      1181      1186      1185
      1004      1181      1186      1187      1005       828       831       830
      1005       828       831       832      1005      1006      1007      1004
      1005      1006      1007      1008      1005      1010      1011      1008
      1005      1010      1011      1012      1006      1001      1002       997
      1006      1001      1002      1003      1006      1005      1010      1009
      1006      1005      1010      1011      1006      1007      1008      1011
      1006      1007      1008      1185      1007      1004      1181      1182
      1007      1004      1181      1186      1007      1008      1011      1010
      1007      1008      1011      1012      1007      1008      1185      1186
      1007      1008      1185      1190      1008      1011      1012      1015
      1008      1011      1012      1189      1008      1185      1186      1181
      1008      1185      1186      1187      1008      1185      1190      1189
      1008      1185      1190      1191      1009       832       835       834
      1009       832       835       836      1009      1010      1011      1008
      1009      1010      1011      1012      1009      1014      1015      1012
      1009      1014      1015      1016      1010      1005      1006      1001
      1010      1005      1006      1007      1010      1009      1014      1013
      1010      1009      1014      1015      1010      1011      1012      1015
      1010      1011      1012      1189      1011      1008      1185      1186
      1011      1008      1185      1190      1011      1012      1015      1014
      1011      1012      1015      1016      1011      1012      1189      1194
      1011      1012      1189      1190      1012      1015      1016      1019
      1012      1015      1016      1193      1012      1189      1194      1193
      1012      1189      1194      1195      1012      1189      1190      1185
      1012      1189      1190      1191      1013       836       839       838
      1013       836       839       840      1013      1014      1015      1012
      1013      1014      1015      1016      1013      1018      1019      1016
      1013      1018      1019      1020      1014      1009      1010      1005
      1014      1009      1010      1011      1014      1013      1018      1017
      1014      1013      1018      1019      1014      1015      1016      1019
      1014      1015      1016      1193      1015      1012      1189      1194
      1015      1012      1189      1190      1015      1016      1019      1018
      1015      1016      1019      1020      1015      1016      1193      1198
      1015      1016      1193      1194      1016      1019      1020      1023
      1016      1019      1020      1197      1016      1193      1198      1197
      1016      1193      1198      1199      1016      1193      1194      1189
      1016      1193      1194      1195      1017       840       843       842
      1017       840       843       844      1017      1018      1019      1016
      1017      1018      1019      1020      1017      1022      1023      1020
      1017      1022      1023      1024      1018      1013      1014      1009
      1018      1013      1014      1015      1018      1017      1022      1021
      1018      1017      1022      1023      1018      1019      1020      1023
      1018      1019      1020      1197      1019      1016      1193      1198
      1019      1016      1193      1194      1019      1020      1023      1022
      1019      1020      1023      1024      1019      1020      1197      1202
      1019      1020      1197      1198      1020      1023      1024      1027
      1020      1023      1024      1201      1020      1197      1202      1201
      1020      1197      1202      1203      1020      1197      1198      1193
      1020      1197      1198      1199      1021       844       847       846
      1021       844       847       848      1021      1022      1023      1020
      1021      1022      1023      1024      1021      1026      1027      1024
      1021      1026      1027      1028      1022      1017      1018      1013
      1022      1017      1018      1019      1022      1021      1026      1025
      1022      1021      1026      1027      1022      1023      1024      1027
      1022      1023      1024      1201      1023      1020      1197      1202
      1023      1020      1197      1198      1023      1024      1027      1026
      1023      1024      1027      1028      1023      1024      1201      1202
      1023      1024      1201      1206      1024      1027      1028      1031
      1024      1027      1028      1205      1024      1201      1202      1197
      1024      1201      1202      1203      1024      1201      1206      1205
      1024      1201      1206      1207      1025       848       851       850
      1025       848       851       852      1025      1026      1027      1024
      1025      1026      1027      1028      1025      1030      1031      1028
      1025      1030      1031      1032      1026      1021      1022      1017
      1026      1021      1022      1023      1026      1025      1030      1029
      1026      1025      1030      1031      1026      1027      1028      1031
      1026      1027      1028      1205      1027      1024      1201      1202
      1027      1024      1201      1206      1027      1028      1031      1030
      1027      1028      1031      1032      1027      1028      1205      1206
      1027      1028      1205      1210      1028      1031      1032      1035
      1028      1031      1032      1209      1028      1205      1206      1201
      1028      1205      1206      1207      1028      1205      1210      1209
      1028      1205      1210      1211      1029       852       855       854
      1029       852       855       856      1029      1030      1031      1028
      1029      1030      1031      1032      1029      1034      1035      1032
      1029      1034      1035      1036      1030      1025      1026      1021
      1030      1025      1026      1027      1030      1029      1034      1033
      1030      1029      1034      1035      1030      1031      1032      1035
      1030      1031      1032      1209      1031      1028      1205      1206
      1031      1028      1205      1210      1031      1032      1035      1034
      1031      1032      1035      1036      1031      1032      1209      1214
      1031      1032      1209      1210      1032      1035      1036      1039
      1032      1035      1036      1213      1032      1209      1214      1213
      1032      1209      1214      1215      1032      1209      1210      1205
      1032      1209      1210      1211      1033       856       859       858
      1033       856       859       860      1033      1034      1035      1032
      1033      1034      1035      1036      1033      1038      1039      1036
      1033      1038      1039      1040      1034      1029      1030      1025
      1034      1029      1030      1031      1034      1033      1038      1037
      1034      1033      1038      1039      1034      1035      1036      1039
      1034      1035      1036      1213      1035      1032      1209      1214
      1035      1032      1209      1210      1035      1036      1039      1038
      1035      1036      1039      1040      1035      1036      1213      1218
      1035      1036      1213      1214      1036      1039      1040      1043
      1036      1039      1040      1217      1036      1213      1218      1217
      1036      1213      1218      1219      1036      1213      1214      1209
      1036      1213      1214      1215      1037       860       863       862
      1037       860       863       864      1037      1038      1039      1036
      1037      1038      1039      1040      1037      1042      1043      1040
      1037      1042      1043      1044      1038      1033      1034      1029
      1038      1033      1034      1035      1038      1037      1042      1041
      1038      1037      1042      1043      1038      1039      1040      1043
      1038      1039      1040      1217      1039      1036      1213      1218
      1039      1036      1213      1214      1039      1040      1043      1042
      1039      1040      1043      1044      1039      1040      1217      1222
      1039      1040      1217      1218      1040      1043      1044      1047
      1040      1043      1044      1221      1040      1217      1222      1221
      1040      1217      1222      1223      1040      1217      1218      1213
      1040      1217      1218      1219      1041       864       867       866
      1041       864       867       868      1041      1042      1043      1040
      1041      1042      1043      1044      1041      1046      1047      1044
      1041      1046      1047      1048      1042      1037      1038      1033
      1042      1037      1038      1039      1042      1041      1046      1045
      1042      1041      1046      1047      1042      1043      1044      1047
      1042      1043      1044      1221      1043      1040      1217      1222
      1043      1040      1217      1218      1043      1044      1047      1046
      1043      1044      1047      1048      1043      1044      1221      1222
      1043      1044      1221      1226      1044      1047      1048      1051
      1044      1047      1048      1225      1044      1221      1222      1217
      1044      1221      1222      1223      1044      1221      1226      1225
      1044      1221      1226      1227      1045       868       871       870
      1045       868       871       872      1045      1046      1047      1044
      1045      1046      1047      1048      1045      1050      1051      1048
      1045      1050      1051      1052      1046      1041      1042      1037
      1046      1041      1042      1043      1046      1045      1050      1049
      1046      1045      1050      1051      1046      1047      1048      1051
      1046      1047      1048      1225      1047      1044      1221      1222
      1047      1044      1221      1226      1047      1048      1051      1050
      1047      1048      1051      1052      1047      1048      1225      1226
      1047      1048      1225      1230      1048      1051      1052      1055
      1048      1051      1052      1229      1048      1225      1226      1221
      1048      1225      1226      1227      1048      1225      1230      1229
      1048      1225      1230      1231      1049       872       875       874
      1049       872       875       876      1049      1050      1051      1048
      1049      1050      1051      1052      1049      1054      1055      1052
      1049      1054      1055      1056      1050      1045      1046      1041
      1050      1045      1046      1047      1050      1049      1054      1053
      1050      1049      1054      1055      1050      1051      1052      1055
      1050      1051      1052      1229      1051      1048      1225      1226
      1051      1048      1225      1230      1051      1052      1055      1054
      1051      1052      1055      1056      1051      1052      1229      1234
      1051      1052      1229      1230      1052      1055      1056      1059
      1052      1055      1056      1233      1052      1229      1234      1233
      1052      1229      1234      1235      1052      1229      1230      1225
      1052      1229      1230      1231      1053       876       879       878
      1053       876       879       880      1053      1054      1055      1052
      1053      1054      1055      1056      1053      1058      1059      1056
      1053      1058      1059      1060      1054      1049      1050      1045
      1054      1049      1050      1051      1054      1053      1058      1057
      1054      1053      1058      1059      1054      1055      1056      1059
      1054      1055      1056      1233      1055      1052      1229      1234
      1055      1052      1229      1230      1055      1056      1059      1058
      1055      1056      1059      1060      1055      1056      1233      1238
      1055      1056      1233      1234      1056      1059      1060      1063
      1056      1059      1060      1237      1056      1233      1238      1237
      1056      1233      1238      1239      1056      1233      1234      1229
      1056      1233      1234      1235      1057       880       883       882
      1057       880       883       884      1057      1058      1059      1056
      1057      1058      1059      1060      1057      1062      1063      1060
      1057      1062      1063      1064      1058      1053      1054      1049
      1058      1053      1054      1055      1058      1057      1062      1061
      1058      1057      1062      1063      1058      1059      1060      1063
      1058      1059      1060      1237      1059      1056      1233      1238
      1059      1056      1233      1234      1059      1060      1063      1062
      1059      1060      1063      1064      1059      1060      1237      1242
      1059      1060      1237      1238      1060      1063      1064      1067
      1060      1063      1064      1241      1060      1237      1242      1241
      1060      1237      1242      1243      1060      1237      1238      1233
      1060      1237      1238      1239      1061       884       887       886
      1061       884       887       888      1061      1062      1063      1060
      1061      1062      1063      1064      1061      1066      1067      1064
      1061      1066      1067      1068      1062      1057      1058      1053
      1062      1057      1058      1059      1062      1061      1066      1065
      1062      1061      1066      1067      1062      1063      1064      1067
      1062      1063      1064      1241      1063      1060      1237      1242
      1063      1060      1237      1238      1063      1064      1067      1066
      1063      1064      1067      1068      1063      1064      1241      1242
      1063      1064      1241      1246      1064      1067      1068      1071
      1064      1067      1068      1245      1064      1241      1242      1237
      1064      1241      1242      1243      1064      1241      1246      1245
      1064      1241      1246      1247      1065       888       891       890
      1065       888       891       892      1065      1066      1067      1064
      1065      1066      1067      1068      1065      1070      1071      1068
      1065      1070      1071      1072      1066      1061      1062      1057
      1066      1061      1062      1063      1066      1065      1070      1069
      1066      1065      1070      1071      1066      1067      1068      1071
      1066      1067      1068      1245      1067      1064      1241      1242
      1067      1064      1241      1246      1067      1068      1071      1070
      1067      1068      1071      1072      1067      1068      1245      1246
      1067      1068      1245      1250      1068      1071      1072      1075
      1068      1071      1072      1249      1068      1245      1246      1241
      1068      1245      1246      1247      1068      1245      1250      1249
      1068      1245      1250      1251      1069       892       895       894
      1069       892       895       896      1069      1070      1071      1068
      1069      1070      1071      1072      1069      1074      1075      1072
      1069      1074      1075      1076      1070      1065      1066      1061
      1070      1065      1066      1067      1070      1069      1074      1073
      1070      1069      1074      1075      1070      1071      1072      1075
      1070      1071      1072      1249      1071      1068      1245      1246
      1071      1068      1245      1250      1071      1072      1075      1074
      1071      1072      1075      1076      1071      1072      1249      1254
      1071      1072      1249      1250      1072      1075      1076      1079
      1072      1075      1076      1253      1072      1249      1254      1253
      1072      1249      1254      1255      1072      1249      1250      1245
      1072      1249      1250      1251      1073       896       899       898
      1073       896       899       900      1073      1074      1075      1072
      1073      1074      1075      1076      1073      1078      1079      1076
      1073      1078      1079      1080      1074      1069      1070      1065
      1074      1069      1070      1071      1074      1073      1078      1077
      1074      1073      1078      1079      1074      1075      1076      1079
      1074      1075      1076      1253      1075      1072      1249      1254
      1075      1072      1249      1250      1075      1076      1079      1078
      1075      1076      1079      1080      1075      1076      1253      1254
      1075      1076      1253      1258      1076      1079      1080      1257
      1076      1253      1254      1249      1076      1253      1254      1255
      1076      1253      1258      1257      1076      1253      1258      1259
      1077      1078      1079      1076      1077      1078      1079      1080
      1078      1073      1074      1069      1078      1073      1074      1075
      1078      1079      1080      1257      1079      1076      1253      1254
      1079      1076      1253      1258      1079      1080      1257      1258
      1080      1257      1258      1253      1080      1257      1258      1259
      1081       904       907       906      1081       904       907       908
      1081      1082      1083      1084      1081      1086      1087      1084
      1081      1086      1087      1088      1082      1081      1086      1085
      1082      1081      1086      1087      1082      1083      1084      1087
      1082      1083      1084      1261      1083      1084      1087      1086
      1083      1084      1087      1088      1083      1084      1261      1262
      1083      1084      1261      1266      1084      1087      1088      1091
      1084      1087      1088      1265      1084      1261      1262      1263
      1084      1261      1266      1265      1084      1261      1266      1267
      1085       908       911       910      1085       908       911       912
      1085      1086      1087      1084      1085      1086      1087      1088
      1085      1090      1091      1088      1085      1090      1091      1092
      1086      1081      1082      1083      1086      1085      1090      1089
      1086      1085      1090      1091      1086      1087      1088      1091
      1086      1087      1088      1265      1087      1084      1261      1262
      1087      1084      1261      1266      1087      1088      1091      1090
      1087      1088      1091      1092      1087      1088      1265      1266
      1087      1088      1265      1270      1088      1091      1092      1095
      1088      1091      1092      1269      1088      1265      1266      1261
      1088      1265      1266      1267      1088      1265      1270      1269
      1088      1265      1270      1271      1089       912       915       914
      1089       912       915       916      1089      1090      1091      1088
      1089      1090      1091      1092      1089      1094      1095      1092
      1089      1094      1095      1096      1090      1085      1086      1081
      1090      1085      1086      1087      1090      1089      1094      1093
      1090      1089      1094      1095      1090      1091      1092      1095
      1090      1091      1092      1269      1091      1088      1265      1266
      1091      1088      1265      1270      1091      1092      1095      1094
      1091      1092      1095      1096      1091      1092      1269      1274
      1091      1092      1269      1270      1092      1095      1096      1099
      1092      1095      1096      1273      1092      1269      1274      1273
      1092      1269      1274      1275      1092      1269      1270      1265
      1092      1269      1270      1271      1093       916       919       918
      1093       916       919       920      1093      1094      1095      1092
      1093      1094      1095      1096      1093      1098      1099      1096
      1093      1098      1099      1100      1094      1089      1090      1085
      1094      1089      1090      1091      1094      1093      1098      1097
      1094      1093      1098      1099      1094      1095      1096      1099
      1094      1095      1096      1273      1095      1092      1269      1274
      1095      1092      1269      1270      1095      1096      1099      1098
      1095      1096      1099      1100      1095      1096      1273      1274
      1095      1096      1273      1278      1096      1099      1100      1103
      1096      1099      1100      1277      1096      1273      1274      1269
      1096      1273      1274      1275      1096      1273      1278      1277
      1096      1273      1278      1279      1097       920       923       922
      1097       920       923       924      1097      1098      1099      1096
      1097      1098      1099      1100      1097      1102      1103      1100
      1097      1102      1103      1104      1098      1093      1094      1089
      1098      1093      1094      1095      1098      1097      1102      1101
      1098      1097      1102      1103      1098      1099      1100      1103
      1098      1099      1100      1277      1099      1096      1273      1274
      1099      1096      1273      1278      1099      1100      1103      1102
      1099      1100      1103      1104      1099      1100      1277      1282
      1099      1100      1277      1278      1100      1103      1104      1107
      1100      1103      1104      1281      1100      1277      1282      1281
      1100      1277      1282      1283      1100      1277      1278      1273
      1100      1277      1278      1279      1101       924       927       926
      1101       924       927       928      1101      1102      1103      1100
      1101      1102      1103      1104      1101      1106      1107      1104
      1101      1106      1107      1108      1102      1097      1098      1093
      1102      1097      1098      1099      1102      1101      1106      1105
      1102      1101      1106      1107      1102      1103      1104      1107
      1102      1103      1104      1281      1103      1100      1277      1282
      1103      1100      1277      1278      1103      1104      1107      1106
      1103      1104      1107      1108      1103      1104      1281      1282
      1103      1104      1281      1286      1104      1107      1108      1111
      1104      1107      1108      1285      1104      1281      1282      1277
      1104      1281      1282      1283      1104      1281      1286      1285
      1104      1281      1286      1287      1105       928       931       930
      1105       928       931       932      1105      1106      1107      1104
      1105      1106      1107      1108      1105      1110      1111      1108
      1105      1110      1111      1112      1106      1101      1102      1097
      1106      1101      1102      1103      1106      1105      1110      1109
      1106      1105      1110      1111      1106      1107      1108      1111
      1106      1107      1108      1285      1107      1104      1281      1282
      1107      1104      1281      1286      1107      1108      1111      1110
      1107      1108      1111      1112      1107      1108      1285      1286
      1107      1108      1285      1290      1108      1111      1112      1115
      1108      1111      1112      1289      1108      1285      1286      1281
      1108      1285      1286      1287      1108      1285      1290      1289
      1108      1285      1290      1291      1109       932       935       934
      1109       932       935       936      1109      1110      1111      1108
      1109      1110      1111      1112      1109      1114      1115      1112
      1109      1114      1115      1116      1110      1105      1106      1101
      1110      1105      1106      1107      1110      1109      1114      1113
      1110      1109      1114      1115      1110      1111      1112      1115
      1110      1111      1112      1289      1111      1108      1285      1286
      1111      1108      1285      1290      1111      1112      1115      1114
      1111      1112      1115      1116      1111      1112      1289      1294
      1111      1112      1289      1290      1112      1115      1116      1119
      1112      1115      1116      1293      1112      1289      1294      1293
      1112      1289      1294      1295      1112      1289      1290      1285
      1112      1289      1290      1291      1113       936       939       938
      1113       936       939       940      1113      1114      1115      1112
      1113      1114      1115      1116      1113      1118      1119      1116
      1113      1118      1119      1120      1114      1109      1110      1105
      1114      1109      1110      1111      1114      1113      1118      1117
      1114      1113      1118      1119      1114      1115      1116      1119
      1114      1115      1116      1293      1115      1112      1289      1294
      1115      1112      1289      1290      1115      1116      1119      1118
      1115      1116      1119      1120      1115      1116      1293      1298
      1115      1116      1293      1294      1116      1119      1120      1123
      1116      1119      1120      1297      1116      1293      1298      1297
      1116      1293      1298      1299      1116      1293      1294      1289
      1116      1293      1294      1295      1117       940       943       942
      1117       940       943       944      1117      1118      1119      1116
      1117      1118      1119      1120      1117      1122      1123      1120
      1117      1122      1123      1124      1118      1113      1114      1109
      1118      1113      1114      1115      1118      1117      1122      1121
      1118      1117      1122      1123      1118      1119      1120      1123
      1118      1119      1120      1297      1119      1116      1293      1298
      1119      1116      1293      1294      1119      1120      1123      1122
      1119      1120      1123      1124      1119      1120      1297      1302
      1119      1120      1297      1298      1120      1123      1124      1127
      1120      1123      1124      1301      1120      1297      1302      1301
      1120      1297      1302      1303      1120      1297      1298      1293
      1120      1297      1298      1299      1121       944       947       946
      1121       944       947       948      1121      1122      1123      1120
      1121      1122      1123      1124      1121      1126      1127      1124
      1121      1126      1127      1128      1122      1117      1118      1113
      1122      1117      1118      1119      1122      1121      1126      1125
      1122      1121      1126      1127      1122      1123      1124      1127
      1122      1123      1124      1301      1123      1120      1297      1302
      1123      1120      1297      1298      1123      1124      1127      1126
      1123      1124      1127      1128      1123      1124      1301      1302
      1123      1124      1301      1306      1124      1127      1128      1131
      1124      1127      1128      1305      1124      1301      1302      1297
      1124      1301      1302      1303      1124      1301      1306      1305
      1124      1301      1306      1307      1125       948       951       950
      1125       948       951       952      1125      1126      1127      1124
      1125      1126      1127      1128      1125      1130      1131      1128
      1125      1130      1131      1132      1126      1121      1122      1117
      1126      1121      1122      1123      1126      1125      1130      1129
      1126      1125      1130      1131      1126      1127      1128      1131
      1126      1127      1128      1305      1127      1124      1301      1302
      1127      1124      1301      1306      1127      1128      1131      1130
      1127      1128      1131      1132      1127      1128      1305      1306
      1127      1128      1305      1310      1128      1131      1132      1135
      1128      1131      1132      1309      1128      1305      1306      1301
      1128      1305      1306      1307      1128      1305      1310      1309
      1128      1305      1310      1311      1129       952       955       954
      1129       952       955       956      1129      1130      1131      1128
      1129      1130      1131      1132      1129      1134      1135      1132
      1129      1134      1135      1136      1130      1125      1126      1121
      1130      1125      1126      1127      1130      1129      1134      1133
      1130      1129      1134      1135      1130      1131      1132      1135
      1130      1131      1132      1309      1131      1128      1305      1306
      1131      1128      1305      1310      1131      1132      1135      1134
      1131      1132      1135      1136      1131      1132      1309      1314
      1131      1132      1309      1310      1132      1135      1136      1139
      1132      1135      1136      1313      1132      1309      1314      1313
      1132      1309      1314      1315      1132      1309      1310      1305
      1132      1309      1310      1311      1133       956       959       958
      1133       956       959       960      1133      1134      1135      1132
      1133      1134      1135      1136      1133      1138      1139      1136
      1133      1138      1139      1140      1134      1129      1130      1125
      1134      1129      1130      1131      1134      1133      1138      1137
      1134      1133      1138      1139      1134      1135      1136      1139
      1134      1135      1136      1313      1135      1132      1309      1314
      1135      1132      1309      1310      1135      1136      1139      1138
      1135      1136      1139      1140      1135      1136      1313      1318
      1135      1136      1313      1314      1136      1139      1140      1143
      1136      1139      1140      1317      1136      1313      1318      1317
      1136      1313      1318      1319      1136      1313      1314      1309
      1136      1313      1314      1315      1137       960       963       962
      1137       960       963       964      1137      1138      1139      1136
      1137      1138      1139      1140      1137      1142      1143      1140
      1137      1142      1143      1144      1138      1133      1134      1129
      1138      1133      1134      1135      1138      1137      1142      1141
      1138      1137      1142      1143      1138      1139      1140      1143
      1138      1139      1140      1317      1139      1136      1313      1318
      1139      1136      1313      1314      1139      1140      1143      1142
      1139      1140      1143      1144      1139      1140      1317      1322
      1139      1140      1317      1318      1140      1143      1144      1147
      1140      1143      1144      1321      1140      1317      1322      1321
      1140      1317      1322      1323      1140      1317      1318      1313
      1140      1317      1318      1319      1141       964       967       966
      1141       964       967       968      1141      1142      1143      1140
      1141      1142      1143      1144      1141      1146      1147      1144
      1141      1146      1147      1148      1142      1137      1138      1133
      1142      1137      1138      1139      1142      1141      1146      1145
      1142      1141      1146      1147      1142      1143      1144      1147
      1142      1143      1144      1321      1143      1140      1317      1322
      1143      1140      1317      1318      1143      1144      1147      1146
      1143      1144      1147      1148      1143      1144      1321      1322
      1143      1144      1321      1326      1144      1147      1148      1151
      1144      1147      1148      1325      1144      1321      1322      1317
      1144      1321      1322      1323      1144      1321      1326      1325
      1144      1321      1326      1327      1145       968       971       970
      1145       968       971       972      1145      1146      1147      1144
      1145      1146      1147      1148      1145      1150      1151      1148
      1145      1150      1151      1152      1146      1141      1142      1137
      1146      1141      1142      1143      1146      1145      1150      1149
      1146      1145      1150      1151      1146      1147      1148      1151
      1146      1147      1148      1325      1147      1144      1321      1322
      1147      1144      1321      1326      1147      1148      1151      1150
      1147      1148      1151      1152      1147      1148      1325      1326
      1147      1148      1325      1330      1148      1151      1152      1155
      1148      1151      1152      1329      1148      1325      1326      1321
      1148      1325      1326      1327      1148      1325      1330      1329
      1148      1325      1330      1331      1149       972       975       974
      1149       972       975       976      1149      1150      1151      1148
      1149      1150      1151      1152      1149      1154      1155      1152
      1149      1154      1155      1156      1150      1145      1146      1141
      1150      1145      1146      1147      1150      1149      1154      1153
      1150      1149      1154      1155      1150      1151      1152      1155
      1150      1151      1152      1329      1151      1148      1325      1326
      1151      1148      1325      1330      1151      1152      1155      1154
      1151      1152      1155      1156      1151      1152      1329      1334
      1151      1152      1329      1330      1152      1155      1156      1159
      1152      1155      1156      1333      1152      1329      1334      1333
      1152      1329      1334      1335      1152      1329      1330      1325
      1152      1329      1330      1331      1153       976       979       978
      1153       976       979       980      1153      1154      1155      1152
      1153      1154      1155      1156      1153      1158      1159      1156
      1153      1158      1159      1160      1154      1149      1150      1145
      1154      1149      1150      1151      1154      1153      1158      1157
      1154      1153      1158      1159      1154      1155      1156      1159
      1154      1155      1156      1333      1155      1152      1329      1334
      1155      1152      1329      1330      1155      1156      1159      1158
      1155      1156      1159      1160      1155      1156      1333      1338
      1155      1156      1333      1334      1156      1159      1160      1163
      1156      1159      1160      1337      1156      1333      1338      1337
      1156      1333      1338      1339      1156      1333      1334      1329
      1156      1333      1334      1335      1157       980       983       982
      1157       980       983       984      1157      1158      1159      1156
      1157      1158      1159      1160      1157      1162      1163      1160
      1157      1162      1163      1164      1158      1153      1154      1149
      1158      1153      1154      1155      1158      1157      1162      1161
      1158      1157      1162      1163      1158      1159      1160      1163
      1158      1159      1160      1337      1159      1156      1333      1338
      1159      1156      1333      1334      1159      1160      1163      1162
      1159      1160      1163      1164      1159      1160      1337      1342
      1159      1160      1337      1338      1160      1163      1164      1167
      1160      1163      1164      1341      1160      1337      1342      1341
      1160      1337      1342      1343      1160      1337      1338      1333
      1160      1337      1338      1339      1161       984       987       986
      1161       984       987       988      1161      1162      1163      1160
      1161      1162      1163      1164      1161      1166      1167      1164
      1161      1166      1167      1168      1162      1157      1158      1153
      1162      1157      1158      1159      1162      1161      1166      1165
      1162      1161      1166      1167      1162      1163      1164      1167
      1162      1163      1164      1341      1163      1160      1337      1342
      1163      1160      1337      1338      1163      1164      1167      1166
      1163      1164      1167      1168      1163      1164      1341      1342
      1163      1164      1341      1346      1164      1167      1168      1171
      1164      1167      1168      1345      1164      1341      1342      1337
      1164      1341      1342      1343      1164      1341      1346      1345
      1164      1341      1346      1347      1165       988       991       990
      1165       988       991       992      1165      1166      1167      1164
      1165      1166      1167      1168      1165      1170      1171      1168
      1165      1170      1171      1172      1166      1161      1162      1157
      1166      1161      1162      1163      1166      1165      1170      1169
      1166      1165      1170      1171      1166      1167      1168      1171
      1166      1167      1168      1345      1167      1164      1341      1342
      1167      1164      1341      1346      1167      1168      1171      1170
      1167      1168      1171      1172      1167      1168      1345      1346
      1167      1168      1345      1350      1168      1171      1172      1175
      1168      1171      1172      1349      1168      1345      1346      1341
      1168      1345      1346      1347      1168      1345      1350      1349
      1168      1345      1350      1351      1169       992       995       994
      1169       992       995       996      1169      1170      1171      1168
      1169      1170      1171      1172      1169      1174      1175      1172
      1169      1174      1175      1176      1170      1165      1166      1161
      1170      1165      1166      1167      1170      1169      1174      1173
      1170      1169      1174      1175      1170      1171      1172      1175
      1170      1171      1172      1349      1171      1168      1345      1346
      1171      1168      1345      1350      1171      1172      1175      1174
      1171      1172      1175      1176      1171      1172      1349      1354
      1171      1172      1349      1350      1172      1175      1176      1179
      1172      1175      1176      1353      1172      1349      1354      1353
      1172      1349      1354      1355      1172      1349      1350      1345
      1172      1349      1350      1351      1173       996       999       998
      1173       996       999      1000      1173      1174      1175      1172
      1173      1174      1175      1176      1173      1178      1179      1176
      1173      1178      1179      1180      1174      1169      1170      1165
      1174      1169      1170      1171      1174      1173      1178      1177
      1174      1173      1178      1179      1174      1175      1176      1179
      1174      1175      1176      1353      1175      1172      1349      1354
      1175      1172      1349      1350      1175      1176      1179      1178
      1175      1176      1179      1180      1175      1176      1353      1358
      1175      1176      1353      1354      1176      1179      1180      1183
      1176      1179      1180      1357      1176      1353      1358      1357
      1176      1353      1358      1359      1176      1353      1354      1349
      1176      1353      1354      1355      1177      1000      1003      1002
      1177      1000      1003      1004      1177      1178      1179      1176
      1177      1178      1179      1180      1177      1182      1183      1180
      1177      1182      1183      1184      1178      1173      1174      1169
      1178      1173      1174      1175      1178      1177      1182      1181
      1178      1177      1182      1183      1178      1179      1180      1183
      1178      1179      1180      1357      1179      1176      1353      1358
      1179      1176      1353      1354      1179      1180      1183      1182
      1179      1180      1183      1184      1179      1180      1357      1362
      1179      1180      1357      1358      1180      1183      1184      1187
      1180      1183      1184      1361      1180      1357      1362      1361
      1180      1357      1362      1363      1180      1357      1358      1353
      1180      1357      1358      1359      1181      1004      1007      1006
      1181      1004      1007      1008      1181      1182      1183      1180
      1181      1182      1183      1184      1181      1186      1187      1184
      1181      1186      1187      1188      1182      1177      1178      1173
      1182      1177      1178      1179      1182      1181      1186      1185
      1182      1181      1186      1187      1182      1183      1184      1187
      1182      1183      1184      1361      1183      1180      1357      1362
      1183      1180      1357      1358      1183      1184      1187      1186
      1183      1184      1187      1188      1183      1184      1361      1362
      1183      1184      1361      1366      1184      1187      1188      1191
      1184      1187      1188      1365      1184      1361      1362      1357
      1184      1361      1362      1363      1184      1361      1366      1365
      1184      1361      1366      1367      1185      1008      1011      1010
      1185      1008      1011      1012      1185      1186      1187      1184
      1185      1186      1187      1188      1185      1190      1191      1188
      1185      1190      1191      1192      1186      1181      1182      1177
      1186      1181      1182      1183      1186      1185      1190      1189
      1186      1185      1190      1191      1186      1187      1188      1191
      1186      1187      1188      1365      1187      1184      1361      1362
      1187      1184      1361      1366      1187      1188      1191      1190
      1187      1188      1191      1192      1187      1188      1365      1366
      1187      1188      1365      1370      1188      1191      1192      1195
      1188      1191      1192      1369      1188      1365      1366      1361
      1188      1365      1366      1367      1188      1365      1370      1369
      1188      1365      1370      1371      1189      1012      1015      1014
      1189      1012      1015      1016      1189      1190      1191      1188
      1189      1190      1191      1192      1189      1194      1195      1192
      1189      1194      1195      1196      1190      1185      1186      1181
      1190      1185      1186      1187      1190      1189      1194      1193
      1190      1189      1194      1195      1190      1191      1192      1195
      1190      1191      1192      1369      1191      1188      1365      1366
      1191      1188      1365      1370      1191      1192      1195      1194
      1191      1192      1195      1196      1191      1192      1369      1374
      1191      1192      1369      1370      1192      1195      1196      1199
      1192      1195      1196      1373      1192      1369      1374      1373
      1192      1369      1374      1375      1192      1369      1370      1365
      1192      1369      1370      1371      1193      1016      1019      1018
      1193      1016      1019      1020      1193      1194      1195      1192
      1193      1194      1195      1196      1193      1198      1199      1196
      1193      1198      1199      1200      1194      1189      1190      1185
      1194      1189      1190      1191      1194      1193      1198      1197
      1194      1193      1198      1199      1194      1195      1196      1199
      1194      1195      1196      1373      1195      1192      1369      1374
      1195      1192      1369      1370      1195      1196      1199      1198
      1195      1196      1199      1200      1195      1196      1373      1378
      1195      1196      1373      1374      1196      1199      1200      1203
      1196      1199      1200      1377      1196      1373      1378      1377
      1196      1373      1378      1379      1196      1373      1374      1369
      1196      1373      1374      1375      1197      1020      1023      1022
      1197      1020      1023      1024      1197      1198      1199      1196
      1197      1198      1199      1200      1197      1202      1203      1200
      1197      1202      1203      1204      1198      1193      1194      1189
      1198      1193      1194      1195      1198      1197      1202      1201
      1198      1197      1202      1203      1198      1199      1200      1203
      1198      1199      1200      1377      1199      1196      1373      1378
      1199      1196      1373      1374      1199      1200      1203      1202
      1199      1200      1203      1204      1199      1200      1377      1382
      1199      1200      1377      1378      1200      1203      1204      1207
      1200      1203      1204      1381      1200      1377      1382      1381
      1200      1377      1382      1383      1200      1377      1378      1373
      1200      1377      1378      1379      1201      1024      1027      1026
      1201      1024      1027      1028      1201      1202      1203      1200
      1201      1202      1203      1204      1201      1206      1207      1204
      1201      1206      1207      1208      1202      1197      1198      1193
      1202      1197      1198      1199      1202      1201      1206      1205
      1202      1201      1206      1207      1202      1203      1204      1207
      1202      1203      1204      1381      1203      1200      1377      1382
      1203      1200      1377      1378      1203      1204      1207      1206
      1203      1204      1207      1208      1203      1204      1381      1382
      1203      1204      1381      1386      1204      1207      1208      1211
      1204      1207      1208      1385      1204      1381      1382      1377
      1204      1381      1382      1383      1204      1381      1386      1385
      1204      1381      1386      1387      1205      1028      1031      1030
      1205      1028      1031      1032      1205      1206      1207      1204
      1205      1206      1207      1208      1205      1210      1211      1208
      1205      1210      1211      1212      1206      1201      1202      1197
      1206      1201      1202      1203      1206      1205      1210      1209
      1206      1205      1210      1211      1206      1207      1208      1211
      1206      1207      1208      1385      1207      1204      1381      1382
      1207      1204      1381      1386      1207      1208      1211      1210
      1207      1208      1211      1212      1207      1208      1385      1386
      1207      1208      1385      1390      1208      1211      1212      1215
      1208      1211      1212      1389      1208      1385      1386      1381
      1208      1385      1386      1387      1208      1385      1390      1389
      1208      1385      1390      1391      1209      1032      1035      1034
      1209      1032      1035      1036      1209      1210      1211      1208
      1209      1210      1211      1212      1209      1214      1215      1212
      1209      1214      1215      1216      1210      1205      1206      1201
      1210      1205      1206      1207      1210      1209      1214      1213
      1210      1209      1214      1215      1210      1211      1212      1215
      1210      1211      1212      1389      1211      1208      1385      1386
      1211      1208      1385      1390      1211      1212      1215      1214
      1211      1212      1215      1216      1211      1212      1389      1394
      1211      1212      1389      1390      1212      1215      1216      1219
      1212      1215      1216      1393      1212      1389      1394      1393
      1212      1389      1394      1395      1212      1389      1390      1385
      1212      1389      1390      1391      1213      1036      1039      1038
      1213      1036      1039      1040      1213      1214      1215      1212
      1213      1214      1215      1216      1213      1218      1219      1216
      1213      1218      1219      1220      1214      1209      1210      1205
      1214      1209      1210      1211      1214      1213      1218      1217
      1214      1213      1218      1219      1214      1215      1216      1219
      1214      1215      1216      1393      1215      1212      1389      1394
      1215      1212      1389      1390      1215      1216      1219      1218
      1215      1216      1219      1220      1215      1216      1393      1398
      1215      1216      1393      1394      1216      1219      1220      1223
      1216      1219      1220      1397      1216      1393      1398      1397
      1216      1393      1398      1399      1216      1393      1394      1389
      1216      1393      1394      1395      1217      1040      1043      1042
      1217      1040      1043      1044      1217      1218      1219      1216
      1217      1218      1219      1220      1217      1222      1223      1220
      1217      1222      1223      1224      1218      1213      1214      1209
      1218      1213      1214      1215      1218      1217      1222      1221
      1218      1217      1222      1223      1218      1219      1220      1223
      1218      1219      1220      1397      1219      1216      1393      1398
      1219      1216      1393      1394      1219      1220      1223      1222
      1219      1220      1223      1224      1219      1220      1397      1402
      1219      1220      1397      1398      1220      1223      1224      1227
      1220      1223      1224      1401      1220      1397      1402      1401
      1220      1397      1402      1403      1220      1397      1398      1393
      1220      1397      1398      1399      1221      1044      1047      1046
      1221      1044      1047      1048      1221      1222      1223      1220
      1221      1222      1223      1224      1221      1226      1227      1224
      1221      1226      1227      1228      1222      1217      1218      1213
      1222      1217      1218      1219      1222      1221      1226      1225
      1222      1221      1226      1227      1222      1223      1224      1227
      1222      1223      1224      1401      1223      1220      1397      1402
      1223      1220      1397      1398      1223      1224      1227      1226
      1223      1224      1227      1228      1223      1224      1401      1402
      1223      1224      1401      1406      1224      1227      1228      1231
      1224      1227      1228      1405      1224      1401      1402      1397
      1224      1401      1402      1403      1224      1401      1406      1405
      1224      1401      1406      1407      1225      1048      1051      1050
      1225      1048      1051      1052      1225      1226      1227      1224
      1225      1226      1227      1228      1225      1230      1231      1228
      1225      1230      1231      1232      1226      1221      1222      1217
      1226      1221      1222      1223      1226      1225      1230      1229
      1226      1225      1230      1231      1226      1227      1228      1231
      1226      1227      1228      1405      1227      1224      1401      1402
      1227      1224      1401      1406      1227      1228      1231      1230
      1227      1228      1231      1232      1227      1228      1405      1406
      1227      1228      1405      1410      1228      1231      1232      1235
      1228      1231      1232      1409      1228      1405      1406      1401
      1228      1405      1406      1407      1228      1405      1410      1409
      1228      1405      1410      1411      1229      1052      1055      1054
      1229      1052      1055      1056      1229      1230      1231      1228
      1229      1230      1231      1232      1229      1234      1235      1232
      1229      1234      1235      1236      1230      1225      1226      1221
      1230      1225      1226      1227      1230      1229      1234      1233
      1230      1229      1234      1235      1230      1231      1232      1235
      1230      1231      1232      1409      1231      1228      1405      1406
      1231      1228      1405      1410      1231      1232      1235      1234
      1231      1232      1235      1236      1231      1232      1409      1414
      1231      1232      1409      1410      1232      1235      1236      1239
      1232      1235      1236      1413      1232      1409      1414      1413
      1232      1409      1414      1415      1232      1409      1410      1405
      1232      1409      1410      1411      1233      1056      1059      1058
      1233      1056      1059      1060      1233      1234      1235      1232
      1233      1234      1235      1236      1233      1238      1239      1236
      1233      1238      1239      1240      1234      1229      1230      1225
      1234      1229      1230      1231      1234      1233      1238      1237
      1234      1233      1238      1239      1234      1235      1236      1239
      1234      1235      1236      1413      1235      1232      1409      1414
      1235      1232      1409      1410      1235      1236      1239      1238
      1235      1236      1239      1240      1235      1236      1413      1418
      1235      1236      1413      1414      1236      1239      1240      1243
      1236      1239      1240      1417      1236      1413      1418      1417
      1236      1413      1418      1419      1236      1413      1414      1409
      1236      1413      1414      1415      1237      1060      1063      1062
      1237      1060      1063      1064      1237      1238      1239      1236
      1237      1238      1239      1240      1237      1242      1243      1240
      1237      1242      1243      1244      1238      1233      1234      1229
      1238      1233      1234      1235      1238      1237      1242      1241
      1238      1237      1242      1243      1238      1239      1240      1243
      1238      1239      1240      1417      1239      1236      1413      1418
      1239      1236      1413      1414      1239      1240      1243      1242
      1239      1240      1243      1244      1239      1240      1417      1422
      1239      1240      1417      1418      1240      1243      1244      1247
      1240      1243      1244      1421      1240      1417      1422      1421
      1240      1417      1422      1423      1240      1417      1418      1413
      1240      1417      1418      1419      1241      1064      1067      1066
      1241      1064      1067      1068      1241      1242      1243      1240
      1241      1242      1243      1244      1241      1246      1247      1244
      1241      1246      1247      1248      1242      1237      1238      1233
      1242      1237      1238      1239      1242      1241      1246      1245
      1242      1241      1246      1247      1242      1243      1244      1247
      1242      1243      1244      1421      1243      1240      1417      1422
      1243      1240      1417      1418      1243      1244      1247      1246
      1243      1244      1247      1248      1243      1244      1421      1422
      1243      1244      1421      1426      1244      1247      1248      1251
      1244      1247      1248      1425      1244      1421      1422      1417
      1244      1421      1422      1423      1244      1421      1426      1425
      1244      1421      1426      1427      1245      1068      1071      1070
      1245      1068      1071      1072      1245      1246      1247      1244
      1245      1246      1247      1248      1245      1250      1251      1248
      1245      1250      1251      1252      1246      1241      1242      1237
      1246      1241      1242      1243      1246      1245      1250      1249
      1246      1245      1250      1251      1246      1247      1248      1251
      1246      1247      1248      1425      1247      1244      1421      1422
      1247      1244      1421      1426      1247      1248      1251      1250
      1247      1248      1251      1252      1247      1248      1425      1426
      1247      1248      1425      1430      1248      1251      1252      1255
      1248      1251      1252      1429      1248      1425      1426      1421
      1248      1425      1426      1427      1248      1425      1430      1429
      1248      1425      1430      1431      1249      1072      1075      1074
      1249      1072      1075      1076      1249      1250      1251      1248
      1249      1250      1251      1252      1249      1254      1255      1252
      1249      1254      1255      1256      1250      1245      1246      1241
      1250      1245      1246      1247      1250      1249      1254      1253
      1250      1249      1254      1255      1250      1251      1252      1255
      1250      1251      1252      1429      1251      1248      1425      1426
      1251      1248      1425      1430      1251      1252      1255      1254
      1251      1252      1255      1256      1251      1252      1429      1434
      1251      1252      1429      1430      1252      1255      1256      1259
      1252      1255      1256      1433      1252      1429      1434      1433
      1252      1429      1434      1435      1252      1429      1430      1425
      1252      1429      1430      1431      1253      1076      1079      1078
      1253      1076      1079      1080      1253      1254      1255      1252
      1253      1254      1255      1256      1253      1258      1259      1256
      1253      1258      1259      1260      1254      1249      1250      1245
      1254      1249      1250      1251      1254      1253      1258      1257
      1254      1253      1258      1259      1254      1255      1256      1259
      1254      1255      1256      1433      1255      1252      1429      1434
      1255      1252      1429      1430      1255      1256      1259      1258
      1255      1256      1259      1260      1255      1256      1433      1438
      1255      1256      1433      1434      1256      1259      1260      1437
      1256      1433      1438      1437      1256      1433      1438      1439
      1256      1433      1434      1429      1256      1433      1434      1435
      1257      1258      1259      1256      1257      1258      1259      1260
      1258      1253      1254      1249      1258      1253      1254      1255
      1258      1259      1260      1437      1259      1256      1433      1438
      1259      1256      1433      1434      1259      1260      1437      1438
      1260      1437      1438      1433      1260      1437      1438      1439
      1261      1084      1087      1086      1261      1084      1087      1088
      1261      1262      1263      1264      1261      1266      1267      1264
      1261      1266      1267      1268      1262      1261      1266      1265
      1262      1261      1266      1267      1262      1263      1264      1267
      1262      1263      1264      1441      1263      1264      1267      1266
      1263      1264      1267      1268      1263      1264      1441      1442
      1263      1264      1441      1446      1264      1267      1268      1271
      1264      1267      1268      1445      1264      1441      1442      1443
      1264      1441      1446      1445      1264      1441      1446      1447
      1265      1088      1091      1090      1265      1088      1091      1092
      1265      1266      1267      1264      1265      1266      1267      1268
      1265      1270      1271      1268      1265      1270      1271      1272
      1266      1261      1262      1263      1266      1265      1270      1269
      1266      1265      1270      1271      1266      1267      1268      1271
      1266      1267      1268      1445      1267      1264      1441      1442
      1267      1264      1441      1446      1267      1268      1271      1270
      1267      1268      1271      1272      1267      1268      1445      1446
      1267      1268      1445      1450      1268      1271      1272      1275
      1268      1271      1272      1449      1268      1445      1446      1441
      1268      1445      1446      1447      1268      1445      1450      1449
      1268      1445      1450      1451      1269      1092      1095      1094
      1269      1092      1095      1096      1269      1270      1271      1268
      1269      1270      1271      1272      1269      1274      1275      1272
      1269      1274      1275      1276      1270      1265      1266      1261
      1270      1265      1266      1267      1270      1269      1274      1273
      1270      1269      1274      1275      1270      1271      1272      1275
      1270      1271      1272      1449      1271      1268      1445      1446
      1271      1268      1445      1450      1271      1272      1275      1274
      1271      1272      1275      1276      1271      1272      1449      1454
      1271      1272      1449      1450      1272      1275      1276      1279
      1272      1275      1276      1453      1272      1449      1454      1453
      1272      1449      1454      1455      1272      1449      1450      1445
      1272      1449      1450      1451      1273      1096      1099      1098
      1273      1096      1099      1100      1273      1274      1275      1272
      1273      1274      1275      1276      1273      1278      1279      1276
      1273      1278      1279      1280      1274      1269      1270      1265
      1274      1269      1270      1271      1274      1273      1278      1277
      1274      1273      1278      1279      1274      1275      1276      1279
      1274      1275      1276      1453      1275      1272      1449      1454
      1275      1272      1449      1450      1275      1276      1279      1278
      1275      1276      1279      1280      1275      1276      1453      1458
      1275      1276      1453      1454      1276      1279      1280      1283
      1276      1279      1280      1457      1276      1453      1458      1457
      1276      1453      1458      1459      1276      1453      1454      1449
      1276      1453      1454      1455      1277      1100      1103      1102
      1277      1100      1103      1104      1277      1278      1279      1276
      1277      1278      1279      1280      1277      1282      1283      1280
      1277      1282      1283      1284      1278      1273      1274      1269
      1278      1273      1274      1275      1278      1277      1282      1281
      1278      1277      1282      1283      1278      1279      1280      1283
      1278      1279      1280      1457      1279      1276      1453      1458
      1279      1276      1453      1454      1279      1280      1283      1282
      1279      1280      1283      1284      1279      1280      1457      1462
      1279      1280      1457      1458      1280      1283      1284      1287
      1280      1283      1284      1461      1280      1457      1462      1461
      1280      1457      1462      1463      1280      1457      1458      1453
      1280      1457      1458      1459      1281      1104      1107      1106
      1281      1104      1107      1108      1281      1282      1283      1280
      1281      1282      1283      1284      1281      1286      1287      1284
      1281      1286      1287      1288      1282      1277      1278      1273
      1282      1277      1278      1279      1282      1281      1286      1285
      1282      1281      1286      1287      1282      1283      1284      1287
      1282      1283      1284      1461      1283      1280      1457      1462
      1283      1280      1457      1458      1283      1284      1287      1286
      1283      1284      1287      1288      1283      1284      1461      1462
      1283      1284      1461      1466      1284      1287      1288      1291
      1284      1287      1288      1465      1284      1461      1462      1457
      1284      1461      1462      1463      1284      1461      1466      1465
      1284      1461      1466      1467      1285      1108      1111      1110
      1285      1108      1111      1112      1285      1286      1287      1284
      1285      1286      1287      1288      1285      1290      1291      1288
      1285      1290      1291      1292      1286      1281      1282      1277
      1286      1281      1282      1283      1286      1285      1290      1289
      1286      1285      1290      1291      1286      1287      1288      1291
      1286      1287      1288      1465      1287      1284      1461      1462
      1287      1284      1461      1466      1287      1288      1291      1290
      1287      1288      1291      1292      1287      1288      1465      1466
      1287      1288      1465      1470      1288      1291      1292      1295
      1288      1291      1292      1469      1288      1465      1466      1461
      1288      1465      1466      1467      1288      1465      1470      1469
      1288      1465      1470      1471      1289      1112      1115      1114
      1289      1112      1115      1116      1289      1290      1291      1288
      1289      1290      1291      1292      1289      1294      1295      1292
      1289      1294      1295      1296      1290      1285      1286      1281
      1290      1285      1286      1287      1290      1289      1294      1293
      1290      1289      1294      1295      1290      1291      1292      1295
      1290      1291      1292      1469      1291      1288      1465      1466
      1291      1288      1465      1470      1291      1292      1295      1294
      1291      1292      1295      1296      1291      1292      1469      1474
      1291      1292      1469      1470      1292      1295      1296      1299
      1292      1295      1296      1473      1292      1469      1474      1473
      1292      1469      1474      1475      1292      1469      1470      1465
      1292      1469      1470      1471      1293      1116      1119      1118
      1293      1116      1119      1120      1293      1294      1295      1292
      1293      1294      1295      1296      1293      1298      1299      1296
      1293      1298      1299      1300      1294      1289      1290      1285
      1294      1289      1290      1291      1294      1293      1298      1297
      1294      1293      1298      1299      1294      1295      1296      1299
      1294      1295      1296      1473      1295      1292      1469      1474
      1295      1292      1469      1470      1295      1296      1299      1298
      1295      1296      1299      1300      1295      1296      1473      1478
      1295      1296      1473      1474      1296      1299      1300      1303
      1296      1299      1300      1477      1296      1473      1478      1477
      1296      1473      1478      1479      1296      1473      1474      1469
      1296      1473      1474      1475      1297      1120      1123      1122
      1297      1120      1123      1124      1297      1298      1299      1296
      1297      1298      1299      1300      1297      1302      1303      1300
      1297      1302      1303      1304      1298      1293      1294      1289
      1298      1293      1294      1295      1298      1297      1302      1301
      1298      1297      1302      1303      1298      1299      1300      1303
      1298      1299      1300      1477      1299      1296      1473      1478
      1299      1296      1473      1474      1299      1300      1303      1302
      1299      1300      1303      1304      1299      1300      1477      1482
      1299      1300      1477      1478      1300      1303      1304      1307
      1300      1303      1304      1481      1300      1477      1482      1481
      1300      1477      1482      1483      1300      1477      1478      1473
      1300      1477      1478      1479      1301      1124      1127      1126
      1301      1124      1127      1128      1301      1302      1303      1300
      1301      1302      1303      1304      1301      1306      1307      1304
      1301      1306      1307      1308      1302      1297      1298      1293
      1302      1297      1298      1299      1302      1301      1306      1305
      1302      1301      1306      1307      1302      1303      1304      1307
      1302      1303      1304      1481      1303      1300      1477      1482
      1303      1300      1477      1478      1303      1304      1307      1306
      1303      1304      1307      1308      1303      1304      1481      1482
      1303      1304      1481      1486      1304      1307      1308      1311
      1304      1307      1308      1485      1304      1481      1482      1477
      1304      1481      1482      1483      1304      1481      1486      1485
      1304      1481      1486      1487      1305      1128      1131      1130
      1305      1128      1131      1132      1305      1306      1307      1304
      1305      1306      1307      1308      1305      1310      1311      1308
      1305      1310      1311      1312      1306      1301      1302      1297
      1306      1301      1302      1303      1306      1305      1310      1309
      1306      1305      1310      1311      1306      1307      1308      1311
      1306      1307      1308      1485      1307      1304      1481      1482
      1307      1304      1481      1486      1307      1308      1311      1310
      1307      1308      1311      1312      1307      1308      1485      1486
      1307      1308      1485      1490      1308      1311      1312      1315
      1308      1311      1312      1489      1308      1485      1486      1481
      1308      1485      1486      1487      1308      1485      1490      1489
      1308      1485      1490      1491      1309      1132      1135      1134
      1309      1132      1135      1136      1309      1310      1311      1308
      1309      1310      1311      1312      1309      1314      1315      1312
      1309      1314      1315      1316      1310      1305      1306      1301
      1310      1305      1306      1307      1310      1309      1314      1313
      1310      1309      1314      1315      1310      1311      1312      1315
      1310      1311      1312      1489      1311      1308      1485      1486
      1311      1308      1485      1490      1311      1312      1315      1314
      1311      1312      1315      1316      1311      1312      1489      1494
      1311      1312      1489      1490      1312      1315      1316      1319
      1312      1315      1316      1493      1312      1489      1494      1493
      1312      1489      1494      1495      1312      1489      1490      1485
      1312      1489      1490      1491      1313      1136      1139      1138
      1313      1136      1139      1140      1313      1314      1315      1312
      1313      1314      1315      1316      1313      1318      1319      1316
      1313      1318      1319      1320      1314      1309      1310      1305
      1314      1309      1310      1311      1314      1313      1318      1317
      1314      1313      1318      1319      1314      1315      1316      1319
      1314      1315      1316      1493      1315      1312      1489      1494
      1315      1312      1489      1490      1315      1316      1319      1318
      1315      1316      1319      1320      1315      1316      1493      1494
      1315      1316      1493      1498      1316      1319      1320      1323
      1316      1319      1320      1497      1316      1493      1494      1489
      1316      1493      1494      1495      1316      1493      1498      1497
      1316      1493      1498      1499      1317      1140      1143      1142
      1317      1140      1143      1144      1317      1318      1319      1316
      1317      1318      1319      1320      1317      1322      1323      1320
      1317      1322      1323      1324      1318      1313      1314      1309
      1318      1313      1314      1315      1318      1317      1322      1321
      1318      1317      1322      1323      1318      1319      1320      1323
      1318      1319      1320      1497      1319      1316      1493      1494
      1319      1316      1493      1498      1319      1320      1323      1322
      1319      1320      1323      1324      1319      1320      1497      1498
      1319      1320      1497      1502      1320      1323      1324      1327
      1320      1323      1324      1501      1320      1497      1498      1493
      1320      1497      1498      1499      1320      1497      1502      1501
      1320      1497      1502      1503      1321      1144      1147      1146
      1321      1144      1147      1148      1321      1322      1323      1320
      1321      1322      1323      1324      1321      1326      1327      1324
      1321      1326      1327      1328      1322      1317      1318      1313
      1322      1317      1318      1319      1322      1321      1326      1325
      1322      1321      1326      1327      1322      1323      1324      1327
      1322      1323      1324      1501      1323      1320      1497      1498
      1323      1320      1497      1502      1323      1324      1327      1326
      1323      1324      1327      1328      1323      1324      1501      1502
      1323      1324      1501      1506      1324      1327      1328      1331
      1324      1327      1328      1505      1324      1501      1502      1497
      1324      1501      1502      1503      1324      1501      1506      1505
      1324      1501      1506      1507      1325      1148      1151      1150
      1325      1148      1151      1152      1325      1326      1327      1324
      1325      1326      1327      1328      1325      1330      1331      1328
      1325      1330      1331      1332      1326      1321      1322      1317
      1326      1321      1322      1323      1326      1325      1330      1329
      1326      1325      1330      1331      1326      1327      1328      1331
      1326      1327      1328      1505      1327      1324      1501      1502
      1327      1324      1501      1506      1327      1328      1331      1330
      1327      1328      1331      1332      1327      1328      1505      1506
      1327      1328      1505      1510      1328      1331      1332      1335
      1328      1331      1332      1509      1328      1505      1506      1501
      1328      1505      1506      1507      1328      1505      1510      1509
      1328      1505      1510      1511      1329      1152      1155      1154
      1329      1152      1155      1156      1329      1330      1331      1328
      1329      1330      1331      1332      1329      1334      1335      1332
      1329      1334      1335      1336      1330      1325      1326      1321
      1330      1325      1326      1327      1330      1329      1334      1333
      1330      1329      1334      1335      1330      1331      1332      1335
      1330      1331      1332      1509      1331      1328      1505      1506
      1331      1328      1505      1510      1331      1332      1335      1334
      1331      1332      1335      1336      1331      1332      1509      1510
      1331      1332      1509      1514      1332      1335      1336      1339
      1332      1335      1336      1513      1332      1509      1510      1505
      1332      1509      1510      1511      1332      1509      1514      1513
      1332      1509      1514      1515      1333      1156      1159      1158
      1333      1156      1159      1160      1333      1334      1335      1332
      1333      1334      1335      1336      1333      1338      1339      1336
      1333      1338      1339      1340      1334      1329      1330      1325
      1334      1329      1330      1331      1334      1333      1338      1337
      1334      1333      1338      1339      1334      1335      1336      1339
      1334      1335      1336      1513      1335      1332      1509      1510
      1335      1332      1509      1514      1335      1336      1339      1338
      1335      1336      1339      1340      1335      1336      1513      1514
      1335      1336      1513      1518      1336      1339      1340      1343
      1336      1339      1340      1517      1336      1513      1514      1509
      1336      1513      1514      1515      1336      1513      1518      1517
      1336      1513      1518      1519      1337      1160      1163      1162
      1337      1160      1163      1164      1337      1338      1339      1336
      1337      1338      1339      1340      1337      1342      1343      1340
      1337      1342      1343      1344      1338      1333      1334      1329
      1338      1333      1334      1335      1338      1337      1342      1341
      1338      1337      1342      1343      1338      1339      1340      1343
      1338      1339      1340      1517      1339      1336      1513      1514
      1339      1336      1513      1518      1339      1340      1343      1342
      1339      1340      1343      1344      1339      1340      1517      1522
      1339      1340      1517      1518      1340      1343      1344      1347
      1340      1343      1344      1521      1340      1517      1522      1521
      1340      1517      1522      1523      1340      1517      1518      1513
      1340      1517      1518      1519      1341      1164      1167      1166
      1341      1164      1167      1168      1341      1342      1343      1340
      1341      1342      1343      1344      1341      1346      1347      1344
      1341      1346      1347      1348      1342      1337      1338      1333
      1342      1337      1338      1339      1342      1341      1346      1345
      1342      1341      1346      1347      1342      1343      1344      1347
      1342      1343      1344      1521      1343      1340      1517      1522
      1343      1340      1517      1518      1343      1344      1347      1346
      1343      1344      1347      1348      1343      1344      1521      1522
      1343      1344      1521      1526      1344      1347      1348      1351
      1344      1347      1348      1525      1344      1521      1522      1517
      1344      1521      1522      1523      1344      1521      1526      1525
      1344      1521      1526      1527      1345      1168      1171      1170
      1345      1168      1171      1172      1345      1346      1347      1344
      1345      1346      1347      1348      1345      1350      1351      1348
      1345      1350      1351      1352      1346      1341      1342      1337
      1346      1341      1342      1343      1346      1345      1350      1349
      1346      1345      1350      1351      1346      1347      1348      1351
      1346      1347      1348      1525      1347      1344      1521      1522
      1347      1344      1521      1526      1347      1348      1351      1350
      1347      1348      1351      1352      1347      1348      1525      1526
      1347      1348      1525      1530      1348      1351      1352      1355
      1348      1351      1352      1529      1348      1525      1526      1521
      1348      1525      1526      1527      1348      1525      1530      1529
      1348      1525      1530      1531      1349      1172      1175      1174
      1349      1172      1175      1176      1349      1350      1351      1348
      1349      1350      1351      1352      1349      1354      1355      1352
      1349      1354      1355      1356      1350      1345      1346      1341
      1350      1345      1346      1347      1350      1349      1354      1353
      1350      1349      1354      1355      1350      1351      1352      1355
      1350      1351      1352      1529      1351      1348      1525      1526
      1351      1348      1525      1530      1351      1352      1355      1354
      1351      1352      1355      1356      1351      1352      1529      1534
      1351      1352      1529      1530      1352      1355      1356      1359
      1352      1355      1356      1533      1352      1529      1534      1533
      1352      1529      1534      1535      1352      1529      1530      1525
      1352      1529      1530      1531      1353      1176      1179      1178
      1353      1176      1179      1180      1353      1354      1355      1352
      1353      1354      1355      1356      1353      1358      1359      1356
      1353      1358      1359      1360      1354      1349      1350      1345
      1354      1349      1350      1351      1354      1353      1358      1357
      1354      1353      1358      1359      1354      1355      1356      1359
      1354      1355      1356      1533      1355      1352      1529      1534
      1355      1352      1529      1530      1355      1356      1359      1358
      1355      1356      1359      1360      1355      1356      1533      1538
      1355      1356      1533      1534      1356      1359      1360      1363
      1356      1359      1360      1537      1356      1533      1538      1537
      1356      1533      1538      1539      1356      1533      1534      1529
      1356      1533      1534      1535      1357      1180      1183      1182
      1357      1180      1183      1184      1357      1358      1359      1356
      1357      1358      1359      1360      1357      1362      1363      1360
      1357      1362      1363      1364      1358      1353      1354      1349
      1358      1353      1354      1355      1358      1357      1362      1361
      1358      1357      1362      1363      1358      1359      1360      1363
      1358      1359      1360      1537      1359      1356      1533      1538
      1359      1356      1533      1534      1359      1360      1363      1362
      1359      1360      1363      1364      1359      1360      1537      1542
      1359      1360      1537      1538      1360      1363      1364      1367
      1360      1363      1364      1541      1360      1537      1542      1541
      1360      1537      1542      1543      1360      1537      1538      1533
      1360      1537      1538      1539      1361      1184      1187      1186
      1361      1184      1187      1188      1361      1362      1363      1360
      1361      1362      1363      1364      1361      1366      1367      1364
      1361      1366      1367      1368      1362      1357      1358      1353
      1362      1357      1358      1359      1362      1361      1366      1365
      1362      1361      1366      1367      1362      1363      1364      1367
      1362      1363      1364      1541      1363      1360      1537      1542
      1363      1360      1537      1538      1363      1364      1367      1366
      1363      1364      1367      1368      1363      1364      1541      1542
      1363      1364      1541      1546      1364      1367      1368      1371
      1364      1367      1368      1545      1364      1541      1542      1537
      1364      1541      1542      1543      1364      1541      1546      1545
      1364      1541      1546      1547      1365      1188      1191      1190
      1365      1188      1191      1192      1365      1366      1367      1364
      1365      1366      1367      1368      1365      1370      1371      1368
      1365      1370      1371      1372      1366      1361      1362      1357
      1366      1361      1362      1363      1366      1365      1370      1369
      1366      1365      1370      1371      1366      1367      1368      1371
      1366      1367      1368      1545      1367      1364      1541      1542
      1367      1364      1541      1546      1367      1368      1371      1370
      1367      1368      1371      1372      1367      1368      1545      1546
      1367      1368      1545      1550      1368      1371      1372      1375
      1368      1371      1372      1549      1368      1545      1546      1541
      1368      1545      1546      1547      1368      1545      1550      1549
      1368      1545      1550      1551      1369      1192      1195      1194
      1369      1192      1195      1196      1369      1370      1371      1368
      1369      1370      1371      1372      1369      1374      1375      1372
      1369      1374      1375      1376      1370      1365      1366      1361
      1370      1365      1366      1367      1370      1369      1374      1373
      1370      1369      1374      1375      1370      1371      1372      1375
      1370      1371      1372      1549      1371      1368      1545      1546
      1371      1368      1545      1550      1371      1372      1375      1374
      1371      1372      1375      1376      1371      1372      1549      1554
      1371      1372      1549      1550      1372      1375      1376      1379
      1372      1375      1376      1553      1372      1549      1554      1553
      1372      1549      1554      1555      1372      1549      1550      1545
      1372      1549      1550      1551      1373      1196      1199      1198
      1373      1196      1199      1200      1373      1374      1375      1372
      1373      1374      1375      1376      1373      1378      1379      1376
      1373      1378      1379      1380      1374      1369      1370      1365
      1374      1369      1370      1371      1374      1373      1378      1377
      1374      1373      1378      1379      1374      1375      1376      1379
      1374      1375      1376      1553      1375      1372      1549      1554
      1375      1372      1549      1550      1375      1376      1379      1378
      1375      1376      1379      1380      1375      1376      1553      1558
      1375      1376      1553      1554      1376      1379      1380      1383
      1376      1379      1380      1557      1376      1553      1558      1557
      1376      1553      1558      1559      1376      1553      1554      1549
      1376      1553      1554      1555      1377      1200      1203      1202
      1377      1200      1203      1204      1377      1378      1379      1376
      1377      1378      1379      1380      1377      1382      1383      1380
      1377      1382      1383      1384      1378      1373      1374      1369
      1378      1373      1374      1375      1378      1377      1382      1381
      1378      1377      1382      1383      1378      1379      1380      1383
      1378      1379      1380      1557      1379      1376      1553      1558
      1379      1376      1553      1554      1379      1380      1383      1382
      1379      1380      1383      1384      1379      1380      1557      1562
      1379      1380      1557      1558      1380      1383      1384      1387
      1380      1383      1384      1561      1380      1557      1562      1561
      1380      1557      1562      1563      1380      1557      1558      1553
      1380      1557      1558      1559      1381      1204      1207      1206
      1381      1204      1207      1208      1381      1382      1383      1380
      1381      1382      1383      1384      1381      1386      1387      1384
      1381      1386      1387      1388      1382      1377      1378      1373
      1382      1377      1378      1379      1382      1381      1386      1385
      1382      1381      1386      1387      1382      1383      1384      1387
      1382      1383      1384      1561      1383      1380      1557      1562
      1383      1380      1557      1558      1383      1384      1387      1386
      1383      1384      1387      1388      1383      1384      1561      1562
      1383      1384      1561      1566      1384      1387      1388      1391
      1384      1387      1388      1565      1384      1561      1562      1557
      1384      1561      1562      1563      1384      1561      1566      1565
      1384      1561      1566      1567      1385      1208      1211      1210
      1385      1208      1211      1212      1385      1386      1387      1384
      1385      1386      1387      1388      1385      1390      1391      1388
      1385      1390      1391      1392      1386      1381      1382      1377
      1386      1381      1382      1383      1386      1385      1390      1389
      1386      1385      1390      1391      1386      1387      1388      1391
      1386      1387      1388      1565      1387      1384      1561      1562
      1387      1384      1561      1566      1387      1388      1391      1390
      1387      1388      1391      1392      1387      1388      1565      1566
      1387      1388      1565      1570      1388      1391      1392      1395
      1388      1391      1392      1569      1388      1565      1566      1561
      1388      1565      1566      1567      1388      1565      1570      1569
      1388      1565      1570      1571      1389      1212      1215      1214
      1389      1212      1215      1216      1389      1390      1391      1388
      1389      1390      1391      1392      1389      1394      1395      1392
      1389      1394      1395      1396      1390      1385      1386      1381
      1390      1385      1386      1387      1390      1389      1394      1393
      1390      1389      1394      1395      1390      1391      1392      1395
      1390      1391      1392      1569      1391      1388      1565      1566
      1391      1388      1565      1570      1391      1392      1395      1394
      1391      1392      1395      1396      1391      1392      1569      1570
      1391      1392      1569      1574      1392      1395      1396      1399
      1392      1395      1396      1573      1392      1569      1570      1565
      1392      1569      1570      1571      1392      1569      1574      1573
      1392      1569      1574      1575      1393      1216      1219      1218
      1393      1216      1219      1220      1393      1394      1395      1392
      1393      1394      1395      1396      1393      1398      1399      1396
      1393      1398      1399      1400      1394      1389      1390      1385
      1394      1389      1390      1391      1394      1393      1398      1397
      1394      1393      1398      1399      1394      1395      1396      1399
      1394      1395      1396      1573      1395      1392      1569      1570
      1395      1392      1569      1574      1395      1396      1399      1398
      1395      1396      1399      1400      1395      1396      1573      1574
      1395      1396      1573      1578      1396      1399      1400      1403
      1396      1399      1400      1577      1396      1573      1574      1569
      1396      1573      1574      1575      1396      1573      1578      1577
      1396      1573      1578      1579      1397      1220      1223      1222
      1397      1220      1223      1224      1397      1398      1399      1396
      1397      1398      1399      1400      1397      1402      1403      1400
      1397      1402      1403      1404      1398      1393      1394      1389
      1398      1393      1394      1395      1398      1397      1402      1401
      1398      1397      1402      1403      1398      1399      1400      1403
      1398      1399      1400      1577      1399      1396      1573      1574
      1399      1396      1573      1578      1399      1400      1403      1402
      1399      1400      1403      1404      1399      1400      1577      1578
      1399      1400      1577      1582      1400      1403      1404      1407
      1400      1403      1404      1581      1400      1577      1578      1573
      1400      1577      1578      1579      1400      1577      1582      1581
      1400      1577      1582      1583      1401      1224      1227      1226
      1401      1224      1227      1228      1401      1402      1403      1400
      1401      1402      1403      1404      1401      1406      1407      1404
      1401      1406      1407      1408      1402      1397      1398      1393
      1402      1397      1398      1399      1402      1401      1406      1405
      1402      1401      1406      1407      1402      1403      1404      1407
      1402      1403      1404      1581      1403      1400      1577      1578
      1403      1400      1577      1582      1403      1404      1407      1406
      1403      1404      1407      1408      1403      1404      1581      1582
      1403      1404      1581      1586      1404      1407      1408      1411
      1404      1407      1408      1585      1404      1581      1582      1577
      1404      1581      1582      1583      1404      1581      1586      1585
      1404      1581      1586      1587      1405      1228      1231      1230
      1405      1228      1231      1232      1405      1406      1407      1404
      1405      1406      1407      1408      1405      1410      1411      1408
      1405      1410      1411      1412      1406      1401      1402      1397
      1406      1401      1402      1403      1406      1405      1410      1409
      1406      1405      1410      1411      1406      1407      1408      1411
      1406      1407      1408      1585      1407      1404      1581      1582
      1407      1404      1581      1586      1407      1408      1411      1410
      1407      1408      1411      1412      1407      1408      1585      1586
      1407      1408      1585      1590      1408      1411      1412      1415
      1408      1411      1412      1589      1408      1585      1586      1581
      1408      1585      1586      1587      1408      1585      1590      1589
      1408      1585      1590      1591      1409      1232      1235      1234
      1409      1232      1235      1236      1409      1410      1411      1408
      1409      1410      1411      1412      1409      1414      1415      1412
      1409      1414      1415      1416      1410      1405      1406      1401
      1410      1405      1406      1407      1410      1409      1414      1413
      1410      1409      1414      1415      1410      1411      1412      1415
      1410      1411      1412      1589      1411      1408      1585      1586
      1411      1408      1585      1590      1411      1412      1415      1414
      1411      1412      1415      1416      1411      1412      1589      1594
      1411      1412      1589      1590      1412      1415      1416      1419
      1412      1415      1416      1593      1412      1589      1594      1593
      1412      1589      1594      1595      1412      1589      1590      1585
      1412      1589      1590      1591      1413      1236      1239      1238
      1413      1236      1239      1240      1413      1414      1415      1412
      1413      1414      1415      1416      1413      1418      1419      1416
      1413      1418      1419      1420      1414      1409      1410      1405
      1414      1409      1410      1411      1414      1413      1418      1417
      1414      1413      1418      1419      1414      1415      1416      1419
      1414      1415      1416      1593      1415      1412      1589      1594
      1415      1412      1589      1590      1415      1416      1419      1418
      1415      1416      1419      1420      1415      1416      1593      1598
      1415      1416      1593      1594      1416      1419      1420      1423
      1416      1419      1420      1597      1416      1593      1598      1597
      1416      1593      1598      1599      1416      1593      1594      1589
      1416      1593      1594      1595      1417      1240      1243      1242
      1417      1240      1243      1244      1417      1418      1419      1416
      1417      1418      1419      1420      1417      1422      1423      1420
      1417      1422      1423      1424      1418      1413      1414      1409
      1418      1413      1414      1415      1418      1417      1422      1421
      1418      1417      1422      1423      1418      1419      1420      1423
      1418      1419      1420      1597      1419      1416      1593      1598
      1419      1416      1593      1594      1419      1420      1423      1422
      1419      1420      1423      1424      1419      1420      1597      1602
      1419      1420      1597      1598      1420      1423      1424      1427
      1420      1423      1424      1601      1420      1597      1602      1601
      1420      1597      1602      1603      1420      1597      1598      1593
      1420      1597      1598      1599      1421      1244      1247      1246
      1421      1244      1247      1248      1421      1422      1423      1420
      1421      1422      1423      1424      1421      1426      1427      1424
      1421      1426      1427      1428      1422      1417      1418      1413
      1422      1417      1418      1419      1422      1421      1426      1425
      1422      1421      1426      1427      1422      1423      1424      1427
      1422      1423      1424      1601      1423      1420      1597      1602
      1423      1420      1597      1598      1423      1424      1427      1426
      1423      1424      1427      1428      1423      1424      1601      1602
      1423      1424      1601      1606      1424      1427      1428      1431
      1424      1427      1428      1605      1424      1601      1602      1597
      1424      1601      1602      1603      1424      1601      1606      1605
      1424      1601      1606      1607      1425      1248      1251      1250
      1425      1248      1251      1252      1425      1426      1427      1424
      1425      1426      1427      1428      1425      1430      1431      1428
      1425      1430      1431      1432      1426      1421      1422      1417
      1426      1421      1422      1423      1426      1425      1430      1429
      1426      1425      1430      1431      1426      1427      1428      1431
      1426      1427      1428      1605      1427      1424      1601      1602
      1427      1424      1601      1606      1427      1428      1431      1430
      1427      1428      1431      1432      1427      1428      1605      1606
      1427      1428      1605      1610      1428      1431      1432      1435
      1428      1431      1432      1609      1428      1605      1606      1601
      1428      1605      1606      1607      1428      1605      1610      1609
      1428      1605      1610      1611      1429      1252      1255      1254
      1429      1252      1255      1256      1429      1430      1431      1428
      1429      1430      1431      1432      1429      1434      1435      1432
      1429      1434      1435      1436      1430      1425      1426      1421
      1430      1425      1426      1427      1430      1429      1434      1433
      1430      1429      1434      1435      1430      1431      1432      1435
      1430      1431      1432      1609      1431      1428      1605      1606
      1431      1428      1605      1610      1431      1432      1435      1434
      1431      1432      1435      1436      1431      1432      1609      1614
      1431      1432      1609      1610      1432      1435      1436      1439
      1432      1435      1436      1613      1432      1609      1614      1613
      1432      1609      1614      1615      1432      1609      1610      1605
      1432      1609      1610      1611      1433      1256      1259      1258
      1433      1256      1259      1260      1433      1434      1435      1432
      1433      1434      1435      1436      1433      1438      1439      1436
      1433      1438      1439      1440      1434      1429      1430      1425
      1434      1429      1430      1431      1434      1433      1438      1437
      1434      1433      1438      1439      1434      1435      1436      1439
      1434      1435      1436      1613      1435      1432      1609      1614
      1435      1432      1609      1610      1435      1436      1439      1438
      1435      1436      1439      1440      1435      1436      1613      1618
      1435      1436      1613      1614      1436      1439      1440      1617
      1436      1613      1618      1617      1436      1613      1618      1619
      1436      1613      1614      1609      1436      1613      1614      1615
      1437      1438      1439      1436      1437      1438      1439      1440
      1438      1433      1434      1429      1438      1433      1434      1435
      1438      1439      1440      1617      1439      1436      1613      1618
      1439      1436      1613      1614      1439      1440      1617      1618
      1440      1617      1618      1613      1440      1617      1618      1619
      1441      1264      1267      1266      1441      1264      1267      1268
      1441      1442      1443      1444      1441      1446      1447      1444
      1441      1446      1447      1448      1442      1441      1446      1445
      1442      1441      1446      1447      1442      1443      1444      1621
      1442      1443      1444      1447      1443      1444      1621      1622
      1443      1444      1621      1626      1443      1444      1447      1446
      1443      1444      1447      1448      1444      1447      1448      1625
      1444      1447      1448      1451      1444      1621      1622      1623
      1444      1621      1626      1625      1444      1621      1626      1627
      1445      1268      1271      1270      1445      1268      1271      1272
      1445      1446      1447      1444      1445      1446      1447      1448
      1445      1450      1451      1448      1445      1450      1451      1452
      1446      1441      1442      1443      1446      1445      1450      1449
      1446      1445      1450      1451      1446      1447      1448      1625
      1446      1447      1448      1451      1447      1444      1621      1622
      1447      1444      1621      1626      1447      1448      1625      1626
      1447      1448      1625      1630      1447      1448      1451      1450
      1447      1448      1451      1452      1448      1451      1452      1629
      1448      1451      1452      1455      1448      1625      1626      1621
      1448      1625      1626      1627      1448      1625      1630      1629
      1448      1625      1630      1631      1449      1272      1275      1274
      1449      1272      1275      1276      1449      1450      1451      1448
      1449      1450      1451      1452      1449      1454      1455      1452
      1449      1454      1455      1456      1450      1445      1446      1441
      1450      1445      1446      1447      1450      1449      1454      1453
      1450      1449      1454      1455      1450      1451      1452      1629
      1450      1451      1452      1455      1451      1448      1625      1626
      1451      1448      1625      1630      1451      1452      1629      1634
      1451      1452      1629      1630      1451      1452      1455      1454
      1451      1452      1455      1456      1452      1455      1456      1633
      1452      1455      1456      1459      1452      1629      1634      1633
      1452      1629      1634      1635      1452      1629      1630      1625
      1452      1629      1630      1631      1453      1276      1279      1278
      1453      1276      1279      1280      1453      1454      1455      1452
      1453      1454      1455      1456      1453      1458      1459      1456
      1453      1458      1459      1460      1454      1449      1450      1445
      1454      1449      1450      1451      1454      1453      1458      1457
      1454      1453      1458      1459      1454      1455      1456      1633
      1454      1455      1456      1459      1455      1452      1629      1634
      1455      1452      1629      1630      1455      1456      1633      1638
      1455      1456      1633      1634      1455      1456      1459      1458
      1455      1456      1459      1460      1456      1459      1460      1637
      1456      1459      1460      1463      1456      1633      1638      1637
      1456      1633      1638      1639      1456      1633      1634      1629
      1456      1633      1634      1635      1457      1280      1283      1282
      1457      1280      1283      1284      1457      1458      1459      1456
      1457      1458      1459      1460      1457      1462      1463      1460
      1457      1462      1463      1464      1458      1453      1454      1449
      1458      1453      1454      1455      1458      1457      1462      1461
      1458      1457      1462      1463      1458      1459      1460      1637
      1458      1459      1460      1463      1459      1456      1633      1638
      1459      1456      1633      1634      1459      1460      1637      1642
      1459      1460      1637      1638      1459      1460      1463      1462
      1459      1460      1463      1464      1460      1463      1464      1641
      1460      1463      1464      1467      1460      1637      1642      1641
      1460      1637      1642      1643      1460      1637      1638      1633
      1460      1637      1638      1639      1461      1284      1287      1286
      1461      1284      1287      1288      1461      1462      1463      1460
      1461      1462      1463      1464      1461      1466      1467      1464
      1461      1466      1467      1468      1462      1457      1458      1453
      1462      1457      1458      1459      1462      1461      1466      1465
      1462      1461      1466      1467      1462      1463      1464      1641
      1462      1463      1464      1467      1463      1460      1637      1642
      1463      1460      1637      1638      1463      1464      1641      1642
      1463      1464      1641      1646      1463      1464      1467      1466
      1463      1464      1467      1468      1464      1467      1468      1645
      1464      1467      1468      1471      1464      1641      1642      1637
      1464      1641      1642      1643      1464      1641      1646      1645
      1464      1641      1646      1647      1465      1288      1291      1290
      1465      1288      1291      1292      1465      1466      1467      1464
      1465      1466      1467      1468      1465      1470      1471      1468
      1465      1470      1471      1472      1466      1461      1462      1457
      1466      1461      1462      1463      1466      1465      1470      1469
      1466      1465      1470      1471      1466      1467      1468      1645
      1466      1467      1468      1471      1467      1464      1641      1642
      1467      1464      1641      1646      1467      1468      1645      1646
      1467      1468      1645      1650      1467      1468      1471      1470
      1467      1468      1471      1472      1468      1471      1472      1475
      1468      1471      1472      1649      1468      1645      1646      1641
      1468      1645      1646      1647      1468      1645      1650      1649
      1468      1645      1650      1651      1469      1292      1295      1294
      1469      1292      1295      1296      1469      1470      1471      1468
      1469      1470      1471      1472      1469      1474      1475      1472
      1469      1474      1475      1476      1470      1465      1466      1461
      1470      1465      1466      1467      1470      1469      1474      1473
      1470      1469      1474      1475      1470      1471      1472      1475
      1470      1471      1472      1649      1471      1468      1645      1646
      1471      1468      1645      1650      1471      1472      1475      1474
      1471      1472      1475      1476      1471      1472      1649      1650
      1471      1472      1649      1654      1472      1475      1476      1479
      1472      1475      1476      1653      1472      1649      1650      1645
      1472      1649      1650      1651      1472      1649      1654      1653
      1472      1649      1654      1655      1473      1296      1299      1298
      1473      1296      1299      1300      1473      1474      1475      1472
      1473      1474      1475      1476      1473      1478      1479      1476
      1473      1478      1479      1480      1474      1469      1470      1465
      1474      1469      1470      1471      1474      1473      1478      1477
      1474      1473      1478      1479      1474      1475      1476      1479
      1474      1475      1476      1653      1475      1472      1649      1650
      1475      1472      1649      1654      1475      1476      1479      1478
      1475      1476      1479      1480      1475      1476      1653      1654
      1475      1476      1653      1658      1476      1479      1480      1657
      1476      1479      1480      1483      1476      1653      1654      1649
      1476      1653      1654      1655      1476      1653      1658      1657
      1476      1653      1658      1659      1477      1300      1303      1302
      1477      1300      1303      1304      1477      1478      1479      1476
      1477      1478      1479      1480      1477      1482      1483      1480
      1477      1482      1483      1484      1478      1473      1474      1469
      1478      1473      1474      1475      1478      1477      1482      1481
      1478      1477      1482      1483      1478      1479      1480      1657
      1478      1479      1480      1483      1479      1476      1653      1654
      1479      1476      1653      1658      1479      1480      1657      1658
      1479      1480      1657      1662      1479      1480      1483      1482
      1479      1480      1483      1484      1480      1483      1484      1661
      1480      1483      1484      1487      1480      1657      1658      1653
      1480      1657      1658      1659      1480      1657      1662      1661
      1480      1657      1662      1663      1481      1304      1307      1306
      1481      1304      1307      1308      1481      1482      1483      1480
      1481      1482      1483      1484      1481      1486      1487      1484
      1481      1486      1487      1488      1482      1477      1478      1473
      1482      1477      1478      1479      1482      1481      1486      1485
      1482      1481      1486      1487      1482      1483      1484      1661
      1482      1483      1484      1487      1483      1480      1657      1658
      1483      1480      1657      1662      1483      1484      1661      1662
      1483      1484      1661      1666      1483      1484      1487      1486
      1483      1484      1487      1488      1484      1487      1488      1665
      1484      1487      1488      1491      1484      1661      1662      1657
      1484      1661      1662      1663      1484      1661      1666      1665
      1484      1661      1666      1667      1485      1308      1311      1310
      1485      1308      1311      1312      1485      1486      1487      1484
      1485      1486      1487      1488      1485      1490      1491      1488
      1485      1490      1491      1492      1486      1481      1482      1477
      1486      1481      1482      1483      1486      1485      1490      1489
      1486      1485      1490      1491      1486      1487      1488      1665
      1486      1487      1488      1491      1487      1484      1661      1662
      1487      1484      1661      1666      1487      1488      1665      1666
      1487      1488      1665      1670      1487      1488      1491      1490
      1487      1488      1491      1492      1488      1491      1492      1495
      1488      1491      1492      1669      1488      1665      1666      1661
      1488      1665      1666      1667      1488      1665      1670      1669
      1488      1665      1670      1671      1489      1312      1315      1314
      1489      1312      1315      1316      1489      1490      1491      1488
      1489      1490      1491      1492      1489      1494      1495      1492
      1489      1494      1495      1496      1490      1485      1486      1481
      1490      1485      1486      1487      1490      1489      1494      1493
      1490      1489      1494      1495      1490      1491      1492      1495
      1490      1491      1492      1669      1491      1488      1665      1666
      1491      1488      1665      1670      1491      1492      1495      1494
      1491      1492      1495      1496      1491      1492      1669      1674
      1491      1492      1669      1670      1492      1495      1496      1499
      1492      1495      1496      1673      1492      1669      1674      1673
      1492      1669      1674      1675      1492      1669      1670      1665
      1492      1669      1670      1671      1493      1316      1319      1318
      1493      1316      1319      1320      1493      1494      1495      1492
      1493      1494      1495      1496      1493      1498      1499      1496
      1493      1498      1499      1500      1494      1489      1490      1485
      1494      1489      1490      1491      1494      1493      1498      1497
      1494      1493      1498      1499      1494      1495      1496      1499
      1494      1495      1496      1673      1495      1492      1669      1674
      1495      1492      1669      1670      1495      1496      1499      1498
      1495      1496      1499      1500      1495      1496      1673      1678
      1495      1496      1673      1674      1496      1499      1500      1677
      1496      1499      1500      1503      1496      1673      1678      1677
      1496      1673      1678      1679      1496      1673      1674      1669
      1496      1673      1674      1675      1497      1320      1323      1322
      1497      1320      1323      1324      1497      1498      1499      1496
      1497      1498      1499      1500      1497      1502      1503      1500
      1497      1502      1503      1504      1498      1493      1494      1489
      1498      1493      1494      1495      1498      1497      1502      1501
      1498      1497      1502      1503      1498      1499      1500      1677
      1498      1499      1500      1503      1499      1496      1673      1678
      1499      1496      1673      1674      1499      1500      1677      1682
      1499      1500      1677      1678      1499      1500      1503      1502
      1499      1500      1503      1504      1500      1503      1504      1681
      1500      1503      1504      1507      1500      1677      1682      1681
      1500      1677      1682      1683      1500      1677      1678      1673
      1500      1677      1678      1679      1501      1324      1327      1326
      1501      1324      1327      1328      1501      1502      1503      1500
      1501      1502      1503      1504      1501      1506      1507      1504
      1501      1506      1507      1508      1502      1497      1498      1493
      1502      1497      1498      1499      1502      1501      1506      1505
      1502      1501      1506      1507      1502      1503      1504      1681
      1502      1503      1504      1507      1503      1500      1677      1682
      1503      1500      1677      1678      1503      1504      1681      1682
      1503      1504      1681      1686      1503      1504      1507      1506
      1503      1504      1507      1508      1504      1507      1508      1685
      1504      1507      1508      1511      1504      1681      1682      1677
      1504      1681      1682      1683      1504      1681      1686      1685
      1504      1681      1686      1687      1505      1328      1331      1330
      1505      1328      1331      1332      1505      1506      1507      1504
      1505      1506      1507      1508      1505      1510      1511      1508
      1505      1510      1511      1512      1506      1501      1502      1497
      1506      1501      1502      1503      1506      1505      1510      1509
      1506      1505      1510      1511      1506      1507      1508      1685
      1506      1507      1508      1511      1507      1504      1681      1682
      1507      1504      1681      1686      1507      1508      1685      1686
      1507      1508      1685      1690      1507      1508      1511      1510
      1507      1508      1511      1512      1508      1511      1512      1515
      1508      1511      1512      1689      1508      1685      1686      1681
      1508      1685      1686      1687      1508      1685      1690      1689
      1508      1685      1690      1691      1509      1332      1335      1334
      1509      1332      1335      1336      1509      1510      1511      1508
      1509      1510      1511      1512      1509      1514      1515      1512
      1509      1514      1515      1516      1510      1505      1506      1501
      1510      1505      1506      1507      1510      1509      1514      1513
      1510      1509      1514      1515      1510      1511      1512      1515
      1510      1511      1512      1689      1511      1508      1685      1686
      1511      1508      1685      1690      1511      1512      1515      1514
      1511      1512      1515      1516      1511      1512      1689      1694
      1511      1512      1689      1690      1512      1515      1516      1693
      1512      1515      1516      1519      1512      1689      1694      1693
      1512      1689      1694      1695      1512      1689      1690      1685
      1512      1689      1690      1691      1513      1336      1339      1338
      1513      1336      1339      1340      1513      1514      1515      1512
      1513      1514      1515      1516      1513      1518      1519      1516
      1513      1518      1519      1520      1514      1509      1510      1505
      1514      1509      1510      1511      1514      1513      1518      1517
      1514      1513      1518      1519      1514      1515      1516      1693
      1514      1515      1516      1519      1515      1512      1689      1694
      1515      1512      1689      1690      1515      1516      1693      1698
      1515      1516      1693      1694      1515      1516      1519      1518
      1515      1516      1519      1520      1516      1519      1520      1697
      1516      1519      1520      1523      1516      1693      1698      1697
      1516      1693      1698      1699      1516      1693      1694      1689
      1516      1693      1694      1695      1517      1340      1343      1342
      1517      1340      1343      1344      1517      1518      1519      1516
      1517      1518      1519      1520      1517      1522      1523      1520
      1517      1522      1523      1524      1518      1513      1514      1509
      1518      1513      1514      1515      1518      1517      1522      1521
      1518      1517      1522      1523      1518      1519      1520      1697
      1518      1519      1520      1523      1519      1516      1693      1698
      1519      1516      1693      1694      1519      1520      1697      1702
      1519      1520      1697      1698      1519      1520      1523      1522
      1519      1520      1523      1524      1520      1523      1524      1701
      1520      1523      1524      1527      1520      1697      1702      1701
      1520      1697      1702      1703      1520      1697      1698      1693
      1520      1697      1698      1699      1521      1344      1347      1346
      1521      1344      1347      1348      1521      1522      1523      1520
      1521      1522      1523      1524      1521      1526      1527      1524
      1521      1526      1527      1528      1522      1517      1518      1513
      1522      1517      1518      1519      1522      1521      1526      1525
      1522      1521      1526      1527      1522      1523      1524      1701
      1522      1523      1524      1527      1523      1520      1697      1702
      1523      1520      1697      1698      1523      1524      1701      1702
      1523      1524      1701      1706      1523      1524      1527      1526
      1523      1524      1527      1528      1524      1527      1528      1705
      1524      1527      1528      1531      1524      1701      1702      1697
      1524      1701      1702      1703      1524      1701      1706      1705
      1524      1701      1706      1707      1525      1348      1351      1350
      1525      1348      1351      1352      1525      1526      1527      1524
      1525      1526      1527      1528      1525      1530      1531      1528
      1525      1530      1531      1532      1526      1521      1522      1517
      1526      1521      1522      1523      1526      1525      1530      1529
      1526      1525      1530      1531      1526      1527      1528      1705
      1526      1527      1528      1531      1527      1524      1701      1702
      1527      1524      1701      1706      1527      1528      1705      1706
      1527      1528      1705      1710      1527      1528      1531      1530
      1527      1528      1531      1532      1528      1531      1532      1709
      1528      1531      1532      1535      1528      1705      1706      1701
      1528      1705      1706      1707      1528      1705      1710      1709
      1528      1705      1710      1711      1529      1352      1355      1354
      1529      1352      1355      1356      1529      1530      1531      1528
      1529      1530      1531      1532      1529      1534      1535      1532
      1529      1534      1535      1536      1530      1525      1526      1521
      1530      1525      1526      1527      1530      1529      1534      1533
      1530      1529      1534      1535      1530      1531      1532      1709
      1530      1531      1532      1535      1531      1528      1705      1706
      1531      1528      1705      1710      1531      1532      1709      1714
      1531      1532      1709      1710      1531      1532      1535      1534
      1531      1532      1535      1536      1532      1535      1536      1539
      1532      1535      1536      1713      1532      1709      1714      1713
      1532      1709      1714      1715      1532      1709      1710      1705
      1532      1709      1710      1711      1533      1356      1359      1358
      1533      1356      1359      1360      1533      1534      1535      1532
      1533      1534      1535      1536      1533      1538      1539      1536
      1533      1538      1539      1540      1534      1529      1530      1525
      1534      1529      1530      1531      1534      1533      1538      1537
      1534      1533      1538      1539      1534      1535      1536      1539
      1534      1535      1536      1713      1535      1532      1709      1714
      1535      1532      1709      1710      1535      1536      1539      1538
      1535      1536      1539      1540      1535      1536      1713      1714
      1535      1536      1713      1718      1536      1539      1540      1717
      1536      1539      1540      1543      1536      1713      1714      1709
      1536      1713      1714      1715      1536      1713      1718      1717
      1536      1713      1718      1719      1537      1360      1363      1362
      1537      1360      1363      1364      1537      1538      1539      1536
      1537      1538      1539      1540      1537      1542      1543      1540
      1537      1542      1543      1544      1538      1533      1534      1529
      1538      1533      1534      1535      1538      1537      1542      1541
      1538      1537      1542      1543      1538      1539      1540      1717
      1538      1539      1540      1543      1539      1536      1713      1714
      1539      1536      1713      1718      1539      1540      1717      1718
      1539      1540      1717      1722      1539      1540      1543      1542
      1539      1540      1543      1544      1540      1543      1544      1721
      1540      1543      1544      1547      1540      1717      1718      1713
      1540      1717      1718      1719      1540      1717      1722      1721
      1540      1717      1722      1723      1541      1364      1367      1366
      1541      1364      1367      1368      1541      1542      1543      1540
      1541      1542      1543      1544      1541      1546      1547      1544
      1541      1546      1547      1548      1542      1537      1538      1533
      1542      1537      1538      1539      1542      1541      1546      1545
      1542      1541      1546      1547      1542      1543      1544      1721
      1542      1543      1544      1547      1543      1540      1717      1718
      1543      1540      1717      1722      1543      1544      1721      1722
      1543      1544      1721      1726      1543      1544      1547      1546
      1543      1544      1547      1548      1544      1547      1548      1725
      1544      1547      1548      1551      1544      1721      1722      1717
      1544      1721      1722      1723      1544      1721      1726      1725
      1544      1721      1726      1727      1545      1368      1371      1370
      1545      1368      1371      1372      1545      1546      1547      1544
      1545      1546      1547      1548      1545      1550      1551      1548
      1545      1550      1551      1552      1546      1541      1542      1537
      1546      1541      1542      1543      1546      1545      1550      1549
      1546      1545      1550      1551      1546      1547      1548      1725
      1546      1547      1548      1551      1547      1544      1721      1722
      1547      1544      1721      1726      1547      1548      1725      1726
      1547      1548      1725      1730      1547      1548      1551      1550
      1547      1548      1551      1552      1548      1551      1552      1555
      1548      1551      1552      1729      1548      1725      1726      1721
      1548      1725      1726      1727      1548      1725      1730      1729
      1548      1725      1730      1731      1549      1372      1375      1374
      1549      1372      1375      1376      1549      1550      1551      1548
      1549      1550      1551      1552      1549      1554      1555      1552
      1549      1554      1555      1556      1550      1545      1546      1541
      1550      1545      1546      1547      1550      1549      1554      1553
      1550      1549      1554      1555      1550      1551      1552      1555
      1550      1551      1552      1729      1551      1548      1725      1726
      1551      1548      1725      1730      1551      1552      1555      1554
      1551      1552      1555      1556      1551      1552      1729      1730
      1551      1552      1729      1734      1552      1555      1556      1559
      1552      1555      1556      1733      1552      1729      1730      1725
      1552      1729      1730      1731      1552      1729      1734      1733
      1552      1729      1734      1735      1553      1376      1379      1378
      1553      1376      1379      1380      1553      1554      1555      1552
      1553      1554      1555      1556      1553      1558      1559      1556
      1553      1558      1559      1560      1554      1549      1550      1545
      1554      1549      1550      1551      1554      1553      1558      1557
      1554      1553      1558      1559      1554      1555      1556      1559
      1554      1555      1556      1733      1555      1552      1729      1730
      1555      1552      1729      1734      1555      1556      1559      1558
      1555      1556      1559      1560      1555      1556      1733      1734
      1555      1556      1733      1738      1556      1559      1560      1737
      1556      1559      1560      1563      1556      1733      1734      1729
      1556      1733      1734      1735      1556      1733      1738      1737
      1556      1733      1738      1739      1557      1380      1383      1382
      1557      1380      1383      1384      1557      1558      1559      1556
      1557      1558      1559      1560      1557      1562      1563      1560
      1557      1562      1563      1564      1558      1553      1554      1549
      1558      1553      1554      1555      1558      1557      1562      1561
      1558      1557      1562      1563      1558      1559      1560      1737
      1558      1559      1560      1563      1559      1556      1733      1734
      1559      1556      1733      1738      1559      1560      1737      1742
      1559      1560      1737      1738      1559      1560      1563      1562
      1559      1560      1563      1564      1560      1563      1564      1741
      1560      1563      1564      1567      1560      1737      1742      1741
      1560      1737      1742      1743      1560      1737      1738      1733
      1560      1737      1738      1739      1561      1384      1387      1386
      1561      1384      1387      1388      1561      1562      1563      1560
      1561      1562      1563      1564      1561      1566      1567      1564
      1561      1566      1567      1568      1562      1557      1558      1553
      1562      1557      1558      1559      1562      1561      1566      1565
      1562      1561      1566      1567      1562      1563      1564      1741
      1562      1563      1564      1567      1563      1560      1737      1742
      1563      1560      1737      1738      1563      1564      1741      1742
      1563      1564      1741      1746      1563      1564      1567      1566
      1563      1564      1567      1568      1564      1567      1568      1745
      1564      1567      1568      1571      1564      1741      1742      1737
      1564      1741      1742      1743      1564      1741      1746      1745
      1564      1741      1746      1747      1565      1388      1391      1390
      1565      1388      1391      1392      1565      1566      1567      1564
      1565      1566      1567      1568      1565      1570      1571      1568
      1565      1570      1571      1572      1566      1561      1562      1557
      1566      1561      1562      1563      1566      1565      1570      1569
      1566      1565      1570      1571      1566      1567      1568      1745
      1566      1567      1568      1571      1567      1564      1741      1742
      1567      1564      1741      1746      1567      1568      1745      1746
      1567      1568      1745      1750      1567      1568      1571      1570
      1567      1568      1571      1572      1568      1571      1572      1575
      1568      1571      1572      1749      1568      1745      1746      1741
      1568      1745      1746      1747      1568      1745      1750      1749
      1568      1745      1750      1751      1569      1392      1395      1394
      1569      1392      1395      1396      1569      1570      1571      1568
      1569      1570      1571      1572      1569      1574      1575      1572
      1569      1574      1575      1576      1570      1565      1566      1561
      1570      1565      1566      1567      1570      1569      1574      1573
      1570      1569      1574      1575      1570      1571      1572      1575
      1570      1571      1572      1749      1571      1568      1745      1746
      1571      1568      1745      1750      1571      1572      1575      1574
      1571      1572      1575      1576      1571      1572      1749      1754
      1571      1572      1749      1750      1572      1575      1576      1579
      1572      1575      1576      1753      1572      1749      1754      1753
      1572      1749      1754      1755      1572      1749      1750      1745
      1572      1749      1750      1751      1573      1396      1399      1398
      1573      1396      1399      1400      1573      1574      1575      1572
      1573      1574      1575      1576      1573      1578      1579      1576
      1573      1578      1579      1580      1574      1569      1570      1565
      1574      1569      1570      1571      1574      1573      1578      1577
      1574      1573      1578      1579      1574      1575      1576      1579
      1574      1575      1576      1753      1575      1572      1749      1754
      1575      1572      1749      1750      1575      1576      1579      1578
      1575      1576      1579      1580      1575      1576      1753      1758
      1575      1576      1753      1754      1576      1579      1580      1757
      1576      1579      1580      1583      1576      1753      1758      1757
      1576      1753      1758      1759      1576      1753      1754      1749
      1576      1753      1754      1755      1577      1400      1403      1402
      1577      1400      1403      1404      1577      1578      1579      1576
      1577      1578      1579      1580      1577      1582      1583      1580
      1577      1582      1583      1584      1578      1573      1574      1569
      1578      1573      1574      1575      1578      1577      1582      1581
      1578      1577      1582      1583      1578      1579      1580      1757
      1578      1579      1580      1583      1579      1576      1753      1758
      1579      1576      1753      1754      1579      1580      1757      1762
      1579      1580      1757      1758      1579      1580      1583      1582
      1579      1580      1583      1584      1580      1583      1584      1761
      1580      1583      1584      1587      1580      1757      1762      1761
      1580      1757      1762      1763      1580      1757      1758      1753
      1580      1757      1758      1759      1581      1404      1407      1406
      1581      1404      1407      1408      1581      1582      1583      1580
      1581      1582      1583      1584      1581      1586      1587      1584
      1581      1586      1587      1588      1582      1577      1578      1573
      1582      1577      1578      1579      1582      1581      1586      1585
      1582      1581      1586      1587      1582      1583      1584      1761
      1582      1583      1584      1587      1583      1580      1757      1762
      1583      1580      1757      1758      1583      1584      1761      1762
      1583      1584      1761      1766      1583      1584      1587      1586
      1583      1584      1587      1588      1584      1587      1588      1765
      1584      1587      1588      1591      1584      1761      1762      1757
      1584      1761      1762      1763      1584      1761      1766      1765
      1584      1761      1766      1767      1585      1408      1411      1410
      1585      1408      1411      1412      1585      1586      1587      1584
      1585      1586      1587      1588      1585      1590      1591      1588
      1585      1590      1591      1592      1586      1581      1582      1577
      1586      1581      1582      1583      1586      1585      1590      1589
      1586      1585      1590      1591      1586      1587      1588      1765
      1586      1587      1588      1591      1587      1584      1761      1762
      1587      1584      1761      1766      1587      1588      1765      1766
      1587      1588      1765      1770      1587      1588      1591      1590
      1587      1588      1591      1592      1588      1591      1592      1769
      1588      1591      1592      1595      1588      1765      1766      1761
      1588      1765      1766      1767      1588      1765      1770      1769
      1588      1765      1770      1771      1589      1412      1415      1414
      1589      1412      1415      1416      1589      1590      1591      1588
      1589      1590      1591      1592      1589      1594      1595      1592
      1589      1594      1595      1596      1590      1585      1586      1581
      1590      1585      1586      1587      1590      1589      1594      1593
      1590      1589      1594      1595      1590      1591      1592      1769
      1590      1591      1592      1595      1591      1588      1765      1766
      1591      1588      1765      1770      1591      1592      1769      1774
      1591      1592      1769      1770      1591      1592      1595      1594
      1591      1592      1595      1596      1592      1595      1596      1773
      1592      1595      1596      1599      1592      1769      1774      1773
      1592      1769      1774      1775      1592      1769      1770      1765
      1592      1769      1770      1771      1593      1416      1419      1418
      1593      1416      1419      1420      1593      1594      1595      1592
      1593      1594      1595      1596      1593      1598      1599      1596
      1593      1598      1599      1600      1594      1589      1590      1585
      1594      1589      1590      1591      1594      1593      1598      1597
      1594      1593      1598      1599      1594      1595      1596      1773
      1594      1595      1596      1599      1595      1592      1769      1774
      1595      1592      1769      1770      1595      1596      1773      1778
      1595      1596      1773      1774      1595      1596      1599      1598
      1595      1596      1599      1600      1596      1599      1600      1777
      1596      1599      1600      1603      1596      1773      1778      1777
      1596      1773      1778      1779      1596      1773      1774      1769
      1596      1773      1774      1775      1597      1420      1423      1422
      1597      1420      1423      1424      1597      1598      1599      1596
      1597      1598      1599      1600      1597      1602      1603      1600
      1597      1602      1603      1604      1598      1593      1594      1589
      1598      1593      1594      1595      1598      1597      1602      1601
      1598      1597      1602      1603      1598      1599      1600      1777
      1598      1599      1600      1603      1599      1596      1773      1778
      1599      1596      1773      1774      1599      1600      1777      1782
      1599      1600      1777      1778      1599      1600      1603      1602
      1599      1600      1603      1604      1600      1603      1604      1781
      1600      1603      1604      1607      1600      1777      1782      1781
      1600      1777      1782      1783      1600      1777      1778      1773
      1600      1777      1778      1779      1601      1424      1427      1426
      1601      1424      1427      1428      1601      1602      1603      1600
      1601      1602      1603      1604      1601      1606      1607      1604
      1601      1606      1607      1608      1602      1597      1598      1593
      1602      1597      1598      1599      1602      1601      1606      1605
      1602      1601      1606      1607      1602      1603      1604      1781
      1602      1603      1604      1607      1603      1600      1777      1782
      1603      1600      1777      1778      1603      1604      1781      1782
      1603      1604      1781      1786      1603      1604      1607      1606
      1603      1604      1607      1608      1604      1607      1608      1785
      1604      1607      1608      1611      1604      1781      1782      1777
      1604      1781      1782      1783      1604      1781      1786      1785
      1604      1781      1786      1787      1605      1428      1431      1430
      1605      1428      1431      1432      1605      1606      1607      1604
      1605      1606      1607      1608      1605      1610      1611      1608
      1605      1610      1611      1612      1606      1601      1602      1597
      1606      1601      1602      1603      1606      1605      1610      1609
      1606      1605      1610      1611      1606      1607      1608      1785
      1606      1607      1608      1611      1607      1604      1781      1782
      1607      1604      1781      1786      1607      1608      1785      1786
      1607      1608      1785      1790      1607      1608      1611      1610
      1607      1608      1611      1612      1608      1611      1612      1615
      1608      1611      1612      1789      1608      1785      1786      1781
      1608      1785      1786      1787      1608      1785      1790      1789
      1608      1785      1790      1791      1609      1432      1435      1434
      1609      1432      1435      1436      1609      1610      1611      1608
      1609      1610      1611      1612      1609      1614      1615      1612
      1609      1614      1615      1616      1610      1605      1606      1601
      1610      1605      1606      1607      1610      1609      1614      1613
      1610      1609      1614      1615      1610      1611      1612      1615
      1610      1611      1612      1789      1611      1608      1785      1786
      1611      1608      1785      1790      1611      1612      1615      1614
      1611      1612      1615      1616      1611      1612      1789      1790
      1611      1612      1789      1794      1612      1615      1616      1619
      1612      1615      1616      1793      1612      1789      1790      1785
      1612      1789      1790      1791      1612      1789      1794      1793
      1612      1789      1794      1795      1613      1436      1439      1438
      1613      1436      1439      1440      1613      1614      1615      1612
      1613      1614      1615      1616      1613      1618      1619      1616
      1613      1618      1619      1620      1614      1609      1610      1605
      1614      1609      1610      1611      1614      1613      1618      1617
      1614      1613      1618      1619      1614      1615      1616      1619
      1614      1615      1616      1793      1615      1612      1789      1790
      1615      1612      1789      1794      1615      1616      1619      1618
      1615      1616      1619      1620      1615      1616      1793      1794
      1615      1616      1793      1798      1616      1619      1620      1797
      1616      1793      1794      1789      1616      1793      1794      1795
      1616      1793      1798      1797      1616      1793      1798      1799
      1617      1618      1619      1616      1617      1618      1619      1620
      1618      1613      1614      1609      1618      1613      1614      1615
      1618      1619      1620      1797      1619      1616      1793      1794
      1619      1616      1793      1798      1619      1620      1797      1798
      1620      1797      1798      1793      1620      1797      1798      1799
      1621      1444      1447      1446      1621      1444      1447      1448
      1621      1622      1623      1624      1621      1626      1627      1624
      1621      1626      1627      1628      1622      1621      1626      1625
      1622      1621      1626      1627      1622      1623      1624      1801
      1622      1623      1624      1627      1623      1624      1801      1802
      1623      1624      1801      1806      1623      1624      1627      1626
      1623      1624      1627      1628      1624      1627      1628      1805
      1624      1627      1628      1631      1624      1801      1802      1803
      1624      1801      1806      1805      1624      1801      1806      1807
      1625      1448      1451      1450      1625      1448      1451      1452
      1625      1626      1627      1624      1625      1626      1627      1628
      1625      1630      1631      1628      1625      1630      1631      1632
      1626      1621      1622      1623      1626      1625      1630      1629
      1626      1625      1630      1631      1626      1627      1628      1805
      1626      1627      1628      1631      1627      1624      1801      1802
      1627      1624      1801      1806      1627      1628      1805      1806
      1627      1628      1805      1810      1627      1628      1631      1630
      1627      1628      1631      1632      1628      1631      1632      1635
      1628      1631      1632      1809      1628      1805      1806      1801
      1628      1805      1806      1807      1628      1805      1810      1809
      1628      1805      1810      1811      1629      1452      1455      1454
      1629      1452      1455      1456      1629      1630      1631      1628
      1629      1630      1631      1632      1629      1634      1635      1632
      1629      1634      1635      1636      1630      1625      1626      1621
      1630      1625      1626      1627      1630      1629      1634      1633
      1630      1629      1634      1635      1630      1631      1632      1635
      1630      1631      1632      1809      1631      1628      1805      1806
      1631      1628      1805      1810      1631      1632      1635      1634
      1631      1632      1635      1636      1631      1632      1809      1810
      1631      1632      1809      1814      1632      1635      1636      1639
      1632      1635      1636      1813      1632      1809      1810      1805
      1632      1809      1810      1811      1632      1809      1814      1813
      1632      1809      1814      1815      1633      1456      1459      1458
      1633      1456      1459      1460      1633      1634      1635      1632
      1633      1634      1635      1636      1633      1638      1639      1636
      1633      1638      1639      1640      1634      1629      1630      1625
      1634      1629      1630      1631      1634      1633      1638      1637
      1634      1633      1638      1639      1634      1635      1636      1639
      1634      1635      1636      1813      1635      1632      1809      1810
      1635      1632      1809      1814      1635      1636      1639      1638
      1635      1636      1639      1640      1635      1636      1813      1814
      1635      1636      1813      1818      1636      1639      1640      1817
      1636      1639      1640      1643      1636      1813      1814      1809
      1636      1813      1814      1815      1636      1813      1818      1817
      1636      1813      1818      1819      1637      1460      1463      1462
      1637      1460      1463      1464      1637      1638      1639      1636
      1637      1638      1639      1640      1637      1642      1643      1640
      1637      1642      1643      1644      1638      1633      1634      1629
      1638      1633      1634      1635      1638      1637      1642      1641
      1638      1637      1642      1643      1638      1639      1640      1817
      1638      1639      1640      1643      1639      1636      1813      1814
      1639      1636      1813      1818      1639      1640      1817      1818
      1639      1640      1817      1822      1639      1640      1643      1642
      1639      1640      1643      1644      1640      1643      1644      1821
      1640      1643      1644      1647      1640      1817      1818      1813
      1640      1817      1818      1819      1640      1817      1822      1821
      1640      1817      1822      1823      1641      1464      1467      1466
      1641      1464      1467      1468      1641      1642      1643      1640
      1641      1642      1643      1644      1641      1646      1647      1644
      1641      1646      1647      1648      1642      1637      1638      1633
      1642      1637      1638      1639      1642      1641      1646      1645
      1642      1641      1646      1647      1642      1643      1644      1821
      1642      1643      1644      1647      1643      1640      1817      1818
      1643      1640      1817      1822      1643      1644      1821      1822
      1643      1644      1821      1826      1643      1644      1647      1646
      1643      1644      1647      1648      1644      1647      1648      1825
      1644      1647      1648      1651      1644      1821      1822      1817
      1644      1821      1822      1823      1644      1821      1826      1825
      1644      1821      1826      1827      1645      1468      1471      1470
      1645      1468      1471      1472      1645      1646      1647      1644
      1645      1646      1647      1648      1645      1650      1651      1648
      1645      1650      1651      1652      1646      1641      1642      1637
      1646      1641      1642      1643      1646      1645      1650      1649
      1646      1645      1650      1651      1646      1647      1648      1825
      1646      1647      1648      1651      1647      1644      1821      1822
      1647      1644      1821      1826      1647      1648      1825      1826
      1647      1648      1825      1830      1647      1648      1651      1650
      1647      1648      1651      1652      1648      1651      1652      1655
      1648      1651      1652      1829      1648      1825      1826      1821
      1648      1825      1826      1827      1648      1825      1830      1829
      1648      1825      1830      1831      1649      1472      1475      1474
      1649      1472      1475      1476      1649      1650      1651      1648
      1649      1650      1651      1652      1649      1654      1655      1652
      1649      1654      1655      1656      1650      1645      1646      1641
      1650      1645      1646      1647      1650      1649      1654      1653
      1650      1649      1654      1655      1650      1651      1652      1655
      1650      1651      1652      1829      1651      1648      1825      1826
      1651      1648      1825      1830      1651      1652      1655      1654
      1651      1652      1655      1656      1651      1652      1829      1834
      1651      1652      1829      1830      1652      1655      1656      1659
      1652      1655      1656      1833      1652      1829      1834      1833
      1652      1829      1834      1835      1652      1829      1830      1825
      1652      1829      1830      1831      1653      1476      1479      1478
      1653      1476      1479      1480      1653      1654      1655      1652
      1653      1654      1655      1656      1653      1658      1659      1656
      1653      1658      1659      1660      1654      1649      1650      1645
      1654      1649      1650      1651      1654      1653      1658      1657
      1654      1653      1658      1659      1654      1655      1656      1659
      1654      1655      1656      1833      1655      1652      1829      1834
      1655      1652      1829      1830      1655      1656      1659      1658
      1655      1656      1659      1660      1655      1656      1833      1838
      1655      1656      1833      1834      1656      1659      1660      1837
      1656      1659      1660      1663      1656      1833      1838      1837
      1656      1833      1838      1839      1656      1833      1834      1829
      1656      1833      1834      1835      1657      1480      1483      1482
      1657      1480      1483      1484      1657      1658      1659      1656
      1657      1658      1659      1660      1657      1662      1663      1660
      1657      1662      1663      1664      1658      1653      1654      1649
      1658      1653      1654      1655      1658      1657      1662      1661
      1658      1657      1662      1663      1658      1659      1660      1837
      1658      1659      1660      1663      1659      1656      1833      1838
      1659      1656      1833      1834      1659      1660      1837      1842
      1659      1660      1837      1838      1659      1660      1663      1662
      1659      1660      1663      1664      1660      1663      1664      1841
      1660      1663      1664      1667      1660      1837      1842      1841
      1660      1837      1842      1843      1660      1837      1838      1833
      1660      1837      1838      1839      1661      1484      1487      1486
      1661      1484      1487      1488      1661      1662      1663      1660
      1661      1662      1663      1664      1661      1666      1667      1664
      1661      1666      1667      1668      1662      1657      1658      1653
      1662      1657      1658      1659      1662      1661      1666      1665
      1662      1661      1666      1667      1662      1663      1664      1841
      1662      1663      1664      1667      1663      1660      1837      1842
      1663      1660      1837      1838      1663      1664      1841      1842
      1663      1664      1841      1846      1663      1664      1667      1666
      1663      1664      1667      1668      1664      1667      1668      1845
      1664      1667      1668      1671      1664      1841      1842      1837
      1664      1841      1842      1843      1664      1841      1846      1845
      1664      1841      1846      1847      1665      1488      1491      1490
      1665      1488      1491      1492      1665      1666      1667      1664
      1665      1666      1667      1668      1665      1670      1671      1668
      1665      1670      1671      1672      1666      1661      1662      1657
      1666      1661      1662      1663      1666      1665      1670      1669
      1666      1665      1670      1671      1666      1667      1668      1845
      1666      1667      1668      1671      1667      1664      1841      1842
      1667      1664      1841      1846      1667      1668      1845      1846
      1667      1668      1845      1850      1667      1668      1671      1670
      1667      1668      1671      1672      1668      1671      1672      1849
      1668      1671      1672      1675      1668      1845      1846      1841
      1668      1845      1846      1847      1668      1845      1850      1849
      1668      1845      1850      1851      1669      1492      1495      1494
      1669      1492      1495      1496      1669      1670      1671      1668
      1669      1670      1671      1672      1669      1674      1675      1672
      1669      1674      1675      1676      1670      1665      1666      1661
      1670      1665      1666      1667      1670      1669      1674      1673
      1670      1669      1674      1675      1670      1671      1672      1849
      1670      1671      1672      1675      1671      1668      1845      1846
      1671      1668      1845      1850      1671      1672      1849      1854
      1671      1672      1849      1850      1671      1672      1675      1674
      1671      1672      1675      1676      1672      1675      1676      1853
      1672      1675      1676      1679      1672      1849      1854      1853
      1672      1849      1854      1855      1672      1849      1850      1845
      1672      1849      1850      1851      1673      1496      1499      1498
      1673      1496      1499      1500      1673      1674      1675      1672
      1673      1674      1675      1676      1673      1678      1679      1676
      1673      1678      1679      1680      1674      1669      1670      1665
      1674      1669      1670      1671      1674      1673      1678      1677
      1674      1673      1678      1679      1674      1675      1676      1853
      1674      1675      1676      1679      1675      1672      1849      1854
      1675      1672      1849      1850      1675      1676      1853      1858
      1675      1676      1853      1854      1675      1676      1679      1678
      1675      1676      1679      1680      1676      1679      1680      1857
      1676      1679      1680      1683      1676      1853      1858      1857
      1676      1853      1858      1859      1676      1853      1854      1849
      1676      1853      1854      1855      1677      1500      1503      1502
      1677      1500      1503      1504      1677      1678      1679      1676
      1677      1678      1679      1680      1677      1682      1683      1680
      1677      1682      1683      1684      1678      1673      1674      1669
      1678      1673      1674      1675      1678      1677      1682      1681
      1678      1677      1682      1683      1678      1679      1680      1857
      1678      1679      1680      1683      1679      1676      1853      1858
      1679      1676      1853      1854      1679      1680      1857      1862
      1679      1680      1857      1858      1679      1680      1683      1682
      1679      1680      1683      1684      1680      1683      1684      1861
      1680      1683      1684      1687      1680      1857      1862      1861
      1680      1857      1862      1863      1680      1857      1858      1853
      1680      1857      1858      1859      1681      1504      1507      1506
      1681      1504      1507      1508      1681      1682      1683      1680
      1681      1682      1683      1684      1681      1686      1687      1684
      1681      1686      1687      1688      1682      1677      1678      1673
      1682      1677      1678      1679      1682      1681      1686      1685
      1682      1681      1686      1687      1682      1683      1684      1861
      1682      1683      1684      1687      1683      1680      1857      1862
      1683      1680      1857      1858      1683      1684      1861      1862
      1683      1684      1861      1866      1683      1684      1687      1686
      1683      1684      1687      1688      1684      1687      1688      1865
      1684      1687      1688      1691      1684      1861      1862      1857
      1684      1861      1862      1863      1684      1861      1866      1865
      1684      1861      1866      1867      1685      1508      1511      1510
      1685      1508      1511      1512      1685      1686      1687      1684
      1685      1686      1687      1688      1685      1690      1691      1688
      1685      1690      1691      1692      1686      1681      1682      1677
      1686      1681      1682      1683      1686      1685      1690      1689
      1686      1685      1690      1691      1686      1687      1688      1865
      1686      1687      1688      1691      1687      1684      1861      1862
      1687      1684      1861      1866      1687      1688      1865      1866
      1687      1688      1865      1870      1687      1688      1691      1690
      1687      1688      1691      1692      1688      1691      1692      1695
      1688      1691      1692      1869      1688      1865      1866      1861
      1688      1865      1866      1867      1688      1865      1870      1869
      1688      1865      1870      1871      1689      1512      1515      1514
      1689      1512      1515      1516      1689      1690      1691      1688
      1689      1690      1691      1692      1689      1694      1695      1692
      1689      1694      1695      1696      1690      1685      1686      1681
      1690      1685      1686      1687      1690      1689      1694      1693
      1690      1689      1694      1695      1690      1691      1692      1695
      1690      1691      1692      1869      1691      1688      1865      1866
      1691      1688      1865      1870      1691      1692      1695      1694
      1691      1692      1695      1696      1691      1692      1869      1870
      1691      1692      1869      1874      1692      1695      1696      1699
      1692      1695      1696      1873      1692      1869      1870      1865
      1692      1869      1870      1871      1692      1869      1874      1873
      1692      1869      1874      1875      1693      1516      1519      1518
      1693      1516      1519      1520      1693      1694      1695      1692
      1693      1694      1695      1696      1693      1698      1699      1696
      1693      1698      1699      1700      1694      1689      1690      1685
      1694      1689      1690      1691      1694      1693      1698      1697
      1694      1693      1698      1699      1694      1695      1696      1699
      1694      1695      1696      1873      1695      1692      1869      1870
      1695      1692      1869      1874      1695      1696      1699      1698
      1695      1696      1699      1700      1695      1696      1873      1874
      1695      1696      1873      1878      1696      1699      1700      1877
      1696      1699      1700      1703      1696      1873      1874      1869
      1696      1873      1874      1875      1696      1873      1878      1877
      1696      1873      1878      1879      1697      1520      1523      1522
      1697      1520      1523      1524      1697      1698      1699      1696
      1697      1698      1699      1700      1697      1702      1703      1700
      1697      1702      1703      1704      1698      1693      1694      1689
      1698      1693      1694      1695      1698      1697      1702      1701
      1698      1697      1702      1703      1698      1699      1700      1877
      1698      1699      1700      1703      1699      1696      1873      1874
      1699      1696      1873      1878      1699      1700      1877      1878
      1699      1700      1877      1882      1699      1700      1703      1702
      1699      1700      1703      1704      1700      1703      1704      1881
      1700      1703      1704      1707      1700      1877      1878      1873
      1700      1877      1878      1879      1700      1877      1882      1881
      1700      1877      1882      1883      1701      1524      1527      1526
      1701      1524      1527      1528      1701      1702      1703      1700
      1701      1702      1703      1704      1701      1706      1707      1704
      1701      1706      1707      1708      1702      1697      1698      1693
      1702      1697      1698      1699      1702      1701      1706      1705
      1702      1701      1706      1707      1702      1703      1704      1881
      1702      1703      1704      1707      1703      1700      1877      1878
      1703      1700      1877      1882      1703      1704      1881      1882
      1703      1704      1881      1886      1703      1704      1707      1706
      1703      1704      1707      1708      1704      1707      1708      1885
      1704      1707      1708      1711      1704      1881      1882      1877
      1704      1881      1882      1883      1704      1881      1886      1885
      1704      1881      1886      1887      1705      1528      1531      1530
      1705      1528      1531      1532      1705      1706      1707      1704
      1705      1706      1707      1708      1705      1710      1711      1708
      1705      1710      1711      1712      1706      1701      1702      1697
      1706      1701      1702      1703      1706      1705      1710      1709
      1706      1705      1710      1711      1706      1707      1708      1885
      1706      1707      1708      1711      1707      1704      1881      1882
      1707      1704      1881      1886      1707      1708      1885      1886
      1707      1708      1885      1890      1707      1708      1711      1710
      1707      1708      1711      1712      1708      1711      1712      1715
      1708      1711      1712      1889      1708      1885      1886      1881
      1708      1885      1886      1887      1708      1885      1890      1889
      1708      1885      1890      1891      1709      1532      1535      1534
      1709      1532      1535      1536      1709      1710      1711      1708
      1709      1710      1711      1712      1709      1714      1715      1712
      1709      1714      1715      1716      1710      1705      1706      1701
      1710      1705      1706      1707      1710      1709      1714      1713
      1710      1709      1714      1715      1710      1711      1712      1715
      1710      1711      1712      1889      1711      1708      1885      1886
      1711      1708      1885      1890      1711      1712      1715      1714
      1711      1712      1715      1716      1711      1712      1889      1894
      1711      1712      1889      1890      1712      1715      1716      1719
      1712      1715      1716      1893      1712      1889      1894      1893
      1712      1889      1894      1895      1712      1889      1890      1885
      1712      1889      1890      1891      1713      1536      1539      1538
      1713      1536      1539      1540      1713      1714      1715      1712
      1713      1714      1715      1716      1713      1718      1719      1716
      1713      1718      1719      1720      1714      1709      1710      1705
      1714      1709      1710      1711      1714      1713      1718      1717
      1714      1713      1718      1719      1714      1715      1716      1719
      1714      1715      1716      1893      1715      1712      1889      1894
      1715      1712      1889      1890      1715      1716      1719      1718
      1715      1716      1719      1720      1715      1716      1893      1898
      1715      1716      1893      1894      1716      1719      1720      1897
      1716      1719      1720      1723      1716      1893      1898      1897
      1716      1893      1898      1899      1716      1893      1894      1889
      1716      1893      1894      1895      1717      1540      1543      1542
      1717      1540      1543      1544      1717      1718      1719      1716
      1717      1718      1719      1720      1717      1722      1723      1720
      1717      1722      1723      1724      1718      1713      1714      1709
      1718      1713      1714      1715      1718      1717      1722      1721
      1718      1717      1722      1723      1718      1719      1720      1897
      1718      1719      1720      1723      1719      1716      1893      1898
      1719      1716      1893      1894      1719      1720      1897      1902
      1719      1720      1897      1898      1719      1720      1723      1722
      1719      1720      1723      1724      1720      1723      1724      1901
      1720      1723      1724      1727      1720      1897      1902      1901
      1720      1897      1902      1903      1720      1897      1898      1893
      1720      1897      1898      1899      1721      1544      1547      1546
      1721      1544      1547      1548      1721      1722      1723      1720
      1721      1722      1723      1724      1721      1726      1727      1724
      1721      1726      1727      1728      1722      1717      1718      1713
      1722      1717      1718      1719      1722      1721      1726      1725
      1722      1721      1726      1727      1722      1723      1724      1901
      1722      1723      1724      1727      1723      1720      1897      1902
      1723      1720      1897      1898      1723      1724      1901      1902
      1723      1724      1901      1906      1723      1724      1727      1726
      1723      1724      1727      1728      1724      1727      1728      1905
      1724      1727      1728      1731      1724      1901      1902      1897
      1724      1901      1902      1903      1724      1901      1906      1905
      1724      1901      1906      1907      1725      1548      1551      1550
      1725      1548      1551      1552      1725      1726      1727      1724
      1725      1726      1727      1728      1725      1730      1731      1728
      1725      1730      1731      1732      1726      1721      1722      1717
      1726      1721      1722      1723      1726      1725      1730      1729
      1726      1725      1730      1731      1726      1727      1728      1905
      1726      1727      1728      1731      1727      1724      1901      1902
      1727      1724      1901      1906      1727      1728      1905      1906
      1727      1728      1905      1910      1727      1728      1731      1730
      1727      1728      1731      1732      1728      1731      1732      1735
      1728      1731      1732      1909      1728      1905      1906      1901
      1728      1905      1906      1907      1728      1905      1910      1909
      1728      1905      1910      1911      1729      1552      1555      1554
      1729      1552      1555      1556      1729      1730      1731      1728
      1729      1730      1731      1732      1729      1734      1735      1732
      1729      1734      1735      1736      1730      1725      1726      1721
      1730      1725      1726      1727      1730      1729      1734      1733
      1730      1729      1734      1735      1730      1731      1732      1735
      1730      1731      1732      1909      1731      1728      1905      1906
      1731      1728      1905      1910      1731      1732      1735      1734
      1731      1732      1735      1736      1731      1732      1909      1914
      1731      1732      1909      1910      1732      1735      1736      1913
      1732      1735      1736      1739      1732      1909      1914      1913
      1732      1909      1914      1915      1732      1909      1910      1905
      1732      1909      1910      1911      1733      1556      1559      1558
      1733      1556      1559      1560      1733      1734      1735      1732
      1733      1734      1735      1736      1733      1738      1739      1736
      1733      1738      1739      1740      1734      1729      1730      1725
      1734      1729      1730      1731      1734      1733      1738      1737
      1734      1733      1738      1739      1734      1735      1736      1913
      1734      1735      1736      1739      1735      1732      1909      1914
      1735      1732      1909      1910      1735      1736      1913      1918
      1735      1736      1913      1914      1735      1736      1739      1738
      1735      1736      1739      1740      1736      1739      1740      1917
      1736      1739      1740      1743      1736      1913      1918      1917
      1736      1913      1918      1919      1736      1913      1914      1909
      1736      1913      1914      1915      1737      1560      1563      1562
      1737      1560      1563      1564      1737      1738      1739      1736
      1737      1738      1739      1740      1737      1742      1743      1740
      1737      1742      1743      1744      1738      1733      1734      1729
      1738      1733      1734      1735      1738      1737      1742      1741
      1738      1737      1742      1743      1738      1739      1740      1917
      1738      1739      1740      1743      1739      1736      1913      1918
      1739      1736      1913      1914      1739      1740      1917      1922
      1739      1740      1917      1918      1739      1740      1743      1742
      1739      1740      1743      1744      1740      1743      1744      1921
      1740      1743      1744      1747      1740      1917      1922      1921
      1740      1917      1922      1923      1740      1917      1918      1913
      1740      1917      1918      1919      1741      1564      1567      1566
      1741      1564      1567      1568      1741      1742      1743      1740
      1741      1742      1743      1744      1741      1746      1747      1744
      1741      1746      1747      1748      1742      1737      1738      1733
      1742      1737      1738      1739      1742      1741      1746      1745
      1742      1741      1746      1747      1742      1743      1744      1921
      1742      1743      1744      1747      1743      1740      1917      1922
      1743      1740      1917      1918      1743      1744      1921      1922
      1743      1744      1921      1926      1743      1744      1747      1746
      1743      1744      1747      1748      1744      1747      1748      1925
      1744      1747      1748      1751      1744      1921      1922      1917
      1744      1921      1922      1923      1744      1921      1926      1925
      1744      1921      1926      1927      1745      1568      1571      1570
      1745      1568      1571      1572      1745      1746      1747      1744
      1745      1746      1747      1748      1745      1750      1751      1748
      1745      1750      1751      1752      1746      1741      1742      1737
      1746      1741      1742      1743      1746      1745      1750      1749
      1746      1745      1750      1751      1746      1747      1748      1925
      1746      1747      1748      1751      1747      1744      1921      1922
      1747      1744      1921      1926      1747      1748      1925      1926
      1747      1748      1925      1930      1747      1748      1751      1750
      1747      1748      1751      1752      1748      1751      1752      1929
      1748      1751      1752      1755      1748      1925      1926      1921
      1748      1925      1926      1927      1748      1925      1930      1929
      1748      1925      1930      1931      1749      1572      1575      1574
      1749      1572      1575      1576      1749      1750      1751      1748
      1749      1750      1751      1752      1749      1754      1755      1752
      1749      1754      1755      1756      1750      1745      1746      1741
      1750      1745      1746      1747      1750      1749      1754      1753
      1750      1749      1754      1755      1750      1751      1752      1929
      1750      1751      1752      1755      1751      1748      1925      1926
      1751      1748      1925      1930      1751      1752      1929      1934
      1751      1752      1929      1930      1751      1752      1755      1754
      1751      1752      1755      1756      1752      1755      1756      1759
      1752      1755      1756      1933      1752      1929      1934      1933
      1752      1929      1934      1935      1752      1929      1930      1925
      1752      1929      1930      1931      1753      1576      1579      1578
      1753      1576      1579      1580      1753      1754      1755      1752
      1753      1754      1755      1756      1753      1758      1759      1756
      1753      1758      1759      1760      1754      1749      1750      1745
      1754      1749      1750      1751      1754      1753      1758      1757
      1754      1753      1758      1759      1754      1755      1756      1759
      1754      1755      1756      1933      1755      1752      1929      1934
      1755      1752      1929      1930      1755      1756      1759      1758
      1755      1756      1759      1760      1755      1756      1933      1934
      1755      1756      1933      1938      1756      1759      1760      1937
      1756      1759      1760      1763      1756      1933      1934      1929
      1756      1933      1934      1935      1756      1933      1938      1937
      1756      1933      1938      1939      1757      1580      1583      1582
      1757      1580      1583      1584      1757      1758      1759      1756
      1757      1758      1759      1760      1757      1762      1763      1760
      1757      1762      1763      1764      1758      1753      1754      1749
      1758      1753      1754      1755      1758      1757      1762      1761
      1758      1757      1762      1763      1758      1759      1760      1937
      1758      1759      1760      1763      1759      1756      1933      1934
      1759      1756      1933      1938      1759      1760      1937      1938
      1759      1760      1937      1942      1759      1760      1763      1762
      1759      1760      1763      1764      1760      1763      1764      1941
      1760      1763      1764      1767      1760      1937      1938      1933
      1760      1937      1938      1939      1760      1937      1942      1941
      1760      1937      1942      1943      1761      1584      1587      1586
      1761      1584      1587      1588      1761      1762      1763      1760
      1761      1762      1763      1764      1761      1766      1767      1764
      1761      1766      1767      1768      1762      1757      1758      1753
      1762      1757      1758      1759      1762      1761      1766      1765
      1762      1761      1766      1767      1762      1763      1764      1941
      1762      1763      1764      1767      1763      1760      1937      1938
      1763      1760      1937      1942      1763      1764      1941      1942
      1763      1764      1941      1946      1763      1764      1767      1766
      1763      1764      1767      1768      1764      1767      1768      1945
      1764      1767      1768      1771      1764      1941      1942      1937
      1764      1941      1942      1943      1764      1941      1946      1945
      1764      1941      1946      1947      1765      1588      1591      1590
      1765      1588      1591      1592      1765      1766      1767      1764
      1765      1766      1767      1768      1765      1770      1771      1768
      1765      1770      1771      1772      1766      1761      1762      1757
      1766      1761      1762      1763      1766      1765      1770      1769
      1766      1765      1770      1771      1766      1767      1768      1945
      1766      1767      1768      1771      1767      1764      1941      1942
      1767      1764      1941      1946      1767      1768      1945      1946
      1767      1768      1945      1950      1767      1768      1771      1770
      1767      1768      1771      1772      1768      1771      1772      1775
      1768      1771      1772      1949      1768      1945      1946      1941
      1768      1945      1946      1947      1768      1945      1950      1949
      1768      1945      1950      1951      1769      1592      1595      1594
      1769      1592      1595      1596      1769      1770      1771      1768
      1769      1770      1771      1772      1769      1774      1775      1772
      1769      1774      1775      1776      1770      1765      1766      1761
      1770      1765      1766      1767      1770      1769      1774      1773
      1770      1769      1774      1775      1770      1771      1772      1775
      1770      1771      1772      1949      1771      1768      1945      1946
      1771      1768      1945      1950      1771      1772      1775      1774
      1771      1772      1775      1776      1771      1772      1949      1950
      1771      1772      1949      1954      1772      1775      1776      1779
      1772      1775      1776      1953      1772      1949      1950      1945
      1772      1949      1950      1951      1772      1949      1954      1953
      1772      1949      1954      1955      1773      1596      1599      1598
      1773      1596      1599      1600      1773      1774      1775      1772
      1773      1774      1775      1776      1773      1778      1779      1776
      1773      1778      1779      1780      1774      1769      1770      1765
      1774      1769      1770      1771      1774      1773      1778      1777
      1774      1773      1778      1779      1774      1775      1776      1779
      1774      1775      1776      1953      1775      1772      1949      1950
      1775      1772      1949      1954      1775      1776      1779      1778
      1775      1776      1779      1780      1775      1776      1953      1954
      1775      1776      1953      1958      1776      1779      1780      1957
      1776      1779      1780      1783      1776      1953      1954      1949
      1776      1953      1954      1955      1776      1953      1958      1957
      1776      1953      1958      1959      1777      1600      1603      1602
      1777      1600      1603      1604      1777      1778      1779      1776
      1777      1778      1779      1780      1777      1782      1783      1780
      1777      1782      1783      1784      1778      1773      1774      1769
      1778      1773      1774      1775      1778      1777      1782      1781
      1778      1777      1782      1783      1778      1779      1780      1957
      1778      1779      1780      1783      1779      1776      1953      1954
      1779      1776      1953      1958      1779      1780      1957      1962
      1779      1780      1957      1958      1779      1780      1783      1782
      1779      1780      1783      1784      1780      1783      1784      1961
      1780      1783      1784      1787      1780      1957      1962      1961
      1780      1957      1962      1963      1780      1957      1958      1953
      1780      1957      1958      1959      1781      1604      1607      1606
      1781      1604      1607      1608      1781      1782      1783      1780
      1781      1782      1783      1784      1781      1786      1787      1784
      1781      1786      1787      1788      1782      1777      1778      1773
      1782      1777      1778      1779      1782      1781      1786      1785
      1782      1781      1786      1787      1782      1783      1784      1961
      1782      1783      1784      1787      1783      1780      1957      1962
      1783      1780      1957      1958      1783      1784      1961      1962
      1783      1784      1961      1966      1783      1784      1787      1786
      1783      1784      1787      1788      1784      1787      1788      1965
      1784      1787      1788      1791      1784      1961      1962      1957
      1784      1961      1962      1963      1784      1961      1966      1965
      1784      1961      1966      1967      1785      1608      1611      1610
      1785      1608      1611      1612      1785      1786      1787      1784
      1785      1786      1787      1788      1785      1790      1791      1788
      1785      1790      1791      1792      1786      1781      1782      1777
      1786      1781      1782      1783      1786      1785      1790      1789
      1786      1785      1790      1791      1786      1787      1788      1965
      1786      1787      1788      1791      1787      1784      1961      1962
      1787      1784      1961      1966      1787      1788      1965      1966
      1787      1788      1965      1970      1787      1788      1791      1790
      1787      1788      1791      1792      1788      1791      1792      1795
      1788      1791      1792      1969      1788      1965      1966      1961
      1788      1965      1966      1967      1788      1965      1970      1969
      1788      1965      1970      1971      1789      1612      1615      1614
      1789      1612      1615      1616      1789      1790      1791      1788
      1789      1790      1791      1792      1789      1794      1795      1792
      1789      1794      1795      1796      1790      1785      1786      1781
      1790      1785      1786      1787      1790      1789      1794      1793
      1790      1789      1794      1795      1790      1791      1792      1795
      1790      1791      1792      1969      1791      1788      1965      1966
      1791      1788      1965      1970      1791      1792      1795      1794
      1791      1792      1795      1796      1791      1792      1969      1974
      1791      1792      1969      1970      1792      1795      1796      1799
      1792      1795      1796      1973      1792      1969      1974      1973
      1792      1969      1974      1975      1792      1969      1970      1965
      1792      1969      1970      1971      1793      1616      1619      1618
      1793      1616      1619      1620      1793      1794      1795      1792
      1793      1794      1795      1796      1793      1798      1799      1796
      1793      1798      1799      1800      1794      1789      1790      1785
      1794      1789      1790      1791      1794      1793      1798      1797
      1794      1793      1798      1799      1794      1795      1796      1799
      1794      1795      1796      1973      1795      1792      1969      1974
      1795      1792      1969      1970      1795      1796      1799      1798
      1795      1796      1799      1800      1795      1796      1973      1978
      1795      1796      1973      1974      1796      1799      1800      1977
      1796      1973      1978      1977      1796      1973      1978      1979
      1796      1973      1974      1969      1796      1973      1974      1975
      1797      1798      1799      1796      1797      1798      1799      1800
      1798      1793      1794      1789      1798      1793      1794      1795
      1798      1799      1800      1977      1799      1796      1973      1978
      1799      1796      1973      1974      1799      1800      1977      1978
      1800      1977      1978      1973      1800      1977      1978      1979
      1801      1624      1627      1626      1801      1624      1627      1628
      1801      1802      1803      1804      1801      1806      1807      1804
      1801      1806      1807      1808      1802      1801      1806      1805
      1802      1801      1806      1807      1802      1803      1804      1981
      1802      1803      1804      1807      1803      1804      1981      1982
      1803      1804      1981      1986      1803      1804      1807      1806
      1803      1804      1807      1808      1804      1807      1808      1985
      1804      1807      1808      1811      1804      1981      1982      1983
      1804      1981      1986      1985      1804      1981      1986      1987
      1805      1628      1631      1630      1805      1628      1631      1632
      1805      1806      1807      1804      1805      1806      1807      1808
      1805      1810      1811      1808      1805      1810      1811      1812
      1806      1801      1802      1803      1806      1805      1810      1809
      1806      1805      1810      1811      1806      1807      1808      1985
      1806      1807      1808      1811      1807      1804      1981      1982
      1807      1804      1981      1986      1807      1808      1985      1986
      1807      1808      1985      1990      1807      1808      1811      1810
      1807      1808      1811      1812      1808      1811      1812      1815
      1808      1811      1812      1989      1808      1985      1986      1981
      1808      1985      1986      1987      1808      1985      1990      1989
      1808      1985      1990      1991      1809      1632      1635      1634
      1809      1632      1635      1636      1809      1810      1811      1808
      1809      1810      1811      1812      1809      1814      1815      1812
      1809      1814      1815      1816      1810      1805      1806      1801
      1810      1805      1806      1807      1810      1809      1814      1813
      1810      1809      1814      1815      1810      1811      1812      1815
      1810      1811      1812      1989      1811      1808      1985      1986
      1811      1808      1985      1990      1811      1812      1815      1814
      1811      1812      1815      1816      1811      1812      1989      1994
      1811      1812      1989      1990      1812      1815      1816      1819
      1812      1815      1816      1993      1812      1989      1994      1993
      1812      1989      1994      1995      1812      1989      1990      1985
      1812      1989      1990      1991      1813      1636      1639      1638
      1813      1636      1639      1640      1813      1814      1815      1812
      1813      1814      1815      1816      1813      1818      1819      1816
      1813      1818      1819      1820      1814      1809      1810      1805
      1814      1809      1810      1811      1814      1813      1818      1817
      1814      1813      1818      1819      1814      1815      1816      1819
      1814      1815      1816      1993      1815      1812      1989      1994
      1815      1812      1989      1990      1815      1816      1819      1818
      1815      1816      1819      1820      1815      1816      1993      1998
      1815      1816      1993      1994      1816      1819      1820      1997
      1816      1819      1820      1823      1816      1993      1998      1997
      1816      1993      1998      1999      1816      1993      1994      1989
      1816      1993      1994      1995      1817      1640      1643      1642
      1817      1640      1643      1644      1817      1818      1819      1816
      1817      1818      1819      1820      1817      1822      1823      1820
      1817      1822      1823      1824      1818      1813      1814      1809
      1818      1813      1814      1815      1818      1817      1822      1821
      1818      1817      1822      1823      1818      1819      1820      1997
      1818      1819      1820      1823      1819      1816      1993      1998
      1819      1816      1993      1994      1819      1820      1997      2002
      1819      1820      1997      1998      1819      1820      1823      1822
      1819      1820      1823      1824      1820      1823      1824      2001
      1820      1823      1824      1827      1820      1997      2002      2001
      1820      1997      2002      2003      1820      1997      1998      1993
      1820      1997      1998      1999      1821      1644      1647      1646
      1821      1644      1647      1648      1821      1822      1823      1820
      1821      1822      1823      1824      1821      1826      1827      1824
      1821      1826      1827      1828      1822      1817      1818      1813
      1822      1817      1818      1819      1822      1821      1826      1825
      1822      1821      1826      1827      1822      1823      1824      2001
      1822      1823      1824      1827      1823      1820      1997      2002
      1823      1820      1997      1998      1823      1824      2001      2002
      1823      1824      2001      2006      1823      1824      1827      1826
      1823      1824      1827      1828      1824      1827      1828      2005
      1824      1827      1828      1831      1824      2001      2002      1997
      1824      2001      2002      2003      1824      2001      2006      2005
      1824      2001      2006      2007      1825      1648      1651      1650
      1825      1648      1651      1652      1825      1826      1827      1824
      1825      1826      1827      1828      1825      1830      1831      1828
      1825      1830      1831      1832      1826      1821      1822      1817
      1826      1821      1822      1823      1826      1825      1830      1829
      1826      1825      1830      1831      1826      1827      1828      2005
      1826      1827      1828      1831      1827      1824      2001      2002
      1827      1824      2001      2006      1827      1828      2005      2006
      1827      1828      2005      2010      1827      1828      1831      1830
      1827      1828      1831      1832      1828      1831      1832      2009
      1828      1831      1832      1835      1828      2005      2006      2001
      1828      2005      2006      2007      1828      2005      2010      2009
      1828      2005      2010      2011      1829      1652      1655      1654
      1829      1652      1655      1656      1829      1830      1831      1828
      1829      1830      1831      1832      1829      1834      1835      1832
      1829      1834      1835      1836      1830      1825      1826      1821
      1830      1825      1826      1827      1830      1829      1834      1833
      1830      1829      1834      1835      1830      1831      1832      2009
      1830      1831      1832      1835      1831      1828      2005      2006
      1831      1828      2005      2010      1831      1832      2009      2014
      1831      1832      2009      2010      1831      1832      1835      1834
      1831      1832      1835      1836      1832      1835      1836      2013
      1832      1835      1836      1839      1832      2009      2014      2013
      1832      2009      2014      2015      1832      2009      2010      2005
      1832      2009      2010      2011      1833      1656      1659      1658
      1833      1656      1659      1660      1833      1834      1835      1832
      1833      1834      1835      1836      1833      1838      1839      1836
      1833      1838      1839      1840      1834      1829      1830      1825
      1834      1829      1830      1831      1834      1833      1838      1837
      1834      1833      1838      1839      1834      1835      1836      2013
      1834      1835      1836      1839      1835      1832      2009      2014
      1835      1832      2009      2010      1835      1836      2013      2018
      1835      1836      2013      2014      1835      1836      1839      1838
      1835      1836      1839      1840      1836      1839      1840      2017
      1836      1839      1840      1843      1836      2013      2018      2017
      1836      2013      2018      2019      1836      2013      2014      2009
      1836      2013      2014      2015      1837      1660      1663      1662
      1837      1660      1663      1664      1837      1838      1839      1836
      1837      1838      1839      1840      1837      1842      1843      1840
      1837      1842      1843      1844      1838      1833      1834      1829
      1838      1833      1834      1835      1838      1837      1842      1841
      1838      1837      1842      1843      1838      1839      1840      2017
      1838      1839      1840      1843      1839      1836      2013      2018
      1839      1836      2013      2014      1839      1840      2017      2022
      1839      1840      2017      2018      1839      1840      1843      1842
      1839      1840      1843      1844      1840      1843      1844      2021
      1840      1843      1844      1847      1840      2017      2022      2021
      1840      2017      2022      2023      1840      2017      2018      2013
      1840      2017      2018      2019      1841      1664      1667      1666
      1841      1664      1667      1668      1841      1842      1843      1840
      1841      1842      1843      1844      1841      1846      1847      1844
      1841      1846      1847      1848      1842      1837      1838      1833
      1842      1837      1838      1839      1842      1841      1846      1845
      1842      1841      1846      1847      1842      1843      1844      2021
      1842      1843      1844      1847      1843      1840      2017      2022
      1843      1840      2017      2018      1843      1844      2021      2022
      1843      1844      2021      2026      1843      1844      1847      1846
      1843      1844      1847      1848      1844      1847      1848      2025
      1844      1847      1848      1851      1844      2021      2022      2017
      1844      2021      2022      2023      1844      2021      2026      2025
      1844      2021      2026      2027      1845      1668      1671      1670
      1845      1668      1671      1672      1845      1846      1847      1844
      1845      1846      1847      1848      1845      1850      1851      1848
      1845      1850      1851      1852      1846      1841      1842      1837
      1846      1841      1842      1843      1846      1845      1850      1849
      1846      1845      1850      1851      1846      1847      1848      2025
      1846      1847      1848      1851      1847      1844      2021      2022
      1847      1844      2021      2026      1847      1848      2025      2026
      1847      1848      2025      2030      1847      1848      1851      1850
      1847      1848      1851      1852      1848      1851      1852      1855
      1848      1851      1852      2029      1848      2025      2026      2021
      1848      2025      2026      2027      1848      2025      2030      2029
      1848      2025      2030      2031      1849      1672      1675      1674
      1849      1672      1675      1676      1849      1850      1851      1848
      1849      1850      1851      1852      1849      1854      1855      1852
      1849      1854      1855      1856      1850      1845      1846      1841
      1850      1845      1846      1847      1850      1849      1854      1853
      1850      1849      1854      1855      1850      1851      1852      1855
      1850      1851      1852      2029      1851      1848      2025      2026
      1851      1848      2025      2030      1851      1852      1855      1854
      1851      1852      1855      1856      1851      1852      2029      2030
      1851      1852      2029      2034      1852      1855      1856      1859
      1852      1855      1856      2033      1852      2029      2030      2025
      1852      2029      2030      2031      1852      2029      2034      2033
      1852      2029      2034      2035      1853      1676      1679      1678
      1853      1676      1679      1680      1853      1854      1855      1852
      1853      1854      1855      1856      1853      1858      1859      1856
      1853      1858      1859      1860      1854      1849      1850      1845
      1854      1849      1850      1851      1854      1853      1858      1857
      1854      1853      1858      1859      1854      1855      1856      1859
      1854      1855      1856      2033      1855      1852      2029      2030
      1855      1852      2029      2034      1855      1856      1859      1858
      1855      1856      1859      1860      1855      1856      2033      2034
      1855      1856      2033      2038      1856      1859      1860      2037
      1856      1859      1860      1863      1856      2033      2034      2029
      1856      2033      2034      2035      1856      2033      2038      2037
      1856      2033      2038      2039      1857      1680      1683      1682
      1857      1680      1683      1684      1857      1858      1859      1856
      1857      1858      1859      1860      1857      1862      1863      1860
      1857      1862      1863      1864      1858      1853      1854      1849
      1858      1853      1854      1855      1858      1857      1862      1861
      1858      1857      1862      1863      1858      1859      1860      2037
      1858      1859      1860      1863      1859      1856      2033      2034
      1859      1856      2033      2038      1859      1860      2037      2038
      1859      1860      2037      2042      1859      1860      1863      1862
      1859      1860      1863      1864      1860      1863      1864      2041
      1860      1863      1864      1867      1860      2037      2038      2033
      1860      2037      2038      2039      1860      2037      2042      2041
      1860      2037      2042      2043      1861      1684      1687      1686
      1861      1684      1687      1688      1861      1862      1863      1860
      1861      1862      1863      1864      1861      1866      1867      1864
      1861      1866      1867      1868      1862      1857      1858      1853
      1862      1857      1858      1859      1862      1861      1866      1865
      1862      1861      1866      1867      1862      1863      1864      2041
      1862      1863      1864      1867      1863      1860      2037      2038
      1863      1860      2037      2042      1863      1864      2041      2042
      1863      1864      2041      2046      1863      1864      1867      1866
      1863      1864      1867      1868      1864      1867      1868      2045
      1864      1867      1868      1871      1864      2041      2042      2037
      1864      2041      2042      2043      1864      2041      2046      2045
      1864      2041      2046      2047      1865      1688      1691      1690
      1865      1688      1691      1692      1865      1866      1867      1864
      1865      1866      1867      1868      1865      1870      1871      1868
      1865      1870      1871      1872      1866      1861      1862      1857
      1866      1861      1862      1863      1866      1865      1870      1869
      1866      1865      1870      1871      1866      1867      1868      2045
      1866      1867      1868      1871      1867      1864      2041      2042
      1867      1864      2041      2046      1867      1868      2045      2046
      1867      1868      2045      2050      1867      1868      1871      1870
      1867      1868      1871      1872      1868      1871      1872      1875
      1868      1871      1872      2049      1868      2045      2046      2041
      1868      2045      2046      2047      1868      2045      2050      2049
      1868      2045      2050      2051      1869      1692      1695      1694
      1869      1692      1695      1696      1869      1870      1871      1868
      1869      1870      1871      1872      1869      1874      1875      1872
      1869      1874      1875      1876      1870      1865      1866      1861
      1870      1865      1866      1867      1870      1869      1874      1873
      1870      1869      1874      1875      1870      1871      1872      1875
      1870      1871      1872      2049      1871      1868      2045      2046
      1871      1868      2045      2050      1871      1872      1875      1874
      1871      1872      1875      1876      1871      1872      2049      2054
      1871      1872      2049      2050      1872      1875      1876      1879
      1872      1875      1876      2053      1872      2049      2054      2053
      1872      2049      2054      2055      1872      2049      2050      2045
      1872      2049      2050      2051      1873      1696      1699      1698
      1873      1696      1699      1700      1873      1874      1875      1872
      1873      1874      1875      1876      1873      1878      1879      1876
      1873      1878      1879      1880      1874      1869      1870      1865
      1874      1869      1870      1871      1874      1873      1878      1877
      1874      1873      1878      1879      1874      1875      1876      1879
      1874      1875      1876      2053      1875      1872      2049      2054
      1875      1872      2049      2050      1875      1876      1879      1878
      1875      1876      1879      1880      1875      1876      2053      2058
      1875      1876      2053      2054      1876      1879      1880      2057
      1876      1879      1880      1883      1876      2053      2058      2057
      1876      2053      2058      2059      1876      2053      2054      2049
      1876      2053      2054      2055      1877      1700      1703      1702
      1877      1700      1703      1704      1877      1878      1879      1876
      1877      1878      1879      1880      1877      1882      1883      1880
      1877      1882      1883      1884      1878      1873      1874      1869
      1878      1873      1874      1875      1878      1877      1882      1881
      1878      1877      1882      1883      1878      1879      1880      2057
      1878      1879      1880      1883      1879      1876      2053      2058
      1879      1876      2053      2054      1879      1880      2057      2062
      1879      1880      2057      2058      1879      1880      1883      1882
      1879      1880      1883      1884      1880      1883      1884      2061
      1880      1883      1884      1887      1880      2057      2062      2061
      1880      2057      2062      2063      1880      2057      2058      2053
      1880      2057      2058      2059      1881      1704      1707      1706
      1881      1704      1707      1708      1881      1882      1883      1880
      1881      1882      1883      1884      1881      1886      1887      1884
      1881      1886      1887      1888      1882      1877      1878      1873
      1882      1877      1878      1879      1882      1881      1886      1885
      1882      1881      1886      1887      1882      1883      1884      2061
      1882      1883      1884      1887      1883      1880      2057      2062
      1883      1880      2057      2058      1883      1884      2061      2062
      1883      1884      2061      2066      1883      1884      1887      1886
      1883      1884      1887      1888      1884      1887      1888      2065
      1884      1887      1888      1891      1884      2061      2062      2057
      1884      2061      2062      2063      1884      2061      2066      2065
      1884      2061      2066      2067      1885      1708      1711      1710
      1885      1708      1711      1712      1885      1886      1887      1884
      1885      1886      1887      1888      1885      1890      1891      1888
      1885      1890      1891      1892      1886      1881      1882      1877
      1886      1881      1882      1883      1886      1885      1890      1889
      1886      1885      1890      1891      1886      1887      1888      2065
      1886      1887      1888      1891      1887      1884      2061      2062
      1887      1884      2061      2066      1887      1888      2065      2066
      1887      1888      2065      2070      1887      1888      1891      1890
      1887      1888      1891      1892      1888      1891      1892      2069
      1888      1891      1892      1895      1888      2065      2066      2061
      1888      2065      2066      2067      1888      2065      2070      2069
      1888      2065      2070      2071      1889      1712      1715      1714
      1889      1712      1715      1716      1889      1890      1891      1888
      1889      1890      1891      1892      1889      1894      1895      1892
      1889      1894      1895      1896      1890      1885      1886      1881
      1890      1885      1886      1887      1890      1889      1894      1893
      1890      1889      1894      1895      1890      1891      1892      2069
      1890      1891      1892      1895      1891      1888      2065      2066
      1891      1888      2065      2070      1891      1892      2069      2074
      1891      1892      2069      2070      1891      1892      1895      1894
      1891      1892      1895      1896      1892      1895      1896      2073
      1892      1895      1896      1899      1892      2069      2074      2073
      1892      2069      2074      2075      1892      2069      2070      2065
      1892      2069      2070      2071      1893      1716      1719      1718
      1893      1716      1719      1720      1893      1894      1895      1892
      1893      1894      1895      1896      1893      1898      1899      1896
      1893      1898      1899      1900      1894      1889      1890      1885
      1894      1889      1890      1891      1894      1893      1898      1897
      1894      1893      1898      1899      1894      1895      1896      2073
      1894      1895      1896      1899      1895      1892      2069      2074
      1895      1892      2069      2070      1895      1896      2073      2078
      1895      1896      2073      2074      1895      1896      1899      1898
      1895      1896      1899      1900      1896      1899      1900      2077
      1896      1899      1900      1903      1896      2073      2078      2077
      1896      2073      2078      2079      1896      2073      2074      2069
      1896      2073      2074      2075      1897      1720      1723      1722
      1897      1720      1723      1724      1897      1898      1899      1896
      1897      1898      1899      1900      1897      1902      1903      1900
      1897      1902      1903      1904      1898      1893      1894      1889
      1898      1893      1894      1895      1898      1897      1902      1901
      1898      1897      1902      1903      1898      1899      1900      2077
      1898      1899      1900      1903      1899      1896      2073      2078
      1899      1896      2073      2074      1899      1900      2077      2082
      1899      1900      2077      2078      1899      1900      1903      1902
      1899      1900      1903      1904      1900      1903      1904      2081
      1900      1903      1904      1907      1900      2077      2082      2081
      1900      2077      2082      2083      1900      2077      2078      2073
      1900      2077      2078      2079      1901      1724      1727      1726
      1901      1724      1727      1728      1901      1902      1903      1900
      1901      1902      1903      1904      1901      1906      1907      1904
      1901      1906      1907      1908      1902      1897      1898      1893
      1902      1897      1898      1899      1902      1901      1906      1905
      1902      1901      1906      1907      1902      1903      1904      2081
      1902      1903      1904      1907      1903      1900      2077      2082
      1903      1900      2077      2078      1903      1904      2081      2082
      1903      1904      2081      2086      1903      1904      1907      1906
      1903      1904      1907      1908      1904      1907      1908      2085
      1904      1907      1908      1911      1904      2081      2082      2077
      1904      2081      2082      2083      1904      2081      2086      2085
      1904      2081      2086      2087      1905      1728      1731      1730
      1905      1728      1731      1732      1905      1906      1907      1904
      1905      1906      1907      1908      1905      1910      1911      1908
      1905      1910      1911      1912      1906      1901      1902      1897
      1906      1901      1902      1903      1906      1905      1910      1909
      1906      1905      1910      1911      1906      1907      1908      2085
      1906      1907      1908      1911      1907      1904      2081      2082
      1907      1904      2081      2086      1907      1908      2085      2086
      1907      1908      2085      2090      1907      1908      1911      1910
      1907      1908      1911      1912      1908      1911      1912      1915
      1908      1911      1912      2089      1908      2085      2086      2081
      1908      2085      2086      2087      1908      2085      2090      2089
      1908      2085      2090      2091      1909      1732      1735      1734
      1909      1732      1735      1736      1909      1910      1911      1908
      1909      1910      1911      1912      1909      1914      1915      1912
      1909      1914      1915      1916      1910      1905      1906      1901
      1910      1905      1906      1907      1910      1909      1914      1913
      1910      1909      1914      1915      1910      1911      1912      1915
      1910      1911      1912      2089      1911      1908      2085      2086
      1911      1908      2085      2090      1911      1912      1915      1914
      1911      1912      1915      1916      1911      1912      2089      2090
      1911      1912      2089      2094      1912      1915      1916      1919
      1912      1915      1916      2093      1912      2089      2090      2085
      1912      2089      2090      2091      1912      2089      2094      2093
      1912      2089      2094      2095      1913      1736      1739      1738
      1913      1736      1739      1740      1913      1914      1915      1912
      1913      1914      1915      1916      1913      1918      1919      1916
      1913      1918      1919      1920      1914      1909      1910      1905
      1914      1909      1910      1911      1914      1913      1918      1917
      1914      1913      1918      1919      1914      1915      1916      1919
      1914      1915      1916      2093      1915      1912      2089      2090
      1915      1912      2089      2094      1915      1916      1919      1918
      1915      1916      1919      1920      1915      1916      2093      2094
      1915      1916      2093      2098      1916      1919      1920      2097
      1916      1919      1920      1923      1916      2093      2094      2089
      1916      2093      2094      2095      1916      2093      2098      2097
      1916      2093      2098      2099      1917      1740      1743      1742
      1917      1740      1743      1744      1917      1918      1919      1916
      1917      1918      1919      1920      1917      1922      1923      1920
      1917      1922      1923      1924      1918      1913      1914      1909
      1918      1913      1914      1915      1918      1917      1922      1921
      1918      1917      1922      1923      1918      1919      1920      2097
      1918      1919      1920      1923      1919      1916      2093      2094
      1919      1916      2093      2098      1919      1920      2097      2098
      1919      1920      2097      2102      1919      1920      1923      1922
      1919      1920      1923      1924      1920      1923      1924      2101
      1920      1923      1924      1927      1920      2097      2098      2093
      1920      2097      2098      2099      1920      2097      2102      2101
      1920      2097      2102      2103      1921      1744      1747      1746
      1921      1744      1747      1748      1921      1922      1923      1920
      1921      1922      1923      1924      1921      1926      1927      1924
      1921      1926      1927      1928      1922      1917      1918      1913
      1922      1917      1918      1919      1922      1921      1926      1925
      1922      1921      1926      1927      1922      1923      1924      2101
      1922      1923      1924      1927      1923      1920      2097      2098
      1923      1920      2097      2102      1923      1924      2101      2102
      1923      1924      2101      2106      1923      1924      1927      1926
      1923      1924      1927      1928      1924      1927      1928      2105
      1924      1927      1928      1931      1924      2101      2102      2097
      1924      2101      2102      2103      1924      2101      2106      2105
      1924      2101      2106      2107      1925      1748      1751      1750
      1925      1748      1751      1752      1925      1926      1927      1924
      1925      1926      1927      1928      1925      1930      1931      1928
      1925      1930      1931      1932      1926      1921      1922      1917
      1926      1921      1922      1923      1926      1925      1930      1929
      1926      1925      1930      1931      1926      1927      1928      2105
      1926      1927      1928      1931      1927      1924      2101      2102
      1927      1924      2101      2106      1927      1928      2105      2106
      1927      1928      2105      2110      1927      1928      1931      1930
      1927      1928      1931      1932      1928      1931      1932      1935
      1928      1931      1932      2109      1928      2105      2106      2101
      1928      2105      2106      2107      1928      2105      2110      2109
      1928      2105      2110      2111      1929      1752      1755      1754
      1929      1752      1755      1756      1929      1930      1931      1928
      1929      1930      1931      1932      1929      1934      1935      1932
      1929      1934      1935      1936      1930      1925      1926      1921
      1930      1925      1926      1927      1930      1929      1934      1933
      1930      1929      1934      1935      1930      1931      1932      1935
      1930      1931      1932      2109      1931      1928      2105      2106
      1931      1928      2105      2110      1931      1932      1935      1934
      1931      1932      1935      1936      1931      1932      2109      2114
      1931      1932      2109      2110      1932      1935      1936      1939
      1932      1935      1936      2113      1932      2109      2114      2113
      1932      2109      2114      2115      1932      2109      2110      2105
      1932      2109      2110      2111      1933      1756      1759      1758
      1933      1756      1759      1760      1933      1934      1935      1932
      1933      1934      1935      1936      1933      1938      1939      1936
      1933      1938      1939      1940      1934      1929      1930      1925
      1934      1929      1930      1931      1934      1933      1938      1937
      1934      1933      1938      1939      1934      1935      1936      1939
      1934      1935      1936      2113      1935      1932      2109      2114
      1935      1932      2109      2110      1935      1936      1939      1938
      1935      1936      1939      1940      1935      1936      2113      2118
      1935      1936      2113      2114      1936      1939      1940      2117
      1936      1939      1940      1943      1936      2113      2118      2117
      1936      2113      2118      2119      1936      2113      2114      2109
      1936      2113      2114      2115      1937      1760      1763      1762
      1937      1760      1763      1764      1937      1938      1939      1936
      1937      1938      1939      1940      1937      1942      1943      1940
      1937      1942      1943      1944      1938      1933      1934      1929
      1938      1933      1934      1935      1938      1937      1942      1941
      1938      1937      1942      1943      1938      1939      1940      2117
      1938      1939      1940      1943      1939      1936      2113      2118
      1939      1936      2113      2114      1939      1940      2117      2122
      1939      1940      2117      2118      1939      1940      1943      1942
      1939      1940      1943      1944      1940      1943      1944      2121
      1940      1943      1944      1947      1940      2117      2122      2121
      1940      2117      2122      2123      1940      2117      2118      2113
      1940      2117      2118      2119      1941      1764      1767      1766
      1941      1764      1767      1768      1941      1942      1943      1940
      1941      1942      1943      1944      1941      1946      1947      1944
      1941      1946      1947      1948      1942      1937      1938      1933
      1942      1937      1938      1939      1942      1941      1946      1945
      1942      1941      1946      1947      1942      1943      1944      2121
      1942      1943      1944      1947      1943      1940      2117      2122
      1943      1940      2117      2118      1943      1944      2121      2122
      1943      1944      2121      2126      1943      1944      1947      1946
      1943      1944      1947      1948      1944      1947      1948      2125
      1944      1947      1948      1951      1944      2121      2122      2117
      1944      2121      2122      2123      1944      2121      2126      2125
      1944      2121      2126      2127      1945      1768      1771      1770
      1945      1768      1771      1772      1945      1946      1947      1944
      1945      1946      1947      1948      1945      1950      1951      1948
      1945      1950      1951      1952      1946      1941      1942      1937
      1946      1941      1942      1943      1946      1945      1950      1949
      1946      1945      1950      1951      1946      1947      1948      2125
      1946      1947      1948      1951      1947      1944      2121      2122
      1947      1944      2121      2126      1947      1948      2125      2126
      1947      1948      2125      2130      1947      1948      1951      1950
      1947      1948      1951      1952      1948      1951      1952      1955
      1948      1951      1952      2129      1948      2125      2126      2121
      1948      2125      2126      2127      1948      2125      2130      2129
      1948      2125      2130      2131      1949      1772      1775      1774
      1949      1772      1775      1776      1949      1950      1951      1948
      1949      1950      1951      1952      1949      1954      1955      1952
      1949      1954      1955      1956      1950      1945      1946      1941
      1950      1945      1946      1947      1950      1949      1954      1953
      1950      1949      1954      1955      1950      1951      1952      1955
      1950      1951      1952      2129      1951      1948      2125      2126
      1951      1948      2125      2130      1951      1952      1955      1954
      1951      1952      1955      1956      1951      1952      2129      2134
      1951      1952      2129      2130      1952      1955      1956      2133
      1952      1955      1956      1959      1952      2129      2134      2133
      1952      2129      2134      2135      1952      2129      2130      2125
      1952      2129      2130      2131      1953      1776      1779      1778
      1953      1776      1779      1780      1953      1954      1955      1952
      1953      1954      1955      1956      1953      1958      1959      1956
      1953      1958      1959      1960      1954      1949      1950      1945
      1954      1949      1950      1951      1954      1953      1958      1957
      1954      1953      1958      1959      1954      1955      1956      2133
      1954      1955      1956      1959      1955      1952      2129      2134
      1955      1952      2129      2130      1955      1956      2133      2138
      1955      1956      2133      2134      1955      1956      1959      1958
      1955      1956      1959      1960      1956      1959      1960      2137
      1956      1959      1960      1963      1956      2133      2138      2137
      1956      2133      2138      2139      1956      2133      2134      2129
      1956      2133      2134      2135      1957      1780      1783      1782
      1957      1780      1783      1784      1957      1958      1959      1956
      1957      1958      1959      1960      1957      1962      1963      1960
      1957      1962      1963      1964      1958      1953      1954      1949
      1958      1953      1954      1955      1958      1957      1962      1961
      1958      1957      1962      1963      1958      1959      1960      2137
      1958      1959      1960      1963      1959      1956      2133      2138
      1959      1956      2133      2134      1959      1960      2137      2142
      1959      1960      2137      2138      1959      1960      1963      1962
      1959      1960      1963      1964      1960      1963      1964      2141
      1960      1963      1964      1967      1960      2137      2142      2141
      1960      2137      2142      2143      1960      2137      2138      2133
      1960      2137      2138      2139      1961      1784      1787      1786
      1961      1784      1787      1788      1961      1962      1963      1960
      1961      1962      1963      1964      1961      1966      1967      1964
      1961      1966      1967      1968      1962      1957      1958      1953
      1962      1957      1958      1959      1962      1961      1966      1965
      1962      1961      1966      1967      1962      1963      1964      2141
      1962      1963      1964      1967      1963      1960      2137      2142
      1963      1960      2137      2138      1963      1964      2141      2142
      1963      1964      2141      2146      1963      1964      1967      1966
      1963      1964      1967      1968      1964      1967      1968      2145
      1964      1967      1968      1971      1964      2141      2142      2137
      1964      2141      2142      2143      1964      2141      2146      2145
      1964      2141      2146      2147      1965      1788      1791      1790
      1965      1788      1791      1792      1965      1966      1967      1964
      1965      1966      1967      1968      1965      1970      1971      1968
      1965      1970      1971      1972      1966      1961      1962      1957
      1966      1961      1962      1963      1966      1965      1970      1969
      1966      1965      1970      1971      1966      1967      1968      2145
      1966      1967      1968      1971      1967      1964      2141      2142
      1967      1964      2141      2146      1967      1968      2145      2146
      1967      1968      2145      2150      1967      1968      1971      1970
      1967      1968      1971      1972      1968      1971      1972      2149
      1968      1971      1972      1975      1968      2145      2146      2141
      1968      2145      2146      2147      1968      2145      2150      2149
      1968      2145      2150      2151      1969      1792      1795      1794
      1969      1792      1795      1796      1969      1970      1971      1968
      1969      1970      1971      1972      1969      1974      1975      1972
      1969      1974      1975      1976      1970      1965      1966      1961
      1970      1965      1966      1967      1970      1969      1974      1973
      1970      1969      1974      1975      1970      1971      1972      2149
      1970      1971      1972      1975      1971      1968      2145      2146
      1971      1968      2145      2150      1971      1972      2149      2154
      1971      1972      2149      2150      1971      1972      1975      1974
      1971      1972      1975      1976      1972      1975      1976      1979
      1972      1975      1976      2153      1972      2149      2154      2153
      1972      2149      2154      2155      1972      2149      2150      2145
      1972      2149      2150      2151      1973      1796      1799      1798
      1973      1796      1799      1800      1973      1974      1975      1972
      1973      1974      1975      1976      1973      1978      1979      1976
      1973      1978      1979      1980      1974      1969      1970      1965
      1974      1969      1970      1971      1974      1973      1978      1977
      1974      1973      1978      1979      1974      1975      1976      1979
      1974      1975      1976      2153      1975      1972      2149      2154
      1975      1972      2149      2150      1975      1976      1979      1978
      1975      1976      1979      1980      1975      1976      2153      2154
      1975      1976      2153      2158      1976      1979      1980      2157
      1976      2153      2154      2149      1976      2153      2154      2155
      1976      2153      2158      2157      1976      2153      2158      2159
      1977      1978      1979      1976      1977      1978      1979      1980
      1978      1973      1974      1969      1978      1973      1974      1975
      1978      1979      1980      2157      1979      1976      2153      2154
      1979      1976      2153      2158      1979      1980      2157      2158
      1980      2157      2158      2153      1980      2157      2158      2159
      1981      1804      1807      1806      1981      1804      1807      1808
      1981      1982      1983      1984      1981      1986      1987      1984
      1981      1986      1987      1988      1982      1981      1986      1985
      1982      1981      1986      1987      1982      1983      1984      2161
      1982      1983      1984      1987      1983      1984      2161      2162
      1983      1984      2161      2166      1983      1984      1987      1986
      1983      1984      1987      1988      1984      1987      1988      2165
      1984      1987      1988      1991      1984      2161      2162      2163
      1984      2161      2166      2165      1984      2161      2166      2167
      1985      1808      1811      1810      1985      1808      1811      1812
      1985      1986      1987      1984      1985      1986      1987      1988
      1985      1990      1991      1988      1985      1990      1991      1992
      1986      1981      1982      1983      1986      1985      1990      1989
      1986      1985      1990      1991      1986      1987      1988      2165
      1986      1987      1988      1991      1987      1984      2161      2162
      1987      1984      2161      2166      1987      1988      2165      2166
      1987      1988      2165      2170      1987      1988      1991      1990
      1987      1988      1991      1992      1988      1991      1992      2169
      1988      1991      1992      1995      1988      2165      2166      2161
      1988      2165      2166      2167      1988      2165      2170      2169
      1988      2165      2170      2171      1989      1812      1815      1814
      1989      1812      1815      1816      1989      1990      1991      1988
      1989      1990      1991      1992      1989      1994      1995      1992
      1989      1994      1995      1996      1990      1985      1986      1981
      1990      1985      1986      1987      1990      1989      1994      1993
      1990      1989      1994      1995      1990      1991      1992      2169
      1990      1991      1992      1995      1991      1988      2165      2166
      1991      1988      2165      2170      1991      1992      2169      2174
      1991      1992      2169      2170      1991      1992      1995      1994
      1991      1992      1995      1996      1992      1995      1996      1999
      1992      1995      1996      2173      1992      2169      2174      2173
      1992      2169      2174      2175      1992      2169      2170      2165
      1992      2169      2170      2171      1993      1816      1819      1818
      1993      1816      1819      1820      1993      1994      1995      1992
      1993      1994      1995      1996      1993      1998      1999      1996
      1993      1998      1999      2000      1994      1989      1990      1985
      1994      1989      1990      1991      1994      1993      1998      1997
      1994      1993      1998      1999      1994      1995      1996      1999
      1994      1995      1996      2173      1995      1992      2169      2174
      1995      1992      2169      2170      1995      1996      1999      1998
      1995      1996      1999      2000      1995      1996      2173      2178
      1995      1996      2173      2174      1996      1999      2000      2177
      1996      1999      2000      2003      1996      2173      2178      2177
      1996      2173      2178      2179      1996      2173      2174      2169
      1996      2173      2174      2175      1997      1820      1823      1822
      1997      1820      1823      1824      1997      1998      1999      1996
      1997      1998      1999      2000      1997      2002      2003      2000
      1997      2002      2003      2004      1998      1993      1994      1989
      1998      1993      1994      1995      1998      1997      2002      2001
      1998      1997      2002      2003      1998      1999      2000      2177
      1998      1999      2000      2003      1999      1996      2173      2178
      1999      1996      2173      2174      1999      2000      2177      2182
      1999      2000      2177      2178      1999      2000      2003      2002
      1999      2000      2003      2004      2000      2003      2004      2181
      2000      2003      2004      2007      2000      2177      2182      2181
      2000      2177      2182      2183      2000      2177      2178      2173
      2000      2177      2178      2179      2001      1824      1827      1826
      2001      1824      1827      1828      2001      2002      2003      2000
      2001      2002      2003      2004      2001      2006      2007      2004
      2001      2006      2007      2008      2002      1997      1998      1993
      2002      1997      1998      1999      2002      2001      2006      2005
      2002      2001      2006      2007      2002      2003      2004      2181
      2002      2003      2004      2007      2003      2000      2177      2182
      2003      2000      2177      2178      2003      2004      2181      2182
      2003      2004      2181      2186      2003      2004      2007      2006
      2003      2004      2007      2008      2004      2007      2008      2185
      2004      2007      2008      2011      2004      2181      2182      2177
      2004      2181      2182      2183      2004      2181      2186      2185
      2004      2181      2186      2187      2005      1828      1831      1830
      2005      1828      1831      1832      2005      2006      2007      2004
      2005      2006      2007      2008      2005      2010      2011      2008
      2005      2010      2011      2012      2006      2001      2002      1997
      2006      2001      2002      2003      2006      2005      2010      2009
      2006      2005      2010      2011      2006      2007      2008      2185
      2006      2007      2008      2011      2007      2004      2181      2182
      2007      2004      2181      2186      2007      2008      2185      2186
      2007      2008      2185      2190      2007      2008      2011      2010
      2007      2008      2011      2012      2008      2011      2012      2015
      2008      2011      2012      2189      2008      2185      2186      2181
      2008      2185      2186      2187      2008      2185      2190      2189
      2008      2185      2190      2191      2009      1832      1835      1834
      2009      1832      1835      1836      2009      2010      2011      2008
      2009      2010      2011      2012      2009      2014      2015      2012
      2009      2014      2015      2016      2010      2005      2006      2001
      2010      2005      2006      2007      2010      2009      2014      2013
      2010      2009      2014      2015      2010      2011      2012      2015
      2010      2011      2012      2189      2011      2008      2185      2186
      2011      2008      2185      2190      2011      2012      2015      2014
      2011      2012      2015      2016      2011      2012      2189      2194
      2011      2012      2189      2190      2012      2015      2016      2019
      2012      2015      2016      2193      2012      2189      2194      2193
      2012      2189      2194      2195      2012      2189      2190      2185
      2012      2189      2190      2191      2013      1836      1839      1838
      2013      1836      1839      1840      2013      2014      2015      2012
      2013      2014      2015      2016      2013      2018      2019      2016
      2013      2018      2019      2020      2014      2009      2010      2005
      2014      2009      2010      2011      2014      2013      2018      2017
      2014      2013      2018      2019      2014      2015      2016      2019
      2014      2015      2016      2193      2015      2012      2189      2194
      2015      2012      2189      2190      2015      2016      2019      2018
      2015      2016      2019      2020      2015      2016      2193      2194
      2015      2016      2193      2198      2016      2019      2020      2197
      2016      2019      2020      2023      2016      2193      2194      2189
      2016      2193      2194      2195      2016      2193      2198      2197
      2016      2193      2198      2199      2017      1840      1843      1842
      2017      1840      1843      1844      2017      2018      2019      2016
      2017      2018      2019      2020      2017      2022      2023      2020
      2017      2022      2023      2024      2018      2013      2014      2009
      2018      2013      2014      2015      2018      2017      2022      2021
      2018      2017      2022      2023      2018      2019      2020      2197
      2018      2019      2020      2023      2019      2016      2193      2194
      2019      2016      2193      2198      2019      2020      2197      2202
      2019      2020      2197      2198      2019      2020      2023      2022
      2019      2020      2023      2024      2020      2023      2024      2201
      2020      2023      2024      2027      2020      2197      2202      2201
      2020      2197      2202      2203      2020      2197      2198      2193
      2020      2197      2198      2199      2021      1844      1847      1846
      2021      1844      1847      1848      2021      2022      2023      2020
      2021      2022      2023      2024      2021      2026      2027      2024
      2021      2026      2027      2028      2022      2017      2018      2013
      2022      2017      2018      2019      2022      2021      2026      2025
      2022      2021      2026      2027      2022      2023      2024      2201
      2022      2023      2024      2027      2023      2020      2197      2202
      2023      2020      2197      2198      2023      2024      2201      2202
      2023      2024      2201      2206      2023      2024      2027      2026
      2023      2024      2027      2028      2024      2027      2028      2205
      2024      2027      2028      2031      2024      2201      2202      2197
      2024      2201      2202      2203      2024      2201      2206      2205
      2024      2201      2206      2207      2025      1848      1851      1850
      2025      1848      1851      1852      2025      2026      2027      2024
      2025      2026      2027      2028      2025      2030      2031      2028
      2025      2030      2031      2032      2026      2021      2022      2017
      2026      2021      2022      2023      2026      2025      2030      2029
      2026      2025      2030      2031      2026      2027      2028      2205
      2026      2027      2028      2031      2027      2024      2201      2202
      2027      2024      2201      2206      2027      2028      2205      2206
      2027      2028      2205      2210      2027      2028      2031      2030
      2027      2028      2031      2032      2028      2031      2032      2035
      2028      2031      2032      2209      2028      2205      2206      2201
      2028      2205      2206      2207      2028      2205      2210      2209
      2028      2205      2210      2211      2029      1852      1855      1854
      2029      1852      1855      1856      2029      2030      2031      2028
      2029      2030      2031      2032      2029      2034      2035      2032
      2029      2034      2035      2036      2030      2025      2026      2021
      2030      2025      2026      2027      2030      2029      2034      2033
      2030      2029      2034      2035      2030      2031      2032      2035
      2030      2031      2032      2209      2031      2028      2205      2206
      2031      2028      2205      2210      2031      2032      2035      2034
      2031      2032      2035      2036      2031      2032      2209      2214
      2031      2032      2209      2210      2032      2035      2036      2039
      2032      2035      2036      2213      2032      2209      2214      2213
      2032      2209      2214      2215      2032      2209      2210      2205
      2032      2209      2210      2211      2033      1856      1859      1858
      2033      1856      1859      1860      2033      2034      2035      2032
      2033      2034      2035      2036      2033      2038      2039      2036
      2033      2038      2039      2040      2034      2029      2030      2025
      2034      2029      2030      2031      2034      2033      2038      2037
      2034      2033      2038      2039      2034      2035      2036      2039
      2034      2035      2036      2213      2035      2032      2209      2214
      2035      2032      2209      2210      2035      2036      2039      2038
      2035      2036      2039      2040      2035      2036      2213      2218
      2035      2036      2213      2214      2036      2039      2040      2217
      2036      2039      2040      2043      2036      2213      2218      2217
      2036      2213      2218      2219      2036      2213      2214      2209
      2036      2213      2214      2215      2037      1860      1863      1862
      2037      1860      1863      1864      2037      2038      2039      2036
      2037      2038      2039      2040      2037      2042      2043      2040
      2037      2042      2043      2044      2038      2033      2034      2029
      2038      2033      2034      2035      2038      2037      2042      2041
      2038      2037      2042      2043      2038      2039      2040      2217
      2038      2039      2040      2043      2039      2036      2213      2218
      2039      2036      2213      2214      2039      2040      2217      2222
      2039      2040      2217      2218      2039      2040      2043      2042
      2039      2040      2043      2044      2040      2043      2044      2221
      2040      2043      2044      2047      2040      2217      2222      2221
      2040      2217      2222      2223      2040      2217      2218      2213
      2040      2217      2218      2219      2041      1864      1867      1866
      2041      1864      1867      1868      2041      2042      2043      2040
      2041      2042      2043      2044      2041      2046      2047      2044
      2041      2046      2047      2048      2042      2037      2038      2033
      2042      2037      2038      2039      2042      2041      2046      2045
      2042      2041      2046      2047      2042      2043      2044      2221
      2042      2043      2044      2047      2043      2040      2217      2222
      2043      2040      2217      2218      2043      2044      2221      2222
      2043      2044      2221      2226      2043      2044      2047      2046
      2043      2044      2047      2048      2044      2047      2048      2225
      2044      2047      2048      2051      2044      2221      2222      2217
      2044      2221      2222      2223      2044      2221      2226      2225
      2044      2221      2226      2227      2045      1868      1871      1870
      2045      1868      1871      1872      2045      2046      2047      2044
      2045      2046      2047      2048      2045      2050      2051      2048
      2045      2050      2051      2052      2046      2041      2042      2037
      2046      2041      2042      2043      2046      2045      2050      2049
      2046      2045      2050      2051      2046      2047      2048      2225
      2046      2047      2048      2051      2047      2044      2221      2222
      2047      2044      2221      2226      2047      2048      2225      2226
      2047      2048      2225      2230      2047      2048      2051      2050
      2047      2048      2051      2052      2048      2051      2052      2229
      2048      2051      2052      2055      2048      2225      2226      2221
      2048      2225      2226      2227      2048      2225      2230      2229
      2048      2225      2230      2231      2049      1872      1875      1874
      2049      1872      1875      1876      2049      2050      2051      2048
      2049      2050      2051      2052      2049      2054      2055      2052
      2049      2054      2055      2056      2050      2045      2046      2041
      2050      2045      2046      2047      2050      2049      2054      2053
      2050      2049      2054      2055      2050      2051      2052      2229
      2050      2051      2052      2055      2051      2048      2225      2226
      2051      2048      2225      2230      2051      2052      2229      2234
      2051      2052      2229      2230      2051      2052      2055      2054
      2051      2052      2055      2056      2052      2055      2056      2233
      2052      2055      2056      2059      2052      2229      2234      2233
      2052      2229      2234      2235      2052      2229      2230      2225
      2052      2229      2230      2231      2053      1876      1879      1878
      2053      1876      1879      1880      2053      2054      2055      2052
      2053      2054      2055      2056      2053      2058      2059      2056
      2053      2058      2059      2060      2054      2049      2050      2045
      2054      2049      2050      2051      2054      2053      2058      2057
      2054      2053      2058      2059      2054      2055      2056      2233
      2054      2055      2056      2059      2055      2052      2229      2234
      2055      2052      2229      2230      2055      2056      2233      2238
      2055      2056      2233      2234      2055      2056      2059      2058
      2055      2056      2059      2060      2056      2059      2060      2237
      2056      2059      2060      2063      2056      2233      2238      2237
      2056      2233      2238      2239      2056      2233      2234      2229
      2056      2233      2234      2235      2057      1880      1883      1882
      2057      1880      1883      1884      2057      2058      2059      2056
      2057      2058      2059      2060      2057      2062      2063      2060
      2057      2062      2063      2064      2058      2053      2054      2049
      2058      2053      2054      2055      2058      2057      2062      2061
      2058      2057      2062      2063      2058      2059      2060      2237
      2058      2059      2060      2063      2059      2056      2233      2238
      2059      2056      2233      2234      2059      2060      2237      2242
      2059      2060      2237      2238      2059      2060      2063      2062
      2059      2060      2063      2064      2060      2063      2064      2241
      2060      2063      2064      2067      2060      2237      2242      2241
      2060      2237      2242      2243      2060      2237      2238      2233
      2060      2237      2238      2239      2061      1884      1887      1886
      2061      1884      1887      1888      2061      2062      2063      2060
      2061      2062      2063      2064      2061      2066      2067      2064
      2061      2066      2067      2068      2062      2057      2058      2053
      2062      2057      2058      2059      2062      2061      2066      2065
      2062      2061      2066      2067      2062      2063      2064      2241
      2062      2063      2064      2067      2063      2060      2237      2242
      2063      2060      2237      2238      2063      2064      2241      2242
      2063      2064      2241      2246      2063      2064      2067      2066
      2063      2064      2067      2068      2064      2067      2068      2245
      2064      2067      2068      2071      2064      2241      2242      2237
      2064      2241      2242      2243      2064      2241      2246      2245
      2064      2241      2246      2247      2065      1888      1891      1890
      2065      1888      1891      1892      2065      2066      2067      2064
      2065      2066      2067      2068      2065      2070      2071      2068
      2065      2070      2071      2072      2066      2061      2062      2057
      2066      2061      2062      2063      2066      2065      2070      2069
      2066      2065      2070      2071      2066      2067      2068      2245
      2066      2067      2068      2071      2067      2064      2241      2242
      2067      2064      2241      2246      2067      2068      2245      2246
      2067      2068      2245      2250      2067      2068      2071      2070
      2067      2068      2071      2072      2068      2071      2072      2075
      2068      2071      2072      2249      2068      2245      2246      2241
      2068      2245      2246      2247      2068      2245      2250      2249
      2068      2245      2250      2251      2069      1892      1895      1894
      2069      1892      1895      1896      2069      2070      2071      2068
      2069      2070      2071      2072      2069      2074      2075      2072
      2069      2074      2075      2076      2070      2065      2066      2061
      2070      2065      2066      2067      2070      2069      2074      2073
      2070      2069      2074      2075      2070      2071      2072      2075
      2070      2071      2072      2249      2071      2068      2245      2246
      2071      2068      2245      2250      2071      2072      2075      2074
      2071      2072      2075      2076      2071      2072      2249      2254
      2071      2072      2249      2250      2072      2075      2076      2079
      2072      2075      2076      2253      2072      2249      2254      2253
      2072      2249      2254      2255      2072      2249      2250      2245
      2072      2249      2250      2251      2073      1896      1899      1898
      2073      1896      1899      1900      2073      2074      2075      2072
      2073      2074      2075      2076      2073      2078      2079      2076
      2073      2078      2079      2080      2074      2069      2070      2065
      2074      2069      2070      2071      2074      2073      2078      2077
      2074      2073      2078      2079      2074      2075      2076      2079
      2074      2075      2076      2253      2075      2072      2249      2254
      2075      2072      2249      2250      2075      2076      2079      2078
      2075      2076      2079      2080      2075      2076      2253      2258
      2075      2076      2253      2254      2076      2079      2080      2257
      2076      2079      2080      2083      2076      2253      2258      2257
      2076      2253      2258      2259      2076      2253      2254      2249
      2076      2253      2254      2255      2077      1900      1903      1902
      2077      1900      1903      1904      2077      2078      2079      2076
      2077      2078      2079      2080      2077      2082      2083      2080
      2077      2082      2083      2084      2078      2073      2074      2069
      2078      2073      2074      2075      2078      2077      2082      2081
      2078      2077      2082      2083      2078      2079      2080      2257
      2078      2079      2080      2083      2079      2076      2253      2258
      2079      2076      2253      2254      2079      2080      2257      2262
      2079      2080      2257      2258      2079      2080      2083      2082
      2079      2080      2083      2084      2080      2083      2084      2261
      2080      2083      2084      2087      2080      2257      2262      2261
      2080      2257      2262      2263      2080      2257      2258      2253
      2080      2257      2258      2259      2081      1904      1907      1906
      2081      1904      1907      1908      2081      2082      2083      2080
      2081      2082      2083      2084      2081      2086      2087      2084
      2081      2086      2087      2088      2082      2077      2078      2073
      2082      2077      2078      2079      2082      2081      2086      2085
      2082      2081      2086      2087      2082      2083      2084      2261
      2082      2083      2084      2087      2083      2080      2257      2262
      2083      2080      2257      2258      2083      2084      2261      2262
      2083      2084      2261      2266      2083      2084      2087      2086
      2083      2084      2087      2088      2084      2087      2088      2265
      2084      2087      2088      2091      2084      2261      2262      2257
      2084      2261      2262      2263      2084      2261      2266      2265
      2084      2261      2266      2267      2085      1908      1911      1910
      2085      1908      1911      1912      2085      2086      2087      2084
      2085      2086      2087      2088      2085      2090      2091      2088
      2085      2090      2091      2092      2086      2081      2082      2077
      2086      2081      2082      2083      2086      2085      2090      2089
      2086      2085      2090      2091      2086      2087      2088      2265
      2086      2087      2088      2091      2087      2084      2261      2262
      2087      2084      2261      2266      2087      2088      2265      2266
      2087      2088      2265      2270      2087      2088      2091      2090
      2087      2088      2091      2092      2088      2091      2092      2095
      2088      2091      2092      2269      2088      2265      2266      2261
      2088      2265      2266      2267      2088      2265      2270      2269
      2088      2265      2270      2271      2089      1912      1915      1914
      2089      1912      1915      1916      2089      2090      2091      2088
      2089      2090      2091      2092      2089      2094      2095      2092
      2089      2094      2095      2096      2090      2085      2086      2081
      2090      2085      2086      2087      2090      2089      2094      2093
      2090      2089      2094      2095      2090      2091      2092      2095
      2090      2091      2092      2269      2091      2088      2265      2266
      2091      2088      2265      2270      2091      2092      2095      2094
      2091      2092      2095      2096      2091      2092      2269      2274
      2091      2092      2269      2270      2092      2095      2096      2099
      2092      2095      2096      2273      2092      2269      2274      2273
      2092      2269      2274      2275      2092      2269      2270      2265
      2092      2269      2270      2271      2093      1916      1919      1918
      2093      1916      1919      1920      2093      2094      2095      2092
      2093      2094      2095      2096      2093      2098      2099      2096
      2093      2098      2099      2100      2094      2089      2090      2085
      2094      2089      2090      2091      2094      2093      2098      2097
      2094      2093      2098      2099      2094      2095      2096      2099
      2094      2095      2096      2273      2095      2092      2269      2274
      2095      2092      2269      2270      2095      2096      2099      2098
      2095      2096      2099      2100      2095      2096      2273      2278
      2095      2096      2273      2274      2096      2099      2100      2277
      2096      2099      2100      2103      2096      2273      2278      2277
      2096      2273      2278      2279      2096      2273      2274      2269
      2096      2273      2274      2275      2097      1920      1923      1922
      2097      1920      1923      1924      2097      2098      2099      2096
      2097      2098      2099      2100      2097      2102      2103      2100
      2097      2102      2103      2104      2098      2093      2094      2089
      2098      2093      2094      2095      2098      2097      2102      2101
      2098      2097      2102      2103      2098      2099      2100      2277
      2098      2099      2100      2103      2099      2096      2273      2278
      2099      2096      2273      2274      2099      2100      2277      2282
      2099      2100      2277      2278      2099      2100      2103      2102
      2099      2100      2103      2104      2100      2103      2104      2281
      2100      2103      2104      2107      2100      2277      2282      2281
      2100      2277      2282      2283      2100      2277      2278      2273
      2100      2277      2278      2279      2101      1924      1927      1926
      2101      1924      1927      1928      2101      2102      2103      2100
      2101      2102      2103      2104      2101      2106      2107      2104
      2101      2106      2107      2108      2102      2097      2098      2093
      2102      2097      2098      2099      2102      2101      2106      2105
      2102      2101      2106      2107      2102      2103      2104      2281
      2102      2103      2104      2107      2103      2100      2277      2282
      2103      2100      2277      2278      2103      2104      2281      2282
      2103      2104      2281      2286      2103      2104      2107      2106
      2103      2104      2107      2108      2104      2107      2108      2285
      2104      2107      2108      2111      2104      2281      2282      2277
      2104      2281      2282      2283      2104      2281      2286      2285
      2104      2281      2286      2287      2105      1928      1931      1930
      2105      1928      1931      1932      2105      2106      2107      2104
      2105      2106      2107      2108      2105      2110      2111      2108
      2105      2110      2111      2112      2106      2101      2102      2097
      2106      2101      2102      2103      2106      2105      2110      2109
      2106      2105      2110      2111      2106      2107      2108      2285
      2106      2107      2108      2111      2107      2104      2281      2282
      2107      2104      2281      2286      2107      2108      2285      2286
      2107      2108      2285      2290      2107      2108      2111      2110
      2107      2108      2111      2112      2108      2111      2112      2289
      2108      2111      2112      2115      2108      2285      2286      2281
      2108      2285      2286      2287      2108      2285      2290      2289
      2108      2285      2290      2291      2109      1932      1935      1934
      2109      1932      1935      1936      2109      2110      2111      2108
      2109      2110      2111      2112      2109      2114      2115      2112
      2109      2114      2115      2116      2110      2105      2106      2101
      2110      2105      2106      2107      2110      2109      2114      2113
      2110      2109      2114      2115      2110      2111      2112      2289
      2110      2111      2112      2115      2111      2108      2285      2286
      2111      2108      2285      2290      2111      2112      2289      2294
      2111      2112      2289      2290      2111      2112      2115      2114
      2111      2112      2115      2116      2112      2115      2116      2293
      2112      2115      2116      2119      2112      2289      2294      2293
      2112      2289      2294      2295      2112      2289      2290      2285
      2112      2289      2290      2291      2113      1936      1939      1938
      2113      1936      1939      1940      2113      2114      2115      2112
      2113      2114      2115      2116      2113      2118      2119      2116
      2113      2118      2119      2120      2114      2109      2110      2105
      2114      2109      2110      2111      2114      2113      2118      2117
      2114      2113      2118      2119      2114      2115      2116      2293
      2114      2115      2116      2119      2115      2112      2289      2294
      2115      2112      2289      2290      2115      2116      2293      2298
      2115      2116      2293      2294      2115      2116      2119      2118
      2115      2116      2119      2120      2116      2119      2120      2297
      2116      2119      2120      2123      2116      2293      2298      2297
      2116      2293      2298      2299      2116      2293      2294      2289
      2116      2293      2294      2295      2117      1940      1943      1942
      2117      1940      1943      1944      2117      2118      2119      2116
      2117      2118      2119      2120      2117      2122      2123      2120
      2117      2122      2123      2124      2118      2113      2114      2109
      2118      2113      2114      2115      2118      2117      2122      2121
      2118      2117      2122      2123      2118      2119      2120      2297
      2118      2119      2120      2123      2119      2116      2293      2298
      2119      2116      2293      2294      2119      2120      2297      2302
      2119      2120      2297      2298      2119      2120      2123      2122
      2119      2120      2123      2124      2120      2123      2124      2301
      2120      2123      2124      2127      2120      2297      2302      2301
      2120      2297      2302      2303      2120      2297      2298      2293
      2120      2297      2298      2299      2121      1944      1947      1946
      2121      1944      1947      1948      2121      2122      2123      2120
      2121      2122      2123      2124      2121      2126      2127      2124
      2121      2126      2127      2128      2122      2117      2118      2113
      2122      2117      2118      2119      2122      2121      2126      2125
      2122      2121      2126      2127      2122      2123      2124      2301
      2122      2123      2124      2127      2123      2120      2297      2302
      2123      2120      2297      2298      2123      2124      2301      2302
      2123      2124      2301      2306      2123      2124      2127      2126
      2123      2124      2127      2128      2124      2127      2128      2305
      2124      2127      2128      2131      2124      2301      2302      2297
      2124      2301      2302      2303      2124      2301      2306      2305
      2124      2301      2306      2307      2125      1948      1951      1950
      2125      1948      1951      1952      2125      2126      2127      2124
      2125      2126      2127      2128      2125      2130      2131      2128
      2125      2130      2131      2132      2126      2121      2122      2117
      2126      2121      2122      2123      2126      2125      2130      2129
      2126      2125      2130      2131      2126      2127      2128      2305
      2126      2127      2128      2131      2127      2124      2301      2302
      2127      2124      2301      2306      2127      2128      2305      2306
      2127      2128      2305      2310      2127      2128      2131      2130
      2127      2128      2131      2132      2128      2131      2132      2135
      2128      2131      2132      2309      2128      2305      2306      2301
      2128      2305      2306      2307      2128      2305      2310      2309
      2128      2305      2310      2311      2129      1952      1955      1954
      2129      1952      1955      1956      2129      2130      2131      2128
      2129      2130      2131      2132      2129      2134      2135      2132
      2129      2134      2135      2136      2130      2125      2126      2121
      2130      2125      2126      2127      2130      2129      2134      2133
      2130      2129      2134      2135      2130      2131      2132      2135
      2130      2131      2132      2309      2131      2128      2305      2306
      2131      2128      2305      2310      2131      2132      2135      2134
      2131      2132      2135      2136      2131      2132      2309      2314
      2131      2132      2309      2310      2132      2135      2136      2139
      2132      2135      2136      2313      2132      2309      2314      2313
      2132      2309      2314      2315      2132      2309      2310      2305
      2132      2309      2310      2311      2133      1956      1959      1958
      2133      1956      1959      1960      2133      2134      2135      2132
      2133      2134      2135      2136      2133      2138      2139      2136
      2133      2138      2139      2140      2134      2129      2130      2125
      2134      2129      2130      2131      2134      2133      2138      2137
      2134      2133      2138      2139      2134      2135      2136      2139
      2134      2135      2136      2313      2135      2132      2309      2314
      2135      2132      2309      2310      2135      2136      2139      2138
      2135      2136      2139      2140      2135      2136      2313      2318
      2135      2136      2313      2314      2136      2139      2140      2317
      2136      2139      2140      2143      2136      2313      2318      2317
      2136      2313      2318      2319      2136      2313      2314      2309
      2136      2313      2314      2315      2137      1960      1963      1962
      2137      1960      1963      1964      2137      2138      2139      2136
      2137      2138      2139      2140      2137      2142      2143      2140
      2137      2142      2143      2144      2138      2133      2134      2129
      2138      2133      2134      2135      2138      2137      2142      2141
      2138      2137      2142      2143      2138      2139      2140      2317
      2138      2139      2140      2143      2139      2136      2313      2318
      2139      2136      2313      2314      2139      2140      2317      2322
      2139      2140      2317      2318      2139      2140      2143      2142
      2139      2140      2143      2144      2140      2143      2144      2321
      2140      2143      2144      2147      2140      2317      2322      2321
      2140      2317      2322      2323      2140      2317      2318      2313
      2140      2317      2318      2319      2141      1964      1967      1966
      2141      1964      1967      1968      2141      2142      2143      2140
      2141      2142      2143      2144      2141      2146      2147      2144
      2141      2146      2147      2148      2142      2137      2138      2133
      2142      2137      2138      2139      2142      2141      2146      2145
      2142      2141      2146      2147      2142      2143      2144      2321
      2142      2143      2144      2147      2143      2140      2317      2322
      2143      2140      2317      2318      2143      2144      2321      2322
      2143      2144      2321      2326      2143      2144      2147      2146
      2143      2144      2147      2148      2144      2147      2148      2325
      2144      2147      2148      2151      2144      2321      2322      2317
      2144      2321      2322      2323      2144      2321      2326      2325
      2144      2321      2326      2327      2145      1968      1971      1970
      2145      1968      1971      1972      2145      2146      2147      2144
      2145      2146      2147      2148      2145      2150      2151      2148
      2145      2150      2151      2152      2146      2141      2142      2137
      2146      2141      2142      2143      2146      2145      2150      2149
      2146      2145      2150      2151      2146      2147      2148      2325
      2146      2147      2148      2151      2147      2144      2321      2322
      2147      2144      2321      2326      2147      2148      2325      2326
      2147      2148      2325      2330      2147      2148      2151      2150
      2147      2148      2151      2152      2148      2151      2152      2155
      2148      2151      2152      2329      2148      2325      2326      2321
      2148      2325      2326      2327      2148      2325      2330      2329
      2148      2325      2330      2331      2149      1972      1975      1974
      2149      1972      1975      1976      2149      2150      2151      2148
      2149      2150      2151      2152      2149      2154      2155      2152
      2149      2154      2155      2156      2150      2145      2146      2141
      2150      2145      2146      2147      2150      2149      2154      2153
      2150      2149      2154      2155      2150      2151      2152      2155
      2150      2151      2152      2329      2151      2148      2325      2326
      2151      2148      2325      2330      2151      2152      2155      2154
      2151      2152      2155      2156      2151      2152      2329      2334
      2151      2152      2329      2330      2152      2155      2156      2159
      2152      2155      2156      2333      2152      2329      2334      2333
      2152      2329      2334      2335      2152      2329      2330      2325
      2152      2329      2330      2331      2153      1976      1979      1978
      2153      1976      1979      1980      2153      2154      2155      2152
      2153      2154      2155      2156      2153      2158      2159      2156
      2153      2158      2159      2160      2154      2149      2150      2145
      2154      2149      2150      2151      2154      2153      2158      2157
      2154      2153      2158      2159      2154      2155      2156      2159
      2154      2155      2156      2333      2155      2152      2329      2334
      2155      2152      2329      2330      2155      2156      2159      2158
      2155      2156      2159      2160      2155      2156      2333      2338
      2155      2156      2333      2334      2156      2159      2160      2337
      2156      2333      2338      2337      2156      2333      2338      2339
      2156      2333      2334      2329      2156      2333      2334      2335
      2157      2158      2159      2156      2157      2158      2159      2160
      2158      2153      2154      2149      2158      2153      2154      2155
      2158      2159      2160      2337      2159      2156      2333      2338
      2159      2156      2333      2334      2159      2160      2337      2338
      2160      2337      2338      2333      2160      2337      2338      2339
      2161      1984      1987      1986      2161      1984      1987      1988
      2161      2162      2163      2164      2161      2166      2167      2164
      2161      2166      2167      2168      2162      2161      2166      2165
      2162      2161      2166      2167      2162      2163      2164      2167
      2162      2163      2164      2341      2163      2164      2167      2166
      2163      2164      2167      2168      2163      2164      2341      2342
      2163      2164      2341      2346      2164      2167      2168      2171
      2164      2167      2168      2345      2164      2341      2342      2343
      2164      2341      2346      2345      2164      2341      2346      2347
      2165      1988      1991      1990      2165      1988      1991      1992
      2165      2166      2167      2164      2165      2166      2167      2168
      2165      2170      2171      2168      2165      2170      2171      2172
      2166      2161      2162      2163      2166      2165      2170      2169
      2166      2165      2170      2171      2166      2167      2168      2171
      2166      2167      2168      2345      2167      2164      2341      2342
      2167      2164      2341      2346      2167      2168      2171      2170
      2167      2168      2171      2172      2167      2168      2345      2346
      2167      2168      2345      2350      2168      2171      2172      2175
      2168      2171      2172      2349      2168      2345      2346      2341
      2168      2345      2346      2347      2168      2345      2350      2349
      2168      2345      2350      2351      2169      1992      1995      1994
      2169      1992      1995      1996      2169      2170      2171      2168
      2169      2170      2171      2172      2169      2174      2175      2172
      2169      2174      2175      2176      2170      2165      2166      2161
      2170      2165      2166      2167      2170      2169      2174      2173
      2170      2169      2174      2175      2170      2171      2172      2175
      2170      2171      2172      2349      2171      2168      2345      2346
      2171      2168      2345      2350      2171      2172      2175      2174
      2171      2172      2175      2176      2171      2172      2349      2354
      2171      2172      2349      2350      2172      2175      2176      2179
      2172      2175      2176      2353      2172      2349      2354      2353
      2172      2349      2354      2355      2172      2349      2350      2345
      2172      2349      2350      2351      2173      1996      1999      1998
      2173      1996      1999      2000      2173      2174      2175      2172
      2173      2174      2175      2176      2173      2178      2179      2176
      2173      2178      2179      2180      2174      2169      2170      2165
      2174      2169      2170      2171      2174      2173      2178      2177
      2174      2173      2178      2179      2174      2175      2176      2179
      2174      2175      2176      2353      2175      2172      2349      2354
      2175      2172      2349      2350      2175      2176      2179      2178
      2175      2176      2179      2180      2175      2176      2353      2358
      2175      2176      2353      2354      2176      2179      2180      2183
      2176      2179      2180      2357      2176      2353      2358      2357
      2176      2353      2358      2359      2176      2353      2354      2349
      2176      2353      2354      2355      2177      2000      2003      2002
      2177      2000      2003      2004      2177      2178      2179      2176
      2177      2178      2179      2180      2177      2182      2183      2180
      2177      2182      2183      2184      2178      2173      2174      2169
      2178      2173      2174      2175      2178      2177      2182      2181
      2178      2177      2182      2183      2178      2179      2180      2183
      2178      2179      2180      2357      2179      2176      2353      2358
      2179      2176      2353      2354      2179      2180      2183      2182
      2179      2180      2183      2184      2179      2180      2357      2362
      2179      2180      2357      2358      2180      2183      2184      2187
      2180      2183      2184      2361      2180      2357      2362      2361
      2180      2357      2362      2363      2180      2357      2358      2353
      2180      2357      2358      2359      2181      2004      2007      2006
      2181      2004      2007      2008      2181      2182      2183      2180
      2181      2182      2183      2184      2181      2186      2187      2184
      2181      2186      2187      2188      2182      2177      2178      2173
      2182      2177      2178      2179      2182      2181      2186      2185
      2182      2181      2186      2187      2182      2183      2184      2187
      2182      2183      2184      2361      2183      2180      2357      2362
      2183      2180      2357      2358      2183      2184      2187      2186
      2183      2184      2187      2188      2183      2184      2361      2362
      2183      2184      2361      2366      2184      2187      2188      2191
      2184      2187      2188      2365      2184      2361      2362      2357
      2184      2361      2362      2363      2184      2361      2366      2365
      2184      2361      2366      2367      2185      2008      2011      2010
      2185      2008      2011      2012      2185      2186      2187      2184
      2185      2186      2187      2188      2185      2190      2191      2188
      2185      2190      2191      2192      2186      2181      2182      2177
      2186      2181      2182      2183      2186      2185      2190      2189
      2186      2185      2190      2191      2186      2187      2188      2191
      2186      2187      2188      2365      2187      2184      2361      2362
      2187      2184      2361      2366      2187      2188      2191      2190
      2187      2188      2191      2192      2187      2188      2365      2366
      2187      2188      2365      2370      2188      2191      2192      2195
      2188      2191      2192      2369      2188      2365      2366      2361
      2188      2365      2366      2367      2188      2365      2370      2369
      2188      2365      2370      2371      2189      2012      2015      2014
      2189      2012      2015      2016      2189      2190      2191      2188
      2189      2190      2191      2192      2189      2194      2195      2192
      2189      2194      2195      2196      2190      2185      2186      2181
      2190      2185      2186      2187      2190      2189      2194      2193
      2190      2189      2194      2195      2190      2191      2192      2195
      2190      2191      2192      2369      2191      2188      2365      2366
      2191      2188      2365      2370      2191      2192      2195      2194
      2191      2192      2195      2196      2191      2192      2369      2374
      2191      2192      2369      2370      2192      2195      2196      2199
      2192      2195      2196      2373      2192      2369      2374      2373
      2192      2369      2374      2375      2192      2369      2370      2365
      2192      2369      2370      2371      2193      2016      2019      2018
      2193      2016      2019      2020      2193      2194      2195      2192
      2193      2194      2195      2196      2193      2198      2199      2196
      2193      2198      2199      2200      2194      2189      2190      2185
      2194      2189      2190      2191      2194      2193      2198      2197
      2194      2193      2198      2199      2194      2195      2196      2199
      2194      2195      2196      2373      2195      2192      2369      2374
      2195      2192      2369      2370      2195      2196      2199      2198
      2195      2196      2199      2200      2195      2196      2373      2378
      2195      2196      2373      2374      2196      2199      2200      2203
      2196      2199      2200      2377      2196      2373      2378      2377
      2196      2373      2378      2379      2196      2373      2374      2369
      2196      2373      2374      2375      2197      2020      2023      2022
      2197      2020      2023      2024      2197      2198      2199      2196
      2197      2198      2199      2200      2197      2202      2203      2200
      2197      2202      2203      2204      2198      2193      2194      2189
      2198      2193      2194      2195      2198      2197      2202      2201
      2198      2197      2202      2203      2198      2199      2200      2203
      2198      2199      2200      2377      2199      2196      2373      2378
      2199      2196      2373      2374      2199      2200      2203      2202
      2199      2200      2203      2204      2199      2200      2377      2382
      2199      2200      2377      2378      2200      2203      2204      2207
      2200      2203      2204      2381      2200      2377      2382      2381
      2200      2377      2382      2383      2200      2377      2378      2373
      2200      2377      2378      2379      2201      2024      2027      2026
      2201      2024      2027      2028      2201      2202      2203      2200
      2201      2202      2203      2204      2201      2206      2207      2204
      2201      2206      2207      2208      2202      2197      2198      2193
      2202      2197      2198      2199      2202      2201      2206      2205
      2202      2201      2206      2207      2202      2203      2204      2207
      2202      2203      2204      2381      2203      2200      2377      2382
      2203      2200      2377      2378      2203      2204      2207      2206
      2203      2204      2207      2208      2203      2204      2381      2382
      2203      2204      2381      2386      2204      2207      2208      2211
      2204      2207      2208      2385      2204      2381      2382      2377
      2204      2381      2382      2383      2204      2381      2386      2385
      2204      2381      2386      2387      2205      2028      2031      2030
      2205      2028      2031      2032      2205      2206      2207      2204
      2205      2206      2207      2208      2205      2210      2211      2208
      2205      2210      2211      2212      2206      2201      2202      2197
      2206      2201      2202      2203      2206      2205      2210      2209
      2206      2205      2210      2211      2206      2207      2208      2211
      2206      2207      2208      2385      2207      2204      2381      2382
      2207      2204      2381      2386      2207      2208      2211      2210
      2207      2208      2211      2212      2207      2208      2385      2386
      2207      2208      2385      2390      2208      2211      2212      2215
      2208      2211      2212      2389      2208      2385      2386      2381
      2208      2385      2386      2387      2208      2385      2390      2389
      2208      2385      2390      2391      2209      2032      2035      2034
      2209      2032      2035      2036      2209      2210      2211      2208
      2209      2210      2211      2212      2209      2214      2215      2212
      2209      2214      2215      2216      2210      2205      2206      2201
      2210      2205      2206      2207      2210      2209      2214      2213
      2210      2209      2214      2215      2210      2211      2212      2215
      2210      2211      2212      2389      2211      2208      2385      2386
      2211      2208      2385      2390      2211      2212      2215      2214
      2211      2212      2215      2216      2211      2212      2389      2394
      2211      2212      2389      2390      2212      2215      2216      2219
      2212      2215      2216      2393      2212      2389      2394      2393
      2212      2389      2394      2395      2212      2389      2390      2385
      2212      2389      2390      2391      2213      2036      2039      2038
      2213      2036      2039      2040      2213      2214      2215      2212
      2213      2214      2215      2216      2213      2218      2219      2216
      2213      2218      2219      2220      2214      2209      2210      2205
      2214      2209      2210      2211      2214      2213      2218      2217
      2214      2213      2218      2219      2214      2215      2216      2219
      2214      2215      2216      2393      2215      2212      2389      2394
      2215      2212      2389      2390      2215      2216      2219      2218
      2215      2216      2219      2220      2215      2216      2393      2398
      2215      2216      2393      2394      2216      2219      2220      2223
      2216      2219      2220      2397      2216      2393      2398      2397
      2216      2393      2398      2399      2216      2393      2394      2389
      2216      2393      2394      2395      2217      2040      2043      2042
      2217      2040      2043      2044      2217      2218      2219      2216
      2217      2218      2219      2220      2217      2222      2223      2220
      2217      2222      2223      2224      2218      2213      2214      2209
      2218      2213      2214      2215      2218      2217      2222      2221
      2218      2217      2222      2223      2218      2219      2220      2223
      2218      2219      2220      2397      2219      2216      2393      2398
      2219      2216      2393      2394      2219      2220      2223      2222
      2219      2220      2223      2224      2219      2220      2397      2402
      2219      2220      2397      2398      2220      2223      2224      2227
      2220      2223      2224      2401      2220      2397      2402      2401
      2220      2397      2402      2403      2220      2397      2398      2393
      2220      2397      2398      2399      2221      2044      2047      2046
      2221      2044      2047      2048      2221      2222      2223      2220
      2221      2222      2223      2224      2221      2226      2227      2224
      2221      2226      2227      2228      2222      2217      2218      2213
      2222      2217      2218      2219      2222      2221      2226      2225
      2222      2221      2226      2227      2222      2223      2224      2227
      2222      2223      2224      2401      2223      2220      2397      2402
      2223      2220      2397      2398      2223      2224      2227      2226
      2223      2224      2227      2228      2223      2224      2401      2402
      2223      2224      2401      2406      2224      2227      2228      2231
      2224      2227      2228      2405      2224      2401      2402      2397
      2224      2401      2402      2403      2224      2401      2406      2405
      2224      2401      2406      2407      2225      2048      2051      2050
      2225      2048      2051      2052      2225      2226      2227      2224
      2225      2226      2227      2228      2225      2230      2231      2228
      2225      2230      2231      2232      2226      2221      2222      2217
      2226      2221      2222      2223      2226      2225      2230      2229
      2226      2225      2230      2231      2226      2227      2228      2231
      2226      2227      2228      2405      2227      2224      2401      2402
      2227      2224      2401      2406      2227      2228      2231      2230
      2227      2228      2231      2232      2227      2228      2405      2406
      2227      2228      2405      2410      2228      2231      2232      2235
      2228      2231      2232      2409      2228      2405      2406      2401
      2228      2405      2406      2407      2228      2405      2410      2409
      2228      2405      2410      2411      2229      2052      2055      2054
      2229      2052      2055      2056      2229      2230      2231      2228
      2229      2230      2231      2232      2229      2234      2235      2232
      2229      2234      2235      2236      2230      2225      2226      2221
      2230      2225      2226      2227      2230      2229      2234      2233
      2230      2229      2234      2235      2230      2231      2232      2235
      2230      2231      2232      2409      2231      2228      2405      2406
      2231      2228      2405      2410      2231      2232      2235      2234
      2231      2232      2235      2236      2231      2232      2409      2414
      2231      2232      2409      2410      2232      2235      2236      2239
      2232      2235      2236      2413      2232      2409      2414      2413
      2232      2409      2414      2415      2232      2409      2410      2405
      2232      2409      2410      2411      2233      2056      2059      2058
      2233      2056      2059      2060      2233      2234      2235      2232
      2233      2234      2235      2236      2233      2238      2239      2236
      2233      2238      2239      2240      2234      2229      2230      2225
      2234      2229      2230      2231      2234      2233      2238      2237
      2234      2233      2238      2239      2234      2235      2236      2239
      2234      2235      2236      2413      2235      2232      2409      2414
      2235      2232      2409      2410      2235      2236      2239      2238
      2235      2236      2239      2240      2235      2236      2413      2414
      2235      2236      2413      2418      2236      2239      2240      2243
      2236      2239      2240      2417      2236      2413      2414      2409
      2236      2413      2414      2415      2236      2413      2418      2417
      2236      2413      2418      2419      2237      2060      2063      2062
      2237      2060      2063      2064      2237      2238      2239      2236
      2237      2238      2239      2240      2237      2242      2243      2240
      2237      2242      2243      2244      2238      2233      2234      2229
      2238      2233      2234      2235      2238      2237      2242      2241
      2238      2237      2242      2243      2238      2239      2240      2243
      2238      2239      2240      2417      2239      2236      2413      2414
      2239      2236      2413      2418      2239      2240      2243      2242
      2239      2240      2243      2244      2239      2240      2417      2422
      2239      2240      2417      2418      2240      2243      2244      2247
      2240      2243      2244      2421      2240      2417      2422      2421
      2240      2417      2422      2423      2240      2417      2418      2413
      2240      2417      2418      2419      2241      2064      2067      2066
      2241      2064      2067      2068      2241      2242      2243      2240
      2241      2242      2243      2244      2241      2246      2247      2244
      2241      2246      2247      2248      2242      2237      2238      2233
      2242      2237      2238      2239      2242      2241      2246      2245
      2242      2241      2246      2247      2242      2243      2244      2247
      2242      2243      2244      2421      2243      2240      2417      2422
      2243      2240      2417      2418      2243      2244      2247      2246
      2243      2244      2247      2248      2243      2244      2421      2422
      2243      2244      2421      2426      2244      2247      2248      2251
      2244      2247      2248      2425      2244      2421      2422      2417
      2244      2421      2422      2423      2244      2421      2426      2425
      2244      2421      2426      2427      2245      2068      2071      2070
      2245      2068      2071      2072      2245      2246      2247      2244
      2245      2246      2247      2248      2245      2250      2251      2248
      2245      2250      2251      2252      2246      2241      2242      2237
      2246      2241      2242      2243      2246      2245      2250      2249
      2246      2245      2250      2251      2246      2247      2248      2251
      2246      2247      2248      2425      2247      2244      2421      2422
      2247      2244      2421      2426      2247      2248      2251      2250
      2247      2248      2251      2252      2247      2248      2425      2426
      2247      2248      2425      2430      2248      2251      2252      2255
      2248      2251      2252      2429      2248      2425      2426      2421
      2248      2425      2426      2427      2248      2425      2430      2429
      2248      2425      2430      2431      2249      2072      2075      2074
      2249      2072      2075      2076      2249      2250      2251      2248
      2249      2250      2251      2252      2249      2254      2255      2252
      2249      2254      2255      2256      2250      2245      2246      2241
      2250      2245      2246      2247      2250      2249      2254      2253
      2250      2249      2254      2255      2250      2251      2252      2255
      2250      2251      2252      2429      2251      2248      2425      2426
      2251      2248      2425      2430      2251      2252      2255      2254
      2251      2252      2255      2256      2251      2252      2429      2434
      2251      2252      2429      2430      2252      2255      2256      2259
      2252      2255      2256      2433      2252      2429      2434      2433
      2252      2429      2434      2435      2252      2429      2430      2425
      2252      2429      2430      2431      2253      2076      2079      2078
      2253      2076      2079      2080      2253      2254      2255      2252
      2253      2254      2255      2256      2253      2258      2259      2256
      2253      2258      2259      2260      2254      2249      2250      2245
      2254      2249      2250      2251      2254      2253      2258      2257
      2254      2253      2258      2259      2254      2255      2256      2259
      2254      2255      2256      2433      2255      2252      2429      2434
      2255      2252      2429      2430      2255      2256      2259      2258
      2255      2256      2259      2260      2255      2256      2433      2438
      2255      2256      2433      2434      2256      2259      2260      2263
      2256      2259      2260      2437      2256      2433      2438      2437
      2256      2433      2438      2439      2256      2433      2434      2429
      2256      2433      2434      2435      2257      2080      2083      2082
      2257      2080      2083      2084      2257      2258      2259      2256
      2257      2258      2259      2260      2257      2262      2263      2260
      2257      2262      2263      2264      2258      2253      2254      2249
      2258      2253      2254      2255      2258      2257      2262      2261
      2258      2257      2262      2263      2258      2259      2260      2263
      2258      2259      2260      2437      2259      2256      2433      2438
      2259      2256      2433      2434      2259      2260      2263      2262
      2259      2260      2263      2264      2259      2260      2437      2442
      2259      2260      2437      2438      2260      2263      2264      2267
      2260      2263      2264      2441      2260      2437      2442      2441
      2260      2437      2442      2443      2260      2437      2438      2433
      2260      2437      2438      2439      2261      2084      2087      2086
      2261      2084      2087      2088      2261      2262      2263      2260
      2261      2262      2263      2264      2261      2266      2267      2264
      2261      2266      2267      2268      2262      2257      2258      2253
      2262      2257      2258      2259      2262      2261      2266      2265
      2262      2261      2266      2267      2262      2263      2264      2267
      2262      2263      2264      2441      2263      2260      2437      2442
      2263      2260      2437      2438      2263      2264      2267      2266
      2263      2264      2267      2268      2263      2264      2441      2442
      2263      2264      2441      2446      2264      2267      2268      2271
      2264      2267      2268      2445      2264      2441      2442      2437
      2264      2441      2442      2443      2264      2441      2446      2445
      2264      2441      2446      2447      2265      2088      2091      2090
      2265      2088      2091      2092      2265      2266      2267      2264
      2265      2266      2267      2268      2265      2270      2271      2268
      2265      2270      2271      2272      2266      2261      2262      2257
      2266      2261      2262      2263      2266      2265      2270      2269
      2266      2265      2270      2271      2266      2267      2268      2271
      2266      2267      2268      2445      2267      2264      2441      2442
      2267      2264      2441      2446      2267      2268      2271      2270
      2267      2268      2271      2272      2267      2268      2445      2446
      2267      2268      2445      2450      2268      2271      2272      2275
      2268      2271      2272      2449      2268      2445      2446      2441
      2268      2445      2446      2447      2268      2445      2450      2449
      2268      2445      2450      2451      2269      2092      2095      2094
      2269      2092      2095      2096      2269      2270      2271      2268
      2269      2270      2271      2272      2269      2274      2275      2272
      2269      2274      2275      2276      2270      2265      2266      2261
      2270      2265      2266      2267      2270      2269      2274      2273
      2270      2269      2274      2275      2270      2271      2272      2275
      2270      2271      2272      2449      2271      2268      2445      2446
      2271      2268      2445      2450      2271      2272      2275      2274
      2271      2272      2275      2276      2271      2272      2449      2454
      2271      2272      2449      2450      2272      2275      2276      2279
      2272      2275      2276      2453      2272      2449      2454      2453
      2272      2449      2454      2455      2272      2449      2450      2445
      2272      2449      2450      2451      2273      2096      2099      2098
      2273      2096      2099      2100      2273      2274      2275      2272
      2273      2274      2275      2276      2273      2278      2279      2276
      2273      2278      2279      2280      2274      2269      2270      2265
      2274      2269      2270      2271      2274      2273      2278      2277
      2274      2273      2278      2279      2274      2275      2276      2279
      2274      2275      2276      2453      2275      2272      2449      2454
      2275      2272      2449      2450      2275      2276      2279      2278
      2275      2276      2279      2280      2275      2276      2453      2458
      2275      2276      2453      2454      2276      2279      2280      2283
      2276      2279      2280      2457      2276      2453      2458      2457
      2276      2453      2458      2459      2276      2453      2454      2449
      2276      2453      2454      2455      2277      2100      2103      2102
      2277      2100      2103      2104      2277      2278      2279      2276
      2277      2278      2279      2280      2277      2282      2283      2280
      2277      2282      2283      2284      2278      2273      2274      2269
      2278      2273      2274      2275      2278      2277      2282      2281
      2278      2277      2282      2283      2278      2279      2280      2283
      2278      2279      2280      2457      2279      2276      2453      2458
      2279      2276      2453      2454      2279      2280      2283      2282
      2279      2280      2283      2284      2279      2280      2457      2462
      2279      2280      2457      2458      2280      2283      2284      2287
      2280      2283      2284      2461      2280      2457      2462      2461
      2280      2457      2462      2463      2280      2457      2458      2453
      2280      2457      2458      2459      2281      2104      2107      2106
      2281      2104      2107      2108      2281      2282      2283      2280
      2281      2282      2283      2284      2281      2286      2287      2284
      2281      2286      2287      2288      2282      2277      2278      2273
      2282      2277      2278      2279      2282      2281      2286      2285
      2282      2281      2286      2287      2282      2283      2284      2287
      2282      2283      2284      2461      2283      2280      2457      2462
      2283      2280      2457      2458      2283      2284      2287      2286
      2283      2284      2287      2288      2283      2284      2461      2462
      2283      2284      2461      2466      2284      2287      2288      2291
      2284      2287      2288      2465      2284      2461      2462      2457
      2284      2461      2462      2463      2284      2461      2466      2465
      2284      2461      2466      2467      2285      2108      2111      2110
      2285      2108      2111      2112      2285      2286      2287      2284
      2285      2286      2287      2288      2285      2290      2291      2288
      2285      2290      2291      2292      2286      2281      2282      2277
      2286      2281      2282      2283      2286      2285      2290      2289
      2286      2285      2290      2291      2286      2287      2288      2291
      2286      2287      2288      2465      2287      2284      2461      2462
      2287      2284      2461      2466      2287      2288      2291      2290
      2287      2288      2291      2292      2287      2288      2465      2466
      2287      2288      2465      2470      2288      2291      2292      2295
      2288      2291      2292      2469      2288      2465      2466      2461
      2288      2465      2466      2467      2288      2465      2470      2469
      2288      2465      2470      2471      2289      2112      2115      2114
      2289      2112      2115      2116      2289      2290      2291      2288
      2289      2290      2291      2292      2289      2294      2295      2292
      2289      2294      2295      2296      2290      2285      2286      2281
      2290      2285      2286      2287      2290      2289      2294      2293
      2290      2289      2294      2295      2290      2291      2292      2295
      2290      2291      2292      2469      2291      2288      2465      2466
      2291      2288      2465      2470      2291      2292      2295      2294
      2291      2292      2295      2296      2291      2292      2469      2474
      2291      2292      2469      2470      2292      2295      2296      2299
      2292      2295      2296      2473      2292      2469      2474      2473
      2292      2469      2474      2475      2292      2469      2470      2465
      2292      2469      2470      2471      2293      2116      2119      2118
      2293      2116      2119      2120      2293      2294      2295      2292
      2293      2294      2295      2296      2293      2298      2299      2296
      2293      2298      2299      2300      2294      2289      2290      2285
      2294      2289      2290      2291      2294      2293      2298      2297
      2294      2293      2298      2299      2294      2295      2296      2299
      2294      2295      2296      2473      2295      2292      2469      2474
      2295      2292      2469      2470      2295      2296      2299      2298
      2295      2296      2299      2300      2295      2296      2473      2478
      2295      2296      2473      2474      2296      2299      2300      2303
      2296      2299      2300      2477      2296      2473      2478      2477
      2296      2473      2478      2479      2296      2473      2474      2469
      2296      2473      2474      2475      2297      2120      2123      2122
      2297      2120      2123      2124      2297      2298      2299      2296
      2297      2298      2299      2300      2297      2302      2303      2300
      2297      2302      2303      2304      2298      2293      2294      2289
      2298      2293      2294      2295      2298      2297      2302      2301
      2298      2297      2302      2303      2298      2299      2300      2303
      2298      2299      2300      2477      2299      2296      2473      2478
      2299      2296      2473      2474      2299      2300      2303      2302
      2299      2300      2303      2304      2299      2300      2477      2482
      2299      2300      2477      2478      2300      2303      2304      2307
      2300      2303      2304      2481      2300      2477      2482      2481
      2300      2477      2482      2483      2300      2477      2478      2473
      2300      2477      2478      2479      2301      2124      2127      2126
      2301      2124      2127      2128      2301      2302      2303      2300
      2301      2302      2303      2304      2301      2306      2307      2304
      2301      2306      2307      2308      2302      2297      2298      2293
      2302      2297      2298      2299      2302      2301      2306      2305
      2302      2301      2306      2307      2302      2303      2304      2307
      2302      2303      2304      2481      2303      2300      2477      2482
      2303      2300      2477      2478      2303      2304      2307      2306
      2303      2304      2307      2308      2303      2304      2481      2482
      2303      2304      2481      2486      2304      2307      2308      2311
      2304      2307      2308      2485      2304      2481      2482      2477
      2304      2481      2482      2483      2304      2481      2486      2485
      2304      2481      2486      2487      2305      2128      2131      2130
      2305      2128      2131      2132      2305      2306      2307      2304
      2305      2306      2307      2308      2305      2310      2311      2308
      2305      2310      2311      2312      2306      2301      2302      2297
      2306      2301      2302      2303      2306      2305      2310      2309
      2306      2305      2310      2311      2306      2307      2308      2311
      2306      2307      2308      2485      2307      2304      2481      2482
      2307      2304      2481      2486      2307      2308      2311      2310
      2307      2308      2311      2312      2307      2308      2485      2486
      2307      2308      2485      2490      2308      2311      2312      2315
      2308      2311      2312      2489      2308      2485      2486      2481
      2308      2485      2486      2487      2308      2485      2490      2489
      2308      2485      2490      2491      2309      2132      2135      2134
      2309      2132      2135      2136      2309      2310      2311      2308
      2309      2310      2311      2312      2309      2314      2315      2312
      2309      2314      2315      2316      2310      2305      2306      2301
      2310      2305      2306      2307      2310      2309      2314      2313
      2310      2309      2314      2315      2310      2311      2312      2315
      2310      2311      2312      2489      2311      2308      2485      2486
      2311      2308      2485      2490      2311      2312      2315      2314
      2311      2312      2315      2316      2311      2312      2489      2494
      2311      2312      2489      2490      2312      2315      2316      2319
      2312      2315      2316      2493      2312      2489      2494      2493
      2312      2489      2494      2495      2312      2489      2490      2485
      2312      2489      2490      2491      2313      2136      2139      2138
      2313      2136      2139      2140      2313      2314      2315      2312
      2313      2314      2315      2316      2313      2318      2319      2316
      2313      2318      2319      2320      2314      2309      2310      2305
      2314      2309      2310      2311      2314      2313      2318      2317
      2314      2313      2318      2319      2314      2315      2316      2319
      2314      2315      2316      2493      2315      2312      2489      2494
      2315      2312      2489      2490      2315      2316      2319      2318
      2315      2316      2319      2320      2315      2316      2493      2498
      2315      2316      2493      2494      2316      2319      2320      2323
      2316      2319      2320      2497      2316      2493      2498      2497
      2316      2493      2498      2499      2316      2493      2494      2489
      2316      2493      2494      2495      2317      2140      2143      2142
      2317      2140      2143      2144      2317      2318      2319      2316
      2317      2318      2319      2320      2317      2322      2323      2320
      2317      2322      2323      2324      2318      2313      2314      2309
      2318      2313      2314      2315      2318      2317      2322      2321
      2318      2317      2322      2323      2318      2319      2320      2323
      2318      2319      2320      2497      2319      2316      2493      2498
      2319      2316      2493      2494      2319      2320      2323      2322
      2319      2320      2323      2324      2319      2320      2497      2502
      2319      2320      2497      2498      2320      2323      2324      2327
      2320      2323      2324      2501      2320      2497      2502      2501
      2320      2497      2502      2503      2320      2497      2498      2493
      2320      2497      2498      2499      2321      2144      2147      2146
      2321      2144      2147      2148      2321      2322      2323      2320
      2321      2322      2323      2324      2321      2326      2327      2324
      2321      2326      2327      2328      2322      2317      2318      2313
      2322      2317      2318      2319      2322      2321      2326      2325
      2322      2321      2326      2327      2322      2323      2324      2327
      2322      2323      2324      2501      2323      2320      2497      2502
      2323      2320      2497      2498      2323      2324      2327      2326
      2323      2324      2327      2328      2323      2324      2501      2502
      2323      2324      2501      2506      2324      2327      2328      2331
      2324      2327      2328      2505      2324      2501      2502      2497
      2324      2501      2502      2503      2324      2501      2506      2505
      2324      2501      2506      2507      2325      2148      2151      2150
      2325      2148      2151      2152      2325      2326      2327      2324
      2325      2326      2327      2328      2325      2330      2331      2328
      2325      2330      2331      2332      2326      2321      2322      2317
      2326      2321      2322      2323      2326      2325      2330      2329
      2326      2325      2330      2331      2326      2327      2328      2331
      2326      2327      2328      2505      2327      2324      2501      2502
      2327      2324      2501      2506      2327      2328      2331      2330
      2327      2328      2331      2332      2327      2328      2505      2506
      2327      2328      2505      2510      2328      2331      2332      2335
      2328      2331      2332      2509      2328      2505      2506      2501
      2328      2505      2506      2507      2328      2505      2510      2509
      2328      2505      2510      2511      2329      2152      2155      2154
      2329      2152      2155      2156      2329      2330      2331      2328
      2329      2330      2331      2332      2329      2334      2335      2332
      2329      2334      2335      2336      2330      2325      2326      2321
      2330      2325      2326      2327      2330      2329      2334      2333
      2330      2329      2334      2335      2330      2331      2332      2335
      2330      2331      2332      2509      2331      2328      2505      2506
      2331      2328      2505      2510      2331      2332      2335      2334
      2331      2332      2335      2336      2331      2332      2509      2514
      2331      2332      2509      2510      2332      2335      2336      2339
      2332      2335      2336      2513      2332      2509      2514      2513
      2332      2509      2514      2515      2332      2509      2510      2505
      2332      2509      2510      2511      2333      2156      2159      2158
      2333      2156      2159      2160      2333      2334      2335      2332
      2333      2334      2335      2336      2333      2338      2339      2336
      2333      2338      2339      2340      2334      2329      2330      2325
      2334      2329      2330      2331      2334      2333      2338      2337
      2334      2333      2338      2339      2334      2335      2336      2339
      2334      2335      2336      2513      2335      2332      2509      2514
      2335      2332      2509      2510      2335      2336      2339      2338
      2335      2336      2339      2340      2335      2336      2513      2518
      2335      2336      2513      2514      2336      2339      2340      2517
      2336      2513      2518      2517      2336      2513      2518      2519
      2336      2513      2514      2509      2336      2513      2514      2515
      2337      2338      2339      2336      2337      2338      2339      2340
      2338      2333      2334      2329      2338      2333      2334      2335
      2338      2339      2340      2517      2339      2336      2513      2518
      2339      2336      2513      2514      2339      2340      2517      2518
      2340      2517      2518      2513      2340      2517      2518      2519
      2341      2164      2167      2166      2341      2164      2167      2168
      2341      2342      2343      2344      2341      2346      2347      2344
      2341      2346      2347      2348      2342      2341      2346      2345
      2342      2341      2346      2347      2342      2343      2344      2347
      2342      2343      2344      2521      2343      2344      2347      2346
      2343      2344      2347      2348      2343      2344      2521      2522
      2343      2344      2521      2526      2344      2347      2348      2351
      2344      2347      2348      2525      2344      2521      2522      2523
      2344      2521      2526      2525      2344      2521      2526      2527
      2345      2168      2171      2170      2345      2168      2171      2172
      2345      2346      2347      2344      2345      2346      2347      2348
      2345      2350      2351      2348      2345      2350      2351      2352
      2346      2341      2342      2343      2346      2345      2350      2349
      2346      2345      2350      2351      2346      2347      2348      2351
      2346      2347      2348      2525      2347      2344      2521      2522
      2347      2344      2521      2526      2347      2348      2351      2350
      2347      2348      2351      2352      2347      2348      2525      2526
      2347      2348      2525      2530      2348      2351      2352      2355
      2348      2351      2352      2529      2348      2525      2526      2521
      2348      2525      2526      2527      2348      2525      2530      2529
      2348      2525      2530      2531      2349      2172      2175      2174
      2349      2172      2175      2176      2349      2350      2351      2348
      2349      2350      2351      2352      2349      2354      2355      2352
      2349      2354      2355      2356      2350      2345      2346      2341
      2350      2345      2346      2347      2350      2349      2354      2353
      2350      2349      2354      2355      2350      2351      2352      2355
      2350      2351      2352      2529      2351      2348      2525      2526
      2351      2348      2525      2530      2351      2352      2355      2354
      2351      2352      2355      2356      2351      2352      2529      2534
      2351      2352      2529      2530      2352      2355      2356      2359
      2352      2355      2356      2533      2352      2529      2534      2533
      2352      2529      2534      2535      2352      2529      2530      2525
      2352      2529      2530      2531      2353      2176      2179      2178
      2353      2176      2179      2180      2353      2354      2355      2352
      2353      2354      2355      2356      2353      2358      2359      2356
      2353      2358      2359      2360      2354      2349      2350      2345
      2354      2349      2350      2351      2354      2353      2358      2357
      2354      2353      2358      2359      2354      2355      2356      2359
      2354      2355      2356      2533      2355      2352      2529      2534
      2355      2352      2529      2530      2355      2356      2359      2358
      2355      2356      2359      2360      2355      2356      2533      2538
      2355      2356      2533      2534      2356      2359      2360      2363
      2356      2359      2360      2537      2356      2533      2538      2537
      2356      2533      2538      2539      2356      2533      2534      2529
      2356      2533      2534      2535      2357      2180      2183      2182
      2357      2180      2183      2184      2357      2358      2359      2356
      2357      2358      2359      2360      2357      2362      2363      2360
      2357      2362      2363      2364      2358      2353      2354      2349
      2358      2353      2354      2355      2358      2357      2362      2361
      2358      2357      2362      2363      2358      2359      2360      2363
      2358      2359      2360      2537      2359      2356      2533      2538
      2359      2356      2533      2534      2359      2360      2363      2362
      2359      2360      2363      2364      2359      2360      2537      2542
      2359      2360      2537      2538      2360      2363      2364      2367
      2360      2363      2364      2541      2360      2537      2542      2541
      2360      2537      2542      2543      2360      2537      2538      2533
      2360      2537      2538      2539      2361      2184      2187      2186
      2361      2184      2187      2188      2361      2362      2363      2360
      2361      2362      2363      2364      2361      2366      2367      2364
      2361      2366      2367      2368      2362      2357      2358      2353
      2362      2357      2358      2359      2362      2361      2366      2365
      2362      2361      2366      2367      2362      2363      2364      2367
      2362      2363      2364      2541      2363      2360      2537      2542
      2363      2360      2537      2538      2363      2364      2367      2366
      2363      2364      2367      2368      2363      2364      2541      2542
      2363      2364      2541      2546      2364      2367      2368      2371
      2364      2367      2368      2545      2364      2541      2542      2537
      2364      2541      2542      2543      2364      2541      2546      2545
      2364      2541      2546      2547      2365      2188      2191      2190
      2365      2188      2191      2192      2365      2366      2367      2364
      2365      2366      2367      2368      2365      2370      2371      2368
      2365      2370      2371      2372      2366      2361      2362      2357
      2366      2361      2362      2363      2366      2365      2370      2369
      2366      2365      2370      2371      2366      2367      2368      2371
      2366      2367      2368      2545      2367      2364      2541      2542
      2367      2364      2541      2546      2367      2368      2371      2370
      2367      2368      2371      2372      2367      2368      2545      2546
      2367      2368      2545      2550      2368      2371      2372      2375
      2368      2371      2372      2549      2368      2545      2546      2541
      2368      2545      2546      2547      2368      2545      2550      2549
      2368      2545      2550      2551      2369      2192      2195      2194
      2369      2192      2195      2196      2369      2370      2371      2368
      2369      2370      2371      2372      2369      2374      2375      2372
      2369      2374      2375      2376      2370      2365      2366      2361
      2370      2365      2366      2367      2370      2369      2374      2373
      2370      2369      2374      2375      2370      2371      2372      2375
      2370      2371      2372      2549      2371      2368      2545      2546
      2371      2368      2545      2550      2371      2372      2375      2374
      2371      2372      2375      2376      2371      2372      2549      2554
      2371      2372      2549      2550      2372      2375      2376      2379
      2372      2375      2376      2553      2372      2549      2554      2553
      2372      2549      2554      2555      2372      2549      2550      2545
      2372      2549      2550      2551      2373      2196      2199      2198
      2373      2196      2199      2200      2373      2374      2375      2372
      2373      2374      2375      2376      2373      2378      2379      2376
      2373      2378      2379      2380      2374      2369      2370      2365
      2374      2369      2370      2371      2374      2373      2378      2377
      2374      2373      2378      2379      2374      2375      2376      2379
      2374      2375      2376      2553      2375      2372      2549      2554
      2375      2372      2549      2550      2375      2376      2379      2378
      2375      2376      2379      2380      2375      2376      2553      2558
      2375      2376      2553      2554      2376      2379      2380      2383
      2376      2379      2380      2557      2376      2553      2558      2557
      2376      2553      2558      2559      2376      2553      2554      2549
      2376      2553      2554      2555      2377      2200      2203      2202
      2377      2200      2203      2204      2377      2378      2379      2376
      2377      2378      2379      2380      2377      2382      2383      2380
      2377      2382      2383      2384      2378      2373      2374      2369
      2378      2373      2374      2375      2378      2377      2382      2381
      2378      2377      2382      2383      2378      2379      2380      2383
      2378      2379      2380      2557      2379      2376      2553      2558
      2379      2376      2553      2554      2379      2380      2383      2382
      2379      2380      2383      2384      2379      2380      2557      2562
      2379      2380      2557      2558      2380      2383      2384      2387
      2380      2383      2384      2561      2380      2557      2562      2561
      2380      2557      2562      2563      2380      2557      2558      2553
      2380      2557      2558      2559      2381      2204      2207      2206
      2381      2204      2207      2208      2381      2382      2383      2380
      2381      2382      2383      2384      2381      2386      2387      2384
      2381      2386      2387      2388      2382      2377      2378      2373
      2382      2377      2378      2379      2382      2381      2386      2385
      2382      2381      2386      2387      2382      2383      2384      2387
      2382      2383      2384      2561      2383      2380      2557      2562
      2383      2380      2557      2558      2383      2384      2387      2386
      2383      2384      2387      2388      2383      2384      2561      2562
      2383      2384      2561      2566      2384      2387      2388      2391
      2384      2387      2388      2565      2384      2561      2562      2557
      2384      2561      2562      2563      2384      2561      2566      2565
      2384      2561      2566      2567      2385      2208      2211      2210
      2385      2208      2211      2212      2385      2386      2387      2384
      2385      2386      2387      2388      2385      2390      2391      2388
      2385      2390      2391      2392      2386      2381      2382      2377
      2386      2381      2382      2383      2386      2385      2390      2389
      2386      2385      2390      2391      2386      2387      2388      2391
      2386      2387      2388      2565      2387      2384      2561      2562
      2387      2384      2561      2566      2387      2388      2391      2390
      2387      2388      2391      2392      2387      2388      2565      2566
      2387      2388      2565      2570      2388      2391      2392      2395
      2388      2391      2392      2569      2388      2565      2566      2561
      2388      2565      2566      2567      2388      2565      2570      2569
      2388      2565      2570      2571      2389      2212      2215      2214
      2389      2212      2215      2216      2389      2390      2391      2388
      2389      2390      2391      2392      2389      2394      2395      2392
      2389      2394      2395      2396      2390      2385      2386      2381
      2390      2385      2386      2387      2390      2389      2394      2393
      2390      2389      2394      2395      2390      2391      2392      2395
      2390      2391      2392      2569      2391      2388      2565      2566
      2391      2388      2565      2570      2391      2392      2395      2394
      2391      2392      2395      2396      2391      2392      2569      2574
      2391      2392      2569      2570      2392      2395      2396      2399
      2392      2395      2396      2573      2392      2569      2574      2573
      2392      2569      2574      2575      2392      2569      2570      2565
      2392      2569      2570      2571      2393      2216      2219      2218
      2393      2216      2219      2220      2393      2394      2395      2392
      2393      2394      2395      2396      2393      2398      2399      2396
      2393      2398      2399      2400      2394      2389      2390      2385
      2394      2389      2390      2391      2394      2393      2398      2397
      2394      2393      2398      2399      2394      2395      2396      2399
      2394      2395      2396      2573      2395      2392      2569      2574
      2395      2392      2569      2570      2395      2396      2399      2398
      2395      2396      2399      2400      2395      2396      2573      2578
      2395      2396      2573      2574      2396      2399      2400      2403
      2396      2399      2400      2577      2396      2573      2578      2577
      2396      2573      2578      2579      2396      2573      2574      2569
      2396      2573      2574      2575      2397      2220      2223      2222
      2397      2220      2223      2224      2397      2398      2399      2396
      2397      2398      2399      2400      2397      2402      2403      2400
      2397      2402      2403      2404      2398      2393      2394      2389
      2398      2393      2394      2395      2398      2397      2402      2401
      2398      2397      2402      2403      2398      2399      2400      2403
      2398      2399      2400      2577      2399      2396      2573      2578
      2399      2396      2573      2574      2399      2400      2403      2402
      2399      2400      2403      2404      2399      2400      2577      2582
      2399      2400      2577      2578      2400      2403      2404      2407
      2400      2403      2404      2581      2400      2577      2582      2581
      2400      2577      2582      2583      2400      2577      2578      2573
      2400      2577      2578      2579      2401      2224      2227      2226
      2401      2224      2227      2228      2401      2402      2403      2400
      2401      2402      2403      2404      2401      2406      2407      2404
      2401      2406      2407      2408      2402      2397      2398      2393
      2402      2397      2398      2399      2402      2401      2406      2405
      2402      2401      2406      2407      2402      2403      2404      2407
      2402      2403      2404      2581      2403      2400      2577      2582
      2403      2400      2577      2578      2403      2404      2407      2406
      2403      2404      2407      2408      2403      2404      2581      2582
      2403      2404      2581      2586      2404      2407      2408      2411
      2404      2407      2408      2585      2404      2581      2582      2577
      2404      2581      2582      2583      2404      2581      2586      2585
      2404      2581      2586      2587      2405      2228      2231      2230
      2405      2228      2231      2232      2405      2406      2407      2404
      2405      2406      2407      2408      2405      2410      2411      2408
      2405      2410      2411      2412      2406      2401      2402      2397
      2406      2401      2402      2403      2406      2405      2410      2409
      2406      2405      2410      2411      2406      2407      2408      2411
      2406      2407      2408      2585      2407      2404      2581      2582
      2407      2404      2581      2586      2407      2408      2411      2410
      2407      2408      2411      2412      2407      2408      2585      2586
      2407      2408      2585      2590      2408      2411      2412      2415
      2408      2411      2412      2589      2408      2585      2586      2581
      2408      2585      2586      2587      2408      2585      2590      2589
      2408      2585      2590      2591      2409      2232      2235      2234
      2409      2232      2235      2236      2409      2410      2411      2408
      2409      2410      2411      2412      2409      2414      2415      2412
      2409      2414      2415      2416      2410      2405      2406      2401
      2410      2405      2406      2407      2410      2409      2414      2413
      2410      2409      2414      2415      2410      2411      2412      2415
      2410      2411      2412      2589      2411      2408      2585      2586
      2411      2408      2585      2590      2411      2412      2415      2414
      2411      2412      2415      2416      2411      2412      2589      2594
      2411      2412      2589      2590      2412      2415      2416      2419
      2412      2415      2416      2593      2412      2589      2594      2593
      2412      2589      2594      2595      2412      2589      2590      2585
      2412      2589      2590      2591      2413      2236      2239      2238
      2413      2236      2239      2240      2413      2414      2415      2412
      2413      2414      2415      2416      2413      2418      2419      2416
      2413      2418      2419      2420      2414      2409      2410      2405
      2414      2409      2410      2411      2414      2413      2418      2417
      2414      2413      2418      2419      2414      2415      2416      2419
      2414      2415      2416      2593      2415      2412      2589      2594
      2415      2412      2589      2590      2415      2416      2419      2418
      2415      2416      2419      2420      2415      2416      2593      2598
      2415      2416      2593      2594      2416      2419      2420      2423
      2416      2419      2420      2597      2416      2593      2598      2597
      2416      2593      2598      2599      2416      2593      2594      2589
      2416      2593      2594      2595      2417      2240      2243      2242
      2417      2240      2243      2244      2417      2418      2419      2416
      2417      2418      2419      2420      2417      2422      2423      2420
      2417      2422      2423      2424      2418      2413      2414      2409
      2418      2413      2414      2415      2418      2417      2422      2421
      2418      2417      2422      2423      2418      2419      2420      2423
      2418      2419      2420      2597      2419      2416      2593      2598
      2419      2416      2593      2594      2419      2420      2423      2422
      2419      2420      2423      2424      2419      2420      2597      2602
      2419      2420      2597      2598      2420      2423      2424      2427
      2420      2423      2424      2601      2420      2597      2602      2601
      2420      2597      2602      2603      2420      2597      2598      2593
      2420      2597      2598      2599      2421      2244      2247      2246
      2421      2244      2247      2248      2421      2422      2423      2420
      2421      2422      2423      2424      2421      2426      2427      2424
      2421      2426      2427      2428      2422      2417      2418      2413
      2422      2417      2418      2419      2422      2421      2426      2425
      2422      2421      2426      2427      2422      2423      2424      2427
      2422      2423      2424      2601      2423      2420      2597      2602
      2423      2420      2597      2598      2423      2424      2427      2426
      2423      2424      2427      2428      2423      2424      2601      2602
      2423      2424      2601      2606      2424      2427      2428      2431
      2424      2427      2428      2605      2424      2601      2602      2597
      2424      2601      2602      2603      2424      2601      2606      2605
      2424      2601      2606      2607      2425      2248      2251      2250
      2425      2248      2251      2252      2425      2426      2427      2424
      2425      2426      2427      2428      2425      2430      2431      2428
      2425      2430      2431      2432      2426      2421      2422      2417
      2426      2421      2422      2423      2426      2425      2430      2429
      2426      2425      2430      2431      2426      2427      2428      2431
      2426      2427      2428      2605      2427      2424      2601      2602
      2427      2424      2601      2606      2427      2428      2431      2430
      2427      2428      2431      2432      2427      2428      2605      2606
      2427      2428      2605      2610      2428      2431      2432      2435
      2428      2431      2432      2609      2428      2605      2606      2601
      2428      2605      2606      2607      2428      2605      2610      2609
      2428      2605      2610      2611      2429      2252      2255      2254
      2429      2252      2255      2256      2429      2430      2431      2428
      2429      2430      2431      2432      2429      2434      2435      2432
      2429      2434      2435      2436      2430      2425      2426      2421
      2430      2425      2426      2427      2430      2429      2434      2433
      2430      2429      2434      2435      2430      2431      2432      2435
      2430      2431      2432      2609      2431      2428      2605      2606
      2431      2428      2605      2610      2431      2432      2435      2434
      2431      2432      2435      2436      2431      2432      2609      2614
      2431      2432      2609      2610      2432      2435      2436      2439
      2432      2435      2436      2613      2432      2609      2614      2613
      2432      2609      2614      2615      2432      2609      2610      2605
      2432      2609      2610      2611      2433      2256      2259      2258
      2433      2256      2259      2260      2433      2434      2435      2432
      2433      2434      2435      2436      2433      2438      2439      2436
      2433      2438      2439      2440      2434      2429      2430      2425
      2434      2429      2430      2431      2434      2433      2438      2437
      2434      2433      2438      2439      2434      2435      2436      2439
      2434      2435      2436      2613      2435      2432      2609      2614
      2435      2432      2609      2610      2435      2436      2439      2438
      2435      2436      2439      2440      2435      2436      2613      2618
      2435      2436      2613      2614      2436      2439      2440      2443
      2436      2439      2440      2617      2436      2613      2618      2617
      2436      2613      2618      2619      2436      2613      2614      2609
      2436      2613      2614      2615      2437      2260      2263      2262
      2437      2260      2263      2264      2437      2438      2439      2436
      2437      2438      2439      2440      2437      2442      2443      2440
      2437      2442      2443      2444      2438      2433      2434      2429
      2438      2433      2434      2435      2438      2437      2442      2441
      2438      2437      2442      2443      2438      2439      2440      2443
      2438      2439      2440      2617      2439      2436      2613      2618
      2439      2436      2613      2614      2439      2440      2443      2442
      2439      2440      2443      2444      2439      2440      2617      2622
      2439      2440      2617      2618      2440      2443      2444      2447
      2440      2443      2444      2621      2440      2617      2622      2621
      2440      2617      2622      2623      2440      2617      2618      2613
      2440      2617      2618      2619      2441      2264      2267      2266
      2441      2264      2267      2268      2441      2442      2443      2440
      2441      2442      2443      2444      2441      2446      2447      2444
      2441      2446      2447      2448      2442      2437      2438      2433
      2442      2437      2438      2439      2442      2441      2446      2445
      2442      2441      2446      2447      2442      2443      2444      2447
      2442      2443      2444      2621      2443      2440      2617      2622
      2443      2440      2617      2618      2443      2444      2447      2446
      2443      2444      2447      2448      2443      2444      2621      2622
      2443      2444      2621      2626      2444      2447      2448      2451
      2444      2447      2448      2625      2444      2621      2622      2617
      2444      2621      2622      2623      2444      2621      2626      2625
      2444      2621      2626      2627      2445      2268      2271      2270
      2445      2268      2271      2272      2445      2446      2447      2444
      2445      2446      2447      2448      2445      2450      2451      2448
      2445      2450      2451      2452      2446      2441      2442      2437
      2446      2441      2442      2443      2446      2445      2450      2449
      2446      2445      2450      2451      2446      2447      2448      2451
      2446      2447      2448      2625      2447      2444      2621      2622
      2447      2444      2621      2626      2447      2448      2451      2450
      2447      2448      2451      2452      2447      2448      2625      2626
      2447      2448      2625      2630      2448      2451      2452      2455
      2448      2451      2452      2629      2448      2625      2626      2621
      2448      2625      2626      2627      2448      2625      2630      2629
      2448      2625      2630      2631      2449      2272      2275      2274
      2449      2272      2275      2276      2449      2450      2451      2448
      2449      2450      2451      2452      2449      2454      2455      2452
      2449      2454      2455      2456      2450      2445      2446      2441
      2450      2445      2446      2447      2450      2449      2454      2453
      2450      2449      2454      2455      2450      2451      2452      2455
      2450      2451      2452      2629      2451      2448      2625      2626
      2451      2448      2625      2630      2451      2452      2455      2454
      2451      2452      2455      2456      2451      2452      2629      2634
      2451      2452      2629      2630      2452      2455      2456      2459
      2452      2455      2456      2633      2452      2629      2634      2633
      2452      2629      2634      2635      2452      2629      2630      2625
      2452      2629      2630      2631      2453      2276      2279      2278
      2453      2276      2279      2280      2453      2454      2455      2452
      2453      2454      2455      2456      2453      2458      2459      2456
      2453      2458      2459      2460      2454      2449      2450      2445
      2454      2449      2450      2451      2454      2453      2458      2457
      2454      2453      2458      2459      2454      2455      2456      2459
      2454      2455      2456      2633      2455      2452      2629      2634
      2455      2452      2629      2630      2455      2456      2459      2458
      2455      2456      2459      2460      2455      2456      2633      2634
      2455      2456      2633      2638      2456      2459      2460      2463
      2456      2459      2460      2637      2456      2633      2634      2629
      2456      2633      2634      2635      2456      2633      2638      2637
      2456      2633      2638      2639      2457      2280      2283      2282
      2457      2280      2283      2284      2457      2458      2459      2456
      2457      2458      2459      2460      2457      2462      2463      2460
      2457      2462      2463      2464      2458      2453      2454      2449
      2458      2453      2454      2455      2458      2457      2462      2461
      2458      2457      2462      2463      2458      2459      2460      2463
      2458      2459      2460      2637      2459      2456      2633      2634
      2459      2456      2633      2638      2459      2460      2463      2462
      2459      2460      2463      2464      2459      2460      2637      2642
      2459      2460      2637      2638      2460      2463      2464      2467
      2460      2463      2464      2641      2460      2637      2642      2641
      2460      2637      2642      2643      2460      2637      2638      2633
      2460      2637      2638      2639      2461      2284      2287      2286
      2461      2284      2287      2288      2461      2462      2463      2460
      2461      2462      2463      2464      2461      2466      2467      2464
      2461      2466      2467      2468      2462      2457      2458      2453
      2462      2457      2458      2459      2462      2461      2466      2465
      2462      2461      2466      2467      2462      2463      2464      2467
      2462      2463      2464      2641      2463      2460      2637      2642
      2463      2460      2637      2638      2463      2464      2467      2466
      2463      2464      2467      2468      2463      2464      2641      2642
      2463      2464      2641      2646      2464      2467      2468      2471
      2464      2467      2468      2645      2464      2641      2642      2637
      2464      2641      2642      2643      2464      2641      2646      2645
      2464      2641      2646      2647      2465      2288      2291      2290
      2465      2288      2291      2292      2465      2466      2467      2464
      2465      2466      2467      2468      2465      2470      2471      2468
      2465      2470      2471      2472      2466      2461      2462      2457
      2466      2461      2462      2463      2466      2465      2470      2469
      2466      2465      2470      2471      2466      2467      2468      2471
      2466      2467      2468      2645      2467      2464      2641      2642
      2467      2464      2641      2646      2467      2468      2471      2470
      2467      2468      2471      2472      2467      2468      2645      2646
      2467      2468      2645      2650      2468      2471      2472      2475
      2468      2471      2472      2649      2468      2645      2646      2641
      2468      2645      2646      2647      2468      2645      2650      2649
      2468      2645      2650      2651      2469      2292      2295      2294
      2469      2292      2295      2296      2469      2470      2471      2468
      2469      2470      2471      2472      2469      2474      2475      2472
      2469      2474      2475      2476      2470      2465      2466      2461
      2470      2465      2466      2467      2470      2469      2474      2473
      2470      2469      2474      2475      2470      2471      2472      2475
      2470      2471      2472      2649      2471      2468      2645      2646
      2471      2468      2645      2650      2471      2472      2475      2474
      2471      2472      2475      2476      2471      2472      2649      2654
      2471      2472      2649      2650      2472      2475      2476      2479
      2472      2475      2476      2653      2472      2649      2654      2653
      2472      2649      2654      2655      2472      2649      2650      2645
      2472      2649      2650      2651      2473      2296      2299      2298
      2473      2296      2299      2300      2473      2474      2475      2472
      2473      2474      2475      2476      2473      2478      2479      2476
      2473      2478      2479      2480      2474      2469      2470      2465
      2474      2469      2470      2471      2474      2473      2478      2477
      2474      2473      2478      2479      2474      2475      2476      2479
      2474      2475      2476      2653      2475      2472      2649      2654
      2475      2472      2649      2650      2475      2476      2479      2478
      2475      2476      2479      2480      2475      2476      2653      2658
      2475      2476      2653      2654      2476      2479      2480      2483
      2476      2479      2480      2657      2476      2653      2658      2657
      2476      2653      2658      2659      2476      2653      2654      2649
      2476      2653      2654      2655      2477      2300      2303      2302
      2477      2300      2303      2304      2477      2478      2479      2476
      2477      2478      2479      2480      2477      2482      2483      2480
      2477      2482      2483      2484      2478      2473      2474      2469
      2478      2473      2474      2475      2478      2477      2482      2481
      2478      2477      2482      2483      2478      2479      2480      2483
      2478      2479      2480      2657      2479      2476      2653      2658
      2479      2476      2653      2654      2479      2480      2483      2482
      2479      2480      2483      2484      2479      2480      2657      2662
      2479      2480      2657      2658      2480      2483      2484      2487
      2480      2483      2484      2661      2480      2657      2662      2661
      2480      2657      2662      2663      2480      2657      2658      2653
      2480      2657      2658      2659      2481      2304      2307      2306
      2481      2304      2307      2308      2481      2482      2483      2480
      2481      2482      2483      2484      2481      2486      2487      2484
      2481      2486      2487      2488      2482      2477      2478      2473
      2482      2477      2478      2479      2482      2481      2486      2485
      2482      2481      2486      2487      2482      2483      2484      2487
      2482      2483      2484      2661      2483      2480      2657      2662
      2483      2480      2657      2658      2483      2484      2487      2486
      2483      2484      2487      2488      2483      2484      2661      2662
      2483      2484      2661      2666      2484      2487      2488      2491
      2484      2487      2488      2665      2484      2661      2662      2657
      2484      2661      2662      2663      2484      2661      2666      2665
      2484      2661      2666      2667      2485      2308      2311      2310
      2485      2308      2311      2312      2485      2486      2487      2484
      2485      2486      2487      2488      2485      2490      2491      2488
      2485      2490      2491      2492      2486      2481      2482      2477
      2486      2481      2482      2483      2486      2485      2490      2489
      2486      2485      2490      2491      2486      2487      2488      2491
      2486      2487      2488      2665      2487      2484      2661      2662
      2487      2484      2661      2666      2487      2488      2491      2490
      2487      2488      2491      2492      2487      2488      2665      2666
      2487      2488      2665      2670      2488      2491      2492      2495
      2488      2491      2492      2669      2488      2665      2666      2661
      2488      2665      2666      2667      2488      2665      2670      2669
      2488      2665      2670      2671      2489      2312      2315      2314
      2489      2312      2315      2316      2489      2490      2491      2488
      2489      2490      2491      2492      2489      2494      2495      2492
      2489      2494      2495      2496      2490      2485      2486      2481
      2490      2485      2486      2487      2490      2489      2494      2493
      2490      2489      2494      2495      2490      2491      2492      2495
      2490      2491      2492      2669      2491      2488      2665      2666
      2491      2488      2665      2670      2491      2492      2495      2494
      2491      2492      2495      2496      2491      2492      2669      2674
      2491      2492      2669      2670      2492      2495      2496      2499
      2492      2495      2496      2673      2492      2669      2674      2673
      2492      2669      2674      2675      2492      2669      2670      2665
      2492      2669      2670      2671      2493      2316      2319      2318
      2493      2316      2319      2320      2493      2494      2495      2492
      2493      2494      2495      2496      2493      2498      2499      2496
      2493      2498      2499      2500      2494      2489      2490      2485
      2494      2489      2490      2491      2494      2493      2498      2497
      2494      2493      2498      2499      2494      2495      2496      2499
      2494      2495      2496      2673      2495      2492      2669      2674
      2495      2492      2669      2670      2495      2496      2499      2498
      2495      2496      2499      2500      2495      2496      2673      2678
      2495      2496      2673      2674      2496      2499      2500      2503
      2496      2499      2500      2677      2496      2673      2678      2677
      2496      2673      2678      2679      2496      2673      2674      2669
      2496      2673      2674      2675      2497      2320      2323      2322
      2497      2320      2323      2324      2497      2498      2499      2496
      2497      2498      2499      2500      2497      2502      2503      2500
      2497      2502      2503      2504      2498      2493      2494      2489
      2498      2493      2494      2495      2498      2497      2502      2501
      2498      2497      2502      2503      2498      2499      2500      2503
      2498      2499      2500      2677      2499      2496      2673      2678
      2499      2496      2673      2674      2499      2500      2503      2502
      2499      2500      2503      2504      2499      2500      2677      2682
      2499      2500      2677      2678      2500      2503      2504      2507
      2500      2503      2504      2681      2500      2677      2682      2681
      2500      2677      2682      2683      2500      2677      2678      2673
      2500      2677      2678      2679      2501      2324      2327      2326
      2501      2324      2327      2328      2501      2502      2503      2500
      2501      2502      2503      2504      2501      2506      2507      2504
      2501      2506      2507      2508      2502      2497      2498      2493
      2502      2497      2498      2499      2502      2501      2506      2505
      2502      2501      2506      2507      2502      2503      2504      2507
      2502      2503      2504      2681      2503      2500      2677      2682
      2503      2500      2677      2678      2503      2504      2507      2506
      2503      2504      2507      2508      2503      2504      2681      2682
      2503      2504      2681      2686      2504      2507      2508      2511
      2504      2507      2508      2685      2504      2681      2682      2677
      2504      2681      2682      2683      2504      2681      2686      2685
      2504      2681      2686      2687      2505      2328      2331      2330
      2505      2328      2331      2332      2505      2506      2507      2504
      2505      2506      2507      2508      2505      2510      2511      2508
      2505      2510      2511      2512      2506      2501      2502      2497
      2506      2501      2502      2503      2506      2505      2510      2509
      2506      2505      2510      2511      2506      2507      2508      2511
      2506      2507      2508      2685      2507      2504      2681      2682
      2507      2504      2681      2686      2507      2508      2511      2510
      2507      2508      2511      2512      2507      2508      2685      2686
      2507      2508      2685      2690      2508      2511      2512      2515
      2508      2511      2512      2689      2508      2685      2686      2681
      2508      2685      2686      2687      2508      2685      2690      2689
      2508      2685      2690      2691      2509      2332      2335      2334
      2509      2332      2335      2336      2509      2510      2511      2508
      2509      2510      2511      2512      2509      2514      2515      2512
      2509      2514      2515      2516      2510      2505      2506      2501
      2510      2505      2506      2507      2510      2509      2514      2513
      2510      2509      2514      2515      2510      2511      2512      2515
      2510      2511      2512      2689      2511      2508      2685      2686
      2511      2508      2685      2690      2511      2512      2515      2514
      2511      2512      2515      2516      2511      2512      2689      2694
      2511      2512      2689      2690      2512      2515      2516      2519
      2512      2515      2516      2693      2512      2689      2694      2693
      2512      2689      2694      2695      2512      2689      2690      2685
      2512      2689      2690      2691      2513      2336      2339      2338
      2513      2336      2339      2340      2513      2514      2515      2512
      2513      2514      2515      2516      2513      2518      2519      2516
      2513      2518      2519      2520      2514      2509      2510      2505
      2514      2509      2510      2511      2514      2513      2518      2517
      2514      2513      2518      2519      2514      2515      2516      2519
      2514      2515      2516      2693      2515      2512      2689      2694
      2515      2512      2689      2690      2515      2516      2519      2518
      2515      2516      2519      2520      2515      2516      2693      2698
      2515      2516      2693      2694      2516      2519      2520      2697
      2516      2693      2698      2697      2516      2693      2698      2699
      2516      2693      2694      2689      2516      2693      2694      2695
      2517      2518      2519      2516      2517      2518      2519      2520
      2518      2513      2514      2509      2518      2513      2514      2515
      2518      2519      2520      2697      2519      2516      2693      2698
      2519      2516      2693      2694      2519      2520      2697      2698
      2520      2697      2698      2693      2520      2697      2698      2699
      2521      2344      2347      2346      2521      2344      2347      2348
      2521      2522      2523      2524      2521      2526      2527      2524
      2521      2526      2527      2528      2522      2521      2526      2525
      2522      2521      2526      2527      2522      2523      2524      2527
      2522      2523      2524      2701      2523      2524      2527      2526
      2523      2524      2527      2528      2523      2524      2701      2702
      2523      2524      2701      2706      2524      2527      2528      2531
      2524      2527      2528      2705      2524      2701      2702      2703
      2524      2701      2706      2705      2524      2701      2706      2707
      2525      2348      2351      2350      2525      2348      2351      2352
      2525      2526      2527      2524      2525      2526      2527      2528
      2525      2530      2531      2528      2525      2530      2531      2532
      2526      2521      2522      2523      2526      2525      2530      2529
      2526      2525      2530      2531      2526      2527      2528      2531
      2526      2527      2528      2705      2527      2524      2701      2702
      2527      2524      2701      2706      2527      2528      2531      2530
      2527      2528      2531      2532      2527      2528      2705      2706
      2527      2528      2705      2710      2528      2531      2532      2535
      2528      2531      2532      2709      2528      2705      2706      2701
      2528      2705      2706      2707      2528      2705      2710      2709
      2528      2705      2710      2711      2529      2352      2355      2354
      2529      2352      2355      2356      2529      2530      2531      2528
      2529      2530      2531      2532      2529      2534      2535      2532
      2529      2534      2535      2536      2530      2525      2526      2521
      2530      2525      2526      2527      2530      2529      2534      2533
      2530      2529      2534      2535      2530      2531      2532      2535
      2530      2531      2532      2709      2531      2528      2705      2706
      2531      2528      2705      2710      2531      2532      2535      2534
      2531      2532      2535      2536      2531      2532      2709      2714
      2531      2532      2709      2710      2532      2535      2536      2539
      2532      2535      2536      2713      2532      2709      2714      2713
      2532      2709      2714      2715      2532      2709      2710      2705
      2532      2709      2710      2711      2533      2356      2359      2358
      2533      2356      2359      2360      2533      2534      2535      2532
      2533      2534      2535      2536      2533      2538      2539      2536
      2533      2538      2539      2540      2534      2529      2530      2525
      2534      2529      2530      2531      2534      2533      2538      2537
      2534      2533      2538      2539      2534      2535      2536      2539
      2534      2535      2536      2713      2535      2532      2709      2714
      2535      2532      2709      2710      2535      2536      2539      2538
      2535      2536      2539      2540      2535      2536      2713      2718
      2535      2536      2713      2714      2536      2539      2540      2543
      2536      2539      2540      2717      2536      2713      2718      2717
      2536      2713      2718      2719      2536      2713      2714      2709
      2536      2713      2714      2715      2537      2360      2363      2362
      2537      2360      2363      2364      2537      2538      2539      2536
      2537      2538      2539      2540      2537      2542      2543      2540
      2537      2542      2543      2544      2538      2533      2534      2529
      2538      2533      2534      2535      2538      2537      2542      2541
      2538      2537      2542      2543      2538      2539      2540      2543
      2538      2539      2540      2717      2539      2536      2713      2718
      2539      2536      2713      2714      2539      2540      2543      2542
      2539      2540      2543      2544      2539      2540      2717      2722
      2539      2540      2717      2718      2540      2543      2544      2547
      2540      2543      2544      2721      2540      2717      2722      2721
      2540      2717      2722      2723      2540      2717      2718      2713
      2540      2717      2718      2719      2541      2364      2367      2366
      2541      2364      2367      2368      2541      2542      2543      2540
      2541      2542      2543      2544      2541      2546      2547      2544
      2541      2546      2547      2548      2542      2537      2538      2533
      2542      2537      2538      2539      2542      2541      2546      2545
      2542      2541      2546      2547      2542      2543      2544      2547
      2542      2543      2544      2721      2543      2540      2717      2722
      2543      2540      2717      2718      2543      2544      2547      2546
      2543      2544      2547      2548      2543      2544      2721      2722
      2543      2544      2721      2726      2544      2547      2548      2551
      2544      2547      2548      2725      2544      2721      2722      2717
      2544      2721      2722      2723      2544      2721      2726      2725
      2544      2721      2726      2727      2545      2368      2371      2370
      2545      2368      2371      2372      2545      2546      2547      2544
      2545      2546      2547      2548      2545      2550      2551      2548
      2545      2550      2551      2552      2546      2541      2542      2537
      2546      2541      2542      2543      2546      2545      2550      2549
      2546      2545      2550      2551      2546      2547      2548      2551
      2546      2547      2548      2725      2547      2544      2721      2722
      2547      2544      2721      2726      2547      2548      2551      2550
      2547      2548      2551      2552      2547      2548      2725      2726
      2547      2548      2725      2730      2548      2551      2552      2555
      2548      2551      2552      2729      2548      2725      2726      2721
      2548      2725      2726      2727      2548      2725      2730      2729
      2548      2725      2730      2731      2549      2372      2375      2374
      2549      2372      2375      2376      2549      2550      2551      2548
      2549      2550      2551      2552      2549      2554      2555      2552
      2549      2554      2555      2556      2550      2545      2546      2541
      2550      2545      2546      2547      2550      2549      2554      2553
      2550      2549      2554      2555      2550      2551      2552      2555
      2550      2551      2552      2729      2551      2548      2725      2726
      2551      2548      2725      2730      2551      2552      2555      2554
      2551      2552      2555      2556      2551      2552      2729      2734
      2551      2552      2729      2730      2552      2555      2556      2559
      2552      2555      2556      2733      2552      2729      2734      2733
      2552      2729      2734      2735      2552      2729      2730      2725
      2552      2729      2730      2731      2553      2376      2379      2378
      2553      2376      2379      2380      2553      2554      2555      2552
      2553      2554      2555      2556      2553      2558      2559      2556
      2553      2558      2559      2560      2554      2549      2550      2545
      2554      2549      2550      2551      2554      2553      2558      2557
      2554      2553      2558      2559      2554      2555      2556      2559
      2554      2555      2556      2733      2555      2552      2729      2734
      2555      2552      2729      2730      2555      2556      2559      2558
      2555      2556      2559      2560      2555      2556      2733      2738
      2555      2556      2733      2734      2556      2559      2560      2563
      2556      2559      2560      2737      2556      2733      2738      2737
      2556      2733      2738      2739      2556      2733      2734      2729
      2556      2733      2734      2735      2557      2380      2383      2382
      2557      2380      2383      2384      2557      2558      2559      2556
      2557      2558      2559      2560      2557      2562      2563      2560
      2557      2562      2563      2564      2558      2553      2554      2549
      2558      2553      2554      2555      2558      2557      2562      2561
      2558      2557      2562      2563      2558      2559      2560      2563
      2558      2559      2560      2737      2559      2556      2733      2738
      2559      2556      2733      2734      2559      2560      2563      2562
      2559      2560      2563      2564      2559      2560      2737      2742
      2559      2560      2737      2738      2560      2563      2564      2567
      2560      2563      2564      2741      2560      2737      2742      2741
      2560      2737      2742      2743      2560      2737      2738      2733
      2560      2737      2738      2739      2561      2384      2387      2386
      2561      2384      2387      2388      2561      2562      2563      2560
      2561      2562      2563      2564      2561      2566      2567      2564
      2561      2566      2567      2568      2562      2557      2558      2553
      2562      2557      2558      2559      2562      2561      2566      2565
      2562      2561      2566      2567      2562      2563      2564      2567
      2562      2563      2564      2741      2563      2560      2737      2742
      2563      2560      2737      2738      2563      2564      2567      2566
      2563      2564      2567      2568      2563      2564      2741      2742
      2563      2564      2741      2746      2564      2567      2568      2571
      2564      2567      2568      2745      2564      2741      2742      2737
      2564      2741      2742      2743      2564      2741      2746      2745
      2564      2741      2746      2747      2565      2388      2391      2390
      2565      2388      2391      2392      2565      2566      2567      2564
      2565      2566      2567      2568      2565      2570      2571      2568
      2565      2570      2571      2572      2566      2561      2562      2557
      2566      2561      2562      2563      2566      2565      2570      2569
      2566      2565      2570      2571      2566      2567      2568      2571
      2566      2567      2568      2745      2567      2564      2741      2742
      2567      2564      2741      2746      2567      2568      2571      2570
      2567      2568      2571      2572      2567      2568      2745      2746
      2567      2568      2745      2750      2568      2571      2572      2575
      2568      2571      2572      2749      2568      2745      2746      2741
      2568      2745      2746      2747      2568      2745      2750      2749
      2568      2745      2750      2751      2569      2392      2395      2394
      2569      2392      2395      2396      2569      2570      2571      2568
      2569      2570      2571      2572      2569      2574      2575      2572
      2569      2574      2575      2576      2570      2565      2566      2561
      2570      2565      2566      2567      2570      2569      2574      2573
      2570      2569      2574      2575      2570      2571      2572      2575
      2570      2571      2572      2749      2571      2568      2745      2746
      2571      2568      2745      2750      2571      2572      2575      2574
      2571      2572      2575      2576      2571      2572      2749      2754
      2571      2572      2749      2750      2572      2575      2576      2579
      2572      2575      2576      2753      2572      2749      2754      2753
      2572      2749      2754      2755      2572      2749      2750      2745
      2572      2749      2750      2751      2573      2396      2399      2398
      2573      2396      2399      2400      2573      2574      2575      2572
      2573      2574      2575      2576      2573      2578      2579      2576
      2573      2578      2579      2580      2574      2569      2570      2565
      2574      2569      2570      2571      2574      2573      2578      2577
      2574      2573      2578      2579      2574      2575      2576      2579
      2574      2575      2576      2753      2575      2572      2749      2754
      2575      2572      2749      2750      2575      2576      2579      2578
      2575      2576      2579      2580      2575      2576      2753      2758
      2575      2576      2753      2754      2576      2579      2580      2583
      2576      2579      2580      2757      2576      2753      2758      2757
      2576      2753      2758      2759      2576      2753      2754      2749
      2576      2753      2754      2755      2577      2400      2403      2402
      2577      2400      2403      2404      2577      2578      2579      2576
      2577      2578      2579      2580      2577      2582      2583      2580
      2577      2582      2583      2584      2578      2573      2574      2569
      2578      2573      2574      2575      2578      2577      2582      2581
      2578      2577      2582      2583      2578      2579      2580      2583
      2578      2579      2580      2757      2579      2576      2753      2758
      2579      2576      2753      2754      2579      2580      2583      2582
      2579      2580      2583      2584      2579      2580      2757      2762
      2579      2580      2757      2758      2580      2583      2584      2587
      2580      2583      2584      2761      2580      2757      2762      2761
      2580      2757      2762      2763      2580      2757      2758      2753
      2580      2757      2758      2759      2581      2404      2407      2406
      2581      2404      2407      2408      2581      2582      2583      2580
      2581      2582      2583      2584      2581      2586      2587      2584
      2581      2586      2587      2588      2582      2577      2578      2573
      2582      2577      2578      2579      2582      2581      2586      2585
      2582      2581      2586      2587      2582      2583      2584      2587
      2582      2583      2584      2761      2583      2580      2757      2762
      2583      2580      2757      2758      2583      2584      2587      2586
      2583      2584      2587      2588      2583      2584      2761      2762
      2583      2584      2761      2766      2584      2587      2588      2591
      2584      2587      2588      2765      2584      2761      2762      2757
      2584      2761      2762      2763      2584      2761      2766      2765
      2584      2761      2766      2767      2585      2408      2411      2410
      2585      2408      2411      2412      2585      2586      2587      2584
      2585      2586      2587      2588      2585      2590      2591      2588
      2585      2590      2591      2592      2586      2581      2582      2577
      2586      2581      2582      2583      2586      2585      2590      2589
      2586      2585      2590      2591      2586      2587      2588      2591
      2586      2587      2588      2765      2587      2584      2761      2762
      2587      2584      2761      2766      2587      2588      2591      2590
      2587      2588      2591      2592      2587      2588      2765      2766
      2587      2588      2765      2770      2588      2591      2592      2595
      2588      2591      2592      2769      2588      2765      2766      2761
      2588      2765      2766      2767      2588      2765      2770      2769
      2588      2765      2770      2771      2589      2412      2415      2414
      2589      2412      2415      2416      2589      2590      2591      2588
      2589      2590      2591      2592      2589      2594      2595      2592
      2589      2594      2595      2596      2590      2585      2586      2581
      2590      2585      2586      2587      2590      2589      2594      2593
      2590      2589      2594      2595      2590      2591      2592      2595
      2590      2591      2592      2769      2591      2588      2765      2766
      2591      2588      2765      2770      2591      2592      2595      2594
      2591      2592      2595      2596      2591      2592      2769      2774
      2591      2592      2769      2770      2592      2595      2596      2599
      2592      2595      2596      2773      2592      2769      2774      2773
      2592      2769      2774      2775      2592      2769      2770      2765
      2592      2769      2770      2771      2593      2416      2419      2418
      2593      2416      2419      2420      2593      2594      2595      2592
      2593      2594      2595      2596      2593      2598      2599      2596
      2593      2598      2599      2600      2594      2589      2590      2585
      2594      2589      2590      2591      2594      2593      2598      2597
      2594      2593      2598      2599      2594      2595      2596      2599
      2594      2595      2596      2773      2595      2592      2769      2774
      2595      2592      2769      2770      2595      2596      2599      2598
      2595      2596      2599      2600      2595      2596      2773      2778
      2595      2596      2773      2774      2596      2599      2600      2603
      2596      2599      2600      2777      2596      2773      2778      2777
      2596      2773      2778      2779      2596      2773      2774      2769
      2596      2773      2774      2775      2597      2420      2423      2422
      2597      2420      2423      2424      2597      2598      2599      2596
      2597      2598      2599      2600      2597      2602      2603      2600
      2597      2602      2603      2604      2598      2593      2594      2589
      2598      2593      2594      2595      2598      2597      2602      2601
      2598      2597      2602      2603      2598      2599      2600      2603
      2598      2599      2600      2777      2599      2596      2773      2778
      2599      2596      2773      2774      2599      2600      2603      2602
      2599      2600      2603      2604      2599      2600      2777      2782
      2599      2600      2777      2778      2600      2603      2604      2607
      2600      2603      2604      2781      2600      2777      2782      2781
      2600      2777      2782      2783      2600      2777      2778      2773
      2600      2777      2778      2779      2601      2424      2427      2426
      2601      2424      2427      2428      2601      2602      2603      2600
      2601      2602      2603      2604      2601      2606      2607      2604
      2601      2606      2607      2608      2602      2597      2598      2593
      2602      2597      2598      2599      2602      2601      2606      2605
      2602      2601      2606      2607      2602      2603      2604      2607
      2602      2603      2604      2781      2603      2600      2777      2782
      2603      2600      2777      2778      2603      2604      2607      2606
      2603      2604      2607      2608      2603      2604      2781      2782
      2603      2604      2781      2786      2604      2607      2608      2611
      2604      2607      2608      2785      2604      2781      2782      2777
      2604      2781      2782      2783      2604      2781      2786      2785
      2604      2781      2786      2787      2605      2428      2431      2430
      2605      2428      2431      2432      2605      2606      2607      2604
      2605      2606      2607      2608      2605      2610      2611      2608
      2605      2610      2611      2612      2606      2601      2602      2597
      2606      2601      2602      2603      2606      2605      2610      2609
      2606      2605      2610      2611      2606      2607      2608      2611
      2606      2607      2608      2785      2607      2604      2781      2782
      2607      2604      2781      2786      2607      2608      2611      2610
      2607      2608      2611      2612      2607      2608      2785      2786
      2607      2608      2785      2790      2608      2611      2612      2615
      2608      2611      2612      2789      2608      2785      2786      2781
      2608      2785      2786      2787      2608      2785      2790      2789
      2608      2785      2790      2791      2609      2432      2435      2434
      2609      2432      2435      2436      2609      2610      2611      2608
      2609      2610      2611      2612      2609      2614      2615      2612
      2609      2614      2615      2616      2610      2605      2606      2601
      2610      2605      2606      2607      2610      2609      2614      2613
      2610      2609      2614      2615      2610      2611      2612      2615
      2610      2611      2612      2789      2611      2608      2785      2786
      2611      2608      2785      2790      2611      2612      2615      2614
      2611      2612      2615      2616      2611      2612      2789      2794
      2611      2612      2789      2790      2612      2615      2616      2619
      2612      2615      2616      2793      2612      2789      2794      2793
      2612      2789      2794      2795      2612      2789      2790      2785
      2612      2789      2790      2791      2613      2436      2439      2438
      2613      2436      2439      2440      2613      2614      2615      2612
      2613      2614      2615      2616      2613      2618      2619      2616
      2613      2618      2619      2620      2614      2609      2610      2605
      2614      2609      2610      2611      2614      2613      2618      2617
      2614      2613      2618      2619      2614      2615      2616      2619
      2614      2615      2616      2793      2615      2612      2789      2794
      2615      2612      2789      2790      2615      2616      2619      2618
      2615      2616      2619      2620      2615      2616      2793      2798
      2615      2616      2793      2794      2616      2619      2620      2623
      2616      2619      2620      2797      2616      2793      2798      2797
      2616      2793      2798      2799      2616      2793      2794      2789
      2616      2793      2794      2795      2617      2440      2443      2442
      2617      2440      2443      2444      2617      2618      2619      2616
      2617      2618      2619      2620      2617      2622      2623      2620
      2617      2622      2623      2624      2618      2613      2614      2609
      2618      2613      2614      2615      2618      2617      2622      2621
      2618      2617      2622      2623      2618      2619      2620      2623
      2618      2619      2620      2797      2619      2616      2793      2798
      2619      2616      2793      2794      2619      2620      2623      2622
      2619      2620      2623      2624      2619      2620      2797      2802
      2619      2620      2797      2798      2620      2623      2624      2627
      2620      2623      2624      2801      2620      2797      2802      2801
      2620      2797      2802      2803      2620      2797      2798      2793
      2620      2797      2798      2799      2621      2444      2447      2446
      2621      2444      2447      2448      2621      2622      2623      2620
      2621      2622      2623      2624      2621      2626      2627      2624
      2621      2626      2627      2628      2622      2617      2618      2613
      2622      2617      2618      2619      2622      2621      2626      2625
      2622      2621      2626      2627      2622      2623      2624      2627
      2622      2623      2624      2801      2623      2620      2797      2802
      2623      2620      2797      2798      2623      2624      2627      2626
      2623      2624      2627      2628      2623      2624      2801      2802
      2623      2624      2801      2806      2624      2627      2628      2631
      2624      2627      2628      2805      2624      2801      2802      2797
      2624      2801      2802      2803      2624      2801      2806      2805
      2624      2801      2806      2807      2625      2448      2451      2450
      2625      2448      2451      2452      2625      2626      2627      2624
      2625      2626      2627      2628      2625      2630      2631      2628
      2625      2630      2631      2632      2626      2621      2622      2617
      2626      2621      2622      2623      2626      2625      2630      2629
      2626      2625      2630      2631      2626      2627      2628      2631
      2626      2627      2628      2805      2627      2624      2801      2802
      2627      2624      2801      2806      2627      2628      2631      2630
      2627      2628      2631      2632      2627      2628      2805      2806
      2627      2628      2805      2810      2628      2631      2632      2635
      2628      2631      2632      2809      2628      2805      2806      2801
      2628      2805      2806      2807      2628      2805      2810      2809
      2628      2805      2810      2811      2629      2452      2455      2454
      2629      2452      2455      2456      2629      2630      2631      2628
      2629      2630      2631      2632      2629      2634      2635      2632
      2629      2634      2635      2636      2630      2625      2626      2621
      2630      2625      2626      2627      2630      2629      2634      2633
      2630      2629      2634      2635      2630      2631      2632      2635
      2630      2631      2632      2809      2631      2628      2805      2806
      2631      2628      2805      2810      2631      2632      2635      2634
      2631      2632      2635      2636      2631      2632      2809      2814
      2631      2632      2809      2810      2632      2635      2636      2639
      2632      2635      2636      2813      2632      2809      2814      2813
      2632      2809      2814      2815      2632      2809      2810      2805
      2632      2809      2810      2811      2633      2456      2459      2458
      2633      2456      2459      2460      2633      2634      2635      2632
      2633      2634      2635      2636      2633      2638      2639      2636
      2633      2638      2639      2640      2634      2629      2630      2625
      2634      2629      2630      2631      2634      2633      2638      2637
      2634      2633      2638      2639      2634      2635      2636      2639
      2634      2635      2636      2813      2635      2632      2809      2814
      2635      2632      2809      2810      2635      2636      2639      2638
      2635      2636      2639      2640      2635      2636      2813      2818
      2635      2636      2813      2814      2636      2639      2640      2643
      2636      2639      2640      2817      2636      2813      2818      2817
      2636      2813      2818      2819      2636      2813      2814      2809
      2636      2813      2814      2815      2637      2460      2463      2462
      2637      2460      2463      2464      2637      2638      2639      2636
      2637      2638      2639      2640      2637      2642      2643      2640
      2637      2642      2643      2644      2638      2633      2634      2629
      2638      2633      2634      2635      2638      2637      2642      2641
      2638      2637      2642      2643      2638      2639      2640      2643
      2638      2639      2640      2817      2639      2636      2813      2818
      2639      2636      2813      2814      2639      2640      2643      2642
      2639      2640      2643      2644      2639      2640      2817      2822
      2639      2640      2817      2818      2640      2643      2644      2647
      2640      2643      2644      2821      2640      2817      2822      2821
      2640      2817      2822      2823      2640      2817      2818      2813
      2640      2817      2818      2819      2641      2464      2467      2466
      2641      2464      2467      2468      2641      2642      2643      2640
      2641      2642      2643      2644      2641      2646      2647      2644
      2641      2646      2647      2648      2642      2637      2638      2633
      2642      2637      2638      2639      2642      2641      2646      2645
      2642      2641      2646      2647      2642      2643      2644      2647
      2642      2643      2644      2821      2643      2640      2817      2822
      2643      2640      2817      2818      2643      2644      2647      2646
      2643      2644      2647      2648      2643      2644      2821      2822
      2643      2644      2821      2826      2644      2647      2648      2651
      2644      2647      2648      2825      2644      2821      2822      2817
      2644      2821      2822      2823      2644      2821      2826      2825
      2644      2821      2826      2827      2645      2468      2471      2470
      2645      2468      2471      2472      2645      2646      2647      2644
      2645      2646      2647      2648      2645      2650      2651      2648
      2645      2650      2651      2652      2646      2641      2642      2637
      2646      2641      2642      2643      2646      2645      2650      2649
      2646      2645      2650      2651      2646      2647      2648      2651
      2646      2647      2648      2825      2647      2644      2821      2822
      2647      2644      2821      2826      2647      2648      2651      2650
      2647      2648      2651      2652      2647      2648      2825      2826
      2647      2648      2825      2830      2648      2651      2652      2655
      2648      2651      2652      2829      2648      2825      2826      2821
      2648      2825      2826      2827      2648      2825      2830      2829
      2648      2825      2830      2831      2649      2472      2475      2474
      2649      2472      2475      2476      2649      2650      2651      2648
      2649      2650      2651      2652      2649      2654      2655      2652
      2649      2654      2655      2656      2650      2645      2646      2641
      2650      2645      2646      2647      2650      2649      2654      2653
      2650      2649      2654      2655      2650      2651      2652      2655
      2650      2651      2652      2829      2651      2648      2825      2826
      2651      2648      2825      2830      2651      2652      2655      2654
      2651      2652      2655      2656      2651      2652      2829      2834
      2651      2652      2829      2830      2652      2655      2656      2659
      2652      2655      2656      2833      2652      2829      2834      2833
      2652      2829      2834      2835      2652      2829      2830      2825
      2652      2829      2830      2831      2653      2476      2479      2478
      2653      2476      2479      2480      2653      2654      2655      2652
      2653      2654      2655      2656      2653      2658      2659      2656
      2653      2658      2659      2660      2654      2649      2650      2645
      2654      2649      2650      2651      2654      2653      2658      2657
      2654      2653      2658      2659      2654      2655      2656      2659
      2654      2655      2656      2833      2655      2652      2829      2834
      2655      2652      2829      2830      2655      2656      2659      2658
      2655      2656      2659      2660      2655      2656      2833      2838
      2655      2656      2833      2834      2656      2659      2660      2663
      2656      2659      2660      2837      2656      2833      2838      2837
      2656      2833      2838      2839      2656      2833      2834      2829
      2656      2833      2834      2835      2657      2480      2483      2482
      2657      2480      2483      2484      2657      2658      2659      2656
      2657      2658      2659      2660      2657      2662      2663      2660
      2657      2662      2663      2664      2658      2653      2654      2649
      2658      2653      2654      2655      2658      2657      2662      2661
      2658      2657      2662      2663      2658      2659      2660      2663
      2658      2659      2660      2837      2659      2656      2833      2838
      2659      2656      2833      2834      2659      2660      2663      2662
      2659      2660      2663      2664      2659      2660      2837      2842
      2659      2660      2837      2838      2660      2663      2664      2667
      2660      2663      2664      2841      2660      2837      2842      2841
      2660      2837      2842      2843      2660      2837      2838      2833
      2660      2837      2838      2839      2661      2484      2487      2486
      2661      2484      2487      2488      2661      2662      2663      2660
      2661      2662      2663      2664      2661      2666      2667      2664
      2661      2666      2667      2668      2662      2657      2658      2653
      2662      2657      2658      2659      2662      2661      2666      2665
      2662      2661      2666      2667      2662      2663      2664      2667
      2662      2663      2664      2841      2663      2660      2837      2842
      2663      2660      2837      2838      2663      2664      2667      2666
      2663      2664      2667      2668      2663      2664      2841      2842
      2663      2664      2841      2846      2664      2667      2668      2671
      2664      2667      2668      2845      2664      2841      2842      2837
      2664      2841      2842      2843      2664      2841      2846      2845
      2664      2841      2846      2847      2665      2488      2491      2490
      2665      2488      2491      2492      2665      2666      2667      2664
      2665      2666      2667      2668      2665      2670      2671      2668
      2665      2670      2671      2672      2666      2661      2662      2657
      2666      2661      2662      2663      2666      2665      2670      2669
      2666      2665      2670      2671      2666      2667      2668      2671
      2666      2667      2668      2845      2667      2664      2841      2842
      2667      2664      2841      2846      2667      2668      2671      2670
      2667      2668      2671      2672      2667      2668      2845      2846
      2667      2668      2845      2850      2668      2671      2672      2675
      2668      2671      2672      2849      2668      2845      2846      2841
      2668      2845      2846      2847      2668      2845      2850      2849
      2668      2845      2850      2851      2669      2492      2495      2494
      2669      2492      2495      2496      2669      2670      2671      2668
      2669      2670      2671      2672      2669      2674      2675      2672
      2669      2674      2675      2676      2670      2665      2666      2661
      2670      2665      2666      2667      2670      2669      2674      2673
      2670      2669      2674      2675      2670      2671      2672      2675
      2670      2671      2672      2849      2671      2668      2845      2846
      2671      2668      2845      2850      2671      2672      2675      2674
      2671      2672      2675      2676      2671      2672      2849      2854
      2671      2672      2849      2850      2672      2675      2676      2679
      2672      2675      2676      2853      2672      2849      2854      2853
      2672      2849      2854      2855      2672      2849      2850      2845
      2672      2849      2850      2851      2673      2496      2499      2498
      2673      2496      2499      2500      2673      2674      2675      2672
      2673      2674      2675      2676      2673      2678      2679      2676
      2673      2678      2679      2680      2674      2669      2670      2665
      2674      2669      2670      2671      2674      2673      2678      2677
      2674      2673      2678      2679      2674      2675      2676      2679
      2674      2675      2676      2853      2675      2672      2849      2854
      2675      2672      2849      2850      2675      2676      2679      2678
      2675      2676      2679      2680      2675      2676      2853      2854
      2675      2676      2853      2858      2676      2679      2680      2683
      2676      2679      2680      2857      2676      2853      2854      2849
      2676      2853      2854      2855      2676      2853      2858      2857
      2676      2853      2858      2859      2677      2500      2503      2502
      2677      2500      2503      2504      2677      2678      2679      2676
      2677      2678      2679      2680      2677      2682      2683      2680
      2677      2682      2683      2684      2678      2673      2674      2669
      2678      2673      2674      2675      2678      2677      2682      2681
      2678      2677      2682      2683      2678      2679      2680      2683
      2678      2679      2680      2857      2679      2676      2853      2854
      2679      2676      2853      2858      2679      2680      2683      2682
      2679      2680      2683      2684      2679      2680      2857      2862
      2679      2680      2857      2858      2680      2683      2684      2687
      2680      2683      2684      2861      2680      2857      2862      2861
      2680      2857      2862      2863      2680      2857      2858      2853
      2680      2857      2858      2859      2681      2504      2507      2506
      2681      2504      2507      2508      2681      2682      2683      2680
      2681      2682      2683      2684      2681      2686      2687      2684
      2681      2686      2687      2688      2682      2677      2678      2673
      2682      2677      2678      2679      2682      2681      2686      2685
      2682      2681      2686      2687      2682      2683      2684      2687
      2682      2683      2684      2861      2683      2680      2857      2862
      2683      2680      2857      2858      2683      2684      2687      2686
      2683      2684      2687      2688      2683      2684      2861      2862
      2683      2684      2861      2866      2684      2687      2688      2691
      2684      2687      2688      2865      2684      2861      2862      2857
      2684      2861      2862      2863      2684      2861      2866      2865
      2684      2861      2866      2867      2685      2508      2511      2510
      2685      2508      2511      2512      2685      2686      2687      2684
      2685      2686      2687      2688      2685      2690      2691      2688
      2685      2690      2691      2692      2686      2681      2682      2677
      2686      2681      2682      2683      2686      2685      2690      2689
      2686      2685      2690      2691      2686      2687      2688      2691
      2686      2687      2688      2865      2687      2684      2861      2862
      2687      2684      2861      2866      2687      2688      2691      2690
      2687      2688      2691      2692      2687      2688      2865      2866
      2687      2688      2865      2870      2688      2691      2692      2695
      2688      2691      2692      2869      2688      2865      2866      2861
      2688      2865      2866      2867      2688      2865      2870      2869
      2688      2865      2870      2871      2689      2512      2515      2514
      2689      2512      2515      2516      2689      2690      2691      2688
      2689      2690      2691      2692      2689      2694      2695      2692
      2689      2694      2695      2696      2690      2685      2686      2681
      2690      2685      2686      2687      2690      2689      2694      2693
      2690      2689      2694      2695      2690      2691      2692      2695
      2690      2691      2692      2869      2691      2688      2865      2866
      2691      2688      2865      2870      2691      2692      2695      2694
      2691      2692      2695      2696      2691      2692      2869      2874
      2691      2692      2869      2870      2692      2695      2696      2699
      2692      2695      2696      2873      2692      2869      2874      2873
      2692      2869      2874      2875      2692      2869      2870      2865
      2692      2869      2870      2871      2693      2516      2519      2518
      2693      2516      2519      2520      2693      2694      2695      2692
      2693      2694      2695      2696      2693      2698      2699      2696
      2693      2698      2699      2700      2694      2689      2690      2685
      2694      2689      2690      2691      2694      2693      2698      2697
      2694      2693      2698      2699      2694      2695      2696      2699
      2694      2695      2696      2873      2695      2692      2869      2874
      2695      2692      2869      2870      2695      2696      2699      2698
      2695      2696      2699      2700      2695      2696      2873      2878
      2695      2696      2873      2874      2696      2699      2700      2877
      2696      2873      2878      2877      2696      2873      2878      2879
      2696      2873      2874      2869      2696      2873      2874      2875
      2697      2698      2699      2696      2697      2698      2699      2700
      2698      2693      2694      2689      2698      2693      2694      2695
      2698      2699      2700      2877      2699      2696      2873      2878
      2699      2696      2873      2874      2699      2700      2877      2878
      2700      2877      2878      2873      2700      2877      2878      2879
      2701      2524      2527      2526      2701      2524      2527      2528
      2701      2702      2703      2704      2701      2706      2707      2704
      2701      2706      2707      2708      2702      2701      2706      2705
      2702      2701      2706      2707      2702      2703      2704      2707
      2702      2703      2704      2881      2703      2704      2707      2706
      2703      2704      2707      2708      2703      2704      2881      2882
      2703      2704      2881      2886      2704      2707      2708      2711
      2704      2707      2708      2885      2704      2881      2882      2883
      2704      2881      2886      2885      2704      2881      2886      2887
      2705      2528      2531      2530      2705      2528      2531      2532
      2705      2706      2707      2704      2705      2706      2707      2708
      2705      2710      2711      2708      2705      2710      2711      2712
      2706      2701      2702      2703      2706      2705      2710      2709
      2706      2705      2710      2711      2706      2707      2708      2711
      2706      2707      2708      2885      2707      2704      2881      2882
      2707      2704      2881      2886      2707      2708      2711      2710
      2707      2708      2711      2712      2707      2708      2885      2886
      2707      2708      2885      2890      2708      2711      2712      2715
      2708      2711      2712      2889      2708      2885      2886      2881
      2708      2885      2886      2887      2708      2885      2890      2889
      2708      2885      2890      2891      2709      2532      2535      2534
      2709      2532      2535      2536      2709      2710      2711      2708
      2709      2710      2711      2712      2709      2714      2715      2712
      2709      2714      2715      2716      2710      2705      2706      2701
      2710      2705      2706      2707      2710      2709      2714      2713
      2710      2709      2714      2715      2710      2711      2712      2715
      2710      2711      2712      2889      2711      2708      2885      2886
      2711      2708      2885      2890      2711      2712      2715      2714
      2711      2712      2715      2716      2711      2712      2889      2894
      2711      2712      2889      2890      2712      2715      2716      2719
      2712      2715      2716      2893      2712      2889      2894      2893
      2712      2889      2894      2895      2712      2889      2890      2885
      2712      2889      2890      2891      2713      2536      2539      2538
      2713      2536      2539      2540      2713      2714      2715      2712
      2713      2714      2715      2716      2713      2718      2719      2716
      2713      2718      2719      2720      2714      2709      2710      2705
      2714      2709      2710      2711      2714      2713      2718      2717
      2714      2713      2718      2719      2714      2715      2716      2719
      2714      2715      2716      2893      2715      2712      2889      2894
      2715      2712      2889      2890      2715      2716      2719      2718
      2715      2716      2719      2720      2715      2716      2893      2898
      2715      2716      2893      2894      2716      2719      2720      2723
      2716      2719      2720      2897      2716      2893      2898      2897
      2716      2893      2898      2899      2716      2893      2894      2889
      2716      2893      2894      2895      2717      2540      2543      2542
      2717      2540      2543      2544      2717      2718      2719      2716
      2717      2718      2719      2720      2717      2722      2723      2720
      2717      2722      2723      2724      2718      2713      2714      2709
      2718      2713      2714      2715      2718      2717      2722      2721
      2718      2717      2722      2723      2718      2719      2720      2723
      2718      2719      2720      2897      2719      2716      2893      2898
      2719      2716      2893      2894      2719      2720      2723      2722
      2719      2720      2723      2724      2719      2720      2897      2902
      2719      2720      2897      2898      2720      2723      2724      2727
      2720      2723      2724      2901      2720      2897      2902      2901
      2720      2897      2902      2903      2720      2897      2898      2893
      2720      2897      2898      2899      2721      2544      2547      2546
      2721      2544      2547      2548      2721      2722      2723      2720
      2721      2722      2723      2724      2721      2726      2727      2724
      2721      2726      2727      2728      2722      2717      2718      2713
      2722      2717      2718      2719      2722      2721      2726      2725
      2722      2721      2726      2727      2722      2723      2724      2727
      2722      2723      2724      2901      2723      2720      2897      2902
      2723      2720      2897      2898      2723      2724      2727      2726
      2723      2724      2727      2728      2723      2724      2901      2902
      2723      2724      2901      2906      2724      2727      2728      2731
      2724      2727      2728      2905      2724      2901      2902      2897
      2724      2901      2902      2903      2724      2901      2906      2905
      2724      2901      2906      2907      2725      2548      2551      2550
      2725      2548      2551      2552      2725      2726      2727      2724
      2725      2726      2727      2728      2725      2730      2731      2728
      2725      2730      2731      2732      2726      2721      2722      2717
      2726      2721      2722      2723      2726      2725      2730      2729
      2726      2725      2730      2731      2726      2727      2728      2731
      2726      2727      2728      2905      2727      2724      2901      2902
      2727      2724      2901      2906      2727      2728      2731      2730
      2727      2728      2731      2732      2727      2728      2905      2906
      2727      2728      2905      2910      2728      2731      2732      2735
      2728      2731      2732      2909      2728      2905      2906      2901
      2728      2905      2906      2907      2728      2905      2910      2909
      2728      2905      2910      2911      2729      2552      2555      2554
      2729      2552      2555      2556      2729      2730      2731      2728
      2729      2730      2731      2732      2729      2734      2735      2732
      2729      2734      2735      2736      2730      2725      2726      2721
      2730      2725      2726      2727      2730      2729      2734      2733
      2730      2729      2734      2735      2730      2731      2732      2735
      2730      2731      2732      2909      2731      2728      2905      2906
      2731      2728      2905      2910      2731      2732      2735      2734
      2731      2732      2735      2736      2731      2732      2909      2914
      2731      2732      2909      2910      2732      2735      2736      2739
      2732      2735      2736      2913      2732      2909      2914      2913
      2732      2909      2914      2915      2732      2909      2910      2905
      2732      2909      2910      2911      2733      2556      2559      2558
      2733      2556      2559      2560      2733      2734      2735      2732
      2733      2734      2735      2736      2733      2738      2739      2736
      2733      2738      2739      2740      2734      2729      2730      2725
      2734      2729      2730      2731      2734      2733      2738      2737
      2734      2733      2738      2739      2734      2735      2736      2739
      2734      2735      2736      2913      2735      2732      2909      2914
      2735      2732      2909      2910      2735      2736      2739      2738
      2735      2736      2739      2740      2735      2736      2913      2918
      2735      2736      2913      2914      2736      2739      2740      2743
      2736      2739      2740      2917      2736      2913      2918      2917
      2736      2913      2918      2919      2736      2913      2914      2909
      2736      2913      2914      2915      2737      2560      2563      2562
      2737      2560      2563      2564      2737      2738      2739      2736
      2737      2738      2739      2740      2737      2742      2743      2740
      2737      2742      2743      2744      2738      2733      2734      2729
      2738      2733      2734      2735      2738      2737      2742      2741
      2738      2737      2742      2743      2738      2739      2740      2743
      2738      2739      2740      2917      2739      2736      2913      2918
      2739      2736      2913      2914      2739      2740      2743      2742
      2739      2740      2743      2744      2739      2740      2917      2922
      2739      2740      2917      2918      2740      2743      2744      2747
      2740      2743      2744      2921      2740      2917      2922      2921
      2740      2917      2922      2923      2740      2917      2918      2913
      2740      2917      2918      2919      2741      2564      2567      2566
      2741      2564      2567      2568      2741      2742      2743      2740
      2741      2742      2743      2744      2741      2746      2747      2744
      2741      2746      2747      2748      2742      2737      2738      2733
      2742      2737      2738      2739      2742      2741      2746      2745
      2742      2741      2746      2747      2742      2743      2744      2747
      2742      2743      2744      2921      2743      2740      2917      2922
      2743      2740      2917      2918      2743      2744      2747      2746
      2743      2744      2747      2748      2743      2744      2921      2922
      2743      2744      2921      2926      2744      2747      2748      2751
      2744      2747      2748      2925      2744      2921      2922      2917
      2744      2921      2922      2923      2744      2921      2926      2925
      2744      2921      2926      2927      2745      2568      2571      2570
      2745      2568      2571      2572      2745      2746      2747      2744
      2745      2746      2747      2748      2745      2750      2751      2748
      2745      2750      2751      2752      2746      2741      2742      2737
      2746      2741      2742      2743      2746      2745      2750      2749
      2746      2745      2750      2751      2746      2747      2748      2751
      2746      2747      2748      2925      2747      2744      2921      2922
      2747      2744      2921      2926      2747      2748      2751      2750
      2747      2748      2751      2752      2747      2748      2925      2926
      2747      2748      2925      2930      2748      2751      2752      2755
      2748      2751      2752      2929      2748      2925      2926      2921
      2748      2925      2926      2927      2748      2925      2930      2929
      2748      2925      2930      2931      2749      2572      2575      2574
      2749      2572      2575      2576      2749      2750      2751      2748
      2749      2750      2751      2752      2749      2754      2755      2752
      2749      2754      2755      2756      2750      2745      2746      2741
      2750      2745      2746      2747      2750      2749      2754      2753
      2750      2749      2754      2755      2750      2751      2752      2755
      2750      2751      2752      2929      2751      2748      2925      2926
      2751      2748      2925      2930      2751      2752      2755      2754
      2751      2752      2755      2756      2751      2752      2929      2934
      2751      2752      2929      2930      2752      2755      2756      2759
      2752      2755      2756      2933      2752      2929      2934      2933
      2752      2929      2934      2935      2752      2929      2930      2925
      2752      2929      2930      2931      2753      2576      2579      2578
      2753      2576      2579      2580      2753      2754      2755      2752
      2753      2754      2755      2756      2753      2758      2759      2756
      2753      2758      2759      2760      2754      2749      2750      2745
      2754      2749      2750      2751      2754      2753      2758      2757
      2754      2753      2758      2759      2754      2755      2756      2759
      2754      2755      2756      2933      2755      2752      2929      2934
      2755      2752      2929      2930      2755      2756      2759      2758
      2755      2756      2759      2760      2755      2756      2933      2938
      2755      2756      2933      2934      2756      2759      2760      2763
      2756      2759      2760      2937      2756      2933      2938      2937
      2756      2933      2938      2939      2756      2933      2934      2929
      2756      2933      2934      2935      2757      2580      2583      2582
      2757      2580      2583      2584      2757      2758      2759      2756
      2757      2758      2759      2760      2757      2762      2763      2760
      2757      2762      2763      2764      2758      2753      2754      2749
      2758      2753      2754      2755      2758      2757      2762      2761
      2758      2757      2762      2763      2758      2759      2760      2763
      2758      2759      2760      2937      2759      2756      2933      2938
      2759      2756      2933      2934      2759      2760      2763      2762
      2759      2760      2763      2764      2759      2760      2937      2942
      2759      2760      2937      2938      2760      2763      2764      2767
      2760      2763      2764      2941      2760      2937      2942      2941
      2760      2937      2942      2943      2760      2937      2938      2933
      2760      2937      2938      2939      2761      2584      2587      2586
      2761      2584      2587      2588      2761      2762      2763      2760
      2761      2762      2763      2764      2761      2766      2767      2764
      2761      2766      2767      2768      2762      2757      2758      2753
      2762      2757      2758      2759      2762      2761      2766      2765
      2762      2761      2766      2767      2762      2763      2764      2767
      2762      2763      2764      2941      2763      2760      2937      2942
      2763      2760      2937      2938      2763      2764      2767      2766
      2763      2764      2767      2768      2763      2764      2941      2942
      2763      2764      2941      2946      2764      2767      2768      2771
      2764      2767      2768      2945      2764      2941      2942      2937
      2764      2941      2942      2943      2764      2941      2946      2945
      2764      2941      2946      2947      2765      2588      2591      2590
      2765      2588      2591      2592      2765      2766      2767      2764
      2765      2766      2767      2768      2765      2770      2771      2768
      2765      2770      2771      2772      2766      2761      2762      2757
      2766      2761      2762      2763      2766      2765      2770      2769
      2766      2765      2770      2771      2766      2767      2768      2771
      2766      2767      2768      2945      2767      2764      2941      2942
      2767      2764      2941      2946      2767      2768      2771      2770
      2767      2768      2771      2772      2767      2768      2945      2946
      2767      2768      2945      2950      2768      2771      2772      2775
      2768      2771      2772      2949      2768      2945      2946      2941
      2768      2945      2946      2947      2768      2945      2950      2949
      2768      2945      2950      2951      2769      2592      2595      2594
      2769      2592      2595      2596      2769      2770      2771      2768
      2769      2770      2771      2772      2769      2774      2775      2772
      2769      2774      2775      2776      2770      2765      2766      2761
      2770      2765      2766      2767      2770      2769      2774      2773
      2770      2769      2774      2775      2770      2771      2772      2775
      2770      2771      2772      2949      2771      2768      2945      2946
      2771      2768      2945      2950      2771      2772      2775      2774
      2771      2772      2775      2776      2771      2772      2949      2954
      2771      2772      2949      2950      2772      2775      2776      2779
      2772      2775      2776      2953      2772      2949      2954      2953
      2772      2949      2954      2955      2772      2949      2950      2945
      2772      2949      2950      2951      2773      2596      2599      2598
      2773      2596      2599      2600      2773      2774      2775      2772
      2773      2774      2775      2776      2773      2778      2779      2776
      2773      2778      2779      2780      2774      2769      2770      2765
      2774      2769      2770      2771      2774      2773      2778      2777
      2774      2773      2778      2779      2774      2775      2776      2779
      2774      2775      2776      2953      2775      2772      2949      2954
      2775      2772      2949      2950      2775      2776      2779      2778
      2775      2776      2779      2780      2775      2776      2953      2958
      2775      2776      2953      2954      2776      2779      2780      2783
      2776      2779      2780      2957      2776      2953      2958      2957
      2776      2953      2958      2959      2776      2953      2954      2949
      2776      2953      2954      2955      2777      2600      2603      2602
      2777      2600      2603      2604      2777      2778      2779      2776
      2777      2778      2779      2780      2777      2782      2783      2780
      2777      2782      2783      2784      2778      2773      2774      2769
      2778      2773      2774      2775      2778      2777      2782      2781
      2778      2777      2782      2783      2778      2779      2780      2783
      2778      2779      2780      2957      2779      2776      2953      2958
      2779      2776      2953      2954      2779      2780      2783      2782
      2779      2780      2783      2784      2779      2780      2957      2962
      2779      2780      2957      2958      2780      2783      2784      2787
      2780      2783      2784      2961      2780      2957      2962      2961
      2780      2957      2962      2963      2780      2957      2958      2953
      2780      2957      2958      2959      2781      2604      2607      2606
      2781      2604      2607      2608      2781      2782      2783      2780
      2781      2782      2783      2784      2781      2786      2787      2784
      2781      2786      2787      2788      2782      2777      2778      2773
      2782      2777      2778      2779      2782      2781      2786      2785
      2782      2781      2786      2787      2782      2783      2784      2787
      2782      2783      2784      2961      2783      2780      2957      2962
      2783      2780      2957      2958      2783      2784      2787      2786
      2783      2784      2787      2788      2783      2784      2961      2962
      2783      2784      2961      2966      2784      2787      2788      2791
      2784      2787      2788      2965      2784      2961      2962      2957
      2784      2961      2962      2963      2784      2961      2966      2965
      2784      2961      2966      2967      2785      2608      2611      2610
      2785      2608      2611      2612      2785      2786      2787      2784
      2785      2786      2787      2788      2785      2790      2791      2788
      2785      2790      2791      2792      2786      2781      2782      2777
      2786      2781      2782      2783      2786      2785      2790      2789
      2786      2785      2790      2791      2786      2787      2788      2791
      2786      2787      2788      2965      2787      2784      2961      2962
      2787      2784      2961      2966      2787      2788      2791      2790
      2787      2788      2791      2792      2787      2788      2965      2966
      2787      2788      2965      2970      2788      2791      2792      2795
      2788      2791      2792      2969      2788      2965      2966      2961
      2788      2965      2966      2967      2788      2965      2970      2969
      2788      2965      2970      2971      2789      2612      2615      2614
      2789      2612      2615      2616      2789      2790      2791      2788
      2789      2790      2791      2792      2789      2794      2795      2792
      2789      2794      2795      2796      2790      2785      2786      2781
      2790      2785      2786      2787      2790      2789      2794      2793
      2790      2789      2794      2795      2790      2791      2792      2795
      2790      2791      2792      2969      2791      2788      2965      2966
      2791      2788      2965      2970      2791      2792      2795      2794
      2791      2792      2795      2796      2791      2792      2969      2974
      2791      2792      2969      2970      2792      2795      2796      2799
      2792      2795      2796      2973      2792      2969      2974      2973
      2792      2969      2974      2975      2792      2969      2970      2965
      2792      2969      2970      2971      2793      2616      2619      2618
      2793      2616      2619      2620      2793      2794      2795      2792
      2793      2794      2795      2796      2793      2798      2799      2796
      2793      2798      2799      2800      2794      2789      2790      2785
      2794      2789      2790      2791      2794      2793      2798      2797
      2794      2793      2798      2799      2794      2795      2796      2799
      2794      2795      2796      2973      2795      2792      2969      2974
      2795      2792      2969      2970      2795      2796      2799      2798
      2795      2796      2799      2800      2795      2796      2973      2978
      2795      2796      2973      2974      2796      2799      2800      2803
      2796      2799      2800      2977      2796      2973      2978      2977
      2796      2973      2978      2979      2796      2973      2974      2969
      2796      2973      2974      2975      2797      2620      2623      2622
      2797      2620      2623      2624      2797      2798      2799      2796
      2797      2798      2799      2800      2797      2802      2803      2800
      2797      2802      2803      2804      2798      2793      2794      2789
      2798      2793      2794      2795      2798      2797      2802      2801
      2798      2797      2802      2803      2798      2799      2800      2803
      2798      2799      2800      2977      2799      2796      2973      2978
      2799      2796      2973      2974      2799      2800      2803      2802
      2799      2800      2803      2804      2799      2800      2977      2982
      2799      2800      2977      2978      2800      2803      2804      2807
      2800      2803      2804      2981      2800      2977      2982      2981
      2800      2977      2982      2983      2800      2977      2978      2973
      2800      2977      2978      2979      2801      2624      2627      2626
      2801      2624      2627      2628      2801      2802      2803      2800
      2801      2802      2803      2804      2801      2806      2807      2804
      2801      2806      2807      2808      2802      2797      2798      2793
      2802      2797      2798      2799      2802      2801      2806      2805
      2802      2801      2806      2807      2802      2803      2804      2807
      2802      2803      2804      2981      2803      2800      2977      2982
      2803      2800      2977      2978      2803      2804      2807      2806
      2803      2804      2807      2808      2803      2804      2981      2982
      2803      2804      2981      2986      2804      2807      2808      2811
      2804      2807      2808      2985      2804      2981      2982      2977
      2804      2981      2982      2983      2804      2981      2986      2985
      2804      2981      2986      2987      2805      2628      2631      2630
      2805      2628      2631      2632      2805      2806      2807      2804
      2805      2806      2807      2808      2805      2810      2811      2808
      2805      2810      2811      2812      2806      2801      2802      2797
      2806      2801      2802      2803      2806      2805      2810      2809
      2806      2805      2810      2811      2806      2807      2808      2811
      2806      2807      2808      2985      2807      2804      2981      2982
      2807      2804      2981      2986      2807      2808      2811      2810
      2807      2808      2811      2812      2807      2808      2985      2986
      2807      2808      2985      2990      2808      2811      2812      2815
      2808      2811      2812      2989      2808      2985      2986      2981
      2808      2985      2986      2987      2808      2985      2990      2989
      2808      2985      2990      2991      2809      2632      2635      2634
      2809      2632      2635      2636      2809      2810      2811      2808
      2809      2810      2811      2812      2809      2814      2815      2812
      2809      2814      2815      2816      2810      2805      2806      2801
      2810      2805      2806      2807      2810      2809      2814      2813
      2810      2809      2814      2815      2810      2811      2812      2815
      2810      2811      2812      2989      2811      2808      2985      2986
      2811      2808      2985      2990      2811      2812      2815      2814
      2811      2812      2815      2816      2811      2812      2989      2994
      2811      2812      2989      2990      2812      2815      2816      2819
      2812      2815      2816      2993      2812      2989      2994      2993
      2812      2989      2994      2995      2812      2989      2990      2985
      2812      2989      2990      2991      2813      2636      2639      2638
      2813      2636      2639      2640      2813      2814      2815      2812
      2813      2814      2815      2816      2813      2818      2819      2816
      2813      2818      2819      2820      2814      2809      2810      2805
      2814      2809      2810      2811      2814      2813      2818      2817
      2814      2813      2818      2819      2814      2815      2816      2819
      2814      2815      2816      2993      2815      2812      2989      2994
      2815      2812      2989      2990      2815      2816      2819      2818
      2815      2816      2819      2820      2815      2816      2993      2998
      2815      2816      2993      2994      2816      2819      2820      2823
      2816      2819      2820      2997      2816      2993      2998      2997
      2816      2993      2998      2999      2816      2993      2994      2989
      2816      2993      2994      2995      2817      2640      2643      2642
      2817      2640      2643      2644      2817      2818      2819      2816
      2817      2818      2819      2820      2817      2822      2823      2820
      2817      2822      2823      2824      2818      2813      2814      2809
      2818      2813      2814      2815      2818      2817      2822      2821
      2818      2817      2822      2823      2818      2819      2820      2823
      2818      2819      2820      2997      2819      2816      2993      2998
      2819      2816      2993      2994      2819      2820      2823      2822
      2819      2820      2823      2824      2819      2820      2997      3002
      2819      2820      2997      2998      2820      2823      2824      2827
      2820      2823      2824      3001      2820      2997      3002      3001
      2820      2997      3002      3003      2820      2997      2998      2993
      2820      2997      2998      2999      2821      2644      2647      2646
      2821      2644      2647      2648      2821      2822      2823      2820
      2821      2822      2823      2824      2821      2826      2827      2824
      2821      2826      2827      2828      2822      2817      2818      2813
      2822      2817      2818      2819      2822      2821      2826      2825
      2822      2821      2826      2827      2822      2823      2824      2827
      2822      2823      2824      3001      2823      2820      2997      3002
      2823      2820      2997      2998      2823      2824      2827      2826
      2823      2824      2827      2828      2823      2824      3001      3002
      2823      2824      3001      3006      2824      2827      2828      2831
      2824      2827      2828      3005      2824      3001      3002      2997
      2824      3001      3002      3003      2824      3001      3006      3005
      2824      3001      3006      3007      2825      2648      2651      2650
      2825      2648      2651      2652      2825      2826      2827      2824
      2825      2826      2827      2828      2825      2830      2831      2828
      2825      2830      2831      2832      2826      2821      2822      2817
      2826      2821      2822      2823      2826      2825      2830      2829
      2826      2825      2830      2831      2826      2827      2828      2831
      2826      2827      2828      3005      2827      2824      3001      3002
      2827      2824      3001      3006      2827      2828      2831      2830
      2827      2828      2831      2832      2827      2828      3005      3006
      2827      2828      3005      3010      2828      2831      2832      2835
      2828      2831      2832      3009      2828      3005      3006      3001
      2828      3005      3006      3007      2828      3005      3010      3009
      2828      3005      3010      3011      2829      2652      2655      2654
      2829      2652      2655      2656      2829      2830      2831      2828
      2829      2830      2831      2832      2829      2834      2835      2832
      2829      2834      2835      2836      2830      2825      2826      2821
      2830      2825      2826      2827      2830      2829      2834      2833
      2830      2829      2834      2835      2830      2831      2832      2835
      2830      2831      2832      3009      2831      2828      3005      3006
      2831      2828      3005      3010      2831      2832      2835      2834
      2831      2832      2835      2836      2831      2832      3009      3014
      2831      2832      3009      3010      2832      2835      2836      2839
      2832      2835      2836      3013      2832      3009      3014      3013
      2832      3009      3014      3015      2832      3009      3010      3005
      2832      3009      3010      3011      2833      2656      2659      2658
      2833      2656      2659      2660      2833      2834      2835      2832
      2833      2834      2835      2836      2833      2838      2839      2836
      2833      2838      2839      2840      2834      2829      2830      2825
      2834      2829      2830      2831      2834      2833      2838      2837
      2834      2833      2838      2839      2834      2835      2836      2839
      2834      2835      2836      3013      2835      2832      3009      3014
      2835      2832      3009      3010      2835      2836      2839      2838
      2835      2836      2839      2840      2835      2836      3013      3018
      2835      2836      3013      3014      2836      2839      2840      2843
      2836      2839      2840      3017      2836      3013      3018      3017
      2836      3013      3018      3019      2836      3013      3014      3009
      2836      3013      3014      3015      2837      2660      2663      2662
      2837      2660      2663      2664      2837      2838      2839      2836
      2837      2838      2839      2840      2837      2842      2843      2840
      2837      2842      2843      2844      2838      2833      2834      2829
      2838      2833      2834      2835      2838      2837      2842      2841
      2838      2837      2842      2843      2838      2839      2840      2843
      2838      2839      2840      3017      2839      2836      3013      3018
      2839      2836      3013      3014      2839      2840      2843      2842
      2839      2840      2843      2844      2839      2840      3017      3022
      2839      2840      3017      3018      2840      2843      2844      2847
      2840      2843      2844      3021      2840      3017      3022      3021
      2840      3017      3022      3023      2840      3017      3018      3013
      2840      3017      3018      3019      2841      2664      2667      2666
      2841      2664      2667      2668      2841      2842      2843      2840
      2841      2842      2843      2844      2841      2846      2847      2844
      2841      2846      2847      2848      2842      2837      2838      2833
      2842      2837      2838      2839      2842      2841      2846      2845
      2842      2841      2846      2847      2842      2843      2844      2847
      2842      2843      2844      3021      2843      2840      3017      3022
      2843      2840      3017      3018      2843      2844      2847      2846
      2843      2844      2847      2848      2843      2844      3021      3022
      2843      2844      3021      3026      2844      2847      2848      2851
      2844      2847      2848      3025      2844      3021      3022      3017
      2844      3021      3022      3023      2844      3021      3026      3025
      2844      3021      3026      3027      2845      2668      2671      2670
      2845      2668      2671      2672      2845      2846      2847      2844
      2845      2846      2847      2848      2845      2850      2851      2848
      2845      2850      2851      2852      2846      2841      2842      2837
      2846      2841      2842      2843      2846      2845      2850      2849
      2846      2845      2850      2851      2846      2847      2848      2851
      2846      2847      2848      3025      2847      2844      3021      3022
      2847      2844      3021      3026      2847      2848      2851      2850
      2847      2848      2851      2852      2847      2848      3025      3026
      2847      2848      3025      3030      2848      2851      2852      2855
      2848      2851      2852      3029      2848      3025      3026      3021
      2848      3025      3026      3027      2848      3025      3030      3029
      2848      3025      3030      3031      2849      2672      2675      2674
      2849      2672      2675      2676      2849      2850      2851      2848
      2849      2850      2851      2852      2849      2854      2855      2852
      2849      2854      2855      2856      2850      2845      2846      2841
      2850      2845      2846      2847      2850      2849      2854      2853
      2850      2849      2854      2855      2850      2851      2852      2855
      2850      2851      2852      3029      2851      2848      3025      3026
      2851      2848      3025      3030      2851      2852      2855      2854
      2851      2852      2855      2856      2851      2852      3029      3034
      2851      2852      3029      3030      2852      2855      2856      2859
      2852      2855      2856      3033      2852      3029      3034      3033
      2852      3029      3034      3035      2852      3029      3030      3025
      2852      3029      3030      3031      2853      2676      2679      2678
      2853      2676      2679      2680      2853      2854      2855      2852
      2853      2854      2855      2856      2853      2858      2859      2856
      2853      2858      2859      2860      2854      2849      2850      2845
      2854      2849      2850      2851      2854      2853      2858      2857
      2854      2853      2858      2859      2854      2855      2856      2859
      2854      2855      2856      3033      2855      2852      3029      3034
      2855      2852      3029      3030      2855      2856      2859      2858
      2855      2856      2859      2860      2855      2856      3033      3038
      2855      2856      3033      3034      2856      2859      2860      2863
      2856      2859      2860      3037      2856      3033      3038      3037
      2856      3033      3038      3039      2856      3033      3034      3029
      2856      3033      3034      3035      2857      2680      2683      2682
      2857      2680      2683      2684      2857      2858      2859      2856
      2857      2858      2859      2860      2857      2862      2863      2860
      2857      2862      2863      2864      2858      2853      2854      2849
      2858      2853      2854      2855      2858      2857      2862      2861
      2858      2857      2862      2863      2858      2859      2860      2863
      2858      2859      2860      3037      2859      2856      3033      3038
      2859      2856      3033      3034      2859      2860      2863      2862
      2859      2860      2863      2864      2859      2860      3037      3042
      2859      2860      3037      3038      2860      2863      2864      2867
      2860      2863      2864      3041      2860      3037      3042      3041
      2860      3037      3042      3043      2860      3037      3038      3033
      2860      3037      3038      3039      2861      2684      2687      2686
      2861      2684      2687      2688      2861      2862      2863      2860
      2861      2862      2863      2864      2861      2866      2867      2864
      2861      2866      2867      2868      2862      2857      2858      2853
      2862      2857      2858      2859      2862      2861      2866      2865
      2862      2861      2866      2867      2862      2863      2864      2867
      2862      2863      2864      3041      2863      2860      3037      3042
      2863      2860      3037      3038      2863      2864      2867      2866
      2863      2864      2867      2868      2863      2864      3041      3042
      2863      2864      3041      3046      2864      2867      2868      2871
      2864      2867      2868      3045      2864      3041      3042      3037
      2864      3041      3042      3043      2864      3041      3046      3045
      2864      3041      3046      3047      2865      2688      2691      2690
      2865      2688      2691      2692      2865      2866      2867      2864
      2865      2866      2867      2868      2865      2870      2871      2868
      2865      2870      2871      2872      2866      2861      2862      2857
      2866      2861      2862      2863      2866      2865      2870      2869
      2866      2865      2870      2871      2866      2867      2868      2871
      2866      2867      2868      3045      2867      2864      3041      3042
      2867      2864      3041      3046      2867      2868      2871      2870
      2867      2868      2871      2872      2867      2868      3045      3046
      2867      2868      3045      3050      2868      2871      2872      2875
      2868      2871      2872      3049      2868      3045      3046      3041
      2868      3045      3046      3047      2868      3045      3050      3049
      2868      3045      3050      3051      2869      2692      2695      2694
      2869      2692      2695      2696      2869      2870      2871      2868
      2869      2870      2871      2872      2869      2874      2875      2872
      2869      2874      2875      2876      2870      2865      2866      2861
      2870      2865      2866      2867      2870      2869      2874      2873
      2870      2869      2874      2875      2870      2871      2872      2875
      2870      2871      2872      3049      2871      2868      3045      3046
      2871      2868      3045      3050      2871      2872      2875      2874
      2871      2872      2875      2876      2871      2872      3049      3054
      2871      2872      3049      3050      2872      2875      2876      2879
      2872      2875      2876      3053      2872      3049      3054      3053
      2872      3049      3054      3055      2872      3049      3050      3045
      2872      3049      3050      3051      2873      2696      2699      2698
      2873      2696      2699      2700      2873      2874      2875      2872
      2873      2874      2875      2876      2873      2878      2879      2876
      2873      2878      2879      2880      2874      2869      2870      2865
      2874      2869      2870      2871      2874      2873      2878      2877
      2874      2873      2878      2879      2874      2875      2876      2879
      2874      2875      2876      3053      2875      2872      3049      3054
      2875      2872      3049      3050      2875      2876      2879      2878
      2875      2876      2879      2880      2875      2876      3053      3058
      2875      2876      3053      3054      2876      2879      2880      3057
      2876      3053      3058      3057      2876      3053      3058      3059
      2876      3053      3054      3049      2876      3053      3054      3055
      2877      2878      2879      2876      2877      2878      2879      2880
      2878      2873      2874      2869      2878      2873      2874      2875
      2878      2879      2880      3057      2879      2876      3053      3058
      2879      2876      3053      3054      2879      2880      3057      3058
      2880      3057      3058      3053      2880      3057      3058      3059
      2881      2704      2707      2706      2881      2704      2707      2708
      2881      2882      2883      2884      2881      2886      2887      2884
      2881      2886      2887      2888      2882      2881      2886      2885
      2882      2881      2886      2887      2882      2883      2884      2887
      2882      2883      2884      3061      2883      2884      2887      2886
      2883      2884      2887      2888      2883      2884      3061      3062
      2883      2884      3061      3066      2884      2887      2888      2891
      2884      2887      2888      3065      2884      3061      3062      3063
      2884      3061      3066      3065      2884      3061      3066      3067
      2885      2708      2711      2710      2885      2708      2711      2712
      2885      2886      2887      2884      2885      2886      2887      2888
      2885      2890      2891      2888      2885      2890      2891      2892
      2886      2881      2882      2883      2886      2885      2890      2889
      2886      2885      2890      2891      2886      2887      2888      2891
      2886      2887      2888      3065      2887      2884      3061      3062
      2887      2884      3061      3066      2887      2888      2891      2890
      2887      2888      2891      2892      2887      2888      3065      3066
      2887      2888      3065      3070      2888      2891      2892      2895
      2888      2891      2892      3069      2888      3065      3066      3061
      2888      3065      3066      3067      2888      3065      3070      3069
      2888      3065      3070      3071      2889      2712      2715      2714
      2889      2712      2715      2716      2889      2890      2891      2888
      2889      2890      2891      2892      2889      2894      2895      2892
      2889      2894      2895      2896      2890      2885      2886      2881
      2890      2885      2886      2887      2890      2889      2894      2893
      2890      2889      2894      2895      2890      2891      2892      2895
      2890      2891      2892      3069      2891      2888      3065      3066
      2891      2888      3065      3070      2891      2892      2895      2894
      2891      2892      2895      2896      2891      2892      3069      3074
      2891      2892      3069      3070      2892      2895      2896      2899
      2892      2895      2896      3073      2892      3069      3074      3073
      2892      3069      3074      3075      2892      3069      3070      3065
      2892      3069      3070      3071      2893      2716      2719      2718
      2893      2716      2719      2720      2893      2894      2895      2892
      2893      2894      2895      2896      2893      2898      2899      2896
      2893      2898      2899      2900      2894      2889      2890      2885
      2894      2889      2890      2891      2894      2893      2898      2897
      2894      2893      2898      2899      2894      2895      2896      2899
      2894      2895      2896      3073      2895      2892      3069      3074
      2895      2892      3069      3070      2895      2896      2899      2898
      2895      2896      2899      2900      2895      2896      3073      3078
      2895      2896      3073      3074      2896      2899      2900      2903
      2896      2899      2900      3077      2896      3073      3078      3077
      2896      3073      3078      3079      2896      3073      3074      3069
      2896      3073      3074      3075      2897      2720      2723      2722
      2897      2720      2723      2724      2897      2898      2899      2896
      2897      2898      2899      2900      2897      2902      2903      2900
      2897      2902      2903      2904      2898      2893      2894      2889
      2898      2893      2894      2895      2898      2897      2902      2901
      2898      2897      2902      2903      2898      2899      2900      2903
      2898      2899      2900      3077      2899      2896      3073      3078
      2899      2896      3073      3074      2899      2900      2903      2902
      2899      2900      2903      2904      2899      2900      3077      3082
      2899      2900      3077      3078      2900      2903      2904      2907
      2900      2903      2904      3081      2900      3077      3082      3081
      2900      3077      3082      3083      2900      3077      3078      3073
      2900      3077      3078      3079      2901      2724      2727      2726
      2901      2724      2727      2728      2901      2902      2903      2900
      2901      2902      2903      2904      2901      2906      2907      2904
      2901      2906      2907      2908      2902      2897      2898      2893
      2902      2897      2898      2899      2902      2901      2906      2905
      2902      2901      2906      2907      2902      2903      2904      2907
      2902      2903      2904      3081      2903      2900      3077      3082
      2903      2900      3077      3078      2903      2904      2907      2906
      2903      2904      2907      2908      2903      2904      3081      3082
      2903      2904      3081      3086      2904      2907      2908      2911
      2904      2907      2908      3085      2904      3081      3082      3077
      2904      3081      3082      3083      2904      3081      3086      3085
      2904      3081      3086      3087      2905      2728      2731      2730
      2905      2728      2731      2732      2905      2906      2907      2904
      2905      2906      2907      2908      2905      2910      2911      2908
      2905      2910      2911      2912      2906      2901      2902      2897
      2906      2901      2902      2903      2906      2905      2910      2909
      2906      2905      2910      2911      2906      2907      2908      2911
      2906      2907      2908      3085      2907      2904      3081      3082
      2907      2904      3081      3086      2907      2908      2911      2910
      2907      2908      2911      2912      2907      2908      3085      3086
      2907      2908      3085      3090      2908      2911      2912      2915
      2908      2911      2912      3089      2908      3085      3086      3081
      2908      3085      3086      3087      2908      3085      3090      3089
      2908      3085      3090      3091      2909      2732      2735      2734
      2909      2732      2735      2736      2909      2910      2911      2908
      2909      2910      2911      2912      2909      2914      2915      2912
      2909      2914      2915      2916      2910      2905      2906      2901
      2910      2905      2906      2907      2910      2909      2914      2913
      2910      2909      2914      2915      2910      2911      2912      2915
      2910      2911      2912      3089      2911      2908      3085      3086
      2911      2908      3085      3090      2911      2912      2915      2914
      2911      2912      2915      2916      2911      2912      3089      3094
      2911      2912      3089      3090      2912      2915      2916      2919
      2912      2915      2916      3093      2912      3089      3094      3093
      2912      3089      3094      3095      2912      3089      3090      3085
      2912      3089      3090      3091      2913      2736      2739      2738
      2913      2736      2739      2740      2913      2914      2915      2912
      2913      2914      2915      2916      2913      2918      2919      2916
      2913      2918      2919      2920      2914      2909      2910      2905
      2914      2909      2910      2911      2914      2913      2918      2917
      2914      2913      2918      2919      2914      2915      2916      2919
      2914      2915      2916      3093      2915      2912      3089      3094
      2915      2912      3089      3090      2915      2916      2919      2918
      2915      2916      2919      2920      2915      2916      3093      3094
      2915      2916      3093      3098      2916      2919      2920      2923
      2916      2919      2920      3097      2916      3093      3094      3089
      2916      3093      3094      3095      2916      3093      3098      3097
      2916      3093      3098      3099      2917      2740      2743      2742
      2917      2740      2743      2744      2917      2918      2919      2916
      2917      2918      2919      2920      2917      2922      2923      2920
      2917      2922      2923      2924      2918      2913      2914      2909
      2918      2913      2914      2915      2918      2917      2922      2921
      2918      2917      2922      2923      2918      2919      2920      2923
      2918      2919      2920      3097      2919      2916      3093      3094
      2919      2916      3093      3098      2919      2920      2923      2922
      2919      2920      2923      2924      2919      2920      3097      3102
      2919      2920      3097      3098      2920      2923      2924      2927
      2920      2923      2924      3101      2920      3097      3102      3101
      2920      3097      3102      3103      2920      3097      3098      3093
      2920      3097      3098      3099      2921      2744      2747      2746
      2921      2744      2747      2748      2921      2922      2923      2920
      2921      2922      2923      2924      2921      2926      2927      2924
      2921      2926      2927      2928      2922      2917      2918      2913
      2922      2917      2918      2919      2922      2921      2926      2925
      2922      2921      2926      2927      2922      2923      2924      2927
      2922      2923      2924      3101      2923      2920      3097      3102
      2923      2920      3097      3098      2923      2924      2927      2926
      2923      2924      2927      2928      2923      2924      3101      3102
      2923      2924      3101      3106      2924      2927      2928      2931
      2924      2927      2928      3105      2924      3101      3102      3097
      2924      3101      3102      3103      2924      3101      3106      3105
      2924      3101      3106      3107      2925      2748      2751      2750
      2925      2748      2751      2752      2925      2926      2927      2924
      2925      2926      2927      2928      2925      2930      2931      2928
      2925      2930      2931      2932      2926      2921      2922      2917
      2926      2921      2922      2923      2926      2925      2930      2929
      2926      2925      2930      2931      2926      2927      2928      2931
      2926      2927      2928      3105      2927      2924      3101      3102
      2927      2924      3101      3106      2927      2928      2931      2930
      2927      2928      2931      2932      2927      2928      3105      3106
      2927      2928      3105      3110      2928      2931      2932      2935
      2928      2931      2932      3109      2928      3105      3106      3101
      2928      3105      3106      3107      2928      3105      3110      3109
      2928      3105      3110      3111      2929      2752      2755      2754
      2929      2752      2755      2756      2929      2930      2931      2928
      2929      2930      2931      2932      2929      2934      2935      2932
      2929      2934      2935      2936      2930      2925      2926      2921
      2930      2925      2926      2927      2930      2929      2934      2933
      2930      2929      2934      2935      2930      2931      2932      2935
      2930      2931      2932      3109      2931      2928      3105      3106
      2931      2928      3105      3110      2931      2932      2935      2934
      2931      2932      2935      2936      2931      2932      3109      3114
      2931      2932      3109      3110      2932      2935      2936      2939
      2932      2935      2936      3113      2932      3109      3114      3113
      2932      3109      3114      3115      2932      3109      3110      3105
      2932      3109      3110      3111      2933      2756      2759      2758
      2933      2756      2759      2760      2933      2934      2935      2932
      2933      2934      2935      2936      2933      2938      2939      2936
      2933      2938      2939      2940      2934      2929      2930      2925
      2934      2929      2930      2931      2934      2933      2938      2937
      2934      2933      2938      2939      2934      2935      2936      2939
      2934      2935      2936      3113      2935      2932      3109      3114
      2935      2932      3109      3110      2935      2936      2939      2938
      2935      2936      2939      2940      2935      2936      3113      3118
      2935      2936      3113      3114      2936      2939      2940      2943
      2936      2939      2940      3117      2936      3113      3118      3117
      2936      3113      3118      3119      2936      3113      3114      3109
      2936      3113      3114      3115      2937      2760      2763      2762
      2937      2760      2763      2764      2937      2938      2939      2936
      2937      2938      2939      2940      2937      2942      2943      2940
      2937      2942      2943      2944      2938      2933      2934      2929
      2938      2933      2934      2935      2938      2937      2942      2941
      2938      2937      2942      2943      2938      2939      2940      2943
      2938      2939      2940      3117      2939      2936      3113      3118
      2939      2936      3113      3114      2939      2940      2943      2942
      2939      2940      2943      2944      2939      2940      3117      3122
      2939      2940      3117      3118      2940      2943      2944      2947
      2940      2943      2944      3121      2940      3117      3122      3121
      2940      3117      3122      3123      2940      3117      3118      3113
      2940      3117      3118      3119      2941      2764      2767      2766
      2941      2764      2767      2768      2941      2942      2943      2940
      2941      2942      2943      2944      2941      2946      2947      2944
      2941      2946      2947      2948      2942      2937      2938      2933
      2942      2937      2938      2939      2942      2941      2946      2945
      2942      2941      2946      2947      2942      2943      2944      2947
      2942      2943      2944      3121      2943      2940      3117      3122
      2943      2940      3117      3118      2943      2944      2947      2946
      2943      2944      2947      2948      2943      2944      3121      3122
      2943      2944      3121      3126      2944      2947      2948      2951
      2944      2947      2948      3125      2944      3121      3122      3117
      2944      3121      3122      3123      2944      3121      3126      3125
      2944      3121      3126      3127      2945      2768      2771      2770
      2945      2768      2771      2772      2945      2946      2947      2944
      2945      2946      2947      2948      2945      2950      2951      2948
      2945      2950      2951      2952      2946      2941      2942      2937
      2946      2941      2942      2943      2946      2945      2950      2949
      2946      2945      2950      2951      2946      2947      2948      2951
      2946      2947      2948      3125      2947      2944      3121      3122
      2947      2944      3121      3126      2947      2948      2951      2950
      2947      2948      2951      2952      2947      2948      3125      3126
      2947      2948      3125      3130      2948      2951      2952      2955
      2948      2951      2952      3129      2948      3125      3126      3121
      2948      3125      3126      3127      2948      3125      3130      3129
      2948      3125      3130      3131      2949      2772      2775      2774
      2949      2772      2775      2776      2949      2950      2951      2948
      2949      2950      2951      2952      2949      2954      2955      2952
      2949      2954      2955      2956      2950      2945      2946      2941
      2950      2945      2946      2947      2950      2949      2954      2953
      2950      2949      2954      2955      2950      2951      2952      2955
      2950      2951      2952      3129      2951      2948      3125      3126
      2951      2948      3125      3130      2951      2952      2955      2954
      2951      2952      2955      2956      2951      2952      3129      3134
      2951      2952      3129      3130      2952      2955      2956      2959
      2952      2955      2956      3133      2952      3129      3134      3133
      2952      3129      3134      3135      2952      3129      3130      3125
      2952      3129      3130      3131      2953      2776      2779      2778
      2953      2776      2779      2780      2953      2954      2955      2952
      2953      2954      2955      2956      2953      2958      2959      2956
      2953      2958      2959      2960      2954      2949      2950      2945
      2954      2949      2950      2951      2954      2953      2958      2957
      2954      2953      2958      2959      2954      2955      2956      2959
      2954      2955      2956      3133      2955      2952      3129      3134
      2955      2952      3129      3130      2955      2956      2959      2958
      2955      2956      2959      2960      2955      2956      3133      3138
      2955      2956      3133      3134      2956      2959      2960      2963
      2956      2959      2960      3137      2956      3133      3138      3137
      2956      3133      3138      3139      2956      3133      3134      3129
      2956      3133      3134      3135      2957      2780      2783      2782
      2957      2780      2783      2784      2957      2958      2959      2956
      2957      2958      2959      2960      2957      2962      2963      2960
      2957      2962      2963      2964      2958      2953      2954      2949
      2958      2953      2954      2955      2958      2957      2962      2961
      2958      2957      2962      2963      2958      2959      2960      2963
      2958      2959      2960      3137      2959      2956      3133      3138
      2959      2956      3133      3134      2959      2960      2963      2962
      2959      2960      2963      2964      2959      2960      3137      3142
      2959      2960      3137      3138      2960      2963      2964      2967
      2960      2963      2964      3141      2960      3137      3142      3141
      2960      3137      3142      3143      2960      3137      3138      3133
      2960      3137      3138      3139      2961      2784      2787      2786
      2961      2784      2787      2788      2961      2962      2963      2960
      2961      2962      2963      2964      2961      2966      2967      2964
      2961      2966      2967      2968      2962      2957      2958      2953
      2962      2957      2958      2959      2962      2961      2966      2965
      2962      2961      2966      2967      2962      2963      2964      2967
      2962      2963      2964      3141      2963      2960      3137      3142
      2963      2960      3137      3138      2963      2964      2967      2966
      2963      2964      2967      2968      2963      2964      3141      3142
      2963      2964      3141      3146      2964      2967      2968      2971
      2964      2967      2968      3145      2964      3141      3142      3137
      2964      3141      3142      3143      2964      3141      3146      3145
      2964      3141      3146      3147      2965      2788      2791      2790
      2965      2788      2791      2792      2965      2966      2967      2964
      2965      2966      2967      2968      2965      2970      2971      2968
      2965      2970      2971      2972      2966      2961      2962      2957
      2966      2961      2962      2963      2966      2965      2970      2969
      2966      2965      2970      2971      2966      2967      2968      2971
      2966      2967      2968      3145      2967      2964      3141      3142
      2967      2964      3141      3146      2967      2968      2971      2970
      2967      2968      2971      2972      2967      2968      3145      3146
      2967      2968      3145      3150      2968      2971      2972      2975
      2968      2971      2972      3149      2968      3145      3146      3141
      2968      3145      3146      3147      2968      3145      3150      3149
      2968      3145      3150      3151      2969      2792      2795      2794
      2969      2792      2795      2796      2969      2970      2971      2968
      2969      2970      2971      2972      2969      2974      2975      2972
      2969      2974      2975      2976      2970      2965      2966      2961
      2970      2965      2966      2967      2970      2969      2974      2973
      2970      2969      2974      2975      2970      2971      2972      2975
      2970      2971      2972      3149      2971      2968      3145      3146
      2971      2968      3145      3150      2971      2972      2975      2974
      2971      2972      2975      2976      2971      2972      3149      3154
      2971      2972      3149      3150      2972      2975      2976      2979
      2972      2975      2976      3153      2972      3149      3154      3153
      2972      3149      3154      3155      2972      3149      3150      3145
      2972      3149      3150      3151      2973      2796      2799      2798
      2973      2796      2799      2800      2973      2974      2975      2972
      2973      2974      2975      2976      2973      2978      2979      2976
      2973      2978      2979      2980      2974      2969      2970      2965
      2974      2969      2970      2971      2974      2973      2978      2977
      2974      2973      2978      2979      2974      2975      2976      2979
      2974      2975      2976      3153      2975      2972      3149      3154
      2975      2972      3149      3150      2975      2976      2979      2978
      2975      2976      2979      2980      2975      2976      3153      3158
      2975      2976      3153      3154      2976      2979      2980      2983
      2976      2979      2980      3157      2976      3153      3158      3157
      2976      3153      3158      3159      2976      3153      3154      3149
      2976      3153      3154      3155      2977      2800      2803      2802
      2977      2800      2803      2804      2977      2978      2979      2976
      2977      2978      2979      2980      2977      2982      2983      2980
      2977      2982      2983      2984      2978      2973      2974      2969
      2978      2973      2974      2975      2978      2977      2982      2981
      2978      2977      2982      2983      2978      2979      2980      2983
      2978      2979      2980      3157      2979      2976      3153      3158
      2979      2976      3153      3154      2979      2980      2983      2982
      2979      2980      2983      2984      2979      2980      3157      3162
      2979      2980      3157      3158      2980      2983      2984      2987
      2980      2983      2984      3161      2980      3157      3162      3161
      2980      3157      3162      3163      2980      3157      3158      3153
      2980      3157      3158      3159      2981      2804      2807      2806
      2981      2804      2807      2808      2981      2982      2983      2980
      2981      2982      2983      2984      2981      2986      2987      2984
      2981      2986      2987      2988      2982      2977      2978      2973
      2982      2977      2978      2979      2982      2981      2986      2985
      2982      2981      2986      2987      2982      2983      2984      2987
      2982      2983      2984      3161      2983      2980      3157      3162
      2983      2980      3157      3158      2983      2984      2987      2986
      2983      2984      2987      2988      2983      2984      3161      3162
      2983      2984      3161      3166      2984      2987      2988      2991
      2984      2987      2988      3165      2984      3161      3162      3157
      2984      3161      3162      3163      2984      3161      3166      3165
      2984      3161      3166      3167      2985      2808      2811      2810
      2985      2808      2811      2812      2985      2986      2987      2984
      2985      2986      2987      2988      2985      2990      2991      2988
      2985      2990      2991      2992      2986      2981      2982      2977
      2986      2981      2982      2983      2986      2985      2990      2989
      2986      2985      2990      2991      2986      2987      2988      2991
      2986      2987      2988      3165      2987      2984      3161      3162
      2987      2984      3161      3166      2987      2988      2991      2990
      2987      2988      2991      2992      2987      2988      3165      3166
      2987      2988      3165      3170      2988      2991      2992      2995
      2988      2991      2992      3169      2988      3165      3166      3161
      2988      3165      3166      3167      2988      3165      3170      3169
      2988      3165      3170      3171      2989      2812      2815      2814
      2989      2812      2815      2816      2989      2990      2991      2988
      2989      2990      2991      2992      2989      2994      2995      2992
      2989      2994      2995      2996      2990      2985      2986      2981
      2990      2985      2986      2987      2990      2989      2994      2993
      2990      2989      2994      2995      2990      2991      2992      2995
      2990      2991      2992      3169      2991      2988      3165      3166
      2991      2988      3165      3170      2991      2992      2995      2994
      2991      2992      2995      2996      2991      2992      3169      3174
      2991      2992      3169      3170      2992      2995      2996      2999
      2992      2995      2996      3173      2992      3169      3174      3173
      2992      3169      3174      3175      2992      3169      3170      3165
      2992      3169      3170      3171      2993      2816      2819      2818
      2993      2816      2819      2820      2993      2994      2995      2992
      2993      2994      2995      2996      2993      2998      2999      2996
      2993      2998      2999      3000      2994      2989      2990      2985
      2994      2989      2990      2991      2994      2993      2998      2997
      2994      2993      2998      2999      2994      2995      2996      2999
      2994      2995      2996      3173      2995      2992      3169      3174
      2995      2992      3169      3170      2995      2996      2999      2998
      2995      2996      2999      3000      2995      2996      3173      3178
      2995      2996      3173      3174      2996      2999      3000      3003
      2996      2999      3000      3177      2996      3173      3178      3177
      2996      3173      3178      3179      2996      3173      3174      3169
      2996      3173      3174      3175      2997      2820      2823      2822
      2997      2820      2823      2824      2997      2998      2999      2996
      2997      2998      2999      3000      2997      3002      3003      3000
      2997      3002      3003      3004      2998      2993      2994      2989
      2998      2993      2994      2995      2998      2997      3002      3001
      2998      2997      3002      3003      2998      2999      3000      3003
      2998      2999      3000      3177      2999      2996      3173      3178
      2999      2996      3173      3174      2999      3000      3003      3002
      2999      3000      3003      3004      2999      3000      3177      3182
      2999      3000      3177      3178      3000      3003      3004      3007
      3000      3003      3004      3181      3000      3177      3182      3181
      3000      3177      3182      3183      3000      3177      3178      3173
      3000      3177      3178      3179      3001      2824      2827      2826
      3001      2824      2827      2828      3001      3002      3003      3000
      3001      3002      3003      3004      3001      3006      3007      3004
      3001      3006      3007      3008      3002      2997      2998      2993
      3002      2997      2998      2999      3002      3001      3006      3005
      3002      3001      3006      3007      3002      3003      3004      3007
      3002      3003      3004      3181      3003      3000      3177      3182
      3003      3000      3177      3178      3003      3004      3007      3006
      3003      3004      3007      3008      3003      3004      3181      3182
      3003      3004      3181      3186      3004      3007      3008      3011
      3004      3007      3008      3185      3004      3181      3182      3177
      3004      3181      3182      3183      3004      3181      3186      3185
      3004      3181      3186      3187      3005      2828      2831      2830
      3005      2828      2831      2832      3005      3006      3007      3004
      3005      3006      3007      3008      3005      3010      3011      3008
      3005      3010      3011      3012      3006      3001      3002      2997
      3006      3001      3002      3003      3006      3005      3010      3009
      3006      3005      3010      3011      3006      3007      3008      3011
      3006      3007      3008      3185      3007      3004      3181      3182
      3007      3004      3181      3186      3007      3008      3011      3010
      3007      3008      3011      3012      3007      3008      3185      3186
      3007      3008      3185      3190      3008      3011      3012      3015
      3008      3011      3012      3189      3008      3185      3186      3181
      3008      3185      3186      3187      3008      3185      3190      3189
      3008      3185      3190      3191      3009      2832      2835      2834
      3009      2832      2835      2836      3009      3010      3011      3008
      3009      3010      3011      3012      3009      3014      3015      3012
      3009      3014      3015      3016      3010      3005      3006      3001
      3010      3005      3006      3007      3010      3009      3014      3013
      3010      3009      3014      3015      3010      3011      3012      3015
      3010      3011      3012      3189      3011      3008      3185      3186
      3011      3008      3185      3190      3011      3012      3015      3014
      3011      3012      3015      3016      3011      3012      3189      3194
      3011      3012      3189      3190      3012      3015      3016      3019
      3012      3015      3016      3193      3012      3189      3194      3193
      3012      3189      3194      3195      3012      3189      3190      3185
      3012      3189      3190      3191      3013      2836      2839      2838
      3013      2836      2839      2840      3013      3014      3015      3012
      3013      3014      3015      3016      3013      3018      3019      3016
      3013      3018      3019      3020      3014      3009      3010      3005
      3014      3009      3010      3011      3014      3013      3018      3017
      3014      3013      3018      3019      3014      3015      3016      3019
      3014      3015      3016      3193      3015      3012      3189      3194
      3015      3012      3189      3190      3015      3016      3019      3018
      3015      3016      3019      3020      3015      3016      3193      3198
      3015      3016      3193      3194      3016      3019      3020      3023
      3016      3019      3020      3197      3016      3193      3198      3197
      3016      3193      3198      3199      3016      3193      3194      3189
      3016      3193      3194      3195      3017      2840      2843      2842
      3017      2840      2843      2844      3017      3018      3019      3016
      3017      3018      3019      3020      3017      3022      3023      3020
      3017      3022      3023      3024      3018      3013      3014      3009
      3018      3013      3014      3015      3018      3017      3022      3021
      3018      3017      3022      3023      3018      3019      3020      3023
      3018      3019      3020      3197      3019      3016      3193      3198
      3019      3016      3193      3194      3019      3020      3023      3022
      3019      3020      3023      3024      3019      3020      3197      3202
      3019      3020      3197      3198      3020      3023      3024      3027
      3020      3023      3024      3201      3020      3197      3202      3201
      3020      3197      3202      3203      3020      3197      3198      3193
      3020      3197      3198      3199      3021      2844      2847      2846
      3021      2844      2847      2848      3021      3022      3023      3020
      3021      3022      3023      3024      3021      3026      3027      3024
      3021      3026      3027      3028      3022      3017      3018      3013
      3022      3017      3018      3019      3022      3021      3026      3025
      3022      3021      3026      3027      3022      3023      3024      3027
      3022      3023      3024      3201      3023      3020      3197      3202
      3023      3020      3197      3198      3023      3024      3027      3026
      3023      3024      3027      3028      3023      3024      3201      3202
      3023      3024      3201      3206      3024      3027      3028      3031
      3024      3027      3028      3205      3024      3201      3202      3197
      3024      3201      3202      3203      3024      3201      3206      3205
      3024      3201      3206      3207      3025      2848      2851      2850
      3025      2848      2851      2852      3025      3026      3027      3024
      3025      3026      3027      3028      3025      3030      3031      3028
      3025      3030      3031      3032      3026      3021      3022      3017
      3026      3021      3022      3023      3026      3025      3030      3029
      3026      3025      3030      3031      3026      3027      3028      3031
      3026      3027      3028      3205      3027      3024      3201      3202
      3027      3024      3201      3206      3027      3028      3031      3030
      3027      3028      3031      3032      3027      3028      3205      3206
      3027      3028      3205      3210      3028      3031      3032      3035
      3028      3031      3032      3209      3028      3205      3206      3201
      3028      3205      3206      3207      3028      3205      3210      3209
      3028      3205      3210      3211      3029      2852      2855      2854
      3029      2852      2855      2856      3029      3030      3031      3028
      3029      3030      3031      3032      3029      3034      3035      3032
      3029      3034      3035      3036      3030      3025      3026      3021
      3030      3025      3026      3027      3030      3029      3034      3033
      3030      3029      3034      3035      3030      3031      3032      3035
      3030      3031      3032      3209      3031      3028      3205      3206
      3031      3028      3205      3210      3031      3032      3035      3034
      3031      3032      3035      3036      3031      3032      3209      3214
      3031      3032      3209      3210      3032      3035      3036      3039
      3032      3035      3036      3213      3032      3209      3214      3213
      3032      3209      3214      3215      3032      3209      3210      3205
      3032      3209      3210      3211      3033      2856      2859      2858
      3033      2856      2859      2860      3033      3034      3035      3032
      3033      3034      3035      3036      3033      3038      3039      3036
      3033      3038      3039      3040      3034      3029      3030      3025
      3034      3029      3030      3031      3034      3033      3038      3037
      3034      3033      3038      3039      3034      3035      3036      3039
      3034      3035      3036      3213      3035      3032      3209      3214
      3035      3032      3209      3210      3035      3036      3039      3038
      3035      3036      3039      3040      3035      3036      3213      3218
      3035      3036      3213      3214      3036      3039      3040      3043
      3036      3039      3040      3217      3036      3213      3218      3217
      3036      3213      3218      3219      3036      3213      3214      3209
      3036      3213      3214      3215      3037      2860      2863      2862
      3037      2860      2863      2864      3037      3038      3039      3036
      3037      3038      3039      3040      3037      3042      3043      3040
      3037      3042      3043      3044      3038      3033      3034      3029
      3038      3033      3034      3035      3038      3037      3042      3041
      3038      3037      3042      3043      3038      3039      3040      3043
      3038      3039      3040      3217      3039      3036      3213      3218
      3039      3036      3213      3214      3039      3040      3043      3042
      3039      3040      3043      3044      3039      3040      3217      3222
      3039      3040      3217      3218      3040      3043      3044      3047
      3040      3043      3044      3221      3040      3217      3222      3221
      3040      3217      3222      3223      3040      3217      3218      3213
      3040      3217      3218      3219      3041      2864      2867      2866
      3041      2864      2867      2868      3041      3042      3043      3040
      3041      3042      3043      3044      3041      3046      3047      3044
      3041      3046      3047      3048      3042      3037      3038      3033
      3042      3037      3038      3039      3042      3041      3046      3045
      3042      3041      3046      3047      3042      3043      3044      3047
      3042      3043      3044      3221      3043      3040      3217      3222
      3043      3040      3217      3218      3043      3044      3047      3046
      3043      3044      3047      3048      3043      3044      3221      3222
      3043      3044      3221      3226      3044      3047      3048      3051
      3044      3047      3048      3225      3044      3221      3222      3217
      3044      3221      3222      3223      3044      3221      3226      3225
      3044      3221      3226      3227      3045      2868      2871      2870
      3045      2868      2871      2872      3045      3046      3047      3044
      3045      3046      3047      3048      3045      3050      3051      3048
      3045      3050      3051      3052      3046      3041      3042      3037
      3046      3041      3042      3043      3046      3045      3050      3049
      3046      3045      3050      3051      3046      3047      3048      3051
      3046      3047      3048      3225      3047      3044      3221      3222
      3047      3044      3221      3226      3047      3048      3051      3050
      3047      3048      3051      3052      3047      3048      3225      3226
      3047      3048      3225      3230      3048      3051      3052      3055
      3048      3051      3052      3229      3048      3225      3226      3221
      3048      3225      3226      3227      3048      3225      3230      3229
      3048      3225      3230      3231      3049      2872      2875      2874
      3049      2872      2875      2876      3049      3050      3051      3048
      3049      3050      3051      3052      3049      3054      3055      3052
      3049      3054      3055      3056      3050      3045      3046      3041
      3050      3045      3046      3047      3050      3049      3054      3053
      3050      3049      3054      3055      3050      3051      3052      3055
      3050      3051      3052      3229      3051      3048      3225      3226
      3051      3048      3225      3230      3051      3052      3055      3054
      3051      3052      3055      3056      3051      3052      3229      3234
      3051      3052      3229      3230      3052      3055      3056      3059
      3052      3055      3056      3233      3052      3229      3234      3233
      3052      3229      3234      3235      3052      3229      3230      3225
      3052      3229      3230      3231      3053      2876      2879      2878
      3053      2876      2879      2880      3053      3054      3055      3052
      3053      3054      3055      3056      3053      3058      3059      3056
      3053      3058      3059      3060      3054      3049      3050      3045
      3054      3049      3050      3051      3054      3053      3058      3057
      3054      3053      3058      3059      3054      3055      3056      3059
      3054      3055      3056      3233      3055      3052      3229      3234
      3055      3052      3229      3230      3055      3056      3059      3058
      3055      3056      3059      3060      3055      3056      3233      3238
      3055      3056      3233      3234      3056      3059      3060      3237
      3056      3233      3238      3237      3056      3233      3238      3239
      3056      3233      3234      3229      3056      3233      3234      3235
      3057      3058      3059      3056      3057      3058      3059      3060
      3058      3053      3054      3049      3058      3053      3054      3055
      3058      3059      3060      3237      3059      3056      3233      3238
      3059      3056      3233      3234      3059      3060      3237      3238
      3060      3237      3238      3233      3060      3237      3238      3239
      3061      2884      2887      2886      3061      2884      2887      2888
      3061      3062      3063      3064      3061      3066      3067      3064
      3061      3066      3067      3068      3062      3061      3066      3065
      3062      3061      3066      3067      3062      3063      3064      3067
      3062      3063      3064      3241      3063      3064      3067      3066
      3063      3064      3067      3068      3063      3064      3241      3242
      3063      3064      3241      3246      3064      3067      3068      3071
      3064      3067      3068      3245      3064      3241      3242      3243
      3064      3241      3246      3245      3064      3241      3246      3247
      3065      2888      2891      2890      3065      2888      2891      2892
      3065      3066      3067      3064      3065      3066      3067      3068
      3065      3070      3071      3068      3065      3070      3071      3072
      3066      3061      3062      3063      3066      3065      3070      3069
      3066      3065      3070      3071      3066      3067      3068      3071
      3066      3067      3068      3245      3067      3064      3241      3242
      3067      3064      3241      3246      3067      3068      3071      3070
      3067      3068      3071      3072      3067      3068      3245      3246
      3067      3068      3245      3250      3068      3071      3072      3075
      3068      3071      3072      3249      3068      3245      3246      3241
      3068      3245      3246      3247      3068      3245      3250      3249
      3068      3245      3250      3251      3069      2892      2895      2894
      3069      2892      2895      2896      3069      3070      3071      3068
      3069      3070      3071      3072      3069      3074      3075      3072
      3069      3074      3075      3076      3070      3065      3066      3061
      3070      3065      3066      3067      3070      3069      3074      3073
      3070      3069      3074      3075      3070      3071      3072      3075
      3070      3071      3072      3249      3071      3068      3245      3246
      3071      3068      3245      3250      3071      3072      3075      3074
      3071      3072      3075      3076      3071      3072      3249      3254
      3071      3072      3249      3250      3072      3075      3076      3079
      3072      3075      3076      3253      3072      3249      3254      3253
      3072      3249      3254      3255      3072      3249      3250      3245
      3072      3249      3250      3251      3073      2896      2899      2898
      3073      2896      2899      2900      3073      3074      3075      3072
      3073      3074      3075      3076      3073      3078      3079      3076
      3073      3078      3079      3080      3074      3069      3070      3065
      3074      3069      3070      3071      3074      3073      3078      3077
      3074      3073      3078      3079      3074      3075      3076      3079
      3074      3075      3076      3253      3075      3072      3249      3254
      3075      3072      3249      3250      3075      3076      3079      3078
      3075      3076      3079      3080      3075      3076      3253      3258
      3075      3076      3253      3254      3076      3079      3080      3083
      3076      3079      3080      3257      3076      3253      3258      3257
      3076      3253      3258      3259      3076      3253      3254      3249
      3076      3253      3254      3255      3077      2900      2903      2902
      3077      2900      2903      2904      3077      3078      3079      3076
      3077      3078      3079      3080      3077      3082      3083      3080
      3077      3082      3083      3084      3078      3073      3074      3069
      3078      3073      3074      3075      3078      3077      3082      3081
      3078      3077      3082      3083      3078      3079      3080      3083
      3078      3079      3080      3257      3079      3076      3253      3258
      3079      3076      3253      3254      3079      3080      3083      3082
      3079      3080      3083      3084      3079      3080      3257      3262
      3079      3080      3257      3258      3080      3083      3084      3087
      3080      3083      3084      3261      3080      3257      3262      3261
      3080      3257      3262      3263      3080      3257      3258      3253
      3080      3257      3258      3259      3081      2904      2907      2906
      3081      2904      2907      2908      3081      3082      3083      3080
      3081      3082      3083      3084      3081      3086      3087      3084
      3081      3086      3087      3088      3082      3077      3078      3073
      3082      3077      3078      3079      3082      3081      3086      3085
      3082      3081      3086      3087      3082      3083      3084      3087
      3082      3083      3084      3261      3083      3080      3257      3262
      3083      3080      3257      3258      3083      3084      3087      3086
      3083      3084      3087      3088      3083      3084      3261      3262
      3083      3084      3261      3266      3084      3087      3088      3091
      3084      3087      3088      3265      3084      3261      3262      3257
      3084      3261      3262      3263      3084      3261      3266      3265
      3084      3261      3266      3267      3085      2908      2911      2910
      3085      2908      2911      2912      3085      3086      3087      3084
      3085      3086      3087      3088      3085      3090      3091      3088
      3085      3090      3091      3092      3086      3081      3082      3077
      3086      3081      3082      3083      3086      3085      3090      3089
      3086      3085      3090      3091      3086      3087      3088      3091
      3086      3087      3088      3265      3087      3084      3261      3262
      3087      3084      3261      3266      3087      3088      3091      3090
      3087      3088      3091      3092      3087      3088      3265      3266
      3087      3088      3265      3270      3088      3091      3092      3095
      3088      3091      3092      3269      3088      3265      3266      3261
      3088      3265      3266      3267      3088      3265      3270      3269
      3088      3265      3270      3271      3089      2912      2915      2914
      3089      2912      2915      2916      3089      3090      3091      3088
      3089      3090      3091      3092      3089      3094      3095      3092
      3089      3094      3095      3096      3090      3085      3086      3081
      3090      3085      3086      3087      3090      3089      3094      3093
      3090      3089      3094      3095      3090      3091      3092      3095
      3090      3091      3092      3269      3091      3088      3265      3266
      3091      3088      3265      3270      3091      3092      3095      3094
      3091      3092      3095      3096      3091      3092      3269      3274
      3091      3092      3269      3270      3092      3095      3096      3099
      3092      3095      3096      3273      3092      3269      3274      3273
      3092      3269      3274      3275      3092      3269      3270      3265
      3092      3269      3270      3271      3093      2916      2919      2918
      3093      2916      2919      2920      3093      3094      3095      3092
      3093      3094      3095      3096      3093      3098      3099      3096
      3093      3098      3099      3100      3094      3089      3090      3085
      3094      3089      3090      3091      3094      3093      3098      3097
      3094      3093      3098      3099      3094      3095      3096      3099
      3094      3095      3096      3273      3095      3092      3269      3274
      3095      3092      3269      3270      3095      3096      3099      3098
      3095      3096      3099      3100      3095      3096      3273      3278
      3095      3096      3273      3274      3096      3099      3100      3103
      3096      3099      3100      3277      3096      3273      3278      3277
      3096      3273      3278      3279      3096      3273      3274      3269
      3096      3273      3274      3275      3097      2920      2923      2922
      3097      2920      2923      2924      3097      3098      3099      3096
      3097      3098      3099      3100      3097      3102      3103      3100
      3097      3102      3103      3104      3098      3093      3094      3089
      3098      3093      3094      3095      3098      3097      3102      3101
      3098      3097      3102      3103      3098      3099      3100      3103
      3098      3099      3100      3277      3099      3096      3273      3278
      3099      3096      3273      3274      3099      3100      3103      3102
      3099      3100      3103      3104      3099      3100      3277      3282
      3099      3100      3277      3278      3100      3103      3104      3107
      3100      3103      3104      3281      3100      3277      3282      3281
      3100      3277      3282      3283      3100      3277      3278      3273
      3100      3277      3278      3279      3101      2924      2927      2926
      3101      2924      2927      2928      3101      3102      3103      3100
      3101      3102      3103      3104      3101      3106      3107      3104
      3101      3106      3107      3108      3102      3097      3098      3093
      3102      3097      3098      3099      3102      3101      3106      3105
      3102      3101      3106      3107      3102      3103      3104      3107
      3102      3103      3104      3281      3103      3100      3277      3282
      3103      3100      3277      3278      3103      3104      3107      3106
      3103      3104      3107      3108      3103      3104      3281      3282
      3103      3104      3281      3286      3104      3107      3108      3111
      3104      3107      3108      3285      3104      3281      3282      3277
      3104      3281      3282      3283      3104      3281      3286      3285
      3104      3281      3286      3287      3105      2928      2931      2930
      3105      2928      2931      2932      3105      3106      3107      3104
      3105      3106      3107      3108      3105      3110      3111      3108
      3105      3110      3111      3112      3106      3101      3102      3097
      3106      3101      3102      3103      3106      3105      3110      3109
      3106      3105      3110      3111      3106      3107      3108      3111
      3106      3107      3108      3285      3107      3104      3281      3282
      3107      3104      3281      3286      3107      3108      3111      3110
      3107      3108      3111      3112      3107      3108      3285      3286
      3107      3108      3285      3290      3108      3111      3112      3115
      3108      3111      3112      3289      3108      3285      3286      3281
      3108      3285      3286      3287      3108      3285      3290      3289
      3108      3285      3290      3291      3109      2932      2935      2934
      3109      2932      2935      2936      3109      3110      3111      3108
      3109      3110      3111      3112      3109      3114      3115      3112
      3109      3114      3115      3116      3110      3105      3106      3101
      3110      3105      3106      3107      3110      3109      3114      3113
      3110      3109      3114      3115      3110      3111      3112      3115
      3110      3111      3112      3289      3111      3108      3285      3286
      3111      3108      3285      3290      3111      3112      3115      3114
      3111      3112      3115      3116      3111      3112      3289      3294
      3111      3112      3289      3290      3112      3115      3116      3119
      3112      3115      3116      3293      3112      3289      3294      3293
      3112      3289      3294      3295      3112      3289      3290      3285
      3112      3289      3290      3291      3113      2936      2939      2938
      3113      2936      2939      2940      3113      3114      3115      3112
      3113      3114      3115      3116      3113      3118      3119      3116
      3113      3118      3119      3120      3114      3109      3110      3105
      3114      3109      3110      3111      3114      3113      3118      3117
      3114      3113      3118      3119      3114      3115      3116      3119
      3114      3115      3116      3293      3115      3112      3289      3294
      3115      3112      3289      3290      3115      3116      3119      3118
      3115      3116      3119      3120      3115      3116      3293      3298
      3115      3116      3293      3294      3116      3119      3120      3123
      3116      3119      3120      3297      3116      3293      3298      3297
      3116      3293      3298      3299      3116      3293      3294      3289
      3116      3293      3294      3295      3117      2940      2943      2942
      3117      2940      2943      2944      3117      3118      3119      3116
      3117      3118      3119      3120      3117      3122      3123      3120
      3117      3122      3123      3124      3118      3113      3114      3109
      3118      3113      3114      3115      3118      3117      3122      3121
      3118      3117      3122      3123      3118      3119      3120      3123
      3118      3119      3120      3297      3119      3116      3293      3298
      3119      3116      3293      3294      3119      3120      3123      3122
      3119      3120      3123      3124      3119      3120      3297      3302
      3119      3120      3297      3298      3120      3123      3124      3127
      3120      3123      3124      3301      3120      3297      3302      3301
      3120      3297      3302      3303      3120      3297      3298      3293
      3120      3297      3298      3299      3121      2944      2947      2946
      3121      2944      2947      2948      3121      3122      3123      3120
      3121      3122      3123      3124      3121      3126      3127      3124
      3121      3126      3127      3128      3122      3117      3118      3113
      3122      3117      3118      3119      3122      3121      3126      3125
      3122      3121      3126      3127      3122      3123      3124      3127
      3122      3123      3124      3301      3123      3120      3297      3302
      3123      3120      3297      3298      3123      3124      3127      3126
      3123      3124      3127      3128      3123      3124      3301      3302
      3123      3124      3301      3306      3124      3127      3128      3131
      3124      3127      3128      3305      3124      3301      3302      3297
      3124      3301      3302      3303      3124      3301      3306      3305
      3124      3301      3306      3307      3125      2948      2951      2950
      3125      2948      2951      2952      3125      3126      3127      3124
      3125      3126      3127      3128      3125      3130      3131      3128
      3125      3130      3131      3132      3126      3121      3122      3117
      3126      3121      3122      3123      3126      3125      3130      3129
      3126      3125      3130      3131      3126      3127      3128      3131
      3126      3127      3128      3305      3127      3124      3301      3302
      3127      3124      3301      3306      3127      3128      3131      3130
      3127      3128      3131      3132      3127      3128      3305      3306
      3127      3128      3305      3310      3128      3131      3132      3135
      3128      3131      3132      3309      3128      3305      3306      3301
      3128      3305      3306      3307      3128      3305      3310      3309
      3128      3305      3310      3311      3129      2952      2955      2954
      3129      2952      2955      2956      3129      3130      3131      3128
      3129      3130      3131      3132      3129      3134      3135      3132
      3129      3134      3135      3136      3130      3125      3126      3121
      3130      3125      3126      3127      3130      3129      3134      3133
      3130      3129      3134      3135      3130      3131      3132      3135
      3130      3131      3132      3309      3131      3128      3305      3306
      3131      3128      3305      3310      3131      3132      3135      3134
      3131      3132      3135      3136      3131      3132      3309      3314
      3131      3132      3309      3310      3132      3135      3136      3139
      3132      3135      3136      3313      3132      3309      3314      3313
      3132      3309      3314      3315      3132      3309      3310      3305
      3132      3309      3310      3311      3133      2956      2959      2958
      3133      2956      2959      2960      3133      3134      3135      3132
      3133      3134      3135      3136      3133      3138      3139      3136
      3133      3138      3139      3140      3134      3129      3130      3125
      3134      3129      3130      3131      3134      3133      3138      3137
      3134      3133      3138      3139      3134      3135      3136      3139
      3134      3135      3136      3313      3135      3132      3309      3314
      3135      3132      3309      3310      3135      3136      3139      3138
      3135      3136      3139      3140      3135      3136      3313      3314
      3135      3136      3313      3318      3136      3139      3140      3143
      3136      3139      3140      3317      3136      3313      3314      3309
      3136      3313      3314      3315      3136      3313      3318      3317
      3136      3313      3318      3319      3137      2960      2963      2962
      3137      2960      2963      2964      3137      3138      3139      3136
      3137      3138      3139      3140      3137      3142      3143      3140
      3137      3142      3143      3144      3138      3133      3134      3129
      3138      3133      3134      3135      3138      3137      3142      3141
      3138      3137      3142      3143      3138      3139      3140      3143
      3138      3139      3140      3317      3139      3136      3313      3314
      3139      3136      3313      3318      3139      3140      3143      3142
      3139      3140      3143      3144      3139      3140      3317      3322
      3139      3140      3317      3318      3140      3143      3144      3147
      3140      3143      3144      3321      3140      3317      3322      3321
      3140      3317      3322      3323      3140      3317      3318      3313
      3140      3317      3318      3319      3141      2964      2967      2966
      3141      2964      2967      2968      3141      3142      3143      3140
      3141      3142      3143      3144      3141      3146      3147      3144
      3141      3146      3147      3148      3142      3137      3138      3133
      3142      3137      3138      3139      3142      3141      3146      3145
      3142      3141      3146      3147      3142      3143      3144      3147
      3142      3143      3144      3321      3143      3140      3317      3322
      3143      3140      3317      3318      3143      3144      3147      3146
      3143      3144      3147      3148      3143      3144      3321      3322
      3143      3144      3321      3326      3144      3147      3148      3151
      3144      3147      3148      3325      3144      3321      3322      3317
      3144      3321      3322      3323      3144      3321      3326      3325
      3144      3321      3326      3327      3145      2968      2971      2970
      3145      2968      2971      2972      3145      3146      3147      3144
      3145      3146      3147      3148      3145      3150      3151      3148
      3145      3150      3151      3152      3146      3141      3142      3137
      3146      3141      3142      3143      3146      3145      3150      3149
      3146      3145      3150      3151      3146      3147      3148      3151
      3146      3147      3148      3325      3147      3144      3321      3322
      3147      3144      3321      3326      3147      3148      3151      3150
      3147      3148      3151      3152      3147      3148      3325      3326
      3147      3148      3325      3330      3148      3151      3152      3155
      3148      3151      3152      3329      3148      3325      3326      3321
      3148      3325      3326      3327      3148      3325      3330      3329
      3148      3325      3330      3331      3149      2972      2975      2974
      3149      2972      2975      2976      3149      3150      3151      3148
      3149      3150      3151      3152      3149      3154      3155      3152
      3149      3154      3155      3156      3150      3145      3146      3141
      3150      3145      3146      3147      3150      3149      3154      3153
      3150      3149      3154      3155      3150      3151      3152      3155
      3150      3151      3152      3329      3151      3148      3325      3326
      3151      3148      3325      3330      3151      3152      3155      3154
      3151      3152      3155      3156      3151      3152      3329      3334
      3151      3152      3329      3330      3152      3155      3156      3159
      3152      3155      3156      3333      3152      3329      3334      3333
      3152      3329      3334      3335      3152      3329      3330      3325
      3152      3329      3330      3331      3153      2976      2979      2978
      3153      2976      2979      2980      3153      3154      3155      3152
      3153      3154      3155      3156      3153      3158      3159      3156
      3153      3158      3159      3160      3154      3149      3150      3145
      3154      3149      3150      3151      3154      3153      3158      3157
      3154      3153      3158      3159      3154      3155      3156      3159
      3154      3155      3156      3333      3155      3152      3329      3334
      3155      3152      3329      3330      3155      3156      3159      3158
      3155      3156      3159      3160      3155      3156      3333      3338
      3155      3156      3333      3334      3156      3159      3160      3163
      3156      3159      3160      3337      3156      3333      3338      3337
      3156      3333      3338      3339      3156      3333      3334      3329
      3156      3333      3334      3335      3157      2980      2983      2982
      3157      2980      2983      2984      3157      3158      3159      3156
      3157      3158      3159      3160      3157      3162      3163      3160
      3157      3162      3163      3164      3158      3153      3154      3149
      3158      3153      3154      3155      3158      3157      3162      3161
      3158      3157      3162      3163      3158      3159      3160      3163
      3158      3159      3160      3337      3159      3156      3333      3338
      3159      3156      3333      3334      3159      3160      3163      3162
      3159      3160      3163      3164      3159      3160      3337      3342
      3159      3160      3337      3338      3160      3163      3164      3167
      3160      3163      3164      3341      3160      3337      3342      3341
      3160      3337      3342      3343      3160      3337      3338      3333
      3160      3337      3338      3339      3161      2984      2987      2986
      3161      2984      2987      2988      3161      3162      3163      3160
      3161      3162      3163      3164      3161      3166      3167      3164
      3161      3166      3167      3168      3162      3157      3158      3153
      3162      3157      3158      3159      3162      3161      3166      3165
      3162      3161      3166      3167      3162      3163      3164      3167
      3162      3163      3164      3341      3163      3160      3337      3342
      3163      3160      3337      3338      3163      3164      3167      3166
      3163      3164      3167      3168      3163      3164      3341      3342
      3163      3164      3341      3346      3164      3167      3168      3171
      3164      3167      3168      3345      3164      3341      3342      3337
      3164      3341      3342      3343      3164      3341      3346      3345
      3164      3341      3346      3347      3165      2988      2991      2990
      3165      2988      2991      2992      3165      3166      3167      3164
      3165      3166      3167      3168      3165      3170      3171      3168
      3165      3170      3171      3172      3166      3161      3162      3157
      3166      3161      3162      3163      3166      3165      3170      3169
      3166      3165      3170      3171      3166      3167      3168      3171
      3166      3167      3168      3345      3167      3164      3341      3342
      3167      3164      3341      3346      3167      3168      3171      3170
      3167      3168      3171      3172      3167      3168      3345      3346
      3167      3168      3345      3350      3168      3171      3172      3175
      3168      3171      3172      3349      3168      3345      3346      3341
      3168      3345      3346      3347      3168      3345      3350      3349
      3168      3345      3350      3351      3169      2992      2995      2994
      3169      2992      2995      2996      3169      3170      3171      3168
      3169      3170      3171      3172      3169      3174      3175      3172
      3169      3174      3175      3176      3170      3165      3166      3161
      3170      3165      3166      3167      3170      3169      3174      3173
      3170      3169      3174      3175      3170      3171      3172      3175
      3170      3171      3172      3349      3171      3168      3345      3346
      3171      3168      3345      3350      3171      3172      3175      3174
      3171      3172      3175      3176      3171      3172      3349      3354
      3171      3172      3349      3350      3172      3175      3176      3179
      3172      3175      3176      3353      3172      3349      3354      3353
      3172      3349      3354      3355      3172      3349      3350      3345
      3172      3349      3350      3351      3173      2996      2999      2998
      3173      2996      2999      3000      3173      3174      3175      3172
      3173      3174      3175      3176      3173      3178      3179      3176
      3173      3178      3179      3180      3174      3169      3170      3165
      3174      3169      3170      3171      3174      3173      3178      3177
      3174      3173      3178      3179      3174      3175      3176      3179
      3174      3175      3176      3353      3175      3172      3349      3354
      3175      3172      3349      3350      3175      3176      3179      3178
      3175      3176      3179      3180      3175      3176      3353      3358
      3175      3176      3353      3354      3176      3179      3180      3183
      3176      3179      3180      3357      3176      3353      3358      3357
      3176      3353      3358      3359      3176      3353      3354      3349
      3176      3353      3354      3355      3177      3000      3003      3002
      3177      3000      3003      3004      3177      3178      3179      3176
      3177      3178      3179      3180      3177      3182      3183      3180
      3177      3182      3183      3184      3178      3173      3174      3169
      3178      3173      3174      3175      3178      3177      3182      3181
      3178      3177      3182      3183      3178      3179      3180      3183
      3178      3179      3180      3357      3179      3176      3353      3358
      3179      3176      3353      3354      3179      3180      3183      3182
      3179      3180      3183      3184      3179      3180      3357      3362
      3179      3180      3357      3358      3180      3183      3184      3187
      3180      3183      3184      3361      3180      3357      3362      3361
      3180      3357      3362      3363      3180      3357      3358      3353
      3180      3357      3358      3359      3181      3004      3007      3006
      3181      3004      3007      3008      3181      3182      3183      3180
      3181      3182      3183      3184      3181      3186      3187      3184
      3181      3186      3187      3188      3182      3177      3178      3173
      3182      3177      3178      3179      3182      3181      3186      3185
      3182      3181      3186      3187      3182      3183      3184      3187
      3182      3183      3184      3361      3183      3180      3357      3362
      3183      3180      3357      3358      3183      3184      3187      3186
      3183      3184      3187      3188      3183      3184      3361      3362
      3183      3184      3361      3366      3184      3187      3188      3191
      3184      3187      3188      3365      3184      3361      3362      3357
      3184      3361      3362      3363      3184      3361      3366      3365
      3184      3361      3366      3367      3185      3008      3011      3010
      3185      3008      3011      3012      3185      3186      3187      3184
      3185      3186      3187      3188      3185      3190      3191      3188
      3185      3190      3191      3192      3186      3181      3182      3177
      3186      3181      3182      3183      3186      3185      3190      3189
      3186      3185      3190      3191      3186      3187      3188      3191
      3186      3187      3188      3365      3187      3184      3361      3362
      3187      3184      3361      3366      3187      3188      3191      3190
      3187      3188      3191      3192      3187      3188      3365      3366
      3187      3188      3365      3370      3188      3191      3192      3195
      3188      3191      3192      3369      3188      3365      3366      3361
      3188      3365      3366      3367      3188      3365      3370      3369
      3188      3365      3370      3371      3189      3012      3015      3014
      3189      3012      3015      3016      3189      3190      3191      3188
      3189      3190      3191      3192      3189      3194      3195      3192
      3189      3194      3195      3196      3190      3185      3186      3181
      3190      3185      3186      3187      3190      3189      3194      3193
      3190      3189      3194      3195      3190      3191      3192      3195
      3190      3191      3192      3369      3191      3188      3365      3366
      3191      3188      3365      3370      3191      3192      3195      3194
      3191      3192      3195      3196      3191      3192      3369      3374
      3191      3192      3369      3370      3192      3195      3196      3199
      3192      3195      3196      3373      3192      3369      3374      3373
      3192      3369      3374      3375      3192      3369      3370      3365
      3192      3369      3370      3371      3193      3016      3019      3018
      3193      3016      3019      3020      3193      3194      3195      3192
      3193      3194      3195      3196      3193      3198      3199      3196
      3193      3198      3199      3200      3194      3189      3190      3185
      3194      3189      3190      3191      3194      3193      3198      3197
      3194      3193      3198      3199      3194      3195      3196      3199
      3194      3195      3196      3373      3195      3192      3369      3374
      3195      3192      3369      3370      3195      3196      3199      3198
      3195      3196      3199      3200      3195      3196      3373      3378
      3195      3196      3373      3374      3196      3199      3200      3203
      3196      3199      3200      3377      3196      3373      3378      3377
      3196      3373      3378      3379      3196      3373      3374      3369
      3196      3373      3374      3375      3197      3020      3023      3022
      3197      3020      3023      3024      3197      3198      3199      3196
      3197      3198      3199      3200      3197      3202      3203      3200
      3197      3202      3203      3204      3198      3193      3194      3189
      3198      3193      3194      3195      3198      3197      3202      3201
      3198      3197      3202      3203      3198      3199      3200      3203
      3198      3199      3200      3377      3199      3196      3373      3378
      3199      3196      3373      3374      3199      3200      3203      3202
      3199      3200      3203      3204      3199      3200      3377      3382
      3199      3200      3377      3378      3200      3203      3204      3207
      3200      3203      3204      3381      3200      3377      3382      3381
      3200      3377      3382      3383      3200      3377      3378      3373
      3200      3377      3378      3379      3201      3024      3027      3026
      3201      3024      3027      3028      3201      3202      3203      3200
      3201      3202      3203      3204      3201      3206      3207      3204
      3201      3206      3207      3208      3202      3197      3198      3193
      3202      3197      3198      3199      3202      3201      3206      3205
      3202      3201      3206      3207      3202      3203      3204      3207
      3202      3203      3204      3381      3203      3200      3377      3382
      3203      3200      3377      3378      3203      3204      3207      3206
      3203      3204      3207      3208      3203      3204      3381      3382
      3203      3204      3381      3386      3204      3207      3208      3211
      3204      3207      3208      3385      3204      3381      3382      3377
      3204      3381      3382      3383      3204      3381      3386      3385
      3204      3381      3386      3387      3205      3028      3031      3030
      3205      3028      3031      3032      3205      3206      3207      3204
      3205      3206      3207      3208      3205      3210      3211      3208
      3205      3210      3211      3212      3206      3201      3202      3197
      3206      3201      3202      3203      3206      3205      3210      3209
      3206      3205      3210      3211      3206      3207      3208      3211
      3206      3207      3208      3385      3207      3204      3381      3382
      3207      3204      3381      3386      3207      3208      3211      3210
      3207      3208      3211      3212      3207      3208      3385      3386
      3207      3208      3385      3390      3208      3211      3212      3215
      3208      3211      3212      3389      3208      3385      3386      3381
      3208      3385      3386      3387      3208      3385      3390      3389
      3208      3385      3390      3391      3209      3032      3035      3034
      3209      3032      3035      3036      3209      3210      3211      3208
      3209      3210      3211      3212      3209      3214      3215      3212
      3209      3214      3215      3216      3210      3205      3206      3201
      3210      3205      3206      3207      3210      3209      3214      3213
      3210      3209      3214      3215      3210      3211      3212      3215
      3210      3211      3212      3389      3211      3208      3385      3386
      3211      3208      3385      3390      3211      3212      3215      3214
      3211      3212      3215      3216      3211      3212      3389      3394
      3211      3212      3389      3390      3212      3215      3216      3219
      3212      3215      3216      3393      3212      3389      3394      3393
      3212      3389      3394      3395      3212      3389      3390      3385
      3212      3389      3390      3391      3213      3036      3039      3038
      3213      3036      3039      3040      3213      3214      3215      3212
      3213      3214      3215      3216      3213      3218      3219      3216
      3213      3218      3219      3220      3214      3209      3210      3205
      3214      3209      3210      3211      3214      3213      3218      3217
      3214      3213      3218      3219      3214      3215      3216      3219
      3214      3215      3216      3393      3215      3212      3389      3394
      3215      3212      3389      3390      3215      3216      3219      3218
      3215      3216      3219      3220      3215      3216      3393      3398
      3215      3216      3393      3394      3216      3219      3220      3223
      3216      3219      3220      3397      3216      3393      3398      3397
      3216      3393      3398      3399      3216      3393      3394      3389
      3216      3393      3394      3395      3217      3040      3043      3042
      3217      3040      3043      3044      3217      3218      3219      3216
      3217      3218      3219      3220      3217      3222      3223      3220
      3217      3222      3223      3224      3218      3213      3214      3209
      3218      3213      3214      3215      3218      3217      3222      3221
      3218      3217      3222      3223      3218      3219      3220      3223
      3218      3219      3220      3397      3219      3216      3393      3398
      3219      3216      3393      3394      3219      3220      3223      3222
      3219      3220      3223      3224      3219      3220      3397      3402
      3219      3220      3397      3398      3220      3223      3224      3227
      3220      3223      3224      3401      3220      3397      3402      3401
      3220      3397      3402      3403      3220      3397      3398      3393
      3220      3397      3398      3399      3221      3044      3047      3046
      3221      3044      3047      3048      3221      3222      3223      3220
      3221      3222      3223      3224      3221      3226      3227      3224
      3221      3226      3227      3228      3222      3217      3218      3213
      3222      3217      3218      3219      3222      3221      3226      3225
      3222      3221      3226      3227      3222      3223      3224      3227
      3222      3223      3224      3401      3223      3220      3397      3402
      3223      3220      3397      3398      3223      3224      3227      3226
      3223      3224      3227      3228      3223      3224      3401      3402
      3223      3224      3401      3406      3224      3227      3228      3231
      3224      3227      3228      3405      3224      3401      3402      3397
      3224      3401      3402      3403      3224      3401      3406      3405
      3224      3401      3406      3407      3225      3048      3051      3050
      3225      3048      3051      3052      3225      3226      3227      3224
      3225      3226      3227      3228      3225      3230      3231      3228
      3225      3230      3231      3232      3226      3221      3222      3217
      3226      3221      3222      3223      3226      3225      3230      3229
      3226      3225      3230      3231      3226      3227      3228      3231
      3226      3227      3228      3405      3227      3224      3401      3402
      3227      3224      3401      3406      3227      3228      3231      3230
      3227      3228      3231      3232      3227      3228      3405      3406
      3227      3228      3405      3410      3228      3231      3232      3235
      3228      3231      3232      3409      3228      3405      3406      3401
      3228      3405      3406      3407      3228      3405      3410      3409
      3228      3405      3410      3411      3229      3052      3055      3054
      3229      3052      3055      3056      3229      3230      3231      3228
      3229      3230      3231      3232      3229      3234      3235      3232
      3229      3234      3235      3236      3230      3225      3226      3221
      3230      3225      3226      3227      3230      3229      3234      3233
      3230      3229      3234      3235      3230      3231      3232      3235
      3230      3231      3232      3409      3231      3228      3405      3406
      3231      3228      3405      3410      3231      3232      3235      3234
      3231      3232      3235      3236      3231      3232      3409      3414
      3231      3232      3409      3410      3232      3235      3236      3239
      3232      3235      3236      3413      3232      3409      3414      3413
      3232      3409      3414      3415      3232      3409      3410      3405
      3232      3409      3410      3411      3233      3056      3059      3058
      3233      3056      3059      3060      3233      3234      3235      3232
      3233      3234      3235      3236      3233      3238      3239      3236
      3233      3238      3239      3240      3234      3229      3230      3225
      3234      3229      3230      3231      3234      3233      3238      3237
      3234      3233      3238      3239      3234      3235      3236      3239
      3234      3235      3236      3413      3235      3232      3409      3414
      3235      3232      3409      3410      3235      3236      3239      3238
      3235      3236      3239      3240      3235      3236      3413      3418
      3235      3236      3413      3414      3236      3239      3240      3417
      3236      3413      3418      3417      3236      3413      3418      3419
      3236      3413      3414      3409      3236      3413      3414      3415
      3237      3238      3239      3236      3237      3238      3239      3240
      3238      3233      3234      3229      3238      3233      3234      3235
      3238      3239      3240      3417      3239      3236      3413      3418
      3239      3236      3413      3414      3239      3240      3417      3418
      3240      3417      3418      3413      3240      3417      3418      3419
      3241      3064      3067      3066      3241      3064      3067      3068
      3241      3242      3243      3244      3241      3246      3247      3244
      3241      3246      3247      3248      3242      3241      3246      3245
      3242      3241      3246      3247      3242      3243      3244      3247
      3242      3243      3244      3421      3243      3244      3247      3246
      3243      3244      3247      3248      3243      3244      3421      3422
      3243      3244      3421      3426      3244      3247      3248      3251
      3244      3247      3248      3425      3244      3421      3422      3423
      3244      3421      3426      3425      3244      3421      3426      3427
      3245      3068      3071      3070      3245      3068      3071      3072
      3245      3246      3247      3244      3245      3246      3247      3248
      3245      3250      3251      3248      3245      3250      3251      3252
      3246      3241      3242      3243      3246      3245      3250      3249
      3246      3245      3250      3251      3246      3247      3248      3251
      3246      3247      3248      3425      3247      3244      3421      3422
      3247      3244      3421      3426      3247      3248      3251      3250
      3247      3248      3251      3252      3247      3248      3425      3426
      3247      3248      3425      3430      3248      3251      3252      3255
      3248      3251      3252      3429      3248      3425      3426      3421
      3248      3425      3426      3427      3248      3425      3430      3429
      3248      3425      3430      3431      3249      3072      3075      3074
      3249      3072      3075      3076      3249      3250      3251      3248
      3249      3250      3251      3252      3249      3254      3255      3252
      3249      3254      3255      3256      3250      3245      3246      3241
      3250      3245      3246      3247      3250      3249      3254      3253
      3250      3249      3254      3255      3250      3251      3252      3255
      3250      3251      3252      3429      3251      3248      3425      3426
      3251      3248      3425      3430      3251      3252      3255      3254
      3251      3252      3255      3256      3251      3252      3429      3434
      3251      3252      3429      3430      3252      3255      3256      3259
      3252      3255      3256      3433      3252      3429      3434      3433
      3252      3429      3434      3435      3252      3429      3430      3425
      3252      3429      3430      3431      3253      3076      3079      3078
      3253      3076      3079      3080      3253      3254      3255      3252
      3253      3254      3255      3256      3253      3258      3259      3256
      3253      3258      3259      3260      3254      3249      3250      3245
      3254      3249      3250      3251      3254      3253      3258      3257
      3254      3253      3258      3259      3254      3255      3256      3259
      3254      3255      3256      3433      3255      3252      3429      3434
      3255      3252      3429      3430      3255      3256      3259      3258
      3255      3256      3259      3260      3255      3256      3433      3438
      3255      3256      3433      3434      3256      3259      3260      3263
      3256      3259      3260      3437      3256      3433      3438      3437
      3256      3433      3438      3439      3256      3433      3434      3429
      3256      3433      3434      3435      3257      3080      3083      3082
      3257      3080      3083      3084      3257      3258      3259      3256
      3257      3258      3259      3260      3257      3262      3263      3260
      3257      3262      3263      3264      3258      3253      3254      3249
      3258      3253      3254      3255      3258      3257      3262      3261
      3258      3257      3262      3263      3258      3259      3260      3263
      3258      3259      3260      3437      3259      3256      3433      3438
      3259      3256      3433      3434      3259      3260      3263      3262
      3259      3260      3263      3264      3259      3260      3437      3442
      3259      3260      3437      3438      3260      3263      3264      3267
      3260      3263      3264      3441      3260      3437      3442      3441
      3260      3437      3442      3443      3260      3437      3438      3433
      3260      3437      3438      3439      3261      3084      3087      3086
      3261      3084      3087      3088      3261      3262      3263      3260
      3261      3262      3263      3264      3261      3266      3267      3264
      3261      3266      3267      3268      3262      3257      3258      3253
      3262      3257      3258      3259      3262      3261      3266      3265
      3262      3261      3266      3267      3262      3263      3264      3267
      3262      3263      3264      3441      3263      3260      3437      3442
      3263      3260      3437      3438      3263      3264      3267      3266
      3263      3264      3267      3268      3263      3264      3441      3442
      3263      3264      3441      3446      3264      3267      3268      3271
      3264      3267      3268      3445      3264      3441      3442      3437
      3264      3441      3442      3443      3264      3441      3446      3445
      3264      3441      3446      3447      3265      3088      3091      3090
      3265      3088      3091      3092      3265      3266      3267      3264
      3265      3266      3267      3268      3265      3270      3271      3268
      3265      3270      3271      3272      3266      3261      3262      3257
      3266      3261      3262      3263      3266      3265      3270      3269
      3266      3265      3270      3271      3266      3267      3268      3271
      3266      3267      3268      3445      3267      3264      3441      3442
      3267      3264      3441      3446      3267      3268      3271      3270
      3267      3268      3271      3272      3267      3268      3445      3446
      3267      3268      3445      3450      3268      3271      3272      3275
      3268      3271      3272      3449      3268      3445      3446      3441
      3268      3445      3446      3447      3268      3445      3450      3449
      3268      3445      3450      3451      3269      3092      3095      3094
      3269      3092      3095      3096      3269      3270      3271      3268
      3269      3270      3271      3272      3269      3274      3275      3272
      3269      3274      3275      3276      3270      3265      3266      3261
      3270      3265      3266      3267      3270      3269      3274      3273
      3270      3269      3274      3275      3270      3271      3272      3275
      3270      3271      3272      3449      3271      3268      3445      3446
      3271      3268      3445      3450      3271      3272      3275      3274
      3271      3272      3275      3276      3271      3272      3449      3454
      3271      3272      3449      3450      3272      3275      3276      3279
      3272      3275      3276      3453      3272      3449      3454      3453
      3272      3449      3454      3455      3272      3449      3450      3445
      3272      3449      3450      3451      3273      3096      3099      3098
      3273      3096      3099      3100      3273      3274      3275      3272
      3273      3274      3275      3276      3273      3278      3279      3276
      3273      3278      3279      3280      3274      3269      3270      3265
      3274      3269      3270      3271      3274      3273      3278      3277
      3274      3273      3278      3279      3274      3275      3276      3279
      3274      3275      3276      3453      3275      3272      3449      3454
      3275      3272      3449      3450      3275      3276      3279      3278
      3275      3276      3279      3280      3275      3276      3453      3458
      3275      3276      3453      3454      3276      3279      3280      3283
      3276      3279      3280      3457      3276      3453      3458      3457
      3276      3453      3458      3459      3276      3453      3454      3449
      3276      3453      3454      3455      3277      3100      3103      3102
      3277      3100      3103      3104      3277      3278      3279      3276
      3277      3278      3279      3280      3277      3282      3283      3280
      3277      3282      3283      3284      3278      3273      3274      3269
      3278      3273      3274      3275      3278      3277      3282      3281
      3278      3277      3282      3283      3278      3279      3280      3283
      3278      3279      3280      3457      3279      3276      3453      3458
      3279      3276      3453      3454      3279      3280      3283      3282
      3279      3280      3283      3284      3279      3280      3457      3462
      3279      3280      3457      3458      3280      3283      3284      3287
      3280      3283      3284      3461      3280      3457      3462      3461
      3280      3457      3462      3463      3280      3457      3458      3453
      3280      3457      3458      3459      3281      3104      3107      3106
      3281      3104      3107      3108      3281      3282      3283      3280
      3281      3282      3283      3284      3281      3286      3287      3284
      3281      3286      3287      3288      3282      3277      3278      3273
      3282      3277      3278      3279      3282      3281      3286      3285
      3282      3281      3286      3287      3282      3283      3284      3287
      3282      3283      3284      3461      3283      3280      3457      3462
      3283      3280      3457      3458      3283      3284      3287      3286
      3283      3284      3287      3288      3283      3284      3461      3462
      3283      3284      3461      3466      3284      3287      3288      3291
      3284      3287      3288      3465      3284      3461      3462      3457
      3284      3461      3462      3463      3284      3461      3466      3465
      3284      3461      3466      3467      3285      3108      3111      3110
      3285      3108      3111      3112      3285      3286      3287      3284
      3285      3286      3287      3288      3285      3290      3291      3288
      3285      3290      3291      3292      3286      3281      3282      3277
      3286      3281      3282      3283      3286      3285      3290      3289
      3286      3285      3290      3291      3286      3287      3288      3291
      3286      3287      3288      3465      3287      3284      3461      3462
      3287      3284      3461      3466      3287      3288      3291      3290
      3287      3288      3291      3292      3287      3288      3465      3466
      3287      3288      3465      3470      3288      3291      3292      3295
      3288      3291      3292      3469      3288      3465      3466      3461
      3288      3465      3466      3467      3288      3465      3470      3469
      3288      3465      3470      3471      3289      3112      3115      3114
      3289      3112      3115      3116      3289      3290      3291      3288
      3289      3290      3291      3292      3289      3294      3295      3292
      3289      3294      3295      3296      3290      3285      3286      3281
      3290      3285      3286      3287      3290      3289      3294      3293
      3290      3289      3294      3295      3290      3291      3292      3295
      3290      3291      3292      3469      3291      3288      3465      3466
      3291      3288      3465      3470      3291      3292      3295      3294
      3291      3292      3295      3296      3291      3292      3469      3474
      3291      3292      3469      3470      3292      3295      3296      3299
      3292      3295      3296      3473      3292      3469      3474      3473
      3292      3469      3474      3475      3292      3469      3470      3465
      3292      3469      3470      3471      3293      3116      3119      3118
      3293      3116      3119      3120      3293      3294      3295      3292
      3293      3294      3295      3296      3293      3298      3299      3296
      3293      3298      3299      3300      3294      3289      3290      3285
      3294      3289      3290      3291      3294      3293      3298      3297
      3294      3293      3298      3299      3294      3295      3296      3299
      3294      3295      3296      3473      3295      3292      3469      3474
      3295      3292      3469      3470      3295      3296      3299      3298
      3295      3296      3299      3300      3295      3296      3473      3478
      3295      3296      3473      3474      3296      3299      3300      3303
      3296      3299      3300      3477      3296      3473      3478      3477
      3296      3473      3478      3479      3296      3473      3474      3469
      3296      3473      3474      3475      3297      3120      3123      3122
      3297      3120      3123      3124      3297      3298      3299      3296
      3297      3298      3299      3300      3297      3302      3303      3300
      3297      3302      3303      3304      3298      3293      3294      3289
      3298      3293      3294      3295      3298      3297      3302      3301
      3298      3297      3302      3303      3298      3299      3300      3303
      3298      3299      3300      3477      3299      3296      3473      3478
      3299      3296      3473      3474      3299      3300      3303      3302
      3299      3300      3303      3304      3299      3300      3477      3482
      3299      3300      3477      3478      3300      3303      3304      3307
      3300      3303      3304      3481      3300      3477      3482      3481
      3300      3477      3482      3483      3300      3477      3478      3473
      3300      3477      3478      3479      3301      3124      3127      3126
      3301      3124      3127      3128      3301      3302      3303      3300
      3301      3302      3303      3304      3301      3306      3307      3304
      3301      3306      3307      3308      3302      3297      3298      3293
      3302      3297      3298      3299      3302      3301      3306      3305
      3302      3301      3306      3307      3302      3303      3304      3307
      3302      3303      3304      3481      3303      3300      3477      3482
      3303      3300      3477      3478      3303      3304      3307      3306
      3303      3304      3307      3308      3303      3304      3481      3482
      3303      3304      3481      3486      3304      3307      3308      3311
      3304      3307      3308      3485      3304      3481      3482      3477
      3304      3481      3482      3483      3304      3481      3486      3485
      3304      3481      3486      3487      3305      3128      3131      3130
      3305      3128      3131      3132      3305      3306      3307      3304
      3305      3306      3307      3308      3305      3310      3311      3308
      3305      3310      3311      3312      3306      3301      3302      3297
      3306      3301      3302      3303      3306      3305      3310      3309
      3306      3305      3310      3311      3306      3307      3308      3311
      3306      3307      3308      3485      3307      3304      3481      3482
      3307      3304      3481      3486      3307      3308      3311      3310
      3307      3308      3311      3312      3307      3308      3485      3486
      3307      3308      3485      3490      3308      3311      3312      3315
      3308      3311      3312      3489      3308      3485      3486      3481
      3308      3485      3486      3487      3308      3485      3490      3489
      3308      3485      3490      3491      3309      3132      3135      3134
      3309      3132      3135      3136      3309      3310      3311      3308
      3309      3310      3311      3312      3309      3314      3315      3312
      3309      3314      3315      3316      3310      3305      3306      3301
      3310      3305      3306      3307      3310      3309      3314      3313
      3310      3309      3314      3315      3310      3311      3312      3315
      3310      3311      3312      3489      3311      3308      3485      3486
      3311      3308      3485      3490      3311      3312      3315      3314
      3311      3312      3315      3316      3311      3312      3489      3494
      3311      3312      3489      3490      3312      3315      3316      3319
      3312      3315      3316      3493      3312      3489      3494      3493
      3312      3489      3494      3495      3312      3489      3490      3485
      3312      3489      3490      3491      3313      3136      3139      3138
      3313      3136      3139      3140      3313      3314      3315      3312
      3313      3314      3315      3316      3313      3318      3319      3316
      3313      3318      3319      3320      3314      3309      3310      3305
      3314      3309      3310      3311      3314      3313      3318      3317
      3314      3313      3318      3319      3314      3315      3316      3319
      3314      3315      3316      3493      3315      3312      3489      3494
      3315      3312      3489      3490      3315      3316      3319      3318
      3315      3316      3319      3320      3315      3316      3493      3498
      3315      3316      3493      3494      3316      3319      3320      3323
      3316      3319      3320      3497      3316      3493      3498      3497
      3316      3493      3498      3499      3316      3493      3494      3489
      3316      3493      3494      3495      3317      3140      3143      3142
      3317      3140      3143      3144      3317      3318      3319      3316
      3317      3318      3319      3320      3317      3322      3323      3320
      3317      3322      3323      3324      3318      3313      3314      3309
      3318      3313      3314      3315      3318      3317      3322      3321
      3318      3317      3322      3323      3318      3319      3320      3323
      3318      3319      3320      3497      3319      3316      3493      3498
      3319      3316      3493      3494      3319      3320      3323      3322
      3319      3320      3323      3324      3319      3320      3497      3502
      3319      3320      3497      3498      3320      3323      3324      3327
      3320      3323      3324      3501      3320      3497      3502      3501
      3320      3497      3502      3503      3320      3497      3498      3493
      3320      3497      3498      3499      3321      3144      3147      3146
      3321      3144      3147      3148      3321      3322      3323      3320
      3321      3322      3323      3324      3321      3326      3327      3324
      3321      3326      3327      3328      3322      3317      3318      3313
      3322      3317      3318      3319      3322      3321      3326      3325
      3322      3321      3326      3327      3322      3323      3324      3327
      3322      3323      3324      3501      3323      3320      3497      3502
      3323      3320      3497      3498      3323      3324      3327      3326
      3323      3324      3327      3328      3323      3324      3501      3502
      3323      3324      3501      3506      3324      3327      3328      3331
      3324      3327      3328      3505      3324      3501      3502      3497
      3324      3501      3502      3503      3324      3501      3506      3505
      3324      3501      3506      3507      3325      3148      3151      3150
      3325      3148      3151      3152      3325      3326      3327      3324
      3325      3326      3327      3328      3325      3330      3331      3328
      3325      3330      3331      3332      3326      3321      3322      3317
      3326      3321      3322      3323      3326      3325      3330      3329
      3326      3325      3330      3331      3326      3327      3328      3331
      3326      3327      3328      3505      3327      3324      3501      3502
      3327      3324      3501      3506      3327      3328      3331      3330
      3327      3328      3331      3332      3327      3328      3505      3506
      3327      3328      3505      3510      3328      3331      3332      3335
      3328      3331      3332      3509      3328      3505      3506      3501
      3328      3505      3506      3507      3328      3505      3510      3509
      3328      3505      3510      3511      3329      3152      3155      3154
      3329      3152      3155      3156      3329      3330      3331      3328
      3329      3330      3331      3332      3329      3334      3335      3332
      3329      3334      3335      3336      3330      3325      3326      3321
      3330      3325      3326      3327      3330      3329      3334      3333
      3330      3329      3334      3335      3330      3331      3332      3335
      3330      3331      3332      3509      3331      3328      3505      3506
      3331      3328      3505      3510      3331      3332      3335      3334
      3331      3332      3335      3336      3331      3332      3509      3514
      3331      3332      3509      3510      3332      3335      3336      3339
      3332      3335      3336      3513      3332      3509      3514      3513
      3332      3509      3514      3515      3332      3509      3510      3505
      3332      3509      3510      3511      3333      3156      3159      3158
      3333      3156      3159      3160      3333      3334      3335      3332
      3333      3334      3335      3336      3333      3338      3339      3336
      3333      3338      3339      3340      3334      3329      3330      3325
      3334      3329      3330      3331      3334      3333      3338      3337
      3334      3333      3338      3339      3334      3335      3336      3339
      3334      3335      3336      3513      3335      3332      3509      3514
      3335      3332      3509      3510      3335      3336      3339      3338
      3335      3336      3339      3340      3335      3336      3513      3518
      3335      3336      3513      3514      3336      3339      3340      3343
      3336      3339      3340      3517      3336      3513      3518      3517
      3336      3513      3518      3519      3336      3513      3514      3509
      3336      3513      3514      3515      3337      3160      3163      3162
      3337      3160      3163      3164      3337      3338      3339      3336
      3337      3338      3339      3340      3337      3342      3343      3340
      3337      3342      3343      3344      3338      3333      3334      3329
      3338      3333      3334      3335      3338      3337      3342      3341
      3338      3337      3342      3343      3338      3339      3340      3343
      3338      3339      3340      3517      3339      3336      3513      3518
      3339      3336      3513      3514      3339      3340      3343      3342
      3339      3340      3343      3344      3339      3340      3517      3522
      3339      3340      3517      3518      3340      3343      3344      3347
      3340      3343      3344      3521      3340      3517      3522      3521
      3340      3517      3522      3523      3340      3517      3518      3513
      3340      3517      3518      3519      3341      3164      3167      3166
      3341      3164      3167      3168      3341      3342      3343      3340
      3341      3342      3343      3344      3341      3346      3347      3344
      3341      3346      3347      3348      3342      3337      3338      3333
      3342      3337      3338      3339      3342      3341      3346      3345
      3342      3341      3346      3347      3342      3343      3344      3347
      3342      3343      3344      3521      3343      3340      3517      3522
      3343      3340      3517      3518      3343      3344      3347      3346
      3343      3344      3347      3348      3343      3344      3521      3522
      3343      3344      3521      3526      3344      3347      3348      3351
      3344      3347      3348      3525      3344      3521      3522      3517
      3344      3521      3522      3523      3344      3521      3526      3525
      3344      3521      3526      3527      3345      3168      3171      3170
      3345      3168      3171      3172      3345      3346      3347      3344
      3345      3346      3347      3348      3345      3350      3351      3348
      3345      3350      3351      3352      3346      3341      3342      3337
      3346      3341      3342      3343      3346      3345      3350      3349
      3346      3345      3350      3351      3346      3347      3348      3351
      3346      3347      3348      3525      3347      3344      3521      3522
      3347      3344      3521      3526      3347      3348      3351      3350
      3347      3348      3351      3352      3347      3348      3525      3526
      3347      3348      3525      3530      3348      3351      3352      3355
      3348      3351      3352      3529      3348      3525      3526      3521
      3348      3525      3526      3527      3348      3525      3530      3529
      3348      3525      3530      3531      3349      3172      3175      3174
      3349      3172      3175      3176      3349      3350      3351      3348
      3349      3350      3351      3352      3349      3354      3355      3352
      3349      3354      3355      3356      3350      3345      3346      3341
      3350      3345      3346      3347      3350      3349      3354      3353
      3350      3349      3354      3355      3350      3351      3352      3355
      3350      3351      3352      3529      3351      3348      3525      3526
      3351      3348      3525      3530      3351      3352      3355      3354
      3351      3352      3355      3356      3351      3352      3529      3534
      3351      3352      3529      3530      3352      3355      3356      3359
      3352      3355      3356      3533      3352      3529      3534      3533
      3352      3529      3534      3535      3352      3529      3530      3525
      3352      3529      3530      3531      3353      3176      3179      3178
      3353      3176      3179      3180      3353      3354      3355      3352
      3353      3354      3355      3356      3353      3358      3359      3356
      3353      3358      3359      3360      3354      3349      3350      3345
      3354      3349      3350      3351      3354      3353      3358      3357
      3354      3353      3358      3359      3354      3355      3356      3359
      3354      3355      3356      3533      3355      3352      3529      3534
      3355      3352      3529      3530      3355      3356      3359      3358
      3355      3356      3359      3360      3355      3356      3533      3534
      3355      3356      3533      3538      3356      3359      3360      3363
      3356      3359      3360      3537      3356      3533      3534      3529
      3356      3533      3534      3535      3356      3533      3538      3537
      3356      3533      3538      3539      3357      3180      3183      3182
      3357      3180      3183      3184      3357      3358      3359      3356
      3357      3358      3359      3360      3357      3362      3363      3360
      3357      3362      3363      3364      3358      3353      3354      3349
      3358      3353      3354      3355      3358      3357      3362      3361
      3358      3357      3362      3363      3358      3359      3360      3363
      3358      3359      3360      3537      3359      3356      3533      3534
      3359      3356      3533      3538      3359      3360      3363      3362
      3359      3360      3363      3364      3359      3360      3537      3542
      3359      3360      3537      3538      3360      3363      3364      3367
      3360      3363      3364      3541      3360      3537      3542      3541
      3360      3537      3542      3543      3360      3537      3538      3533
      3360      3537      3538      3539      3361      3184      3187      3186
      3361      3184      3187      3188      3361      3362      3363      3360
      3361      3362      3363      3364      3361      3366      3367      3364
      3361      3366      3367      3368      3362      3357      3358      3353
      3362      3357      3358      3359      3362      3361      3366      3365
      3362      3361      3366      3367      3362      3363      3364      3367
      3362      3363      3364      3541      3363      3360      3537      3542
      3363      3360      3537      3538      3363      3364      3367      3366
      3363      3364      3367      3368      3363      3364      3541      3542
      3363      3364      3541      3546      3364      3367      3368      3371
      3364      3367      3368      3545      3364      3541      3542      3537
      3364      3541      3542      3543      3364      3541      3546      3545
      3364      3541      3546      3547      3365      3188      3191      3190
      3365      3188      3191      3192      3365      3366      3367      3364
      3365      3366      3367      3368      3365      3370      3371      3368
      3365      3370      3371      3372      3366      3361      3362      3357
      3366      3361      3362      3363      3366      3365      3370      3369
      3366      3365      3370      3371      3366      3367      3368      3371
      3366      3367      3368      3545      3367      3364      3541      3542
      3367      3364      3541      3546      3367      3368      3371      3370
      3367      3368      3371      3372      3367      3368      3545      3546
      3367      3368      3545      3550      3368      3371      3372      3375
      3368      3371      3372      3549      3368      3545      3546      3541
      3368      3545      3546      3547      3368      3545      3550      3549
      3368      3545      3550      3551      3369      3192      3195      3194
      3369      3192      3195      3196      3369      3370      3371      3368
      3369      3370      3371      3372      3369      3374      3375      3372
      3369      3374      3375      3376      3370      3365      3366      3361
      3370      3365      3366      3367      3370      3369      3374      3373
      3370      3369      3374      3375      3370      3371      3372      3375
      3370      3371      3372      3549      3371      3368      3545      3546
      3371      3368      3545      3550      3371      3372      3375      3374
      3371      3372      3375      3376      3371      3372      3549      3554
      3371      3372      3549      3550      3372      3375      3376      3379
      3372      3375      3376      3553      3372      3549      3554      3553
      3372      3549      3554      3555      3372      3549      3550      3545
      3372      3549      3550      3551      3373      3196      3199      3198
      3373      3196      3199      3200      3373      3374      3375      3372
      3373      3374      3375      3376      3373      3378      3379      3376
      3373      3378      3379      3380      3374      3369      3370      3365
      3374      3369      3370      3371      3374      3373      3378      3377
      3374      3373      3378      3379      3374      3375      3376      3379
      3374      3375      3376      3553      3375      3372      3549      3554
      3375      3372      3549      3550      3375      3376      3379      3378
      3375      3376      3379      3380      3375      3376      3553      3558
      3375      3376      3553      3554      3376      3379      3380      3383
      3376      3379      3380      3557      3376      3553      3558      3557
      3376      3553      3558      3559      3376      3553      3554      3549
      3376      3553      3554      3555      3377      3200      3203      3202
      3377      3200      3203      3204      3377      3378      3379      3376
      3377      3378      3379      3380      3377      3382      3383      3380
      3377      3382      3383      3384      3378      3373      3374      3369
      3378      3373      3374      3375      3378      3377      3382      3381
      3378      3377      3382      3383      3378      3379      3380      3383
      3378      3379      3380      3557      3379      3376      3553      3558
      3379      3376      3553      3554      3379      3380      3383      3382
      3379      3380      3383      3384      3379      3380      3557      3562
      3379      3380      3557      3558      3380      3383      3384      3387
      3380      3383      3384      3561      3380      3557      3562      3561
      3380      3557      3562      3563      3380      3557      3558      3553
      3380      3557      3558      3559      3381      3204      3207      3206
      3381      3204      3207      3208      3381      3382      3383      3380
      3381      3382      3383      3384      3381      3386      3387      3384
      3381      3386      3387      3388      3382      3377      3378      3373
      3382      3377      3378      3379      3382      3381      3386      3385
      3382      3381      3386      3387      3382      3383      3384      3387
      3382      3383      3384      3561      3383      3380      3557      3562
      3383      3380      3557      3558      3383      3384      3387      3386
      3383      3384      3387      3388      3383      3384      3561      3562
      3383      3384      3561      3566      3384      3387      3388      3391
      3384      3387      3388      3565      3384      3561      3562      3557
      3384      3561      3562      3563      3384      3561      3566      3565
      3384      3561      3566      3567      3385      3208      3211      3210
      3385      3208      3211      3212      3385      3386      3387      3384
      3385      3386      3387      3388      3385      3390      3391      3388
      3385      3390      3391      3392      3386      3381      3382      3377
      3386      3381      3382      3383      3386      3385      3390      3389
      3386      3385      3390      3391      3386      3387      3388      3391
      3386      3387      3388      3565      3387      3384      3561      3562
      3387      3384      3561      3566      3387      3388      3391      3390
      3387      3388      3391      3392      3387      3388      3565      3566
      3387      3388      3565      3570      3388      3391      3392      3395
      3388      3391      3392      3569      3388      3565      3566      3561
      3388      3565      3566      3567      3388      3565      3570      3569
      3388      3565      3570      3571      3389      3212      3215      3214
      3389      3212      3215      3216      3389      3390      3391      3388
      3389      3390      3391      3392      3389      3394      3395      3392
      3389      3394      3395      3396      3390      3385      3386      3381
      3390      3385      3386      3387      3390      3389      3394      3393
      3390      3389      3394      3395      3390      3391      3392      3395
      3390      3391      3392      3569      3391      3388      3565      3566
      3391      3388      3565      3570      3391      3392      3395      3394
      3391      3392      3395      3396      3391      3392      3569      3574
      3391      3392      3569      3570      3392      3395      3396      3399
      3392      3395      3396      3573      3392      3569      3574      3573
      3392      3569      3574      3575      3392      3569      3570      3565
      3392      3569      3570      3571      3393      3216      3219      3218
      3393      3216      3219      3220      3393      3394      3395      3392
      3393      3394      3395      3396      3393      3398      3399      3396
      3393      3398      3399      3400      3394      3389      3390      3385
      3394      3389      3390      3391      3394      3393      3398      3397
      3394      3393      3398      3399      3394      3395      3396      3399
      3394      3395      3396      3573      3395      3392      3569      3574
      3395      3392      3569      3570      3395      3396      3399      3398
      3395      3396      3399      3400      3395      3396      3573      3578
      3395      3396      3573      3574      3396      3399      3400      3403
      3396      3399      3400      3577      3396      3573      3578      3577
      3396      3573      3578      3579      3396      3573      3574      3569
      3396      3573      3574      3575      3397      3220      3223      3222
      3397      3220      3223      3224      3397      3398      3399      3396
      3397      3398      3399      3400      3397      3402      3403      3400
      3397      3402      3403      3404      3398      3393      3394      3389
      3398      3393      3394      3395      3398      3397      3402      3401
      3398      3397      3402      3403      3398      3399      3400      3403
      3398      3399      3400      3577      3399      3396      3573      3578
      3399      3396      3573      3574      3399      3400      3403      3402
      3399      3400      3403      3404      3399      3400      3577      3582
      3399      3400      3577      3578      3400      3403      3404      3407
      3400      3403      3404      3581      3400      3577      3582      3581
      3400      3577      3582      3583      3400      3577      3578      3573
      3400      3577      3578      3579      3401      3224      3227      3226
      3401      3224      3227      3228      3401      3402      3403      3400
      3401      3402      3403      3404      3401      3406      3407      3404
      3401      3406      3407      3408      3402      3397      3398      3393
      3402      3397      3398      3399      3402      3401      3406      3405
      3402      3401      3406      3407      3402      3403      3404      3407
      3402      3403      3404      3581      3403      3400      3577      3582
      3403      3400      3577      3578      3403      3404      3407      3406
      3403      3404      3407      3408      3403      3404      3581      3582
      3403      3404      3581      3586      3404      3407      3408      3411
      3404      3407      3408      3585      3404      3581      3582      3577
      3404      3581      3582      3583      3404      3581      3586      3585
      3404      3581      3586      3587      3405      3228      3231      3230
      3405      3228      3231      3232      3405      3406      3407      3404
      3405      3406      3407      3408      3405      3410      3411      3408
      3405      3410      3411      3412      3406      3401      3402      3397
      3406      3401      3402      3403      3406      3405      3410      3409
      3406      3405      3410      3411      3406      3407      3408      3411
      3406      3407      3408      3585      3407      3404      3581      3582
      3407      3404      3581      3586      3407      3408      3411      3410
      3407      3408      3411      3412      3407      3408      3585      3586
      3407      3408      3585      3590      3408      3411      3412      3415
      3408      3411      3412      3589      3408      3585      3586      3581
      3408      3585      3586      3587      3408      3585      3590      3589
      3408      3585      3590      3591      3409      3232      3235      3234
      3409      3232      3235      3236      3409      3410      3411      3408
      3409      3410      3411      3412      3409      3414      3415      3412
      3409      3414      3415      3416      3410      3405      3406      3401
      3410      3405      3406      3407      3410      3409      3414      3413
      3410      3409      3414      3415      3410      3411      3412      3415
      3410      3411      3412      3589      3411      3408      3585      3586
      3411      3408      3585      3590      3411      3412      3415      3414
      3411      3412      3415      3416      3411      3412      3589      3594
      3411      3412      3589      3590      3412      3415      3416      3419
      3412      3415      3416      3593      3412      3589      3594      3593
      3412      3589      3594      3595      3412      3589      3590      3585
      3412      3589      3590      3591      3413      3236      3239      3238
      3413      3236      3239      3240      3413      3414      3415      3412
      3413      3414      3415      3416      3413      3418      3419      3416
      3413      3418      3419      3420      3414      3409      3410      3405
      3414      3409      3410      3411      3414      3413      3418      3417
      3414      3413      3418      3419      3414      3415      3416      3419
      3414      3415      3416      3593      3415      3412      3589      3594
      3415      3412      3589      3590      3415      3416      3419      3418
      3415      3416      3419      3420      3415      3416      3593      3598
      3415      3416      3593      3594      3416      3419      3420      3597
      3416      3593      3598      3597      3416      3593      3598      3599
      3416      3593      3594      3589      3416      3593      3594      3595
      3417      3418      3419      3416      3417      3418      3419      3420
      3418      3413      3414      3409      3418      3413      3414      3415
      3418      3419      3420      3597      3419      3416      3593      3598
      3419      3416      3593      3594      3419      3420      3597      3598
      3420      3597      3598      3593      3420      3597      3598      3599
      3421      3244      3247      3246      3421      3244      3247      3248
      3421      3422      3423      3424      3421      3426      3427      3424
      3421      3426      3427      3428      3422      3421      3426      3425
      3422      3421      3426      3427      3422      3423      3424      3427
      3422      3423      3424      3601      3423      3424      3427      3426
      3423      3424      3427      3428      3423      3424      3601      3602
      3423      3424      3601      3606      3424      3427      3428      3431
      3424      3427      3428      3605      3424      3601      3602      3603
      3424      3601      3606      3605      3424      3601      3606      3607
      3425      3248      3251      3250      3425      3248      3251      3252
      3425      3426      3427      3424      3425      3426      3427      3428
      3425      3430      3431      3428      3425      3430      3431      3432
      3426      3421      3422      3423      3426      3425      3430      3429
      3426      3425      3430      3431      3426      3427      3428      3431
      3426      3427      3428      3605      3427      3424      3601      3602
      3427      3424      3601      3606      3427      3428      3431      3430
      3427      3428      3431      3432      3427      3428      3605      3606
      3427      3428      3605      3610      3428      3431      3432      3435
      3428      3431      3432      3609      3428      3605      3606      3601
      3428      3605      3606      3607      3428      3605      3610      3609
      3428      3605      3610      3611      3429      3252      3255      3254
      3429      3252      3255      3256      3429      3430      3431      3428
      3429      3430      3431      3432      3429      3434      3435      3432
      3429      3434      3435      3436      3430      3425      3426      3421
      3430      3425      3426      3427      3430      3429      3434      3433
      3430      3429      3434      3435      3430      3431      3432      3435
      3430      3431      3432      3609      3431      3428      3605      3606
      3431      3428      3605      3610      3431      3432      3435      3434
      3431      3432      3435      3436      3431      3432      3609      3614
      3431      3432      3609      3610      3432      3435      3436      3439
      3432      3435      3436      3613      3432      3609      3614      3613
      3432      3609      3614      3615      3432      3609      3610      3605
      3432      3609      3610      3611      3433      3256      3259      3258
      3433      3256      3259      3260      3433      3434      3435      3432
      3433      3434      3435      3436      3433      3438      3439      3436
      3433      3438      3439      3440      3434      3429      3430      3425
      3434      3429      3430      3431      3434      3433      3438      3437
      3434      3433      3438      3439      3434      3435      3436      3439
      3434      3435      3436      3613      3435      3432      3609      3614
      3435      3432      3609      3610      3435      3436      3439      3438
      3435      3436      3439      3440      3435      3436      3613      3618
      3435      3436      3613      3614      3436      3439      3440      3443
      3436      3439      3440      3617      3436      3613      3618      3617
      3436      3613      3618      3619      3436      3613      3614      3609
      3436      3613      3614      3615      3437      3260      3263      3262
      3437      3260      3263      3264      3437      3438      3439      3436
      3437      3438      3439      3440      3437      3442      3443      3440
      3437      3442      3443      3444      3438      3433      3434      3429
      3438      3433      3434      3435      3438      3437      3442      3441
      3438      3437      3442      3443      3438      3439      3440      3443
      3438      3439      3440      3617      3439      3436      3613      3618
      3439      3436      3613      3614      3439      3440      3443      3442
      3439      3440      3443      3444      3439      3440      3617      3622
      3439      3440      3617      3618      3440      3443      3444      3447
      3440      3443      3444      3621      3440      3617      3622      3621
      3440      3617      3622      3623      3440      3617      3618      3613
      3440      3617      3618      3619      3441      3264      3267      3266
      3441      3264      3267      3268      3441      3442      3443      3440
      3441      3442      3443      3444      3441      3446      3447      3444
      3441      3446      3447      3448      3442      3437      3438      3433
      3442      3437      3438      3439      3442      3441      3446      3445
      3442      3441      3446      3447      3442      3443      3444      3447
      3442      3443      3444      3621      3443      3440      3617      3622
      3443      3440      3617      3618      3443      3444      3447      3446
      3443      3444      3447      3448      3443      3444      3621      3622
      3443      3444      3621      3626      3444      3447      3448      3451
      3444      3447      3448      3625      3444      3621      3622      3617
      3444      3621      3622      3623      3444      3621      3626      3625
      3444      3621      3626      3627      3445      3268      3271      3270
      3445      3268      3271      3272      3445      3446      3447      3444
      3445      3446      3447      3448      3445      3450      3451      3448
      3445      3450      3451      3452      3446      3441      3442      3437
      3446      3441      3442      3443      3446      3445      3450      3449
      3446      3445      3450      3451      3446      3447      3448      3451
      3446      3447      3448      3625      3447      3444      3621      3622
      3447      3444      3621      3626      3447      3448      3451      3450
      3447      3448      3451      3452      3447      3448      3625      3626
      3447      3448      3625      3630      3448      3451      3452      3455
      3448      3451      3452      3629      3448      3625      3626      3621
      3448      3625      3626      3627      3448      3625      3630      3629
      3448      3625      3630      3631      3449      3272      3275      3274
      3449      3272      3275      3276      3449      3450      3451      3448
      3449      3450      3451      3452      3449      3454      3455      3452
      3449      3454      3455      3456      3450      3445      3446      3441
      3450      3445      3446      3447      3450      3449      3454      3453
      3450      3449      3454      3455      3450      3451      3452      3455
      3450      3451      3452      3629      3451      3448      3625      3626
      3451      3448      3625      3630      3451      3452      3455      3454
      3451      3452      3455      3456      3451      3452      3629      3630
      3451      3452      3629      3634      3452      3455      3456      3459
      3452      3455      3456      3633      3452      3629      3630      3625
      3452      3629      3630      3631      3452      3629      3634      3633
      3452      3629      3634      3635      3453      3276      3279      3278
      3453      3276      3279      3280      3453      3454      3455      3452
      3453      3454      3455      3456      3453      3458      3459      3456
      3453      3458      3459      3460      3454      3449      3450      3445
      3454      3449      3450      3451      3454      3453      3458      3457
      3454      3453      3458      3459      3454      3455      3456      3459
      3454      3455      3456      3633      3455      3452      3629      3630
      3455      3452      3629      3634      3455      3456      3459      3458
      3455      3456      3459      3460      3455      3456      3633      3634
      3455      3456      3633      3638      3456      3459      3460      3463
      3456      3459      3460      3637      3456      3633      3634      3629
      3456      3633      3634      3635      3456      3633      3638      3637
      3456      3633      3638      3639      3457      3280      3283      3282
      3457      3280      3283      3284      3457      3458      3459      3456
      3457      3458      3459      3460      3457      3462      3463      3460
      3457      3462      3463      3464      3458      3453      3454      3449
      3458      3453      3454      3455      3458      3457      3462      3461
      3458      3457      3462      3463      3458      3459      3460      3463
      3458      3459      3460      3637      3459      3456      3633      3634
      3459      3456      3633      3638      3459      3460      3463      3462
      3459      3460      3463      3464      3459      3460      3637      3638
      3459      3460      3637      3642      3460      3463      3464      3467
      3460      3463      3464      3641      3460      3637      3638      3633
      3460      3637      3638      3639      3460      3637      3642      3641
      3460      3637      3642      3643      3461      3284      3287      3286
      3461      3284      3287      3288      3461      3462      3463      3460
      3461      3462      3463      3464      3461      3466      3467      3464
      3461      3466      3467      3468      3462      3457      3458      3453
      3462      3457      3458      3459      3462      3461      3466      3465
      3462      3461      3466      3467      3462      3463      3464      3467
      3462      3463      3464      3641      3463      3460      3637      3638
      3463      3460      3637      3642      3463      3464      3467      3466
      3463      3464      3467      3468      3463      3464      3641      3642
      3463      3464      3641      3646      3464      3467      3468      3471
      3464      3467      3468      3645      3464      3641      3642      3637
      3464      3641      3642      3643      3464      3641      3646      3645
      3464      3641      3646      3647      3465      3288      3291      3290
      3465      3288      3291      3292      3465      3466      3467      3464
      3465      3466      3467      3468      3465      3470      3471      3468
      3465      3470      3471      3472      3466      3461      3462      3457
      3466      3461      3462      3463      3466      3465      3470      3469
      3466      3465      3470      3471      3466      3467      3468      3471
      3466      3467      3468      3645      3467      3464      3641      3642
      3467      3464      3641      3646      3467      3468      3471      3470
      3467      3468      3471      3472      3467      3468      3645      3646
      3467      3468      3645      3650      3468      3471      3472      3475
      3468      3471      3472      3649      3468      3645      3646      3641
      3468      3645      3646      3647      3468      3645      3650      3649
      3468      3645      3650      3651      3469      3292      3295      3294
      3469      3292      3295      3296      3469      3470      3471      3468
      3469      3470      3471      3472      3469      3474      3475      3472
      3469      3474      3475      3476      3470      3465      3466      3461
      3470      3465      3466      3467      3470      3469      3474      3473
      3470      3469      3474      3475      3470      3471      3472      3475
      3470      3471      3472      3649      3471      3468      3645      3646
      3471      3468      3645      3650      3471      3472      3475      3474
      3471      3472      3475      3476      3471      3472      3649      3654
      3471      3472      3649      3650      3472      3475      3476      3479
      3472      3475      3476      3653      3472      3649      3654      3653
      3472      3649      3654      3655      3472      3649      3650      3645
      3472      3649      3650      3651      3473      3296      3299      3298
      3473      3296      3299      3300      3473      3474      3475      3472
      3473      3474      3475      3476      3473      3478      3479      3476
      3473      3478      3479      3480      3474      3469      3470      3465
      3474      3469      3470      3471      3474      3473      3478      3477
      3474      3473      3478      3479      3474      3475      3476      3479
      3474      3475      3476      3653      3475      3472      3649      3654
      3475      3472      3649      3650      3475      3476      3479      3478
      3475      3476      3479      3480      3475      3476      3653      3658
      3475      3476      3653      3654      3476      3479      3480      3483
      3476      3479      3480      3657      3476      3653      3658      3657
      3476      3653      3658      3659      3476      3653      3654      3649
      3476      3653      3654      3655      3477      3300      3303      3302
      3477      3300      3303      3304      3477      3478      3479      3476
      3477      3478      3479      3480      3477      3482      3483      3480
      3477      3482      3483      3484      3478      3473      3474      3469
      3478      3473      3474      3475      3478      3477      3482      3481
      3478      3477      3482      3483      3478      3479      3480      3483
      3478      3479      3480      3657      3479      3476      3653      3658
      3479      3476      3653      3654      3479      3480      3483      3482
      3479      3480      3483      3484      3479      3480      3657      3662
      3479      3480      3657      3658      3480      3483      3484      3487
      3480      3483      3484      3661      3480      3657      3662      3661
      3480      3657      3662      3663      3480      3657      3658      3653
      3480      3657      3658      3659      3481      3304      3307      3306
      3481      3304      3307      3308      3481      3482      3483      3480
      3481      3482      3483      3484      3481      3486      3487      3484
      3481      3486      3487      3488      3482      3477      3478      3473
      3482      3477      3478      3479      3482      3481      3486      3485
      3482      3481      3486      3487      3482      3483      3484      3487
      3482      3483      3484      3661      3483      3480      3657      3662
      3483      3480      3657      3658      3483      3484      3487      3486
      3483      3484      3487      3488      3483      3484      3661      3662
      3483      3484      3661      3666      3484      3487      3488      3491
      3484      3487      3488      3665      3484      3661      3662      3657
      3484      3661      3662      3663      3484      3661      3666      3665
      3484      3661      3666      3667      3485      3308      3311      3310
      3485      3308      3311      3312      3485      3486      3487      3484
      3485      3486      3487      3488      3485      3490      3491      3488
      3485      3490      3491      3492      3486      3481      3482      3477
      3486      3481      3482      3483      3486      3485      3490      3489
      3486      3485      3490      3491      3486      3487      3488      3491
      3486      3487      3488      3665      3487      3484      3661      3662
      3487      3484      3661      3666      3487      3488      3491      3490
      3487      3488      3491      3492      3487      3488      3665      3666
      3487      3488      3665      3670      3488      3491      3492      3495
      3488      3491      3492      3669      3488      3665      3666      3661
      3488      3665      3666      3667      3488      3665      3670      3669
      3488      3665      3670      3671      3489      3312      3315      3314
      3489      3312      3315      3316      3489      3490      3491      3488
      3489      3490      3491      3492      3489      3494      3495      3492
      3489      3494      3495      3496      3490      3485      3486      3481
      3490      3485      3486      3487      3490      3489      3494      3493
      3490      3489      3494      3495      3490      3491      3492      3495
      3490      3491      3492      3669      3491      3488      3665      3666
      3491      3488      3665      3670      3491      3492      3495      3494
      3491      3492      3495      3496      3491      3492      3669      3674
      3491      3492      3669      3670      3492      3495      3496      3499
      3492      3495      3496      3673      3492      3669      3674      3673
      3492      3669      3674      3675      3492      3669      3670      3665
      3492      3669      3670      3671      3493      3316      3319      3318
      3493      3316      3319      3320      3493      3494      3495      3492
      3493      3494      3495      3496      3493      3498      3499      3496
      3493      3498      3499      3500      3494      3489      3490      3485
      3494      3489      3490      3491      3494      3493      3498      3497
      3494      3493      3498      3499      3494      3495      3496      3499
      3494      3495      3496      3673      3495      3492      3669      3674
      3495      3492      3669      3670      3495      3496      3499      3498
      3495      3496      3499      3500      3495      3496      3673      3678
      3495      3496      3673      3674      3496      3499      3500      3503
      3496      3499      3500      3677      3496      3673      3678      3677
      3496      3673      3678      3679      3496      3673      3674      3669
      3496      3673      3674      3675      3497      3320      3323      3322
      3497      3320      3323      3324      3497      3498      3499      3496
      3497      3498      3499      3500      3497      3502      3503      3500
      3497      3502      3503      3504      3498      3493      3494      3489
      3498      3493      3494      3495      3498      3497      3502      3501
      3498      3497      3502      3503      3498      3499      3500      3503
      3498      3499      3500      3677      3499      3496      3673      3678
      3499      3496      3673      3674      3499      3500      3503      3502
      3499      3500      3503      3504      3499      3500      3677      3682
      3499      3500      3677      3678      3500      3503      3504      3507
      3500      3503      3504      3681      3500      3677      3682      3681
      3500      3677      3682      3683      3500      3677      3678      3673
      3500      3677      3678      3679      3501      3324      3327      3326
      3501      3324      3327      3328      3501      3502      3503      3500
      3501      3502      3503      3504      3501      3506      3507      3504
      3501      3506      3507      3508      3502      3497      3498      3493
      3502      3497      3498      3499      3502      3501      3506      3505
      3502      3501      3506      3507      3502      3503      3504      3507
      3502      3503      3504      3681      3503      3500      3677      3682
      3503      3500      3677      3678      3503      3504      3507      3506
      3503      3504      3507      3508      3503      3504      3681      3682
      3503      3504      3681      3686      3504      3507      3508      3511
      3504      3507      3508      3685      3504      3681      3682      3677
      3504      3681      3682      3683      3504      3681      3686      3685
      3504      3681      3686      3687      3505      3328      3331      3330
      3505      3328      3331      3332      3505      3506      3507      3504
      3505      3506      3507      3508      3505      3510      3511      3508
      3505      3510      3511      3512      3506      3501      3502      3497
      3506      3501      3502      3503      3506      3505      3510      3509
      3506      3505      3510      3511      3506      3507      3508      3511
      3506      3507      3508      3685      3507      3504      3681      3682
      3507      3504      3681      3686      3507      3508      3511      3510
      3507      3508      3511      3512      3507      3508      3685      3686
      3507      3508      3685      3690      3508      3511      3512      3515
      3508      3511      3512      3689      3508      3685      3686      3681
      3508      3685      3686      3687      3508      3685      3690      3689
      3508      3685      3690      3691      3509      3332      3335      3334
      3509      3332      3335      3336      3509      3510      3511      3508
      3509      3510      3511      3512      3509      3514      3515      3512
      3509      3514      3515      3516      3510      3505      3506      3501
      3510      3505      3506      3507      3510      3509      3514      3513
      3510      3509      3514      3515      3510      3511      3512      3515
      3510      3511      3512      3689      3511      3508      3685      3686
      3511      3508      3685      3690      3511      3512      3515      3514
      3511      3512      3515      3516      3511      3512      3689      3690
      3511      3512      3689      3694      3512      3515      3516      3519
      3512      3515      3516      3693      3512      3689      3690      3685
      3512      3689      3690      3691      3512      3689      3694      3693
      3512      3689      3694      3695      3513      3336      3339      3338
      3513      3336      3339      3340      3513      3514      3515      3512
      3513      3514      3515      3516      3513      3518      3519      3516
      3513      3518      3519      3520      3514      3509      3510      3505
      3514      3509      3510      3511      3514      3513      3518      3517
      3514      3513      3518      3519      3514      3515      3516      3519
      3514      3515      3516      3693      3515      3512      3689      3690
      3515      3512      3689      3694      3515      3516      3519      3518
      3515      3516      3519      3520      3515      3516      3693      3694
      3515      3516      3693      3698      3516      3519      3520      3523
      3516      3519      3520      3697      3516      3693      3694      3689
      3516      3693      3694      3695      3516      3693      3698      3697
      3516      3693      3698      3699      3517      3340      3343      3342
      3517      3340      3343      3344      3517      3518      3519      3516
      3517      3518      3519      3520      3517      3522      3523      3520
      3517      3522      3523      3524      3518      3513      3514      3509
      3518      3513      3514      3515      3518      3517      3522      3521
      3518      3517      3522      3523      3518      3519      3520      3523
      3518      3519      3520      3697      3519      3516      3693      3694
      3519      3516      3693      3698      3519      3520      3523      3522
      3519      3520      3523      3524      3519      3520      3697      3698
      3519      3520      3697      3702      3520      3523      3524      3527
      3520      3523      3524      3701      3520      3697      3698      3693
      3520      3697      3698      3699      3520      3697      3702      3701
      3520      3697      3702      3703      3521      3344      3347      3346
      3521      3344      3347      3348      3521      3522      3523      3520
      3521      3522      3523      3524      3521      3526      3527      3524
      3521      3526      3527      3528      3522      3517      3518      3513
      3522      3517      3518      3519      3522      3521      3526      3525
      3522      3521      3526      3527      3522      3523      3524      3527
      3522      3523      3524      3701      3523      3520      3697      3698
      3523      3520      3697      3702      3523      3524      3527      3526
      3523      3524      3527      3528      3523      3524      3701      3702
      3523      3524      3701      3706      3524      3527      3528      3531
      3524      3527      3528      3705      3524      3701      3702      3697
      3524      3701      3702      3703      3524      3701      3706      3705
      3524      3701      3706      3707      3525      3348      3351      3350
      3525      3348      3351      3352      3525      3526      3527      3524
      3525      3526      3527      3528      3525      3530      3531      3528
      3525      3530      3531      3532      3526      3521      3522      3517
      3526      3521      3522      3523      3526      3525      3530      3529
      3526      3525      3530      3531      3526      3527      3528      3531
      3526      3527      3528      3705      3527      3524      3701      3702
      3527      3524      3701      3706      3527      3528      3531      3530
      3527      3528      3531      3532      3527      3528      3705      3706
      3527      3528      3705      3710      3528      3531      3532      3535
      3528      3531      3532      3709      3528      3705      3706      3701
      3528      3705      3706      3707      3528      3705      3710      3709
      3528      3705      3710      3711      3529      3352      3355      3354
      3529      3352      3355      3356      3529      3530      3531      3528
      3529      3530      3531      3532      3529      3534      3535      3532
      3529      3534      3535      3536      3530      3525      3526      3521
      3530      3525      3526      3527      3530      3529      3534      3533
      3530      3529      3534      3535      3530      3531      3532      3535
      3530      3531      3532      3709      3531      3528      3705      3706
      3531      3528      3705      3710      3531      3532      3535      3534
      3531      3532      3535      3536      3531      3532      3709      3714
      3531      3532      3709      3710      3532      3535      3536      3539
      3532      3535      3536      3713      3532      3709      3714      3713
      3532      3709      3714      3715      3532      3709      3710      3705
      3532      3709      3710      3711      3533      3356      3359      3358
      3533      3356      3359      3360      3533      3534      3535      3532
      3533      3534      3535      3536      3533      3538      3539      3536
      3533      3538      3539      3540      3534      3529      3530      3525
      3534      3529      3530      3531      3534      3533      3538      3537
      3534      3533      3538      3539      3534      3535      3536      3539
      3534      3535      3536      3713      3535      3532      3709      3714
      3535      3532      3709      3710      3535      3536      3539      3538
      3535      3536      3539      3540      3535      3536      3713      3718
      3535      3536      3713      3714      3536      3539      3540      3543
      3536      3539      3540      3717      3536      3713      3718      3717
      3536      3713      3718      3719      3536      3713      3714      3709
      3536      3713      3714      3715      3537      3360      3363      3362
      3537      3360      3363      3364      3537      3538      3539      3536
      3537      3538      3539      3540      3537      3542      3543      3540
      3537      3542      3543      3544      3538      3533      3534      3529
      3538      3533      3534      3535      3538      3537      3542      3541
      3538      3537      3542      3543      3538      3539      3540      3543
      3538      3539      3540      3717      3539      3536      3713      3718
      3539      3536      3713      3714      3539      3540      3543      3542
      3539      3540      3543      3544      3539      3540      3717      3722
      3539      3540      3717      3718      3540      3543      3544      3547
      3540      3543      3544      3721      3540      3717      3722      3721
      3540      3717      3722      3723      3540      3717      3718      3713
      3540      3717      3718      3719      3541      3364      3367      3366
      3541      3364      3367      3368      3541      3542      3543      3540
      3541      3542      3543      3544      3541      3546      3547      3544
      3541      3546      3547      3548      3542      3537      3538      3533
      3542      3537      3538      3539      3542      3541      3546      3545
      3542      3541      3546      3547      3542      3543      3544      3547
      3542      3543      3544      3721      3543      3540      3717      3722
      3543      3540      3717      3718      3543      3544      3547      3546
      3543      3544      3547      3548      3543      3544      3721      3722
      3543      3544      3721      3726      3544      3547      3548      3551
      3544      3547      3548      3725      3544      3721      3722      3717
      3544      3721      3722      3723      3544      3721      3726      3725
      3544      3721      3726      3727      3545      3368      3371      3370
      3545      3368      3371      3372      3545      3546      3547      3544
      3545      3546      3547      3548      3545      3550      3551      3548
      3545      3550      3551      3552      3546      3541      3542      3537
      3546      3541      3542      3543      3546      3545      3550      3549
      3546      3545      3550      3551      3546      3547      3548      3551
      3546      3547      3548      3725      3547      3544      3721      3722
      3547      3544      3721      3726      3547      3548      3551      3550
      3547      3548      3551      3552      3547      3548      3725      3726
      3547      3548      3725      3730      3548      3551      3552      3555
      3548      3551      3552      3729      3548      3725      3726      3721
      3548      3725      3726      3727      3548      3725      3730      3729
      3548      3725      3730      3731      3549      3372      3375      3374
      3549      3372      3375      3376      3549      3550      3551      3548
      3549      3550      3551      3552      3549      3554      3555      3552
      3549      3554      3555      3556      3550      3545      3546      3541
      3550      3545      3546      3547      3550      3549      3554      3553
      3550      3549      3554      3555      3550      3551      3552      3555
      3550      3551      3552      3729      3551      3548      3725      3726
      3551      3548      3725      3730      3551      3552      3555      3554
      3551      3552      3555      3556      3551      3552      3729      3734
      3551      3552      3729      3730      3552      3555      3556      3559
      3552      3555      3556      3733      3552      3729      3734      3733
      3552      3729      3734      3735      3552      3729      3730      3725
      3552      3729      3730      3731      3553      3376      3379      3378
      3553      3376      3379      3380      3553      3554      3555      3552
      3553      3554      3555      3556      3553      3558      3559      3556
      3553      3558      3559      3560      3554      3549      3550      3545
      3554      3549      3550      3551      3554      3553      3558      3557
      3554      3553      3558      3559      3554      3555      3556      3559
      3554      3555      3556      3733      3555      3552      3729      3734
      3555      3552      3729      3730      3555      3556      3559      3558
      3555      3556      3559      3560      3555      3556      3733      3738
      3555      3556      3733      3734      3556      3559      3560      3563
      3556      3559      3560      3737      3556      3733      3738      3737
      3556      3733      3738      3739      3556      3733      3734      3729
      3556      3733      3734      3735      3557      3380      3383      3382
      3557      3380      3383      3384      3557      3558      3559      3556
      3557      3558      3559      3560      3557      3562      3563      3560
      3557      3562      3563      3564      3558      3553      3554      3549
      3558      3553      3554      3555      3558      3557      3562      3561
      3558      3557      3562      3563      3558      3559      3560      3563
      3558      3559      3560      3737      3559      3556      3733      3738
      3559      3556      3733      3734      3559      3560      3563      3562
      3559      3560      3563      3564      3559      3560      3737      3742
      3559      3560      3737      3738      3560      3563      3564      3567
      3560      3563      3564      3741      3560      3737      3742      3741
      3560      3737      3742      3743      3560      3737      3738      3733
      3560      3737      3738      3739      3561      3384      3387      3386
      3561      3384      3387      3388      3561      3562      3563      3560
      3561      3562      3563      3564      3561      3566      3567      3564
      3561      3566      3567      3568      3562      3557      3558      3553
      3562      3557      3558      3559      3562      3561      3566      3565
      3562      3561      3566      3567      3562      3563      3564      3567
      3562      3563      3564      3741      3563      3560      3737      3742
      3563      3560      3737      3738      3563      3564      3567      3566
      3563      3564      3567      3568      3563      3564      3741      3742
      3563      3564      3741      3746      3564      3567      3568      3571
      3564      3567      3568      3745      3564      3741      3742      3737
      3564      3741      3742      3743      3564      3741      3746      3745
      3564      3741      3746      3747      3565      3388      3391      3390
      3565      3388      3391      3392      3565      3566      3567      3564
      3565      3566      3567      3568      3565      3570      3571      3568
      3565      3570      3571      3572      3566      3561      3562      3557
      3566      3561      3562      3563      3566      3565      3570      3569
      3566      3565      3570      3571      3566      3567      3568      3571
      3566      3567      3568      3745      3567      3564      3741      3742
      3567      3564      3741      3746      3567      3568      3571      3570
      3567      3568      3571      3572      3567      3568      3745      3746
      3567      3568      3745      3750      3568      3571      3572      3575
      3568      3571      3572      3749      3568      3745      3746      3741
      3568      3745      3746      3747      3568      3745      3750      3749
      3568      3745      3750      3751      3569      3392      3395      3394
      3569      3392      3395      3396      3569      3570      3571      3568
      3569      3570      3571      3572      3569      3574      3575      3572
      3569      3574      3575      3576      3570      3565      3566      3561
      3570      3565      3566      3567      3570      3569      3574      3573
      3570      3569      3574      3575      3570      3571      3572      3575
      3570      3571      3572      3749      3571      3568      3745      3746
      3571      3568      3745      3750      3571      3572      3575      3574
      3571      3572      3575      3576      3571      3572      3749      3754
      3571      3572      3749      3750      3572      3575      3576      3579
      3572      3575      3576      3753      3572      3749      3754      3753
      3572      3749      3754      3755      3572      3749      3750      3745
      3572      3749      3750      3751      3573      3396      3399      3398
      3573      3396      3399      3400      3573      3574      3575      3572
      3573      3574      3575      3576      3573      3578      3579      3576
      3573      3578      3579      3580      3574      3569      3570      3565
      3574      3569      3570      3571      3574      3573      3578      3577
      3574      3573      3578      3579      3574      3575      3576      3579
      3574      3575      3576      3753      3575      3572      3749      3754
      3575      3572      3749      3750      3575      3576      3579      3578
      3575      3576      3579      3580      3575      3576      3753      3754
      3575      3576      3753      3758      3576      3579      3580      3583
      3576      3579      3580      3757      3576      3753      3754      3749
      3576      3753      3754      3755      3576      3753      3758      3757
      3576      3753      3758      3759      3577      3400      3403      3402
      3577      3400      3403      3404      3577      3578      3579      3576
      3577      3578      3579      3580      3577      3582      3583      3580
      3577      3582      3583      3584      3578      3573      3574      3569
      3578      3573      3574      3575      3578      3577      3582      3581
      3578      3577      3582      3583      3578      3579      3580      3583
      3578      3579      3580      3757      3579      3576      3753      3754
      3579      3576      3753      3758      3579      3580      3583      3582
      3579      3580      3583      3584      3579      3580      3757      3758
      3579      3580      3757      3762      3580      3583      3584      3587
      3580      3583      3584      3761      3580      3757      3758      3753
      3580      3757      3758      3759      3580      3757      3762      3761
      3580      3757      3762      3763      3581      3404      3407      3406
      3581      3404      3407      3408      3581      3582      3583      3580
      3581      3582      3583      3584      3581      3586      3587      3584
      3581      3586      3587      3588      3582      3577      3578      3573
      3582      3577      3578      3579      3582      3581      3586      3585
      3582      3581      3586      3587      3582      3583      3584      3587
      3582      3583      3584      3761      3583      3580      3757      3758
      3583      3580      3757      3762      3583      3584      3587      3586
      3583      3584      3587      3588      3583      3584      3761      3762
      3583      3584      3761      3766      3584      3587      3588      3591
      3584      3587      3588      3765      3584      3761      3762      3757
      3584      3761      3762      3763      3584      3761      3766      3765
      3584      3761      3766      3767      3585      3408      3411      3410
      3585      3408      3411      3412      3585      3586      3587      3584
      3585      3586      3587      3588      3585      3590      3591      3588
      3585      3590      3591      3592      3586      3581      3582      3577
      3586      3581      3582      3583      3586      3585      3590      3589
      3586      3585      3590      3591      3586      3587      3588      3591
      3586      3587      3588      3765      3587      3584      3761      3762
      3587      3584      3761      3766      3587      3588      3591      3590
      3587      3588      3591      3592      3587      3588      3765      3766
      3587      3588      3765      3770      3588      3591      3592      3595
      3588      3591      3592      3769      3588      3765      3766      3761
      3588      3765      3766      3767      3588      3765      3770      3769
      3588      3765      3770      3771      3589      3412      3415      3414
      3589      3412      3415      3416      3589      3590      3591      3588
      3589      3590      3591      3592      3589      3594      3595      3592
      3589      3594      3595      3596      3590      3585      3586      3581
      3590      3585      3586      3587      3590      3589      3594      3593
      3590      3589      3594      3595      3590      3591      3592      3595
      3590      3591      3592      3769      3591      3588      3765      3766
      3591      3588      3765      3770      3591      3592      3595      3594
      3591      3592      3595      3596      3591      3592      3769      3770
      3591      3592      3769      3774      3592      3595      3596      3599
      3592      3595      3596      3773      3592      3769      3770      3765
      3592      3769      3770      3771      3592      3769      3774      3773
      3592      3769      3774      3775      3593      3416      3419      3418
      3593      3416      3419      3420      3593      3594      3595      3592
      3593      3594      3595      3596      3593      3598      3599      3596
      3593      3598      3599      3600      3594      3589      3590      3585
      3594      3589      3590      3591      3594      3593      3598      3597
      3594      3593      3598      3599      3594      3595      3596      3599
      3594      3595      3596      3773      3595      3592      3769      3770
      3595      3592      3769      3774      3595      3596      3599      3598
      3595      3596      3599      3600      3595      3596      3773      3774
      3595      3596      3773      3778      3596      3599      3600      3777
      3596      3773      3774      3769      3596      3773      3774      3775
      3596      3773      3778      3777      3596      3773      3778      3779
      3597      3598      3599      3596      3597      3598      3599      3600
      3598      3593      3594      3589      3598      3593      3594      3595
      3598      3599      3600      3777      3599      3596      3773      3774
      3599      3596      3773      3778      3599      3600      3777      3778
      3600      3777      3778      3773      3600      3777      3778      3779
      3601      3424      3427      3426      3601      3424      3427      3428
      3601      3602      3603      3604      3601      3606      3607      3604
      3601      3606      3607      3608      3602      3601      3606      3605
      3602      3601      3606      3607      3602      3603      3604      3781
      3602      3603      3604      3607      3603      3604      3781      3782
      3603      3604      3781      3786      3603      3604      3607      3606
      3603      3604      3607      3608      3604      3607      3608      3785
      3604      3607      3608      3611      3604      3781      3782      3783
      3604      3781      3786      3785      3604      3781      3786      3787
      3605      3428      3431      3430      3605      3428      3431      3432
      3605      3606      3607      3604      3605      3606      3607      3608
      3605      3610      3611      3608      3605      3610      3611      3612
      3606      3601      3602      3603      3606      3605      3610      3609
      3606      3605      3610      3611      3606      3607      3608      3785
      3606      3607      3608      3611      3607      3604      3781      3782
      3607      3604      3781      3786      3607      3608      3785      3786
      3607      3608      3785      3790      3607      3608      3611      3610
      3607      3608      3611      3612      3608      3611      3612      3615
      3608      3611      3612      3789      3608      3785      3786      3781
      3608      3785      3786      3787      3608      3785      3790      3789
      3608      3785      3790      3791      3609      3432      3435      3434
      3609      3432      3435      3436      3609      3610      3611      3608
      3609      3610      3611      3612      3609      3614      3615      3612
      3609      3614      3615      3616      3610      3605      3606      3601
      3610      3605      3606      3607      3610      3609      3614      3613
      3610      3609      3614      3615      3610      3611      3612      3615
      3610      3611      3612      3789      3611      3608      3785      3786
      3611      3608      3785      3790      3611      3612      3615      3614
      3611      3612      3615      3616      3611      3612      3789      3790
      3611      3612      3789      3794      3612      3615      3616      3619
      3612      3615      3616      3793      3612      3789      3790      3785
      3612      3789      3790      3791      3612      3789      3794      3793
      3612      3789      3794      3795      3613      3436      3439      3438
      3613      3436      3439      3440      3613      3614      3615      3612
      3613      3614      3615      3616      3613      3618      3619      3616
      3613      3618      3619      3620      3614      3609      3610      3605
      3614      3609      3610      3611      3614      3613      3618      3617
      3614      3613      3618      3619      3614      3615      3616      3619
      3614      3615      3616      3793      3615      3612      3789      3790
      3615      3612      3789      3794      3615      3616      3619      3618
      3615      3616      3619      3620      3615      3616      3793      3794
      3615      3616      3793      3798      3616      3619      3620      3797
      3616      3619      3620      3623      3616      3793      3794      3789
      3616      3793      3794      3795      3616      3793      3798      3797
      3616      3793      3798      3799      3617      3440      3443      3442
      3617      3440      3443      3444      3617      3618      3619      3616
      3617      3618      3619      3620      3617      3622      3623      3620
      3617      3622      3623      3624      3618      3613      3614      3609
      3618      3613      3614      3615      3618      3617      3622      3621
      3618      3617      3622      3623      3618      3619      3620      3797
      3618      3619      3620      3623      3619      3616      3793      3794
      3619      3616      3793      3798      3619      3620      3797      3802
      3619      3620      3797      3798      3619      3620      3623      3622
      3619      3620      3623      3624      3620      3623      3624      3801
      3620      3623      3624      3627      3620      3797      3802      3801
      3620      3797      3802      3803      3620      3797      3798      3793
      3620      3797      3798      3799      3621      3444      3447      3446
      3621      3444      3447      3448      3621      3622      3623      3620
      3621      3622      3623      3624      3621      3626      3627      3624
      3621      3626      3627      3628      3622      3617      3618      3613
      3622      3617      3618      3619      3622      3621      3626      3625
      3622      3621      3626      3627      3622      3623      3624      3801
      3622      3623      3624      3627      3623      3620      3797      3802
      3623      3620      3797      3798      3623      3624      3801      3802
      3623      3624      3801      3806      3623      3624      3627      3626
      3623      3624      3627      3628      3624      3627      3628      3805
      3624      3627      3628      3631      3624      3801      3802      3797
      3624      3801      3802      3803      3624      3801      3806      3805
      3624      3801      3806      3807      3625      3448      3451      3450
      3625      3448      3451      3452      3625      3626      3627      3624
      3625      3626      3627      3628      3625      3630      3631      3628
      3625      3630      3631      3632      3626      3621      3622      3617
      3626      3621      3622      3623      3626      3625      3630      3629
      3626      3625      3630      3631      3626      3627      3628      3805
      3626      3627      3628      3631      3627      3624      3801      3802
      3627      3624      3801      3806      3627      3628      3805      3806
      3627      3628      3805      3810      3627      3628      3631      3630
      3627      3628      3631      3632      3628      3631      3632      3635
      3628      3631      3632      3809      3628      3805      3806      3801
      3628      3805      3806      3807      3628      3805      3810      3809
      3628      3805      3810      3811      3629      3452      3455      3454
      3629      3452      3455      3456      3629      3630      3631      3628
      3629      3630      3631      3632      3629      3634      3635      3632
      3629      3634      3635      3636      3630      3625      3626      3621
      3630      3625      3626      3627      3630      3629      3634      3633
      3630      3629      3634      3635      3630      3631      3632      3635
      3630      3631      3632      3809      3631      3628      3805      3806
      3631      3628      3805      3810      3631      3632      3635      3634
      3631      3632      3635      3636      3631      3632      3809      3814
      3631      3632      3809      3810      3632      3635      3636      3639
      3632      3635      3636      3813      3632      3809      3814      3813
      3632      3809      3814      3815      3632      3809      3810      3805
      3632      3809      3810      3811      3633      3456      3459      3458
      3633      3456      3459      3460      3633      3634      3635      3632
      3633      3634      3635      3636      3633      3638      3639      3636
      3633      3638      3639      3640      3634      3629      3630      3625
      3634      3629      3630      3631      3634      3633      3638      3637
      3634      3633      3638      3639      3634      3635      3636      3639
      3634      3635      3636      3813      3635      3632      3809      3814
      3635      3632      3809      3810      3635      3636      3639      3638
      3635      3636      3639      3640      3635      3636      3813      3818
      3635      3636      3813      3814      3636      3639      3640      3817
      3636      3639      3640      3643      3636      3813      3818      3817
      3636      3813      3818      3819      3636      3813      3814      3809
      3636      3813      3814      3815      3637      3460      3463      3462
      3637      3460      3463      3464      3637      3638      3639      3636
      3637      3638      3639      3640      3637      3642      3643      3640
      3637      3642      3643      3644      3638      3633      3634      3629
      3638      3633      3634      3635      3638      3637      3642      3641
      3638      3637      3642      3643      3638      3639      3640      3817
      3638      3639      3640      3643      3639      3636      3813      3818
      3639      3636      3813      3814      3639      3640      3817      3822
      3639      3640      3817      3818      3639      3640      3643      3642
      3639      3640      3643      3644      3640      3643      3644      3821
      3640      3643      3644      3647      3640      3817      3822      3821
      3640      3817      3822      3823      3640      3817      3818      3813
      3640      3817      3818      3819      3641      3464      3467      3466
      3641      3464      3467      3468      3641      3642      3643      3640
      3641      3642      3643      3644      3641      3646      3647      3644
      3641      3646      3647      3648      3642      3637      3638      3633
      3642      3637      3638      3639      3642      3641      3646      3645
      3642      3641      3646      3647      3642      3643      3644      3821
      3642      3643      3644      3647      3643      3640      3817      3822
      3643      3640      3817      3818      3643      3644      3821      3822
      3643      3644      3821      3826      3643      3644      3647      3646
      3643      3644      3647      3648      3644      3647      3648      3825
      3644      3647      3648      3651      3644      3821      3822      3817
      3644      3821      3822      3823      3644      3821      3826      3825
      3644      3821      3826      3827      3645      3468      3471      3470
      3645      3468      3471      3472      3645      3646      3647      3644
      3645      3646      3647      3648      3645      3650      3651      3648
      3645      3650      3651      3652      3646      3641      3642      3637
      3646      3641      3642      3643      3646      3645      3650      3649
      3646      3645      3650      3651      3646      3647      3648      3825
      3646      3647      3648      3651      3647      3644      3821      3822
      3647      3644      3821      3826      3647      3648      3825      3826
      3647      3648      3825      3830      3647      3648      3651      3650
      3647      3648      3651      3652      3648      3651      3652      3829
      3648      3651      3652      3655      3648      3825      3826      3821
      3648      3825      3826      3827      3648      3825      3830      3829
      3648      3825      3830      3831      3649      3472      3475      3474
      3649      3472      3475      3476      3649      3650      3651      3648
      3649      3650      3651      3652      3649      3654      3655      3652
      3649      3654      3655      3656      3650      3645      3646      3641
      3650      3645      3646      3647      3650      3649      3654      3653
      3650      3649      3654      3655      3650      3651      3652      3829
      3650      3651      3652      3655      3651      3648      3825      3826
      3651      3648      3825      3830      3651      3652      3829      3834
      3651      3652      3829      3830      3651      3652      3655      3654
      3651      3652      3655      3656      3652      3655      3656      3833
      3652      3655      3656      3659      3652      3829      3834      3833
      3652      3829      3834      3835      3652      3829      3830      3825
      3652      3829      3830      3831      3653      3476      3479      3478
      3653      3476      3479      3480      3653      3654      3655      3652
      3653      3654      3655      3656      3653      3658      3659      3656
      3653      3658      3659      3660      3654      3649      3650      3645
      3654      3649      3650      3651      3654      3653      3658      3657
      3654      3653      3658      3659      3654      3655      3656      3833
      3654      3655      3656      3659      3655      3652      3829      3834
      3655      3652      3829      3830      3655      3656      3833      3838
      3655      3656      3833      3834      3655      3656      3659      3658
      3655      3656      3659      3660      3656      3659      3660      3837
      3656      3659      3660      3663      3656      3833      3838      3837
      3656      3833      3838      3839      3656      3833      3834      3829
      3656      3833      3834      3835      3657      3480      3483      3482
      3657      3480      3483      3484      3657      3658      3659      3656
      3657      3658      3659      3660      3657      3662      3663      3660
      3657      3662      3663      3664      3658      3653      3654      3649
      3658      3653      3654      3655      3658      3657      3662      3661
      3658      3657      3662      3663      3658      3659      3660      3837
      3658      3659      3660      3663      3659      3656      3833      3838
      3659      3656      3833      3834      3659      3660      3837      3842
      3659      3660      3837      3838      3659      3660      3663      3662
      3659      3660      3663      3664      3660      3663      3664      3841
      3660      3663      3664      3667      3660      3837      3842      3841
      3660      3837      3842      3843      3660      3837      3838      3833
      3660      3837      3838      3839      3661      3484      3487      3486
      3661      3484      3487      3488      3661      3662      3663      3660
      3661      3662      3663      3664      3661      3666      3667      3664
      3661      3666      3667      3668      3662      3657      3658      3653
      3662      3657      3658      3659      3662      3661      3666      3665
      3662      3661      3666      3667      3662      3663      3664      3841
      3662      3663      3664      3667      3663      3660      3837      3842
      3663      3660      3837      3838      3663      3664      3841      3842
      3663      3664      3841      3846      3663      3664      3667      3666
      3663      3664      3667      3668      3664      3667      3668      3845
      3664      3667      3668      3671      3664      3841      3842      3837
      3664      3841      3842      3843      3664      3841      3846      3845
      3664      3841      3846      3847      3665      3488      3491      3490
      3665      3488      3491      3492      3665      3666      3667      3664
      3665      3666      3667      3668      3665      3670      3671      3668
      3665      3670      3671      3672      3666      3661      3662      3657
      3666      3661      3662      3663      3666      3665      3670      3669
      3666      3665      3670      3671      3666      3667      3668      3845
      3666      3667      3668      3671      3667      3664      3841      3842
      3667      3664      3841      3846      3667      3668      3845      3846
      3667      3668      3845      3850      3667      3668      3671      3670
      3667      3668      3671      3672      3668      3671      3672      3675
      3668      3671      3672      3849      3668      3845      3846      3841
      3668      3845      3846      3847      3668      3845      3850      3849
      3668      3845      3850      3851      3669      3492      3495      3494
      3669      3492      3495      3496      3669      3670      3671      3668
      3669      3670      3671      3672      3669      3674      3675      3672
      3669      3674      3675      3676      3670      3665      3666      3661
      3670      3665      3666      3667      3670      3669      3674      3673
      3670      3669      3674      3675      3670      3671      3672      3675
      3670      3671      3672      3849      3671      3668      3845      3846
      3671      3668      3845      3850      3671      3672      3675      3674
      3671      3672      3675      3676      3671      3672      3849      3850
      3671      3672      3849      3854      3672      3675      3676      3679
      3672      3675      3676      3853      3672      3849      3850      3845
      3672      3849      3850      3851      3672      3849      3854      3853
      3672      3849      3854      3855      3673      3496      3499      3498
      3673      3496      3499      3500      3673      3674      3675      3672
      3673      3674      3675      3676      3673      3678      3679      3676
      3673      3678      3679      3680      3674      3669      3670      3665
      3674      3669      3670      3671      3674      3673      3678      3677
      3674      3673      3678      3679      3674      3675      3676      3679
      3674      3675      3676      3853      3675      3672      3849      3850
      3675      3672      3849      3854      3675      3676      3679      3678
      3675      3676      3679      3680      3675      3676      3853      3854
      3675      3676      3853      3858      3676      3679      3680      3857
      3676      3679      3680      3683      3676      3853      3854      3849
      3676      3853      3854      3855      3676      3853      3858      3857
      3676      3853      3858      3859      3677      3500      3503      3502
      3677      3500      3503      3504      3677      3678      3679      3676
      3677      3678      3679      3680      3677      3682      3683      3680
      3677      3682      3683      3684      3678      3673      3674      3669
      3678      3673      3674      3675      3678      3677      3682      3681
      3678      3677      3682      3683      3678      3679      3680      3857
      3678      3679      3680      3683      3679      3676      3853      3854
      3679      3676      3853      3858      3679      3680      3857      3858
      3679      3680      3857      3862      3679      3680      3683      3682
      3679      3680      3683      3684      3680      3683      3684      3861
      3680      3683      3684      3687      3680      3857      3858      3853
      3680      3857      3858      3859      3680      3857      3862      3861
      3680      3857      3862      3863      3681      3504      3507      3506
      3681      3504      3507      3508      3681      3682      3683      3680
      3681      3682      3683      3684      3681      3686      3687      3684
      3681      3686      3687      3688      3682      3677      3678      3673
      3682      3677      3678      3679      3682      3681      3686      3685
      3682      3681      3686      3687      3682      3683      3684      3861
      3682      3683      3684      3687      3683      3680      3857      3858
      3683      3680      3857      3862      3683      3684      3861      3862
      3683      3684      3861      3866      3683      3684      3687      3686
      3683      3684      3687      3688      3684      3687      3688      3865
      3684      3687      3688      3691      3684      3861      3862      3857
      3684      3861      3862      3863      3684      3861      3866      3865
      3684      3861      3866      3867      3685      3508      3511      3510
      3685      3508      3511      3512      3685      3686      3687      3684
      3685      3686      3687      3688      3685      3690      3691      3688
      3685      3690      3691      3692      3686      3681      3682      3677
      3686      3681      3682      3683      3686      3685      3690      3689
      3686      3685      3690      3691      3686      3687      3688      3865
      3686      3687      3688      3691      3687      3684      3861      3862
      3687      3684      3861      3866      3687      3688      3865      3866
      3687      3688      3865      3870      3687      3688      3691      3690
      3687      3688      3691      3692      3688      3691      3692      3695
      3688      3691      3692      3869      3688      3865      3866      3861
      3688      3865      3866      3867      3688      3865      3870      3869
      3688      3865      3870      3871      3689      3512      3515      3514
      3689      3512      3515      3516      3689      3690      3691      3688
      3689      3690      3691      3692      3689      3694      3695      3692
      3689      3694      3695      3696      3690      3685      3686      3681
      3690      3685      3686      3687      3690      3689      3694      3693
      3690      3689      3694      3695      3690      3691      3692      3695
      3690      3691      3692      3869      3691      3688      3865      3866
      3691      3688      3865      3870      3691      3692      3695      3694
      3691      3692      3695      3696      3691      3692      3869      3874
      3691      3692      3869      3870      3692      3695      3696      3699
      3692      3695      3696      3873      3692      3869      3874      3873
      3692      3869      3874      3875      3692      3869      3870      3865
      3692      3869      3870      3871      3693      3516      3519      3518
      3693      3516      3519      3520      3693      3694      3695      3692
      3693      3694      3695      3696      3693      3698      3699      3696
      3693      3698      3699      3700      3694      3689      3690      3685
      3694      3689      3690      3691      3694      3693      3698      3697
      3694      3693      3698      3699      3694      3695      3696      3699
      3694      3695      3696      3873      3695      3692      3869      3874
      3695      3692      3869      3870      3695      3696      3699      3698
      3695      3696      3699      3700      3695      3696      3873      3878
      3695      3696      3873      3874      3696      3699      3700      3877
      3696      3699      3700      3703      3696      3873      3878      3877
      3696      3873      3878      3879      3696      3873      3874      3869
      3696      3873      3874      3875      3697      3520      3523      3522
      3697      3520      3523      3524      3697      3698      3699      3696
      3697      3698      3699      3700      3697      3702      3703      3700
      3697      3702      3703      3704      3698      3693      3694      3689
      3698      3693      3694      3695      3698      3697      3702      3701
      3698      3697      3702      3703      3698      3699      3700      3877
      3698      3699      3700      3703      3699      3696      3873      3878
      3699      3696      3873      3874      3699      3700      3877      3882
      3699      3700      3877      3878      3699      3700      3703      3702
      3699      3700      3703      3704      3700      3703      3704      3881
      3700      3703      3704      3707      3700      3877      3882      3881
      3700      3877      3882      3883      3700      3877      3878      3873
      3700      3877      3878      3879      3701      3524      3527      3526
      3701      3524      3527      3528      3701      3702      3703      3700
      3701      3702      3703      3704      3701      3706      3707      3704
      3701      3706      3707      3708      3702      3697      3698      3693
      3702      3697      3698      3699      3702      3701      3706      3705
      3702      3701      3706      3707      3702      3703      3704      3881
      3702      3703      3704      3707      3703      3700      3877      3882
      3703      3700      3877      3878      3703      3704      3881      3882
      3703      3704      3881      3886      3703      3704      3707      3706
      3703      3704      3707      3708      3704      3707      3708      3885
      3704      3707      3708      3711      3704      3881      3882      3877
      3704      3881      3882      3883      3704      3881      3886      3885
      3704      3881      3886      3887      3705      3528      3531      3530
      3705      3528      3531      3532      3705      3706      3707      3704
      3705      3706      3707      3708      3705      3710      3711      3708
      3705      3710      3711      3712      3706      3701      3702      3697
      3706      3701      3702      3703      3706      3705      3710      3709
      3706      3705      3710      3711      3706      3707      3708      3885
      3706      3707      3708      3711      3707      3704      3881      3882
      3707      3704      3881      3886      3707      3708      3885      3886
      3707      3708      3885      3890      3707      3708      3711      3710
      3707      3708      3711      3712      3708      3711      3712      3889
      3708      3711      3712      3715      3708      3885      3886      3881
      3708      3885      3886      3887      3708      3885      3890      3889
      3708      3885      3890      3891      3709      3532      3535      3534
      3709      3532      3535      3536      3709      3710      3711      3708
      3709      3710      3711      3712      3709      3714      3715      3712
      3709      3714      3715      3716      3710      3705      3706      3701
      3710      3705      3706      3707      3710      3709      3714      3713
      3710      3709      3714      3715      3710      3711      3712      3889
      3710      3711      3712      3715      3711      3708      3885      3886
      3711      3708      3885      3890      3711      3712      3889      3894
      3711      3712      3889      3890      3711      3712      3715      3714
      3711      3712      3715      3716      3712      3715      3716      3893
      3712      3715      3716      3719      3712      3889      3894      3893
      3712      3889      3894      3895      3712      3889      3890      3885
      3712      3889      3890      3891      3713      3536      3539      3538
      3713      3536      3539      3540      3713      3714      3715      3712
      3713      3714      3715      3716      3713      3718      3719      3716
      3713      3718      3719      3720      3714      3709      3710      3705
      3714      3709      3710      3711      3714      3713      3718      3717
      3714      3713      3718      3719      3714      3715      3716      3893
      3714      3715      3716      3719      3715      3712      3889      3894
      3715      3712      3889      3890      3715      3716      3893      3898
      3715      3716      3893      3894      3715      3716      3719      3718
      3715      3716      3719      3720      3716      3719      3720      3897
      3716      3719      3720      3723      3716      3893      3898      3897
      3716      3893      3898      3899      3716      3893      3894      3889
      3716      3893      3894      3895      3717      3540      3543      3542
      3717      3540      3543      3544      3717      3718      3719      3716
      3717      3718      3719      3720      3717      3722      3723      3720
      3717      3722      3723      3724      3718      3713      3714      3709
      3718      3713      3714      3715      3718      3717      3722      3721
      3718      3717      3722      3723      3718      3719      3720      3897
      3718      3719      3720      3723      3719      3716      3893      3898
      3719      3716      3893      3894      3719      3720      3897      3902
      3719      3720      3897      3898      3719      3720      3723      3722
      3719      3720      3723      3724      3720      3723      3724      3901
      3720      3723      3724      3727      3720      3897      3902      3901
      3720      3897      3902      3903      3720      3897      3898      3893
      3720      3897      3898      3899      3721      3544      3547      3546
      3721      3544      3547      3548      3721      3722      3723      3720
      3721      3722      3723      3724      3721      3726      3727      3724
      3721      3726      3727      3728      3722      3717      3718      3713
      3722      3717      3718      3719      3722      3721      3726      3725
      3722      3721      3726      3727      3722      3723      3724      3901
      3722      3723      3724      3727      3723      3720      3897      3902
      3723      3720      3897      3898      3723      3724      3901      3902
      3723      3724      3901      3906      3723      3724      3727      3726
      3723      3724      3727      3728      3724      3727      3728      3905
      3724      3727      3728      3731      3724      3901      3902      3897
      3724      3901      3902      3903      3724      3901      3906      3905
      3724      3901      3906      3907      3725      3548      3551      3550
      3725      3548      3551      3552      3725      3726      3727      3724
      3725      3726      3727      3728      3725      3730      3731      3728
      3725      3730      3731      3732      3726      3721      3722      3717
      3726      3721      3722      3723      3726      3725      3730      3729
      3726      3725      3730      3731      3726      3727      3728      3905
      3726      3727      3728      3731      3727      3724      3901      3902
      3727      3724      3901      3906      3727      3728      3905      3906
      3727      3728      3905      3910      3727      3728      3731      3730
      3727      3728      3731      3732      3728      3731      3732      3735
      3728      3731      3732      3909      3728      3905      3906      3901
      3728      3905      3906      3907      3728      3905      3910      3909
      3728      3905      3910      3911      3729      3552      3555      3554
      3729      3552      3555      3556      3729      3730      3731      3728
      3729      3730      3731      3732      3729      3734      3735      3732
      3729      3734      3735      3736      3730      3725      3726      3721
      3730      3725      3726      3727      3730      3729      3734      3733
      3730      3729      3734      3735      3730      3731      3732      3735
      3730      3731      3732      3909      3731      3728      3905      3906
      3731      3728      3905      3910      3731      3732      3735      3734
      3731      3732      3735      3736      3731      3732      3909      3910
      3731      3732      3909      3914      3732      3735      3736      3739
      3732      3735      3736      3913      3732      3909      3910      3905
      3732      3909      3910      3911      3732      3909      3914      3913
      3732      3909      3914      3915      3733      3556      3559      3558
      3733      3556      3559      3560      3733      3734      3735      3732
      3733      3734      3735      3736      3733      3738      3739      3736
      3733      3738      3739      3740      3734      3729      3730      3725
      3734      3729      3730      3731      3734      3733      3738      3737
      3734      3733      3738      3739      3734      3735      3736      3739
      3734      3735      3736      3913      3735      3732      3909      3910
      3735      3732      3909      3914      3735      3736      3739      3738
      3735      3736      3739      3740      3735      3736      3913      3914
      3735      3736      3913      3918      3736      3739      3740      3917
      3736      3739      3740      3743      3736      3913      3914      3909
      3736      3913      3914      3915      3736      3913      3918      3917
      3736      3913      3918      3919      3737      3560      3563      3562
      3737      3560      3563      3564      3737      3738      3739      3736
      3737      3738      3739      3740      3737      3742      3743      3740
      3737      3742      3743      3744      3738      3733      3734      3729
      3738      3733      3734      3735      3738      3737      3742      3741
      3738      3737      3742      3743      3738      3739      3740      3917
      3738      3739      3740      3743      3739      3736      3913      3914
      3739      3736      3913      3918      3739      3740      3917      3918
      3739      3740      3917      3922      3739      3740      3743      3742
      3739      3740      3743      3744      3740      3743      3744      3921
      3740      3743      3744      3747      3740      3917      3918      3913
      3740      3917      3918      3919      3740      3917      3922      3921
      3740      3917      3922      3923      3741      3564      3567      3566
      3741      3564      3567      3568      3741      3742      3743      3740
      3741      3742      3743      3744      3741      3746      3747      3744
      3741      3746      3747      3748      3742      3737      3738      3733
      3742      3737      3738      3739      3742      3741      3746      3745
      3742      3741      3746      3747      3742      3743      3744      3921
      3742      3743      3744      3747      3743      3740      3917      3918
      3743      3740      3917      3922      3743      3744      3921      3922
      3743      3744      3921      3926      3743      3744      3747      3746
      3743      3744      3747      3748      3744      3747      3748      3925
      3744      3747      3748      3751      3744      3921      3922      3917
      3744      3921      3922      3923      3744      3921      3926      3925
      3744      3921      3926      3927      3745      3568      3571      3570
      3745      3568      3571      3572      3745      3746      3747      3744
      3745      3746      3747      3748      3745      3750      3751      3748
      3745      3750      3751      3752      3746      3741      3742      3737
      3746      3741      3742      3743      3746      3745      3750      3749
      3746      3745      3750      3751      3746      3747      3748      3925
      3746      3747      3748      3751      3747      3744      3921      3922
      3747      3744      3921      3926      3747      3748      3925      3926
      3747      3748      3925      3930      3747      3748      3751      3750
      3747      3748      3751      3752      3748      3751      3752      3755
      3748      3751      3752      3929      3748      3925      3926      3921
      3748      3925      3926      3927      3748      3925      3930      3929
      3748      3925      3930      3931      3749      3572      3575      3574
      3749      3572      3575      3576      3749      3750      3751      3748
      3749      3750      3751      3752      3749      3754      3755      3752
      3749      3754      3755      3756      3750      3745      3746      3741
      3750      3745      3746      3747      3750      3749      3754      3753
      3750      3749      3754      3755      3750      3751      3752      3755
      3750      3751      3752      3929      3751      3748      3925      3926
      3751      3748      3925      3930      3751      3752      3755      3754
      3751      3752      3755      3756      3751      3752      3929      3934
      3751      3752      3929      3930      3752      3755      3756      3759
      3752      3755      3756      3933      3752      3929      3934      3933
      3752      3929      3934      3935      3752      3929      3930      3925
      3752      3929      3930      3931      3753      3576      3579      3578
      3753      3576      3579      3580      3753      3754      3755      3752
      3753      3754      3755      3756      3753      3758      3759      3756
      3753      3758      3759      3760      3754      3749      3750      3745
      3754      3749      3750      3751      3754      3753      3758      3757
      3754      3753      3758      3759      3754      3755      3756      3759
      3754      3755      3756      3933      3755      3752      3929      3934
      3755      3752      3929      3930      3755      3756      3759      3758
      3755      3756      3759      3760      3755      3756      3933      3938
      3755      3756      3933      3934      3756      3759      3760      3937
      3756      3759      3760      3763      3756      3933      3938      3937
      3756      3933      3938      3939      3756      3933      3934      3929
      3756      3933      3934      3935      3757      3580      3583      3582
      3757      3580      3583      3584      3757      3758      3759      3756
      3757      3758      3759      3760      3757      3762      3763      3760
      3757      3762      3763      3764      3758      3753      3754      3749
      3758      3753      3754      3755      3758      3757      3762      3761
      3758      3757      3762      3763      3758      3759      3760      3937
      3758      3759      3760      3763      3759      3756      3933      3938
      3759      3756      3933      3934      3759      3760      3937      3942
      3759      3760      3937      3938      3759      3760      3763      3762
      3759      3760      3763      3764      3760      3763      3764      3941
      3760      3763      3764      3767      3760      3937      3942      3941
      3760      3937      3942      3943      3760      3937      3938      3933
      3760      3937      3938      3939      3761      3584      3587      3586
      3761      3584      3587      3588      3761      3762      3763      3760
      3761      3762      3763      3764      3761      3766      3767      3764
      3761      3766      3767      3768      3762      3757      3758      3753
      3762      3757      3758      3759      3762      3761      3766      3765
      3762      3761      3766      3767      3762      3763      3764      3941
      3762      3763      3764      3767      3763      3760      3937      3942
      3763      3760      3937      3938      3763      3764      3941      3942
      3763      3764      3941      3946      3763      3764      3767      3766
      3763      3764      3767      3768      3764      3767      3768      3945
      3764      3767      3768      3771      3764      3941      3942      3937
      3764      3941      3942      3943      3764      3941      3946      3945
      3764      3941      3946      3947      3765      3588      3591      3590
      3765      3588      3591      3592      3765      3766      3767      3764
      3765      3766      3767      3768      3765      3770      3771      3768
      3765      3770      3771      3772      3766      3761      3762      3757
      3766      3761      3762      3763      3766      3765      3770      3769
      3766      3765      3770      3771      3766      3767      3768      3945
      3766      3767      3768      3771      3767      3764      3941      3942
      3767      3764      3941      3946      3767      3768      3945      3946
      3767      3768      3945      3950      3767      3768      3771      3770
      3767      3768      3771      3772      3768      3771      3772      3775
      3768      3771      3772      3949      3768      3945      3946      3941
      3768      3945      3946      3947      3768      3945      3950      3949
      3768      3945      3950      3951      3769      3592      3595      3594
      3769      3592      3595      3596      3769      3770      3771      3768
      3769      3770      3771      3772      3769      3774      3775      3772
      3769      3774      3775      3776      3770      3765      3766      3761
      3770      3765      3766      3767      3770      3769      3774      3773
      3770      3769      3774      3775      3770      3771      3772      3775
      3770      3771      3772      3949      3771      3768      3945      3946
      3771      3768      3945      3950      3771      3772      3775      3774
      3771      3772      3775      3776      3771      3772      3949      3954
      3771      3772      3949      3950      3772      3775      3776      3953
      3772      3775      3776      3779      3772      3949      3954      3953
      3772      3949      3954      3955      3772      3949      3950      3945
      3772      3949      3950      3951      3773      3596      3599      3598
      3773      3596      3599      3600      3773      3774      3775      3772
      3773      3774      3775      3776      3773      3778      3779      3776
      3773      3778      3779      3780      3774      3769      3770      3765
      3774      3769      3770      3771      3774      3773      3778      3777
      3774      3773      3778      3779      3774      3775      3776      3953
      3774      3775      3776      3779      3775      3772      3949      3954
      3775      3772      3949      3950      3775      3776      3953      3958
      3775      3776      3953      3954      3775      3776      3779      3778
      3775      3776      3779      3780      3776      3779      3780      3957
      3776      3953      3958      3957      3776      3953      3958      3959
      3776      3953      3954      3949      3776      3953      3954      3955
      3777      3778      3779      3776      3777      3778      3779      3780
      3778      3773      3774      3769      3778      3773      3774      3775
      3778      3779      3780      3957      3779      3776      3953      3958
      3779      3776      3953      3954      3779      3780      3957      3958
      3780      3957      3958      3953      3780      3957      3958      3959
      3781      3604      3607      3606      3781      3604      3607      3608
      3781      3782      3783      3784      3781      3786      3787      3784
      3781      3786      3787      3788      3782      3781      3786      3785
      3782      3781      3786      3787      3782      3783      3784      3961
      3782      3783      3784      3787      3783      3784      3961      3962
      3783      3784      3961      3966      3783      3784      3787      3786
      3783      3784      3787      3788      3784      3787      3788      3965
      3784      3787      3788      3791      3784      3961      3962      3963
      3784      3961      3966      3965      3784      3961      3966      3967
      3785      3608      3611      3610      3785      3608      3611      3612
      3785      3786      3787      3784      3785      3786      3787      3788
      3785      3790      3791      3788      3785      3790      3791      3792
      3786      3781      3782      3783      3786      3785      3790      3789
      3786      3785      3790      3791      3786      3787      3788      3965
      3786      3787      3788      3791      3787      3784      3961      3962
      3787      3784      3961      3966      3787      3788      3965      3966
      3787      3788      3965      3970      3787      3788      3791      3790
      3787      3788      3791      3792      3788      3791      3792      3795
      3788      3791      3792      3969      3788      3965      3966      3961
      3788      3965      3966      3967      3788      3965      3970      3969
      3788      3965      3970      3971      3789      3612      3615      3614
      3789      3612      3615      3616      3789      3790      3791      3788
      3789      3790      3791      3792      3789      3794      3795      3792
      3789      3794      3795      3796      3790      3785      3786      3781
      3790      3785      3786      3787      3790      3789      3794      3793
      3790      3789      3794      3795      3790      3791      3792      3795
      3790      3791      3792      3969      3791      3788      3965      3966
      3791      3788      3965      3970      3791      3792      3795      3794
      3791      3792      3795      3796      3791      3792      3969      3974
      3791      3792      3969      3970      3792      3795      3796      3973
      3792      3795      3796      3799      3792      3969      3974      3973
      3792      3969      3974      3975      3792      3969      3970      3965
      3792      3969      3970      3971      3793      3616      3619      3618
      3793      3616      3619      3620      3793      3794      3795      3792
      3793      3794      3795      3796      3793      3798      3799      3796
      3793      3798      3799      3800      3794      3789      3790      3785
      3794      3789      3790      3791      3794      3793      3798      3797
      3794      3793      3798      3799      3794      3795      3796      3973
      3794      3795      3796      3799      3795      3792      3969      3974
      3795      3792      3969      3970      3795      3796      3973      3978
      3795      3796      3973      3974      3795      3796      3799      3798
      3795      3796      3799      3800      3796      3799      3800      3977
      3796      3799      3800      3803      3796      3973      3978      3977
      3796      3973      3978      3979      3796      3973      3974      3969
      3796      3973      3974      3975      3797      3620      3623      3622
      3797      3620      3623      3624      3797      3798      3799      3796
      3797      3798      3799      3800      3797      3802      3803      3800
      3797      3802      3803      3804      3798      3793      3794      3789
      3798      3793      3794      3795      3798      3797      3802      3801
      3798      3797      3802      3803      3798      3799      3800      3977
      3798      3799      3800      3803      3799      3796      3973      3978
      3799      3796      3973      3974      3799      3800      3977      3982
      3799      3800      3977      3978      3799      3800      3803      3802
      3799      3800      3803      3804      3800      3803      3804      3981
      3800      3803      3804      3807      3800      3977      3982      3981
      3800      3977      3982      3983      3800      3977      3978      3973
      3800      3977      3978      3979      3801      3624      3627      3626
      3801      3624      3627      3628      3801      3802      3803      3800
      3801      3802      3803      3804      3801      3806      3807      3804
      3801      3806      3807      3808      3802      3797      3798      3793
      3802      3797      3798      3799      3802      3801      3806      3805
      3802      3801      3806      3807      3802      3803      3804      3981
      3802      3803      3804      3807      3803      3800      3977      3982
      3803      3800      3977      3978      3803      3804      3981      3982
      3803      3804      3981      3986      3803      3804      3807      3806
      3803      3804      3807      3808      3804      3807      3808      3985
      3804      3807      3808      3811      3804      3981      3982      3977
      3804      3981      3982      3983      3804      3981      3986      3985
      3804      3981      3986      3987      3805      3628      3631      3630
      3805      3628      3631      3632      3805      3806      3807      3804
      3805      3806      3807      3808      3805      3810      3811      3808
      3805      3810      3811      3812      3806      3801      3802      3797
      3806      3801      3802      3803      3806      3805      3810      3809
      3806      3805      3810      3811      3806      3807      3808      3985
      3806      3807      3808      3811      3807      3804      3981      3982
      3807      3804      3981      3986      3807      3808      3985      3986
      3807      3808      3985      3990      3807      3808      3811      3810
      3807      3808      3811      3812      3808      3811      3812      3989
      3808      3811      3812      3815      3808      3985      3986      3981
      3808      3985      3986      3987      3808      3985      3990      3989
      3808      3985      3990      3991      3809      3632      3635      3634
      3809      3632      3635      3636      3809      3810      3811      3808
      3809      3810      3811      3812      3809      3814      3815      3812
      3809      3814      3815      3816      3810      3805      3806      3801
      3810      3805      3806      3807      3810      3809      3814      3813
      3810      3809      3814      3815      3810      3811      3812      3989
      3810      3811      3812      3815      3811      3808      3985      3986
      3811      3808      3985      3990      3811      3812      3989      3994
      3811      3812      3989      3990      3811      3812      3815      3814
      3811      3812      3815      3816      3812      3815      3816      3819
      3812      3815      3816      3993      3812      3989      3994      3993
      3812      3989      3994      3995      3812      3989      3990      3985
      3812      3989      3990      3991      3813      3636      3639      3638
      3813      3636      3639      3640      3813      3814      3815      3812
      3813      3814      3815      3816      3813      3818      3819      3816
      3813      3818      3819      3820      3814      3809      3810      3805
      3814      3809      3810      3811      3814      3813      3818      3817
      3814      3813      3818      3819      3814      3815      3816      3819
      3814      3815      3816      3993      3815      3812      3989      3994
      3815      3812      3989      3990      3815      3816      3819      3818
      3815      3816      3819      3820      3815      3816      3993      3994
      3815      3816      3993      3998      3816      3819      3820      3997
      3816      3819      3820      3823      3816      3993      3994      3989
      3816      3993      3994      3995      3816      3993      3998      3997
      3816      3993      3998      3999      3817      3640      3643      3642
      3817      3640      3643      3644      3817      3818      3819      3816
      3817      3818      3819      3820      3817      3822      3823      3820
      3817      3822      3823      3824      3818      3813      3814      3809
      3818      3813      3814      3815      3818      3817      3822      3821
      3818      3817      3822      3823      3818      3819      3820      3997
      3818      3819      3820      3823      3819      3816      3993      3994
      3819      3816      3993      3998      3819      3820      3997      3998
      3819      3820      3997      4002      3819      3820      3823      3822
      3819      3820      3823      3824      3820      3823      3824      4001
      3820      3823      3824      3827      3820      3997      3998      3993
      3820      3997      3998      3999      3820      3997      4002      4001
      3820      3997      4002      4003      3821      3644      3647      3646
      3821      3644      3647      3648      3821      3822      3823      3820
      3821      3822      3823      3824      3821      3826      3827      3824
      3821      3826      3827      3828      3822      3817      3818      3813
      3822      3817      3818      3819      3822      3821      3826      3825
      3822      3821      3826      3827      3822      3823      3824      4001
      3822      3823      3824      3827      3823      3820      3997      3998
      3823      3820      3997      4002      3823      3824      4001      4002
      3823      3824      4001      4006      3823      3824      3827      3826
      3823      3824      3827      3828      3824      3827      3828      4005
      3824      3827      3828      3831      3824      4001      4002      3997
      3824      4001      4002      4003      3824      4001      4006      4005
      3824      4001      4006      4007      3825      3648      3651      3650
      3825      3648      3651      3652      3825      3826      3827      3824
      3825      3826      3827      3828      3825      3830      3831      3828
      3825      3830      3831      3832      3826      3821      3822      3817
      3826      3821      3822      3823      3826      3825      3830      3829
      3826      3825      3830      3831      3826      3827      3828      4005
      3826      3827      3828      3831      3827      3824      4001      4002
      3827      3824      4001      4006      3827      3828      4005      4006
      3827      3828      4005      4010      3827      3828      3831      3830
      3827      3828      3831      3832      3828      3831      3832      3835
      3828      3831      3832      4009      3828      4005      4006      4001
      3828      4005      4006      4007      3828      4005      4010      4009
      3828      4005      4010      4011      3829      3652      3655      3654
      3829      3652      3655      3656      3829      3830      3831      3828
      3829      3830      3831      3832      3829      3834      3835      3832
      3829      3834      3835      3836      3830      3825      3826      3821
      3830      3825      3826      3827      3830      3829      3834      3833
      3830      3829      3834      3835      3830      3831      3832      3835
      3830      3831      3832      4009      3831      3828      4005      4006
      3831      3828      4005      4010      3831      3832      3835      3834
      3831      3832      3835      3836      3831      3832      4009      4010
      3831      3832      4009      4014      3832      3835      3836      3839
      3832      3835      3836      4013      3832      4009      4010      4005
      3832      4009      4010      4011      3832      4009      4014      4013
      3832      4009      4014      4015      3833      3656      3659      3658
      3833      3656      3659      3660      3833      3834      3835      3832
      3833      3834      3835      3836      3833      3838      3839      3836
      3833      3838      3839      3840      3834      3829      3830      3825
      3834      3829      3830      3831      3834      3833      3838      3837
      3834      3833      3838      3839      3834      3835      3836      3839
      3834      3835      3836      4013      3835      3832      4009      4010
      3835      3832      4009      4014      3835      3836      3839      3838
      3835      3836      3839      3840      3835      3836      4013      4014
      3835      3836      4013      4018      3836      3839      3840      4017
      3836      3839      3840      3843      3836      4013      4014      4009
      3836      4013      4014      4015      3836      4013      4018      4017
      3836      4013      4018      4019      3837      3660      3663      3662
      3837      3660      3663      3664      3837      3838      3839      3836
      3837      3838      3839      3840      3837      3842      3843      3840
      3837      3842      3843      3844      3838      3833      3834      3829
      3838      3833      3834      3835      3838      3837      3842      3841
      3838      3837      3842      3843      3838      3839      3840      4017
      3838      3839      3840      3843      3839      3836      4013      4014
      3839      3836      4013      4018      3839      3840      4017      4022
      3839      3840      4017      4018      3839      3840      3843      3842
      3839      3840      3843      3844      3840      3843      3844      4021
      3840      3843      3844      3847      3840      4017      4022      4021
      3840      4017      4022      4023      3840      4017      4018      4013
      3840      4017      4018      4019      3841      3664      3667      3666
      3841      3664      3667      3668      3841      3842      3843      3840
      3841      3842      3843      3844      3841      3846      3847      3844
      3841      3846      3847      3848      3842      3837      3838      3833
      3842      3837      3838      3839      3842      3841      3846      3845
      3842      3841      3846      3847      3842      3843      3844      4021
      3842      3843      3844      3847      3843      3840      4017      4022
      3843      3840      4017      4018      3843      3844      4021      4022
      3843      3844      4021      4026      3843      3844      3847      3846
      3843      3844      3847      3848      3844      3847      3848      4025
      3844      3847      3848      3851      3844      4021      4022      4017
      3844      4021      4022      4023      3844      4021      4026      4025
      3844      4021      4026      4027      3845      3668      3671      3670
      3845      3668      3671      3672      3845      3846      3847      3844
      3845      3846      3847      3848      3845      3850      3851      3848
      3845      3850      3851      3852      3846      3841      3842      3837
      3846      3841      3842      3843      3846      3845      3850      3849
      3846      3845      3850      3851      3846      3847      3848      4025
      3846      3847      3848      3851      3847      3844      4021      4022
      3847      3844      4021      4026      3847      3848      4025      4026
      3847      3848      4025      4030      3847      3848      3851      3850
      3847      3848      3851      3852      3848      3851      3852      3855
      3848      3851      3852      4029      3848      4025      4026      4021
      3848      4025      4026      4027      3848      4025      4030      4029
      3848      4025      4030      4031      3849      3672      3675      3674
      3849      3672      3675      3676      3849      3850      3851      3848
      3849      3850      3851      3852      3849      3854      3855      3852
      3849      3854      3855      3856      3850      3845      3846      3841
      3850      3845      3846      3847      3850      3849      3854      3853
      3850      3849      3854      3855      3850      3851      3852      3855
      3850      3851      3852      4029      3851      3848      4025      4026
      3851      3848      4025      4030      3851      3852      3855      3854
      3851      3852      3855      3856      3851      3852      4029      4034
      3851      3852      4029      4030      3852      3855      3856      3859
      3852      3855      3856      4033      3852      4029      4034      4033
      3852      4029      4034      4035      3852      4029      4030      4025
      3852      4029      4030      4031      3853      3676      3679      3678
      3853      3676      3679      3680      3853      3854      3855      3852
      3853      3854      3855      3856      3853      3858      3859      3856
      3853      3858      3859      3860      3854      3849      3850      3845
      3854      3849      3850      3851      3854      3853      3858      3857
      3854      3853      3858      3859      3854      3855      3856      3859
      3854      3855      3856      4033      3855      3852      4029      4034
      3855      3852      4029      4030      3855      3856      3859      3858
      3855      3856      3859      3860      3855      3856      4033      4038
      3855      3856      4033      4034      3856      3859      3860      4037
      3856      3859      3860      3863      3856      4033      4038      4037
      3856      4033      4038      4039      3856      4033      4034      4029
      3856      4033      4034      4035      3857      3680      3683      3682
      3857      3680      3683      3684      3857      3858      3859      3856
      3857      3858      3859      3860      3857      3862      3863      3860
      3857      3862      3863      3864      3858      3853      3854      3849
      3858      3853      3854      3855      3858      3857      3862      3861
      3858      3857      3862      3863      3858      3859      3860      4037
      3858      3859      3860      3863      3859      3856      4033      4038
      3859      3856      4033      4034      3859      3860      4037      4042
      3859      3860      4037      4038      3859      3860      3863      3862
      3859      3860      3863      3864      3860      3863      3864      4041
      3860      3863      3864      3867      3860      4037      4042      4041
      3860      4037      4042      4043      3860      4037      4038      4033
      3860      4037      4038      4039      3861      3684      3687      3686
      3861      3684      3687      3688      3861      3862      3863      3860
      3861      3862      3863      3864      3861      3866      3867      3864
      3861      3866      3867      3868      3862      3857      3858      3853
      3862      3857      3858      3859      3862      3861      3866      3865
      3862      3861      3866      3867      3862      3863      3864      4041
      3862      3863      3864      3867      3863      3860      4037      4042
      3863      3860      4037      4038      3863      3864      4041      4042
      3863      3864      4041      4046      3863      3864      3867      3866
      3863      3864      3867      3868      3864      3867      3868      4045
      3864      3867      3868      3871      3864      4041      4042      4037
      3864      4041      4042      4043      3864      4041      4046      4045
      3864      4041      4046      4047      3865      3688      3691      3690
      3865      3688      3691      3692      3865      3866      3867      3864
      3865      3866      3867      3868      3865      3870      3871      3868
      3865      3870      3871      3872      3866      3861      3862      3857
      3866      3861      3862      3863      3866      3865      3870      3869
      3866      3865      3870      3871      3866      3867      3868      4045
      3866      3867      3868      3871      3867      3864      4041      4042
      3867      3864      4041      4046      3867      3868      4045      4046
      3867      3868      4045      4050      3867      3868      3871      3870
      3867      3868      3871      3872      3868      3871      3872      4049
      3868      3871      3872      3875      3868      4045      4046      4041
      3868      4045      4046      4047      3868      4045      4050      4049
      3868      4045      4050      4051      3869      3692      3695      3694
      3869      3692      3695      3696      3869      3870      3871      3868
      3869      3870      3871      3872      3869      3874      3875      3872
      3869      3874      3875      3876      3870      3865      3866      3861
      3870      3865      3866      3867      3870      3869      3874      3873
      3870      3869      3874      3875      3870      3871      3872      4049
      3870      3871      3872      3875      3871      3868      4045      4046
      3871      3868      4045      4050      3871      3872      4049      4054
      3871      3872      4049      4050      3871      3872      3875      3874
      3871      3872      3875      3876      3872      3875      3876      4053
      3872      3875      3876      3879      3872      4049      4054      4053
      3872      4049      4054      4055      3872      4049      4050      4045
      3872      4049      4050      4051      3873      3696      3699      3698
      3873      3696      3699      3700      3873      3874      3875      3872
      3873      3874      3875      3876      3873      3878      3879      3876
      3873      3878      3879      3880      3874      3869      3870      3865
      3874      3869      3870      3871      3874      3873      3878      3877
      3874      3873      3878      3879      3874      3875      3876      4053
      3874      3875      3876      3879      3875      3872      4049      4054
      3875      3872      4049      4050      3875      3876      4053      4058
      3875      3876      4053      4054      3875      3876      3879      3878
      3875      3876      3879      3880      3876      3879      3880      4057
      3876      3879      3880      3883      3876      4053      4058      4057
      3876      4053      4058      4059      3876      4053      4054      4049
      3876      4053      4054      4055      3877      3700      3703      3702
      3877      3700      3703      3704      3877      3878      3879      3876
      3877      3878      3879      3880      3877      3882      3883      3880
      3877      3882      3883      3884      3878      3873      3874      3869
      3878      3873      3874      3875      3878      3877      3882      3881
      3878      3877      3882      3883      3878      3879      3880      4057
      3878      3879      3880      3883      3879      3876      4053      4058
      3879      3876      4053      4054      3879      3880      4057      4062
      3879      3880      4057      4058      3879      3880      3883      3882
      3879      3880      3883      3884      3880      3883      3884      4061
      3880      3883      3884      3887      3880      4057      4062      4061
      3880      4057      4062      4063      3880      4057      4058      4053
      3880      4057      4058      4059      3881      3704      3707      3706
      3881      3704      3707      3708      3881      3882      3883      3880
      3881      3882      3883      3884      3881      3886      3887      3884
      3881      3886      3887      3888      3882      3877      3878      3873
      3882      3877      3878      3879      3882      3881      3886      3885
      3882      3881      3886      3887      3882      3883      3884      4061
      3882      3883      3884      3887      3883      3880      4057      4062
      3883      3880      4057      4058      3883      3884      4061      4062
      3883      3884      4061      4066      3883      3884      3887      3886
      3883      3884      3887      3888      3884      3887      3888      4065
      3884      3887      3888      3891      3884      4061      4062      4057
      3884      4061      4062      4063      3884      4061      4066      4065
      3884      4061      4066      4067      3885      3708      3711      3710
      3885      3708      3711      3712      3885      3886      3887      3884
      3885      3886      3887      3888      3885      3890      3891      3888
      3885      3890      3891      3892      3886      3881      3882      3877
      3886      3881      3882      3883      3886      3885      3890      3889
      3886      3885      3890      3891      3886      3887      3888      4065
      3886      3887      3888      3891      3887      3884      4061      4062
      3887      3884      4061      4066      3887      3888      4065      4066
      3887      3888      4065      4070      3887      3888      3891      3890
      3887      3888      3891      3892      3888      3891      3892      3895
      3888      3891      3892      4069      3888      4065      4066      4061
      3888      4065      4066      4067      3888      4065      4070      4069
      3888      4065      4070      4071      3889      3712      3715      3714
      3889      3712      3715      3716      3889      3890      3891      3888
      3889      3890      3891      3892      3889      3894      3895      3892
      3889      3894      3895      3896      3890      3885      3886      3881
      3890      3885      3886      3887      3890      3889      3894      3893
      3890      3889      3894      3895      3890      3891      3892      3895
      3890      3891      3892      4069      3891      3888      4065      4066
      3891      3888      4065      4070      3891      3892      3895      3894
      3891      3892      3895      3896      3891      3892      4069      4070
      3891      3892      4069      4074      3892      3895      3896      3899
      3892      3895      3896      4073      3892      4069      4070      4065
      3892      4069      4070      4071      3892      4069      4074      4073
      3892      4069      4074      4075      3893      3716      3719      3718
      3893      3716      3719      3720      3893      3894      3895      3892
      3893      3894      3895      3896      3893      3898      3899      3896
      3893      3898      3899      3900      3894      3889      3890      3885
      3894      3889      3890      3891      3894      3893      3898      3897
      3894      3893      3898      3899      3894      3895      3896      3899
      3894      3895      3896      4073      3895      3892      4069      4070
      3895      3892      4069      4074      3895      3896      3899      3898
      3895      3896      3899      3900      3895      3896      4073      4074
      3895      3896      4073      4078      3896      3899      3900      4077
      3896      3899      3900      3903      3896      4073      4074      4069
      3896      4073      4074      4075      3896      4073      4078      4077
      3896      4073      4078      4079      3897      3720      3723      3722
      3897      3720      3723      3724      3897      3898      3899      3896
      3897      3898      3899      3900      3897      3902      3903      3900
      3897      3902      3903      3904      3898      3893      3894      3889
      3898      3893      3894      3895      3898      3897      3902      3901
      3898      3897      3902      3903      3898      3899      3900      4077
      3898      3899      3900      3903      3899      3896      4073      4074
      3899      3896      4073      4078      3899      3900      4077      4078
      3899      3900      4077      4082      3899      3900      3903      3902
      3899      3900      3903      3904      3900      3903      3904      4081
      3900      3903      3904      3907      3900      4077      4078      4073
      3900      4077      4078      4079      3900      4077      4082      4081
      3900      4077      4082      4083      3901      3724      3727      3726
      3901      3724      3727      3728      3901      3902      3903      3900
      3901      3902      3903      3904      3901      3906      3907      3904
      3901      3906      3907      3908      3902      3897      3898      3893
      3902      3897      3898      3899      3902      3901      3906      3905
      3902      3901      3906      3907      3902      3903      3904      4081
      3902      3903      3904      3907      3903      3900      4077      4078
      3903      3900      4077      4082      3903      3904      4081      4082
      3903      3904      4081      4086      3903      3904      3907      3906
      3903      3904      3907      3908      3904      3907      3908      4085
      3904      3907      3908      3911      3904      4081      4082      4077
      3904      4081      4082      4083      3904      4081      4086      4085
      3904      4081      4086      4087      3905      3728      3731      3730
      3905      3728      3731      3732      3905      3906      3907      3904
      3905      3906      3907      3908      3905      3910      3911      3908
      3905      3910      3911      3912      3906      3901      3902      3897
      3906      3901      3902      3903      3906      3905      3910      3909
      3906      3905      3910      3911      3906      3907      3908      4085
      3906      3907      3908      3911      3907      3904      4081      4082
      3907      3904      4081      4086      3907      3908      4085      4086
      3907      3908      4085      4090      3907      3908      3911      3910
      3907      3908      3911      3912      3908      3911      3912      3915
      3908      3911      3912      4089      3908      4085      4086      4081
      3908      4085      4086      4087      3908      4085      4090      4089
      3908      4085      4090      4091      3909      3732      3735      3734
      3909      3732      3735      3736      3909      3910      3911      3908
      3909      3910      3911      3912      3909      3914      3915      3912
      3909      3914      3915      3916      3910      3905      3906      3901
      3910      3905      3906      3907      3910      3909      3914      3913
      3910      3909      3914      3915      3910      3911      3912      3915
      3910      3911      3912      4089      3911      3908      4085      4086
      3911      3908      4085      4090      3911      3912      3915      3914
      3911      3912      3915      3916      3911      3912      4089      4094
      3911      3912      4089      4090      3912      3915      3916      3919
      3912      3915      3916      4093      3912      4089      4094      4093
      3912      4089      4094      4095      3912      4089      4090      4085
      3912      4089      4090      4091      3913      3736      3739      3738
      3913      3736      3739      3740      3913      3914      3915      3912
      3913      3914      3915      3916      3913      3918      3919      3916
      3913      3918      3919      3920      3914      3909      3910      3905
      3914      3909      3910      3911      3914      3913      3918      3917
      3914      3913      3918      3919      3914      3915      3916      3919
      3914      3915      3916      4093      3915      3912      4089      4094
      3915      3912      4089      4090      3915      3916      3919      3918
      3915      3916      3919      3920      3915      3916      4093      4098
      3915      3916      4093      4094      3916      3919      3920      4097
      3916      3919      3920      3923      3916      4093      4098      4097
      3916      4093      4098      4099      3916      4093      4094      4089
      3916      4093      4094      4095      3917      3740      3743      3742
      3917      3740      3743      3744      3917      3918      3919      3916
      3917      3918      3919      3920      3917      3922      3923      3920
      3917      3922      3923      3924      3918      3913      3914      3909
      3918      3913      3914      3915      3918      3917      3922      3921
      3918      3917      3922      3923      3918      3919      3920      4097
      3918      3919      3920      3923      3919      3916      4093      4098
      3919      3916      4093      4094      3919      3920      4097      4102
      3919      3920      4097      4098      3919      3920      3923      3922
      3919      3920      3923      3924      3920      3923      3924      4101
      3920      3923      3924      3927      3920      4097      4102      4101
      3920      4097      4102      4103      3920      4097      4098      4093
      3920      4097      4098      4099      3921      3744      3747      3746
      3921      3744      3747      3748      3921      3922      3923      3920
      3921      3922      3923      3924      3921      3926      3927      3924
      3921      3926      3927      3928      3922      3917      3918      3913
      3922      3917      3918      3919      3922      3921      3926      3925
      3922      3921      3926      3927      3922      3923      3924      4101
      3922      3923      3924      3927      3923      3920      4097      4102
      3923      3920      4097      4098      3923      3924      4101      4102
      3923      3924      4101      4106      3923      3924      3927      3926
      3923      3924      3927      3928      3924      3927      3928      4105
      3924      3927      3928      3931      3924      4101      4102      4097
      3924      4101      4102      4103      3924      4101      4106      4105
      3924      4101      4106      4107      3925      3748      3751      3750
      3925      3748      3751      3752      3925      3926      3927      3924
      3925      3926      3927      3928      3925      3930      3931      3928
      3925      3930      3931      3932      3926      3921      3922      3917
      3926      3921      3922      3923      3926      3925      3930      3929
      3926      3925      3930      3931      3926      3927      3928      4105
      3926      3927      3928      3931      3927      3924      4101      4102
      3927      3924      4101      4106      3927      3928      4105      4106
      3927      3928      4105      4110      3927      3928      3931      3930
      3927      3928      3931      3932      3928      3931      3932      4109
      3928      3931      3932      3935      3928      4105      4106      4101
      3928      4105      4106      4107      3928      4105      4110      4109
      3928      4105      4110      4111      3929      3752      3755      3754
      3929      3752      3755      3756      3929      3930      3931      3928
      3929      3930      3931      3932      3929      3934      3935      3932
      3929      3934      3935      3936      3930      3925      3926      3921
      3930      3925      3926      3927      3930      3929      3934      3933
      3930      3929      3934      3935      3930      3931      3932      4109
      3930      3931      3932      3935      3931      3928      4105      4106
      3931      3928      4105      4110      3931      3932      4109      4114
      3931      3932      4109      4110      3931      3932      3935      3934
      3931      3932      3935      3936      3932      3935      3936      4113
      3932      3935      3936      3939      3932      4109      4114      4113
      3932      4109      4114      4115      3932      4109      4110      4105
      3932      4109      4110      4111      3933      3756      3759      3758
      3933      3756      3759      3760      3933      3934      3935      3932
      3933      3934      3935      3936      3933      3938      3939      3936
      3933      3938      3939      3940      3934      3929      3930      3925
      3934      3929      3930      3931      3934      3933      3938      3937
      3934      3933      3938      3939      3934      3935      3936      4113
      3934      3935      3936      3939      3935      3932      4109      4114
      3935      3932      4109      4110      3935      3936      4113      4118
      3935      3936      4113      4114      3935      3936      3939      3938
      3935      3936      3939      3940      3936      3939      3940      4117
      3936      3939      3940      3943      3936      4113      4118      4117
      3936      4113      4118      4119      3936      4113      4114      4109
      3936      4113      4114      4115      3937      3760      3763      3762
      3937      3760      3763      3764      3937      3938      3939      3936
      3937      3938      3939      3940      3937      3942      3943      3940
      3937      3942      3943      3944      3938      3933      3934      3929
      3938      3933      3934      3935      3938      3937      3942      3941
      3938      3937      3942      3943      3938      3939      3940      4117
      3938      3939      3940      3943      3939      3936      4113      4118
      3939      3936      4113      4114      3939      3940      4117      4122
      3939      3940      4117      4118      3939      3940      3943      3942
      3939      3940      3943      3944      3940      3943      3944      4121
      3940      3943      3944      3947      3940      4117      4122      4121
      3940      4117      4122      4123      3940      4117      4118      4113
      3940      4117      4118      4119      3941      3764      3767      3766
      3941      3764      3767      3768      3941      3942      3943      3940
      3941      3942      3943      3944      3941      3946      3947      3944
      3941      3946      3947      3948      3942      3937      3938      3933
      3942      3937      3938      3939      3942      3941      3946      3945
      3942      3941      3946      3947      3942      3943      3944      4121
      3942      3943      3944      3947      3943      3940      4117      4122
      3943      3940      4117      4118      3943      3944      4121      4122
      3943      3944      4121      4126      3943      3944      3947      3946
      3943      3944      3947      3948      3944      3947      3948      4125
      3944      3947      3948      3951      3944      4121      4122      4117
      3944      4121      4122      4123      3944      4121      4126      4125
      3944      4121      4126      4127      3945      3768      3771      3770
      3945      3768      3771      3772      3945      3946      3947      3944
      3945      3946      3947      3948      3945      3950      3951      3948
      3945      3950      3951      3952      3946      3941      3942      3937
      3946      3941      3942      3943      3946      3945      3950      3949
      3946      3945      3950      3951      3946      3947      3948      4125
      3946      3947      3948      3951      3947      3944      4121      4122
      3947      3944      4121      4126      3947      3948      4125      4126
      3947      3948      4125      4130      3947      3948      3951      3950
      3947      3948      3951      3952      3948      3951      3952      3955
      3948      3951      3952      4129      3948      4125      4126      4121
      3948      4125      4126      4127      3948      4125      4130      4129
      3948      4125      4130      4131      3949      3772      3775      3774
      3949      3772      3775      3776      3949      3950      3951      3948
      3949      3950      3951      3952      3949      3954      3955      3952
      3949      3954      3955      3956      3950      3945      3946      3941
      3950      3945      3946      3947      3950      3949      3954      3953
      3950      3949      3954      3955      3950      3951      3952      3955
      3950      3951      3952      4129      3951      3948      4125      4126
      3951      3948      4125      4130      3951      3952      3955      3954
      3951      3952      3955      3956      3951      3952      4129      4130
      3951      3952      4129      4134      3952      3955      3956      3959
      3952      3955      3956      4133      3952      4129      4130      4125
      3952      4129      4130      4131      3952      4129      4134      4133
      3952      4129      4134      4135      3953      3776      3779      3778
      3953      3776      3779      3780      3953      3954      3955      3952
      3953      3954      3955      3956      3953      3958      3959      3956
      3953      3958      3959      3960      3954      3949      3950      3945
      3954      3949      3950      3951      3954      3953      3958      3957
      3954      3953      3958      3959      3954      3955      3956      3959
      3954      3955      3956      4133      3955      3952      4129      4130
      3955      3952      4129      4134      3955      3956      3959      3958
      3955      3956      3959      3960      3955      3956      4133      4134
      3955      3956      4133      4138      3956      3959      3960      4137
      3956      4133      4134      4129      3956      4133      4134      4135
      3956      4133      4138      4137      3956      4133      4138      4139
      3957      3958      3959      3956      3957      3958      3959      3960
      3958      3953      3954      3949      3958      3953      3954      3955
      3958      3959      3960      4137      3959      3956      4133      4134
      3959      3956      4133      4138      3959      3960      4137      4138
      3960      4137      4138      4133      3960      4137      4138      4139
      3961      3784      3787      3786      3961      3784      3787      3788
      3961      3962      3963      3964      3961      3966      3967      3964
      3961      3966      3967      3968      3962      3961      3966      3965
      3962      3961      3966      3967      3962      3963      3964      4141
      3962      3963      3964      3967      3963      3964      4141      4142
      3963      3964      4141      4146      3963      3964      3967      3966
      3963      3964      3967      3968      3964      3967      3968      4145
      3964      3967      3968      3971      3964      4141      4142      4143
      3964      4141      4146      4145      3964      4141      4146      4147
      3965      3788      3791      3790      3965      3788      3791      3792
      3965      3966      3967      3964      3965      3966      3967      3968
      3965      3970      3971      3968      3965      3970      3971      3972
      3966      3961      3962      3963      3966      3965      3970      3969
      3966      3965      3970      3971      3966      3967      3968      4145
      3966      3967      3968      3971      3967      3964      4141      4142
      3967      3964      4141      4146      3967      3968      4145      4146
      3967      3968      4145      4150      3967      3968      3971      3970
      3967      3968      3971      3972      3968      3971      3972      3975
      3968      3971      3972      4149      3968      4145      4146      4141
      3968      4145      4146      4147      3968      4145      4150      4149
      3968      4145      4150      4151      3969      3792      3795      3794
      3969      3792      3795      3796      3969      3970      3971      3968
      3969      3970      3971      3972      3969      3974      3975      3972
      3969      3974      3975      3976      3970      3965      3966      3961
      3970      3965      3966      3967      3970      3969      3974      3973
      3970      3969      3974      3975      3970      3971      3972      3975
      3970      3971      3972      4149      3971      3968      4145      4146
      3971      3968      4145      4150      3971      3972      3975      3974
      3971      3972      3975      3976      3971      3972      4149      4150
      3971      3972      4149      4154      3972      3975      3976      3979
      3972      3975      3976      4153      3972      4149      4150      4145
      3972      4149      4150      4151      3972      4149      4154      4153
      3972      4149      4154      4155      3973      3796      3799      3798
      3973      3796      3799      3800      3973      3974      3975      3972
      3973      3974      3975      3976      3973      3978      3979      3976
      3973      3978      3979      3980      3974      3969      3970      3965
      3974      3969      3970      3971      3974      3973      3978      3977
      3974      3973      3978      3979      3974      3975      3976      3979
      3974      3975      3976      4153      3975      3972      4149      4150
      3975      3972      4149      4154      3975      3976      3979      3978
      3975      3976      3979      3980      3975      3976      4153      4154
      3975      3976      4153      4158      3976      3979      3980      4157
      3976      3979      3980      3983      3976      4153      4154      4149
      3976      4153      4154      4155      3976      4153      4158      4157
      3976      4153      4158      4159      3977      3800      3803      3802
      3977      3800      3803      3804      3977      3978      3979      3976
      3977      3978      3979      3980      3977      3982      3983      3980
      3977      3982      3983      3984      3978      3973      3974      3969
      3978      3973      3974      3975      3978      3977      3982      3981
      3978      3977      3982      3983      3978      3979      3980      4157
      3978      3979      3980      3983      3979      3976      4153      4154
      3979      3976      4153      4158      3979      3980      4157      4158
      3979      3980      4157      4162      3979      3980      3983      3982
      3979      3980      3983      3984      3980      3983      3984      4161
      3980      3983      3984      3987      3980      4157      4158      4153
      3980      4157      4158      4159      3980      4157      4162      4161
      3980      4157      4162      4163      3981      3804      3807      3806
      3981      3804      3807      3808      3981      3982      3983      3980
      3981      3982      3983      3984      3981      3986      3987      3984
      3981      3986      3987      3988      3982      3977      3978      3973
      3982      3977      3978      3979      3982      3981      3986      3985
      3982      3981      3986      3987      3982      3983      3984      4161
      3982      3983      3984      3987      3983      3980      4157      4158
      3983      3980      4157      4162      3983      3984      4161      4162
      3983      3984      4161      4166      3983      3984      3987      3986
      3983      3984      3987      3988      3984      3987      3988      4165
      3984      3987      3988      3991      3984      4161      4162      4157
      3984      4161      4162      4163      3984      4161      4166      4165
      3984      4161      4166      4167      3985      3808      3811      3810
      3985      3808      3811      3812      3985      3986      3987      3984
      3985      3986      3987      3988      3985      3990      3991      3988
      3985      3990      3991      3992      3986      3981      3982      3977
      3986      3981      3982      3983      3986      3985      3990      3989
      3986      3985      3990      3991      3986      3987      3988      4165
      3986      3987      3988      3991      3987      3984      4161      4162
      3987      3984      4161      4166      3987      3988      4165      4166
      3987      3988      4165      4170      3987      3988      3991      3990
      3987      3988      3991      3992      3988      3991      3992      3995
      3988      3991      3992      4169      3988      4165      4166      4161
      3988      4165      4166      4167      3988      4165      4170      4169
      3988      4165      4170      4171      3989      3812      3815      3814
      3989      3812      3815      3816      3989      3990      3991      3988
      3989      3990      3991      3992      3989      3994      3995      3992
      3989      3994      3995      3996      3990      3985      3986      3981
      3990      3985      3986      3987      3990      3989      3994      3993
      3990      3989      3994      3995      3990      3991      3992      3995
      3990      3991      3992      4169      3991      3988      4165      4166
      3991      3988      4165      4170      3991      3992      3995      3994
      3991      3992      3995      3996      3991      3992      4169      4174
      3991      3992      4169      4170      3992      3995      3996      3999
      3992      3995      3996      4173      3992      4169      4174      4173
      3992      4169      4174      4175      3992      4169      4170      4165
      3992      4169      4170      4171      3993      3816      3819      3818
      3993      3816      3819      3820      3993      3994      3995      3992
      3993      3994      3995      3996      3993      3998      3999      3996
      3993      3998      3999      4000      3994      3989      3990      3985
      3994      3989      3990      3991      3994      3993      3998      3997
      3994      3993      3998      3999      3994      3995      3996      3999
      3994      3995      3996      4173      3995      3992      4169      4174
      3995      3992      4169      4170      3995      3996      3999      3998
      3995      3996      3999      4000      3995      3996      4173      4178
      3995      3996      4173      4174      3996      3999      4000      4177
      3996      3999      4000      4003      3996      4173      4178      4177
      3996      4173      4178      4179      3996      4173      4174      4169
      3996      4173      4174      4175      3997      3820      3823      3822
      3997      3820      3823      3824      3997      3998      3999      3996
      3997      3998      3999      4000      3997      4002      4003      4000
      3997      4002      4003      4004      3998      3993      3994      3989
      3998      3993      3994      3995      3998      3997      4002      4001
      3998      3997      4002      4003      3998      3999      4000      4177
      3998      3999      4000      4003      3999      3996      4173      4178
      3999      3996      4173      4174      3999      4000      4177      4182
      3999      4000      4177      4178      3999      4000      4003      4002
      3999      4000      4003      4004      4000      4003      4004      4181
      4000      4003      4004      4007      4000      4177      4182      4181
      4000      4177      4182      4183      4000      4177      4178      4173
      4000      4177      4178      4179      4001      3824      3827      3826
      4001      3824      3827      3828      4001      4002      4003      4000
      4001      4002      4003      4004      4001      4006      4007      4004
      4001      4006      4007      4008      4002      3997      3998      3993
      4002      3997      3998      3999      4002      4001      4006      4005
      4002      4001      4006      4007      4002      4003      4004      4181
      4002      4003      4004      4007      4003      4000      4177      4182
      4003      4000      4177      4178      4003      4004      4181      4182
      4003      4004      4181      4186      4003      4004      4007      4006
      4003      4004      4007      4008      4004      4007      4008      4185
      4004      4007      4008      4011      4004      4181      4182      4177
      4004      4181      4182      4183      4004      4181      4186      4185
      4004      4181      4186      4187      4005      3828      3831      3830
      4005      3828      3831      3832      4005      4006      4007      4004
      4005      4006      4007      4008      4005      4010      4011      4008
      4005      4010      4011      4012      4006      4001      4002      3997
      4006      4001      4002      4003      4006      4005      4010      4009
      4006      4005      4010      4011      4006      4007      4008      4185
      4006      4007      4008      4011      4007      4004      4181      4182
      4007      4004      4181      4186      4007      4008      4185      4186
      4007      4008      4185      4190      4007      4008      4011      4010
      4007      4008      4011      4012      4008      4011      4012      4015
      4008      4011      4012      4189      4008      4185      4186      4181
      4008      4185      4186      4187      4008      4185      4190      4189
      4008      4185      4190      4191      4009      3832      3835      3834
      4009      3832      3835      3836      4009      4010      4011      4008
      4009      4010      4011      4012      4009      4014      4015      4012
      4009      4014      4015      4016      4010      4005      4006      4001
      4010      4005      4006      4007      4010      4009      4014      4013
      4010      4009      4014      4015      4010      4011      4012      4015
      4010      4011      4012      4189      4011      4008      4185      4186
      4011      4008      4185      4190      4011      4012      4015      4014
      4011      4012      4015      4016      4011      4012      4189      4194
      4011      4012      4189      4190      4012      4015      4016      4193
      4012      4015      4016      4019      4012      4189      4194      4193
      4012      4189      4194      4195      4012      4189      4190      4185
      4012      4189      4190      4191      4013      3836      3839      3838
      4013      3836      3839      3840      4013      4014      4015      4012
      4013      4014      4015      4016      4013      4018      4019      4016
      4013      4018      4019      4020      4014      4009      4010      4005
      4014      4009      4010      4011      4014      4013      4018      4017
      4014      4013      4018      4019      4014      4015      4016      4193
      4014      4015      4016      4019      4015      4012      4189      4194
      4015      4012      4189      4190      4015      4016      4193      4198
      4015      4016      4193      4194      4015      4016      4019      4018
      4015      4016      4019      4020      4016      4019      4020      4197
      4016      4019      4020      4023      4016      4193      4198      4197
      4016      4193      4198      4199      4016      4193      4194      4189
      4016      4193      4194      4195      4017      3840      3843      3842
      4017      3840      3843      3844      4017      4018      4019      4016
      4017      4018      4019      4020      4017      4022      4023      4020
      4017      4022      4023      4024      4018      4013      4014      4009
      4018      4013      4014      4015      4018      4017      4022      4021
      4018      4017      4022      4023      4018      4019      4020      4197
      4018      4019      4020      4023      4019      4016      4193      4198
      4019      4016      4193      4194      4019      4020      4197      4202
      4019      4020      4197      4198      4019      4020      4023      4022
      4019      4020      4023      4024      4020      4023      4024      4201
      4020      4023      4024      4027      4020      4197      4202      4201
      4020      4197      4202      4203      4020      4197      4198      4193
      4020      4197      4198      4199      4021      3844      3847      3846
      4021      3844      3847      3848      4021      4022      4023      4020
      4021      4022      4023      4024      4021      4026      4027      4024
      4021      4026      4027      4028      4022      4017      4018      4013
      4022      4017      4018      4019      4022      4021      4026      4025
      4022      4021      4026      4027      4022      4023      4024      4201
      4022      4023      4024      4027      4023      4020      4197      4202
      4023      4020      4197      4198      4023      4024      4201      4202
      4023      4024      4201      4206      4023      4024      4027      4026
      4023      4024      4027      4028      4024      4027      4028      4205
      4024      4027      4028      4031      4024      4201      4202      4197
      4024      4201      4202      4203      4024      4201      4206      4205
      4024      4201      4206      4207      4025      3848      3851      3850
      4025      3848      3851      3852      4025      4026      4027      4024
      4025      4026      4027      4028      4025      4030      4031      4028
      4025      4030      4031      4032      4026      4021      4022      4017
      4026      4021      4022      4023      4026      4025      4030      4029
      4026      4025      4030      4031      4026      4027      4028      4205
      4026      4027      4028      4031      4027      4024      4201      4202
      4027      4024      4201      4206      4027      4028      4205      4206
      4027      4028      4205      4210      4027      4028      4031      4030
      4027      4028      4031      4032      4028      4031      4032      4209
      4028      4031      4032      4035      4028      4205      4206      4201
      4028      4205      4206      4207      4028      4205      4210      4209
      4028      4205      4210      4211      4029      3852      3855      3854
      4029      3852      3855      3856      4029      4030      4031      4028
      4029      4030      4031      4032      4029      4034      4035      4032
      4029      4034      4035      4036      4030      4025      4026      4021
      4030      4025      4026      4027      4030      4029      4034      4033
      4030      4029      4034      4035      4030      4031      4032      4209
      4030      4031      4032      4035      4031      4028      4205      4206
      4031      4028      4205      4210      4031      4032      4209      4214
      4031      4032      4209      4210      4031      4032      4035      4034
      4031      4032      4035      4036      4032      4035      4036      4039
      4032      4035      4036      4213      4032      4209      4214      4213
      4032      4209      4214      4215      4032      4209      4210      4205
      4032      4209      4210      4211      4033      3856      3859      3858
      4033      3856      3859      3860      4033      4034      4035      4032
      4033      4034      4035      4036      4033      4038      4039      4036
      4033      4038      4039      4040      4034      4029      4030      4025
      4034      4029      4030      4031      4034      4033      4038      4037
      4034      4033      4038      4039      4034      4035      4036      4039
      4034      4035      4036      4213      4035      4032      4209      4214
      4035      4032      4209      4210      4035      4036      4039      4038
      4035      4036      4039      4040      4035      4036      4213      4214
      4035      4036      4213      4218      4036      4039      4040      4217
      4036      4039      4040      4043      4036      4213      4214      4209
      4036      4213      4214      4215      4036      4213      4218      4217
      4036      4213      4218      4219      4037      3860      3863      3862
      4037      3860      3863      3864      4037      4038      4039      4036
      4037      4038      4039      4040      4037      4042      4043      4040
      4037      4042      4043      4044      4038      4033      4034      4029
      4038      4033      4034      4035      4038      4037      4042      4041
      4038      4037      4042      4043      4038      4039      4040      4217
      4038      4039      4040      4043      4039      4036      4213      4214
      4039      4036      4213      4218      4039      4040      4217      4218
      4039      4040      4217      4222      4039      4040      4043      4042
      4039      4040      4043      4044      4040      4043      4044      4221
      4040      4043      4044      4047      4040      4217      4218      4213
      4040      4217      4218      4219      4040      4217      4222      4221
      4040      4217      4222      4223      4041      3864      3867      3866
      4041      3864      3867      3868      4041      4042      4043      4040
      4041      4042      4043      4044      4041      4046      4047      4044
      4041      4046      4047      4048      4042      4037      4038      4033
      4042      4037      4038      4039      4042      4041      4046      4045
      4042      4041      4046      4047      4042      4043      4044      4221
      4042      4043      4044      4047      4043      4040      4217      4218
      4043      4040      4217      4222      4043      4044      4221      4222
      4043      4044      4221      4226      4043      4044      4047      4046
      4043      4044      4047      4048      4044      4047      4048      4225
      4044      4047      4048      4051      4044      4221      4222      4217
      4044      4221      4222      4223      4044      4221      4226      4225
      4044      4221      4226      4227      4045      3868      3871      3870
      4045      3868      3871      3872      4045      4046      4047      4044
      4045      4046      4047      4048      4045      4050      4051      4048
      4045      4050      4051      4052      4046      4041      4042      4037
      4046      4041      4042      4043      4046      4045      4050      4049
      4046      4045      4050      4051      4046      4047      4048      4225
      4046      4047      4048      4051      4047      4044      4221      4222
      4047      4044      4221      4226      4047      4048      4225      4226
      4047      4048      4225      4230      4047      4048      4051      4050
      4047      4048      4051      4052      4048      4051      4052      4055
      4048      4051      4052      4229      4048      4225      4226      4221
      4048      4225      4226      4227      4048      4225      4230      4229
      4048      4225      4230      4231      4049      3872      3875      3874
      4049      3872      3875      3876      4049      4050      4051      4048
      4049      4050      4051      4052      4049      4054      4055      4052
      4049      4054      4055      4056      4050      4045      4046      4041
      4050      4045      4046      4047      4050      4049      4054      4053
      4050      4049      4054      4055      4050      4051      4052      4055
      4050      4051      4052      4229      4051      4048      4225      4226
      4051      4048      4225      4230      4051      4052      4055      4054
      4051      4052      4055      4056      4051      4052      4229      4230
      4051      4052      4229      4234      4052      4055      4056      4059
      4052      4055      4056      4233      4052      4229      4230      4225
      4052      4229      4230      4231      4052      4229      4234      4233
      4052      4229      4234      4235      4053      3876      3879      3878
      4053      3876      3879      3880      4053      4054      4055      4052
      4053      4054      4055      4056      4053      4058      4059      4056
      4053      4058      4059      4060      4054      4049      4050      4045
      4054      4049      4050      4051      4054      4053      4058      4057
      4054      4053      4058      4059      4054      4055      4056      4059
      4054      4055      4056      4233      4055      4052      4229      4230
      4055      4052      4229      4234      4055      4056      4059      4058
      4055      4056      4059      4060      4055      4056      4233      4234
      4055      4056      4233      4238      4056      4059      4060      4237
      4056      4059      4060      4063      4056      4233      4234      4229
      4056      4233      4234      4235      4056      4233      4238      4237
      4056      4233      4238      4239      4057      3880      3883      3882
      4057      3880      3883      3884      4057      4058      4059      4056
      4057      4058      4059      4060      4057      4062      4063      4060
      4057      4062      4063      4064      4058      4053      4054      4049
      4058      4053      4054      4055      4058      4057      4062      4061
      4058      4057      4062      4063      4058      4059      4060      4237
      4058      4059      4060      4063      4059      4056      4233      4234
      4059      4056      4233      4238      4059      4060      4237      4242
      4059      4060      4237      4238      4059      4060      4063      4062
      4059      4060      4063      4064      4060      4063      4064      4241
      4060      4063      4064      4067      4060      4237      4242      4241
      4060      4237      4242      4243      4060      4237      4238      4233
      4060      4237      4238      4239      4061      3884      3887      3886
      4061      3884      3887      3888      4061      4062      4063      4060
      4061      4062      4063      4064      4061      4066      4067      4064
      4061      4066      4067      4068      4062      4057      4058      4053
      4062      4057      4058      4059      4062      4061      4066      4065
      4062      4061      4066      4067      4062      4063      4064      4241
      4062      4063      4064      4067      4063      4060      4237      4242
      4063      4060      4237      4238      4063      4064      4241      4242
      4063      4064      4241      4246      4063      4064      4067      4066
      4063      4064      4067      4068      4064      4067      4068      4245
      4064      4067      4068      4071      4064      4241      4242      4237
      4064      4241      4242      4243      4064      4241      4246      4245
      4064      4241      4246      4247      4065      3888      3891      3890
      4065      3888      3891      3892      4065      4066      4067      4064
      4065      4066      4067      4068      4065      4070      4071      4068
      4065      4070      4071      4072      4066      4061      4062      4057
      4066      4061      4062      4063      4066      4065      4070      4069
      4066      4065      4070      4071      4066      4067      4068      4245
      4066      4067      4068      4071      4067      4064      4241      4242
      4067      4064      4241      4246      4067      4068      4245      4246
      4067      4068      4245      4250      4067      4068      4071      4070
      4067      4068      4071      4072      4068      4071      4072      4075
      4068      4071      4072      4249      4068      4245      4246      4241
      4068      4245      4246      4247      4068      4245      4250      4249
      4068      4245      4250      4251      4069      3892      3895      3894
      4069      3892      3895      3896      4069      4070      4071      4068
      4069      4070      4071      4072      4069      4074      4075      4072
      4069      4074      4075      4076      4070      4065      4066      4061
      4070      4065      4066      4067      4070      4069      4074      4073
      4070      4069      4074      4075      4070      4071      4072      4075
      4070      4071      4072      4249      4071      4068      4245      4246
      4071      4068      4245      4250      4071      4072      4075      4074
      4071      4072      4075      4076      4071      4072      4249      4254
      4071      4072      4249      4250      4072      4075      4076      4079
      4072      4075      4076      4253      4072      4249      4254      4253
      4072      4249      4254      4255      4072      4249      4250      4245
      4072      4249      4250      4251      4073      3896      3899      3898
      4073      3896      3899      3900      4073      4074      4075      4072
      4073      4074      4075      4076      4073      4078      4079      4076
      4073      4078      4079      4080      4074      4069      4070      4065
      4074      4069      4070      4071      4074      4073      4078      4077
      4074      4073      4078      4079      4074      4075      4076      4079
      4074      4075      4076      4253      4075      4072      4249      4254
      4075      4072      4249      4250      4075      4076      4079      4078
      4075      4076      4079      4080      4075      4076      4253      4258
      4075      4076      4253      4254      4076      4079      4080      4257
      4076      4079      4080      4083      4076      4253      4258      4257
      4076      4253      4258      4259      4076      4253      4254      4249
      4076      4253      4254      4255      4077      3900      3903      3902
      4077      3900      3903      3904      4077      4078      4079      4076
      4077      4078      4079      4080      4077      4082      4083      4080
      4077      4082      4083      4084      4078      4073      4074      4069
      4078      4073      4074      4075      4078      4077      4082      4081
      4078      4077      4082      4083      4078      4079      4080      4257
      4078      4079      4080      4083      4079      4076      4253      4258
      4079      4076      4253      4254      4079      4080      4257      4262
      4079      4080      4257      4258      4079      4080      4083      4082
      4079      4080      4083      4084      4080      4083      4084      4261
      4080      4083      4084      4087      4080      4257      4262      4261
      4080      4257      4262      4263      4080      4257      4258      4253
      4080      4257      4258      4259      4081      3904      3907      3906
      4081      3904      3907      3908      4081      4082      4083      4080
      4081      4082      4083      4084      4081      4086      4087      4084
      4081      4086      4087      4088      4082      4077      4078      4073
      4082      4077      4078      4079      4082      4081      4086      4085
      4082      4081      4086      4087      4082      4083      4084      4261
      4082      4083      4084      4087      4083      4080      4257      4262
      4083      4080      4257      4258      4083      4084      4261      4262
      4083      4084      4261      4266      4083      4084      4087      4086
      4083      4084      4087      4088      4084      4087      4088      4265
      4084      4087      4088      4091      4084      4261      4262      4257
      4084      4261      4262      4263      4084      4261      4266      4265
      4084      4261      4266      4267      4085      3908      3911      3910
      4085      3908      3911      3912      4085      4086      4087      4084
      4085      4086      4087      4088      4085      4090      4091      4088
      4085      4090      4091      4092      4086      4081      4082      4077
      4086      4081      4082      4083      4086      4085      4090      4089
      4086      4085      4090      4091      4086      4087      4088      4265
      4086      4087      4088      4091      4087      4084      4261      4262
      4087      4084      4261      4266      4087      4088      4265      4266
      4087      4088      4265      4270      4087      4088      4091      4090
      4087      4088      4091      4092      4088      4091      4092      4269
      4088      4091      4092      4095      4088      4265      4266      4261
      4088      4265      4266      4267      4088      4265      4270      4269
      4088      4265      4270      4271      4089      3912      3915      3914
      4089      3912      3915      3916      4089      4090      4091      4088
      4089      4090      4091      4092      4089      4094      4095      4092
      4089      4094      4095      4096      4090      4085      4086      4081
      4090      4085      4086      4087      4090      4089      4094      4093
      4090      4089      4094      4095      4090      4091      4092      4269
      4090      4091      4092      4095      4091      4088      4265      4266
      4091      4088      4265      4270      4091      4092      4269      4274
      4091      4092      4269      4270      4091      4092      4095      4094
      4091      4092      4095      4096      4092      4095      4096      4273
      4092      4095      4096      4099      4092      4269      4274      4273
      4092      4269      4274      4275      4092      4269      4270      4265
      4092      4269      4270      4271      4093      3916      3919      3918
      4093      3916      3919      3920      4093      4094      4095      4092
      4093      4094      4095      4096      4093      4098      4099      4096
      4093      4098      4099      4100      4094      4089      4090      4085
      4094      4089      4090      4091      4094      4093      4098      4097
      4094      4093      4098      4099      4094      4095      4096      4273
      4094      4095      4096      4099      4095      4092      4269      4274
      4095      4092      4269      4270      4095      4096      4273      4278
      4095      4096      4273      4274      4095      4096      4099      4098
      4095      4096      4099      4100      4096      4099      4100      4277
      4096      4099      4100      4103      4096      4273      4278      4277
      4096      4273      4278      4279      4096      4273      4274      4269
      4096      4273      4274      4275      4097      3920      3923      3922
      4097      3920      3923      3924      4097      4098      4099      4096
      4097      4098      4099      4100      4097      4102      4103      4100
      4097      4102      4103      4104      4098      4093      4094      4089
      4098      4093      4094      4095      4098      4097      4102      4101
      4098      4097      4102      4103      4098      4099      4100      4277
      4098      4099      4100      4103      4099      4096      4273      4278
      4099      4096      4273      4274      4099      4100      4277      4282
      4099      4100      4277      4278      4099      4100      4103      4102
      4099      4100      4103      4104      4100      4103      4104      4281
      4100      4103      4104      4107      4100      4277      4282      4281
      4100      4277      4282      4283      4100      4277      4278      4273
      4100      4277      4278      4279      4101      3924      3927      3926
      4101      3924      3927      3928      4101      4102      4103      4100
      4101      4102      4103      4104      4101      4106      4107      4104
      4101      4106      4107      4108      4102      4097      4098      4093
      4102      4097      4098      4099      4102      4101      4106      4105
      4102      4101      4106      4107      4102      4103      4104      4281
      4102      4103      4104      4107      4103      4100      4277      4282
      4103      4100      4277      4278      4103      4104      4281      4282
      4103      4104      4281      4286      4103      4104      4107      4106
      4103      4104      4107      4108      4104      4107      4108      4285
      4104      4107      4108      4111      4104      4281      4282      4277
      4104      4281      4282      4283      4104      4281      4286      4285
      4104      4281      4286      4287      4105      3928      3931      3930
      4105      3928      3931      3932      4105      4106      4107      4104
      4105      4106      4107      4108      4105      4110      4111      4108
      4105      4110      4111      4112      4106      4101      4102      4097
      4106      4101      4102      4103      4106      4105      4110      4109
      4106      4105      4110      4111      4106      4107      4108      4285
      4106      4107      4108      4111      4107      4104      4281      4282
      4107      4104      4281      4286      4107      4108      4285      4286
      4107      4108      4285      4290      4107      4108      4111      4110
      4107      4108      4111      4112      4108      4111      4112      4115
      4108      4111      4112      4289      4108      4285      4286      4281
      4108      4285      4286      4287      4108      4285      4290      4289
      4108      4285      4290      4291      4109      3932      3935      3934
      4109      3932      3935      3936      4109      4110      4111      4108
      4109      4110      4111      4112      4109      4114      4115      4112
      4109      4114      4115      4116      4110      4105      4106      4101
      4110      4105      4106      4107      4110      4109      4114      4113
      4110      4109      4114      4115      4110      4111      4112      4115
      4110      4111      4112      4289      4111      4108      4285      4286
      4111      4108      4285      4290      4111      4112      4115      4114
      4111      4112      4115      4116      4111      4112      4289      4290
      4111      4112      4289      4294      4112      4115      4116      4119
      4112      4115      4116      4293      4112      4289      4290      4285
      4112      4289      4290      4291      4112      4289      4294      4293
      4112      4289      4294      4295      4113      3936      3939      3938
      4113      3936      3939      3940      4113      4114      4115      4112
      4113      4114      4115      4116      4113      4118      4119      4116
      4113      4118      4119      4120      4114      4109      4110      4105
      4114      4109      4110      4111      4114      4113      4118      4117
      4114      4113      4118      4119      4114      4115      4116      4119
      4114      4115      4116      4293      4115      4112      4289      4290
      4115      4112      4289      4294      4115      4116      4119      4118
      4115      4116      4119      4120      4115      4116      4293      4294
      4115      4116      4293      4298      4116      4119      4120      4297
      4116      4119      4120      4123      4116      4293      4294      4289
      4116      4293      4294      4295      4116      4293      4298      4297
      4116      4293      4298      4299      4117      3940      3943      3942
      4117      3940      3943      3944      4117      4118      4119      4116
      4117      4118      4119      4120      4117      4122      4123      4120
      4117      4122      4123      4124      4118      4113      4114      4109
      4118      4113      4114      4115      4118      4117      4122      4121
      4118      4117      4122      4123      4118      4119      4120      4297
      4118      4119      4120      4123      4119      4116      4293      4294
      4119      4116      4293      4298      4119      4120      4297      4298
      4119      4120      4297      4302      4119      4120      4123      4122
      4119      4120      4123      4124      4120      4123      4124      4301
      4120      4123      4124      4127      4120      4297      4298      4293
      4120      4297      4298      4299      4120      4297      4302      4301
      4120      4297      4302      4303      4121      3944      3947      3946
      4121      3944      3947      3948      4121      4122      4123      4120
      4121      4122      4123      4124      4121      4126      4127      4124
      4121      4126      4127      4128      4122      4117      4118      4113
      4122      4117      4118      4119      4122      4121      4126      4125
      4122      4121      4126      4127      4122      4123      4124      4301
      4122      4123      4124      4127      4123      4120      4297      4298
      4123      4120      4297      4302      4123      4124      4301      4302
      4123      4124      4301      4306      4123      4124      4127      4126
      4123      4124      4127      4128      4124      4127      4128      4305
      4124      4127      4128      4131      4124      4301      4302      4297
      4124      4301      4302      4303      4124      4301      4306      4305
      4124      4301      4306      4307      4125      3948      3951      3950
      4125      3948      3951      3952      4125      4126      4127      4124
      4125      4126      4127      4128      4125      4130      4131      4128
      4125      4130      4131      4132      4126      4121      4122      4117
      4126      4121      4122      4123      4126      4125      4130      4129
      4126      4125      4130      4131      4126      4127      4128      4305
      4126      4127      4128      4131      4127      4124      4301      4302
      4127      4124      4301      4306      4127      4128      4305      4306
      4127      4128      4305      4310      4127      4128      4131      4130
      4127      4128      4131      4132      4128      4131      4132      4135
      4128      4131      4132      4309      4128      4305      4306      4301
      4128      4305      4306      4307      4128      4305      4310      4309
      4128      4305      4310      4311      4129      3952      3955      3954
      4129      3952      3955      3956      4129      4130      4131      4128
      4129      4130      4131      4132      4129      4134      4135      4132
      4129      4134      4135      4136      4130      4125      4126      4121
      4130      4125      4126      4127      4130      4129      4134      4133
      4130      4129      4134      4135      4130      4131      4132      4135
      4130      4131      4132      4309      4131      4128      4305      4306
      4131      4128      4305      4310      4131      4132      4135      4134
      4131      4132      4135      4136      4131      4132      4309      4314
      4131      4132      4309      4310      4132      4135      4136      4139
      4132      4135      4136      4313      4132      4309      4314      4313
      4132      4309      4314      4315      4132      4309      4310      4305
      4132      4309      4310      4311      4133      3956      3959      3958
      4133      3956      3959      3960      4133      4134      4135      4132
      4133      4134      4135      4136      4133      4138      4139      4136
      4133      4138      4139      4140      4134      4129      4130      4125
      4134      4129      4130      4131      4134      4133      4138      4137
      4134      4133      4138      4139      4134      4135      4136      4139
      4134      4135      4136      4313      4135      4132      4309      4314
      4135      4132      4309      4310      4135      4136      4139      4138
      4135      4136      4139      4140      4135      4136      4313      4318
      4135      4136      4313      4314      4136      4139      4140      4317
      4136      4313      4318      4317      4136      4313      4318      4319
      4136      4313      4314      4309      4136      4313      4314      4315
      4137      4138      4139      4136      4137      4138      4139      4140
      4138      4133      4134      4129      4138      4133      4134      4135
      4138      4139      4140      4317      4139      4136      4313      4318
      4139      4136      4313      4314      4139      4140      4317      4318
      4140      4317      4318      4313      4140      4317      4318      4319
      4141      3964      3967      3966      4141      3964      3967      3968
      4141      4142      4143      4144      4141      4146      4147      4144
      4141      4146      4147      4148      4142      4141      4146      4145
      4142      4141      4146      4147      4142      4143      4144      4321
      4142      4143      4144      4147      4143      4144      4321      4322
      4143      4144      4321      4326      4143      4144      4147      4146
      4143      4144      4147      4148      4144      4147      4148      4325
      4144      4147      4148      4151      4144      4321      4322      4323
      4144      4321      4326      4325      4144      4321      4326      4327
      4145      3968      3971      3970      4145      3968      3971      3972
      4145      4146      4147      4144      4145      4146      4147      4148
      4145      4150      4151      4148      4145      4150      4151      4152
      4146      4141      4142      4143      4146      4145      4150      4149
      4146      4145      4150      4151      4146      4147      4148      4325
      4146      4147      4148      4151      4147      4144      4321      4322
      4147      4144      4321      4326      4147      4148      4325      4326
      4147      4148      4325      4330      4147      4148      4151      4150
      4147      4148      4151      4152      4148      4151      4152      4155
      4148      4151      4152      4329      4148      4325      4326      4321
      4148      4325      4326      4327      4148      4325      4330      4329
      4148      4325      4330      4331      4149      3972      3975      3974
      4149      3972      3975      3976      4149      4150      4151      4148
      4149      4150      4151      4152      4149      4154      4155      4152
      4149      4154      4155      4156      4150      4145      4146      4141
      4150      4145      4146      4147      4150      4149      4154      4153
      4150      4149      4154      4155      4150      4151      4152      4155
      4150      4151      4152      4329      4151      4148      4325      4326
      4151      4148      4325      4330      4151      4152      4155      4154
      4151      4152      4155      4156      4151      4152      4329      4334
      4151      4152      4329      4330      4152      4155      4156      4159
      4152      4155      4156      4333      4152      4329      4334      4333
      4152      4329      4334      4335      4152      4329      4330      4325
      4152      4329      4330      4331      4153      3976      3979      3978
      4153      3976      3979      3980      4153      4154      4155      4152
      4153      4154      4155      4156      4153      4158      4159      4156
      4153      4158      4159      4160      4154      4149      4150      4145
      4154      4149      4150      4151      4154      4153      4158      4157
      4154      4153      4158      4159      4154      4155      4156      4159
      4154      4155      4156      4333      4155      4152      4329      4334
      4155      4152      4329      4330      4155      4156      4159      4158
      4155      4156      4159      4160      4155      4156      4333      4338
      4155      4156      4333      4334      4156      4159      4160      4337
      4156      4159      4160      4163      4156      4333      4338      4337
      4156      4333      4338      4339      4156      4333      4334      4329
      4156      4333      4334      4335      4157      3980      3983      3982
      4157      3980      3983      3984      4157      4158      4159      4156
      4157      4158      4159      4160      4157      4162      4163      4160
      4157      4162      4163      4164      4158      4153      4154      4149
      4158      4153      4154      4155      4158      4157      4162      4161
      4158      4157      4162      4163      4158      4159      4160      4337
      4158      4159      4160      4163      4159      4156      4333      4338
      4159      4156      4333      4334      4159      4160      4337      4342
      4159      4160      4337      4338      4159      4160      4163      4162
      4159      4160      4163      4164      4160      4163      4164      4341
      4160      4163      4164      4167      4160      4337      4342      4341
      4160      4337      4342      4343      4160      4337      4338      4333
      4160      4337      4338      4339      4161      3984      3987      3986
      4161      3984      3987      3988      4161      4162      4163      4160
      4161      4162      4163      4164      4161      4166      4167      4164
      4161      4166      4167      4168      4162      4157      4158      4153
      4162      4157      4158      4159      4162      4161      4166      4165
      4162      4161      4166      4167      4162      4163      4164      4341
      4162      4163      4164      4167      4163      4160      4337      4342
      4163      4160      4337      4338      4163      4164      4341      4342
      4163      4164      4341      4346      4163      4164      4167      4166
      4163      4164      4167      4168      4164      4167      4168      4345
      4164      4167      4168      4171      4164      4341      4342      4337
      4164      4341      4342      4343      4164      4341      4346      4345
      4164      4341      4346      4347      4165      3988      3991      3990
      4165      3988      3991      3992      4165      4166      4167      4164
      4165      4166      4167      4168      4165      4170      4171      4168
      4165      4170      4171      4172      4166      4161      4162      4157
      4166      4161      4162      4163      4166      4165      4170      4169
      4166      4165      4170      4171      4166      4167      4168      4345
      4166      4167      4168      4171      4167      4164      4341      4342
      4167      4164      4341      4346      4167      4168      4345      4346
      4167      4168      4345      4350      4167      4168      4171      4170
      4167      4168      4171      4172      4168      4171      4172      4349
      4168      4171      4172      4175      4168      4345      4346      4341
      4168      4345      4346      4347      4168      4345      4350      4349
      4168      4345      4350      4351      4169      3992      3995      3994
      4169      3992      3995      3996      4169      4170      4171      4168
      4169      4170      4171      4172      4169      4174      4175      4172
      4169      4174      4175      4176      4170      4165      4166      4161
      4170      4165      4166      4167      4170      4169      4174      4173
      4170      4169      4174      4175      4170      4171      4172      4349
      4170      4171      4172      4175      4171      4168      4345      4346
      4171      4168      4345      4350      4171      4172      4349      4354
      4171      4172      4349      4350      4171      4172      4175      4174
      4171      4172      4175      4176      4172      4175      4176      4353
      4172      4175      4176      4179      4172      4349      4354      4353
      4172      4349      4354      4355      4172      4349      4350      4345
      4172      4349      4350      4351      4173      3996      3999      3998
      4173      3996      3999      4000      4173      4174      4175      4172
      4173      4174      4175      4176      4173      4178      4179      4176
      4173      4178      4179      4180      4174      4169      4170      4165
      4174      4169      4170      4171      4174      4173      4178      4177
      4174      4173      4178      4179      4174      4175      4176      4353
      4174      4175      4176      4179      4175      4172      4349      4354
      4175      4172      4349      4350      4175      4176      4353      4358
      4175      4176      4353      4354      4175      4176      4179      4178
      4175      4176      4179      4180      4176      4179      4180      4357
      4176      4179      4180      4183      4176      4353      4358      4357
      4176      4353      4358      4359      4176      4353      4354      4349
      4176      4353      4354      4355      4177      4000      4003      4002
      4177      4000      4003      4004      4177      4178      4179      4176
      4177      4178      4179      4180      4177      4182      4183      4180
      4177      4182      4183      4184      4178      4173      4174      4169
      4178      4173      4174      4175      4178      4177      4182      4181
      4178      4177      4182      4183      4178      4179      4180      4357
      4178      4179      4180      4183      4179      4176      4353      4358
      4179      4176      4353      4354      4179      4180      4357      4362
      4179      4180      4357      4358      4179      4180      4183      4182
      4179      4180      4183      4184      4180      4183      4184      4361
      4180      4183      4184      4187      4180      4357      4362      4361
      4180      4357      4362      4363      4180      4357      4358      4353
      4180      4357      4358      4359      4181      4004      4007      4006
      4181      4004      4007      4008      4181      4182      4183      4180
      4181      4182      4183      4184      4181      4186      4187      4184
      4181      4186      4187      4188      4182      4177      4178      4173
      4182      4177      4178      4179      4182      4181      4186      4185
      4182      4181      4186      4187      4182      4183      4184      4361
      4182      4183      4184      4187      4183      4180      4357      4362
      4183      4180      4357      4358      4183      4184      4361      4362
      4183      4184      4361      4366      4183      4184      4187      4186
      4183      4184      4187      4188      4184      4187      4188      4365
      4184      4187      4188      4191      4184      4361      4362      4357
      4184      4361      4362      4363      4184      4361      4366      4365
      4184      4361      4366      4367      4185      4008      4011      4010
      4185      4008      4011      4012      4185      4186      4187      4184
      4185      4186      4187      4188      4185      4190      4191      4188
      4185      4190      4191      4192      4186      4181      4182      4177
      4186      4181      4182      4183      4186      4185      4190      4189
      4186      4185      4190      4191      4186      4187      4188      4365
      4186      4187      4188      4191      4187      4184      4361      4362
      4187      4184      4361      4366      4187      4188      4365      4366
      4187      4188      4365      4370      4187      4188      4191      4190
      4187      4188      4191      4192      4188      4191      4192      4195
      4188      4191      4192      4369      4188      4365      4366      4361
      4188      4365      4366      4367      4188      4365      4370      4369
      4188      4365      4370      4371      4189      4012      4015      4014
      4189      4012      4015      4016      4189      4190      4191      4188
      4189      4190      4191      4192      4189      4194      4195      4192
      4189      4194      4195      4196      4190      4185      4186      4181
      4190      4185      4186      4187      4190      4189      4194      4193
      4190      4189      4194      4195      4190      4191      4192      4195
      4190      4191      4192      4369      4191      4188      4365      4366
      4191      4188      4365      4370      4191      4192      4195      4194
      4191      4192      4195      4196      4191      4192      4369      4374
      4191      4192      4369      4370      4192      4195      4196      4199
      4192      4195      4196      4373      4192      4369      4374      4373
      4192      4369      4374      4375      4192      4369      4370      4365
      4192      4369      4370      4371      4193      4016      4019      4018
      4193      4016      4019      4020      4193      4194      4195      4192
      4193      4194      4195      4196      4193      4198      4199      4196
      4193      4198      4199      4200      4194      4189      4190      4185
      4194      4189      4190      4191      4194      4193      4198      4197
      4194      4193      4198      4199      4194      4195      4196      4199
      4194      4195      4196      4373      4195      4192      4369      4374
      4195      4192      4369      4370      4195      4196      4199      4198
      4195      4196      4199      4200      4195      4196      4373      4378
      4195      4196      4373      4374      4196      4199      4200      4377
      4196      4199      4200      4203      4196      4373      4378      4377
      4196      4373      4378      4379      4196      4373      4374      4369
      4196      4373      4374      4375      4197      4020      4023      4022
      4197      4020      4023      4024      4197      4198      4199      4196
      4197      4198      4199      4200      4197      4202      4203      4200
      4197      4202      4203      4204      4198      4193      4194      4189
      4198      4193      4194      4195      4198      4197      4202      4201
      4198      4197      4202      4203      4198      4199      4200      4377
      4198      4199      4200      4203      4199      4196      4373      4378
      4199      4196      4373      4374      4199      4200      4377      4382
      4199      4200      4377      4378      4199      4200      4203      4202
      4199      4200      4203      4204      4200      4203      4204      4381
      4200      4203      4204      4207      4200      4377      4382      4381
      4200      4377      4382      4383      4200      4377      4378      4373
      4200      4377      4378      4379      4201      4024      4027      4026
      4201      4024      4027      4028      4201      4202      4203      4200
      4201      4202      4203      4204      4201      4206      4207      4204
      4201      4206      4207      4208      4202      4197      4198      4193
      4202      4197      4198      4199      4202      4201      4206      4205
      4202      4201      4206      4207      4202      4203      4204      4381
      4202      4203      4204      4207      4203      4200      4377      4382
      4203      4200      4377      4378      4203      4204      4381      4382
      4203      4204      4381      4386      4203      4204      4207      4206
      4203      4204      4207      4208      4204      4207      4208      4385
      4204      4207      4208      4211      4204      4381      4382      4377
      4204      4381      4382      4383      4204      4381      4386      4385
      4204      4381      4386      4387      4205      4028      4031      4030
      4205      4028      4031      4032      4205      4206      4207      4204
      4205      4206      4207      4208      4205      4210      4211      4208
      4205      4210      4211      4212      4206      4201      4202      4197
      4206      4201      4202      4203      4206      4205      4210      4209
      4206      4205      4210      4211      4206      4207      4208      4385
      4206      4207      4208      4211      4207      4204      4381      4382
      4207      4204      4381      4386      4207      4208      4385      4386
      4207      4208      4385      4390      4207      4208      4211      4210
      4207      4208      4211      4212      4208      4211      4212      4215
      4208      4211      4212      4389      4208      4385      4386      4381
      4208      4385      4386      4387      4208      4385      4390      4389
      4208      4385      4390      4391      4209      4032      4035      4034
      4209      4032      4035      4036      4209      4210      4211      4208
      4209      4210      4211      4212      4209      4214      4215      4212
      4209      4214      4215      4216      4210      4205      4206      4201
      4210      4205      4206      4207      4210      4209      4214      4213
      4210      4209      4214      4215      4210      4211      4212      4215
      4210      4211      4212      4389      4211      4208      4385      4386
      4211      4208      4385      4390      4211      4212      4215      4214
      4211      4212      4215      4216      4211      4212      4389      4394
      4211      4212      4389      4390      4212      4215      4216      4219
      4212      4215      4216      4393      4212      4389      4394      4393
      4212      4389      4394      4395      4212      4389      4390      4385
      4212      4389      4390      4391      4213      4036      4039      4038
      4213      4036      4039      4040      4213      4214      4215      4212
      4213      4214      4215      4216      4213      4218      4219      4216
      4213      4218      4219      4220      4214      4209      4210      4205
      4214      4209      4210      4211      4214      4213      4218      4217
      4214      4213      4218      4219      4214      4215      4216      4219
      4214      4215      4216      4393      4215      4212      4389      4394
      4215      4212      4389      4390      4215      4216      4219      4218
      4215      4216      4219      4220      4215      4216      4393      4398
      4215      4216      4393      4394      4216      4219      4220      4397
      4216      4219      4220      4223      4216      4393      4398      4397
      4216      4393      4398      4399      4216      4393      4394      4389
      4216      4393      4394      4395      4217      4040      4043      4042
      4217      4040      4043      4044      4217      4218      4219      4216
      4217      4218      4219      4220      4217      4222      4223      4220
      4217      4222      4223      4224      4218      4213      4214      4209
      4218      4213      4214      4215      4218      4217      4222      4221
      4218      4217      4222      4223      4218      4219      4220      4397
      4218      4219      4220      4223      4219      4216      4393      4398
      4219      4216      4393      4394      4219      4220      4397      4402
      4219      4220      4397      4398      4219      4220      4223      4222
      4219      4220      4223      4224      4220      4223      4224      4401
      4220      4223      4224      4227      4220      4397      4402      4401
      4220      4397      4402      4403      4220      4397      4398      4393
      4220      4397      4398      4399      4221      4044      4047      4046
      4221      4044      4047      4048      4221      4222      4223      4220
      4221      4222      4223      4224      4221      4226      4227      4224
      4221      4226      4227      4228      4222      4217      4218      4213
      4222      4217      4218      4219      4222      4221      4226      4225
      4222      4221      4226      4227      4222      4223      4224      4401
      4222      4223      4224      4227      4223      4220      4397      4402
      4223      4220      4397      4398      4223      4224      4401      4402
      4223      4224      4401      4406      4223      4224      4227      4226
      4223      4224      4227      4228      4224      4227      4228      4405
      4224      4227      4228      4231      4224      4401      4402      4397
      4224      4401      4402      4403      4224      4401      4406      4405
      4224      4401      4406      4407      4225      4048      4051      4050
      4225      4048      4051      4052      4225      4226      4227      4224
      4225      4226      4227      4228      4225      4230      4231      4228
      4225      4230      4231      4232      4226      4221      4222      4217
      4226      4221      4222      4223      4226      4225      4230      4229
      4226      4225      4230      4231      4226      4227      4228      4405
      4226      4227      4228      4231      4227      4224      4401      4402
      4227      4224      4401      4406      4227      4228      4405      4406
      4227      4228      4405      4410      4227      4228      4231      4230
      4227      4228      4231      4232      4228      4231      4232      4235
      4228      4231      4232      4409      4228      4405      4406      4401
      4228      4405      4406      4407      4228      4405      4410      4409
      4228      4405      4410      4411      4229      4052      4055      4054
      4229      4052      4055      4056      4229      4230      4231      4228
      4229      4230      4231      4232      4229      4234      4235      4232
      4229      4234      4235      4236      4230      4225      4226      4221
      4230      4225      4226      4227      4230      4229      4234      4233
      4230      4229      4234      4235      4230      4231      4232      4235
      4230      4231      4232      4409      4231      4228      4405      4406
      4231      4228      4405      4410      4231      4232      4235      4234
      4231      4232      4235      4236      4231      4232      4409      4414
      4231      4232      4409      4410      4232      4235      4236      4413
      4232      4235      4236      4239      4232      4409      4414      4413
      4232      4409      4414      4415      4232      4409      4410      4405
      4232      4409      4410      4411      4233      4056      4059      4058
      4233      4056      4059      4060      4233      4234      4235      4232
      4233      4234      4235      4236      4233      4238      4239      4236
      4233      4238      4239      4240      4234      4229      4230      4225
      4234      4229      4230      4231      4234      4233      4238      4237
      4234      4233      4238      4239      4234      4235      4236      4413
      4234      4235      4236      4239      4235      4232      4409      4414
      4235      4232      4409      4410      4235      4236      4413      4418
      4235      4236      4413      4414      4235      4236      4239      4238
      4235      4236      4239      4240      4236      4239      4240      4417
      4236      4239      4240      4243      4236      4413      4418      4417
      4236      4413      4418      4419      4236      4413      4414      4409
      4236      4413      4414      4415      4237      4060      4063      4062
      4237      4060      4063      4064      4237      4238      4239      4236
      4237      4238      4239      4240      4237      4242      4243      4240
      4237      4242      4243      4244      4238      4233      4234      4229
      4238      4233      4234      4235      4238      4237      4242      4241
      4238      4237      4242      4243      4238      4239      4240      4417
      4238      4239      4240      4243      4239      4236      4413      4418
      4239      4236      4413      4414      4239      4240      4417      4422
      4239      4240      4417      4418      4239      4240      4243      4242
      4239      4240      4243      4244      4240      4243      4244      4421
      4240      4243      4244      4247      4240      4417      4422      4421
      4240      4417      4422      4423      4240      4417      4418      4413
      4240      4417      4418      4419      4241      4064      4067      4066
      4241      4064      4067      4068      4241      4242      4243      4240
      4241      4242      4243      4244      4241      4246      4247      4244
      4241      4246      4247      4248      4242      4237      4238      4233
      4242      4237      4238      4239      4242      4241      4246      4245
      4242      4241      4246      4247      4242      4243      4244      4421
      4242      4243      4244      4247      4243      4240      4417      4422
      4243      4240      4417      4418      4243      4244      4421      4422
      4243      4244      4421      4426      4243      4244      4247      4246
      4243      4244      4247      4248      4244      4247      4248      4425
      4244      4247      4248      4251      4244      4421      4422      4417
      4244      4421      4422      4423      4244      4421      4426      4425
      4244      4421      4426      4427      4245      4068      4071      4070
      4245      4068      4071      4072      4245      4246      4247      4244
      4245      4246      4247      4248      4245      4250      4251      4248
      4245      4250      4251      4252      4246      4241      4242      4237
      4246      4241      4242      4243      4246      4245      4250      4249
      4246      4245      4250      4251      4246      4247      4248      4425
      4246      4247      4248      4251      4247      4244      4421      4422
      4247      4244      4421      4426      4247      4248      4425      4426
      4247      4248      4425      4430      4247      4248      4251      4250
      4247      4248      4251      4252      4248      4251      4252      4429
      4248      4251      4252      4255      4248      4425      4426      4421
      4248      4425      4426      4427      4248      4425      4430      4429
      4248      4425      4430      4431      4249      4072      4075      4074
      4249      4072      4075      4076      4249      4250      4251      4248
      4249      4250      4251      4252      4249      4254      4255      4252
      4249      4254      4255      4256      4250      4245      4246      4241
      4250      4245      4246      4247      4250      4249      4254      4253
      4250      4249      4254      4255      4250      4251      4252      4429
      4250      4251      4252      4255      4251      4248      4425      4426
      4251      4248      4425      4430      4251      4252      4429      4434
      4251      4252      4429      4430      4251      4252      4255      4254
      4251      4252      4255      4256      4252      4255      4256      4259
      4252      4255      4256      4433      4252      4429      4434      4433
      4252      4429      4434      4435      4252      4429      4430      4425
      4252      4429      4430      4431      4253      4076      4079      4078
      4253      4076      4079      4080      4253      4254      4255      4252
      4253      4254      4255      4256      4253      4258      4259      4256
      4253      4258      4259      4260      4254      4249      4250      4245
      4254      4249      4250      4251      4254      4253      4258      4257
      4254      4253      4258      4259      4254      4255      4256      4259
      4254      4255      4256      4433      4255      4252      4429      4434
      4255      4252      4429      4430      4255      4256      4259      4258
      4255      4256      4259      4260      4255      4256      4433      4438
      4255      4256      4433      4434      4256      4259      4260      4437
      4256      4259      4260      4263      4256      4433      4438      4437
      4256      4433      4438      4439      4256      4433      4434      4429
      4256      4433      4434      4435      4257      4080      4083      4082
      4257      4080      4083      4084      4257      4258      4259      4256
      4257      4258      4259      4260      4257      4262      4263      4260
      4257      4262      4263      4264      4258      4253      4254      4249
      4258      4253      4254      4255      4258      4257      4262      4261
      4258      4257      4262      4263      4258      4259      4260      4437
      4258      4259      4260      4263      4259      4256      4433      4438
      4259      4256      4433      4434      4259      4260      4437      4442
      4259      4260      4437      4438      4259      4260      4263      4262
      4259      4260      4263      4264      4260      4263      4264      4441
      4260      4263      4264      4267      4260      4437      4442      4441
      4260      4437      4442      4443      4260      4437      4438      4433
      4260      4437      4438      4439      4261      4084      4087      4086
      4261      4084      4087      4088      4261      4262      4263      4260
      4261      4262      4263      4264      4261      4266      4267      4264
      4261      4266      4267      4268      4262      4257      4258      4253
      4262      4257      4258      4259      4262      4261      4266      4265
      4262      4261      4266      4267      4262      4263      4264      4441
      4262      4263      4264      4267      4263      4260      4437      4442
      4263      4260      4437      4438      4263      4264      4441      4442
      4263      4264      4441      4446      4263      4264      4267      4266
      4263      4264      4267      4268      4264      4267      4268      4445
      4264      4267      4268      4271      4264      4441      4442      4437
      4264      4441      4442      4443      4264      4441      4446      4445
      4264      4441      4446      4447      4265      4088      4091      4090
      4265      4088      4091      4092      4265      4266      4267      4264
      4265      4266      4267      4268      4265      4270      4271      4268
      4265      4270      4271      4272      4266      4261      4262      4257
      4266      4261      4262      4263      4266      4265      4270      4269
      4266      4265      4270      4271      4266      4267      4268      4445
      4266      4267      4268      4271      4267      4264      4441      4442
      4267      4264      4441      4446      4267      4268      4445      4446
      4267      4268      4445      4450      4267      4268      4271      4270
      4267      4268      4271      4272      4268      4271      4272      4275
      4268      4271      4272      4449      4268      4445      4446      4441
      4268      4445      4446      4447      4268      4445      4450      4449
      4268      4445      4450      4451      4269      4092      4095      4094
      4269      4092      4095      4096      4269      4270      4271      4268
      4269      4270      4271      4272      4269      4274      4275      4272
      4269      4274      4275      4276      4270      4265      4266      4261
      4270      4265      4266      4267      4270      4269      4274      4273
      4270      4269      4274      4275      4270      4271      4272      4275
      4270      4271      4272      4449      4271      4268      4445      4446
      4271      4268      4445      4450      4271      4272      4275      4274
      4271      4272      4275      4276      4271      4272      4449      4454
      4271      4272      4449      4450      4272      4275      4276      4279
      4272      4275      4276      4453      4272      4449      4454      4453
      4272      4449      4454      4455      4272      4449      4450      4445
      4272      4449      4450      4451      4273      4096      4099      4098
      4273      4096      4099      4100      4273      4274      4275      4272
      4273      4274      4275      4276      4273      4278      4279      4276
      4273      4278      4279      4280      4274      4269      4270      4265
      4274      4269      4270      4271      4274      4273      4278      4277
      4274      4273      4278      4279      4274      4275      4276      4279
      4274      4275      4276      4453      4275      4272      4449      4454
      4275      4272      4449      4450      4275      4276      4279      4278
      4275      4276      4279      4280      4275      4276      4453      4454
      4275      4276      4453      4458      4276      4279      4280      4457
      4276      4279      4280      4283      4276      4453      4454      4449
      4276      4453      4454      4455      4276      4453      4458      4457
      4276      4453      4458      4459      4277      4100      4103      4102
      4277      4100      4103      4104      4277      4278      4279      4276
      4277      4278      4279      4280      4277      4282      4283      4280
      4277      4282      4283      4284      4278      4273      4274      4269
      4278      4273      4274      4275      4278      4277      4282      4281
      4278      4277      4282      4283      4278      4279      4280      4457
      4278      4279      4280      4283      4279      4276      4453      4454
      4279      4276      4453      4458      4279      4280      4457      4462
      4279      4280      4457      4458      4279      4280      4283      4282
      4279      4280      4283      4284      4280      4283      4284      4461
      4280      4283      4284      4287      4280      4457      4462      4461
      4280      4457      4462      4463      4280      4457      4458      4453
      4280      4457      4458      4459      4281      4104      4107      4106
      4281      4104      4107      4108      4281      4282      4283      4280
      4281      4282      4283      4284      4281      4286      4287      4284
      4281      4286      4287      4288      4282      4277      4278      4273
      4282      4277      4278      4279      4282      4281      4286      4285
      4282      4281      4286      4287      4282      4283      4284      4461
      4282      4283      4284      4287      4283      4280      4457      4462
      4283      4280      4457      4458      4283      4284      4461      4462
      4283      4284      4461      4466      4283      4284      4287      4286
      4283      4284      4287      4288      4284      4287      4288      4465
      4284      4287      4288      4291      4284      4461      4462      4457
      4284      4461      4462      4463      4284      4461      4466      4465
      4284      4461      4466      4467      4285      4108      4111      4110
      4285      4108      4111      4112      4285      4286      4287      4284
      4285      4286      4287      4288      4285      4290      4291      4288
      4285      4290      4291      4292      4286      4281      4282      4277
      4286      4281      4282      4283      4286      4285      4290      4289
      4286      4285      4290      4291      4286      4287      4288      4465
      4286      4287      4288      4291      4287      4284      4461      4462
      4287      4284      4461      4466      4287      4288      4465      4466
      4287      4288      4465      4470      4287      4288      4291      4290
      4287      4288      4291      4292      4288      4291      4292      4295
      4288      4291      4292      4469      4288      4465      4466      4461
      4288      4465      4466      4467      4288      4465      4470      4469
      4288      4465      4470      4471      4289      4112      4115      4114
      4289      4112      4115      4116      4289      4290      4291      4288
      4289      4290      4291      4292      4289      4294      4295      4292
      4289      4294      4295      4296      4290      4285      4286      4281
      4290      4285      4286      4287      4290      4289      4294      4293
      4290      4289      4294      4295      4290      4291      4292      4295
      4290      4291      4292      4469      4291      4288      4465      4466
      4291      4288      4465      4470      4291      4292      4295      4294
      4291      4292      4295      4296      4291      4292      4469      4474
      4291      4292      4469      4470      4292      4295      4296      4299
      4292      4295      4296      4473      4292      4469      4474      4473
      4292      4469      4474      4475      4292      4469      4470      4465
      4292      4469      4470      4471      4293      4116      4119      4118
      4293      4116      4119      4120      4293      4294      4295      4292
      4293      4294      4295      4296      4293      4298      4299      4296
      4293      4298      4299      4300      4294      4289      4290      4285
      4294      4289      4290      4291      4294      4293      4298      4297
      4294      4293      4298      4299      4294      4295      4296      4299
      4294      4295      4296      4473      4295      4292      4469      4474
      4295      4292      4469      4470      4295      4296      4299      4298
      4295      4296      4299      4300      4295      4296      4473      4478
      4295      4296      4473      4474      4296      4299      4300      4477
      4296      4299      4300      4303      4296      4473      4478      4477
      4296      4473      4478      4479      4296      4473      4474      4469
      4296      4473      4474      4475      4297      4120      4123      4122
      4297      4120      4123      4124      4297      4298      4299      4296
      4297      4298      4299      4300      4297      4302      4303      4300
      4297      4302      4303      4304      4298      4293      4294      4289
      4298      4293      4294      4295      4298      4297      4302      4301
      4298      4297      4302      4303      4298      4299      4300      4477
      4298      4299      4300      4303      4299      4296      4473      4478
      4299      4296      4473      4474      4299      4300      4477      4482
      4299      4300      4477      4478      4299      4300      4303      4302
      4299      4300      4303      4304      4300      4303      4304      4481
      4300      4303      4304      4307      4300      4477      4482      4481
      4300      4477      4482      4483      4300      4477      4478      4473
      4300      4477      4478      4479      4301      4124      4127      4126
      4301      4124      4127      4128      4301      4302      4303      4300
      4301      4302      4303      4304      4301      4306      4307      4304
      4301      4306      4307      4308      4302      4297      4298      4293
      4302      4297      4298      4299      4302      4301      4306      4305
      4302      4301      4306      4307      4302      4303      4304      4481
      4302      4303      4304      4307      4303      4300      4477      4482
      4303      4300      4477      4478      4303      4304      4481      4482
      4303      4304      4481      4486      4303      4304      4307      4306
      4303      4304      4307      4308      4304      4307      4308      4485
      4304      4307      4308      4311      4304      4481      4482      4477
      4304      4481      4482      4483      4304      4481      4486      4485
      4304      4481      4486      4487      4305      4128      4131      4130
      4305      4128      4131      4132      4305      4306      4307      4304
      4305      4306      4307      4308      4305      4310      4311      4308
      4305      4310      4311      4312      4306      4301      4302      4297
      4306      4301      4302      4303      4306      4305      4310      4309
      4306      4305      4310      4311      4306      4307      4308      4485
      4306      4307      4308      4311      4307      4304      4481      4482
      4307      4304      4481      4486      4307      4308      4485      4486
      4307      4308      4485      4490      4307      4308      4311      4310
      4307      4308      4311      4312      4308      4311      4312      4489
      4308      4311      4312      4315      4308      4485      4486      4481
      4308      4485      4486      4487      4308      4485      4490      4489
      4308      4485      4490      4491      4309      4132      4135      4134
      4309      4132      4135      4136      4309      4310      4311      4308
      4309      4310      4311      4312      4309      4314      4315      4312
      4309      4314      4315      4316      4310      4305      4306      4301
      4310      4305      4306      4307      4310      4309      4314      4313
      4310      4309      4314      4315      4310      4311      4312      4489
      4310      4311      4312      4315      4311      4308      4485      4486
      4311      4308      4485      4490      4311      4312      4489      4494
      4311      4312      4489      4490      4311      4312      4315      4314
      4311      4312      4315      4316      4312      4315      4316      4493
      4312      4315      4316      4319      4312      4489      4494      4493
      4312      4489      4494      4495      4312      4489      4490      4485
      4312      4489      4490      4491      4313      4136      4139      4138
      4313      4136      4139      4140      4313      4314      4315      4312
      4313      4314      4315      4316      4313      4318      4319      4316
      4313      4318      4319      4320      4314      4309      4310      4305
      4314      4309      4310      4311      4314      4313      4318      4317
      4314      4313      4318      4319      4314      4315      4316      4493
      4314      4315      4316      4319      4315      4312      4489      4494
      4315      4312      4489      4490      4315      4316      4493      4498
      4315      4316      4493      4494      4315      4316      4319      4318
      4315      4316      4319      4320      4316      4319      4320      4497
      4316      4493      4498      4497      4316      4493      4498      4499
      4316      4493      4494      4489      4316      4493      4494      4495
      4317      4318      4319      4316      4317      4318      4319      4320
      4318      4313      4314      4309      4318      4313      4314      4315
      4318      4319      4320      4497      4319      4316      4493      4498
      4319      4316      4493      4494      4319      4320      4497      4498
      4320      4497      4498      4493      4320      4497      4498      4499
      4321      4144      4147      4146      4321      4144      4147      4148
      4321      4322      4323      4324      4321      4326      4327      4324
      4321      4326      4327      4328      4322      4321      4326      4325
      4322      4321      4326      4327      4322      4323      4324      4327
      4322      4323      4324      4501      4323      4324      4327      4326
      4323      4324      4327      4328      4323      4324      4501      4502
      4323      4324      4501      4506      4324      4327      4328      4331
      4324      4327      4328      4505      4324      4501      4502      4503
      4324      4501      4506      4505      4324      4501      4506      4507
      4325      4148      4151      4150      4325      4148      4151      4152
      4325      4326      4327      4324      4325      4326      4327      4328
      4325      4330      4331      4328      4325      4330      4331      4332
      4326      4321      4322      4323      4326      4325      4330      4329
      4326      4325      4330      4331      4326      4327      4328      4331
      4326      4327      4328      4505      4327      4324      4501      4502
      4327      4324      4501      4506      4327      4328      4331      4330
      4327      4328      4331      4332      4327      4328      4505      4506
      4327      4328      4505      4510      4328      4331      4332      4335
      4328      4331      4332      4509      4328      4505      4506      4501
      4328      4505      4506      4507      4328      4505      4510      4509
      4328      4505      4510      4511      4329      4152      4155      4154
      4329      4152      4155      4156      4329      4330      4331      4328
      4329      4330      4331      4332      4329      4334      4335      4332
      4329      4334      4335      4336      4330      4325      4326      4321
      4330      4325      4326      4327      4330      4329      4334      4333
      4330      4329      4334      4335      4330      4331      4332      4335
      4330      4331      4332      4509      4331      4328      4505      4506
      4331      4328      4505      4510      4331      4332      4335      4334
      4331      4332      4335      4336      4331      4332      4509      4514
      4331      4332      4509      4510      4332      4335      4336      4339
      4332      4335      4336      4513      4332      4509      4514      4513
      4332      4509      4514      4515      4332      4509      4510      4505
      4332      4509      4510      4511      4333      4156      4159      4158
      4333      4156      4159      4160      4333      4334      4335      4332
      4333      4334      4335      4336      4333      4338      4339      4336
      4333      4338      4339      4340      4334      4329      4330      4325
      4334      4329      4330      4331      4334      4333      4338      4337
      4334      4333      4338      4339      4334      4335      4336      4339
      4334      4335      4336      4513      4335      4332      4509      4514
      4335      4332      4509      4510      4335      4336      4339      4338
      4335      4336      4339      4340      4335      4336      4513      4518
      4335      4336      4513      4514      4336      4339      4340      4343
      4336      4339      4340      4517      4336      4513      4518      4517
      4336      4513      4518      4519      4336      4513      4514      4509
      4336      4513      4514      4515      4337      4160      4163      4162
      4337      4160      4163      4164      4337      4338      4339      4336
      4337      4338      4339      4340      4337      4342      4343      4340
      4337      4342      4343      4344      4338      4333      4334      4329
      4338      4333      4334      4335      4338      4337      4342      4341
      4338      4337      4342      4343      4338      4339      4340      4343
      4338      4339      4340      4517      4339      4336      4513      4518
      4339      4336      4513      4514      4339      4340      4343      4342
      4339      4340      4343      4344      4339      4340      4517      4522
      4339      4340      4517      4518      4340      4343      4344      4347
      4340      4343      4344      4521      4340      4517      4522      4521
      4340      4517      4522      4523      4340      4517      4518      4513
      4340      4517      4518      4519      4341      4164      4167      4166
      4341      4164      4167      4168      4341      4342      4343      4340
      4341      4342      4343      4344      4341      4346      4347      4344
      4341      4346      4347      4348      4342      4337      4338      4333
      4342      4337      4338      4339      4342      4341      4346      4345
      4342      4341      4346      4347      4342      4343      4344      4347
      4342      4343      4344      4521      4343      4340      4517      4522
      4343      4340      4517      4518      4343      4344      4347      4346
      4343      4344      4347      4348      4343      4344      4521      4522
      4343      4344      4521      4526      4344      4347      4348      4351
      4344      4347      4348      4525      4344      4521      4522      4517
      4344      4521      4522      4523      4344      4521      4526      4525
      4344      4521      4526      4527      4345      4168      4171      4170
      4345      4168      4171      4172      4345      4346      4347      4344
      4345      4346      4347      4348      4345      4350      4351      4348
      4345      4350      4351      4352      4346      4341      4342      4337
      4346      4341      4342      4343      4346      4345      4350      4349
      4346      4345      4350      4351      4346      4347      4348      4351
      4346      4347      4348      4525      4347      4344      4521      4522
      4347      4344      4521      4526      4347      4348      4351      4350
      4347      4348      4351      4352      4347      4348      4525      4526
      4347      4348      4525      4530      4348      4351      4352      4355
      4348      4351      4352      4529      4348      4525      4526      4521
      4348      4525      4526      4527      4348      4525      4530      4529
      4348      4525      4530      4531      4349      4172      4175      4174
      4349      4172      4175      4176      4349      4350      4351      4348
      4349      4350      4351      4352      4349      4354      4355      4352
      4349      4354      4355      4356      4350      4345      4346      4341
      4350      4345      4346      4347      4350      4349      4354      4353
      4350      4349      4354      4355      4350      4351      4352      4355
      4350      4351      4352      4529      4351      4348      4525      4526
      4351      4348      4525      4530      4351      4352      4355      4354
      4351      4352      4355      4356      4351      4352      4529      4534
      4351      4352      4529      4530      4352      4355      4356      4359
      4352      4355      4356      4533      4352      4529      4534      4533
      4352      4529      4534      4535      4352      4529      4530      4525
      4352      4529      4530      4531      4353      4176      4179      4178
      4353      4176      4179      4180      4353      4354      4355      4352
      4353      4354      4355      4356      4353      4358      4359      4356
      4353      4358      4359      4360      4354      4349      4350      4345
      4354      4349      4350      4351      4354      4353      4358      4357
      4354      4353      4358      4359      4354      4355      4356      4359
      4354      4355      4356      4533      4355      4352      4529      4534
      4355      4352      4529      4530      4355      4356      4359      4358
      4355      4356      4359      4360      4355      4356      4533      4538
      4355      4356      4533      4534      4356      4359      4360      4363
      4356      4359      4360      4537      4356      4533      4538      4537
      4356      4533      4538      4539      4356      4533      4534      4529
      4356      4533      4534      4535      4357      4180      4183      4182
      4357      4180      4183      4184      4357      4358      4359      4356
      4357      4358      4359      4360      4357      4362      4363      4360
      4357      4362      4363      4364      4358      4353      4354      4349
      4358      4353      4354      4355      4358      4357      4362      4361
      4358      4357      4362      4363      4358      4359      4360      4363
      4358      4359      4360      4537      4359      4356      4533      4538
      4359      4356      4533      4534      4359      4360      4363      4362
      4359      4360      4363      4364      4359      4360      4537      4542
      4359      4360      4537      4538      4360      4363      4364      4367
      4360      4363      4364      4541      4360      4537      4542      4541
      4360      4537      4542      4543      4360      4537      4538      4533
      4360      4537      4538      4539      4361      4184      4187      4186
      4361      4184      4187      4188      4361      4362      4363      4360
      4361      4362      4363      4364      4361      4366      4367      4364
      4361      4366      4367      4368      4362      4357      4358      4353
      4362      4357      4358      4359      4362      4361      4366      4365
      4362      4361      4366      4367      4362      4363      4364      4367
      4362      4363      4364      4541      4363      4360      4537      4542
      4363      4360      4537      4538      4363      4364      4367      4366
      4363      4364      4367      4368      4363      4364      4541      4542
      4363      4364      4541      4546      4364      4367      4368      4371
      4364      4367      4368      4545      4364      4541      4542      4537
      4364      4541      4542      4543      4364      4541      4546      4545
      4364      4541      4546      4547      4365      4188      4191      4190
      4365      4188      4191      4192      4365      4366      4367      4364
      4365      4366      4367      4368      4365      4370      4371      4368
      4365      4370      4371      4372      4366      4361      4362      4357
      4366      4361      4362      4363      4366      4365      4370      4369
      4366      4365      4370      4371      4366      4367      4368      4371
      4366      4367      4368      4545      4367      4364      4541      4542
      4367      4364      4541      4546      4367      4368      4371      4370
      4367      4368      4371      4372      4367      4368      4545      4546
      4367      4368      4545      4550      4368      4371      4372      4375
      4368      4371      4372      4549      4368      4545      4546      4541
      4368      4545      4546      4547      4368      4545      4550      4549
      4368      4545      4550      4551      4369      4192      4195      4194
      4369      4192      4195      4196      4369      4370      4371      4368
      4369      4370      4371      4372      4369      4374      4375      4372
      4369      4374      4375      4376      4370      4365      4366      4361
      4370      4365      4366      4367      4370      4369      4374      4373
      4370      4369      4374      4375      4370      4371      4372      4375
      4370      4371      4372      4549      4371      4368      4545      4546
      4371      4368      4545      4550      4371      4372      4375      4374
      4371      4372      4375      4376      4371      4372      4549      4554
      4371      4372      4549      4550      4372      4375      4376      4379
      4372      4375      4376      4553      4372      4549      4554      4553
      4372      4549      4554      4555      4372      4549      4550      4545
      4372      4549      4550      4551      4373      4196      4199      4198
      4373      4196      4199      4200      4373      4374      4375      4372
      4373      4374      4375      4376      4373      4378      4379      4376
      4373      4378      4379      4380      4374      4369      4370      4365
      4374      4369      4370      4371      4374      4373      4378      4377
      4374      4373      4378      4379      4374      4375      4376      4379
      4374      4375      4376      4553      4375      4372      4549      4554
      4375      4372      4549      4550      4375      4376      4379      4378
      4375      4376      4379      4380      4375      4376      4553      4558
      4375      4376      4553      4554      4376      4379      4380      4383
      4376      4379      4380      4557      4376      4553      4558      4557
      4376      4553      4558      4559      4376      4553      4554      4549
      4376      4553      4554      4555      4377      4200      4203      4202
      4377      4200      4203      4204      4377      4378      4379      4376
      4377      4378      4379      4380      4377      4382      4383      4380
      4377      4382      4383      4384      4378      4373      4374      4369
      4378      4373      4374      4375      4378      4377      4382      4381
      4378      4377      4382      4383      4378      4379      4380      4383
      4378      4379      4380      4557      4379      4376      4553      4558
      4379      4376      4553      4554      4379      4380      4383      4382
      4379      4380      4383      4384      4379      4380      4557      4562
      4379      4380      4557      4558      4380      4383      4384      4387
      4380      4383      4384      4561      4380      4557      4562      4561
      4380      4557      4562      4563      4380      4557      4558      4553
      4380      4557      4558      4559      4381      4204      4207      4206
      4381      4204      4207      4208      4381      4382      4383      4380
      4381      4382      4383      4384      4381      4386      4387      4384
      4381      4386      4387      4388      4382      4377      4378      4373
      4382      4377      4378      4379      4382      4381      4386      4385
      4382      4381      4386      4387      4382      4383      4384      4387
      4382      4383      4384      4561      4383      4380      4557      4562
      4383      4380      4557      4558      4383      4384      4387      4386
      4383      4384      4387      4388      4383      4384      4561      4562
      4383      4384      4561      4566      4384      4387      4388      4391
      4384      4387      4388      4565      4384      4561      4562      4557
      4384      4561      4562      4563      4384      4561      4566      4565
      4384      4561      4566      4567      4385      4208      4211      4210
      4385      4208      4211      4212      4385      4386      4387      4384
      4385      4386      4387      4388      4385      4390      4391      4388
      4385      4390      4391      4392      4386      4381      4382      4377
      4386      4381      4382      4383      4386      4385      4390      4389
      4386      4385      4390      4391      4386      4387      4388      4391
      4386      4387      4388      4565      4387      4384      4561      4562
      4387      4384      4561      4566      4387      4388      4391      4390
      4387      4388      4391      4392      4387      4388      4565      4566
      4387      4388      4565      4570      4388      4391      4392      4395
      4388      4391      4392      4569      4388      4565      4566      4561
      4388      4565      4566      4567      4388      4565      4570      4569
      4388      4565      4570      4571      4389      4212      4215      4214
      4389      4212      4215      4216      4389      4390      4391      4388
      4389      4390      4391      4392      4389      4394      4395      4392
      4389      4394      4395      4396      4390      4385      4386      4381
      4390      4385      4386      4387      4390      4389      4394      4393
      4390      4389      4394      4395      4390      4391      4392      4395
      4390      4391      4392      4569      4391      4388      4565      4566
      4391      4388      4565      4570      4391      4392      4395      4394
      4391      4392      4395      4396      4391      4392      4569      4574
      4391      4392      4569      4570      4392      4395      4396      4399
      4392      4395      4396      4573      4392      4569      4574      4573
      4392      4569      4574      4575      4392      4569      4570      4565
      4392      4569      4570      4571      4393      4216      4219      4218
      4393      4216      4219      4220      4393      4394      4395      4392
      4393      4394      4395      4396      4393      4398      4399      4396
      4393      4398      4399      4400      4394      4389      4390      4385
      4394      4389      4390      4391      4394      4393      4398      4397
      4394      4393      4398      4399      4394      4395      4396      4399
      4394      4395      4396      4573      4395      4392      4569      4574
      4395      4392      4569      4570      4395      4396      4399      4398
      4395      4396      4399      4400      4395      4396      4573      4578
      4395      4396      4573      4574      4396      4399      4400      4403
      4396      4399      4400      4577      4396      4573      4578      4577
      4396      4573      4578      4579      4396      4573      4574      4569
      4396      4573      4574      4575      4397      4220      4223      4222
      4397      4220      4223      4224      4397      4398      4399      4396
      4397      4398      4399      4400      4397      4402      4403      4400
      4397      4402      4403      4404      4398      4393      4394      4389
      4398      4393      4394      4395      4398      4397      4402      4401
      4398      4397      4402      4403      4398      4399      4400      4403
      4398      4399      4400      4577      4399      4396      4573      4578
      4399      4396      4573      4574      4399      4400      4403      4402
      4399      4400      4403      4404      4399      4400      4577      4582
      4399      4400      4577      4578      4400      4403      4404      4407
      4400      4403      4404      4581      4400      4577      4582      4581
      4400      4577      4582      4583      4400      4577      4578      4573
      4400      4577      4578      4579      4401      4224      4227      4226
      4401      4224      4227      4228      4401      4402      4403      4400
      4401      4402      4403      4404      4401      4406      4407      4404
      4401      4406      4407      4408      4402      4397      4398      4393
      4402      4397      4398      4399      4402      4401      4406      4405
      4402      4401      4406      4407      4402      4403      4404      4407
      4402      4403      4404      4581      4403      4400      4577      4582
      4403      4400      4577      4578      4403      4404      4407      4406
      4403      4404      4407      4408      4403      4404      4581      4582
      4403      4404      4581      4586      4404      4407      4408      4411
      4404      4407      4408      4585      4404      4581      4582      4577
      4404      4581      4582      4583      4404      4581      4586      4585
      4404      4581      4586      4587      4405      4228      4231      4230
      4405      4228      4231      4232      4405      4406      4407      4404
      4405      4406      4407      4408      4405      4410      4411      4408
      4405      4410      4411      4412      4406      4401      4402      4397
      4406      4401      4402      4403      4406      4405      4410      4409
      4406      4405      4410      4411      4406      4407      4408      4411
      4406      4407      4408      4585      4407      4404      4581      4582
      4407      4404      4581      4586      4407      4408      4411      4410
      4407      4408      4411      4412      4407      4408      4585      4586
      4407      4408      4585      4590      4408      4411      4412      4415
      4408      4411      4412      4589      4408      4585      4586      4581
      4408      4585      4586      4587      4408      4585      4590      4589
      4408      4585      4590      4591      4409      4232      4235      4234
      4409      4232      4235      4236      4409      4410      4411      4408
      4409      4410      4411      4412      4409      4414      4415      4412
      4409      4414      4415      4416      4410      4405      4406      4401
      4410      4405      4406      4407      4410      4409      4414      4413
      4410      4409      4414      4415      4410      4411      4412      4415
      4410      4411      4412      4589      4411      4408      4585      4586
      4411      4408      4585      4590      4411      4412      4415      4414
      4411      4412      4415      4416      4411      4412      4589      4594
      4411      4412      4589      4590      4412      4415      4416      4419
      4412      4415      4416      4593      4412      4589      4594      4593
      4412      4589      4594      4595      4412      4589      4590      4585
      4412      4589      4590      4591      4413      4236      4239      4238
      4413      4236      4239      4240      4413      4414      4415      4412
      4413      4414      4415      4416      4413      4418      4419      4416
      4413      4418      4419      4420      4414      4409      4410      4405
      4414      4409      4410      4411      4414      4413      4418      4417
      4414      4413      4418      4419      4414      4415      4416      4419
      4414      4415      4416      4593      4415      4412      4589      4594
      4415      4412      4589      4590      4415      4416      4419      4418
      4415      4416      4419      4420      4415      4416      4593      4598
      4415      4416      4593      4594      4416      4419      4420      4423
      4416      4419      4420      4597      4416      4593      4598      4597
      4416      4593      4598      4599      4416      4593      4594      4589
      4416      4593      4594      4595      4417      4240      4243      4242
      4417      4240      4243      4244      4417      4418      4419      4416
      4417      4418      4419      4420      4417      4422      4423      4420
      4417      4422      4423      4424      4418      4413      4414      4409
      4418      4413      4414      4415      4418      4417      4422      4421
      4418      4417      4422      4423      4418      4419      4420      4423
      4418      4419      4420      4597      4419      4416      4593      4598
      4419      4416      4593      4594      4419      4420      4423      4422
      4419      4420      4423      4424      4419      4420      4597      4602
      4419      4420      4597      4598      4420      4423      4424      4427
      4420      4423      4424      4601      4420      4597      4602      4601
      4420      4597      4602      4603      4420      4597      4598      4593
      4420      4597      4598      4599      4421      4244      4247      4246
      4421      4244      4247      4248      4421      4422      4423      4420
      4421      4422      4423      4424      4421      4426      4427      4424
      4421      4426      4427      4428      4422      4417      4418      4413
      4422      4417      4418      4419      4422      4421      4426      4425
      4422      4421      4426      4427      4422      4423      4424      4427
      4422      4423      4424      4601      4423      4420      4597      4602
      4423      4420      4597      4598      4423      4424      4427      4426
      4423      4424      4427      4428      4423      4424      4601      4602
      4423      4424      4601      4606      4424      4427      4428      4431
      4424      4427      4428      4605      4424      4601      4602      4597
      4424      4601      4602      4603      4424      4601      4606      4605
      4424      4601      4606      4607      4425      4248      4251      4250
      4425      4248      4251      4252      4425      4426      4427      4424
      4425      4426      4427      4428      4425      4430      4431      4428
      4425      4430      4431      4432      4426      4421      4422      4417
      4426      4421      4422      4423      4426      4425      4430      4429
      4426      4425      4430      4431      4426      4427      4428      4431
      4426      4427      4428      4605      4427      4424      4601      4602
      4427      4424      4601      4606      4427      4428      4431      4430
      4427      4428      4431      4432      4427      4428      4605      4606
      4427      4428      4605      4610      4428      4431      4432      4435
      4428      4431      4432      4609      4428      4605      4606      4601
      4428      4605      4606      4607      4428      4605      4610      4609
      4428      4605      4610      4611      4429      4252      4255      4254
      4429      4252      4255      4256      4429      4430      4431      4428
      4429      4430      4431      4432      4429      4434      4435      4432
      4429      4434      4435      4436      4430      4425      4426      4421
      4430      4425      4426      4427      4430      4429      4434      4433
      4430      4429      4434      4435      4430      4431      4432      4435
      4430      4431      4432      4609      4431      4428      4605      4606
      4431      4428      4605      4610      4431      4432      4435      4434
      4431      4432      4435      4436      4431      4432      4609      4614
      4431      4432      4609      4610      4432      4435      4436      4439
      4432      4435      4436      4613      4432      4609      4614      4613
      4432      4609      4614      4615      4432      4609      4610      4605
      4432      4609      4610      4611      4433      4256      4259      4258
      4433      4256      4259      4260      4433      4434      4435      4432
      4433      4434      4435      4436      4433      4438      4439      4436
      4433      4438      4439      4440      4434      4429      4430      4425
      4434      4429      4430      4431      4434      4433      4438      4437
      4434      4433      4438      4439      4434      4435      4436      4439
      4434      4435      4436      4613      4435      4432      4609      4614
      4435      4432      4609      4610      4435      4436      4439      4438
      4435      4436      4439      4440      4435      4436      4613      4618
      4435      4436      4613      4614      4436      4439      4440      4443
      4436      4439      4440      4617      4436      4613      4618      4617
      4436      4613      4618      4619      4436      4613      4614      4609
      4436      4613      4614      4615      4437      4260      4263      4262
      4437      4260      4263      4264      4437      4438      4439      4436
      4437      4438      4439      4440      4437      4442      4443      4440
      4437      4442      4443      4444      4438      4433      4434      4429
      4438      4433      4434      4435      4438      4437      4442      4441
      4438      4437      4442      4443      4438      4439      4440      4443
      4438      4439      4440      4617      4439      4436      4613      4618
      4439      4436      4613      4614      4439      4440      4443      4442
      4439      4440      4443      4444      4439      4440      4617      4622
      4439      4440      4617      4618      4440      4443      4444      4447
      4440      4443      4444      4621      4440      4617      4622      4621
      4440      4617      4622      4623      4440      4617      4618      4613
      4440      4617      4618      4619      4441      4264      4267      4266
      4441      4264      4267      4268      4441      4442      4443      4440
      4441      4442      4443      4444      4441      4446      4447      4444
      4441      4446      4447      4448      4442      4437      4438      4433
      4442      4437      4438      4439      4442      4441      4446      4445
      4442      4441      4446      4447      4442      4443      4444      4447
      4442      4443      4444      4621      4443      4440      4617      4622
      4443      4440      4617      4618      4443      4444      4447      4446
      4443      4444      4447      4448      4443      4444      4621      4622
      4443      4444      4621      4626      4444      4447      4448      4451
      4444      4447      4448      4625      4444      4621      4622      4617
      4444      4621      4622      4623      4444      4621      4626      4625
      4444      4621      4626      4627      4445      4268      4271      4270
      4445      4268      4271      4272      4445      4446      4447      4444
      4445      4446      4447      4448      4445      4450      4451      4448
      4445      4450      4451      4452      4446      4441      4442      4437
      4446      4441      4442      4443      4446      4445      4450      4449
      4446      4445      4450      4451      4446      4447      4448      4451
      4446      4447      4448      4625      4447      4444      4621      4622
      4447      4444      4621      4626      4447      4448      4451      4450
      4447      4448      4451      4452      4447      4448      4625      4626
      4447      4448      4625      4630      4448      4451      4452      4455
      4448      4451      4452      4629      4448      4625      4626      4621
      4448      4625      4626      4627      4448      4625      4630      4629
      4448      4625      4630      4631      4449      4272      4275      4274
      4449      4272      4275      4276      4449      4450      4451      4448
      4449      4450      4451      4452      4449      4454      4455      4452
      4449      4454      4455      4456      4450      4445      4446      4441
      4450      4445      4446      4447      4450      4449      4454      4453
      4450      4449      4454      4455      4450      4451      4452      4455
      4450      4451      4452      4629      4451      4448      4625      4626
      4451      4448      4625      4630      4451      4452      4455      4454
      4451      4452      4455      4456      4451      4452      4629      4634
      4451      4452      4629      4630      4452      4455      4456      4459
      4452      4455      4456      4633      4452      4629      4634      4633
      4452      4629      4634      4635      4452      4629      4630      4625
      4452      4629      4630      4631      4453      4276      4279      4278
      4453      4276      4279      4280      4453      4454      4455      4452
      4453      4454      4455      4456      4453      4458      4459      4456
      4453      4458      4459      4460      4454      4449      4450      4445
      4454      4449      4450      4451      4454      4453      4458      4457
      4454      4453      4458      4459      4454      4455      4456      4459
      4454      4455      4456      4633      4455      4452      4629      4634
      4455      4452      4629      4630      4455      4456      4459      4458
      4455      4456      4459      4460      4455      4456      4633      4638
      4455      4456      4633      4634      4456      4459      4460      4463
      4456      4459      4460      4637      4456      4633      4638      4637
      4456      4633      4638      4639      4456      4633      4634      4629
      4456      4633      4634      4635      4457      4280      4283      4282
      4457      4280      4283      4284      4457      4458      4459      4456
      4457      4458      4459      4460      4457      4462      4463      4460
      4457      4462      4463      4464      4458      4453      4454      4449
      4458      4453      4454      4455      4458      4457      4462      4461
      4458      4457      4462      4463      4458      4459      4460      4463
      4458      4459      4460      4637      4459      4456      4633      4638
      4459      4456      4633      4634      4459      4460      4463      4462
      4459      4460      4463      4464      4459      4460      4637      4642
      4459      4460      4637      4638      4460      4463      4464      4467
      4460      4463      4464      4641      4460      4637      4642      4641
      4460      4637      4642      4643      4460      4637      4638      4633
      4460      4637      4638      4639      4461      4284      4287      4286
      4461      4284      4287      4288      4461      4462      4463      4460
      4461      4462      4463      4464      4461      4466      4467      4464
      4461      4466      4467      4468      4462      4457      4458      4453
      4462      4457      4458      4459      4462      4461      4466      4465
      4462      4461      4466      4467      4462      4463      4464      4467
      4462      4463      4464      4641      4463      4460      4637      4642
      4463      4460      4637      4638      4463      4464      4467      4466
      4463      4464      4467      4468      4463      4464      4641      4642
      4463      4464      4641      4646      4464      4467      4468      4471
      4464      4467      4468      4645      4464      4641      4642      4637
      4464      4641      4642      4643      4464      4641      4646      4645
      4464      4641      4646      4647      4465      4288      4291      4290
      4465      4288      4291      4292      4465      4466      4467      4464
      4465      4466      4467      4468      4465      4470      4471      4468
      4465      4470      4471      4472      4466      4461      4462      4457
      4466      4461      4462      4463      4466      4465      4470      4469
      4466      4465      4470      4471      4466      4467      4468      4471
      4466      4467      4468      4645      4467      4464      4641      4642
      4467      4464      4641      4646      4467      4468      4471      4470
      4467      4468      4471      4472      4467      4468      4645      4646
      4467      4468      4645      4650      4468      4471      4472      4475
      4468      4471      4472      4649      4468      4645      4646      4641
      4468      4645      4646      4647      4468      4645      4650      4649
      4468      4645      4650      4651      4469      4292      4295      4294
      4469      4292      4295      4296      4469      4470      4471      4468
      4469      4470      4471      4472      4469      4474      4475      4472
      4469      4474      4475      4476      4470      4465      4466      4461
      4470      4465      4466      4467      4470      4469      4474      4473
      4470      4469      4474      4475      4470      4471      4472      4475
      4470      4471      4472      4649      4471      4468      4645      4646
      4471      4468      4645      4650      4471      4472      4475      4474
      4471      4472      4475      4476      4471      4472      4649      4654
      4471      4472      4649      4650      4472      4475      4476      4479
      4472      4475      4476      4653      4472      4649      4654      4653
      4472      4649      4654      4655      4472      4649      4650      4645
      4472      4649      4650      4651      4473      4296      4299      4298
      4473      4296      4299      4300      4473      4474      4475      4472
      4473      4474      4475      4476      4473      4478      4479      4476
      4473      4478      4479      4480      4474      4469      4470      4465
      4474      4469      4470      4471      4474      4473      4478      4477
      4474      4473      4478      4479      4474      4475      4476      4479
      4474      4475      4476      4653      4475      4472      4649      4654
      4475      4472      4649      4650      4475      4476      4479      4478
      4475      4476      4479      4480      4475      4476      4653      4658
      4475      4476      4653      4654      4476      4479      4480      4483
      4476      4479      4480      4657      4476      4653      4658      4657
      4476      4653      4658      4659      4476      4653      4654      4649
      4476      4653      4654      4655      4477      4300      4303      4302
      4477      4300      4303      4304      4477      4478      4479      4476
      4477      4478      4479      4480      4477      4482      4483      4480
      4477      4482      4483      4484      4478      4473      4474      4469
      4478      4473      4474      4475      4478      4477      4482      4481
      4478      4477      4482      4483      4478      4479      4480      4483
      4478      4479      4480      4657      4479      4476      4653      4658
      4479      4476      4653      4654      4479      4480      4483      4482
      4479      4480      4483      4484      4479      4480      4657      4662
      4479      4480      4657      4658      4480      4483      4484      4487
      4480      4483      4484      4661      4480      4657      4662      4661
      4480      4657      4662      4663      4480      4657      4658      4653
      4480      4657      4658      4659      4481      4304      4307      4306
      4481      4304      4307      4308      4481      4482      4483      4480
      4481      4482      4483      4484      4481      4486      4487      4484
      4481      4486      4487      4488      4482      4477      4478      4473
      4482      4477      4478      4479      4482      4481      4486      4485
      4482      4481      4486      4487      4482      4483      4484      4487
      4482      4483      4484      4661      4483      4480      4657      4662
      4483      4480      4657      4658      4483      4484      4487      4486
      4483      4484      4487      4488      4483      4484      4661      4662
      4483      4484      4661      4666      4484      4487      4488      4491
      4484      4487      4488      4665      4484      4661      4662      4657
      4484      4661      4662      4663      4484      4661      4666      4665
      4484      4661      4666      4667      4485      4308      4311      4310
      4485      4308      4311      4312      4485      4486      4487      4484
      4485      4486      4487      4488      4485      4490      4491      4488
      4485      4490      4491      4492      4486      4481      4482      4477
      4486      4481      4482      4483      4486      4485      4490      4489
      4486      4485      4490      4491      4486      4487      4488      4491
      4486      4487      4488      4665      4487      4484      4661      4662
      4487      4484      4661      4666      4487      4488      4491      4490
      4487      4488      4491      4492      4487      4488      4665      4666
      4487      4488      4665      4670      4488      4491      4492      4495
      4488      4491      4492      4669      4488      4665      4666      4661
      4488      4665      4666      4667      4488      4665      4670      4669
      4488      4665      4670      4671      4489      4312      4315      4314
      4489      4312      4315      4316      4489      4490      4491      4488
      4489      4490      4491      4492      4489      4494      4495      4492
      4489      4494      4495      4496      4490      4485      4486      4481
      4490      4485      4486      4487      4490      4489      4494      4493
      4490      4489      4494      4495      4490      4491      4492      4495
      4490      4491      4492      4669      4491      4488      4665      4666
      4491      4488      4665      4670      4491      4492      4495      4494
      4491      4492      4495      4496      4491      4492      4669      4674
      4491      4492      4669      4670      4492      4495      4496      4499
      4492      4495      4496      4673      4492      4669      4674      4673
      4492      4669      4674      4675      4492      4669      4670      4665
      4492      4669      4670      4671      4493      4316      4319      4318
      4493      4316      4319      4320      4493      4494      4495      4492
      4493      4494      4495      4496      4493      4498      4499      4496
      4493      4498      4499      4500      4494      4489      4490      4485
      4494      4489      4490      4491      4494      4493      4498      4497
      4494      4493      4498      4499      4494      4495      4496      4499
      4494      4495      4496      4673      4495      4492      4669      4674
      4495      4492      4669      4670      4495      4496      4499      4498
      4495      4496      4499      4500      4495      4496      4673      4674
      4495      4496      4673      4678      4496      4499      4500      4677
      4496      4673      4674      4669      4496      4673      4674      4675
      4496      4673      4678      4677      4496      4673      4678      4679
      4497      4498      4499      4496      4497      4498      4499      4500
      4498      4493      4494      4489      4498      4493      4494      4495
      4498      4499      4500      4677      4499      4496      4673      4674
      4499      4496      4673      4678      4499      4500      4677      4678
      4500      4677      4678      4673      4500      4677      4678      4679
      4501      4324      4327      4326      4501      4324      4327      4328
      4501      4502      4503      4504      4501      4506      4507      4504
      4501      4506      4507      4508      4502      4501      4506      4505
      4502      4501      4506      4507      4502      4503      4504      4507
      4503      4504      4507      4506      4503      4504      4507      4508
      4504      4507      4508      4511      4505      4328      4331      4330
      4505      4328      4331      4332      4505      4506      4507      4504
      4505      4506      4507      4508      4505      4510      4511      4508
      4505      4510      4511      4512      4506      4501      4502      4503
      4506      4505      4510      4509      4506      4505      4510      4511
      4506      4507      4508      4511      4507      4508      4511      4510
      4507      4508      4511      4512      4508      4511      4512      4515
      4509      4332      4335      4334      4509      4332      4335      4336
      4509      4510      4511      4508      4509      4510      4511      4512
      4509      4514      4515      4512      4509      4514      4515      4516
      4510      4505      4506      4501      4510      4505      4506      4507
      4510      4509      4514      4513      4510      4509      4514      4515
      4510      4511      4512      4515      4511      4512      4515      4514
      4511      4512      4515      4516      4512      4515      4516      4519
      4513      4336      4339      4338      4513      4336      4339      4340
      4513      4514      4515      4512      4513      4514      4515      4516
      4513      4518      4519      4516      4513      4518      4519      4520
      4514      4509      4510      4505      4514      4509      4510      4511
      4514      4513      4518      4517      4514      4513      4518      4519
      4514      4515      4516      4519      4515      4516      4519      4518
      4515      4516      4519      4520      4516      4519      4520      4523
      4517      4340      4343      4342      4517      4340      4343      4344
      4517      4518      4519      4516      4517      4518      4519      4520
      4517      4522      4523      4520      4517      4522      4523      4524
      4518      4513      4514      4509      4518      4513      4514      4515
      4518      4517      4522      4521      4518      4517      4522      4523
      4518      4519      4520      4523      4519      4520      4523      4522
      4519      4520      4523      4524      4520      4523      4524      4527
      4521      4344      4347      4346      4521      4344      4347      4348
      4521      4522      4523      4520      4521      4522      4523      4524
      4521      4526      4527      4524      4521      4526      4527      4528
      4522      4517      4518      4513      4522      4517      4518      4519
      4522      4521      4526      4525      4522      4521      4526      4527
      4522      4523      4524      4527      4523      4524      4527      4526
      4523      4524      4527      4528      4524      4527      4528      4531
      4525      4348      4351      4350      4525      4348      4351      4352
      4525      4526      4527      4524      4525      4526      4527      4528
      4525      4530      4531      4528      4525      4530      4531      4532
      4526      4521      4522      4517      4526      4521      4522      4523
      4526      4525      4530      4529      4526      4525      4530      4531
      4526      4527      4528      4531      4527      4528      4531      4530
      4527      4528      4531      4532      4528      4531      4532      4535
      4529      4352      4355      4354      4529      4352      4355      4356
      4529      4530      4531      4528      4529      4530      4531      4532
      4529      4534      4535      4532      4529      4534      4535      4536
      4530      4525      4526      4521      4530      4525      4526      4527
      4530      4529      4534      4533      4530      4529      4534      4535
      4530      4531      4532      4535      4531      4532      4535      4534
      4531      4532      4535      4536      4532      4535      4536      4539
      4533      4356      4359      4358      4533      4356      4359      4360
      4533      4534      4535      4532      4533      4534      4535      4536
      4533      4538      4539      4536      4533      4538      4539      4540
      4534      4529      4530      4525      4534      4529      4530      4531
      4534      4533      4538      4537      4534      4533      4538      4539
      4534      4535      4536      4539      4535      4536      4539      4538
      4535      4536      4539      4540      4536      4539      4540      4543
      4537      4360      4363      4362      4537      4360      4363      4364
      4537      4538      4539      4536      4537      4538      4539      4540
      4537      4542      4543      4540      4537      4542      4543      4544
      4538      4533      4534      4529      4538      4533      4534      4535
      4538      4537      4542      4541      4538      4537      4542      4543
      4538      4539      4540      4543      4539      4540      4543      4542
      4539      4540      4543      4544      4540      4543      4544      4547
      4541      4364      4367      4366      4541      4364      4367      4368
      4541      4542      4543      4540      4541      4542      4543      4544
      4541      4546      4547      4544      4541      4546      4547      4548
      4542      4537      4538      4533      4542      4537      4538      4539
      4542      4541      4546      4545      4542      4541      4546      4547
      4542      4543      4544      4547      4543      4544      4547      4546
      4543      4544      4547      4548      4544      4547      4548      4551
      4545      4368      4371      4370      4545      4368      4371      4372
      4545      4546      4547      4544      4545      4546      4547      4548
      4545      4550      4551      4548      4545      4550      4551      4552
      4546      4541      4542      4537      4546      4541      4542      4543
      4546      4545      4550      4549      4546      4545      4550      4551
      4546      4547      4548      4551      4547      4548      4551      4550
      4547      4548      4551      4552      4548      4551      4552      4555
      4549      4372      4375      4374      4549      4372      4375      4376
      4549      4550      4551      4548      4549      4550      4551      4552
      4549      4554      4555      4552      4549      4554      4555      4556
      4550      4545      4546      4541      4550      4545      4546      4547
      4550      4549      4554      4553      4550      4549      4554      4555
      4550      4551      4552      4555      4551      4552      4555      4554
      4551      4552      4555      4556      4552      4555      4556      4559
      4553      4376      4379      4378      4553      4376      4379      4380
      4553      4554      4555      4552      4553      4554      4555      4556
      4553      4558      4559      4556      4553      4558      4559      4560
      4554      4549      4550      4545      4554      4549      4550      4551
      4554      4553      4558      4557      4554      4553      4558      4559
      4554      4555      4556      4559      4555      4556      4559      4558
      4555      4556      4559      4560      4556      4559      4560      4563
      4557      4380      4383      4382      4557      4380      4383      4384
      4557      4558      4559      4556      4557      4558      4559      4560
      4557      4562      4563      4560      4557      4562      4563      4564
      4558      4553      4554      4549      4558      4553      4554      4555
      4558      4557      4562      4561      4558      4557      4562      4563
      4558      4559      4560      4563      4559      4560      4563      4562
      4559      4560      4563      4564      4560      4563      4564      4567
      4561      4384      4387      4386      4561      4384      4387      4388
      4561      4562      4563      4560      4561      4562      4563      4564
      4561      4566      4567      4564      4561      4566      4567      4568
      4562      4557      4558      4553      4562      4557      4558      4559
      4562      4561      4566      4565      4562      4561      4566      4567
      4562      4563      4564      4567      4563      4564      4567      4566
      4563      4564      4567      4568      4564      4567      4568      4571
      4565      4388      4391      4390      4565      4388      4391      4392
      4565      4566      4567      4564      4565      4566      4567      4568
      4565      4570      4571      4568      4565      4570      4571      4572
      4566      4561      4562      4557      4566      4561      4562      4563
      4566      4565      4570      4569      4566      4565      4570      4571
      4566      4567      4568      4571      4567      4568      4571      4570
      4567      4568      4571      4572      4568      4571      4572      4575
      4569      4392      4395      4394      4569      4392      4395      4396
      4569      4570      4571      4568      4569      4570      4571      4572
      4569      4574      4575      4572      4569      4574      4575      4576
      4570      4565      4566      4561      4570      4565      4566      4567
      4570      4569      4574      4573      4570      4569      4574      4575
      4570      4571      4572      4575      4571      4572      4575      4574
      4571      4572      4575      4576      4572      4575      4576      4579
      4573      4396      4399      4398      4573      4396      4399      4400
      4573      4574      4575      4572      4573      4574      4575      4576
      4573      4578      4579      4576      4573      4578      4579      4580
      4574      4569      4570      4565      4574      4569      4570      4571
      4574      4573      4578      4577      4574      4573      4578      4579
      4574      4575      4576      4579      4575      4576      4579      4578
      4575      4576      4579      4580      4576      4579      4580      4583
      4577      4400      4403      4402      4577      4400      4403      4404
      4577      4578      4579      4576      4577      4578      4579      4580
      4577      4582      4583      4580      4577      4582      4583      4584
      4578      4573      4574      4569      4578      4573      4574      4575
      4578      4577      4582      4581      4578      4577      4582      4583
      4578      4579      4580      4583      4579      4580      4583      4582
      4579      4580      4583      4584      4580      4583      4584      4587
      4581      4404      4407      4406      4581      4404      4407      4408
      4581      4582      4583      4580      4581      4582      4583      4584
      4581      4586      4587      4584      4581      4586      4587      4588
      4582      4577      4578      4573      4582      4577      4578      4579
      4582      4581      4586      4585      4582      4581      4586      4587
      4582      4583      4584      4587      4583      4584      4587      4586
      4583      4584      4587      4588      4584      4587      4588      4591
      4585      4408      4411      4410      4585      4408      4411      4412
      4585      4586      4587      4584      4585      4586      4587      4588
      4585      4590      4591      4588      4585      4590      4591      4592
      4586      4581      4582      4577      4586      4581      4582      4583
      4586      4585      4590      4589      4586      4585      4590      4591
      4586      4587      4588      4591      4587      4588      4591      4590
      4587      4588      4591      4592      4588      4591      4592      4595
      4589      4412      4415      4414      4589      4412      4415      4416
      4589      4590      4591      4588      4589      4590      4591      4592
      4589      4594      4595      4592      4589      4594      4595      4596
      4590      4585      4586      4581      4590      4585      4586      4587
      4590      4589      4594      4593      4590      4589      4594      4595
      4590      4591      4592      4595      4591      4592      4595      4594
      4591      4592      4595      4596      4592      4595      4596      4599
      4593      4416      4419      4418      4593      4416      4419      4420
      4593      4594      4595      4592      4593      4594      4595      4596
      4593      4598      4599      4596      4593      4598      4599      4600
      4594      4589      4590      4585      4594      4589      4590      4591
      4594      4593      4598      4597      4594      4593      4598      4599
      4594      4595      4596      4599      4595      4596      4599      4598
      4595      4596      4599      4600      4596      4599      4600      4603
      4597      4420      4423      4422      4597      4420      4423      4424
      4597      4598      4599      4596      4597      4598      4599      4600
      4597      4602      4603      4600      4597      4602      4603      4604
      4598      4593      4594      4589      4598      4593      4594      4595
      4598      4597      4602      4601      4598      4597      4602      4603
      4598      4599      4600      4603      4599      4600      4603      4602
      4599      4600      4603      4604      4600      4603      4604      4607
      4601      4424      4427      4426      4601      4424      4427      4428
      4601      4602      4603      4600      4601      4602      4603      4604
      4601      4606      4607      4604      4601      4606      4607      4608
      4602      4597      4598      4593      4602      4597      4598      4599
      4602      4601      4606      4605      4602      4601      4606      4607
      4602      4603      4604      4607      4603      4604      4607      4606
      4603      4604      4607      4608      4604      4607      4608      4611
      4605      4428      4431      4430      4605      4428      4431      4432
      4605      4606      4607      4604      4605      4606      4607      4608
      4605      4610      4611      4608      4605      4610      4611      4612
      4606      4601      4602      4597      4606      4601      4602      4603
      4606      4605      4610      4609      4606      4605      4610      4611
      4606      4607      4608      4611      4607      4608      4611      4610
      4607      4608      4611      4612      4608      4611      4612      4615
      4609      4432      4435      4434      4609      4432      4435      4436
      4609      4610      4611      4608      4609      4610      4611      4612
      4609      4614      4615      4612      4609      4614      4615      4616
      4610      4605      4606      4601      4610      4605      4606      4607
      4610      4609      4614      4613      4610      4609      4614      4615
      4610      4611      4612      4615      4611      4612      4615      4614
      4611      4612      4615      4616      4612      4615      4616      4619
      4613      4436      4439      4438      4613      4436      4439      4440
      4613      4614      4615      4612      4613      4614      4615      4616
      4613      4618      4619      4616      4613      4618      4619      4620
      4614      4609      4610      4605      4614      4609      4610      4611
      4614      4613      4618      4617      4614      4613      4618      4619
      4614      4615      4616      4619      4615      4616      4619      4618
      4615      4616      4619      4620      4616      4619      4620      4623
      4617      4440      4443      4442      4617      4440      4443      4444
      4617      4618      4619      4616      4617      4618      4619      4620
      4617      4622      4623      4620      4617      4622      4623      4624
      4618      4613      4614      4609      4618      4613      4614      4615
      4618      4617      4622      4621      4618      4617      4622      4623
      4618      4619      4620      4623      4619      4620      4623      4622
      4619      4620      4623      4624      4620      4623      4624      4627
      4621      4444      4447      4446      4621      4444      4447      4448
      4621      4622      4623      4620      4621      4622      4623      4624
      4621      4626      4627      4624      4621      4626      4627      4628
      4622      4617      4618      4613      4622      4617      4618      4619
      4622      4621      4626      4625      4622      4621      4626      4627
      4622      4623      4624      4627      4623      4624      4627      4626
      4623      4624      4627      4628      4624      4627      4628      4631
      4625      4448      4451      4450      4625      4448      4451      4452
      4625      4626      4627      4624      4625      4626      4627      4628
      4625      4630      4631      4628      4625      4630      4631      4632
      4626      4621      4622      4617      4626      4621      4622      4623
      4626      4625      4630      4629      4626      4625      4630      4631
      4626      4627      4628      4631      4627      4628      4631      4630
      4627      4628      4631      4632      4628      4631      4632      4635
      4629      4452      4455      4454      4629      4452      4455      4456
      4629      4630      4631      4628      4629      4630      4631      4632
      4629      4634      4635      4632      4629      4634      4635      4636
      4630      4625      4626      4621      4630      4625      4626      4627
      4630      4629      4634      4633      4630      4629      4634      4635
      4630      4631      4632      4635      4631      4632      4635      4634
      4631      4632      4635      4636      4632      4635      4636      4639
      4633      4456      4459      4458      4633      4456      4459      4460
      4633      4634      4635      4632      4633      4634      4635      4636
      4633      4638      4639      4636      4633      4638      4639      4640
      4634      4629      4630      4625      4634      4629      4630      4631
      4634      4633      4638      4637      4634      4633      4638      4639
      4634      4635      4636      4639      4635      4636      4639      4638
      4635      4636      4639      4640      4636      4639      4640      4643
      4637      4460      4463      4462      4637      4460      4463      4464
      4637      4638      4639      4636      4637      4638      4639      4640
      4637      4642      4643      4640      4637      4642      4643      4644
      4638      4633      4634      4629      4638      4633      4634      4635
      4638      4637      4642      4641      4638      4637      4642      4643
      4638      4639      4640      4643      4639      4640      4643      4642
      4639      4640      4643      4644      4640      4643      4644      4647
      4641      4464      4467      4466      4641      4464      4467      4468
      4641      4642      4643      4640      4641      4642      4643      4644
      4641      4646      4647      4644      4641      4646      4647      4648
      4642      4637      4638      4633      4642      4637      4638      4639
      4642      4641      4646      4645      4642      4641      4646      4647
      4642      4643      4644      4647      4643      4644      4647      4646
      4643      4644      4647      4648      4644      4647      4648      4651
      4645      4468      4471      4470      4645      4468      4471      4472
      4645      4646      4647      4644      4645      4646      4647      4648
      4645      4650      4651      4648      4645      4650      4651      4652
      4646      4641      4642      4637      4646      4641      4642      4643
      4646      4645      4650      4649      4646      4645      4650      4651
      4646      4647      4648      4651      4647      4648      4651      4650
      4647      4648      4651      4652      4648      4651      4652      4655
      4649      4472      4475      4474      4649      4472      4475      4476
      4649      4650      4651      4648      4649      4650      4651      4652
      4649      4654      4655      4652      4649      4654      4655      4656
      4650      4645      4646      4641      4650      4645      4646      4647
      4650      4649      4654      4653      4650      4649      4654      4655
      4650      4651      4652      4655      4651      4652      4655      4654
      4651      4652      4655      4656      4652      4655      4656      4659
      4653      4476      4479      4478      4653      4476      4479      4480
      4653      4654      4655      4652      4653      4654      4655      4656
      4653      4658      4659      4656      4653      4658      4659      4660
      4654      4649      4650      4645      4654      4649      4650      4651
      4654      4653      4658      4657      4654      4653      4658      4659
      4654      4655      4656      4659      4655      4656      4659      4658
      4655      4656      4659      4660      4656      4659      4660      4663
      4657      4480      4483      4482      4657      4480      4483      4484
      4657      4658      4659      4656      4657      4658      4659      4660
      4657      4662      4663      4660      4657      4662      4663      4664
      4658      4653      4654      4649      4658      4653      4654      4655
      4658      4657      4662      4661      4658      4657      4662      4663
      4658      4659      4660      4663      4659      4660      4663      4662
      4659      4660      4663      4664      4660      4663      4664      4667
      4661      4484      4487      4486      4661      4484      4487      4488
      4661      4662      4663      4660      4661      4662      4663      4664
      4661      4666      4667      4664      4661      4666      4667      4668
      4662      4657      4658      4653      4662      4657      4658      4659
      4662      4661      4666      4665      4662      4661      4666      4667
      4662      4663      4664      4667      4663      4664      4667      4666
      4663      4664      4667      4668      4664      4667      4668      4671
      4665      4488      4491      4490      4665      4488      4491      4492
      4665      4666      4667      4664      4665      4666      4667      4668
      4665      4670      4671      4668      4665      4670      4671      4672
      4666      4661      4662      4657      4666      4661      4662      4663
      4666      4665      4670      4669      4666      4665      4670      4671
      4666      4667      4668      4671      4667      4668      4671      4670
      4667      4668      4671      4672      4668      4671      4672      4675
      4669      4492      4495      4494      4669      4492      4495      4496
      4669      4670      4671      4668      4669      4670      4671      4672
      4669      4674      4675      4672      4669      4674      4675      4676
      4670      4665      4666      4661      4670      4665      4666      4667
      4670      4669      4674      4673      4670      4669      4674      4675
      4670      4671      4672      4675      4671      4672      4675      4674
      4671      4672      4675      4676      4672      4675      4676      4679
      4673      4496      4499      4498      4673      4496      4499      4500
      4673      4674      4675      4672      4673      4674      4675      4676
      4673      4678      4679      4676      4673      4678      4679      4680
      4674      4669      4670      4665      4674      4669      4670      4671
      4674      4673      4678      4677      4674      4673      4678      4679
      4674      4675      4676      4679      4675      4676      4679      4678
      4675      4676      4679      4680      4677      4678      4679      4676
      4677      4678      4679      4680      4678      4673      4674      4669
      4678      4673      4674      4675      5056      5055      5059      5060
      5057      5055      5059      5060      5058      5055      5059      5060
      5062      5061      5065      5066      5063      5061      5065      5066
      5064      5061      5065      5066      5068      5067      5071      5072
      5069      5067      5071      5072      5070      5067      5071      5072
      5074      5073      5077      5078      5075      5073      5077      5078
      5076      5073      5077      5078      5080      5079      5083      5084
      5081      5079      5083      5084      5082      5079      5083      5084
      5086      5085      5089      5090      5087      5085      5089      5090
      5088      5085      5089      5090      5092      5091      5095      5096
      5093      5091      5095      5096      5094      5091      5095      5096
      5098      5097      5101      5102      5099      5097      5101      5102
      5100      5097      5101      5102      5104      5103      5107      5108
      5105      5103      5107      5108      5106      5103      5107      5108
      5110      5109      5113      5114      5111      5109      5113      5114
      5112      5109      5113      5114      5116      5115      5119      5120
      5117      5115      5119      5120      5118      5115      5119      5120
      5122      5121      5125      5126      5123      5121      5125      5126
      5124      5121      5125      5126      5128      5127      5131      5132
      5129      5127      5131      5132      5130      5127      5131      5132
      5134      5133      5137      5138      5135      5133      5137      5138
      5136      5133      5137      5138      5140      5139      5143      5144
      5141      5139      5143      5144      5142      5139      5143      5144
      5146      5145      5149      5150      5147      5145      5149      5150
      5148      5145      5149      5150      5152      5151      5155      5156
      5153      5151      5155      5156      5154      5151      5155      5156
      5158      5157      5161      5162      5159      5157      5161      5162
      5160      5157      5161      5162      5164      5163      5167      5168
      5165      5163      5167      5168      5166      5163      5167      5168
      5170      5169      5173      5174      5171      5169      5173      5174
      5172      5169      5173      5174      5176      5175      5179      5180
      5177      5175      5179      5180      5178      5175      5179      5180
      5182      5181      5185      5186      5183      5181      5185      5186
      5184      5181      5185      5186      5188      5187      5191      5192
      5189      5187      5191      5192      5190      5187      5191      5192
      5194      5193      5197      5198      5195      5193      5197      5198
      5196      5193      5197      5198      5200      5199      5203      5204
      5201      5199      5203      5204      5202      5199      5203      5204
      5206      5205      5209      5210      5207      5205      5209      5210
      5208      5205      5209      5210      5212      5211      5215      5216
      5213      5211      5215      5216      5214      5211      5215      5216
      5218      5217      5221      5222      5219      5217      5221      5222
      5220      5217      5221      5222      5224      5223      5227      5228
      5225      5223      5227      5228      5226      5223      5227      5228
      5230      5229      5233      5234      5231      5229      5233      5234
      5232      5229      5233      5234      5236      5235      5239      5240
      5237      5235      5239      5240      5238      5235      5239      5240
      5242      5241      5245      5246      5243      5241      5245      5246
      5244      5241      5245      5246      5248      5247      5251      5252
      5249      5247      5251      5252      5250      5247      5251      5252
      5254      5253      5257      5258      5255      5253      5257      5258
      5256      5253      5257      5258      5260      5259      5263      5264
      5261      5259      5263      5264      5262      5259      5263      5264
      5266      5265      5269      5270      5267      5265      5269      5270
      5268      5265      5269      5270      5272      5271      5275      5276
      5273      5271      5275      5276      5274      5271      5275      5276
      5278      5277      5281      5282      5279      5277      5281      5282
      5280      5277      5281      5282      5284      5283      5287      5288
      5285      5283      5287      5288      5286      5283      5287      5288
      5290      5289      5293      5294      5291      5289      5293      5294
      5292      5289      5293      5294      5296      5295      5299      5300
      5297      5295      5299      5300      5298      5295      5299      5300
      5302      5301      5305      5306      5303      5301      5305      5306
      5304      5301      5305      5306      5308      5307      5311      5312
      5309      5307      5311      5312      5310      5307      5311      5312
      5314      5313      5317      5318      5315      5313      5317      5318
      5316      5313      5317      5318      5320      5319      5323      5324
      5321      5319      5323      5324      5322      5319      5323      5324
      5326      5325      5329      5330      5327      5325      5329      5330
      5328      5325      5329      5330      5332      5331      5335      5336
      5333      5331      5335      5336      5334      5331      5335      5336
      5338      5337      5341      5342      5339      5337      5341      5342
      5340      5337      5341      5342      5344      5343      5347      5348
      5345      5343      5347      5348      5346      5343      5347      5348
      5350      5349      5353      5354      5351      5349      5353      5354
      5352      5349      5353      5354      5356      5355      5359      5360
      5357      5355      5359      5360      5358      5355      5359      5360
      5362      5361      5365      5366      5363      5361      5365      5366
      5364      5361      5365      5366      5368      5367      5371      5372
      5369      5367      5371      5372      5370      5367      5371      5372
      5374      5373      5377      5378      5375      5373      5377      5378
      5376      5373      5377      5378      5380      5379      5383      5384
      5381      5379      5383      5384      5382      5379      5383      5384
      5386      5385      5389      5390      5387      5385      5389      5390
      5388      5385      5389      5390      5392      5391      5395      5396
      5393      5391      5395      5396      5394      5391      5395      5396
      5398      5397      5401      5402      5399      5397      5401      5402
      5400      5397      5401      5402      5404      5403      5407      5408
      5405      5403      5407      5408      5406      5403      5407      5408
      5410      5409      5413      5414      5411      5409      5413      5414
      5412      5409      5413      5414      5416      5415      5419      5420
      5417      5415      5419      5420      5418      5415      5419      5420
      5422      5421      5425      5426      5423      5421      5425      5426
      5424      5421      5425      5426      5428      5427      5431      5432
      5429      5427      5431      5432      5430      5427      5431      5432
      5434      5433      5437      5438      5435      5433      5437      5438
      5436      5433      5437      5438      5440      5439      5443      5444
      5441      5439      5443      5444      5442      5439      5443      5444
      5446      5445      5449      5450      5447      5445      5449      5450
      5448      5445      5449      5450      5452      5451      5455      5456
      5453      5451      5455      5456      5454      5451      5455      5456
      5458      5457      5461      5462      5459      5457      5461      5462
      5460      5457      5461      5462      5464      5463      5467      5468
      5465      5463      5467      5468      5466      5463      5467      5468
      5470      5469      5473      5474      5471      5469      5473      5474
      5472      5469      5473      5474      5476      5475      5479      5480
      5477      5475      5479      5480      5478      5475      5479      5480
      5482      5481      5485      5486      5483      5481      5485      5486
      5484      5481      5485      5486      5488      5487      5491      5492
      5489      5487      5491      5492      5490      5487      5491      5492
      5494      5493      5497      5498      5495      5493      5497      5498
      5496      5493      5497      5498      5500      5499      5503      5504
      5501      5499      5503      5504      5502      5499      5503      5504
      5506      5505      5509      5510      5507      5505      5509      5510
      5508      5505      5509      5510      5512      5511      5515      5516
      5513      5511      5515      5516      5514      5511      5515      5516
      5518      5517      5521      5522      5519      5517      5521      5522
      5520      5517      5521      5522      5524      5523      5527      5528
      5525      5523      5527      5528      5526      5523      5527      5528
      5530      5529      5533      5534      5531      5529      5533      5534
      5532      5529      5533      5534      5536      5535      5539      5540
      5537      5535      5539      5540      5538      5535      5539      5540
      5542      5541      5545      5546      5543      5541      5545      5546
      5544      5541      5545      5546      5548      5547      5551      5552
      5549      5547      5551      5552      5550      5547      5551      5552
      5554      5553      5557      5558      5555      5553      5557      5558
      5556      5553      5557      5558      5560      5559      5563      5564
      5561      5559      5563      5564      5562      5559      5563      5564
      5566      5565      5569      5570      5567      5565      5569      5570
      5568      5565      5569      5570      5572      5571      5575      5576
      5573      5571      5575      5576      5574      5571      5575      5576
      5578      5577      5581      5582      5579      5577      5581      5582
      5580      5577      5581      5582      5584      5583      5587      5588
      5585      5583      5587      5588      5586      5583      5587      5588
      5590      5589      5593      5594      5591      5589      5593      5594
      5592      5589      5593      5594      5596      5595      5599      5600
      5597      5595      5599      5600      5598      5595      5599      5600
      5602      5601      5605      5606      5603      5601      5605      5606
      5604      5601      5605      5606      5608      5607      5611      5612
      5609      5607      5611      5612      5610      5607      5611      5612
      5614      5613      5617      5618      5615      5613      5617      5618
      5616      5613      5617      5618      5620      5619      5623      5624
      5621      5619      5623      5624      5622      5619      5623      5624
      5626      5625      5629      5630      5627      5625      5629      5630
      5628      5625      5629      5630      5632      5631      5635      5636
      5633      5631      5635      5636      5634      5631      5635      5636
      5638      5637      5641      5642      5639      5637      5641      5642
      5640      5637      5641      5642      5644      5643      5647      5648
      5645      5643      5647      5648      5646      5643      5647      5648
      5650      5649      5653      5654      5651      5649      5653      5654
      5652      5649      5653      5654      5656      5655      5659      5660
      5657      5655      5659      5660      5658      5655      5659      5660
      5662      5661      5665      5666      5663      5661      5665      5666
      5664      5661      5665      5666      5668      5667      5671      5672
      5669      5667      5671      5672      5670      5667      5671      5672
      5674      5673      5677      5678      5675      5673      5677      5678
      5676      5673      5677      5678      5680      5679      5683      5684
      5681      5679      5683      5684      5682      5679      5683      5684
      5686      5685      5689      5690      5687      5685      5689      5690
      5688      5685      5689      5690      5692      5691      5695      5696
      5693      5691      5695      5696      5694      5691      5695      5696
      5698      5697      5701      5702      5699      5697      5701      5702
      5700      5697      5701      5702      5704      5703      5707      5708
      5705      5703      5707      5708      5706      5703      5707      5708
      5710      5709      5713      5714      5711      5709      5713      5714
      5712      5709      5713      5714      5716      5715      5719      5720
      5717      5715      5719      5720      5718      5715      5719      5720
      5722      5721      5725      5726      5723      5721      5725      5726
      5724      5721      5725      5726      5728      5727      5731      5732
      5729      5727      5731      5732      5730      5727      5731      5732
      5734      5733      5737      5738      5735      5733      5737      5738
      5736      5733      5737      5738      5740      5739      5743      5744
      5741      5739      5743      5744      5742      5739      5743      5744
      5746      5745      5749      5750      5747      5745      5749      5750
      5748      5745      5749      5750      5752      5751      5755      5756
      5753      5751      5755      5756      5754      5751      5755      5756
      5758      5757      5761      5762      5759      5757      5761      5762
      5760      5757      5761      5762      5764      5763      5767      5768
      5765      5763      5767      5768      5766      5763      5767      5768
      5770      5769      5773      5774      5771      5769      5773      5774
      5772      5769      5773      5774      5776      5775      5779      5780
      5777      5775      5779      5780      5778      5775      5779      5780
      5782      5781      5785      5786      5783      5781      5785      5786
      5784      5781      5785      5786      5788      5787      5791      5792
      5789      5787      5791      5792      5790      5787      5791      5792
      5794      5793      5797      5798      5795      5793      5797      5798
      5796      5793      5797      5798      5800      5799      5803      5804
      5801      5799      5803      5804      5802      5799      5803      5804
      5806      5805      5809      5810      5807      5805      5809      5810
      5808      5805      5809      5810      5812      5811      5815      5816
      5813      5811      5815      5816      5814      5811      5815      5816
      5818      5817      5821      5822      5819      5817      5821      5822
      5820      5817      5821      5822      5824      5823      5827      5828
      5825      5823      5827      5828      5826      5823      5827      5828
      5830      5829      5833      5834      5831      5829      5833      5834
      5832      5829      5833      5834      5836      5835      5839      5840
      5837      5835      5839      5840      5838      5835      5839      5840
      5842      5841      5845      5846      5843      5841      5845      5846
      5844      5841      5845      5846      5848      5847      5851      5852
      5849      5847      5851      5852      5850      5847      5851      5852
      5854      5853      5857      5858      5855      5853      5857      5858
      5856      5853      5857      5858      5860      5859      5863      5864
      5861      5859      5863      5864      5862      5859      5863      5864
      5866      5865      5869      5870      5867      5865      5869      5870
      5868      5865      5869      5870      5872      5871      5875      5876
      5873      5871      5875      5876      5874      5871      5875      5876
      5878      5877      5881      5882      5879      5877      5881      5882
      5880      5877      5881      5882      5884      5883      5887      5888
      5885      5883      5887      5888      5886      5883      5887      5888
      5890      5889      5893      5894      5891      5889      5893      5894
      5892      5889      5893      5894      5896      5895      5899      5900
      5897      5895      5899      5900      5898      5895      5899      5900
      5902      5901      5905      5906      5903      5901      5905      5906
      5904      5901      5905      5906      5908      5907      5911      5912
      5909      5907      5911      5912      5910      5907      5911      5912
      5914      5913      5917      5918      5915      5913      5917      5918
      5916      5913      5917      5918      5920      5919      5923      5924
      5921      5919      5923      5924      5922      5919      5923      5924
      5926      5925      5929      5930      5927      5925      5929      5930
      5928      5925      5929      5930      5932      5931      5935      5936
      5933      5931      5935      5936      5934      5931      5935      5936
      5938      5937      5941      5942      5939      5937      5941      5942
      5940      5937      5941      5942      5944      5943      5947      5948
      5945      5943      5947      5948      5946      5943      5947      5948
      5950      5949      5953      5954      5951      5949      5953      5954
      5952      5949      5953      5954      5956      5955      5959      5960
      5957      5955      5959      5960      5958      5955      5959      5960
      5962      5961      5965      5966      5963      5961      5965      5966
      5964      5961      5965      5966      5968      5967      5971      5972
      5969      5967      5971      5972      5970      5967      5971      5972
      5974      5973      5977      5978      5975      5973      5977      5978
      5976      5973      5977      5978      5980      5979      5983      5984
      5981      5979      5983      5984      5982      5979      5983      5984
      5986      5985      5989      5990      5987      5985      5989      5990
      5988      5985      5989      5990      5992      5991      5995      5996
      5993      5991      5995      5996      5994      5991      5995      5996
      5998      5997      6001      6002      5999      5997      6001      6002
      6000      5997      6001      6002      6004      6003      6007      6008
      6005      6003      6007      6008      6006      6003      6007      6008
      6010      6009      6013      6014      6011      6009      6013      6014
      6012      6009      6013      6014      6016      6015      6019      6020
      6017      6015      6019      6020      6018      6015      6019      6020
      6022      6021      6025      6026      6023      6021      6025      6026
      6024      6021      6025      6026      6028      6027      6031      6032
      6029      6027      6031      6032      6030      6027      6031      6032
      6034      6033      6037      6038      6035      6033      6037      6038
      6036      6033      6037      6038      6040      6039      6043      6044
      6041      6039      6043      6044      6042      6039      6043      6044
      6046      6045      6049      6050      6047      6045      6049      6050
      6048      6045      6049      6050      6052      6051      6055      6056
      6053      6051      6055      6056      6054      6051      6055      6056
      6058      6057      6061      6062      6059      6057      6061      6062
      6060      6057      6061      6062      6064      6063      6067      6068
      6065      6063      6067      6068      6066      6063      6067      6068
      6070      6069      6073      6074      6071      6069      6073      6074
      6072      6069      6073      6074      6076      6075      6079      6080
      6077      6075      6079      6080      6078      6075      6079      6080
      6082      6081      6085      6086      6083      6081      6085      6086
      6084      6081      6085      6086      6088      6087      6091      6092
      6089      6087      6091      6092      6090      6087      6091      6092
      6094      6093      6097      6098      6095      6093      6097      6098
      6096      6093      6097      6098      6100      6099      6103      6104
      6101      6099      6103      6104      6102      6099      6103      6104
      6106      6105      6109      6110      6107      6105      6109      6110
      6108      6105      6109      6110      6112      6111      6115      6116
      6113      6111      6115      6116      6114      6111      6115      6116
      6118      6117      6121      6122      6119      6117      6121      6122
      6120      6117      6121      6122      6124      6123      6127      6128
      6125      6123      6127      6128      6126      6123      6127      6128
      6130      6129      6133      6134      6131      6129      6133      6134
      6132      6129      6133      6134      6136      6135      6139      6140
      6137      6135      6139      6140      6138      6135      6139      6140
      6142      6141      6145      6146      6143      6141      6145      6146
      6144      6141      6145      6146      6148      6147      6151      6152
      6149      6147      6151      6152      6150      6147      6151      6152
      6154      6153      6157      6158      6155      6153      6157      6158
      6156      6153      6157      6158      6160      6159      6163      6164
      6161      6159      6163      6164      6162      6159      6163      6164
      6166      6165      6169      6170      6167      6165      6169      6170
      6168      6165      6169      6170      6172      6171      6175      6176
      6173      6171      6175      6176      6174      6171      6175      6176
      6178      6177      6181      6182      6179      6177      6181      6182
      6180      6177      6181      6182      6184      6183      6187      6188
      6185      6183      6187      6188      6186      6183      6187      6188
      6190      6189      6193      6194      6191      6189      6193      6194
      6192      6189      6193      6194      6196      6195      6199      6200
      6197      6195      6199      6200      6198      6195      6199      6200
      6202      6201      6205      6206      6203      6201      6205      6206
      6204      6201      6205      6206      6208      6207      6211      6212
      6209      6207      6211      6212      6210      6207      6211      6212
      6214      6213      6217      6218      6215      6213      6217      6218
      6216      6213      6217      6218      6220      6219      6223      6224
      6221      6219      6223      6224      6222      6219      6223      6224
      6226      6225      6229      6230      6227      6225      6229      6230
      6228      6225      6229      6230      6232      6231      6235      6236
      6233      6231      6235      6236      6234      6231      6235      6236
      6238      6237      6241      6242      6239      6237      6241      6242
      6240      6237      6241      6242      6244      6243      6247      6248
      6245      6243      6247      6248      6246      6243      6247      6248
      6250      6249      6253      6254      6251      6249      6253      6254
      6252      6249      6253      6254      6256      6255      6259      6260
      6257      6255      6259      6260      6258      6255      6259      6260
      6262      6261      6265      6266      6263      6261      6265      6266
      6264      6261      6265      6266      6268      6267      6271      6272
      6269      6267      6271      6272      6270      6267      6271      6272
      6274      6273      6277      6278      6275      6273      6277      6278
      6276      6273      6277      6278      6280      6279      6283      6284
      6281      6279      6283      6284      6282      6279      6283      6284
      6286      6285      6289      6290      6287      6285      6289      6290
      6288      6285      6289      6290      6292      6291      6295      6296
      6293      6291      6295      6296      6294      6291      6295      6296
      6298      6297      6301      6302      6299      6297      6301      6302
      6300      6297      6301      6302      6304      6303      6307      6308
      6305      6303      6307      6308      6306      6303      6307      6308
      6310      6309      6313      6314      6311      6309      6313      6314
      6312      6309      6313      6314      6316      6315      6319      6320
      6317      6315      6319      6320      6318      6315      6319      6320
      6322      6321      6325      6326      6323      6321      6325      6326
      6324      6321      6325      6326      6328      6327      6331      6332
      6329      6327      6331      6332      6330      6327      6331      6332
      6334      6333      6337      6338      6335      6333      6337      6338
      6336      6333      6337      6338      6340      6339      6343      6344
      6341      6339      6343      6344      6342      6339      6343      6344
      6346      6345      6349      6350      6347      6345      6349      6350
      6348      6345      6349      6350      6352      6351      6355      6356
      6353      6351      6355      6356      6354      6351      6355      6356
      6358      6357      6361      6362      6359      6357      6361      6362
      6360      6357      6361      6362      6364      6363      6367      6368
      6365      6363      6367      6368      6366      6363      6367      6368
      6370      6369      6373      6374      6371      6369      6373      6374
      6372      6369      6373      6374      6376      6375      6379      6380
      6377      6375      6379      6380      6378      6375      6379      6380
      6382      6381      6385      6386      6383      6381      6385      6386
      6384      6381      6385      6386      6388      6387      6391      6392
      6389      6387      6391      6392      6390      6387      6391      6392
      6394      6393      6397      6398      6395      6393      6397      6398
      6396      6393      6397      6398      6400      6399      6403      6404
      6401      6399      6403      6404      6402      6399      6403      6404
      6406      6405      6409      6410      6407      6405      6409      6410
      6408      6405      6409      6410      6412      6411      6415      6416
      6413      6411      6415      6416      6414      6411      6415      6416
      6418      6417      6421      6422      6419      6417      6421      6422
      6420      6417      6421      6422      6424      6423      6427      6428
      6425      6423      6427      6428      6426      6423      6427      6428
      6430      6429      6433      6434      6431      6429      6433      6434
      6432      6429      6433      6434      6436      6435      6439      6440
      6437      6435      6439      6440      6438      6435      6439      6440
      6442      6441      6445      6446      6443      6441      6445      6446
      6444      6441      6445      6446      6448      6447      6451      6452
      6449      6447      6451      6452      6450      6447      6451      6452
      6454      6453      6457      6458      6455      6453      6457      6458
      6456      6453      6457      6458      6460      6459      6463      6464
      6461      6459      6463      6464      6462      6459      6463      6464
      6466      6465      6469      6470      6467      6465      6469      6470
      6468      6465      6469      6470      6472      6471      6475      6476
      6473      6471      6475      6476      6474      6471      6475      6476
      6478      6477      6481      6482      6479      6477      6481      6482
      6480      6477      6481      6482      6484      6483      6487      6488
      6485      6483      6487      6488      6486      6483      6487      6488
      6490      6489      6493      6494      6491      6489      6493      6494
      6492      6489      6493      6494      6496      6495      6499      6500
      6497      6495      6499      6500      6498      6495      6499      6500
      6502      6501      6505      6506      6503      6501      6505      6506
      6504      6501      6505      6506      6508      6507      6511      6512
      6509      6507      6511      6512      6510      6507      6511      6512
      6514      6513      6517      6518      6515      6513      6517      6518
      6516      6513      6517      6518      6520      6519      6523      6524
      6521      6519      6523      6524      6522      6519      6523      6524
      6526      6525      6529      6530      6527      6525      6529      6530
      6528      6525      6529      6530      6532      6531      6535      6536
      6533      6531      6535      6536      6534      6531      6535      6536
      6538      6537      6541      6542      6539      6537      6541      6542
      6540      6537      6541      6542      6544      6543      6547      6548
      6545      6543      6547      6548      6546      6543      6547      6548
      6550      6549      6553      6554      6551      6549      6553      6554
      6552      6549      6553      6554      6556      6555      6559      6560
      6557      6555      6559      6560      6558      6555      6559      6560
      6562      6561      6565      6566      6563      6561      6565      6566
      6564      6561      6565      6566      6568      6567      6571      6572
      6569      6567      6571      6572      6570      6567      6571      6572
      6574      6573      6577      6578      6575      6573      6577      6578
      6576      6573      6577      6578      6580      6579      6583      6584
      6581      6579      6583      6584      6582      6579      6583      6584
      6586      6585      6589      6590      6587      6585      6589      6590
      6588      6585      6589      6590      6592      6591      6595      6596
      6593      6591      6595      6596      6594      6591      6595      6596
      6598      6597      6601      6602      6599      6597      6601      6602
      6600      6597      6601      6602      6604      6603      6607      6608
      6605      6603      6607      6608      6606      6603      6607      6608
      6610      6609      6613      6614      6611      6609      6613      6614
      6612      6609      6613      6614      6616      6615      6619      6620
      6617      6615      6619      6620      6618      6615      6619      6620
      6622      6621      6625      6626      6623      6621      6625      6626
      6624      6621      6625      6626      6628      6627      6631      6632
      6629      6627      6631      6632      6630      6627      6631      6632
      6634      6633      6637      6638      6635      6633      6637      6638
      6636      6633      6637      6638      6640      6639      6643      6644
      6641      6639      6643      6644      6642      6639      6643      6644
      6646      6645      6649      6650      6647      6645      6649      6650
      6648      6645      6649      6650      6652      6651      6655      6656
      6653      6651      6655      6656      6654      6651      6655      6656
      6658      6657      6661      6662      6659      6657      6661      6662
      6660      6657      6661      6662      6664      6663      6667      6668
      6665      6663      6667      6668      6666      6663      6667      6668
      6670      6669      6673      6674      6671      6669      6673      6674
      6672      6669      6673      6674      6676      6675      6679      6680
      6677      6675      6679      6680      6678      6675      6679      6680
      6682      6681      6685      6686      6683      6681      6685      6686
      6684      6681      6685      6686      6688      6687      6691      6692
      6689      6687      6691      6692      6690      6687      6691      6692
      6694      6693      6697      6698      6695      6693      6697      6698
      6696      6693      6697      6698      6700      6699      6703      6704
      6701      6699      6703      6704      6702      6699      6703      6704
      6706      6705      6709      6710      6707      6705      6709      6710
      6708      6705      6709      6710      6712      6711      6715      6716
      6713      6711      6715      6716      6714      6711      6715      6716
      6718      6717      6721      6722      6719      6717      6721      6722
      6720      6717      6721      6722      6724      6723      6727      6728
      6725      6723      6727      6728      6726      6723      6727      6728
      6730      6729      6733      6734      6731      6729      6733      6734
      6732      6729      6733      6734      6736      6735      6739      6740
      6737      6735      6739      6740      6738      6735      6739      6740
      6742      6741      6745      6746      6743      6741      6745      6746
      6744      6741      6745      6746      6748      6747      6751      6752
      6749      6747      6751      6752      6750      6747      6751      6752
      6754      6753      6757      6758      6755      6753      6757      6758
      6756      6753      6757      6758      6760      6759      6763      6764
      6761      6759      6763      6764      6762      6759      6763      6764
      6766      6765      6769      6770      6767      6765      6769      6770
      6768      6765      6769      6770      6772      6771      6775      6776
      6773      6771      6775      6776      6774      6771      6775      6776
      6778      6777      6781      6782      6779      6777      6781      6782
      6780      6777      6781      6782      6784      6783      6787      6788
      6785      6783      6787      6788      6786      6783      6787      6788
      6790      6789      6793      6794      6791      6789      6793      6794
      6792      6789      6793      6794      6796      6795      6799      6800
      6797      6795      6799      6800      6798      6795      6799      6800
      6802      6801      6805      6806      6803      6801      6805      6806
      6804      6801      6805      6806      6808      6807      6811      6812
      6809      6807      6811      6812      6810      6807      6811      6812
      6814      6813      6817      6818      6815      6813      6817      6818
      6816      6813      6817      6818      6820      6819      6823      6824
      6821      6819      6823      6824      6822      6819      6823      6824
      6826      6825      6829      6830      6827      6825      6829      6830
      6828      6825      6829      6830      6832      6831      6835      6836
      6833      6831      6835      6836      6834      6831      6835      6836
      6838      6837      6841      6842      6839      6837      6841      6842
      6840      6837      6841      6842      6844      6843      6847      6848
      6845      6843      6847      6848      6846      6843      6847      6848
      6850      6849      6853      6854      6851      6849      6853      6854
      6852      6849      6853      6854      6856      6855      6859      6860
      6857      6855      6859      6860      6858      6855      6859      6860
      6862      6861      6865      6866      6863      6861      6865      6866
      6864      6861      6865      6866      6868      6867      6871      6872
      6869      6867      6871      6872      6870      6867      6871      6872
      6874      6873      6877      6878      6875      6873      6877      6878
      6876      6873      6877      6878      6880      6879      6883      6884
      6881      6879      6883      6884      6882      6879      6883      6884
      6886      6885      6889      6890      6887      6885      6889      6890
      6888      6885      6889      6890      6892      6891      6895      6896
      6893      6891      6895      6896      6894      6891      6895      6896
      6898      6897      6901      6902      6899      6897      6901      6902
      6900      6897      6901      6902      6904      6903      6907      6908
      6905      6903      6907      6908      6906      6903      6907      6908
      6910      6909      6913      6914      6911      6909      6913      6914
      6912      6909      6913      6914      6916      6915      6919      6920
      6917      6915      6919      6920      6918      6915      6919      6920
      6922      6921      6925      6926      6923      6921      6925      6926
      6924      6921      6925      6926      6928      6927      6931      6932
      6929      6927      6931      6932      6930      6927      6931      6932
      6934      6933      6937      6938      6935      6933      6937      6938
      6936      6933      6937      6938      6940      6939      6943      6944
      6941      6939      6943      6944      6942      6939      6943      6944
      6946      6945      6949      6950      6947      6945      6949      6950
      6948      6945      6949      6950      6952      6951      6955      6956
      6953      6951      6955      6956      6954      6951      6955      6956
      6958      6957      6961      6962      6959      6957      6961      6962
      6960      6957      6961      6962      6964      6963      6967      6968
      6965      6963      6967      6968      6966      6963      6967      6968
      6970      6969      6973      6974      6971      6969      6973      6974
      6972      6969      6973      6974      6976      6975      6979      6980
      6977      6975      6979      6980      6978      6975      6979      6980
      6982      6981      6985      6986      6983      6981      6985      6986
      6984      6981      6985      6986      6988      6987      6991      6992
      6989      6987      6991      6992      6990      6987      6991      6992
      6994      6993      6997      6998      6995      6993      6997      6998
      6996      6993      6997      6998      7000      6999      7003      7004
      7001      6999      7003      7004      7002      6999      7003      7004
      7006      7005      7009      7010      7007      7005      7009      7010
      7008      7005      7009      7010      7012      7011      7015      7016
      7013      7011      7015      7016      7014      7011      7015      7016
      7018      7017      7021      7022      7019      7017      7021      7022
      7020      7017      7021      7022      7024      7023      7027      7028
      7025      7023      7027      7028      7026      7023      7027      7028
      7030      7029      7033      7034      7031      7029      7033      7034
      7032      7029      7033      7034      7036      7035      7039      7040
      7037      7035      7039      7040      7038      7035      7039      7040
      7042      7041      7045      7046      7043      7041      7045      7046
      7044      7041      7045      7046      7048      7047      7051      7052
      7049      7047      7051      7052      7050      7047      7051      7052
      7054      7053      7057      7058      7055      7053      7057      7058
      7056      7053      7057      7058      7060      7059      7063      7064
      7061      7059      7063      7064      7062      7059      7063      7064
      7066      7065      7069      7070      7067      7065      7069      7070
      7068      7065      7069      7070      7072      7071      7075      7076
      7073      7071      7075      7076      7074      7071      7075      7076
      7078      7077      7081      7082      7079      7077      7081      7082
      7080      7077      7081      7082      7084      7083      7087      7088
      7085      7083      7087      7088      7086      7083      7087      7088
      7090      7089      7093      7094      7091      7089      7093      7094
      7092      7089      7093      7094      7096      7095      7099      7100
      7097      7095      7099      7100      7098      7095      7099      7100
      7102      7101      7105      7106      7103      7101      7105      7106
      7104      7101      7105      7106      7108      7107      7111      7112
      7109      7107      7111      7112      7110      7107      7111      7112
      7114      7113      7117      7118      7115      7113      7117      7118
      7116      7113      7117      7118      7120      7119      7123      7124
      7121      7119      7123      7124      7122      7119      7123      7124
      7126      7125      7129      7130      7127      7125      7129      7130
      7128      7125      7129      7130      7132      7131      7135      7136
      7133      7131      7135      7136      7134      7131      7135      7136
      7138      7137      7141      7142      7139      7137      7141      7142
      7140      7137      7141      7142      7144      7143      7147      7148
      7145      7143      7147      7148      7146      7143      7147      7148
      7150      7149      7153      7154      7151      7149      7153      7154
      7152      7149      7153      7154      7156      7155      7159      7160
      7157      7155      7159      7160      7158      7155      7159      7160
      7162      7161      7165      7166      7163      7161      7165      7166
      7164      7161      7165      7166      7168      7167      7171      7172
      7169      7167      7171      7172      7170      7167      7171      7172
      7174      7173      7177      7178      7175      7173      7177      7178
      7176      7173      7177      7178      7180      7179      7183      7184
      7181      7179      7183      7184      7182      7179      7183      7184
      7186      7185      7189      7190      7187      7185      7189      7190
      7188      7185      7189      7190      7192      7191      7195      7196
      7193      7191      7195      7196      7194      7191      7195      7196
      7198      7197      7201      7202      7199      7197      7201      7202
      7200      7197      7201      7202      7204      7203      7207      7208
      7205      7203      7207      7208      7206      7203      7207      7208
      7210      7209      7213      7214      7211      7209      7213      7214
      7212      7209      7213      7214      7216      7215      7219      7220
      7217      7215      7219      7220      7218      7215      7219      7220
      7222      7221      7225      7226      7223      7221      7225      7226
      7224      7221      7225      7226      7228      7227      7231      7232
      7229      7227      7231      7232      7230      7227      7231      7232
      7234      7233      7237      7238      7235      7233      7237      7238
      7236      7233      7237      7238      7240      7239      7243      7244
      7241      7239      7243      7244      7242      7239      7243      7244
      7246      7245      7249      7250      7247      7245      7249      7250
      7248      7245      7249      7250      7252      7251      7255      7256
      7253      7251      7255      7256      7254      7251      7255      7256
      7258      7257      7261      7262      7259      7257      7261      7262
      7260      7257      7261      7262      7264      7263      7267      7268
      7265      7263      7267      7268      7266      7263      7267      7268
      7270      7269      7273      7274      7271      7269      7273      7274
      7272      7269      7273      7274      7276      7275      7279      7280
      7277      7275      7279      7280      7278      7275      7279      7280
      7282      7281      7285      7286      7283      7281      7285      7286
      7284      7281      7285      7286      7288      7287      7291      7292
      7289      7287      7291      7292      7290      7287      7291      7292
      7294      7293      7297      7298      7295      7293      7297      7298
      7296      7293      7297      7298      7300      7299      7303      7304
      7301      7299      7303      7304      7302      7299      7303      7304
      7306      7305      7309      7310      7307      7305      7309      7310
      7308      7305      7309      7310      7312      7311      7315      7316
      7313      7311      7315      7316      7314      7311      7315      7316
      7318      7317      7321      7322      7319      7317      7321      7322
      7320      7317      7321      7322      7324      7323      7327      7328
      7325      7323      7327      7328      7326      7323      7327      7328
      7330      7329      7333      7334      7331      7329      7333      7334
      7332      7329      7333      7334      7336      7335      7339      7340
      7337      7335      7339      7340      7338      7335      7339      7340
      7342      7341      7345      7346      7343      7341      7345      7346
      7344      7341      7345      7346      7348      7347      7351      7352
      7349      7347      7351      7352      7350      7347      7351      7352
      7354      7353      7357      7358      7355      7353      7357      7358
      7356      7353      7357      7358      7360      7359      7363      7364
      7361      7359      7363      7364      7362      7359      7363      7364
      7366      7365      7369      7370      7367      7365      7369      7370
      7368      7365      7369      7370      7372      7371      7375      7376
      7373      7371      7375      7376      7374      7371      7375      7376
      7378      7377      7381      7382      7379      7377      7381      7382
      7380      7377      7381      7382      7384      7383      7387      7388
      7385      7383      7387      7388      7386      7383      7387      7388
      7390      7389      7393      7394      7391      7389      7393      7394
      7392      7389      7393      7394      7396      7395      7399      7400
      7397      7395      7399      7400      7398      7395      7399      7400
      7402      7401      7405      7406      7403      7401      7405      7406
      7404      7401      7405      7406      7408      7407      7411      7412
      7409      7407      7411      7412      7410      7407      7411      7412
      7414      7413      7417      7418      7415      7413      7417      7418
      7416      7413      7417      7418      7420      7419      7423      7424
      7421      7419      7423      7424      7422      7419      7423      7424
      7426      7425      7429      7430      7427      7425      7429      7430
      7428      7425      7429      7430      7432      7431      7435      7436
      7433      7431      7435      7436      7434      7431      7435      7436
      7438      7437      7441      7442      7439      7437      7441      7442
      7440      7437      7441      7442      7444      7443      7447      7448
      7445      7443      7447      7448      7446      7443      7447      7448
      7450      7449      7453      7454      7451      7449      7453      7454
      7452      7449      7453      7454      7456      7455      7459      7460
      7457      7455      7459      7460      7458      7455      7459      7460
      7462      7461      7465      7466      7463      7461      7465      7466
      7464      7461      7465      7466      7468      7467      7471      7472
      7469      7467      7471      7472      7470      7467      7471      7472
      7474      7473      7477      7478      7475      7473      7477      7478
      7476      7473      7477      7478      7480      7479      7483      7484
      7481      7479      7483      7484      7482      7479      7483      7484
      7486      7485      7489      7490      7487      7485      7489      7490
      7488      7485      7489      7490      7492      7491      7495      7496
      7493      7491      7495      7496      7494      7491      7495      7496
      7498      7497      7501      7502      7499      7497      7501      7502
      7500      7497      7501      7502      7504      7503      7507      7508
      7505      7503      7507      7508      7506      7503      7507      7508
      7510      7509      7513      7514      7511      7509      7513      7514
      7512      7509      7513      7514      7516      7515      7519      7520
      7517      7515      7519      7520      7518      7515      7519      7520
      7522      7521      7525      7526      7523      7521      7525      7526
      7524      7521      7525      7526      7528      7527      7531      7532
      7529      7527      7531      7532      7530      7527      7531      7532
      7534      7533      7537      7538      7535      7533      7537      7538
      7536      7533      7537      7538      7540      7539      7543      7544
      7541      7539      7543      7544      7542      7539      7543      7544
      7546      7545      7549      7550      7547      7545      7549      7550
      7548      7545      7549      7550      7552      7551      7555      7556
      7553      7551      7555      7556      7554      7551      7555      7556
      7558      7557      7561      7562      7559      7557      7561      7562
      7560      7557      7561      7562      7564      7563      7567      7568
      7565      7563      7567      7568      7566      7563      7567      7568
      7570      7569      7573      7574      7571      7569      7573      7574
      7572      7569      7573      7574      7576      7575      7579      7580
      7577      7575      7579      7580      7578      7575      7579      7580
      7582      7581      7585      7586      7583      7581      7585      7586
      7584      7581      7585      7586      7588      7587      7591      7592
      7589      7587      7591      7592      7590      7587      7591      7592
      7594      7593      7597      7598      7595      7593      7597      7598
      7596      7593      7597      7598      7600      7599      7603      7604
      7601      7599      7603      7604      7602      7599      7603      7604
      7606      7605      7609      7610      7607      7605      7609      7610
      7608      7605      7609      7610      7612      7611      7615      7616
      7613      7611      7615      7616      7614      7611      7615      7616
      7618      7617      7621      7622      7619      7617      7621      7622
      7620      7617      7621      7622      7624      7623      7627      7628
      7625      7623      7627      7628      7626      7623      7627      7628
      7630      7629      7633      7634      7631      7629      7633      7634
      7632      7629      7633      7634      7636      7635      7639      7640
      7637      7635      7639      7640      7638      7635      7639      7640
      7642      7641      7645      7646      7643      7641      7645      7646
      7644      7641      7645      7646      7648      7647      7651      7652
      7649      7647      7651      7652      7650      7647      7651      7652
      7654      7653      7657      7658      7655      7653      7657      7658
      7656      7653      7657      7658      7660      7659      7663      7664
      7661      7659      7663      7664      7662      7659      7663      7664
      7666      7665      7669      7670      7667      7665      7669      7670
      7668      7665      7669      7670      7672      7671      7675      7676
      7673      7671      7675      7676      7674      7671      7675      7676
      7678      7677      7681      7682      7679      7677      7681      7682
      7680      7677      7681      7682      7684      7683      7687      7688
      7685      7683      7687      7688      7686      7683      7687      7688
      7690      7689      7693      7694      7691      7689      7693      7694
      7692      7689      7693      7694      7696      7695      7699      7700
      7697      7695      7699      7700      7698      7695      7699      7700
      7702      7701      7705      7706      7703      7701      7705      7706
      7704      7701      7705      7706      7708      7707      7711      7712
      7709      7707      7711      7712      7710      7707      7711      7712
      7714      7713      7717      7718      7715      7713      7717      7718
      7716      7713      7717      7718      7720      7719      7723      7724
      7721      7719      7723      7724      7722      7719      7723      7724
      7726      7725      7729      7730      7727      7725      7729      7730
      7728      7725      7729      7730      7732      7731      7735      7736
      7733      7731      7735      7736      7734      7731      7735      7736
      7738      7737      7741      7742      7739      7737      7741      7742
      7740      7737      7741      7742      7744      7743      7747      7748
      7745      7743      7747      7748      7746      7743      7747      7748
      7750      7749      7753      7754      7751      7749      7753      7754
      7752      7749      7753      7754      7756      7755      7759      7760
      7757      7755      7759      7760      7758      7755      7759      7760
      7762      7761      7765      7766      7763      7761      7765      7766
      7764      7761      7765      7766      7768      7767      7771      7772
      7769      7767      7771      7772      7770      7767      7771      7772
      7774      7773      7777      7778      7775      7773      7777      7778
      7776      7773      7777      7778      7780      7779      7783      7784
      7781      7779      7783      7784      7782      7779      7783      7784
      7786      7785      7789      7790      7787      7785      7789      7790
      7788      7785      7789      7790      7792      7791      7795      7796
      7793      7791      7795      7796      7794      7791      7795      7796
      7798      7797      7801      7802      7799      7797      7801      7802
      7800      7797      7801      7802      7804      7803      7807      7808
      7805      7803      7807      7808      7806      7803      7807      7808
      7810      7809      7813      7814      7811      7809      7813      7814
      7812      7809      7813      7814      7816      7815      7819      7820
      7817      7815      7819      7820      7818      7815      7819      7820
      7822      7821      7825      7826      7823      7821      7825      7826
      7824      7821      7825      7826      7828      7827      7831      7832
      7829      7827      7831      7832      7830      7827      7831      7832
      7834      7833      7837      7838      7835      7833      7837      7838
      7836      7833      7837      7838      7840      7839      7843      7844
      7841      7839      7843      7844      7842      7839      7843      7844
      7846      7845      7849      7850      7847      7845      7849      7850
      7848      7845      7849      7850      7852      7851      7855      7856
      7853      7851      7855      7856      7854      7851      7855      7856
      7858      7857      7861      7862      7859      7857      7861      7862
      7860      7857      7861      7862      7864      7863      7867      7868
      7865      7863      7867      7868      7866      7863      7867      7868
      7870      7869      7873      7874      7871      7869      7873      7874
      7872      7869      7873      7874      7876      7875      7879      7880
      7877      7875      7879      7880      7878      7875      7879      7880
      7882      7881      7885      7886      7883      7881      7885      7886
      7884      7881      7885      7886      7888      7887      7891      7892
      7889      7887      7891      7892      7890      7887      7891      7892
      7894      7893      7897      7898      7895      7893      7897      7898
      7896      7893      7897      7898      7900      7899      7903      7904
      7901      7899      7903      7904      7902      7899      7903      7904
      7906      7905      7909      7910      7907      7905      7909      7910
      7908      7905      7909      7910      7912      7911      7915      7916
      7913      7911      7915      7916      7914      7911      7915      7916
      7918      7917      7921      7922      7919      7917      7921      7922
      7920      7917      7921      7922      7924      7923      7927      7928
      7925      7923      7927      7928      7926      7923      7927      7928
      7930      7929      7933      7934      7931      7929      7933      7934
      7932      7929      7933      7934      7936      7935      7939      7940
      7937      7935      7939      7940      7938      7935      7939      7940
      7942      7941      7945      7946      7943      7941      7945      7946
      7944      7941      7945      7946      7948      7947      7951      7952
      7949      7947      7951      7952      7950      7947      7951      7952
      7954      7953      7957      7958      7955      7953      7957      7958
      7956      7953      7957      7958      7960      7959      7963      7964
      7961      7959      7963      7964      7962      7959      7963      7964
      7966      7965      7969      7970      7967      7965      7969      7970
      7968      7965      7969      7970      7972      7971      7975      7976
      7973      7971      7975      7976      7974      7971      7975      7976
      7978      7977      7981      7982      7979      7977      7981      7982
      7980      7977      7981      7982      7984      7983      7987      7988
      7985      7983      7987      7988      7986      7983      7987      7988
      7990      7989      7993      7994      7991      7989      7993      7994
      7992      7989      7993      7994      7996      7995      7999      8000
      7997      7995      7999      8000      7998      7995      7999      8000
      8002      8001      8005      8006      8003      8001      8005      8006
      8004      8001      8005      8006      8008      8007      8011      8012
      8009      8007      8011      8012      8010      8007      8011      8012
      8014      8013      8017      8018      8015      8013      8017      8018
      8016      8013      8017      8018      8020      8019      8023      8024
      8021      8019      8023      8024      8022      8019      8023      8024
      8026      8025      8029      8030      8027      8025      8029      8030
      8028      8025      8029      8030      8032      8031      8035      8036
      8033      8031      8035      8036      8034      8031      8035      8036
      8038      8037      8041      8042      8039      8037      8041      8042
      8040      8037      8041      8042      8044      8043      8047      8048
      8045      8043      8047      8048      8046      8043      8047      8048
      8050      8049      8053      8054      8051      8049      8053      8054
      8052      8049      8053      8054      8056      8055      8059      8060
      8057      8055      8059      8060      8058      8055      8059      8060
      8062      8061      8065      8066      8063      8061      8065      8066
      8064      8061      8065      8066      8068      8067      8071      8072
      8069      8067      8071      8072      8070      8067      8071      8072
      8074      8073      8077      8078      8075      8073      8077      8078
      8076      8073      8077      8078      8080      8079      8083      8084
      8081      8079      8083      8084      8082      8079      8083      8084
      8086      8085      8089      8090      8087      8085      8089      8090
      8088      8085      8089      8090      8092      8091      8095      8096
      8093      8091      8095      8096      8094      8091      8095      8096
      8098      8097      8101      8102      8099      8097      8101      8102
      8100      8097      8101      8102      8104      8103      8107      8108
      8105      8103      8107      8108      8106      8103      8107      8108
      8110      8109      8113      8114      8111      8109      8113      8114
      8112      8109      8113      8114      8116      8115      8119      8120
      8117      8115      8119      8120      8118      8115      8119      8120
      8122      8121      8125      8126      8123      8121      8125      8126
      8124      8121      8125      8126      8128      8127      8131      8132
      8129      8127      8131      8132      8130      8127      8131      8132
      8134      8133      8137      8138      8135      8133      8137      8138
      8136      8133      8137      8138      8140      8139      8143      8144
      8141      8139      8143      8144      8142      8139      8143      8144
      8146      8145      8149      8150      8147      8145      8149      8150
      8148      8145      8149      8150      8152      8151      8155      8156
      8153      8151      8155      8156      8154      8151      8155      8156
      8158      8157      8161      8162      8159      8157      8161      8162
      8160      8157      8161      8162      8164      8163      8167      8168
      8165      8163      8167      8168      8166      8163      8167      8168
      8170      8169      8173      8174      8171      8169      8173      8174
      8172      8169      8173      8174      8176      8175      8179      8180
      8177      8175      8179      8180      8178      8175      8179      8180
      8182      8181      8185      8186      8183      8181      8185      8186
      8184      8181      8185      8186      8188      8187      8191      8192
      8189      8187      8191      8192      8190      8187      8191      8192
      8194      8193      8197      8198      8195      8193      8197      8198
      8196      8193      8197      8198      8200      8199      8203      8204
      8201      8199      8203      8204      8202      8199      8203      8204
      8206      8205      8209      8210      8207      8205      8209      8210
      8208      8205      8209      8210      8212      8211      8215      8216
      8213      8211      8215      8216      8214      8211      8215      8216
      8218      8217      8221      8222      8219      8217      8221      8222
      8220      8217      8221      8222      8224      8223      8227      8228
      8225      8223      8227      8228      8226      8223      8227      8228
      8230      8229      8233      8234      8231      8229      8233      8234
      8232      8229      8233      8234      8236      8235      8239      8240
      8237      8235      8239      8240      8238      8235      8239      8240
      8242      8241      8245      8246      8243      8241      8245      8246
      8244      8241      8245      8246      8248      8247      8251      8252
      8249      8247      8251      8252      8250      8247      8251      8252
      8254      8253      8257      8258      8255      8253      8257      8258
      8256      8253      8257      8258      8260      8259      8263      8264
      8261      8259      8263      8264      8262      8259      8263      8264
      8266      8265      8269      8270      8267      8265      8269      8270
      8268      8265      8269      8270      8272      8271      8275      8276
      8273      8271      8275      8276      8274      8271      8275      8276
      8278      8277      8281      8282      8279      8277      8281      8282
      8280      8277      8281      8282      8284      8283      8287      8288
      8285      8283      8287      8288      8286      8283      8287      8288
      8290      8289      8293      8294      8291      8289      8293      8294
      8292      8289      8293      8294      8296      8295      8299      8300
      8297      8295      8299      8300      8298      8295      8299      8300
      8302      8301      8305      8306      8303      8301      8305      8306
      8304      8301      8305      8306      8308      8307      8311      8312
      8309      8307      8311      8312      8310      8307      8311      8312
      8314      8313      8317      8318      8315      8313      8317      8318
      8316      8313      8317      8318      8320      8319      8323      8324
      8321      8319      8323      8324      8322      8319      8323      8324
      8326      8325      8329      8330      8327      8325      8329      8330
      8328      8325      8329      8330      8332      8331      8335      8336
      8333      8331      8335      8336      8334      8331      8335      8336
      8338      8337      8341      8342      8339      8337      8341      8342
      8340      8337      8341      8342      8344      8343      8347      8348
      8345      8343      8347      8348      8346      8343      8347      8348
      8350      8349      8353      8354      8351      8349      8353      8354
      8352      8349      8353      8354      8356      8355      8359      8360
      8357      8355      8359      8360      8358      8355      8359      8360
      8362      8361      8365      8366      8363      8361      8365      8366
      8364      8361      8365      8366      8368      8367      8371      8372
      8369      8367      8371      8372      8370      8367      8371      8372
      8374      8373      8377      8378      8375      8373      8377      8378
      8376      8373      8377      8378      8380      8379      8383      8384
      8381      8379      8383      8384      8382      8379      8383      8384
      8386      8385      8389      8390      8387      8385      8389      8390
      8388      8385      8389      8390      8392      8391      8395      8396
      8393      8391      8395      8396      8394      8391      8395      8396
      8398      8397      8401      8402      8399      8397      8401      8402
      8400      8397      8401      8402      8404      8403      8407      8408
      8405      8403      8407      8408      8406      8403      8407      8408
      8410      8409      8413      8414      8411      8409      8413      8414
      8412      8409      8413      8414      8416      8415      8419      8420
      8417      8415      8419      8420      8418      8415      8419      8420
      8422      8421      8425      8426      8423      8421      8425      8426
      8424      8421      8425      8426      8428      8427      8431      8432
      8429      8427      8431      8432      8430      8427      8431      8432
      8434      8433      8437      8438      8435      8433      8437      8438
      8436      8433      8437      8438      8440      8439      8443      8444
      8441      8439      8443      8444      8442      8439      8443      8444
      8446      8445      8449      8450      8447      8445      8449      8450
      8448      8445      8449      8450      8452      8451      8455      8456
      8453      8451      8455      8456      8454      8451      8455      8456
      8458      8457      8461      8462      8459      8457      8461      8462
      8460      8457      8461      8462      8464      8463      8467      8468
      8465      8463      8467      8468      8466      8463      8467      8468
      8470      8469      8473      8474      8471      8469      8473      8474
      8472      8469      8473      8474      8476      8475      8479      8480
      8477      8475      8479      8480      8478      8475      8479      8480
      8482      8481      8485      8486      8483      8481      8485      8486
      8484      8481      8485      8486      8488      8487      8491      8492
      8489      8487      8491      8492      8490      8487      8491      8492
      8494      8493      8497      8498      8495      8493      8497      8498
      8496      8493      8497      8498      8500      8499      8503      8504
      8501      8499      8503      8504      8502      8499      8503      8504
      8506      8505      8509      8510      8507      8505      8509      8510
      8508      8505      8509      8510      8512      8511      8515      8516
      8513      8511      8515      8516      8514      8511      8515      8516
      8518      8517      8521      8522      8519      8517      8521      8522
      8520      8517      8521      8522      8524      8523      8527      8528
      8525      8523      8527      8528      8526      8523      8527      8528
      8530      8529      8533      8534      8531      8529      8533      8534
      8532      8529      8533      8534      8536      8535      8539      8540
      8537      8535      8539      8540      8538      8535      8539      8540
      8542      8541      8545      8546      8543      8541      8545      8546
      8544      8541      8545      8546      8548      8547      8551      8552
      8549      8547      8551      8552      8550      8547      8551      8552
      8554      8553      8557      8558      8555      8553      8557      8558
      8556      8553      8557      8558      8560      8559      8563      8564
      8561      8559      8563      8564      8562      8559      8563      8564
      8566      8565      8569      8570      8567      8565      8569      8570
      8568      8565      8569      8570      8572      8571      8575      8576
      8573      8571      8575      8576      8574      8571      8575      8576
      8578      8577      8581      8582      8579      8577      8581      8582
      8580      8577      8581      8582      8584      8583      8587      8588
      8585      8583      8587      8588      8586      8583      8587      8588
      8590      8589      8593      8594      8591      8589      8593      8594
      8592      8589      8593      8594      8596      8595      8599      8600
      8597      8595      8599      8600      8598      8595      8599      8600
      8602      8601      8605      8606      8603      8601      8605      8606
      8604      8601      8605      8606      8608      8607      8611      8612
      8609      8607      8611      8612      8610      8607      8611      8612
      8614      8613      8617      8618      8615      8613      8617      8618
      8616      8613      8617      8618      8620      8619      8623      8624
      8621      8619      8623      8624      8622      8619      8623      8624
      8626      8625      8629      8630      8627      8625      8629      8630
      8628      8625      8629      8630      8632      8631      8635      8636
      8633      8631      8635      8636      8634      8631      8635      8636
      8638      8637      8641      8642      8639      8637      8641      8642
      8640      8637      8641      8642      8644      8643      8647      8648
      8645      8643      8647      8648      8646      8643      8647      8648
      8650      8649      8653      8654      8651      8649      8653      8654
      8652      8649      8653      8654      8656      8655      8659      8660
      8657      8655      8659      8660      8658      8655      8659      8660
      8662      8661      8665      8666      8663      8661      8665      8666
      8664      8661      8665      8666      8668      8667      8671      8672
      8669      8667      8671      8672      8670      8667      8671      8672
      8674      8673      8677      8678      8675      8673      8677      8678
      8676      8673      8677      8678      8680      8679      8683      8684
      8681      8679      8683      8684      8682      8679      8683      8684
      8686      8685      8689      8690      8687      8685      8689      8690
      8688      8685      8689      8690      8692      8691      8695      8696
      8693      8691      8695      8696      8694      8691      8695      8696
      8698      8697      8701      8702      8699      8697      8701      8702
      8700      8697      8701      8702      8704      8703      8707      8708
      8705      8703      8707      8708      8706      8703      8707      8708
      8710      8709      8713      8714      8711      8709      8713      8714
      8712      8709      8713      8714      8716      8715      8719      8720
      8717      8715      8719      8720      8718      8715      8719      8720
      8722      8721      8725      8726      8723      8721      8725      8726
      8724      8721      8725      8726      8728      8727      8731      8732
      8729      8727      8731      8732      8730      8727      8731      8732
      8734      8733      8737      8738      8735      8733      8737      8738
      8736      8733      8737      8738      8740      8739      8743      8744
      8741      8739      8743      8744      8742      8739      8743      8744
      8746      8745      8749      8750      8747      8745      8749      8750
      8748      8745      8749      8750      8752      8751      8755      8756
      8753      8751      8755      8756      8754      8751      8755      8756
      8758      8757      8761      8762      8759      8757      8761      8762
      8760      8757      8761      8762      8764      8763      8767      8768
      8765      8763      8767      8768      8766      8763      8767      8768
      8770      8769      8773      8774      8771      8769      8773      8774
      8772      8769      8773      8774      8776      8775      8779      8780
      8777      8775      8779      8780      8778      8775      8779      8780
      8782      8781      8785      8786      8783      8781      8785      8786
      8784      8781      8785      8786      8788      8787      8791      8792
      8789      8787      8791      8792      8790      8787      8791      8792
      8794      8793      8797      8798      8795      8793      8797      8798
      8796      8793      8797      8798      8800      8799      8803      8804
      8801      8799      8803      8804      8802      8799      8803      8804
      8806      8805      8809      8810      8807      8805      8809      8810
      8808      8805      8809      8810      8812      8811      8815      8816
      8813      8811      8815      8816      8814      8811      8815      8816
      8818      8817      8821      8822      8819      8817      8821      8822
      8820      8817      8821      8822      8824      8823      8827      8828
      8825      8823      8827      8828      8826      8823      8827      8828
      8830      8829      8833      8834      8831      8829      8833      8834
      8832      8829      8833      8834      8836      8835      8839      8840
      8837      8835      8839      8840      8838      8835      8839      8840
      8842      8841      8845      8846      8843      8841      8845      8846
      8844      8841      8845      8846      8848      8847      8851      8852
      8849      8847      8851      8852      8850      8847      8851      8852
      8854      8853      8857      8858      8855      8853      8857      8858
      8856      8853      8857      8858      8860      8859      8863      8864
      8861      8859      8863      8864      8862      8859      8863      8864
      8866      8865      8869      8870      8867      8865      8869      8870
      8868      8865      8869      8870      8872      8871      8875      8876
      8873      8871      8875      8876      8874      8871      8875      8876
      8878      8877      8881      8882      8879      8877      8881      8882
      8880      8877      8881      8882      8884      8883      8887      8888
      8885      8883      8887      8888      8886      8883      8887      8888
      8890      8889      8893      8894      8891      8889      8893      8894
      8892      8889      8893      8894      8896      8895      8899      8900
      8897      8895      8899      8900      8898      8895      8899      8900
      8902      8901      8905      8906      8903      8901      8905      8906
      8904      8901      8905      8906      8908      8907      8911      8912
      8909      8907      8911      8912      8910      8907      8911      8912
      8914      8913      8917      8918      8915      8913      8917      8918
      8916      8913      8917      8918      8920      8919      8923      8924
      8921      8919      8923      8924      8922      8919      8923      8924
      8926      8925      8929      8930      8927      8925      8929      8930
      8928      8925      8929      8930      8932      8931      8935      8936
      8933      8931      8935      8936      8934      8931      8935      8936
      8938      8937      8941      8942      8939      8937      8941      8942
      8940      8937      8941      8942      8944      8943      8947      8948
      8945      8943      8947      8948      8946      8943      8947      8948
      8950      8949      8953      8954      8951      8949      8953      8954
      8952      8949      8953      8954      8956      8955      8959      8960
      8957      8955      8959      8960      8958      8955      8959      8960
      8962      8961      8965      8966      8963      8961      8965      8966
      8964      8961      8965      8966      8968      8967      8971      8972
      8969      8967      8971      8972      8970      8967      8971      8972
      8974      8973      8977      8978      8975      8973      8977      8978
      8976      8973      8977      8978      8980      8979      8983      8984
      8981      8979      8983      8984      8982      8979      8983      8984
      8986      8985      8989      8990      8987      8985      8989      8990
      8988      8985      8989      8990      8992      8991      8995      8996
      8993      8991      8995      8996      8994      8991      8995      8996
      8998      8997      9001      9002      8999      8997      9001      9002
      9000      8997      9001      9002      9004      9003      9007      9008
      9005      9003      9007      9008      9006      9003      9007      9008
      9010      9009      9013      9014      9011      9009      9013      9014
      9012      9009      9013      9014      9016      9015      9019      9020
      9017      9015      9019      9020      9018      9015      9019      9020
      9022      9021      9025      9026      9023      9021      9025      9026
      9024      9021      9025      9026      9028      9027      9031      9032
      9029      9027      9031      9032      9030      9027      9031      9032
      9034      9033      9037      9038      9035      9033      9037      9038
      9036      9033      9037      9038      9040      9039      9043      9044
      9041      9039      9043      9044      9042      9039      9043      9044
      9046      9045      9049      9050      9047      9045      9049      9050
      9048      9045      9049      9050      9052      9051      9055      9056
      9053      9051      9055      9056      9054      9051      9055      9056
      9058      9057      9061      9062      9059      9057      9061      9062
      9060      9057      9061      9062      9064      9063      9067      9068
      9065      9063      9067      9068      9066      9063      9067      9068
      9070      9069      9073      9074      9071      9069      9073      9074
      9072      9069      9073      9074      9076      9075      9079      9080
      9077      9075      9079      9080      9078      9075      9079      9080
      9082      9081      9085      9086      9083      9081      9085      9086
      9084      9081      9085      9086      9088      9087      9091      9092
      9089      9087      9091      9092      9090      9087      9091      9092
      9094      9093      9097      9098      9095      9093      9097      9098
      9096      9093      9097      9098      9100      9099      9103      9104
      9101      9099      9103      9104      9102      9099      9103      9104
      9106      9105      9109      9110      9107      9105      9109      9110
      9108      9105      9109      9110      9112      9111      9115      9116
      9113      9111      9115      9116      9114      9111      9115      9116
      9118      9117      9121      9122      9119      9117      9121      9122
      9120      9117      9121      9122      9124      9123      9127      9128
      9125      9123      9127      9128      9126      9123      9127      9128
      9130      9129      9133      9134      9131      9129      9133      9134
      9132      9129      9133      9134      9136      9135      9139      9140
      9137      9135      9139      9140      9138      9135      9139      9140
      9142      9141      9145      9146      9143      9141      9145      9146
      9144      9141      9145      9146      9148      9147      9151      9152
      9149      9147      9151      9152      9150      9147      9151      9152
      9154      9153      9157      9158      9155      9153      9157      9158
      9156      9153      9157      9158      9160      9159      9163      9164
      9161      9159      9163      9164      9162      9159      9163      9164
      9166      9165      9169      9170      9167      9165      9169      9170
      9168      9165      9169      9170      9172      9171      9175      9176
      9173      9171      9175      9176      9174      9171      9175      9176
      9178      9177      9181      9182      9179      9177      9181      9182
      9180      9177      9181      9182      9184      9183      9187      9188
      9185      9183      9187      9188      9186      9183      9187      9188
      9190      9189      9193      9194      9191      9189      9193      9194
      9192      9189      9193      9194      9196      9195      9199      9200
      9197      9195      9199      9200      9198      9195      9199      9200
      9202      9201      9205      9206      9203      9201      9205      9206
      9204      9201      9205      9206      9208      9207      9211      9212
      9209      9207      9211      9212      9210      9207      9211      9212
      9214      9213      9217      9218      9215      9213      9217      9218
      9216      9213      9217      9218      9220      9219      9223      9224
      9221      9219      9223      9224      9222      9219      9223      9224
      9226      9225      9229      9230      9227      9225      9229      9230
      9228      9225      9229      9230      9232      9231      9235      9236
      9233      9231      9235      9236      9234      9231      9235      9236
      9238      9237      9241      9242      9239      9237      9241      9242
      9240      9237      9241      9242      9244      9243      9247      9248
      9245      9243      9247      9248      9246      9243      9247      9248
      9250      9249      9253      9254      9251      9249      9253      9254
      9252      9249      9253      9254      9256      9255      9259      9260
      9257      9255      9259      9260      9258      9255      9259      9260
      9262      9261      9265      9266      9263      9261      9265      9266
      9264      9261      9265      9266      9268      9267      9271      9272
      9269      9267      9271      9272      9270      9267      9271      9272
      9274      9273      9277      9278      9275      9273      9277      9278
      9276      9273      9277      9278      9280      9279      9283      9284
      9281      9279      9283      9284      9282      9279      9283      9284
      9286      9285      9289      9290      9287      9285      9289      9290
      9288      9285      9289      9290      9292      9291      9295      9296
      9293      9291      9295      9296      9294      9291      9295      9296
      9298      9297      9301      9302      9299      9297      9301      9302
      9300      9297      9301      9302      9304      9303      9307      9308
      9305      9303      9307      9308      9306      9303      9307      9308
      9310      9309      9313      9314      9311      9309      9313      9314
      9312      9309      9313      9314      9316      9315      9319      9320
      9317      9315      9319      9320      9318      9315      9319      9320
      9322      9321      9325      9326      9323      9321      9325      9326
      9324      9321      9325      9326      9328      9327      9331      9332
      9329      9327      9331      9332      9330      9327      9331      9332
      9334      9333      9337      9338      9335      9333      9337      9338
      9336      9333      9337      9338      9340      9339      9343      9344
      9341      9339      9343      9344      9342      9339      9343      9344
      9346      9345      9349      9350      9347      9345      9349      9350
      9348      9345      9349      9350      9352      9351      9355      9356
      9353      9351      9355      9356      9354      9351      9355      9356
      9358      9357      9361      9362      9359      9357      9361      9362
      9360      9357      9361      9362      9364      9363      9367      9368
      9365      9363      9367      9368      9366      9363      9367      9368
      9370      9369      9373      9374      9371      9369      9373      9374
      9372      9369      9373      9374      9376      9375      9379      9380
      9377      9375      9379      9380      9378      9375      9379      9380
      9382      9381      9385      9386      9383      9381      9385      9386
      9384      9381      9385      9386      9388      9387      9391      9392
      9389      9387      9391      9392      9390      9387      9391      9392
      9394      9393      9397      9398      9395      9393      9397      9398
      9396      9393      9397      9398      9400      9399      9403      9404
      9401      9399      9403      9404      9402      9399      9403      9404
      9406      9405      9409      9410      9407      9405      9409      9410
      9408      9405      9409      9410      9412      9411      9415      9416
      9413      9411      9415      9416      9414      9411      9415      9416
      9418      9417      9421      9422      9419      9417      9421      9422
      9420      9417      9421      9422      9424      9423      9427      9428
      9425      9423      9427      9428      9426      9423      9427      9428
      9430      9429      9433      9434      9431      9429      9433      9434
      9432      9429      9433      9434      9436      9435      9439      9440
      9437      9435      9439      9440      9438      9435      9439      9440
      9442      9441      9445      9446      9443      9441      9445      9446
      9444      9441      9445      9446      9448      9447      9451      9452
      9449      9447      9451      9452      9450      9447      9451      9452
      9454      9453      9457      9458      9455      9453      9457      9458
      9456      9453      9457      9458      9460      9459      9463      9464
      9461      9459      9463      9464      9462      9459      9463      9464
      9466      9465      9469      9470      9467      9465      9469      9470
      9468      9465      9469      9470      9472      9471      9475      9476
      9473      9471      9475      9476      9474      9471      9475      9476
      9478      9477      9481      9482      9479      9477      9481      9482
      9480      9477      9481      9482      9484      9483      9487      9488
      9485      9483      9487      9488      9486      9483      9487      9488
      9490      9489      9493      9494      9491      9489      9493      9494
      9492      9489      9493      9494      9496      9495      9499      9500
      9497      9495      9499      9500      9498      9495      9499      9500
      9502      9501      9505      9506      9503      9501      9505      9506
      9504      9501      9505      9506      9508      9507      9511      9512
      9509      9507      9511      9512      9510      9507      9511      9512
      9514      9513      9517      9518      9515      9513      9517      9518
      9516      9513      9517      9518      9520      9519      9523      9524
      9521      9519      9523      9524      9522      9519      9523      9524
      9526      9525      9529      9530      9527      9525      9529      9530
      9528      9525      9529      9530      9532      9531      9535      9536
      9533      9531      9535      9536      9534      9531      9535      9536
      9538      9537      9541      9542      9539      9537      9541      9542
      9540      9537      9541      9542      9544      9543      9547      9548
      9545      9543      9547      9548      9546      9543      9547      9548
      9550      9549      9553      9554      9551      9549      9553      9554
      9552      9549      9553      9554      9556      9555      9559      9560
      9557      9555      9559      9560      9558      9555      9559      9560
      9562      9561      9565      9566      9563      9561      9565      9566
      9564      9561      9565      9566      9568      9567      9571      9572
      9569      9567      9571      9572      9570      9567      9571      9572
      9574      9573      9577      9578      9575      9573      9577      9578
      9576      9573      9577      9578      9580      9579      9583      9584
      9581      9579      9583      9584      9582      9579      9583      9584
      9586      9585      9589      9590      9587      9585      9589      9590
      9588      9585      9589      9590      9592      9591      9595      9596
      9593      9591      9595      9596      9594      9591      9595      9596
      9598      9597      9601      9602      9599      9597      9601      9602
      9600      9597      9601      9602      9604      9603      9607      9608
      9605      9603      9607      9608      9606      9603      9607      9608
      9610      9609      9613      9614      9611      9609      9613      9614
      9612      9609      9613      9614      9616      9615      9619      9620
      9617      9615      9619      9620      9618      9615      9619      9620
      9622      9621      9625      9626      9623      9621      9625      9626
      9624      9621      9625      9626      9628      9627      9631      9632
      9629      9627      9631      9632      9630      9627      9631      9632
      9634      9633      9637      9638      9635      9633      9637      9638
      9636      9633      9637      9638      9640      9639      9643      9644
      9641      9639      9643      9644      9642      9639      9643      9644
      9646      9645      9649      9650      9647      9645      9649      9650
      9648      9645      9649      9650      9652      9651      9655      9656
      9653      9651      9655      9656      9654      9651      9655      9656
      9658      9657      9661      9662      9659      9657      9661      9662
      9660      9657      9661      9662      9664      9663      9667      9668
      9665      9663      9667      9668      9666      9663      9667      9668
      9670      9669      9673      9674      9671      9669      9673      9674
      9672      9669      9673      9674      9676      9675      9679      9680
      9677      9675      9679      9680      9678      9675      9679      9680
      9682      9681      9685      9686      9683      9681      9685      9686
      9684      9681      9685      9686      9688      9687      9691      9692
      9689      9687      9691      9692      9690      9687      9691      9692
      9694      9693      9697      9698      9695      9693      9697      9698
      9696      9693      9697      9698      9700      9699      9703      9704
      9701      9699      9703      9704      9702      9699      9703      9704
      9706      9705      9709      9710      9707      9705      9709      9710
      9708      9705      9709      9710      9712      9711      9715      9716
      9713      9711      9715      9716      9714      9711      9715      9716
      9718      9717      9721      9722      9719      9717      9721      9722
      9720      9717      9721      9722      9724      9723      9727      9728
      9725      9723      9727      9728      9726      9723      9727      9728
      9730      9729      9733      9734      9731      9729      9733      9734
      9732      9729      9733      9734      9736      9735      9739      9740
      9737      9735      9739      9740      9738      9735      9739      9740
      9742      9741      9745      9746      9743      9741      9745      9746
      9744      9741      9745      9746      9748      9747      9751      9752
      9749      9747      9751      9752      9750      9747      9751      9752
      9754      9753      9757      9758      9755      9753      9757      9758
      9756      9753      9757      9758      9760      9759      9763      9764
      9761      9759      9763      9764      9762      9759      9763      9764
      9766      9765      9769      9770      9767      9765      9769      9770
      9768      9765      9769      9770      9772      9771      9775      9776
      9773      9771      9775      9776      9774      9771      9775      9776
      9778      9777      9781      9782      9779      9777      9781      9782
      9780      9777      9781      9782      9784      9783      9787      9788
      9785      9783      9787      9788      9786      9783      9787      9788
      9790      9789      9793      9794      9791      9789      9793      9794
      9792      9789      9793      9794      9796      9795      9799      9800
      9797      9795      9799      9800      9798      9795      9799      9800
      9802      9801      9805      9806      9803      9801      9805      9806
      9804      9801      9805      9806      9808      9807      9811      9812
      9809      9807      9811      9812      9810      9807      9811      9812
      9814      9813      9817      9818      9815      9813      9817      9818
      9816      9813      9817      9818      9820      9819      9823      9824
      9821      9819      9823      9824      9822      9819      9823      9824
      9826      9825      9829      9830      9827      9825      9829      9830
      9828      9825      9829      9830      9832      9831      9835      9836
      9833      9831      9835      9836      9834      9831      9835      9836
      9838      9837      9841      9842      9839      9837      9841      9842
      9840      9837      9841      9842      9844      9843      9847      9848
      9845      9843      9847      9848      9846      9843      9847      9848
      9850      9849      9853      9854      9851      9849      9853      9854
      9852      9849      9853      9854      9856      9855      9859      9860
      9857      9855      9859      9860      9858      9855      9859      9860
      9862      9861      9865      9866      9863      9861      9865      9866
      9864      9861      9865      9866      9868      9867      9871      9872
      9869      9867      9871      9872      9870      9867      9871      9872
      9874      9873      9877      9878      9875      9873      9877      9878
      9876      9873      9877      9878      9880      9879      9883      9884
      9881      9879      9883      9884      9882      9879      9883      9884
      9886      9885      9889      9890      9887      9885      9889      9890
      9888      9885      9889      9890      9892      9891      9895      9896
      9893      9891      9895      9896      9894      9891      9895      9896
      9898      9897      9901      9902      9899      9897      9901      9902
      9900      9897      9901      9902      9904      9903      9907      9908
      9905      9903      9907      9908      9906      9903      9907      9908
      9910      9909      9913      9914      9911      9909      9913      9914
      9912      9909      9913      9914      9916      9915      9919      9920
      9917      9915      9919      9920      9918      9915      9919      9920
      9922      9921      9925      9926      9923      9921      9925      9926
      9924      9921      9925      9926      9928      9927      9931      9932
      9929      9927      9931      9932      9930      9927      9931      9932
      9934      9933      9937      9938      9935      9933      9937      9938
      9936      9933      9937      9938      9940      9939      9943      9944
      9941      9939      9943      9944      9942      9939      9943      9944
      9946      9945      9949      9950      9947      9945      9949      9950
      9948      9945      9949      9950      9952      9951      9955      9956
      9953      9951      9955      9956      9954      9951      9955      9956
      9958      9957      9961      9962      9959      9957      9961      9962
      9960      9957      9961      9962      9964      9963      9967      9968
      9965      9963      9967      9968      9966      9963      9967      9968
      9970      9969      9973      9974      9971      9969      9973      9974
      9972      9969      9973      9974      9976      9975      9979      9980
      9977      9975      9979      9980      9978      9975      9979      9980
      9982      9981      9985      9986      9983      9981      9985      9986
      9984      9981      9985      9986      9988      9987      9991      9992
      9989      9987      9991      9992      9990      9987      9991      9992
      9994      9993      9997      9998      9995      9993      9997      9998
      9996      9993      9997      9998     10000      9999     10003     10004
     10001      9999     10003     10004     10002      9999     10003     10004
     10006     10005     10009     10010     10007     10005     10009     10010
     10008     10005     10009     10010     10012     10011     10015     10016
     10013     10011     10015     10016     10014     10011     10015     10016
     10018     10017     10021     10022     10019     10017     10021     10022
     10020     10017     10021     10022     10024     10023     10027     10028
     10025     10023     10027     10028     10026     10023     10027     10028
     10030     10029     10033     10034     10031     10029     10033     10034
     10032     10029     10033     10034     10036     10035     10039     10040
     10037     10035     10039     10040     10038     10035     10039     10040
     10042     10041     10045     10046     10043     10041     10045     10046
     10044     10041     10045     10046     10048     10047     10051     10052
     10049     10047     10051     10052     10050     10047     10051     10052
     10054     10053     10057     10058     10055     10053     10057     10058
     10056     10053     10057     10058     10060     10059     10063     10064
     10061     10059     10063     10064     10062     10059     10063     10064
     10066     10065     10069     10070     10067     10065     10069     10070
     10068     10065     10069     10070     10072     10071     10075     10076
     10073     10071     10075     10076     10074     10071     10075     10076
     10078     10077     10081     10082     10079     10077     10081     10082
     10080     10077     10081     10082     10084     10083     10087     10088
     10085     10083     10087     10088     10086     10083     10087     10088
     10090     10089     10093     10094     10091     10089     10093     10094
     10092     10089     10093     10094     10096     10095     10099     10100
     10097     10095     10099     10100     10098     10095     10099     10100
     10102     10101     10105     10106     10103     10101     10105     10106
     10104     10101     10105     10106     10108     10107     10111     10112
     10109     10107     10111     10112     10110     10107     10111     10112
     10114     10113     10117     10118     10115     10113     10117     10118
     10116     10113     10117     10118     10120     10119     10123     10124
     10121     10119     10123     10124     10122     10119     10123     10124
     10126     10125     10129     10130     10127     10125     10129     10130
     10128     10125     10129     10130     10132     10131     10135     10136
     10133     10131     10135     10136     10134     10131     10135     10136
     10138     10137     10141     10142     10139     10137     10141     10142
     10140     10137     10141     10142     10144     10143     10147     10148
     10145     10143     10147     10148     10146     10143     10147     10148
     10150     10149     10153     10154     10151     10149     10153     10154
     10152     10149     10153     10154     10156     10155     10159     10160
     10157     10155     10159     10160     10158     10155     10159     10160
     10162     10161     10165     10166     10163     10161     10165     10166
     10164     10161     10165     10166     10168     10167     10171     10172
     10169     10167     10171     10172     10170     10167     10171     10172
     10174     10173     10177     10178     10175     10173     10177     10178
     10176     10173     10177     10178     10180     10179     10183     10184
     10181     10179     10183     10184     10182     10179     10183     10184
     10186     10185     10189     10190     10187     10185     10189     10190
     10188     10185     10189     10190     10192     10191     10195     10196
     10193     10191     10195     10196     10194     10191     10195     10196
     10198     10197     10201     10202     10199     10197     10201     10202
     10200     10197     10201     10202     10204     10203     10207     10208
     10205     10203     10207     10208     10206     10203     10207     10208
     10210     10209     10213     10214     10211     10209     10213     10214
     10212     10209     10213     10214     10216     10215     10219     10220
     10217     10215     10219     10220     10218     10215     10219     10220
     10222     10221     10225     10226     10223     10221     10225     10226
     10224     10221     10225     10226     10228     10227     10231     10232
     10229     10227     10231     10232     10230     10227     10231     10232
     10234     10233     10237     10238     10235     10233     10237     10238
     10236     10233     10237     10238     10240     10239     10243     10244
     10241     10239     10243     10244     10242     10239     10243     10244
     10246     10245     10249     10250     10247     10245     10249     10250
     10248     10245     10249     10250     10252     10251     10255     10256
     10253     10251     10255     10256     10254     10251     10255     10256
     10258     10257     10261     10262     10259     10257     10261     10262
     10260     10257     10261     10262     10264     10263     10267     10268
     10265     10263     10267     10268     10266     10263     10267     10268
     10270     10269     10273     10274     10271     10269     10273     10274
     10272     10269     10273     10274     10276     10275     10279     10280
     10277     10275     10279     10280     10278     10275     10279     10280
     10282     10281     10285     10286     10283     10281     10285     10286
     10284     10281     10285     10286     10288     10287     10291     10292
     10289     10287     10291     10292     10290     10287     10291     10292
     10294     10293     10297     10298     10295     10293     10297     10298
     10296     10293     10297     10298     10300     10299     10303     10304
     10301     10299     10303     10304     10302     10299     10303     10304
     10306     10305     10309     10310     10307     10305     10309     10310
     10308     10305     10309     10310     10312     10311     10315     10316
     10313     10311     10315     10316     10314     10311     10315     10316
     10318     10317     10321     10322     10319     10317     10321     10322
     10320     10317     10321     10322     10324     10323     10327     10328
     10325     10323     10327     10328     10326     10323     10327     10328
     10330     10329     10333     10334     10331     10329     10333     10334
     10332     10329     10333     10334     10336     10335     10339     10340
     10337     10335     10339     10340     10338     10335     10339     10340
     10342     10341     10345     10346     10343     10341     10345     10346
     10344     10341     10345     10346     10348     10347     10351     10352
     10349     10347     10351     10352     10350     10347     10351     10352
     10354     10353     10357     10358     10355     10353     10357     10358
     10356     10353     10357     10358     10360     10359     10363     10364
     10361     10359     10363     10364     10362     10359     10363     10364
     10366     10365     10369     10370     10367     10365     10369     10370
     10368     10365     10369     10370     10372     10371     10375     10376
     10373     10371     10375     10376     10374     10371     10375     10376
     10378     10377     10381     10382     10379     10377     10381     10382
     10380     10377     10381     10382     10384     10383     10387     10388
     10385     10383     10387     10388     10386     10383     10387     10388
     10390     10389     10393     10394     10391     10389     10393     10394
     10392     10389     10393     10394     10396     10395     10399     10400
     10397     10395     10399     10400     10398     10395     10399     10400
     10402     10401     10405     10406     10403     10401     10405     10406
     10404     10401     10405     10406     10408     10407     10411     10412
     10409     10407     10411     10412     10410     10407     10411     10412
     10414     10413     10417     10418     10415     10413     10417     10418
     10416     10413     10417     10418     10420     10419     10423     10424
     10421     10419     10423     10424     10422     10419     10423     10424
     10426     10425     10429     10430     10427     10425     10429     10430
     10428     10425     10429     10430     10432     10431     10435     10436
     10433     10431     10435     10436     10434     10431     10435     10436
     10438     10437     10441     10442     10439     10437     10441     10442
     10440     10437     10441     10442     10444     10443     10447     10448
     10445     10443     10447     10448     10446     10443     10447     10448
     10450     10449     10453     10454     10451     10449     10453     10454
     10452     10449     10453     10454     10456     10455     10459     10460
     10457     10455     10459     10460     10458     10455     10459     10460
     10462     10461     10465     10466     10463     10461     10465     10466
     10464     10461     10465     10466     10468     10467     10471     10472
     10469     10467     10471     10472     10470     10467     10471     10472
     10474     10473     10477     10478     10475     10473     10477     10478
     10476     10473     10477     10478     10480     10479     10483     10484
     10481     10479     10483     10484     10482     10479     10483     10484
     10486     10485     10489     10490     10487     10485     10489     10490
     10488     10485     10489     10490     10492     10491     10495     10496
     10493     10491     10495     10496     10494     10491     10495     10496
     10498     10497     10501     10502     10499     10497     10501     10502
     10500     10497     10501     10502     10504     10503     10507     10508
     10505     10503     10507     10508     10506     10503     10507     10508
     10510     10509     10513     10514     10511     10509     10513     10514
     10512     10509     10513     10514     10516     10515     10519     10520
     10517     10515     10519     10520     10518     10515     10519     10520
     10522     10521     10525     10526     10523     10521     10525     10526
     10524     10521     10525     10526     10528     10527     10531     10532
     10529     10527     10531     10532     10530     10527     10531     10532
     10534     10533     10537     10538     10535     10533     10537     10538
     10536     10533     10537     10538     10540     10539     10543     10544
     10541     10539     10543     10544     10542     10539     10543     10544
     10546     10545     10549     10550     10547     10545     10549     10550
     10548     10545     10549     10550     10552     10551     10555     10556
     10553     10551     10555     10556     10554     10551     10555     10556
     10558     10557     10561     10562     10559     10557     10561     10562
     10560     10557     10561     10562     10564     10563     10567     10568
     10565     10563     10567     10568     10566     10563     10567     10568
     10570     10569     10573     10574     10571     10569     10573     10574
     10572     10569     10573     10574     10576     10575     10579     10580
     10577     10575     10579     10580     10578     10575     10579     10580
     10582     10581     10585     10586     10583     10581     10585     10586
     10584     10581     10585     10586     10588     10587     10591     10592
     10589     10587     10591     10592     10590     10587     10591     10592
     10594     10593     10597     10598     10595     10593     10597     10598
     10596     10593     10597     10598     10600     10599     10603     10604
     10601     10599     10603     10604     10602     10599     10603     10604
     10606     10605     10609     10610     10607     10605     10609     10610
     10608     10605     10609     10610     10612     10611     10615     10616
     10613     10611     10615     10616     10614     10611     10615     10616
     10618     10617     10621     10622     10619     10617     10621     10622
     10620     10617     10621     10622     10624     10623     10627     10628
     10625     10623     10627     10628     10626     10623     10627     10628
     10630     10629     10633     10634     10631     10629     10633     10634
     10632     10629     10633     10634     10636     10635     10639     10640
     10637     10635     10639     10640     10638     10635     10639     10640
     10642     10641     10645     10646     10643     10641     10645     10646
     10644     10641     10645     10646     10648     10647     10651     10652
     10649     10647     10651     10652     10650     10647     10651     10652
     10654     10653     10657     10658     10655     10653     10657     10658
     10656     10653     10657     10658     10660     10659     10663     10664
     10661     10659     10663     10664     10662     10659     10663     10664
     10666     10665     10669     10670     10667     10665     10669     10670
     10668     10665     10669     10670     10672     10671     10675     10676
     10673     10671     10675     10676     10674     10671     10675     10676
     10678     10677     10681     10682     10679     10677     10681     10682
     10680     10677     10681     10682     10684     10683     10687     10688
     10685     10683     10687     10688     10686     10683     10687     10688
     10690     10689     10693     10694     10691     10689     10693     10694
     10692     10689     10693     10694     10696     10695     10699     10700
     10697     10695     10699     10700     10698     10695     10699     10700
     10702     10701     10705     10706     10703     10701     10705     10706
     10704     10701     10705     10706     10708     10707     10711     10712
     10709     10707     10711     10712     10710     10707     10711     10712
     10714     10713     10717     10718     10715     10713     10717     10718
     10716     10713     10717     10718     10720     10719     10723     10724
     10721     10719     10723     10724     10722     10719     10723     10724
     10726     10725     10729     10730     10727     10725     10729     10730
     10728     10725     10729     10730     10732     10731     10735     10736
     10733     10731     10735     10736     10734     10731     10735     10736
     10738     10737     10741     10742     10739     10737     10741     10742
     10740     10737     10741     10742     10744     10743     10747     10748
     10745     10743     10747     10748     10746     10743     10747     10748
     10750     10749     10753     10754     10751     10749     10753     10754
     10752     10749     10753     10754     10756     10755     10759     10760
     10757     10755     10759     10760     10758     10755     10759     10760
     10762     10761     10765     10766     10763     10761     10765     10766
     10764     10761     10765     10766     10768     10767     10771     10772
     10769     10767     10771     10772     10770     10767     10771     10772
     10774     10773     10777     10778     10775     10773     10777     10778
     10776     10773     10777     10778     10780     10779     10783     10784
     10781     10779     10783     10784     10782     10779     10783     10784
     10786     10785     10789     10790     10787     10785     10789     10790
     10788     10785     10789     10790     10792     10791     10795     10796
     10793     10791     10795     10796     10794     10791     10795     10796
     10798     10797     10801     10802     10799     10797     10801     10802
     10800     10797     10801     10802     10804     10803     10807     10808
     10805     10803     10807     10808     10806     10803     10807     10808
     10810     10809     10813     10814     10811     10809     10813     10814
     10812     10809     10813     10814     10816     10815     10819     10820
     10817     10815     10819     10820     10818     10815     10819     10820
     10822     10821     10825     10826     10823     10821     10825     10826
     10824     10821     10825     10826     10828     10827     10831     10832
     10829     10827     10831     10832     10830     10827     10831     10832
     10834     10833     10837     10838     10835     10833     10837     10838
     10836     10833     10837     10838     10840     10839     10843     10844
     10841     10839     10843     10844     10842     10839     10843     10844
     10846     10845     10849     10850     10847     10845     10849     10850
     10848     10845     10849     10850     10852     10851     10855     10856
     10853     10851     10855     10856     10854     10851     10855     10856
     10858     10857     10861     10862     10859     10857     10861     10862
     10860     10857     10861     10862     10864     10863     10867     10868
     10865     10863     10867     10868     10866     10863     10867     10868
     10870     10869     10873     10874     10871     10869     10873     10874
     10872     10869     10873     10874     10876     10875     10879     10880
     10877     10875     10879     10880     10878     10875     10879     10880
     10882     10881     10885     10886     10883     10881     10885     10886
     10884     10881     10885     10886     10888     10887     10891     10892
     10889     10887     10891     10892     10890     10887     10891     10892
     10894     10893     10897     10898     10895     10893     10897     10898
     10896     10893     10897     10898     10900     10899     10903     10904
     10901     10899     10903     10904     10902     10899     10903     10904
     10906     10905     10909     10910     10907     10905     10909     10910
     10908     10905     10909     10910     10912     10911     10915     10916
     10913     10911     10915     10916     10914     10911     10915     10916
     10918     10917     10921     10922     10919     10917     10921     10922
     10920     10917     10921     10922     10924     10923     10927     10928
     10925     10923     10927     10928     10926     10923     10927     10928
     10930     10929     10933     10934     10931     10929     10933     10934
     10932     10929     10933     10934     10936     10935     10939     10940
     10937     10935     10939     10940     10938     10935     10939     10940
     10942     10941     10945     10946     10943     10941     10945     10946
     10944     10941     10945     10946     10948     10947     10951     10952
     10949     10947     10951     10952     10950     10947     10951     10952
     10954     10953     10957     10958     10955     10953     10957     10958
     10956     10953     10957     10958     10960     10959     10963     10964
     10961     10959     10963     10964     10962     10959     10963     10964
     10966     10965     10969     10970     10967     10965     10969     10970
     10968     10965     10969     10970     10972     10971     10975     10976
     10973     10971     10975     10976     10974     10971     10975     10976
     10978     10977     10981     10982     10979     10977     10981     10982
     10980     10977     10981     10982     10984     10983     10987     10988
     10985     10983     10987     10988     10986     10983     10987     10988
     10990     10989     10993     10994     10991     10989     10993     10994
     10992     10989     10993     10994     10996     10995     10999     11000
     10997     10995     10999     11000     10998     10995     10999     11000
     11002     11001     11005     11006     11003     11001     11005     11006
     11004     11001     11005     11006     11008     11007     11011     11012
     11009     11007     11011     11012     11010     11007     11011     11012
     11014     11013     11017     11018     11015     11013     11017     11018
     11016     11013     11017     11018     11020     11019     11023     11024
     11021     11019     11023     11024     11022     11019     11023     11024
     11026     11025     11029     11030     11027     11025     11029     11030
     11028     11025     11029     11030     11032     11031     11035     11036
     11033     11031     11035     11036     11034     11031     11035     11036
     11038     11037     11041     11042     11039     11037     11041     11042
     11040     11037     11041     11042     11044     11043     11047     11048
     11045     11043     11047     11048     11046     11043     11047     11048
     11050     11049     11053     11054     11051     11049     11053     11054
     11052     11049     11053     11054     11056     11055     11059     11060
     11057     11055     11059     11060     11058     11055     11059     11060
     11062     11061     11065     11066     11063     11061     11065     11066
     11064     11061     11065     11066     11068     11067     11071     11072
     11069     11067     11071     11072     11070     11067     11071     11072
     11074     11073     11077     11078     11075     11073     11077     11078
     11076     11073     11077     11078     11080     11079     11083     11084
     11081     11079     11083     11084     11082     11079     11083     11084
     11086     11085     11089     11090     11087     11085     11089     11090
     11088     11085     11089     11090     11092     11091     11095     11096
     11093     11091     11095     11096     11094     11091     11095     11096
     11098     11097     11101     11102     11099     11097     11101     11102
     11100     11097     11101     11102     11104     11103     11107     11108
     11105     11103     11107     11108     11106     11103     11107     11108
     11110     11109     11113     11114     11111     11109     11113     11114
     11112     11109     11113     11114     11116     11115     11119     11120
     11117     11115     11119     11120     11118     11115     11119     11120
     11122     11121     11125     11126     11123     11121     11125     11126
     11124     11121     11125     11126     11128     11127     11131     11132
     11129     11127     11131     11132     11130     11127     11131     11132
     11134     11133     11137     11138     11135     11133     11137     11138
     11136     11133     11137     11138     11140     11139     11143     11144
     11141     11139     11143     11144     11142     11139     11143     11144
     11146     11145     11149     11150     11147     11145     11149     11150
     11148     11145     11149     11150     11152     11151     11155     11156
     11153     11151     11155     11156     11154     11151     11155     11156
     11158     11157     11161     11162     11159     11157     11161     11162
     11160     11157     11161     11162     11164     11163     11167     11168
     11165     11163     11167     11168     11166     11163     11167     11168
     11170     11169     11173     11174     11171     11169     11173     11174
     11172     11169     11173     11174     11176     11175     11179     11180
     11177     11175     11179     11180     11178     11175     11179     11180
     11182     11181     11185     11186     11183     11181     11185     11186
     11184     11181     11185     11186     11188     11187     11191     11192
     11189     11187     11191     11192     11190     11187     11191     11192
     11194     11193     11197     11198     11195     11193     11197     11198
     11196     11193     11197     11198     11200     11199     11203     11204
     11201     11199     11203     11204     11202     11199     11203     11204
     11206     11205     11209     11210     11207     11205     11209     11210
     11208     11205     11209     11210     11212     11211     11215     11216
     11213     11211     11215     11216     11214     11211     11215     11216
     11218     11217     11221     11222     11219     11217     11221     11222
     11220     11217     11221     11222     11224     11223     11227     11228
     11225     11223     11227     11228     11226     11223     11227     11228
     11230     11229     11233     11234     11231     11229     11233     11234
     11232     11229     11233     11234     11236     11235     11239     11240
     11237     11235     11239     11240     11238     11235     11239     11240
     11242     11241     11245     11246     11243     11241     11245     11246
     11244     11241     11245     11246     11248     11247     11251     11252
     11249     11247     11251     11252     11250     11247     11251     11252
     11254     11253     11257     11258     11255     11253     11257     11258
     11256     11253     11257     11258     11260     11259     11263     11264
     11261     11259     11263     11264     11262     11259     11263     11264
     11266     11265     11269     11270     11267     11265     11269     11270
     11268     11265     11269     11270     11272     11271     11275     11276
     11273     11271     11275     11276     11274     11271     11275     11276
     11278     11277     11281     11282     11279     11277     11281     11282
     11280     11277     11281     11282     11284     11283     11287     11288
     11285     11283     11287     11288     11286     11283     11287     11288
     11290     11289     11293     11294     11291     11289     11293     11294
     11292     11289     11293     11294     11296     11295     11299     11300
     11297     11295     11299     11300     11298     11295     11299     11300
     11302     11301     11305     11306     11303     11301     11305     11306
     11304     11301     11305     11306     11308     11307     11311     11312
     11309     11307     11311     11312     11310     11307     11311     11312
     11314     11313     11317     11318     11315     11313     11317     11318
     11316     11313     11317     11318     11320     11319     11323     11324
     11321     11319     11323     11324     11322     11319     11323     11324
     11326     11325     11329     11330     11327     11325     11329     11330
     11328     11325     11329     11330     11332     11331     11335     11336
     11333     11331     11335     11336     11334     11331     11335     11336
     11338     11337     11341     11342     11339     11337     11341     11342
     11340     11337     11341     11342     11344     11343     11347     11348
     11345     11343     11347     11348     11346     11343     11347     11348
     11350     11349     11353     11354     11351     11349     11353     11354
     11352     11349     11353     11354     11356     11355     11359     11360
     11357     11355     11359     11360     11358     11355     11359     11360
     11362     11361     11365     11366     11363     11361     11365     11366
     11364     11361     11365     11366     11368     11367     11371     11372
     11369     11367     11371     11372     11370     11367     11371     11372
     11374     11373     11377     11378     11375     11373     11377     11378
     11376     11373     11377     11378     11380     11379     11383     11384
     11381     11379     11383     11384     11382     11379     11383     11384
     11386     11385     11389     11390     11387     11385     11389     11390
     11388     11385     11389     11390     11392     11391     11395     11396
     11393     11391     11395     11396     11394     11391     11395     11396
     11398     11397     11401     11402     11399     11397     11401     11402
     11400     11397     11401     11402     11404     11403     11407     11408
     11405     11403     11407     11408     11406     11403     11407     11408
     11410     11409     11413     11414     11411     11409     11413     11414
     11412     11409     11413     11414     11416     11415     11419     11420
     11417     11415     11419     11420     11418     11415     11419     11420
     11422     11421     11425     11426     11423     11421     11425     11426
     11424     11421     11425     11426     11428     11427     11431     11432
     11429     11427     11431     11432     11430     11427     11431     11432
     11434     11433     11437     11438     11435     11433     11437     11438
     11436     11433     11437     11438     11440     11439     11443     11444
     11441     11439     11443     11444     11442     11439     11443     11444
     11446     11445     11449     11450     11447     11445     11449     11450
     11448     11445     11449     11450     11452     11451     11455     11456
     11453     11451     11455     11456     11454     11451     11455     11456
     11458     11457     11461     11462     11459     11457     11461     11462
     11460     11457     11461     11462     11464     11463     11467     11468
     11465     11463     11467     11468     11466     11463     11467     11468
     11470     11469     11473     11474     11471     11469     11473     11474
     11472     11469     11473     11474     11476     11475     11479     11480
     11477     11475     11479     11480     11478     11475     11479     11480
     11482     11481     11485     11486     11483     11481     11485     11486
     11484     11481     11485     11486     11488     11487     11491     11492
     11489     11487     11491     11492     11490     11487     11491     11492
     11494     11493     11497     11498     11495     11493     11497     11498
     11496     11493     11497     11498     11500     11499     11503     11504
     11501     11499     11503     11504     11502     11499     11503     11504
     11506     11505     11509     11510     11507     11505     11509     11510
     11508     11505     11509     11510     11512     11511     11515     11516
     11513     11511     11515     11516     11514     11511     11515     11516
     11518     11517     11521     11522     11519     11517     11521     11522
     11520     11517     11521     11522     11524     11523     11527     11528
     11525     11523     11527     11528     11526     11523     11527     11528
     11530     11529     11533     11534     11531     11529     11533     11534
     11532     11529     11533     11534     11536     11535     11539     11540
     11537     11535     11539     11540     11538     11535     11539     11540
     11542     11541     11545     11546     11543     11541     11545     11546
     11544     11541     11545     11546     11548     11547     11551     11552
     11549     11547     11551     11552     11550     11547     11551     11552
     11554     11553     11557     11558     11555     11553     11557     11558
     11556     11553     11557     11558     11560     11559     11563     11564
     11561     11559     11563     11564     11562     11559     11563     11564
     11566     11565     11569     11570     11567     11565     11569     11570
     11568     11565     11569     11570     11572     11571     11575     11576
     11573     11571     11575     11576     11574     11571     11575     11576
     11578     11577     11581     11582     11579     11577     11581     11582
     11580     11577     11581     11582     11584     11583     11587     11588
     11585     11583     11587     11588     11586     11583     11587     11588
     11590     11589     11593     11594     11591     11589     11593     11594
     11592     11589     11593     11594     11596     11595     11599     11600
     11597     11595     11599     11600     11598     11595     11599     11600
     11602     11601     11605     11606     11603     11601     11605     11606
     11604     11601     11605     11606     11608     11607     11611     11612
     11609     11607     11611     11612     11610     11607     11611     11612
     11614     11613     11617     11618     11615     11613     11617     11618
     11616     11613     11617     11618     11620     11619     11623     11624
     11621     11619     11623     11624     11622     11619     11623     11624
     11626     11625     11629     11630     11627     11625     11629     11630
     11628     11625     11629     11630     11632     11631     11635     11636
     11633     11631     11635     11636     11634     11631     11635     11636
     11638     11637     11641     11642     11639     11637     11641     11642
     11640     11637     11641     11642     11644     11643     11647     11648
     11645     11643     11647     11648     11646     11643     11647     11648
     11650     11649     11653     11654     11651     11649     11653     11654
     11652     11649     11653     11654     11656     11655     11659     11660
     11657     11655     11659     11660     11658     11655     11659     11660
     11662     11661     11665     11666     11663     11661     11665     11666
     11664     11661     11665     11666     11668     11667     11671     11672
     11669     11667     11671     11672     11670     11667     11671     11672
     11674     11673     11677     11678     11675     11673     11677     11678
     11676     11673     11677     11678     11680     11679     11683     11684
     11681     11679     11683     11684     11682     11679     11683     11684
     11686     11685     11689     11690     11687     11685     11689     11690
     11688     11685     11689     11690     11692     11691     11695     11696
     11693     11691     11695     11696     11694     11691     11695     11696
     11698     11697     11701     11702     11699     11697     11701     11702
     11700     11697     11701     11702     11704     11703     11707     11708
     11705     11703     11707     11708     11706     11703     11707     11708
     11710     11709     11713     11714     11711     11709     11713     11714
     11712     11709     11713     11714     11716     11715     11719     11720
     11717     11715     11719     11720     11718     11715     11719     11720
     11722     11721     11725     11726     11723     11721     11725     11726
     11724     11721     11725     11726     11728     11727     11731     11732
     11729     11727     11731     11732     11730     11727     11731     11732
     11734     11733     11737     11738     11735     11733     11737     11738
     11736     11733     11737     11738     11740     11739     11743     11744
     11741     11739     11743     11744     11742     11739     11743     11744
     11746     11745     11749     11750     11747     11745     11749     11750
     11748     11745     11749     11750     11752     11751     11755     11756
     11753     11751     11755     11756     11754     11751     11755     11756
     11758     11757     11761     11762     11759     11757     11761     11762
     11760     11757     11761     11762     11764     11763     11767     11768
     11765     11763     11767     11768     11766     11763     11767     11768
     11770     11769     11773     11774     11771     11769     11773     11774
     11772     11769     11773     11774     11776     11775     11779     11780
     11777     11775     11779     11780     11778     11775     11779     11780
     11782     11781     11785     11786     11783     11781     11785     11786
     11784     11781     11785     11786     11788     11787     11791     11792
     11789     11787     11791     11792     11790     11787     11791     11792
     11794     11793     11797     11798     11795     11793     11797     11798
     11796     11793     11797     11798     11800     11799     11803     11804
     11801     11799     11803     11804     11802     11799     11803     11804
     11806     11805     11809     11810     11807     11805     11809     11810
     11808     11805     11809     11810     11812     11811     11815     11816
     11813     11811     11815     11816     11814     11811     11815     11816
     11818     11817     11821     11822     11819     11817     11821     11822
     11820     11817     11821     11822     11824     11823     11827     11828
     11825     11823     11827     11828     11826     11823     11827     11828
     11830     11829     11833     11834     11831     11829     11833     11834
     11832     11829     11833     11834     11836     11835     11839     11840
     11837     11835     11839     11840     11838     11835     11839     11840
     11842     11841     11845     11846     11843     11841     11845     11846
     11844     11841     11845     11846     11848     11847     11851     11852
     11849     11847     11851     11852     11850     11847     11851     11852
     11854     11853     11857     11858     11855     11853     11857     11858
     11856     11853     11857     11858     11860     11859     11863     11864
     11861     11859     11863     11864     11862     11859     11863     11864
     11866     11865     11869     11870     11867     11865     11869     11870
     11868     11865     11869     11870     11872     11871     11875     11876
     11873     11871     11875     11876     11874     11871     11875     11876
     11878     11877     11881     11882     11879     11877     11881     11882
     11880     11877     11881     11882     11884     11883     11887     11888
     11885     11883     11887     11888     11886     11883     11887     11888
     11890     11889     11893     11894     11891     11889     11893     11894
     11892     11889     11893     11894     11896     11895     11899     11900
     11897     11895     11899     11900     11898     11895     11899     11900
     11902     11901     11905     11906     11903     11901     11905     11906
     11904     11901     11905     11906     11908     11907     11911     11912
     11909     11907     11911     11912     11910     11907     11911     11912
     11914     11913     11917     11918     11915     11913     11917     11918
     11916     11913     11917     11918     11920     11919     11923     11924
     11921     11919     11923     11924     11922     11919     11923     11924
     11926     11925     11929     11930     11927     11925     11929     11930
     11928     11925     11929     11930     11932     11931     11935     11936
     11933     11931     11935     11936     11934     11931     11935     11936
     11938     11937     11941     11942     11939     11937     11941     11942
     11940     11937     11941     11942     11944     11943     11947     11948
     11945     11943     11947     11948     11946     11943     11947     11948
     11950     11949     11953     11954     11951     11949     11953     11954
     11952     11949     11953     11954     11956     11955     11959     11960
     11957     11955     11959     11960     11958     11955     11959     11960
     11962     11961     11965     11966     11963     11961     11965     11966
     11964     11961     11965     11966     11968     11967     11971     11972
     11969     11967     11971     11972     11970     11967     11971     11972
     11974     11973     11977     11978     11975     11973     11977     11978
     11976     11973     11977     11978     11980     11979     11983     11984
     11981     11979     11983     11984     11982     11979     11983     11984
     11986     11985     11989     11990     11987     11985     11989     11990
     11988     11985     11989     11990     11992     11991     11995     11996
     11993     11991     11995     11996     11994     11991     11995     11996
     11998     11997     12001     12002     11999     11997     12001     12002
     12000     11997     12001     12002     12004     12003     12007     12008
     12005     12003     12007     12008     12006     12003     12007     12008
     12010     12009     12013     12014     12011     12009     12013     12014
     12012     12009     12013     12014     12016     12015     12019     12020
     12017     12015     12019     12020     12018     12015     12019     12020
     12022     12021     12025     12026     12023     12021     12025     12026
     12024     12021     12025     12026     12028     12027     12031     12032
     12029     12027     12031     12032     12030     12027     12031     12032
     12034     12033     12037     12038     12035     12033     12037     12038
     12036     12033     12037     12038     12040     12039     12043     12044
     12041     12039     12043     12044     12042     12039     12043     12044
     12046     12045     12049     12050     12047     12045     12049     12050
     12048     12045     12049     12050     12052     12051     12055     12056
     12053     12051     12055     12056     12054     12051     12055     12056
     12058     12057     12061     12062     12059     12057     12061     12062
     12060     12057     12061     12062     12064     12063     12067     12068
     12065     12063     12067     12068     12066     12063     12067     12068
     12070     12069     12073     12074     12071     12069     12073     12074
     12072     12069     12073     12074     12076     12075     12079     12080
     12077     12075     12079     12080     12078     12075     12079     12080
     12082     12081     12085     12086     12083     12081     12085     12086
     12084     12081     12085     12086     12088     12087     12091     12092
     12089     12087     12091     12092     12090     12087     12091     12092
     12094     12093     12097     12098     12095     12093     12097     12098
     12096     12093     12097     12098     12100     12099     12103     12104
     12101     12099     12103     12104     12102     12099     12103     12104
     12106     12105     12109     12110     12107     12105     12109     12110
     12108     12105     12109     12110     12112     12111     12115     12116
     12113     12111     12115     12116     12114     12111     12115     12116
     12118     12117     12121     12122     12119     12117     12121     12122
     12120     12117     12121     12122     12124     12123     12127     12128
     12125     12123     12127     12128     12126     12123     12127     12128
     12130     12129     12133     12134     12131     12129     12133     12134
     12132     12129     12133     12134     12136     12135     12139     12140
     12137     12135     12139     12140     12138     12135     12139     12140
     12142     12141     12145     12146     12143     12141     12145     12146
     12144     12141     12145     12146     12148     12147     12151     12152
     12149     12147     12151     12152     12150     12147     12151     12152
     12154     12153     12157     12158     12155     12153     12157     12158
     12156     12153     12157     12158     12160     12159     12163     12164
     12161     12159     12163     12164     12162     12159     12163     12164
     12166     12165     12169     12170     12167     12165     12169     12170
     12168     12165     12169     12170     12172     12171     12175     12176
     12173     12171     12175     12176     12174     12171     12175     12176
     12178     12177     12181     12182     12179     12177     12181     12182
     12180     12177     12181     12182     12184     12183     12187     12188
     12185     12183     12187     12188     12186     12183     12187     12188
     12190     12189     12193     12194     12191     12189     12193     12194
     12192     12189     12193     12194     12196     12195     12199     12200
     12197     12195     12199     12200     12198     12195     12199     12200
     12202     12201     12205     12206     12203     12201     12205     12206
     12204     12201     12205     12206     12208     12207     12211     12212
     12209     12207     12211     12212     12210     12207     12211     12212
     12214     12213     12217     12218     12215     12213     12217     12218
     12216     12213     12217     12218     12220     12219     12223     12224
     12221     12219     12223     12224     12222     12219     12223     12224
     12226     12225     12229     12230     12227     12225     12229     12230
     12228     12225     12229     12230     12232     12231     12235     12236
     12233     12231     12235     12236     12234     12231     12235     12236
     12238     12237     12241     12242     12239     12237     12241     12242
     12240     12237     12241     12242     12244     12243     12247     12248
     12245     12243     12247     12248     12246     12243     12247     12248
     12250     12249     12253     12254     12251     12249     12253     12254
     12252     12249     12253     12254     12256     12255     12259     12260
     12257     12255     12259     12260     12258     12255     12259     12260
     12262     12261     12265     12266     12263     12261     12265     12266
     12264     12261     12265     12266     12268     12267     12271     12272
     12269     12267     12271     12272     12270     12267     12271     12272
     12274     12273     12277     12278     12275     12273     12277     12278
     12276     12273     12277     12278     12280     12279     12283     12284
     12281     12279     12283     12284     12282     12279     12283     12284
     12286     12285     12289     12290     12287     12285     12289     12290
     12288     12285     12289     12290     12292     12291     12295     12296
     12293     12291     12295     12296     12294     12291     12295     12296
     12298     12297     12301     12302     12299     12297     12301     12302
     12300     12297     12301     12302     12304     12303     12307     12308
     12305     12303     12307     12308     12306     12303     12307     12308
     12310     12309     12313     12314     12311     12309     12313     12314
     12312     12309     12313     12314     12316     12315     12319     12320
     12317     12315     12319     12320     12318     12315     12319     12320
     12322     12321     12325     12326     12323     12321     12325     12326
     12324     12321     12325     12326     12328     12327     12331     12332
     12329     12327     12331     12332     12330     12327     12331     12332
     12334     12333     12337     12338     12335     12333     12337     12338
     12336     12333     12337     12338     12340     12339     12343     12344
     12341     12339     12343     12344     12342     12339     12343     12344
     12346     12345     12349     12350     12347     12345     12349     12350
     12348     12345     12349     12350     12352     12351     12355     12356
     12353     12351     12355     12356     12354     12351     12355     12356
     12358     12357     12361     12362     12359     12357     12361     12362
     12360     12357     12361     12362     12364     12363     12367     12368
     12365     12363     12367     12368     12366     12363     12367     12368
     12370     12369     12373     12374     12371     12369     12373     12374
     12372     12369     12373     12374     12376     12375     12379     12380
     12377     12375     12379     12380     12378     12375     12379     12380
     12382     12381     12385     12386     12383     12381     12385     12386
     12384     12381     12385     12386     12388     12387     12391     12392
     12389     12387     12391     12392     12390     12387     12391     12392
     12394     12393     12397     12398     12395     12393     12397     12398
     12396     12393     12397     12398     12400     12399     12403     12404
     12401     12399     12403     12404     12402     12399     12403     12404
     12406     12405     12409     12410     12407     12405     12409     12410
     12408     12405     12409     12410     12412     12411     12415     12416
     12413     12411     12415     12416     12414     12411     12415     12416
     12418     12417     12421     12422     12419     12417     12421     12422
     12420     12417     12421     12422     12424     12423     12427     12428
     12425     12423     12427     12428     12426     12423     12427     12428
     12430     12429     12433     12434     12431     12429     12433     12434
     12432     12429     12433     12434     12436     12435     12439     12440
     12437     12435     12439     12440     12438     12435     12439     12440
     12442     12441     12445     12446     12443     12441     12445     12446
     12444     12441     12445     12446     12448     12447     12451     12452
     12449     12447     12451     12452     12450     12447     12451     12452
     12454     12453     12457     12458     12455     12453     12457     12458
     12456     12453     12457     12458     12460     12459     12463     12464
     12461     12459     12463     12464     12462     12459     12463     12464
     12466     12465     12469     12470     12467     12465     12469     12470
     12468     12465     12469     12470     12472     12471     12475     12476
     12473     12471     12475     12476     12474     12471     12475     12476
     12478     12477     12481     12482     12479     12477     12481     12482
     12480     12477     12481     12482     12484     12483     12487     12488
     12485     12483     12487     12488     12486     12483     12487     12488
     12490     12489     12493     12494     12491     12489     12493     12494
     12492     12489     12493     12494     12496     12495     12499     12500
     12497     12495     12499     12500     12498     12495     12499     12500
     12502     12501     12505     12506     12503     12501     12505     12506
     12504     12501     12505     12506     12508     12507     12511     12512
     12509     12507     12511     12512     12510     12507     12511     12512
     12514     12513     12517     12518     12515     12513     12517     12518
     12516     12513     12517     12518     12520     12519     12523     12524
     12521     12519     12523     12524     12522     12519     12523     12524
     12526     12525     12529     12530     12527     12525     12529     12530
     12528     12525     12529     12530     12532     12531     12535     12536
     12533     12531     12535     12536     12534     12531     12535     12536
     12538     12537     12541     12542     12539     12537     12541     12542
     12540     12537     12541     12542     12544     12543     12547     12548
     12545     12543     12547     12548     12546     12543     12547     12548
     12550     12549     12553     12554     12551     12549     12553     12554
     12552     12549     12553     12554     12556     12555     12559     12560
     12557     12555     12559     12560     12558     12555     12559     12560
     12562     12561     12565     12566     12563     12561     12565     12566
     12564     12561     12565     12566     12568     12567     12571     12572
     12569     12567     12571     12572     12570     12567     12571     12572
     12574     12573     12577     12578     12575     12573     12577     12578
     12576     12573     12577     12578     12580     12579     12583     12584
     12581     12579     12583     12584     12582     12579     12583     12584
     12586     12585     12589     12590     12587     12585     12589     12590
     12588     12585     12589     12590     12592     12591     12595     12596
     12593     12591     12595     12596     12594     12591     12595     12596
     12598     12597     12601     12602     12599     12597     12601     12602
     12600     12597     12601     12602     12604     12603     12607     12608
     12605     12603     12607     12608     12606     12603     12607     12608
     12610     12609     12613     12614     12611     12609     12613     12614
     12612     12609     12613     12614     12616     12615     12619     12620
     12617     12615     12619     12620     12618     12615     12619     12620
     12622     12621     12625     12626     12623     12621     12625     12626
     12624     12621     12625     12626     12628     12627     12631     12632
     12629     12627     12631     12632     12630     12627     12631     12632
     12634     12633     12637     12638     12635     12633     12637     12638
     12636     12633     12637     12638     12640     12639     12643     12644
     12641     12639     12643     12644     12642     12639     12643     12644
     12646     12645     12649     12650     12647     12645     12649     12650
     12648     12645     12649     12650     12652     12651     12655     12656
     12653     12651     12655     12656     12654     12651     12655     12656
     12658     12657     12661     12662     12659     12657     12661     12662
     12660     12657     12661     12662     12664     12663     12667     12668
     12665     12663     12667     12668     12666     12663     12667     12668
     12670     12669     12673     12674     12671     12669     12673     12674
     12672     12669     12673     12674     12676     12675     12679     12680
     12677     12675     12679     12680     12678     12675     12679     12680
     12682     12681     12685     12686     12683     12681     12685     12686
     12684     12681     12685     12686     12688     12687     12691     12692
     12689     12687     12691     12692     12690     12687     12691     12692
     12694     12693     12697     12698     12695     12693     12697     12698
     12696     12693     12697     12698     12700     12699     12703     12704
     12701     12699     12703     12704     12702     12699     12703     12704
     12706     12705     12709     12710     12707     12705     12709     12710
     12708     12705     12709     12710     12712     12711     12715     12716
     12713     12711     12715     12716     12714     12711     12715     12716
     12718     12717     12721     12722     12719     12717     12721     12722
     12720     12717     12721     12722     12724     12723     12727     12728
     12725     12723     12727     12728     12726     12723     12727     12728
     12730     12729     12733     12734     12731     12729     12733     12734
     12732     12729     12733     12734     12736     12735     12739     12740
     12737     12735     12739     12740     12738     12735     12739     12740
     12742     12741     12745     12746     12743     12741     12745     12746
     12744     12741     12745     12746     12748     12747     12751     12752
     12749     12747     12751     12752     12750     12747     12751     12752
     12754     12753     12757     12758     12755     12753     12757     12758
     12756     12753     12757     12758     12760     12759     12763     12764
     12761     12759     12763     12764     12762     12759     12763     12764
     12766     12765     12769     12770     12767     12765     12769     12770
     12768     12765     12769     12770     12772     12771     12775     12776
     12773     12771     12775     12776     12774     12771     12775     12776
     12778     12777     12781     12782     12779     12777     12781     12782
     12780     12777     12781     12782     12784     12783     12787     12788
     12785     12783     12787     12788     12786     12783     12787     12788
     12790     12789     12793     12794     12791     12789     12793     12794
     12792     12789     12793     12794     12796     12795     12799     12800
     12797     12795     12799     12800     12798     12795     12799     12800
     12802     12801     12805     12806     12803     12801     12805     12806
     12804     12801     12805     12806     12808     12807     12811     12812
     12809     12807     12811     12812     12810     12807     12811     12812
     12814     12813     12817     12818     12815     12813     12817     12818
     12816     12813     12817     12818     12820     12819     12823     12824
     12821     12819     12823     12824     12822     12819     12823     12824
     12826     12825     12829     12830     12827     12825     12829     12830
     12828     12825     12829     12830     12832     12831     12835     12836
     12833     12831     12835     12836     12834     12831     12835     12836
     12838     12837     12841     12842     12839     12837     12841     12842
     12840     12837     12841     12842     12844     12843     12847     12848
     12845     12843     12847     12848     12846     12843     12847     12848
     12850     12849     12853     12854     12851     12849     12853     12854
     12852     12849     12853     12854     12856     12855     12859     12860
     12857     12855     12859     12860     12858     12855     12859     12860
     12862     12861     12865     12866     12863     12861     12865     12866
     12864     12861     12865     12866     12868     12867     12871     12872
     12869     12867     12871     12872     12870     12867     12871     12872
     12874     12873     12877     12878     12875     12873     12877     12878
     12876     12873     12877     12878     12880     12879     12883     12884
     12881     12879     12883     12884     12882     12879     12883     12884
     12886     12885     12889     12890     12887     12885     12889     12890
     12888     12885     12889     12890     12892     12891     12895     12896
     12893     12891     12895     12896     12894     12891     12895     12896
     12898     12897     12901     12902     12899     12897     12901     12902
     12900     12897     12901     12902     12904     12903     12907     12908
     12905     12903     12907     12908     12906     12903     12907     12908
     12910     12909     12913     12914     12911     12909     12913     12914
     12912     12909     12913     12914     12916     12915     12919     12920
     12917     12915     12919     12920     12918     12915     12919     12920
     12922     12921     12925     12926     12923     12921     12925     12926
     12924     12921     12925     12926     12928     12927     12931     12932
     12929     12927     12931     12932     12930     12927     12931     12932
     12934     12933     12937     12938     12935     12933     12937     12938
     12936     12933     12937     12938     12940     12939     12943     12944
     12941     12939     12943     12944     12942     12939     12943     12944
     12946     12945     12949     12950     12947     12945     12949     12950
     12948     12945     12949     12950     12952     12951     12955     12956
     12953     12951     12955     12956     12954     12951     12955     12956
     12958     12957     12961     12962     12959     12957     12961     12962
     12960     12957     12961     12962     12964     12963     12967     12968
     12965     12963     12967     12968     12966     12963     12967     12968
     12970     12969     12973     12974     12971     12969     12973     12974
     12972     12969     12973     12974     12976     12975     12979     12980
     12977     12975     12979     12980     12978     12975     12979     12980
     12982     12981     12985     12986     12983     12981     12985     12986
     12984     12981     12985     12986     12988     12987     12991     12992
     12989     12987     12991     12992     12990     12987     12991     12992
     12994     12993     12997     12998     12995     12993     12997     12998
     12996     12993     12997     12998     13000     12999     13003     13004
     13001     12999     13003     13004     13002     12999     13003     13004
     13006     13005     13009     13010     13007     13005     13009     13010
     13008     13005     13009     13010     13012     13011     13015     13016
     13013     13011     13015     13016     13014     13011     13015     13016
     13018     13017     13021     13022     13019     13017     13021     13022
     13020     13017     13021     13022     13024     13023     13027     13028
     13025     13023     13027     13028     13026     13023     13027     13028
     13030     13029     13033     13034     13031     13029     13033     13034
     13032     13029     13033     13034     13036     13035     13039     13040
     13037     13035     13039     13040     13038     13035     13039     13040
     13042     13041     13045     13046     13043     13041     13045     13046
     13044     13041     13045     13046     13048     13047     13051     13052
     13049     13047     13051     13052     13050     13047     13051     13052
     13054     13053     13057     13058     13055     13053     13057     13058
     13056     13053     13057     13058     13060     13059     13063     13064
     13061     13059     13063     13064     13062     13059     13063     13064
     13066     13065     13069     13070     13067     13065     13069     13070
     13068     13065     13069     13070     13072     13071     13075     13076
     13073     13071     13075     13076     13074     13071     13075     13076
     13078     13077     13081     13082     13079     13077     13081     13082
     13080     13077     13081     13082     13084     13083     13087     13088
     13085     13083     13087     13088     13086     13083     13087     13088
     13090     13089     13093     13094     13091     13089     13093     13094
     13092     13089     13093     13094     13096     13095     13099     13100
     13097     13095     13099     13100     13098     13095     13099     13100
     13102     13101     13105     13106     13103     13101     13105     13106
     13104     13101     13105     13106     13108     13107     13111     13112
     13109     13107     13111     13112     13110     13107     13111     13112
     13114     13113     13117     13118     13115     13113     13117     13118
     13116     13113     13117     13118     13120     13119     13123     13124
     13121     13119     13123     13124     13122     13119     13123     13124
     13126     13125     13129     13130     13127     13125     13129     13130
     13128     13125     13129     13130     13132     13131     13135     13136
     13133     13131     13135     13136     13134     13131     13135     13136
     13138     13137     13141     13142     13139     13137     13141     13142
     13140     13137     13141     13142     13144     13143     13147     13148
     13145     13143     13147     13148     13146     13143     13147     13148
     13150     13149     13153     13154     13151     13149     13153     13154
     13152     13149     13153     13154     13156     13155     13159     13160
     13157     13155     13159     13160     13158     13155     13159     13160
     13162     13161     13165     13166     13163     13161     13165     13166
     13164     13161     13165     13166     13168     13167     13171     13172
     13169     13167     13171     13172     13170     13167     13171     13172
     13174     13173     13177     13178     13175     13173     13177     13178
     13176     13173     13177     13178     13180     13179     13183     13184
     13181     13179     13183     13184     13182     13179     13183     13184
     13186     13185     13189     13190     13187     13185     13189     13190
     13188     13185     13189     13190     13192     13191     13195     13196
     13193     13191     13195     13196     13194     13191     13195     13196
     13198     13197     13201     13202     13199     13197     13201     13202
     13200     13197     13201     13202     13204     13203     13207     13208
     13205     13203     13207     13208     13206     13203     13207     13208
     13210     13209     13213     13214     13211     13209     13213     13214
     13212     13209     13213     13214     13216     13215     13219     13220
     13217     13215     13219     13220     13218     13215     13219     13220
     13222     13221     13225     13226     13223     13221     13225     13226
     13224     13221     13225     13226     13228     13227     13231     13232
     13229     13227     13231     13232     13230     13227     13231     13232
     13234     13233     13237     13238     13235     13233     13237     13238
     13236     13233     13237     13238     13240     13239     13243     13244
     13241     13239     13243     13244     13242     13239     13243     13244
     13246     13245     13249     13250     13247     13245     13249     13250
     13248     13245     13249     13250     13252     13251     13255     13256
     13253     13251     13255     13256     13254     13251     13255     13256
     13258     13257     13261     13262     13259     13257     13261     13262
     13260     13257     13261     13262     13264     13263     13267     13268
     13265     13263     13267     13268     13266     13263     13267     13268
     13270     13269     13273     13274     13271     13269     13273     13274
     13272     13269     13273     13274     13276     13275     13279     13280
     13277     13275     13279     13280     13278     13275     13279     13280
     13282     13281     13285     13286     13283     13281     13285     13286
     13284     13281     13285     13286     13288     13287     13291     13292
     13289     13287     13291     13292     13290     13287     13291     13292
     13294     13293     13297     13298     13295     13293     13297     13298
     13296     13293     13297     13298     13300     13299     13303     13304
     13301     13299     13303     13304     13302     13299     13303     13304
     13306     13305     13309     13310     13307     13305     13309     13310
     13308     13305     13309     13310     13312     13311     13315     13316
     13313     13311     13315     13316     13314     13311     13315     13316
     13318     13317     13321     13322     13319     13317     13321     13322
     13320     13317     13321     13322     13324     13323     13327     13328
     13325     13323     13327     13328     13326     13323     13327     13328
     13330     13329     13333     13334     13331     13329     13333     13334
     13332     13329     13333     13334     13336     13335     13339     13340
     13337     13335     13339     13340     13338     13335     13339     13340
     13342     13341     13345     13346     13343     13341     13345     13346
     13344     13341     13345     13346     13348     13347     13351     13352
     13349     13347     13351     13352     13350     13347     13351     13352
     13354     13353     13357     13358     13355     13353     13357     13358
     13356     13353     13357     13358     13360     13359     13363     13364
     13361     13359     13363     13364     13362     13359     13363     13364
     13366     13365     13369     13370     13367     13365     13369     13370
     13368     13365     13369     13370     13372     13371     13375     13376
     13373     13371     13375     13376     13374     13371     13375     13376
     13378     13377     13381     13382     13379     13377     13381     13382
     13380     13377     13381     13382     13384     13383     13387     13388
     13385     13383     13387     13388     13386     13383     13387     13388
     13390     13389     13393     13394     13391     13389     13393     13394
     13392     13389     13393     13394     13396     13395     13399     13400
     13397     13395     13399     13400     13398     13395     13399     13400
     13402     13401     13405     13406     13403     13401     13405     13406
     13404     13401     13405     13406     13408     13407     13411     13412
     13409     13407     13411     13412     13410     13407     13411     13412
     13414     13413     13417     13418     13415     13413     13417     13418
     13416     13413     13417     13418     13420     13419     13423     13424
     13421     13419     13423     13424     13422     13419     13423     13424
     13426     13425     13429     13430     13427     13425     13429     13430
     13428     13425     13429     13430     13432     13431     13435     13436
     13433     13431     13435     13436     13434     13431     13435     13436
     13438     13437     13441     13442     13439     13437     13441     13442
     13440     13437     13441     13442     13444     13443     13447     13448
     13445     13443     13447     13448     13446     13443     13447     13448
     13450     13449     13453     13454     13451     13449     13453     13454
     13452     13449     13453     13454     13456     13455     13459     13460
     13457     13455     13459     13460     13458     13455     13459     13460
     13462     13461     13465     13466     13463     13461     13465     13466
     13464     13461     13465     13466     13468     13467     13471     13472
     13469     13467     13471     13472     13470     13467     13471     13472
     13474     13473     13477     13478     13475     13473     13477     13478
     13476     13473     13477     13478     13480     13479     13483     13484
     13481     13479     13483     13484     13482     13479     13483     13484
     13486     13485     13489     13490     13487     13485     13489     13490
     13488     13485     13489     13490     13492     13491     13495     13496
     13493     13491     13495     13496     13494     13491     13495     13496
     13498     13497     13501     13502     13499     13497     13501     13502
     13500     13497     13501     13502     13504     13503     13507     13508
     13505     13503     13507     13508     13506     13503     13507     13508
     13510     13509     13513     13514     13511     13509     13513     13514
     13512     13509     13513     13514     13516     13515     13519     13520
     13517     13515     13519     13520     13518     13515     13519     13520
     13522     13521     13525     13526     13523     13521     13525     13526
     13524     13521     13525     13526     13528     13527     13531     13532
     13529     13527     13531     13532     13530     13527     13531     13532
     13534     13533     13537     13538     13535     13533     13537     13538
     13536     13533     13537     13538     13540     13539     13543     13544
     13541     13539     13543     13544     13542     13539     13543     13544
     13546     13545     13549     13550     13547     13545     13549     13550
     13548     13545     13549     13550     13552     13551     13555     13556
     13553     13551     13555     13556     13554     13551     13555     13556
     13558     13557     13561     13562     13559     13557     13561     13562
     13560     13557     13561     13562     13564     13563     13567     13568
     13565     13563     13567     13568     13566     13563     13567     13568
     13570     13569     13573     13574     13571     13569     13573     13574
     13572     13569     13573     13574     13576     13575     13579     13580
     13577     13575     13579     13580     13578     13575     13579     13580
     13582     13581     13585     13586     13583     13581     13585     13586
     13584     13581     13585     13586     13588     13587     13591     13592
     13589     13587     13591     13592     13590     13587     13591     13592
     13594     13593     13597     13598     13595     13593     13597     13598
     13596     13593     13597     13598     13600     13599     13603     13604
     13601     13599     13603     13604     13602     13599     13603     13604
     13606     13605     13609     13610     13607     13605     13609     13610
     13608     13605     13609     13610     13612     13611     13615     13616
     13613     13611     13615     13616     13614     13611     13615     13616
     13618     13617     13621     13622     13619     13617     13621     13622
     13620     13617     13621     13622     13624     13623     13627     13628
     13625     13623     13627     13628     13626     13623     13627     13628
     13630     13629     13633     13634     13631     13629     13633     13634
     13632     13629     13633     13634     13636     13635     13639     13640
     13637     13635     13639     13640     13638     13635     13639     13640
     13642     13641     13645     13646     13643     13641     13645     13646
     13644     13641     13645     13646     13648     13647     13651     13652
     13649     13647     13651     13652     13650     13647     13651     13652
     13654     13653     13657     13658     13655     13653     13657     13658
     13656     13653     13657     13658     13660     13659     13663     13664
     13661     13659     13663     13664     13662     13659     13663     13664
     13666     13665     13669     13670     13667     13665     13669     13670
     13668     13665     13669     13670     13672     13671     13675     13676
     13673     13671     13675     13676     13674     13671     13675     13676
     13678     13677     13681     13682     13679     13677     13681     13682
     13680     13677     13681     13682     13684     13683     13687     13688
     13685     13683     13687     13688     13686     13683     13687     13688
     13690     13689     13693     13694     13691     13689     13693     13694
     13692     13689     13693     13694     13696     13695     13699     13700
     13697     13695     13699     13700     13698     13695     13699     13700
     13702     13701     13705     13706     13703     13701     13705     13706
     13704     13701     13705     13706     13708     13707     13711     13712
     13709     13707     13711     13712     13710     13707     13711     13712
     13714     13713     13717     13718     13715     13713     13717     13718
     13716     13713     13717     13718     13720     13719     13723     13724
     13721     13719     13723     13724     13722     13719     13723     13724
     13726     13725     13729     13730     13727     13725     13729     13730
     13728     13725     13729     13730     13732     13731     13735     13736
     13733     13731     13735     13736     13734     13731     13735     13736
     13738     13737     13741     13742     13739     13737     13741     13742
     13740     13737     13741     13742     13744     13743     13747     13748
     13745     13743     13747     13748     13746     13743     13747     13748
     13750     13749     13753     13754     13751     13749     13753     13754
     13752     13749     13753     13754     13756     13755     13759     13760
     13757     13755     13759     13760     13758     13755     13759     13760
     13762     13761     13765     13766     13763     13761     13765     13766
     13764     13761     13765     13766     13768     13767     13771     13772
     13769     13767     13771     13772     13770     13767     13771     13772
     13774     13773     13777     13778     13775     13773     13777     13778
     13776     13773     13777     13778     13780     13779     13783     13784
     13781     13779     13783     13784     13782     13779     13783     13784
     13786     13785     13789     13790     13787     13785     13789     13790
     13788     13785     13789     13790     13792     13791     13795     13796
     13793     13791     13795     13796     13794     13791     13795     13796
     13798     13797     13801     13802     13799     13797     13801     13802
     13800     13797     13801     13802     13804     13803     13807     13808
     13805     13803     13807     13808     13806     13803     13807     13808
     13810     13809     13813     13814     13811     13809     13813     13814
     13812     13809     13813     13814     13816     13815     13819     13820
     13817     13815     13819     13820     13818     13815     13819     13820
     13822     13821     13825     13826     13823     13821     13825     13826
     13824     13821     13825     13826     13828     13827     13831     13832
     13829     13827     13831     13832     13830     13827     13831     13832
     13834     13833     13837     13838     13835     13833     13837     13838
     13836     13833     13837     13838     13840     13839     13843     13844
     13841     13839     13843     13844     13842     13839     13843     13844
     13846     13845     13849     13850     13847     13845     13849     13850
     13848     13845     13849     13850     13852     13851     13855     13856
     13853     13851     13855     13856     13854     13851     13855     13856
     13858     13857     13861     13862     13859     13857     13861     13862
     13860     13857     13861     13862     13864     13863     13867     13868
     13865     13863     13867     13868     13866     13863     13867     13868
     13870     13869     13873     13874     13871     13869     13873     13874
     13872     13869     13873     13874     13876     13875     13879     13880
     13877     13875     13879     13880     13878     13875     13879     13880
     13882     13881     13885     13886     13883     13881     13885     13886
     13884     13881     13885     13886     13888     13887     13891     13892
     13889     13887     13891     13892     13890     13887     13891     13892
     13894     13893     13897     13898     13895     13893     13897     13898
     13896     13893     13897     13898     13900     13899     13903     13904
     13901     13899     13903     13904     13902     13899     13903     13904
     13906     13905     13909     13910     13907     13905     13909     13910
     13908     13905     13909     13910     13912     13911     13915     13916
     13913     13911     13915     13916     13914     13911     13915     13916
     13918     13917     13921     13922     13919     13917     13921     13922
     13920     13917     13921     13922     13924     13923     13927     13928
     13925     13923     13927     13928     13926     13923     13927     13928
     13930     13929     13933     13934     13931     13929     13933     13934
     13932     13929     13933     13934     13936     13935     13939     13940
     13937     13935     13939     13940     13938     13935     13939     13940
     13942     13941     13945     13946     13943     13941     13945     13946
     13944     13941     13945     13946     13948     13947     13951     13952
     13949     13947     13951     13952     13950     13947     13951     13952
     13954     13953     13957     13958     13955     13953     13957     13958
     13956     13953     13957     13958     13960     13959     13963     13964
     13961     13959     13963     13964     13962     13959     13963     13964
     13966     13965     13969     13970     13967     13965     13969     13970
     13968     13965     13969     13970     13972     13971     13975     13976
     13973     13971     13975     13976     13974     13971     13975     13976
     13978     13977     13981     13982     13979     13977     13981     13982
     13980     13977     13981     13982     13984     13983     13987     13988
     13985     13983     13987     13988     13986     13983     13987     13988
     13990     13989     13993     13994     13991     13989     13993     13994
     13992     13989     13993     13994     13996     13995     13999     14000
     13997     13995     13999     14000     13998     13995     13999     14000
     14002     14001     14005     14006     14003     14001     14005     14006
     14004     14001     14005     14006     14008     14007     14011     14012
     14009     14007     14011     14012     14010     14007     14011     14012
     14014     14013     14017     14018     14015     14013     14017     14018
     14016     14013     14017     14018     14020     14019     14023     14024
     14021     14019     14023     14024     14022     14019     14023     14024
     14026     14025     14029     14030     14027     14025     14029     14030
     14028     14025     14029     14030     14032     14031     14035     14036
     14033     14031     14035     14036     14034     14031     14035     14036
     14038     14037     14041     14042     14039     14037     14041     14042
     14040     14037     14041     14042     14044     14043     14047     14048
     14045     14043     14047     14048     14046     14043     14047     14048
     14050     14049     14053     14054     14051     14049     14053     14054
     14052     14049     14053     14054     14056     14055     14059     14060
     14057     14055     14059     14060     14058     14055     14059     14060
     14062     14061     14065     14066     14063     14061     14065     14066
     14064     14061     14065     14066     14068     14067     14071     14072
     14069     14067     14071     14072     14070     14067     14071     14072
     14074     14073     14077     14078     14075     14073     14077     14078
     14076     14073     14077     14078     14080     14079     14083     14084
     14081     14079     14083     14084     14082     14079     14083     14084
     14086     14085     14089     14090     14087     14085     14089     14090
     14088     14085     14089     14090     14092     14091     14095     14096
     14093     14091     14095     14096     14094     14091     14095     14096
     14098     14097     14101     14102     14099     14097     14101     14102
     14100     14097     14101     14102     14104     14103     14107     14108
     14105     14103     14107     14108     14106     14103     14107     14108
     14110     14109     14113     14114     14111     14109     14113     14114
     14112     14109     14113     14114     14116     14115     14119     14120
     14117     14115     14119     14120     14118     14115     14119     14120
     14122     14121     14125     14126     14123     14121     14125     14126
     14124     14121     14125     14126     14128     14127     14131     14132
     14129     14127     14131     14132     14130     14127     14131     14132
     14134     14133     14137     14138     14135     14133     14137     14138
     14136     14133     14137     14138     14140     14139     14143     14144
     14141     14139     14143     14144     14142     14139     14143     14144
     14146     14145     14149     14150     14147     14145     14149     14150
     14148     14145     14149     14150     14152     14151     14155     14156
     14153     14151     14155     14156     14154     14151     14155     14156
     14158     14157     14161     14162     14159     14157     14161     14162
     14160     14157     14161     14162     14164     14163     14167     14168
     14165     14163     14167     14168     14166     14163     14167     14168
     14170     14169     14173     14174     14171     14169     14173     14174
     14172     14169     14173     14174     14176     14175     14179     14180
     14177     14175     14179     14180     14178     14175     14179     14180
     14182     14181     14185     14186     14183     14181     14185     14186
     14184     14181     14185     14186     14188     14187     14191     14192
     14189     14187     14191     14192     14190     14187     14191     14192
     14194     14193     14197     14198     14195     14193     14197     14198
     14196     14193     14197     14198     14200     14199     14203     14204
     14201     14199     14203     14204     14202     14199     14203     14204
     14206     14205     14209     14210     14207     14205     14209     14210
     14208     14205     14209     14210     14212     14211     14215     14216
     14213     14211     14215     14216     14214     14211     14215     14216
     14218     14217     14221     14222     14219     14217     14221     14222
     14220     14217     14221     14222     14224     14223     14227     14228
     14225     14223     14227     14228     14226     14223     14227     14228
     14230     14229     14233     14234     14231     14229     14233     14234
     14232     14229     14233     14234     14236     14235     14239     14240
     14237     14235     14239     14240     14238     14235     14239     14240
     14242     14241     14245     14246     14243     14241     14245     14246
     14244     14241     14245     14246     14248     14247     14251     14252
     14249     14247     14251     14252     14250     14247     14251     14252
     14254     14253     14257     14258     14255     14253     14257     14258
     14256     14253     14257     14258     14260     14259     14263     14264
     14261     14259     14263     14264     14262     14259     14263     14264
     14266     14265     14269     14270     14267     14265     14269     14270
     14268     14265     14269     14270     14272     14271     14275     14276
     14273     14271     14275     14276     14274     14271     14275     14276
     14278     14277     14281     14282     14279     14277     14281     14282
     14280     14277     14281     14282     14284     14283     14287     14288
     14285     14283     14287     14288     14286     14283     14287     14288
     14290     14289     14293     14294     14291     14289     14293     14294
     14292     14289     14293     14294     14296     14295     14299     14300
     14297     14295     14299     14300     14298     14295     14299     14300
     14302     14301     14305     14306     14303     14301     14305     14306
     14304     14301     14305     14306     14308     14307     14311     14312
     14309     14307     14311     14312     14310     14307     14311     14312
     14314     14313     14317     14318     14315     14313     14317     14318
     14316     14313     14317     14318     14320     14319     14323     14324
     14321     14319     14323     14324     14322     14319     14323     14324
     14326     14325     14329     14330     14327     14325     14329     14330
     14328     14325     14329     14330     14332     14331     14335     14336
     14333     14331     14335     14336     14334     14331     14335     14336
     14338     14337     14341     14342     14339     14337     14341     14342
     14340     14337     14341     14342     14344     14343     14347     14348
     14345     14343     14347     14348     14346     14343     14347     14348
     14350     14349     14353     14354     14351     14349     14353     14354
     14352     14349     14353     14354     14356     14355     14359     14360
     14357     14355     14359     14360     14358     14355     14359     14360
     14362     14361     14365     14366     14363     14361     14365     14366
     14364     14361     14365     14366     14368     14367     14371     14372
     14369     14367     14371     14372     14370     14367     14371     14372
     14374     14373     14377     14378     14375     14373     14377     14378
     14376     14373     14377     14378     14380     14379     14383     14384
     14381     14379     14383     14384     14382     14379     14383     14384
     14386     14385     14389     14390     14387     14385     14389     14390
     14388     14385     14389     14390     14392     14391     14395     14396
     14393     14391     14395     14396     14394     14391     14395     14396
     14398     14397     14401     14402     14399     14397     14401     14402
     14400     14397     14401     14402     14404     14403     14407     14408
     14405     14403     14407     14408     14406     14403     14407     14408
     14410     14409     14413     14414     14411     14409     14413     14414
     14412     14409     14413     14414     14416     14415     14419     14420
     14417     14415     14419     14420     14418     14415     14419     14420
     14422     14421     14425     14426     14423     14421     14425     14426
     14424     14421     14425     14426     14428     14427     14431     14432
     14429     14427     14431     14432     14430     14427     14431     14432
     14434     14433     14437     14438     14435     14433     14437     14438
     14436     14433     14437     14438     14440     14439     14443     14444
     14441     14439     14443     14444     14442     14439     14443     14444
     14446     14445     14449     14450     14447     14445     14449     14450
     14448     14445     14449     14450     14452     14451     14455     14456
     14453     14451     14455     14456     14454     14451     14455     14456
     14458     14457     14461     14462     14459     14457     14461     14462
     14460     14457     14461     14462     14464     14463     14467     14468
     14465     14463     14467     14468     14466     14463     14467     14468
     14470     14469     14473     14474     14471     14469     14473     14474
     14472     14469     14473     14474     14476     14475     14479     14480
     14477     14475     14479     14480     14478     14475     14479     14480
     14482     14481     14485     14486     14483     14481     14485     14486
     14484     14481     14485     14486     14488     14487     14491     14492
     14489     14487     14491     14492     14490     14487     14491     14492
     14494     14493     14497     14498     14495     14493     14497     14498
     14496     14493     14497     14498     14500     14499     14503     14504
     14501     14499     14503     14504     14502     14499     14503     14504
     14506     14505     14509     14510     14507     14505     14509     14510
     14508     14505     14509     14510     14512     14511     14515     14516
     14513     14511     14515     14516     14514     14511     14515     14516
     14518     14517     14521     14522     14519     14517     14521     14522
     14520     14517     14521     14522     14524     14523     14527     14528
     14525     14523     14527     14528     14526     14523     14527     14528
     14530     14529     14533     14534     14531     14529     14533     14534
     14532     14529     14533     14534     14536     14535     14539     14540
     14537     14535     14539     14540     14538     14535     14539     14540
     14542     14541     14545     14546     14543     14541     14545     14546
     14544     14541     14545     14546     14548     14547     14551     14552
     14549     14547     14551     14552     14550     14547     14551     14552
     14554     14553     14557     14558     14555     14553     14557     14558
     14556     14553     14557     14558     14560     14559     14563     14564
     14561     14559     14563     14564     14562     14559     14563     14564
     14566     14565     14569     14570     14567     14565     14569     14570
     14568     14565     14569     14570     14572     14571     14575     14576
     14573     14571     14575     14576     14574     14571     14575     14576
     14578     14577     14581     14582     14579     14577     14581     14582
     14580     14577     14581     14582     14584     14583     14587     14588
     14585     14583     14587     14588     14586     14583     14587     14588
     14590     14589     14593     14594     14591     14589     14593     14594
     14592     14589     14593     14594     14596     14595     14599     14600
     14597     14595     14599     14600     14598     14595     14599     14600
     14602     14601     14605     14606     14603     14601     14605     14606
     14604     14601     14605     14606     14608     14607     14611     14612
     14609     14607     14611     14612     14610     14607     14611     14612
     14614     14613     14617     14618     14615     14613     14617     14618
     14616     14613     14617     14618     14620     14619     14623     14624
     14621     14619     14623     14624     14622     14619     14623     14624
     14626     14625     14629     14630     14627     14625     14629     14630
     14628     14625     14629     14630     14632     14631     14635     14636
     14633     14631     14635     14636     14634     14631     14635     14636
     14638     14637     14641     14642     14639     14637     14641     14642
     14640     14637     14641     14642     14644     14643     14647     14648
     14645     14643     14647     14648     14646     14643     14647     14648
     14650     14649     14653     14654     14651     14649     14653     14654
     14652     14649     14653     14654     14656     14655     14659     14660
     14657     14655     14659     14660     14658     14655     14659     14660
     14662     14661     14665     14666     14663     14661     14665     14666
     14664     14661     14665     14666     14668     14667     14671     14672
     14669     14667     14671     14672     14670     14667     14671     14672
     14674     14673     14677     14678     14675     14673     14677     14678
     14676     14673     14677     14678     14680     14679     14683     14684
     14681     14679     14683     14684     14682     14679     14683     14684
     14686     14685     14689     14690     14687     14685     14689     14690
     14688     14685     14689     14690     14692     14691     14695     14696
     14693     14691     14695     14696     14694     14691     14695     14696
     14698     14697     14701     14702     14699     14697     14701     14702
     14700     14697     14701     14702     14704     14703     14707     14708
     14705     14703     14707     14708     14706     14703     14707     14708
     14710     14709     14713     14714     14711     14709     14713     14714
     14712     14709     14713     14714     14716     14715     14719     14720
     14717     14715     14719     14720     14718     14715     14719     14720
     14722     14721     14725     14726     14723     14721     14725     14726
     14724     14721     14725     14726     14728     14727     14731     14732
     14729     14727     14731     14732     14730     14727     14731     14732
     14734     14733     14737     14738     14735     14733     14737     14738
     14736     14733     14737     14738     14740     14739     14743     14744
     14741     14739     14743     14744     14742     14739     14743     14744
     14746     14745     14749     14750     14747     14745     14749     14750
     14748     14745     14749     14750     14752     14751     14755     14756
     14753     14751     14755     14756     14754     14751     14755     14756
     14758     14757     14761     14762     14759     14757     14761     14762
     14760     14757     14761     14762     14764     14763     14767     14768
     14765     14763     14767     14768     14766     14763     14767     14768
     14770     14769     14773     14774     14771     14769     14773     14774
     14772     14769     14773     14774     14776     14775     14779     14780
     14777     14775     14779     14780     14778     14775     14779     14780
     14782     14781     14785     14786     14783     14781     14785     14786
     14784     14781     14785     14786     14788     14787     14791     14792
     14789     14787     14791     14792     14790     14787     14791     14792
     14794     14793     14797     14798     14795     14793     14797     14798
     14796     14793     14797     14798     14800     14799     14803     14804
     14801     14799     14803     14804     14802     14799     14803     14804
     14806     14805     14809     14810     14807     14805     14809     14810
     14808     14805     14809     14810     14812     14811     14815     14816
     14813     14811     14815     14816     14814     14811     14815     14816
     14818     14817     14821     14822     14819     14817     14821     14822
     14820     14817     14821     14822     14824     14823     14827     14828
     14825     14823     14827     14828     14826     14823     14827     14828
     14830     14829     14833     14834     14831     14829     14833     14834
     14832     14829     14833     14834     14836     14835     14839     14840
     14837     14835     14839     14840     14838     14835     14839     14840
     14842     14841     14845     14846     14843     14841     14845     14846
     14844     14841     14845     14846     14848     14847     14851     14852
     14849     14847     14851     14852     14850     14847     14851     14852
     14854     14853     14857     14858     14855     14853     14857     14858
     14856     14853     14857     14858     14860     14859     14863     14864
     14861     14859     14863     14864     14862     14859     14863     14864
     14866     14865     14869     14870     14867     14865     14869     14870
     14868     14865     14869     14870     14872     14871     14875     14876
     14873     14871     14875     14876     14874     14871     14875     14876
     14878     14877     14881     14882     14879     14877     14881     14882
     14880     14877     14881     14882     14884     14883     14887     14888
     14885     14883     14887     14888     14886     14883     14887     14888
     14890     14889     14893     14894     14891     14889     14893     14894
     14892     14889     14893     14894     14896     14895     14899     14900
     14897     14895     14899     14900     14898     14895     14899     14900
     14902     14901     14905     14906     14903     14901     14905     14906
     14904     14901     14905     14906     14908     14907     14911     14912
     14909     14907     14911     14912     14910     14907     14911     14912
     14914     14913     14917     14918     14915     14913     14917     14918
     14916     14913     14917     14918     14920     14919     14923     14924
     14921     14919     14923     14924     14922     14919     14923     14924
     14926     14925     14929     14930     14927     14925     14929     14930
     14928     14925     14929     14930     14932     14931     14935     14936
     14933     14931     14935     14936     14934     14931     14935     14936
     14938     14937     14941     14942     14939     14937     14941     14942
     14940     14937     14941     14942     14944     14943     14947     14948
     14945     14943     14947     14948     14946     14943     14947     14948
     14950     14949     14953     14954     14951     14949     14953     14954
     14952     14949     14953     14954     14956     14955     14959     14960
     14957     14955     14959     14960     14958     14955     14959     14960
     14962     14961     14965     14966     14963     14961     14965     14966
     14964     14961     14965     14966     14968     14967     14971     14972
     14969     14967     14971     14972     14970     14967     14971     14972
     14974     14973     14977     14978     14975     14973     14977     14978
     14976     14973     14977     14978     14980     14979     14983     14984
     14981     14979     14983     14984     14982     14979     14983     14984
     14986     14985     14989     14990     14987     14985     14989     14990
     14988     14985     14989     14990     14992     14991     14995     14996
     14993     14991     14995     14996     14994     14991     14995     14996
     14998     14997     15001     15002     14999     14997     15001     15002
     15000     14997     15001     15002     15004     15003     15007     15008
     15005     15003     15007     15008     15006     15003     15007     15008
     15010     15009     15013     15014     15011     15009     15013     15014
     15012     15009     15013     15014     15016     15015     15019     15020
     15017     15015     15019     15020     15018     15015     15019     15020
     15022     15021     15025     15026     15023     15021     15025     15026
     15024     15021     15025     15026     15028     15027     15031     15032
     15029     15027     15031     15032     15030     15027     15031     15032
     15034     15033     15037     15038     15035     15033     15037     15038
     15036     15033     15037     15038     15040     15039     15043     15044
     15041     15039     15043     15044     15042     15039     15043     15044
     15046     15045     15049     15050     15047     15045     15049     15050
     15048     15045     15049     15050     15052     15051     15055     15056
     15053     15051     15055     15056     15054     15051     15055     15056
     15058     15057     15061     15062     15059     15057     15061     15062
     15060     15057     15061     15062     15064     15063     15067     15068
     15065     15063     15067     15068     15066     15063     15067     15068
     15070     15069     15073     15074     15071     15069     15073     15074
     15072     15069     15073     15074     15076     15075     15079     15080
     15077     15075     15079     15080     15078     15075     15079     15080
     15082     15081     15085     15086     15083     15081     15085     15086
     15084     15081     15085     15086     15088     15087     15091     15092
     15089     15087     15091     15092     15090     15087     15091     15092
     15094     15093     15097     15098     15095     15093     15097     15098
     15096     15093     15097     15098     15100     15099     15103     15104
     15101     15099     15103     15104     15102     15099     15103     15104
     15106     15105     15109     15110     15107     15105     15109     15110
     15108     15105     15109     15110     15112     15111     15115     15116
     15113     15111     15115     15116     15114     15111     15115     15116
     15118     15117     15121     15122     15119     15117     15121     15122
     15120     15117     15121     15122     15124     15123     15127     15128
     15125     15123     15127     15128     15126     15123     15127     15128
     15130     15129     15133     15134     15131     15129     15133     15134
     15132     15129     15133     15134     15136     15135     15139     15140
     15137     15135     15139     15140     15138     15135     15139     15140
     15142     15141     15145     15146     15143     15141     15145     15146
     15144     15141     15145     15146     15148     15147     15151     15152
     15149     15147     15151     15152     15150     15147     15151     15152
     15154     15153     15157     15158     15155     15153     15157     15158
     15156     15153     15157     15158     15160     15159     15163     15164
     15161     15159     15163     15164     15162     15159     15163     15164
     15166     15165     15169     15170     15167     15165     15169     15170
     15168     15165     15169     15170     15172     15171     15175     15176
     15173     15171     15175     15176     15174     15171     15175     15176
     15178     15177     15181     15182     15179     15177     15181     15182
     15180     15177     15181     15182     15184     15183     15187     15188
     15185     15183     15187     15188     15186     15183     15187     15188
     15190     15189     15193     15194     15191     15189     15193     15194
     15192     15189     15193     15194     15196     15195     15199     15200
     15197     15195     15199     15200     15198     15195     15199     15200
     15202     15201     15205     15206     15203     15201     15205     15206
     15204     15201     15205     15206     15208     15207     15211     15212
     15209     15207     15211     15212     15210     15207     15211     15212
     15214     15213     15217     15218     15215     15213     15217     15218
     15216     15213     15217     15218     15220     15219     15223     15224
     15221     15219     15223     15224     15222     15219     15223     15224
     15226     15225     15229     15230     15227     15225     15229     15230
     15228     15225     15229     15230     15232     15231     15235     15236
     15233     15231     15235     15236     15234     15231     15235     15236
     15238     15237     15241     15242     15239     15237     15241     15242
     15240     15237     15241     15242     15244     15243     15247     15248
     15245     15243     15247     15248     15246     15243     15247     15248
     15250     15249     15253     15254     15251     15249     15253     15254
     15252     15249     15253     15254     15256     15255     15259     15260
     15257     15255     15259     15260     15258     15255     15259     15260
     15262     15261     15265     15266     15263     15261     15265     15266
     15264     15261     15265     15266     15268     15267     15271     15272
     15269     15267     15271     15272     15270     15267     15271     15272
     15274     15273     15277     15278     15275     15273     15277     15278
     15276     15273     15277     15278     15280     15279     15283     15284
     15281     15279     15283     15284     15282     15279     15283     15284
     15286     15285     15289     15290     15287     15285     15289     15290
     15288     15285     15289     15290     15292     15291     15295     15296
     15293     15291     15295     15296     15294     15291     15295     15296
     15298     15297     15301     15302     15299     15297     15301     15302
     15300     15297     15301     15302     15304     15303     15307     15308
     15305     15303     15307     15308     15306     15303     15307     15308
     15310     15309     15313     15314     15311     15309     15313     15314
     15312     15309     15313     15314     15316     15315     15319     15320
     15317     15315     15319     15320     15318     15315     15319     15320
     15322     15321     15325     15326     15323     15321     15325     15326
     15324     15321     15325     15326     15328     15327     15331     15332
     15329     15327     15331     15332     15330     15327     15331     15332
     15334     15333     15337     15338     15335     15333     15337     15338
     15336     15333     15337     15338     15340     15339     15343     15344
     15341     15339     15343     15344     15342     15339     15343     15344
     15346     15345     15349     15350     15347     15345     15349     15350
     15348     15345     15349     15350     15352     15351     15355     15356
     15353     15351     15355     15356     15354     15351     15355     15356
     15358     15357     15361     15362     15359     15357     15361     15362
     15360     15357     15361     15362     15364     15363     15367     15368
     15365     15363     15367     15368     15366     15363     15367     15368
     15370     15369     15373     15374     15371     15369     15373     15374
     15372     15369     15373     15374     15376     15375     15379     15380
     15377     15375     15379     15380     15378     15375     15379     15380
     15382     15381     15385     15386     15383     15381     15385     15386
     15384     15381     15385     15386     15388     15387     15391     15392
     15389     15387     15391     15392     15390     15387     15391     15392
     15394     15393     15397     15398     15395     15393     15397     15398
     15396     15393     15397     15398     15400     15399     15403     15404
     15401     15399     15403     15404     15402     15399     15403     15404
     15406     15405     15409     15410     15407     15405     15409     15410
     15408     15405     15409     15410     15412     15411     15415     15416
     15413     15411     15415     15416     15414     15411     15415     15416
     15418     15417     15421     15422     15419     15417     15421     15422
     15420     15417     15421     15422     15424     15423     15427     15428
     15425     15423     15427     15428     15426     15423     15427     15428
     15430     15429     15433     15434     15431     15429     15433     15434
     15432     15429     15433     15434     15436     15435     15439     15440
     15437     15435     15439     15440     15438     15435     15439     15440
     15442     15441     15445     15446     15443     15441     15445     15446
     15444     15441     15445     15446     15448     15447     15451     15452
     15449     15447     15451     15452     15450     15447     15451     15452
     15454     15453     15457     15458     15455     15453     15457     15458
     15456     15453     15457     15458     15460     15459     15463     15464
     15461     15459     15463     15464     15462     15459     15463     15464
     15466     15465     15469     15470     15467     15465     15469     15470
     15468     15465     15469     15470     15472     15471     15475     15476
     15473     15471     15475     15476     15474     15471     15475     15476
     15478     15477     15481     15482     15479     15477     15481     15482
     15480     15477     15481     15482     15484     15483     15487     15488
     15485     15483     15487     15488     15486     15483     15487     15488
     15490     15489     15493     15494     15491     15489     15493     15494
     15492     15489     15493     15494     15496     15495     15499     15500
     15497     15495     15499     15500     15498     15495     15499     15500
     15502     15501     15505     15506     15503     15501     15505     15506
     15504     15501     15505     15506     15508     15507     15511     15512
     15509     15507     15511     15512     15510     15507     15511     15512
     15514     15513     15517     15518     15515     15513     15517     15518
     15516     15513     15517     15518     15520     15519     15523     15524
     15521     15519     15523     15524     15522     15519     15523     15524
     15526     15525     15529     15530     15527     15525     15529     15530
     15528     15525     15529     15530     15532     15531     15535     15536
     15533     15531     15535     15536     15534     15531     15535     15536
     15538     15537     15541     15542     15539     15537     15541     15542
     15540     15537     15541     15542     15544     15543     15547     15548
     15545     15543     15547     15548     15546     15543     15547     15548
     15550     15549     15553     15554     15551     15549     15553     15554
     15552     15549     15553     15554     15556     15555     15559     15560
     15557     15555     15559     15560     15558     15555     15559     15560
     15562     15561     15565     15566     15563     15561     15565     15566
     15564     15561     15565     15566     15568     15567     15571     15572
     15569     15567     15571     15572     15570     15567     15571     15572
     15574     15573     15577     15578     15575     15573     15577     15578
     15576     15573     15577     15578     15580     15579     15583     15584
     15581     15579     15583     15584     15582     15579     15583     15584
     15586     15585     15589     15590     15587     15585     15589     15590
     15588     15585     15589     15590     15592     15591     15595     15596
     15593     15591     15595     15596     15594     15591     15595     15596
     15598     15597     15601     15602     15599     15597     15601     15602
     15600     15597     15601     15602     15604     15603     15607     15608
     15605     15603     15607     15608     15606     15603     15607     15608
     15610     15609     15613     15614     15611     15609     15613     15614
     15612     15609     15613     15614     15616     15615     15619     15620
     15617     15615     15619     15620     15618     15615     15619     15620
     15622     15621     15625     15626     15623     15621     15625     15626
     15624     15621     15625     15626     15628     15627     15631     15632
     15629     15627     15631     15632     15630     15627     15631     15632
     15634     15633     15637     15638     15635     15633     15637     15638
     15636     15633     15637     15638     15640     15639     15643     15644
     15641     15639     15643     15644     15642     15639     15643     15644
     15646     15645     15649     15650     15647     15645     15649     15650
     15648     15645     15649     15650     15652     15651     15655     15656
     15653     15651     15655     15656     15654     15651     15655     15656
     15658     15657     15661     15662     15659     15657     15661     15662
     15660     15657     15661     15662     15664     15663     15667     15668
     15665     15663     15667     15668     15666     15663     15667     15668
     15670     15669     15673     15674     15671     15669     15673     15674
     15672     15669     15673     15674     15676     15675     15679     15680
     15677     15675     15679     15680     15678     15675     15679     15680
     15682     15681     15685     15686     15683     15681     15685     15686
     15684     15681     15685     15686     15688     15687     15691     15692
     15689     15687     15691     15692     15690     15687     15691     15692
     15694     15693     15697     15698     15695     15693     15697     15698
     15696     15693     15697     15698     15700     15699     15703     15704
     15701     15699     15703     15704     15702     15699     15703     15704
     15706     15705     15709     15710     15707     15705     15709     15710
     15708     15705     15709     15710     15712     15711     15715     15716
     15713     15711     15715     15716     15714     15711     15715     15716
     15718     15717     15721     15722     15719     15717     15721     15722
     15720     15717     15721     15722     15724     15723     15727     15728
     15725     15723     15727     15728     15726     15723     15727     15728
     15730     15729     15733     15734     15731     15729     15733     15734
     15732     15729     15733     15734     15736     15735     15739     15740
     15737     15735     15739     15740     15738     15735     15739     15740
     15742     15741     15745     15746     15743     15741     15745     15746
     15744     15741     15745     15746     15748     15747     15751     15752
     15749     15747     15751     15752     15750     15747     15751     15752
     15754     15753     15757     15758     15755     15753     15757     15758
     15756     15753     15757     15758     15760     15759     15763     15764
     15761     15759     15763     15764     15762     15759     15763     15764
     15766     15765     15769     15770     15767     15765     15769     15770
     15768     15765     15769     15770     15772     15771     15775     15776
     15773     15771     15775     15776     15774     15771     15775     15776
     15778     15777     15781     15782     15779     15777     15781     15782
     15780     15777     15781     15782     15784     15783     15787     15788
     15785     15783     15787     15788     15786     15783     15787     15788
     15790     15789     15793     15794     15791     15789     15793     15794
     15792     15789     15793     15794     15796     15795     15799     15800
     15797     15795     15799     15800     15798     15795     15799     15800
     15802     15801     15805     15806     15803     15801     15805     15806
     15804     15801     15805     15806     15808     15807     15811     15812
     15809     15807     15811     15812     15810     15807     15811     15812
     15814     15813     15817     15818     15815     15813     15817     15818
     15816     15813     15817     15818     15820     15819     15823     15824
     15821     15819     15823     15824     15822     15819     15823     15824
     15826     15825     15829     15830     15827     15825     15829     15830
     15828     15825     15829     15830     15832     15831     15835     15836
     15833     15831     15835     15836     15834     15831     15835     15836
     15838     15837     15841     15842     15839     15837     15841     15842
     15840     15837     15841     15842     15844     15843     15847     15848
     15845     15843     15847     15848     15846     15843     15847     15848
     15850     15849     15853     15854     15851     15849     15853     15854
     15852     15849     15853     15854     15856     15855     15859     15860
     15857     15855     15859     15860     15858     15855     15859     15860
     15862     15861     15865     15866     15863     15861     15865     15866
     15864     15861     15865     15866     15868     15867     15871     15872
     15869     15867     15871     15872     15870     15867     15871     15872
     15874     15873     15877     15878     15875     15873     15877     15878
     15876     15873     15877     15878     15880     15879     15883     15884
     15881     15879     15883     15884     15882     15879     15883     15884
     15886     15885     15889     15890     15887     15885     15889     15890
     15888     15885     15889     15890     15892     15891     15895     15896
     15893     15891     15895     15896     15894     15891     15895     15896
     15898     15897     15901     15902     15899     15897     15901     15902
     15900     15897     15901     15902     15904     15903     15907     15908
     15905     15903     15907     15908     15906     15903     15907     15908
     15910     15909     15913     15914     15911     15909     15913     15914
     15912     15909     15913     15914     15916     15915     15919     15920
     15917     15915     15919     15920     15918     15915     15919     15920
     15922     15921     15925     15926     15923     15921     15925     15926
     15924     15921     15925     15926     15928     15927     15931     15932
     15929     15927     15931     15932     15930     15927     15931     15932
     15934     15933     15937     15938     15935     15933     15937     15938
     15936     15933     15937     15938     15940     15939     15943     15944
     15941     15939     15943     15944     15942     15939     15943     15944
     15946     15945     15949     15950     15947     15945     15949     15950
     15948     15945     15949     15950     15952     15951     15955     15956
     15953     15951     15955     15956     15954     15951     15955     15956
     15958     15957     15961     15962     15959     15957     15961     15962
     15960     15957     15961     15962     15964     15963     15967     15968
     15965     15963     15967     15968     15966     15963     15967     15968
     15970     15969     15973     15974     15971     15969     15973     15974
     15972     15969     15973     15974     15976     15975     15979     15980
     15977     15975     15979     15980     15978     15975     15979     15980
     15982     15981     15985     15986     15983     15981     15985     15986
     15984     15981     15985     15986     15988     15987     15991     15992
     15989     15987     15991     15992     15990     15987     15991     15992
     15994     15993     15997     15998     15995     15993     15997     15998
     15996     15993     15997     15998     16000     15999     16003     16004
     16001     15999     16003     16004     16002     15999     16003     16004
     16006     16005     16009     16010     16007     16005     16009     16010
     16008     16005     16009     16010     16012     16011     16015     16016
     16013     16011     16015     16016     16014     16011     16015     16016
     16018     16017     16021     16022     16019     16017     16021     16022
     16020     16017     16021     16022     16024     16023     16027     16028
     16025     16023     16027     16028     16026     16023     16027     16028
     16030     16029     16033     16034     16031     16029     16033     16034
     16032     16029     16033     16034     16036     16035     16039     16040
     16037     16035     16039     16040     16038     16035     16039     16040
     16042     16041     16045     16046     16043     16041     16045     16046
     16044     16041     16045     16046     16048     16047     16051     16052
     16049     16047     16051     16052     16050     16047     16051     16052
     16054     16053     16057     16058     16055     16053     16057     16058
     16056     16053     16057     16058     16060     16059     16063     16064
     16061     16059     16063     16064     16062     16059     16063     16064
     16066     16065     16069     16070     16067     16065     16069     16070
     16068     16065     16069     16070     16072     16071     16075     16076
     16073     16071     16075     16076     16074     16071     16075     16076
     16078     16077     16081     16082     16079     16077     16081     16082
     16080     16077     16081     16082     16084     16083     16087     16088
     16085     16083     16087     16088     16086     16083     16087     16088
     16090     16089     16093     16094     16091     16089     16093     16094
     16092     16089     16093     16094     16096     16095     16099     16100
     16097     16095     16099     16100     16098     16095     16099     16100
     16102     16101     16105     16106     16103     16101     16105     16106
     16104     16101     16105     16106     16108     16107     16111     16112
     16109     16107     16111     16112     16110     16107     16111     16112
     16114     16113     16117     16118     16115     16113     16117     16118
     16116     16113     16117     16118     16120     16119     16123     16124
     16121     16119     16123     16124     16122     16119     16123     16124
     16126     16125     16129     16130     16127     16125     16129     16130
     16128     16125     16129     16130     16132     16131     16135     16136
     16133     16131     16135     16136     16134     16131     16135     16136
     16138     16137     16141     16142     16139     16137     16141     16142
     16140     16137     16141     16142     16144     16143     16147     16148
     16145     16143     16147     16148     16146     16143     16147     16148
     16150     16149     16153     16154     16151     16149     16153     16154
     16152     16149     16153     16154     16156     16155     16159     16160
     16157     16155     16159     16160     16158     16155     16159     16160
     16162     16161     16165     16166     16163     16161     16165     16166
     16164     16161     16165     16166     16168     16167     16171     16172
     16169     16167     16171     16172     16170     16167     16171     16172
     16174     16173     16177     16178     16175     16173     16177     16178
     16176     16173     16177     16178     16180     16179     16183     16184
     16181     16179     16183     16184     16182     16179     16183     16184
     16186     16185     16189     16190     16187     16185     16189     16190
     16188     16185     16189     16190     16192     16191     16195     16196
     16193     16191     16195     16196     16194     16191     16195     16196
     16198     16197     16201     16202     16199     16197     16201     16202
     16200     16197     16201     16202     16204     16203     16207     16208
     16205     16203     16207     16208     16206     16203     16207     16208
     16210     16209     16213     16214     16211     16209     16213     16214
     16212     16209     16213     16214     16216     16215     16219     16220
     16217     16215     16219     16220     16218     16215     16219     16220
     16222     16221     16225     16226     16223     16221     16225     16226
     16224     16221     16225     16226     16228     16227     16231     16232
     16229     16227     16231     16232     16230     16227     16231     16232
     16234     16233     16237     16238     16235     16233     16237     16238
     16236     16233     16237     16238     16240     16239     16243     16244
     16241     16239     16243     16244     16242     16239     16243     16244
     16246     16245     16249     16250     16247     16245     16249     16250
     16248     16245     16249     16250     16252     16251     16255     16256
     16253     16251     16255     16256     16254     16251     16255     16256
     16258     16257     16261     16262     16259     16257     16261     16262
     16260     16257     16261     16262     16264     16263     16267     16268
     16265     16263     16267     16268     16266     16263     16267     16268
     16270     16269     16273     16274     16271     16269     16273     16274
     16272     16269     16273     16274     16276     16275     16279     16280
     16277     16275     16279     16280     16278     16275     16279     16280
     16282     16281     16285     16286     16283     16281     16285     16286
     16284     16281     16285     16286     16288     16287     16291     16292
     16289     16287     16291     16292     16290     16287     16291     16292
     16294     16293     16297     16298     16295     16293     16297     16298
     16296     16293     16297     16298     16300     16299     16303     16304
     16301     16299     16303     16304     16302     16299     16303     16304
     16306     16305     16309     16310     16307     16305     16309     16310
     16308     16305     16309     16310     16312     16311     16315     16316
     16313     16311     16315     16316     16314     16311     16315     16316
     16318     16317     16321     16322     16319     16317     16321     16322
     16320     16317     16321     16322     16324     16323     16327     16328
     16325     16323     16327     16328     16326     16323     16327     16328
     16330     16329     16333     16334     16331     16329     16333     16334
     16332     16329     16333     16334     16336     16335     16339     16340
     16337     16335     16339     16340     16338     16335     16339     16340
     16342     16341     16345     16346     16343     16341     16345     16346
     16344     16341     16345     16346     16348     16347     16351     16352
     16349     16347     16351     16352     16350     16347     16351     16352
     16354     16353     16357     16358     16355     16353     16357     16358
     16356     16353     16357     16358     16360     16359     16363     16364
     16361     16359     16363     16364     16362     16359     16363     16364
     16366     16365     16369     16370     16367     16365     16369     16370
     16368     16365     16369     16370     16372     16371     16375     16376
     16373     16371     16375     16376     16374     16371     16375     16376
     16378     16377     16381     16382     16379     16377     16381     16382
     16380     16377     16381     16382     16384     16383     16387     16388
     16385     16383     16387     16388     16386     16383     16387     16388
     16390     16389     16393     16394     16391     16389     16393     16394
     16392     16389     16393     16394     16396     16395     16399     16400
     16397     16395     16399     16400     16398     16395     16399     16400
     16402     16401     16405     16406     16403     16401     16405     16406
     16404     16401     16405     16406     16408     16407     16411     16412
     16409     16407     16411     16412     16410     16407     16411     16412
     16414     16413     16417     16418     16415     16413     16417     16418
     16416     16413     16417     16418     16420     16419     16423     16424
     16421     16419     16423     16424     16422     16419     16423     16424
     16426     16425     16429     16430     16427     16425     16429     16430
     16428     16425     16429     16430     16432     16431     16435     16436
     16433     16431     16435     16436     16434     16431     16435     16436
     16438     16437     16441     16442     16439     16437     16441     16442
     16440     16437     16441     16442     16444     16443     16447     16448
     16445     16443     16447     16448     16446     16443     16447     16448
     16450     16449     16453     16454     16451     16449     16453     16454
     16452     16449     16453     16454     16456     16455     16459     16460
     16457     16455     16459     16460     16458     16455     16459     16460
     16462     16461     16465     16466     16463     16461     16465     16466
     16464     16461     16465     16466     16468     16467     16471     16472
     16469     16467     16471     16472     16470     16467     16471     16472
     16474     16473     16477     16478     16475     16473     16477     16478
     16476     16473     16477     16478     16480     16479     16483     16484
     16481     16479     16483     16484     16482     16479     16483     16484
     16486     16485     16489     16490     16487     16485     16489     16490
     16488     16485     16489     16490     16492     16491     16495     16496
     16493     16491     16495     16496     16494     16491     16495     16496
     16498     16497     16501     16502     16499     16497     16501     16502
     16500     16497     16501     16502     16504     16503     16507     16508
     16505     16503     16507     16508     16506     16503     16507     16508
     16510     16509     16513     16514     16511     16509     16513     16514
     16512     16509     16513     16514     16516     16515     16519     16520
     16517     16515     16519     16520     16518     16515     16519     16520
     16522     16521     16525     16526     16523     16521     16525     16526
     16524     16521     16525     16526     16528     16527     16531     16532
     16529     16527     16531     16532     16530     16527     16531     16532
     16534     16533     16537     16538     16535     16533     16537     16538
     16536     16533     16537     16538     16540     16539     16543     16544
     16541     16539     16543     16544     16542     16539     16543     16544
     16546     16545     16549     16550     16547     16545     16549     16550
     16548     16545     16549     16550     16552     16551     16555     16556
     16553     16551     16555     16556     16554     16551     16555     16556
     16558     16557     16561     16562     16559     16557     16561     16562
     16560     16557     16561     16562     16564     16563     16567     16568
     16565     16563     16567     16568     16566     16563     16567     16568
     16570     16569     16573     16574     16571     16569     16573     16574
     16572     16569     16573     16574     16576     16575     16579     16580
     16577     16575     16579     16580     16578     16575     16579     16580
     16582     16581     16585     16586     16583     16581     16585     16586
     16584     16581     16585     16586     16588     16587     16591     16592
     16589     16587     16591     16592     16590     16587     16591     16592
     16594     16593     16597     16598     16595     16593     16597     16598
     16596     16593     16597     16598     16600     16599     16603     16604
     16601     16599     16603     16604     16602     16599     16603     16604
     16606     16605     16609     16610     16607     16605     16609     16610
     16608     16605     16609     16610     16612     16611     16615     16616
     16613     16611     16615     16616     16614     16611     16615     16616
     16618     16617     16621     16622     16619     16617     16621     16622
     16620     16617     16621     16622     16624     16623     16627     16628
     16625     16623     16627     16628     16626     16623     16627     16628
     16630     16629     16633     16634     16631     16629     16633     16634
     16632     16629     16633     16634     16636     16635     16639     16640
     16637     16635     16639     16640     16638     16635     16639     16640
     16642     16641     16645     16646     16643     16641     16645     16646
     16644     16641     16645     16646     16648     16647     16651     16652
     16649     16647     16651     16652     16650     16647     16651     16652
     16654     16653     16657     16658     16655     16653     16657     16658
     16656     16653     16657     16658     16660     16659     16663     16664
     16661     16659     16663     16664     16662     16659     16663     16664
     16666     16665     16669     16670     16667     16665     16669     16670
     16668     16665     16669     16670     16672     16671     16675     16676
     16673     16671     16675     16676     16674     16671     16675     16676
     16678     16677     16681     16682     16679     16677     16681     16682
     16680     16677     16681     16682     16684     16683     16687     16688
     16685     16683     16687     16688     16686     16683     16687     16688
     16690     16689     16693     16694     16691     16689     16693     16694
     16692     16689     16693     16694     16696     16695     16699     16700
     16697     16695     16699     16700     16698     16695     16699     16700
     16702     16701     16705     16706     16703     16701     16705     16706
     16704     16701     16705     16706     16708     16707     16711     16712
     16709     16707     16711     16712     16710     16707     16711     16712
     16714     16713     16717     16718     16715     16713     16717     16718
     16716     16713     16717     16718     16720     16719     16723     16724
     16721     16719     16723     16724     16722     16719     16723     16724
     16726     16725     16729     16730     16727     16725     16729     16730
     16728     16725     16729     16730     16732     16731     16735     16736
     16733     16731     16735     16736     16734     16731     16735     16736
     16738     16737     16741     16742     16739     16737     16741     16742
     16740     16737     16741     16742     16744     16743     16747     16748
     16745     16743     16747     16748     16746     16743     16747     16748
     16750     16749     16753     16754     16751     16749     16753     16754
     16752     16749     16753     16754     16756     16755     16759     16760
     16757     16755     16759     16760     16758     16755     16759     16760
     16762     16761     16765     16766     16763     16761     16765     16766
     16764     16761     16765     16766     16768     16767     16771     16772
     16769     16767     16771     16772     16770     16767     16771     16772
     16774     16773     16777     16778     16775     16773     16777     16778
     16776     16773     16777     16778     16780     16779     16783     16784
     16781     16779     16783     16784     16782     16779     16783     16784
     16786     16785     16789     16790     16787     16785     16789     16790
     16788     16785     16789     16790     16792     16791     16795     16796
     16793     16791     16795     16796     16794     16791     16795     16796
     16798     16797     16801     16802     16799     16797     16801     16802
     16800     16797     16801     16802     16804     16803     16807     16808
     16805     16803     16807     16808     16806     16803     16807     16808
     16810     16809     16813     16814     16811     16809     16813     16814
     16812     16809     16813     16814     16816     16815     16819     16820
     16817     16815     16819     16820     16818     16815     16819     16820
     16822     16821     16825     16826     16823     16821     16825     16826
     16824     16821     16825     16826     16828     16827     16831     16832
     16829     16827     16831     16832     16830     16827     16831     16832
     16834     16833     16837     16838     16835     16833     16837     16838
     16836     16833     16837     16838     16840     16839     16843     16844
     16841     16839     16843     16844     16842     16839     16843     16844
     16846     16845     16849     16850     16847     16845     16849     16850
     16848     16845     16849     16850     16852     16851     16855     16856
     16853     16851     16855     16856     16854     16851     16855     16856
     16858     16857     16861     16862     16859     16857     16861     16862
     16860     16857     16861     16862     16864     16863     16867     16868
     16865     16863     16867     16868     16866     16863     16867     16868
     16870     16869     16873     16874     16871     16869     16873     16874
     16872     16869     16873     16874     16876     16875     16879     16880
     16877     16875     16879     16880     16878     16875     16879     16880
     16882     16881     16885     16886     16883     16881     16885     16886
     16884     16881     16885     16886     16888     16887     16891     16892
     16889     16887     16891     16892     16890     16887     16891     16892
     16894     16893     16897     16898     16895     16893     16897     16898
     16896     16893     16897     16898     16900     16899     16903     16904
     16901     16899     16903     16904     16902     16899     16903     16904
     16906     16905     16909     16910     16907     16905     16909     16910
     16908     16905     16909     16910     16912     16911     16915     16916
     16913     16911     16915     16916     16914     16911     16915     16916
     16918     16917     16921     16922     16919     16917     16921     16922
     16920     16917     16921     16922     16924     16923     16927     16928
     16925     16923     16927     16928     16926     16923     16927     16928
     16930     16929     16933     16934     16931     16929     16933     16934
     16932     16929     16933     16934     16936     16935     16939     16940
     16937     16935     16939     16940     16938     16935     16939     16940
     16942     16941     16945     16946     16943     16941     16945     16946
     16944     16941     16945     16946     16948     16947     16951     16952
     16949     16947     16951     16952     16950     16947     16951     16952
     16954     16953     16957     16958     16955     16953     16957     16958
     16956     16953     16957     16958     16960     16959     16963     16964
     16961     16959     16963     16964     16962     16959     16963     16964
     16966     16965     16969     16970     16967     16965     16969     16970
     16968     16965     16969     16970     16972     16971     16975     16976
     16973     16971     16975     16976     16974     16971     16975     16976
     16978     16977     16981     16982     16979     16977     16981     16982
     16980     16977     16981     16982     16984     16983     16987     16988
     16985     16983     16987     16988     16986     16983     16987     16988
     16990     16989     16993     16994     16991     16989     16993     16994
     16992     16989     16993     16994     16996     16995     16999     17000
     16997     16995     16999     17000     16998     16995     16999     17000
     17002     17001     17005     17006     17003     17001     17005     17006
     17004     17001     17005     17006     17008     17007     17011     17012
     17009     17007     17011     17012     17010     17007     17011     17012
     17014     17013     17017     17018     17015     17013     17017     17018
     17016     17013     17017     17018     17020     17019     17023     17024
     17021     17019     17023     17024     17022     17019     17023     17024
     17026     17025     17029     17030     17027     17025     17029     17030
     17028     17025     17029     17030     17032     17031     17035     17036
     17033     17031     17035     17036     17034     17031     17035     17036
     17038     17037     17041     17042     17039     17037     17041     17042
     17040     17037     17041     17042     17044     17043     17047     17048
     17045     17043     17047     17048     17046     17043     17047     17048
     17050     17049     17053     17054     17051     17049     17053     17054
     17052     17049     17053     17054     17056     17055     17059     17060
     17057     17055     17059     17060     17058     17055     17059     17060
     17062     17061     17065     17066     17063     17061     17065     17066
     17064     17061     17065     17066     17068     17067     17071     17072
     17069     17067     17071     17072     17070     17067     17071     17072
     17074     17073     17077     17078     17075     17073     17077     17078
     17076     17073     17077     17078     17080     17079     17083     17084
     17081     17079     17083     17084     17082     17079     17083     17084
     17086     17085     17089     17090     17087     17085     17089     17090
     17088     17085     17089     17090     17092     17091     17095     17096
     17093     17091     17095     17096     17094     17091     17095     17096
     17098     17097     17101     17102     17099     17097     17101     17102
     17100     17097     17101     17102     17104     17103     17107     17108
     17105     17103     17107     17108     17106     17103     17107     17108
     17110     17109     17113     17114     17111     17109     17113     17114
     17112     17109     17113     17114     17116     17115     17119     17120
     17117     17115     17119     17120     17118     17115     17119     17120
     17122     17121     17125     17126     17123     17121     17125     17126
     17124     17121     17125     17126     17128     17127     17131     17132
     17129     17127     17131     17132     17130     17127     17131     17132
     17134     17133     17137     17138     17135     17133     17137     17138
     17136     17133     17137     17138     17140     17139     17143     17144
     17141     17139     17143     17144     17142     17139     17143     17144
     17146     17145     17149     17150     17147     17145     17149     17150
     17148     17145     17149     17150     17152     17151     17155     17156
     17153     17151     17155     17156     17154     17151     17155     17156
     17158     17157     17161     17162     17159     17157     17161     17162
     17160     17157     17161     17162     17164     17163     17167     17168
     17165     17163     17167     17168     17166     17163     17167     17168
     17170     17169     17173     17174     17171     17169     17173     17174
     17172     17169     17173     17174     17176     17175     17179     17180
     17177     17175     17179     17180     17178     17175     17179     17180
     17182     17181     17185     17186     17183     17181     17185     17186
     17184     17181     17185     17186     17188     17187     17191     17192
     17189     17187     17191     17192     17190     17187     17191     17192
     17194     17193     17197     17198     17195     17193     17197     17198
     17196     17193     17197     17198     17200     17199     17203     17204
     17201     17199     17203     17204     17202     17199     17203     17204
     17206     17205     17209     17210     17207     17205     17209     17210
     17208     17205     17209     17210     17212     17211     17215     17216
     17213     17211     17215     17216     17214     17211     17215     17216
     17218     17217     17221     17222     17219     17217     17221     17222
     17220     17217     17221     17222     17224     17223     17227     17228
     17225     17223     17227     17228     17226     17223     17227     17228
     17230     17229     17233     17234     17231     17229     17233     17234
     17232     17229     17233     17234     17236     17235     17239     17240
     17237     17235     17239     17240     17238     17235     17239     17240
     17242     17241     17245     17246     17243     17241     17245     17246
     17244     17241     17245     17246     17248     17247     17251     17252
     17249     17247     17251     17252     17250     17247     17251     17252
     17254     17253     17257     17258     17255     17253     17257     17258
     17256     17253     17257     17258     17260     17259     17263     17264
     17261     17259     17263     17264     17262     17259     17263     17264
     17266     17265     17269     17270     17267     17265     17269     17270
     17268     17265     17269     17270     17272     17271     17275     17276
     17273     17271     17275     17276     17274     17271     17275     17276
     17278     17277     17281     17282     17279     17277     17281     17282
     17280     17277     17281     17282     17284     17283     17287     17288
     17285     17283     17287     17288     17286     17283     17287     17288
     17290     17289     17293     17294     17291     17289     17293     17294
     17292     17289     17293     17294     17296     17295     17299     17300
     17297     17295     17299     17300     17298     17295     17299     17300
     17302     17301     17305     17306     17303     17301     17305     17306
     17304     17301     17305     17306     17308     17307     17311     17312
     17309     17307     17311     17312     17310     17307     17311     17312
     17314     17313     17317     17318     17315     17313     17317     17318
     17316     17313     17317     17318     17320     17319     17323     17324
     17321     17319     17323     17324     17322     17319     17323     17324
     17326     17325     17329     17330     17327     17325     17329     17330
     17328     17325     17329     17330     17332     17331     17335     17336
     17333     17331     17335     17336     17334     17331     17335     17336
     17338     17337     17341     17342     17339     17337     17341     17342
     17340     17337     17341     17342     17344     17343     17347     17348
     17345     17343     17347     17348     17346     17343     17347     17348
     17350     17349     17353     17354     17351     17349     17353     17354
     17352     17349     17353     17354     17356     17355     17359     17360
     17357     17355     17359     17360     17358     17355     17359     17360
     17362     17361     17365     17366     17363     17361     17365     17366
     17364     17361     17365     17366     17368     17367     17371     17372
     17369     17367     17371     17372     17370     17367     17371     17372
     17374     17373     17377     17378     17375     17373     17377     17378
     17376     17373     17377     17378     17380     17379     17383     17384
     17381     17379     17383     17384     17382     17379     17383     17384
     17386     17385     17389     17390     17387     17385     17389     17390
     17388     17385     17389     17390     17392     17391     17395     17396
     17393     17391     17395     17396     17394     17391     17395     17396
     17398     17397     17401     17402     17399     17397     17401     17402
     17400     17397     17401     17402     17404     17403     17407     17408
     17405     17403     17407     17408     17406     17403     17407     17408
     17410     17409     17413     17414     17411     17409     17413     17414
     17412     17409     17413     17414     17416     17415     17419     17420
     17417     17415     17419     17420     17418     17415     17419     17420
     17422     17421     17425     17426     17423     17421     17425     17426
     17424     17421     17425     17426     17428     17427     17431     17432
     17429     17427     17431     17432     17430     17427     17431     17432
     17434     17433     17437     17438     17435     17433     17437     17438
     17436     17433     17437     17438     17440     17439     17443     17444
     17441     17439     17443     17444     17442     17439     17443     17444
     17446     17445     17449     17450     17447     17445     17449     17450
     17448     17445     17449     17450     17452     17451     17455     17456
     17453     17451     17455     17456     17454     17451     17455     17456
     17458     17457     17461     17462     17459     17457     17461     17462
     17460     17457     17461     17462     17464     17463     17467     17468
     17465     17463     17467     17468     17466     17463     17467     17468
     17470     17469     17473     17474     17471     17469     17473     17474
     17472     17469     17473     17474     17476     17475     17479     17480
     17477     17475     17479     17480     17478     17475     17479     17480
     17482     17481     17485     17486     17483     17481     17485     17486
     17484     17481     17485     17486     17488     17487     17491     17492
     17489     17487     17491     17492     17490     17487     17491     17492
     17494     17493     17497     17498     17495     17493     17497     17498
     17496     17493     17497     17498     17500     17499     17503     17504
     17501     17499     17503     17504     17502     17499     17503     17504
     17506     17505     17509     17510     17507     17505     17509     17510
     17508     17505     17509     17510     17512     17511     17515     17516
     17513     17511     17515     17516     17514     17511     17515     17516
     17518     17517     17521     17522     17519     17517     17521     17522
     17520     17517     17521     17522     17524     17523     17527     17528
     17525     17523     17527     17528     17526     17523     17527     17528
     17530     17529     17533     17534     17531     17529     17533     17534
     17532     17529     17533     17534     17536     17535     17539     17540
     17537     17535     17539     17540     17538     17535     17539     17540
     17542     17541     17545     17546     17543     17541     17545     17546
     17544     17541     17545     17546     17548     17547     17551     17552
     17549     17547     17551     17552     17550     17547     17551     17552
     17554     17553     17557     17558     17555     17553     17557     17558
     17556     17553     17557     17558     17560     17559     17563     17564
     17561     17559     17563     17564     17562     17559     17563     17564
     17566     17565     17569     17570     17567     17565     17569     17570
     17568     17565     17569     17570     17572     17571     17575     17576
     17573     17571     17575     17576     17574     17571     17575     17576
     17578     17577     17581     17582     17579     17577     17581     17582
     17580     17577     17581     17582     17584     17583     17587     17588
     17585     17583     17587     17588     17586     17583     17587     17588
     17590     17589     17593     17594     17591     17589     17593     17594
     17592     17589     17593     17594     17596     17595     17599     17600
     17597     17595     17599     17600     17598     17595     17599     17600
     17602     17601     17605     17606     17603     17601     17605     17606
     17604     17601     17605     17606     17608     17607     17611     17612
     17609     17607     17611     17612     17610     17607     17611     17612
     17614     17613     17617     17618     17615     17613     17617     17618
     17616     17613     17617     17618     17620     17619     17623     17624
     17621     17619     17623     17624     17622     17619     17623     17624
     17626     17625     17629     17630     17627     17625     17629     17630
     17628     17625     17629     17630     17632     17631     17635     17636
     17633     17631     17635     17636     17634     17631     17635     17636
     17638     17637     17641     17642     17639     17637     17641     17642
     17640     17637     17641     17642     17644     17643     17647     17648
     17645     17643     17647     17648     17646     17643     17647     17648
     17650     17649     17653     17654     17651     17649     17653     17654
     17652     17649     17653     17654     17656     17655     17659     17660
     17657     17655     17659     17660     17658     17655     17659     17660
     17662     17661     17665     17666     17663     17661     17665     17666
     17664     17661     17665     17666     17668     17667     17671     17672
     17669     17667     17671     17672     17670     17667     17671     17672
     17674     17673     17677     17678     17675     17673     17677     17678
     17676     17673     17677     17678     17680     17679     17683     17684
     17681     17679     17683     17684     17682     17679     17683     17684
     17686     17685     17689     17690     17687     17685     17689     17690
     17688     17685     17689     17690     17692     17691     17695     17696
     17693     17691     17695     17696     17694     17691     17695     17696
     17698     17697     17701     17702     17699     17697     17701     17702
     17700     17697     17701     17702     17704     17703     17707     17708
     17705     17703     17707     17708     17706     17703     17707     17708
     17710     17709     17713     17714     17711     17709     17713     17714
     17712     17709     17713     17714     17716     17715     17719     17720
     17717     17715     17719     17720     17718     17715     17719     17720
     17722     17721     17725     17726     17723     17721     17725     17726
     17724     17721     17725     17726     17728     17727     17731     17732
     17729     17727     17731     17732     17730     17727     17731     17732
     17734     17733     17737     17738     17735     17733     17737     17738
     17736     17733     17737     17738     17740     17739     17743     17744
     17741     17739     17743     17744     17742     17739     17743     17744
     17746     17745     17749     17750     17747     17745     17749     17750
     17748     17745     17749     17750     17752     17751     17755     17756
     17753     17751     17755     17756     17754     17751     17755     17756
     17758     17757     17761     17762     17759     17757     17761     17762
     17760     17757     17761     17762     17764     17763     17767     17768
     17765     17763     17767     17768     17766     17763     17767     17768
     17770     17769     17773     17774     17771     17769     17773     17774
     17772     17769     17773     17774     17776     17775     17779     17780
     17777     17775     17779     17780     17778     17775     17779     17780
     17782     17781     17785     17786     17783     17781     17785     17786
     17784     17781     17785     17786     17788     17787     17791     17792
     17789     17787     17791     17792     17790     17787     17791     17792
     17794     17793     17797     17798     17795     17793     17797     17798
     17796     17793     17797     17798     17800     17799     17803     17804
     17801     17799     17803     17804     17802     17799     17803     17804
     17806     17805     17809     17810     17807     17805     17809     17810
     17808     17805     17809     17810     17812     17811     17815     17816
     17813     17811     17815     17816     17814     17811     17815     17816
     17818     17817     17821     17822     17819     17817     17821     17822
     17820     17817     17821     17822     17824     17823     17827     17828
     17825     17823     17827     17828     17826     17823     17827     17828
     17830     17829     17833     17834     17831     17829     17833     17834
     17832     17829     17833     17834     17836     17835     17839     17840
     17837     17835     17839     17840     17838     17835     17839     17840
     17842     17841     17845     17846     17843     17841     17845     17846
     17844     17841     17845     17846     17848     17847     17851     17852
     17849     17847     17851     17852     17850     17847     17851     17852
     17854     17853     17857     17858     17855     17853     17857     17858
     17856     17853     17857     17858     17860     17859     17863     17864
     17861     17859     17863     17864     17862     17859     17863     17864
     17866     17865     17869     17870     17867     17865     17869     17870
     17868     17865     17869     17870     17872     17871     17875     17876
     17873     17871     17875     17876     17874     17871     17875     17876
     17878     17877     17881     17882     17879     17877     17881     17882
     17880     17877     17881     17882     17884     17883     17887     17888
     17885     17883     17887     17888     17886     17883     17887     17888
     17890     17889     17893     17894     17891     17889     17893     17894
     17892     17889     17893     17894     17896     17895     17899     17900
     17897     17895     17899     17900     17898     17895     17899     17900
     17902     17901     17905     17906     17903     17901     17905     17906
     17904     17901     17905     17906     17908     17907     17911     17912
     17909     17907     17911     17912     17910     17907     17911     17912
     17914     17913     17917     17918     17915     17913     17917     17918
     17916     17913     17917     17918     17920     17919     17923     17924
     17921     17919     17923     17924     17922     17919     17923     17924
     17926     17925     17929     17930     17927     17925     17929     17930
     17928     17925     17929     17930     17932     17931     17935     17936
     17933     17931     17935     17936     17934     17931     17935     17936
     17938     17937     17941     17942     17939     17937     17941     17942
     17940     17937     17941     17942     17944     17943     17947     17948
     17945     17943     17947     17948     17946     17943     17947     17948
     17950     17949     17953     17954     17951     17949     17953     17954
     17952     17949     17953     17954     17956     17955     17959     17960
     17957     17955     17959     17960     17958     17955     17959     17960
     17962     17961     17965     17966     17963     17961     17965     17966
     17964     17961     17965     17966     17968     17967     17971     17972
     17969     17967     17971     17972     17970     17967     17971     17972
     17974     17973     17977     17978     17975     17973     17977     17978
     17976     17973     17977     17978     17980     17979     17983     17984
     17981     17979     17983     17984     17982     17979     17983     17984
     17986     17985     17989     17990     17987     17985     17989     17990
     17988     17985     17989     17990     17992     17991     17995     17996
     17993     17991     17995     17996     17994     17991     17995     17996
     17998     17997     18001     18002     17999     17997     18001     18002
     18000     17997     18001     18002     18004     18003     18007     18008
     18005     18003     18007     18008     18006     18003     18007     18008
     18010     18009     18013     18014     18011     18009     18013     18014
     18012     18009     18013     18014     18016     18015     18019     18020
     18017     18015     18019     18020     18018     18015     18019     18020
     18022     18021     18025     18026     18023     18021     18025     18026
     18024     18021     18025     18026     18028     18027     18031     18032
     18029     18027     18031     18032     18030     18027     18031     18032
     18034     18033     18037     18038     18035     18033     18037     18038
     18036     18033     18037     18038     18040     18039     18043     18044
     18041     18039     18043     18044     18042     18039     18043     18044
     18046     18045     18049     18050     18047     18045     18049     18050
     18048     18045     18049     18050     18052     18051     18055     18056
     18053     18051     18055     18056     18054     18051     18055     18056
     18058     18057     18061     18062     18059     18057     18061     18062
     18060     18057     18061     18062     18064     18063     18067     18068
     18065     18063     18067     18068     18066     18063     18067     18068
     18070     18069     18073     18074     18071     18069     18073     18074
     18072     18069     18073     18074     18076     18075     18079     18080
     18077     18075     18079     18080     18078     18075     18079     18080
     18082     18081     18085     18086     18083     18081     18085     18086
     18084     18081     18085     18086     18088     18087     18091     18092
     18089     18087     18091     18092     18090     18087     18091     18092
     18094     18093     18097     18098     18095     18093     18097     18098
     18096     18093     18097     18098     18100     18099     18103     18104
     18101     18099     18103     18104     18102     18099     18103     18104
     18106     18105     18109     18110     18107     18105     18109     18110
     18108     18105     18109     18110     18112     18111     18115     18116
     18113     18111     18115     18116     18114     18111     18115     18116
     18118     18117     18121     18122     18119     18117     18121     18122
     18120     18117     18121     18122     18124     18123     18127     18128
     18125     18123     18127     18128     18126     18123     18127     18128
     18130     18129     18133     18134     18131     18129     18133     18134
     18132     18129     18133     18134     18136     18135     18139     18140
     18137     18135     18139     18140     18138     18135     18139     18140
     18142     18141     18145     18146     18143     18141     18145     18146
     18144     18141     18145     18146     18148     18147     18151     18152
     18149     18147     18151     18152     18150     18147     18151     18152
     18154     18153     18157     18158     18155     18153     18157     18158
     18156     18153     18157     18158     18160     18159     18163     18164
     18161     18159     18163     18164     18162     18159     18163     18164
     18166     18165     18169     18170     18167     18165     18169     18170
     18168     18165     18169     18170     18172     18171     18175     18176
     18173     18171     18175     18176     18174     18171     18175     18176
     18178     18177     18181     18182     18179     18177     18181     18182
     18180     18177     18181     18182     18184     18183     18187     18188
     18185     18183     18187     18188     18186     18183     18187     18188
     18190     18189     18193     18194     18191     18189     18193     18194
     18192     18189     18193     18194     18196     18195     18199     18200
     18197     18195     18199     18200     18198     18195     18199     18200
     18202     18201     18205     18206     18203     18201     18205     18206
     18204     18201     18205     18206     18208     18207     18211     18212
     18209     18207     18211     18212     18210     18207     18211     18212
     18214     18213     18217     18218     18215     18213     18217     18218
     18216     18213     18217     18218     18220     18219     18223     18224
     18221     18219     18223     18224     18222     18219     18223     18224
     18226     18225     18229     18230     18227     18225     18229     18230
     18228     18225     18229     18230     18232     18231     18235     18236
     18233     18231     18235     18236     18234     18231     18235     18236
     18238     18237     18241     18242     18239     18237     18241     18242
     18240     18237     18241     18242     18244     18243     18247     18248
     18245     18243     18247     18248     18246     18243     18247     18248
     18250     18249     18253     18254     18251     18249     18253     18254
     18252     18249     18253     18254     18256     18255     18259     18260
     18257     18255     18259     18260     18258     18255     18259     18260
     18262     18261     18265     18266     18263     18261     18265     18266
     18264     18261     18265     18266     18268     18267     18271     18272
     18269     18267     18271     18272     18270     18267     18271     18272
     18274     18273     18277     18278     18275     18273     18277     18278
     18276     18273     18277     18278     18280     18279     18283     18284
     18281     18279     18283     18284     18282     18279     18283     18284
     18286     18285     18289     18290     18287     18285     18289     18290
     18288     18285     18289     18290     18292     18291     18295     18296
     18293     18291     18295     18296     18294     18291     18295     18296
     18298     18297     18301     18302     18299     18297     18301     18302
     18300     18297     18301     18302     18304     18303     18307     18308
     18305     18303     18307     18308     18306     18303     18307     18308
     18310     18309     18313     18314     18311     18309     18313     18314
     18312     18309     18313     18314     18316     18315     18319     18320
     18317     18315     18319     18320     18318     18315     18319     18320
     18322     18321     18325     18326     18323     18321     18325     18326
     18324     18321     18325     18326     18328     18327     18331     18332
     18329     18327     18331     18332     18330     18327     18331     18332
     18334     18333     18337     18338     18335     18333     18337     18338
     18336     18333     18337     18338     18340     18339     18343     18344
     18341     18339     18343     18344     18342     18339     18343     18344
     18346     18345     18349     18350     18347     18345     18349     18350
     18348     18345     18349     18350     18352     18351     18355     18356
     18353     18351     18355     18356     18354     18351     18355     18356
     18358     18357     18361     18362     18359     18357     18361     18362
     18360     18357     18361     18362     18364     18363     18367     18368
     18365     18363     18367     18368     18366     18363     18367     18368
     18370     18369     18373     18374     18371     18369     18373     18374
     18372     18369     18373     18374     18376     18375     18379     18380
     18377     18375     18379     18380     18378     18375     18379     18380
     18382     18381     18385     18386     18383     18381     18385     18386
     18384     18381     18385     18386     18388     18387     18391     18392
     18389     18387     18391     18392     18390     18387     18391     18392
     18394     18393     18397     18398     18395     18393     18397     18398
     18396     18393     18397     18398     18400     18399     18403     18404
     18401     18399     18403     18404     18402     18399     18403     18404
     18406     18405     18409     18410     18407     18405     18409     18410
     18408     18405     18409     18410     18412     18411     18415     18416
     18413     18411     18415     18416     18414     18411     18415     18416
     18418     18417     18421     18422     18419     18417     18421     18422
     18420     18417     18421     18422     18424     18423     18427     18428
     18425     18423     18427     18428     18426     18423     18427     18428
     18430     18429     18433     18434     18431     18429     18433     18434
     18432     18429     18433     18434     18436     18435     18439     18440
     18437     18435     18439     18440     18438     18435     18439     18440
     18442     18441     18445     18446     18443     18441     18445     18446
     18444     18441     18445     18446     18448     18447     18451     18452
     18449     18447     18451     18452     18450     18447     18451     18452
     18454     18453     18457     18458     18455     18453     18457     18458
     18456     18453     18457     18458     18460     18459     18463     18464
     18461     18459     18463     18464     18462     18459     18463     18464
     18466     18465     18469     18470     18467     18465     18469     18470
     18468     18465     18469     18470     18472     18471     18475     18476
     18473     18471     18475     18476     18474     18471     18475     18476
     18478     18477     18481     18482     18479     18477     18481     18482
     18480     18477     18481     18482     18484     18483     18487     18488
     18485     18483     18487     18488     18486     18483     18487     18488
     18490     18489     18493     18494     18491     18489     18493     18494
     18492     18489     18493     18494     18496     18495     18499     18500
     18497     18495     18499     18500     18498     18495     18499     18500
     18502     18501     18505     18506     18503     18501     18505     18506
     18504     18501     18505     18506     18508     18507     18511     18512
     18509     18507     18511     18512     18510     18507     18511     18512
     18514     18513     18517     18518     18515     18513     18517     18518
     18516     18513     18517     18518     18520     18519     18523     18524
     18521     18519     18523     18524     18522     18519     18523     18524
     18526     18525     18529     18530     18527     18525     18529     18530
     18528     18525     18529     18530     18532     18531     18535     18536
     18533     18531     18535     18536     18534     18531     18535     18536
     18538     18537     18541     18542     18539     18537     18541     18542
     18540     18537     18541     18542     18544     18543     18547     18548
     18545     18543     18547     18548     18546     18543     18547     18548
     18550     18549     18553     18554     18551     18549     18553     18554
     18552     18549     18553     18554     18556     18555     18559     18560
     18557     18555     18559     18560     18558     18555     18559     18560
     18562     18561     18565     18566     18563     18561     18565     18566
     18564     18561     18565     18566     18568     18567     18571     18572
     18569     18567     18571     18572     18570     18567     18571     18572
     18574     18573     18577     18578     18575     18573     18577     18578
     18576     18573     18577     18578     18580     18579     18583     18584
     18581     18579     18583     18584     18582     18579     18583     18584
     18586     18585     18589     18590     18587     18585     18589     18590
     18588     18585     18589     18590     18592     18591     18595     18596
     18593     18591     18595     18596     18594     18591     18595     18596
     18598     18597     18601     18602     18599     18597     18601     18602
     18600     18597     18601     18602     18604     18603     18607     18608
     18605     18603     18607     18608     18606     18603     18607     18608
     18610     18609     18613     18614     18611     18609     18613     18614
     18612     18609     18613     18614     18616     18615     18619     18620
     18617     18615     18619     18620     18618     18615     18619     18620
     18622     18621     18625     18626     18623     18621     18625     18626
     18624     18621     18625     18626     18628     18627     18631     18632
     18629     18627     18631     18632     18630     18627     18631     18632
     18634     18633     18637     18638     18635     18633     18637     18638
     18636     18633     18637     18638     18640     18639     18643     18644
     18641     18639     18643     18644     18642     18639     18643     18644
     18646     18645     18649     18650     18647     18645     18649     18650
     18648     18645     18649     18650     18652     18651     18655     18656
     18653     18651     18655     18656     18654     18651     18655     18656
     18658     18657     18661     18662     18659     18657     18661     18662
     18660     18657     18661     18662     18664     18663     18667     18668
     18665     18663     18667     18668     18666     18663     18667     18668
     18670     18669     18673     18674     18671     18669     18673     18674
     18672     18669     18673     18674     18676     18675     18679     18680
     18677     18675     18679     18680     18678     18675     18679     18680
     18682     18681     18685     18686     18683     18681     18685     18686
     18684     18681     18685     18686     18688     18687     18691     18692
     18689     18687     18691     18692     18690     18687     18691     18692
     18694     18693     18697     18698     18695     18693     18697     18698
     18696     18693     18697     18698     18700     18699     18703     18704
     18701     18699     18703     18704     18702     18699     18703     18704
     18706     18705     18709     18710     18707     18705     18709     18710
     18708     18705     18709     18710     18712     18711     18715     18716
     18713     18711     18715     18716     18714     18711     18715     18716
     18718     18717     18721     18722     18719     18717     18721     18722
     18720     18717     18721     18722     18724     18723     18727     18728
     18725     18723     18727     18728     18726     18723     18727     18728
     18730     18729     18733     18734     18731     18729     18733     18734
     18732     18729     18733     18734     18736     18735     18739     18740
     18737     18735     18739     18740     18738     18735     18739     18740
     18742     18741     18745     18746     18743     18741     18745     18746
     18744     18741     18745     18746     18748     18747     18751     18752
     18749     18747     18751     18752     18750     18747     18751     18752
     18754     18753     18757     18758     18755     18753     18757     18758
     18756     18753     18757     18758     18760     18759     18763     18764
     18761     18759     18763     18764     18762     18759     18763     18764
     18766     18765     18769     18770     18767     18765     18769     18770
     18768     18765     18769     18770     18772     18771     18775     18776
     18773     18771     18775     18776     18774     18771     18775     18776
     18778     18777     18781     18782     18779     18777     18781     18782
     18780     18777     18781     18782     18784     18783     18787     18788
     18785     18783     18787     18788     18786     18783     18787     18788
     18790     18789     18793     18794     18791     18789     18793     18794
     18792     18789     18793     18794     18796     18795     18799     18800
     18797     18795     18799     18800     18798     18795     18799     18800
     18802     18801     18805     18806     18803     18801     18805     18806
     18804     18801     18805     18806     18808     18807     18811     18812
     18809     18807     18811     18812     18810     18807     18811     18812
     18814     18813     18817     18818     18815     18813     18817     18818
     18816     18813     18817     18818     18820     18819     18823     18824
     18821     18819     18823     18824     18822     18819     18823     18824
     18826     18825     18829     18830     18827     18825     18829     18830
     18828     18825     18829     18830     18832     18831     18835     18836
     18833     18831     18835     18836     18834     18831     18835     18836
     18838     18837     18841     18842     18839     18837     18841     18842
     18840     18837     18841     18842     18844     18843     18847     18848
     18845     18843     18847     18848     18846     18843     18847     18848
     18850     18849     18853     18854     18851     18849     18853     18854
     18852     18849     18853     18854     18856     18855     18859     18860
     18857     18855     18859     18860     18858     18855     18859     18860
     18862     18861     18865     18866     18863     18861     18865     18866
     18864     18861     18865     18866     18868     18867     18871     18872
     18869     18867     18871     18872     18870     18867     18871     18872
     18874     18873     18877     18878     18875     18873     18877     18878
     18876     18873     18877     18878     18880     18879     18883     18884
     18881     18879     18883     18884     18882     18879     18883     18884
     18886     18885     18889     18890     18887     18885     18889     18890
     18888     18885     18889     18890     18892     18891     18895     18896
     18893     18891     18895     18896     18894     18891     18895     18896
     18898     18897     18901     18902     18899     18897     18901     18902
     18900     18897     18901     18902     18904     18903     18907     18908
     18905     18903     18907     18908     18906     18903     18907     18908
     18910     18909     18913     18914     18911     18909     18913     18914
     18912     18909     18913     18914     18916     18915     18919     18920
     18917     18915     18919     18920     18918     18915     18919     18920
     18922     18921     18925     18926     18923     18921     18925     18926
     18924     18921     18925     18926     18928     18927     18931     18932
     18929     18927     18931     18932     18930     18927     18931     18932
     18934     18933     18937     18938     18935     18933     18937     18938
     18936     18933     18937     18938     18940     18939     18943     18944
     18941     18939     18943     18944     18942     18939     18943     18944
     18946     18945     18949     18950     18947     18945     18949     18950
     18948     18945     18949     18950     18952     18951     18955     18956
     18953     18951     18955     18956     18954     18951     18955     18956
     18958     18957     18961     18962     18959     18957     18961     18962
     18960     18957     18961     18962     18964     18963     18967     18968
     18965     18963     18967     18968     18966     18963     18967     18968
     18970     18969     18973     18974     18971     18969     18973     18974
     18972     18969     18973     18974     18976     18975     18979     18980
     18977     18975     18979     18980     18978     18975     18979     18980
     18982     18981     18985     18986     18983     18981     18985     18986
     18984     18981     18985     18986     18988     18987     18991     18992
     18989     18987     18991     18992     18990     18987     18991     18992
     18994     18993     18997     18998     18995     18993     18997     18998
     18996     18993     18997     18998     19000     18999     19003     19004
     19001     18999     19003     19004     19002     18999     19003     19004
     19006     19005     19009     19010     19007     19005     19009     19010
     19008     19005     19009     19010     19012     19011     19015     19016
     19013     19011     19015     19016     19014     19011     19015     19016
     19018     19017     19021     19022     19019     19017     19021     19022
     19020     19017     19021     19022     19024     19023     19027     19028
     19025     19023     19027     19028     19026     19023     19027     19028
     19030     19029     19033     19034     19031     19029     19033     19034
     19032     19029     19033     19034     19036     19035     19039     19040
     19037     19035     19039     19040     19038     19035     19039     19040
     19042     19041     19045     19046     19043     19041     19045     19046
     19044     19041     19045     19046     19048     19047     19051     19052
     19049     19047     19051     19052     19050     19047     19051     19052
     19054     19053     19057     19058     19055     19053     19057     19058
     19056     19053     19057     19058     19060     19059     19063     19064
     19061     19059     19063     19064     19062     19059     19063     19064
     19066     19065     19069     19070     19067     19065     19069     19070
     19068     19065     19069     19070     19072     19071     19075     19076
     19073     19071     19075     19076     19074     19071     19075     19076
     19078     19077     19081     19082     19079     19077     19081     19082
     19080     19077     19081     19082     19084     19083     19087     19088
     19085     19083     19087     19088     19086     19083     19087     19088
     19090     19089     19093     19094     19091     19089     19093     19094
     19092     19089     19093     19094     19096     19095     19099     19100
     19097     19095     19099     19100     19098     19095     19099     19100
     19102     19101     19105     19106     19103     19101     19105     19106
     19104     19101     19105     19106     19108     19107     19111     19112
     19109     19107     19111     19112     19110     19107     19111     19112
     19114     19113     19117     19118     19115     19113     19117     19118
     19116     19113     19117     19118     19120     19119     19123     19124
     19121     19119     19123     19124     19122     19119     19123     19124
     19126     19125     19129     19130     19127     19125     19129     19130
     19128     19125     19129     19130     19132     19131     19135     19136
     19133     19131     19135     19136     19134     19131     19135     19136
     19138     19137     19141     19142     19139     19137     19141     19142
     19140     19137     19141     19142     19144     19143     19147     19148
     19145     19143     19147     19148     19146     19143     19147     19148
     19150     19149     19153     19154     19151     19149     19153     19154
     19152     19149     19153     19154     19156     19155     19159     19160
     19157     19155     19159     19160     19158     19155     19159     19160
     19162     19161     19165     19166     19163     19161     19165     19166
     19164     19161     19165     19166     19168     19167     19171     19172
     19169     19167     19171     19172     19170     19167     19171     19172
     19174     19173     19177     19178     19175     19173     19177     19178
     19176     19173     19177     19178     19180     19179     19183     19184
     19181     19179     19183     19184     19182     19179     19183     19184
     19186     19185     19189     19190     19187     19185     19189     19190
     19188     19185     19189     19190     19192     19191     19195     19196
     19193     19191     19195     19196     19194     19191     19195     19196
     19198     19197     19201     19202     19199     19197     19201     19202
     19200     19197     19201     19202     19204     19203     19207     19208
     19205     19203     19207     19208     19206     19203     19207     19208
     19210     19209     19213     19214     19211     19209     19213     19214
     19212     19209     19213     19214     19216     19215     19219     19220
     19217     19215     19219     19220     19218     19215     19219     19220
     19222     19221     19225     19226     19223     19221     19225     19226
     19224     19221     19225     19226     19228     19227     19231     19232
     19229     19227     19231     19232     19230     19227     19231     19232
     19234     19233     19237     19238     19235     19233     19237     19238
     19236     19233     19237     19238     19240     19239     19243     19244
     19241     19239     19243     19244     19242     19239     19243     19244
     19246     19245     19249     19250     19247     19245     19249     19250
     19248     19245     19249     19250     19252     19251     19255     19256
     19253     19251     19255     19256     19254     19251     19255     19256
     19258     19257     19261     19262     19259     19257     19261     19262
     19260     19257     19261     19262     19264     19263     19267     19268
     19265     19263     19267     19268     19266     19263     19267     19268
     19270     19269     19273     19274     19271     19269     19273     19274
     19272     19269     19273     19274     19276     19275     19279     19280
     19277     19275     19279     19280     19278     19275     19279     19280
     19282     19281     19285     19286     19283     19281     19285     19286
     19284     19281     19285     19286     19288     19287     19291     19292
     19289     19287     19291     19292     19290     19287     19291     19292
     19294     19293     19297     19298     19295     19293     19297     19298
     19296     19293     19297     19298     19300     19299     19303     19304
     19301     19299     19303     19304     19302     19299     19303     19304
     19306     19305     19309     19310     19307     19305     19309     19310
     19308     19305     19309     19310     19312     19311     19315     19316
     19313     19311     19315     19316     19314     19311     19315     19316
     19318     19317     19321     19322     19319     19317     19321     19322
     19320     19317     19321     19322     19324     19323     19327     19328
     19325     19323     19327     19328     19326     19323     19327     19328
     19330     19329     19333     19334     19331     19329     19333     19334
     19332     19329     19333     19334     19336     19335     19339     19340
     19337     19335     19339     19340     19338     19335     19339     19340
     19342     19341     19345     19346     19343     19341     19345     19346
     19344     19341     19345     19346     19348     19347     19351     19352
     19349     19347     19351     19352     19350     19347     19351     19352
     19354     19353     19357     19358     19355     19353     19357     19358
     19356     19353     19357     19358     19360     19359     19363     19364
     19361     19359     19363     19364     19362     19359     19363     19364
     19366     19365     19369     19370     19367     19365     19369     19370
     19368     19365     19369     19370     19372     19371     19375     19376
     19373     19371     19375     19376     19374     19371     19375     19376
     19378     19377     19381     19382     19379     19377     19381     19382
     19380     19377     19381     19382     19384     19383     19387     19388
     19385     19383     19387     19388     19386     19383     19387     19388
     19390     19389     19393     19394     19391     19389     19393     19394
     19392     19389     19393     19394     19396     19395     19399     19400
     19397     19395     19399     19400     19398     19395     19399     19400
     19402     19401     19405     19406     19403     19401     19405     19406
     19404     19401     19405     19406     19408     19407     19411     19412
     19409     19407     19411     19412     19410     19407     19411     19412
     19414     19413     19417     19418     19415     19413     19417     19418
     19416     19413     19417     19418     19420     19419     19423     19424
     19421     19419     19423     19424     19422     19419     19423     19424
     19426     19425     19429     19430     19427     19425     19429     19430
     19428     19425     19429     19430     19432     19431     19435     19436
     19433     19431     19435     19436     19434     19431     19435     19436
     19438     19437     19441     19442     19439     19437     19441     19442
     19440     19437     19441     19442     19444     19443     19447     19448
     19445     19443     19447     19448     19446     19443     19447     19448
     19450     19449     19453     19454     19451     19449     19453     19454
     19452     19449     19453     19454     19456     19455     19459     19460
     19457     19455     19459     19460     19458     19455     19459     19460
     19462     19461     19465     19466     19463     19461     19465     19466
     19464     19461     19465     19466     19468     19467     19471     19472
     19469     19467     19471     19472     19470     19467     19471     19472
     19474     19473     19477     19478     19475     19473     19477     19478
     19476     19473     19477     19478     19480     19479     19483     19484
     19481     19479     19483     19484     19482     19479     19483     19484
     19486     19485     19489     19490     19487     19485     19489     19490
     19488     19485     19489     19490     19492     19491     19495     19496
     19493     19491     19495     19496     19494     19491     19495     19496
     19498     19497     19501     19502     19499     19497     19501     19502
     19500     19497     19501     19502     19504     19503     19507     19508
     19505     19503     19507     19508     19506     19503     19507     19508
     19510     19509     19513     19514     19511     19509     19513     19514
     19512     19509     19513     19514     19516     19515     19519     19520
     19517     19515     19519     19520     19518     19515     19519     19520
     19522     19521     19525     19526     19523     19521     19525     19526
     19524     19521     19525     19526     19528     19527     19531     19532
     19529     19527     19531     19532     19530     19527     19531     19532
     19534     19533     19537     19538     19535     19533     19537     19538
     19536     19533     19537     19538     19540     19539     19543     19544
     19541     19539     19543     19544     19542     19539     19543     19544
     19546     19545     19549     19550     19547     19545     19549     19550
     19548     19545     19549     19550     19552     19551     19555     19556
     19553     19551     19555     19556     19554     19551     19555     19556
     19558     19557     19561     19562     19559     19557     19561     19562
     19560     19557     19561     19562     19564     19563     19567     19568
     19565     19563     19567     19568     19566     19563     19567     19568
     19570     19569     19573     19574     19571     19569     19573     19574
     19572     19569     19573     19574     19576     19575     19579     19580
     19577     19575     19579     19580     19578     19575     19579     19580
     19582     19581     19585     19586     19583     19581     19585     19586
     19584     19581     19585     19586     19588     19587     19591     19592
     19589     19587     19591     19592     19590     19587     19591     19592
     19594     19593     19597     19598     19595     19593     19597     19598
     19596     19593     19597     19598     19600     19599     19603     19604
     19601     19599     19603     19604     19602     19599     19603     19604
     19606     19605     19609     19610     19607     19605     19609     19610
     19608     19605     19609     19610     19612     19611     19615     19616
     19613     19611     19615     19616     19614     19611     19615     19616
     19618     19617     19621     19622     19619     19617     19621     19622
     19620     19617     19621     19622     19624     19623     19627     19628
     19625     19623     19627     19628     19626     19623     19627     19628
     19630     19629     19633     19634     19631     19629     19633     19634
     19632     19629     19633     19634     19636     19635     19639     19640
     19637     19635     19639     19640     19638     19635     19639     19640
     19642     19641     19645     19646     19643     19641     19645     19646
     19644     19641     19645     19646     19648     19647     19651     19652
     19649     19647     19651     19652     19650     19647     19651     19652
     19654     19653     19657     19658     19655     19653     19657     19658
     19656     19653     19657     19658     19660     19659     19663     19664
     19661     19659     19663     19664     19662     19659     19663     19664
     19666     19665     19669     19670     19667     19665     19669     19670
     19668     19665     19669     19670     19672     19671     19675     19676
     19673     19671     19675     19676     19674     19671     19675     19676
     19678     19677     19681     19682     19679     19677     19681     19682
     19680     19677     19681     19682     19684     19683     19687     19688
     19685     19683     19687     19688     19686     19683     19687     19688
     19690     19689     19693     19694     19691     19689     19693     19694
     19692     19689     19693     19694     19696     19695     19699     19700
     19697     19695     19699     19700     19698     19695     19699     19700
     19702     19701     19705     19706     19703     19701     19705     19706
     19704     19701     19705     19706     19708     19707     19711     19712
     19709     19707     19711     19712     19710     19707     19711     19712
     19714     19713     19717     19718     19715     19713     19717     19718
     19716     19713     19717     19718     19720     19719     19723     19724
     19721     19719     19723     19724     19722     19719     19723     19724
     19726     19725     19729     19730     19727     19725     19729     19730
     19728     19725     19729     19730     19732     19731     19735     19736
     19733     19731     19735     19736     19734     19731     19735     19736
     19738     19737     19741     19742     19739     19737     19741     19742
     19740     19737     19741     19742     19744     19743     19747     19748
     19745     19743     19747     19748     19746     19743     19747     19748
     19750     19749     19753     19754     19751     19749     19753     19754
     19752     19749     19753     19754     19756     19755     19759     19760
     19757     19755     19759     19760     19758     19755     19759     19760
     19762     19761     19765     19766     19763     19761     19765     19766
     19764     19761     19765     19766     19768     19767     19771     19772
     19769     19767     19771     19772     19770     19767     19771     19772
     19774     19773     19777     19778     19775     19773     19777     19778
     19776     19773     19777     19778     19780     19779     19783     19784
     19781     19779     19783     19784     19782     19779     19783     19784
     19786     19785     19789     19790     19787     19785     19789     19790
     19788     19785     19789     19790     19792     19791     19795     19796
     19793     19791     19795     19796     19794     19791     19795     19796
     19798     19797     19801     19802     19799     19797     19801     19802
     19800     19797     19801     19802     19804     19803     19807     19808
     19805     19803     19807     19808     19806     19803     19807     19808
     19810     19809     19813     19814     19811     19809     19813     19814
     19812     19809     19813     19814     19816     19815     19819     19820
     19817     19815     19819     19820     19818     19815     19819     19820
     19822     19821     19825     19826     19823     19821     19825     19826
     19824     19821     19825     19826     19828     19827     19831     19832
     19829     19827     19831     19832     19830     19827     19831     19832
     19834     19833     19837     19838     19835     19833     19837     19838
     19836     19833     19837     19838     19840     19839     19843     19844
     19841     19839     19843     19844     19842     19839     19843     19844
     19846     19845     19849     19850     19847     19845     19849     19850
     19848     19845     19849     19850     19852     19851     19855     19856
     19853     19851     19855     19856     19854     19851     19855     19856
     19858     19857     19861     19862     19859     19857     19861     19862
     19860     19857     19861     19862     19864     19863     19867     19868
     19865     19863     19867     19868     19866     19863     19867     19868
     19870     19869     19873     19874     19871     19869     19873     19874
     19872     19869     19873     19874     19876     19875     19879     19880
     19877     19875     19879     19880     19878     19875     19879     19880
     19882     19881     19885     19886     19883     19881     19885     19886
     19884     19881     19885     19886     19888     19887     19891     19892
     19889     19887     19891     19892     19890     19887     19891     19892
     19894     19893     19897     19898     19895     19893     19897     19898
     19896     19893     19897     19898     19900     19899     19903     19904
     19901     19899     19903     19904     19902     19899     19903     19904
     19906     19905     19909     19910     19907     19905     19909     19910
     19908     19905     19909     19910     19912     19911     19915     19916
     19913     19911     19915     19916     19914     19911     19915     19916
     19918     19917     19921     19922     19919     19917     19921     19922
     19920     19917     19921     19922     19924     19923     19927     19928
     19925     19923     19927     19928     19926     19923     19927     19928
     19930     19929     19933     19934     19931     19929     19933     19934
     19932     19929     19933     19934     19936     19935     19939     19940
     19937     19935     19939     19940     19938     19935     19939     19940
     19942     19941     19945     19946     19943     19941     19945     19946
     19944     19941     19945     19946     19948     19947     19951     19952
     19949     19947     19951     19952     19950     19947     19951     19952
     19954     19953     19957     19958     19955     19953     19957     19958
     19956     19953     19957     19958     19960     19959     19963     19964
     19961     19959     19963     19964     19962     19959     19963     19964
     19966     19965     19969     19970     19967     19965     19969     19970
     19968     19965     19969     19970     19972     19971     19975     19976
     19973     19971     19975     19976     19974     19971     19975     19976
     19978     19977     19981     19982     19979     19977     19981     19982
     19980     19977     19981     19982     19984     19983     19987     19988
     19985     19983     19987     19988     19986     19983     19987     19988
     19990     19989     19993     19994     19991     19989     19993     19994
     19992     19989     19993     19994     19996     19995     19999     20000
     19997     19995     19999     20000     19998     19995     19999     20000
     20002     20001     20005     20006     20003     20001     20005     20006
     20004     20001     20005     20006     20008     20007     20011     20012
     20009     20007     20011     20012     20010     20007     20011     20012
     20014     20013     20017     20018     20015     20013     20017     20018
     20016     20013     20017     20018     20020     20019     20023     20024
     20021     20019     20023     20024     20022     20019     20023     20024
     20026     20025     20029     20030     20027     20025     20029     20030
     20028     20025     20029     20030     20032     20031     20035     20036
     20033     20031     20035     20036     20034     20031     20035     20036
     20038     20037     20041     20042     20039     20037     20041     20042
     20040     20037     20041     20042     20044     20043     20047     20048
     20045     20043     20047     20048     20046     20043     20047     20048
     20050     20049     20053     20054     20051     20049     20053     20054
     20052     20049     20053     20054     20056     20055     20059     20060
     20057     20055     20059     20060     20058     20055     20059     20060
     20062     20061     20065     20066     20063     20061     20065     20066
     20064     20061     20065     20066     20068     20067     20071     20072
     20069     20067     20071     20072     20070     20067     20071     20072
     20074     20073     20077     20078     20075     20073     20077     20078
     20076     20073     20077     20078     20080     20079     20083     20084
     20081     20079     20083     20084     20082     20079     20083     20084
     20086     20085     20089     20090     20087     20085     20089     20090
     20088     20085     20089     20090     20092     20091     20095     20096
     20093     20091     20095     20096     20094     20091     20095     20096
     20098     20097     20101     20102     20099     20097     20101     20102
     20100     20097     20101     20102     20104     20103     20107     20108
     20105     20103     20107     20108     20106     20103     20107     20108
     20110     20109     20113     20114     20111     20109     20113     20114
     20112     20109     20113     20114     20116     20115     20119     20120
     20117     20115     20119     20120     20118     20115     20119     20120
     20122     20121     20125     20126     20123     20121     20125     20126
     20124     20121     20125     20126     20128     20127     20131     20132
     20129     20127     20131     20132     20130     20127     20131     20132
     20134     20133     20137     20138     20135     20133     20137     20138
     20136     20133     20137     20138     20140     20139     20143     20144
     20141     20139     20143     20144     20142     20139     20143     20144
     20146     20145     20149     20150     20147     20145     20149     20150
     20148     20145     20149     20150     20152     20151     20155     20156
     20153     20151     20155     20156     20154     20151     20155     20156
     20158     20157     20161     20162     20159     20157     20161     20162
     20160     20157     20161     20162     20164     20163     20167     20168
     20165     20163     20167     20168     20166     20163     20167     20168
     20170     20169     20173     20174     20171     20169     20173     20174
     20172     20169     20173     20174     20176     20175     20179     20180
     20177     20175     20179     20180     20178     20175     20179     20180
     20182     20181     20185     20186     20183     20181     20185     20186
     20184     20181     20185     20186     20188     20187     20191     20192
     20189     20187     20191     20192     20190     20187     20191     20192
     20194     20193     20197     20198     20195     20193     20197     20198
     20196     20193     20197     20198     20200     20199     20203     20204
     20201     20199     20203     20204     20202     20199     20203     20204
     20206     20205     20209     20210     20207     20205     20209     20210
     20208     20205     20209     20210     20212     20211     20215     20216
     20213     20211     20215     20216     20214     20211     20215     20216
     20218     20217     20221     20222     20219     20217     20221     20222
     20220     20217     20221     20222     20224     20223     20227     20228
     20225     20223     20227     20228     20226     20223     20227     20228
     20230     20229     20233     20234     20231     20229     20233     20234
     20232     20229     20233     20234     20236     20235     20239     20240
     20237     20235     20239     20240     20238     20235     20239     20240
     20242     20241     20245     20246     20243     20241     20245     20246
     20244     20241     20245     20246     20248     20247     20251     20252
     20249     20247     20251     20252     20250     20247     20251     20252
     20254     20253     20257     20258     20255     20253     20257     20258
     20256     20253     20257     20258     20260     20259     20263     20264
     20261     20259     20263     20264     20262     20259     20263     20264
     20266     20265     20269     20270     20267     20265     20269     20270
     20268     20265     20269     20270     20272     20271     20275     20276
     20273     20271     20275     20276     20274     20271     20275     20276
     20278     20277     20281     20282     20279     20277     20281     20282
     20280     20277     20281     20282     20284     20283     20287     20288
     20285     20283     20287     20288     20286     20283     20287     20288
     20290     20289     20293     20294     20291     20289     20293     20294
     20292     20289     20293     20294     20296     20295     20299     20300
     20297     20295     20299     20300     20298     20295     20299     20300
     20302     20301     20305     20306     20303     20301     20305     20306
     20304     20301     20305     20306     20308     20307     20311     20312
     20309     20307     20311     20312     20310     20307     20311     20312
     20314     20313     20317     20318     20315     20313     20317     20318
     20316     20313     20317     20318     20320     20319     20323     20324
     20321     20319     20323     20324     20322     20319     20323     20324
     20326     20325     20329     20330     20327     20325     20329     20330
     20328     20325     20329     20330     20332     20331     20335     20336
     20333     20331     20335     20336     20334     20331     20335     20336
     20338     20337     20341     20342     20339     20337     20341     20342
     20340     20337     20341     20342     20344     20343     20347     20348
     20345     20343     20347     20348     20346     20343     20347     20348
     20350     20349     20353     20354     20351     20349     20353     20354
     20352     20349     20353     20354     20356     20355     20359     20360
     20357     20355     20359     20360     20358     20355     20359     20360
     20362     20361     20365     20366     20363     20361     20365     20366
     20364     20361     20365     20366     20368     20367     20371     20372
     20369     20367     20371     20372     20370     20367     20371     20372
     20374     20373     20377     20378     20375     20373     20377     20378
     20376     20373     20377     20378     20380     20379     20383     20384
     20381     20379     20383     20384     20382     20379     20383     20384
     20386     20385     20389     20390     20387     20385     20389     20390
     20388     20385     20389     20390     20392     20391     20395     20396
     20393     20391     20395     20396     20394     20391     20395     20396
     20398     20397     20401     20402     20399     20397     20401     20402
     20400     20397     20401     20402     20404     20403     20407     20408
     20405     20403     20407     20408     20406     20403     20407     20408
     20410     20409     20413     20414     20411     20409     20413     20414
     20412     20409     20413     20414     20416     20415     20419     20420
     20417     20415     20419     20420     20418     20415     20419     20420
     20422     20421     20425     20426     20423     20421     20425     20426
     20424     20421     20425     20426     20428     20427     20431     20432
     20429     20427     20431     20432     20430     20427     20431     20432
     20434     20433     20437     20438     20435     20433     20437     20438
     20436     20433     20437     20438     20440     20439     20443     20444
     20441     20439     20443     20444     20442     20439     20443     20444
     20446     20445     20449     20450     20447     20445     20449     20450
     20448     20445     20449     20450     20452     20451     20455     20456
     20453     20451     20455     20456     20454     20451     20455     20456
     20458     20457     20461     20462     20459     20457     20461     20462
     20460     20457     20461     20462     20464     20463     20467     20468
     20465     20463     20467     20468     20466     20463     20467     20468
     20470     20469     20473     20474     20471     20469     20473     20474
     20472     20469     20473     20474     20476     20475     20479     20480
     20477     20475     20479     20480     20478     20475     20479     20480
     20482     20481     20485     20486     20483     20481     20485     20486
     20484     20481     20485     20486     20488     20487     20491     20492
     20489     20487     20491     20492     20490     20487     20491     20492
     20494     20493     20497     20498     20495     20493     20497     20498
     20496     20493     20497     20498     20500     20499     20503     20504
     20501     20499     20503     20504     20502     20499     20503     20504
     20506     20505     20509     20510     20507     20505     20509     20510
     20508     20505     20509     20510     20512     20511     20515     20516
     20513     20511     20515     20516     20514     20511     20515     20516
     20518     20517     20521     20522     20519     20517     20521     20522
     20520     20517     20521     20522     20524     20523     20527     20528
     20525     20523     20527     20528     20526     20523     20527     20528
     20530     20529     20533     20534     20531     20529     20533     20534
     20532     20529     20533     20534     20536     20535     20539     20540
     20537     20535     20539     20540     20538     20535     20539     20540
     20542     20541     20545     20546     20543     20541     20545     20546
     20544     20541     20545     20546     20548     20547     20551     20552
     20549     20547     20551     20552     20550     20547     20551     20552
     20554     20553     20557     20558     20555     20553     20557     20558
     20556     20553     20557     20558     20560     20559     20563     20564
     20561     20559     20563     20564     20562     20559     20563     20564
     20566     20565     20569     20570     20567     20565     20569     20570
     20568     20565     20569     20570     20572     20571     20575     20576
     20573     20571     20575     20576     20574     20571     20575     20576
     20578     20577     20581     20582     20579     20577     20581     20582
     20580     20577     20581     20582     20584     20583     20587     20588
     20585     20583     20587     20588     20586     20583     20587     20588
     20590     20589     20593     20594     20591     20589     20593     20594
     20592     20589     20593     20594     20596     20595     20599     20600
     20597     20595     20599     20600     20598     20595     20599     20600
     20602     20601     20605     20606     20603     20601     20605     20606
     20604     20601     20605     20606     20608     20607     20611     20612
     20609     20607     20611     20612     20610     20607     20611     20612
     20614     20613     20617     20618     20615     20613     20617     20618
     20616     20613     20617     20618     20620     20619     20623     20624
     20621     20619     20623     20624     20622     20619     20623     20624
     20626     20625     20629     20630     20627     20625     20629     20630
     20628     20625     20629     20630     20632     20631     20635     20636
     20633     20631     20635     20636     20634     20631     20635     20636
     20638     20637     20641     20642     20639     20637     20641     20642
     20640     20637     20641     20642     20644     20643     20647     20648
     20645     20643     20647     20648     20646     20643     20647     20648
     20650     20649     20653     20654     20651     20649     20653     20654
     20652     20649     20653     20654     20656     20655     20659     20660
     20657     20655     20659     20660     20658     20655     20659     20660
     20662     20661     20665     20666     20663     20661     20665     20666
     20664     20661     20665     20666     20668     20667     20671     20672
     20669     20667     20671     20672     20670     20667     20671     20672
     20674     20673     20677     20678     20675     20673     20677     20678
     20676     20673     20677     20678     20680     20679     20683     20684
     20681     20679     20683     20684     20682     20679     20683     20684
     20686     20685     20689     20690     20687     20685     20689     20690
     20688     20685     20689     20690     20692     20691     20695     20696
     20693     20691     20695     20696     20694     20691     20695     20696
     20698     20697     20701     20702     20699     20697     20701     20702
     20700     20697     20701     20702     20704     20703     20707     20708
     20705     20703     20707     20708     20706     20703     20707     20708
     20710     20709     20713     20714     20711     20709     20713     20714
     20712     20709     20713     20714     20716     20715     20719     20720
     20717     20715     20719     20720     20718     20715     20719     20720
     20722     20721     20725     20726     20723     20721     20725     20726
     20724     20721     20725     20726     20728     20727     20731     20732
     20729     20727     20731     20732     20730     20727     20731     20732
     20734     20733     20737     20738     20735     20733     20737     20738
     20736     20733     20737     20738     20740     20739     20743     20744
     20741     20739     20743     20744     20742     20739     20743     20744
     20746     20745     20749     20750     20747     20745     20749     20750
     20748     20745     20749     20750     20752     20751     20755     20756
     20753     20751     20755     20756     20754     20751     20755     20756
     20758     20757     20761     20762     20759     20757     20761     20762
     20760     20757     20761     20762     20764     20763     20767     20768
     20765     20763     20767     20768     20766     20763     20767     20768
     20770     20769     20773     20774     20771     20769     20773     20774
     20772     20769     20773     20774     20776     20775     20779     20780
     20777     20775     20779     20780     20778     20775     20779     20780
     20782     20781     20785     20786     20783     20781     20785     20786
     20784     20781     20785     20786     20788     20787     20791     20792
     20789     20787     20791     20792     20790     20787     20791     20792
     20794     20793     20797     20798     20795     20793     20797     20798
     20796     20793     20797     20798     20800     20799     20803     20804
     20801     20799     20803     20804     20802     20799     20803     20804
     20806     20805     20809     20810     20807     20805     20809     20810
     20808     20805     20809     20810     20812     20811     20815     20816
     20813     20811     20815     20816     20814     20811     20815     20816
     20818     20817     20821     20822     20819     20817     20821     20822
     20820     20817     20821     20822     20824     20823     20827     20828
     20825     20823     20827     20828     20826     20823     20827     20828
     20830     20829     20833     20834     20831     20829     20833     20834
     20832     20829     20833     20834     20836     20835     20839     20840
     20837     20835     20839     20840     20838     20835     20839     20840
     20842     20841     20845     20846     20843     20841     20845     20846
     20844     20841     20845     20846     20848     20847     20851     20852
     20849     20847     20851     20852     20850     20847     20851     20852
     20854     20853     20857     20858     20855     20853     20857     20858
     20856     20853     20857     20858     20860     20859     20863     20864
     20861     20859     20863     20864     20862     20859     20863     20864
     20866     20865     20869     20870     20867     20865     20869     20870
     20868     20865     20869     20870     20872     20871     20875     20876
     20873     20871     20875     20876     20874     20871     20875     20876
     20878     20877     20881     20882     20879     20877     20881     20882
     20880     20877     20881     20882     20884     20883     20887     20888
     20885     20883     20887     20888     20886     20883     20887     20888
     20890     20889     20893     20894     20891     20889     20893     20894
     20892     20889     20893     20894     20896     20895     20899     20900
     20897     20895     20899     20900     20898     20895     20899     20900
     20902     20901     20905     20906     20903     20901     20905     20906
     20904     20901     20905     20906     20908     20907     20911     20912
     20909     20907     20911     20912     20910     20907     20911     20912
     20914     20913     20917     20918     20915     20913     20917     20918
     20916     20913     20917     20918     20920     20919     20923     20924
     20921     20919     20923     20924     20922     20919     20923     20924
     20926     20925     20929     20930     20927     20925     20929     20930
     20928     20925     20929     20930     20932     20931     20935     20936
     20933     20931     20935     20936     20934     20931     20935     20936
     20938     20937     20941     20942     20939     20937     20941     20942
     20940     20937     20941     20942     20944     20943     20947     20948
     20945     20943     20947     20948     20946     20943     20947     20948
     20950     20949     20953     20954     20951     20949     20953     20954
     20952     20949     20953     20954     20956     20955     20959     20960
     20957     20955     20959     20960     20958     20955     20959     20960
     20962     20961     20965     20966     20963     20961     20965     20966
     20964     20961     20965     20966     20968     20967     20971     20972
     20969     20967     20971     20972     20970     20967     20971     20972
     20974     20973     20977     20978     20975     20973     20977     20978
     20976     20973     20977     20978     20980     20979     20983     20984
     20981     20979     20983     20984     20982     20979     20983     20984
     20986     20985     20989     20990     20987     20985     20989     20990
     20988     20985     20989     20990     20992     20991     20995     20996
     20993     20991     20995     20996     20994     20991     20995     20996
     20998     20997     21001     21002     20999     20997     21001     21002
     21000     20997     21001     21002     21004     21003     21007     21008
     21005     21003     21007     21008     21006     21003     21007     21008
     21010     21009     21013     21014     21011     21009     21013     21014
     21012     21009     21013     21014     21016     21015     21019     21020
     21017     21015     21019     21020     21018     21015     21019     21020
     21022     21021     21025     21026     21023     21021     21025     21026
     21024     21021     21025     21026     21028     21027     21031     21032
     21029     21027     21031     21032     21030     21027     21031     21032
     21034     21033     21037     21038     21035     21033     21037     21038
     21036     21033     21037     21038     21040     21039     21043     21044
     21041     21039     21043     21044     21042     21039     21043     21044
     21046     21045     21049     21050     21047     21045     21049     21050
     21048     21045     21049     21050     21052     21051     21055     21056
     21053     21051     21055     21056     21054     21051     21055     21056
     21058     21057     21061     21062     21059     21057     21061     21062
     21060     21057     21061     21062     21064     21063     21067     21068
     21065     21063     21067     21068     21066     21063     21067     21068
     21070     21069     21073     21074     21071     21069     21073     21074
     21072     21069     21073     21074     21076     21075     21079     21080
     21077     21075     21079     21080     21078     21075     21079     21080
     21082     21081     21085     21086     21083     21081     21085     21086
     21084     21081     21085     21086     21088     21087     21091     21092
     21089     21087     21091     21092     21090     21087     21091     21092
     21094     21093     21097     21098     21095     21093     21097     21098
     21096     21093     21097     21098     21100     21099     21103     21104
     21101     21099     21103     21104     21102     21099     21103     21104
     21106     21105     21109     21110     21107     21105     21109     21110
     21108     21105     21109     21110     21112     21111     21115     21116
     21113     21111     21115     21116     21114     21111     21115     21116
     21118     21117     21121     21122     21119     21117     21121     21122
     21120     21117     21121     21122     21124     21123     21127     21128
     21125     21123     21127     21128     21126     21123     21127     21128
     21130     21129     21133     21134     21131     21129     21133     21134
     21132     21129     21133     21134     21136     21135     21139     21140
     21137     21135     21139     21140     21138     21135     21139     21140
     21142     21141     21145     21146     21143     21141     21145     21146
     21144     21141     21145     21146     21148     21147     21151     21152
     21149     21147     21151     21152     21150     21147     21151     21152
     21154     21153     21157     21158     21155     21153     21157     21158
     21156     21153     21157     21158     21160     21159     21163     21164
     21161     21159     21163     21164     21162     21159     21163     21164
     21166     21165     21169     21170     21167     21165     21169     21170
     21168     21165     21169     21170     21172     21171     21175     21176
     21173     21171     21175     21176     21174     21171     21175     21176
     21178     21177     21181     21182     21179     21177     21181     21182
     21180     21177     21181     21182     21184     21183     21187     21188
     21185     21183     21187     21188     21186     21183     21187     21188
     21190     21189     21193     21194     21191     21189     21193     21194
     21192     21189     21193     21194     21196     21195     21199     21200
     21197     21195     21199     21200     21198     21195     21199     21200
     21202     21201     21205     21206     21203     21201     21205     21206
     21204     21201     21205     21206     21208     21207     21211     21212
     21209     21207     21211     21212     21210     21207     21211     21212
     21214     21213     21217     21218     21215     21213     21217     21218
     21216     21213     21217     21218     21220     21219     21223     21224
     21221     21219     21223     21224     21222     21219     21223     21224
     21226     21225     21229     21230     21227     21225     21229     21230
     21228     21225     21229     21230     21232     21231     21235     21236
     21233     21231     21235     21236     21234     21231     21235     21236
     21238     21237     21241     21242     21239     21237     21241     21242
     21240     21237     21241     21242     21244     21243     21247     21248
     21245     21243     21247     21248     21246     21243     21247     21248
     21250     21249     21253     21254     21251     21249     21253     21254
     21252     21249     21253     21254     21256     21255     21259     21260
     21257     21255     21259     21260     21258     21255     21259     21260
     21262     21261     21265     21266     21263     21261     21265     21266
     21264     21261     21265     21266     21268     21267     21271     21272
     21269     21267     21271     21272     21270     21267     21271     21272
     21274     21273     21277     21278     21275     21273     21277     21278
     21276     21273     21277     21278     21280     21279     21283     21284
     21281     21279     21283     21284     21282     21279     21283     21284
     21286     21285     21289     21290     21287     21285     21289     21290
     21288     21285     21289     21290     21292     21291     21295     21296
     21293     21291     21295     21296     21294     21291     21295     21296
     21298     21297     21301     21302     21299     21297     21301     21302
     21300     21297     21301     21302     21304     21303     21307     21308
     21305     21303     21307     21308     21306     21303     21307     21308
     21310     21309     21313     21314     21311     21309     21313     21314
     21312     21309     21313     21314     21316     21315     21319     21320
     21317     21315     21319     21320     21318     21315     21319     21320
     21322     21321     21325     21326     21323     21321     21325     21326
     21324     21321     21325     21326     21328     21327     21331     21332
     21329     21327     21331     21332     21330     21327     21331     21332
     21334     21333     21337     21338     21335     21333     21337     21338
     21336     21333     21337     21338     21340     21339     21343     21344
     21341     21339     21343     21344     21342     21339     21343     21344
     21346     21345     21349     21350     21347     21345     21349     21350
     21348     21345     21349     21350     21352     21351     21355     21356
     21353     21351     21355     21356     21354     21351     21355     21356
     21358     21357     21361     21362     21359     21357     21361     21362
     21360     21357     21361     21362     21364     21363     21367     21368
     21365     21363     21367     21368     21366     21363     21367     21368
     21370     21369     21373     21374     21371     21369     21373     21374
     21372     21369     21373     21374     21376     21375     21379     21380
     21377     21375     21379     21380     21378     21375     21379     21380
     21382     21381     21385     21386     21383     21381     21385     21386
     21384     21381     21385     21386     21388     21387     21391     21392
     21389     21387     21391     21392     21390     21387     21391     21392
     21394     21393     21397     21398     21395     21393     21397     21398
     21396     21393     21397     21398     21400     21399     21403     21404
     21401     21399     21403     21404     21402     21399     21403     21404
     21406     21405     21409     21410     21407     21405     21409     21410
     21408     21405     21409     21410     21412     21411     21415     21416
     21413     21411     21415     21416     21414     21411     21415     21416
     21418     21417     21421     21422     21419     21417     21421     21422
     21420     21417     21421     21422     21424     21423     21427     21428
     21425     21423     21427     21428     21426     21423     21427     21428
     21430     21429     21433     21434     21431     21429     21433     21434
     21432     21429     21433     21434     21436     21435     21439     21440
     21437     21435     21439     21440     21438     21435     21439     21440
     21442     21441     21445     21446     21443     21441     21445     21446
     21444     21441     21445     21446     21448     21447     21451     21452
     21449     21447     21451     21452     21450     21447     21451     21452
     21454     21453     21457     21458     21455     21453     21457     21458
     21456     21453     21457     21458     21460     21459     21463     21464
     21461     21459     21463     21464     21462     21459     21463     21464
     21466     21465     21469     21470     21467     21465     21469     21470
     21468     21465     21469     21470     21472     21471     21475     21476
     21473     21471     21475     21476     21474     21471     21475     21476
     21478     21477     21481     21482     21479     21477     21481     21482
     21480     21477     21481     21482     21484     21483     21487     21488
     21485     21483     21487     21488     21486     21483     21487     21488
     21490     21489     21493     21494     21491     21489     21493     21494
     21492     21489     21493     21494     21496     21495     21499     21500
     21497     21495     21499     21500     21498     21495     21499     21500
     21502     21501     21505     21506     21503     21501     21505     21506
     21504     21501     21505     21506     21508     21507     21511     21512
     21509     21507     21511     21512     21510     21507     21511     21512
     21514     21513     21517     21518     21515     21513     21517     21518
     21516     21513     21517     21518     21520     21519     21523     21524
     21521     21519     21523     21524     21522     21519     21523     21524
     21526     21525     21529     21530     21527     21525     21529     21530
     21528     21525     21529     21530     21532     21531     21535     21536
     21533     21531     21535     21536     21534     21531     21535     21536
     21538     21537     21541     21542     21539     21537     21541     21542
     21540     21537     21541     21542     21544     21543     21547     21548
     21545     21543     21547     21548     21546     21543     21547     21548
     21550     21549     21553     21554     21551     21549     21553     21554
     21552     21549     21553     21554     21556     21555     21559     21560
     21557     21555     21559     21560     21558     21555     21559     21560
     21562     21561     21565     21566     21563     21561     21565     21566
     21564     21561     21565     21566     21568     21567     21571     21572
     21569     21567     21571     21572     21570     21567     21571     21572
     21574     21573     21577     21578     21575     21573     21577     21578
     21576     21573     21577     21578     21580     21579     21583     21584
     21581     21579     21583     21584     21582     21579     21583     21584
     21586     21585     21589     21590     21587     21585     21589     21590
     21588     21585     21589     21590     21592     21591     21595     21596
     21593     21591     21595     21596     21594     21591     21595     21596
     21598     21597     21601     21602     21599     21597     21601     21602
     21600     21597     21601     21602     21604     21603     21607     21608
     21605     21603     21607     21608     21606     21603     21607     21608
     21610     21609     21613     21614     21611     21609     21613     21614
     21612     21609     21613     21614     21616     21615     21619     21620
     21617     21615     21619     21620     21618     21615     21619     21620
     21622     21621     21625     21626     21623     21621     21625     21626
     21624     21621     21625     21626     21628     21627     21631     21632
     21629     21627     21631     21632     21630     21627     21631     21632
     21634     21633     21637     21638     21635     21633     21637     21638
     21636     21633     21637     21638     21640     21639     21643     21644
     21641     21639     21643     21644     21642     21639     21643     21644
     21646     21645     21649     21650     21647     21645     21649     21650
     21648     21645     21649     21650     21652     21651     21655     21656
     21653     21651     21655     21656     21654     21651     21655     21656
     21658     21657     21661     21662     21659     21657     21661     21662
     21660     21657     21661     21662     21664     21663     21667     21668
     21665     21663     21667     21668     21666     21663     21667     21668
     21670     21669     21673     21674     21671     21669     21673     21674
     21672     21669     21673     21674     21676     21675     21679     21680
     21677     21675     21679     21680     21678     21675     21679     21680
     21682     21681     21685     21686     21683     21681     21685     21686
     21684     21681     21685     21686     21688     21687     21691     21692
     21689     21687     21691     21692     21690     21687     21691     21692
     21694     21693     21697     21698     21695     21693     21697     21698
     21696     21693     21697     21698     21700     21699     21703     21704
     21701     21699     21703     21704     21702     21699     21703     21704
     21706     21705     21709     21710     21707     21705     21709     21710
     21708     21705     21709     21710     21712     21711     21715     21716
     21713     21711     21715     21716     21714     21711     21715     21716
     21718     21717     21721     21722     21719     21717     21721     21722
     21720     21717     21721     21722     21724     21723     21727     21728
     21725     21723     21727     21728     21726     21723     21727     21728
     21730     21729     21733     21734     21731     21729     21733     21734
     21732     21729     21733     21734     21736     21735     21739     21740
     21737     21735     21739     21740     21738     21735     21739     21740
     21742     21741     21745     21746     21743     21741     21745     21746
     21744     21741     21745     21746     21748     21747     21751     21752
     21749     21747     21751     21752     21750     21747     21751     21752
     21754     21753     21757     21758     21755     21753     21757     21758
     21756     21753     21757     21758     21760     21759     21763     21764
     21761     21759     21763     21764     21762     21759     21763     21764
     21766     21765     21769     21770     21767     21765     21769     21770
     21768     21765     21769     21770     21772     21771     21775     21776
     21773     21771     21775     21776     21774     21771     21775     21776
     21778     21777     21781     21782     21779     21777     21781     21782
     21780     21777     21781     21782     21784     21783     21787     21788
     21785     21783     21787     21788     21786     21783     21787     21788
     21790     21789     21793     21794     21791     21789     21793     21794
     21792     21789     21793     21794     21796     21795     21799     21800
     21797     21795     21799     21800     21798     21795     21799     21800
     21802     21801     21805     21806     21803     21801     21805     21806
     21804     21801     21805     21806     21808     21807     21811     21812
     21809     21807     21811     21812     21810     21807     21811     21812
     21814     21813     21817     21818     21815     21813     21817     21818
     21816     21813     21817     21818     21820     21819     21823     21824
     21821     21819     21823     21824     21822     21819     21823     21824
     21826     21825     21829     21830     21827     21825     21829     21830
     21828     21825     21829     21830     21832     21831     21835     21836
     21833     21831     21835     21836     21834     21831     21835     21836
     21838     21837     21841     21842     21839     21837     21841     21842
     21840     21837     21841     21842     21844     21843     21847     21848
     21845     21843     21847     21848     21846     21843     21847     21848
     21850     21849     21853     21854     21851     21849     21853     21854
     21852     21849     21853     21854     21856     21855     21859     21860
     21857     21855     21859     21860     21858     21855     21859     21860
     21862     21861     21865     21866     21863     21861     21865     21866
     21864     21861     21865     21866     21868     21867     21871     21872
     21869     21867     21871     21872     21870     21867     21871     21872
     21874     21873     21877     21878     21875     21873     21877     21878
     21876     21873     21877     21878     21880     21879     21883     21884
     21881     21879     21883     21884     21882     21879     21883     21884
     21886     21885     21889     21890     21887     21885     21889     21890
     21888     21885     21889     21890     21892     21891     21895     21896
     21893     21891     21895     21896     21894     21891     21895     21896
     21898     21897     21901     21902     21899     21897     21901     21902
     21900     21897     21901     21902     21904     21903     21907     21908
     21905     21903     21907     21908     21906     21903     21907     21908
     21910     21909     21913     21914     21911     21909     21913     21914
     21912     21909     21913     21914     21916     21915     21919     21920
     21917     21915     21919     21920     21918     21915     21919     21920
     21922     21921     21925     21926     21923     21921     21925     21926
     21924     21921     21925     21926     21928     21927     21931     21932
     21929     21927     21931     21932     21930     21927     21931     21932
     21934     21933     21937     21938     21935     21933     21937     21938
     21936     21933     21937     21938     21940     21939     21943     21944
     21941     21939     21943     21944     21942     21939     21943     21944
     21946     21945     21949     21950     21947     21945     21949     21950
     21948     21945     21949     21950     21952     21951     21955     21956
     21953     21951     21955     21956     21954     21951     21955     21956
     21958     21957     21961     21962     21959     21957     21961     21962
     21960     21957     21961     21962     21964     21963     21967     21968
     21965     21963     21967     21968     21966     21963     21967     21968
     21970     21969     21973     21974     21971     21969     21973     21974
     21972     21969     21973     21974     21976     21975     21979     21980
     21977     21975     21979     21980     21978     21975     21979     21980
     21982     21981     21985     21986     21983     21981     21985     21986
     21984     21981     21985     21986     21988     21987     21991     21992
     21989     21987     21991     21992     21990     21987     21991     21992
     21994     21993     21997     21998     21995     21993     21997     21998
     21996     21993     21997     21998     22000     21999     22003     22004
     22001     21999     22003     22004     22002     21999     22003     22004
     22006     22005     22009     22010     22007     22005     22009     22010
     22008     22005     22009     22010     22012     22011     22015     22016
     22013     22011     22015     22016     22014     22011     22015     22016
     22018     22017     22021     22022     22019     22017     22021     22022
     22020     22017     22021     22022     22024     22023     22027     22028
     22025     22023     22027     22028     22026     22023     22027     22028
     22030     22029     22033     22034     22031     22029     22033     22034
     22032     22029     22033     22034     22036     22035     22039     22040
     22037     22035     22039     22040     22038     22035     22039     22040
     22042     22041     22045     22046     22043     22041     22045     22046
     22044     22041     22045     22046     22048     22047     22051     22052
     22049     22047     22051     22052     22050     22047     22051     22052
     22054     22053     22057     22058     22055     22053     22057     22058
     22056     22053     22057     22058     22060     22059     22063     22064
     22061     22059     22063     22064     22062     22059     22063     22064
     22066     22065     22069     22070     22067     22065     22069     22070
     22068     22065     22069     22070     22072     22071     22075     22076
     22073     22071     22075     22076     22074     22071     22075     22076
     22078     22077     22081     22082     22079     22077     22081     22082
     22080     22077     22081     22082     22084     22083     22087     22088
     22085     22083     22087     22088     22086     22083     22087     22088
     22090     22089     22093     22094     22091     22089     22093     22094
     22092     22089     22093     22094     22096     22095     22099     22100
     22097     22095     22099     22100     22098     22095     22099     22100
     22102     22101     22105     22106     22103     22101     22105     22106
     22104     22101     22105     22106     22108     22107     22111     22112
     22109     22107     22111     22112     22110     22107     22111     22112
     22114     22113     22117     22118     22115     22113     22117     22118
     22116     22113     22117     22118     22120     22119     22123     22124
     22121     22119     22123     22124     22122     22119     22123     22124
     22126     22125     22129     22130     22127     22125     22129     22130
     22128     22125     22129     22130     22132     22131     22135     22136
     22133     22131     22135     22136     22134     22131     22135     22136
     22138     22137     22141     22142     22139     22137     22141     22142
     22140     22137     22141     22142     22144     22143     22147     22148
     22145     22143     22147     22148     22146     22143     22147     22148
     22150     22149     22153     22154     22151     22149     22153     22154
     22152     22149     22153     22154     22156     22155     22159     22160
     22157     22155     22159     22160     22158     22155     22159     22160
     22162     22161     22165     22166     22163     22161     22165     22166
     22164     22161     22165     22166     22168     22167     22171     22172
     22169     22167     22171     22172     22170     22167     22171     22172
     22174     22173     22177     22178     22175     22173     22177     22178
     22176     22173     22177     22178     22180     22179     22183     22184
     22181     22179     22183     22184     22182     22179     22183     22184
     22186     22185     22189     22190     22187     22185     22189     22190
     22188     22185     22189     22190     22192     22191     22195     22196
     22193     22191     22195     22196     22194     22191     22195     22196
     22198     22197     22201     22202     22199     22197     22201     22202
     22200     22197     22201     22202     22204     22203     22207     22208
     22205     22203     22207     22208     22206     22203     22207     22208
     22210     22209     22213     22214     22211     22209     22213     22214
     22212     22209     22213     22214     22216     22215     22219     22220
     22217     22215     22219     22220     22218     22215     22219     22220
     22222     22221     22225     22226     22223     22221     22225     22226
     22224     22221     22225     22226     22228     22227     22231     22232
     22229     22227     22231     22232     22230     22227     22231     22232
     22234     22233     22237     22238     22235     22233     22237     22238
     22236     22233     22237     22238     22240     22239     22243     22244
     22241     22239     22243     22244     22242     22239     22243     22244
     22246     22245     22249     22250     22247     22245     22249     22250
     22248     22245     22249     22250     22252     22251     22255     22256
     22253     22251     22255     22256     22254     22251     22255     22256
     22258     22257     22261     22262     22259     22257     22261     22262
     22260     22257     22261     22262     22264     22263     22267     22268
     22265     22263     22267     22268     22266     22263     22267     22268
     22270     22269     22273     22274     22271     22269     22273     22274
     22272     22269     22273     22274     22276     22275     22279     22280
     22277     22275     22279     22280     22278     22275     22279     22280
     22282     22281     22285     22286     22283     22281     22285     22286
     22284     22281     22285     22286     22288     22287     22291     22292
     22289     22287     22291     22292     22290     22287     22291     22292
     22294     22293     22297     22298     22295     22293     22297     22298
     22296     22293     22297     22298     22300     22299     22303     22304
     22301     22299     22303     22304     22302     22299     22303     22304
     22306     22305     22309     22310     22307     22305     22309     22310
     22308     22305     22309     22310     22312     22311     22315     22316
     22313     22311     22315     22316     22314     22311     22315     22316
     22318     22317     22321     22322     22319     22317     22321     22322
     22320     22317     22321     22322     22324     22323     22327     22328
     22325     22323     22327     22328     22326     22323     22327     22328
     22330     22329     22333     22334     22331     22329     22333     22334
     22332     22329     22333     22334     22336     22335     22339     22340
     22337     22335     22339     22340     22338     22335     22339     22340
     22342     22341     22345     22346     22343     22341     22345     22346
     22344     22341     22345     22346     22348     22347     22351     22352
     22349     22347     22351     22352     22350     22347     22351     22352
     22354     22353     22357     22358     22355     22353     22357     22358
     22356     22353     22357     22358     22360     22359     22363     22364
     22361     22359     22363     22364     22362     22359     22363     22364
     22366     22365     22369     22370     22367     22365     22369     22370
     22368     22365     22369     22370     22372     22371     22375     22376
     22373     22371     22375     22376     22374     22371     22375     22376
     22378     22377     22381     22382     22379     22377     22381     22382
     22380     22377     22381     22382     22384     22383     22387     22388
     22385     22383     22387     22388     22386     22383     22387     22388
     22390     22389     22393     22394     22391     22389     22393     22394
     22392     22389     22393     22394     22396     22395     22399     22400
     22397     22395     22399     22400     22398     22395     22399     22400
     22402     22401     22405     22406     22403     22401     22405     22406
     22404     22401     22405     22406     22408     22407     22411     22412
     22409     22407     22411     22412     22410     22407     22411     22412
     22414     22413     22417     22418     22415     22413     22417     22418
     22416     22413     22417     22418     22420     22419     22423     22424
     22421     22419     22423     22424     22422     22419     22423     22424
     22426     22425     22429     22430     22427     22425     22429     22430
     22428     22425     22429     22430     22432     22431     22435     22436
     22433     22431     22435     22436     22434     22431     22435     22436
     22438     22437     22441     22442     22439     22437     22441     22442
     22440     22437     22441     22442     22444     22443     22447     22448
     22445     22443     22447     22448     22446     22443     22447     22448
     22450     22449     22453     22454     22451     22449     22453     22454
     22452     22449     22453     22454     22456     22455     22459     22460
     22457     22455     22459     22460     22458     22455     22459     22460
     22462     22461     22465     22466     22463     22461     22465     22466
     22464     22461     22465     22466     22468     22467     22471     22472
     22469     22467     22471     22472     22470     22467     22471     22472
     22474     22473     22477     22478     22475     22473     22477     22478
     22476     22473     22477     22478     22480     22479     22483     22484
     22481     22479     22483     22484     22482     22479     22483     22484
     22486     22485     22489     22490     22487     22485     22489     22490
     22488     22485     22489     22490     22492     22491     22495     22496
     22493     22491     22495     22496     22494     22491     22495     22496
     22498     22497     22501     22502     22499     22497     22501     22502
     22500     22497     22501     22502     22504     22503     22507     22508
     22505     22503     22507     22508     22506     22503     22507     22508
     22510     22509     22513     22514     22511     22509     22513     22514
     22512     22509     22513     22514     22516     22515     22519     22520
     22517     22515     22519     22520     22518     22515     22519     22520
     22522     22521     22525     22526     22523     22521     22525     22526
     22524     22521     22525     22526     22528     22527     22531     22532
     22529     22527     22531     22532     22530     22527     22531     22532
     22534     22533     22537     22538     22535     22533     22537     22538
     22536     22533     22537     22538     22540     22539     22543     22544
     22541     22539     22543     22544     22542     22539     22543     22544
     22546     22545     22549     22550     22547     22545     22549     22550
     22548     22545     22549     22550     22552     22551     22555     22556
     22553     22551     22555     22556     22554     22551     22555     22556
     22558     22557     22561     22562     22559     22557     22561     22562
     22560     22557     22561     22562     22564     22563     22567     22568
     22565     22563     22567     22568     22566     22563     22567     22568
     22570     22569     22573     22574     22571     22569     22573     22574
     22572     22569     22573     22574     22576     22575     22579     22580
     22577     22575     22579     22580     22578     22575     22579     22580
     22582     22581     22585     22586     22583     22581     22585     22586
     22584     22581     22585     22586     22588     22587     22591     22592
     22589     22587     22591     22592     22590     22587     22591     22592
     22594     22593     22597     22598     22595     22593     22597     22598
     22596     22593     22597     22598     22600     22599     22603     22604
     22601     22599     22603     22604     22602     22599     22603     22604
     22606     22605     22609     22610     22607     22605     22609     22610
     22608     22605     22609     22610     22612     22611     22615     22616
     22613     22611     22615     22616     22614     22611     22615     22616
     22618     22617     22621     22622     22619     22617     22621     22622
     22620     22617     22621     22622     22624     22623     22627     22628
     22625     22623     22627     22628     22626     22623     22627     22628
     22630     22629     22633     22634     22631     22629     22633     22634
     22632     22629     22633     22634     22636     22635     22639     22640
     22637     22635     22639     22640     22638     22635     22639     22640
     22642     22641     22645     22646     22643     22641     22645     22646
     22644     22641     22645     22646     22648     22647     22651     22652
     22649     22647     22651     22652     22650     22647     22651     22652
     22654     22653     22657     22658     22655     22653     22657     22658
     22656     22653     22657     22658     22660     22659     22663     22664
     22661     22659     22663     22664     22662     22659     22663     22664
     22666     22665     22669     22670     22667     22665     22669     22670
     22668     22665     22669     22670     22672     22671     22675     22676
     22673     22671     22675     22676     22674     22671     22675     22676
     22678     22677     22681     22682     22679     22677     22681     22682
     22680     22677     22681     22682     22684     22683     22687     22688
     22685     22683     22687     22688     22686     22683     22687     22688
     22690     22689     22693     22694     22691     22689     22693     22694
     22692     22689     22693     22694     22696     22695     22699     22700
     22697     22695     22699     22700     22698     22695     22699     22700
     22702     22701     22705     22706     22703     22701     22705     22706
     22704     22701     22705     22706     22708     22707     22711     22712
     22709     22707     22711     22712     22710     22707     22711     22712
     22714     22713     22717     22718     22715     22713     22717     22718
     22716     22713     22717     22718     22720     22719     22723     22724
     22721     22719     22723     22724     22722     22719     22723     22724
     22726     22725     22729     22730     22727     22725     22729     22730
     22728     22725     22729     22730     22732     22731     22735     22736
     22733     22731     22735     22736     22734     22731     22735     22736
     22738     22737     22741     22742     22739     22737     22741     22742
     22740     22737     22741     22742     22744     22743     22747     22748
     22745     22743     22747     22748     22746     22743     22747     22748
     22750     22749     22753     22754     22751     22749     22753     22754
     22752     22749     22753     22754     22756     22755     22759     22760
     22757     22755     22759     22760     22758     22755     22759     22760
     22762     22761     22765     22766     22763     22761     22765     22766
     22764     22761     22765     22766     22768     22767     22771     22772
     22769     22767     22771     22772     22770     22767     22771     22772
     22774     22773     22777     22778     22775     22773     22777     22778
     22776     22773     22777     22778     22780     22779     22783     22784
     22781     22779     22783     22784     22782     22779     22783     22784
     22786     22785     22789     22790     22787     22785     22789     22790
     22788     22785     22789     22790     22792     22791     22795     22796
     22793     22791     22795     22796     22794     22791     22795     22796
     22798     22797     22801     22802     22799     22797     22801     22802
     22800     22797     22801     22802     22804     22803     22807     22808
     22805     22803     22807     22808     22806     22803     22807     22808
     22810     22809     22813     22814     22811     22809     22813     22814
     22812     22809     22813     22814     22816     22815     22819     22820
     22817     22815     22819     22820     22818     22815     22819     22820
     22822     22821     22825     22826     22823     22821     22825     22826
     22824     22821     22825     22826     22828     22827     22831     22832
     22829     22827     22831     22832     22830     22827     22831     22832
     22834     22833     22837     22838     22835     22833     22837     22838
     22836     22833     22837     22838     22840     22839     22843     22844
     22841     22839     22843     22844     22842     22839     22843     22844
     22846     22845     22849     22850     22847     22845     22849     22850
     22848     22845     22849     22850     22852     22851     22855     22856
     22853     22851     22855     22856     22854     22851     22855     22856
     22858     22857     22861     22862     22859     22857     22861     22862
     22860     22857     22861     22862     22864     22863     22867     22868
     22865     22863     22867     22868     22866     22863     22867     22868
     22870     22869     22873     22874     22871     22869     22873     22874
     22872     22869     22873     22874     22876     22875     22879     22880
     22877     22875     22879     22880     22878     22875     22879     22880
     22882     22881     22885     22886     22883     22881     22885     22886
     22884     22881     22885     22886     22888     22887     22891     22892
     22889     22887     22891     22892     22890     22887     22891     22892
     22894     22893     22897     22898     22895     22893     22897     22898
     22896     22893     22897     22898     22900     22899     22903     22904
     22901     22899     22903     22904     22902     22899     22903     22904
     22906     22905     22909     22910     22907     22905     22909     22910
     22908     22905     22909     22910     22912     22911     22915     22916
     22913     22911     22915     22916     22914     22911     22915     22916
     22918     22917     22921     22922     22919     22917     22921     22922
     22920     22917     22921     22922     22924     22923     22927     22928
     22925     22923     22927     22928     22926     22923     22927     22928
     22930     22929     22933     22934     22931     22929     22933     22934
     22932     22929     22933     22934     22936     22935     22939     22940
     22937     22935     22939     22940     22938     22935     22939     22940
     22942     22941     22945     22946     22943     22941     22945     22946
     22944     22941     22945     22946     22948     22947     22951     22952
     22949     22947     22951     22952     22950     22947     22951     22952
     22954     22953     22957     22958     22955     22953     22957     22958
     22956     22953     22957     22958     22960     22959     22963     22964
     22961     22959     22963     22964     22962     22959     22963     22964
     22966     22965     22969     22970     22967     22965     22969     22970
     22968     22965     22969     22970     22972     22971     22975     22976
     22973     22971     22975     22976     22974     22971     22975     22976
     22978     22977     22981     22982     22979     22977     22981     22982
     22980     22977     22981     22982     22984     22983     22987     22988
     22985     22983     22987     22988     22986     22983     22987     22988
     22990     22989     22993     22994     22991     22989     22993     22994
     22992     22989     22993     22994     22996     22995     22999     23000
     22997     22995     22999     23000     22998     22995     22999     23000
     23002     23001     23005     23006     23003     23001     23005     23006
     23004     23001     23005     23006     23008     23007     23011     23012
     23009     23007     23011     23012     23010     23007     23011     23012
     23014     23013     23017     23018     23015     23013     23017     23018
     23016     23013     23017     23018     23020     23019     23023     23024
     23021     23019     23023     23024     23022     23019     23023     23024
     23026     23025     23029     23030     23027     23025     23029     23030
     23028     23025     23029     23030     23032     23031     23035     23036
     23033     23031     23035     23036     23034     23031     23035     23036
     23038     23037     23041     23042     23039     23037     23041     23042
     23040     23037     23041     23042     23044     23043     23047     23048
     23045     23043     23047     23048     23046     23043     23047     23048
     23050     23049     23053     23054     23051     23049     23053     23054
     23052     23049     23053     23054     23056     23055     23059     23060
     23057     23055     23059     23060     23058     23055     23059     23060
     23062     23061     23065     23066     23063     23061     23065     23066
     23064     23061     23065     23066     23068     23067     23071     23072
     23069     23067     23071     23072     23070     23067     23071     23072
     23074     23073     23077     23078     23075     23073     23077     23078
     23076     23073     23077     23078     23080     23079     23083     23084
     23081     23079     23083     23084     23082     23079     23083     23084
     23086     23085     23089     23090     23087     23085     23089     23090
     23088     23085     23089     23090     23092     23091     23095     23096
     23093     23091     23095     23096     23094     23091     23095     23096
     23098     23097     23101     23102     23099     23097     23101     23102
     23100     23097     23101     23102     23104     23103     23107     23108
     23105     23103     23107     23108     23106     23103     23107     23108
     23110     23109     23113     23114     23111     23109     23113     23114
     23112     23109     23113     23114     23116     23115     23119     23120
     23117     23115     23119     23120     23118     23115     23119     23120
     23122     23121     23125     23126     23123     23121     23125     23126
     23124     23121     23125     23126     23128     23127     23131     23132
     23129     23127     23131     23132     23130     23127     23131     23132
     23134     23133     23137     23138     23135     23133     23137     23138
     23136     23133     23137     23138     23140     23139     23143     23144
     23141     23139     23143     23144     23142     23139     23143     23144
     23146     23145     23149     23150     23147     23145     23149     23150
     23148     23145     23149     23150     23152     23151     23155     23156
     23153     23151     23155     23156     23154     23151     23155     23156
     23158     23157     23161     23162     23159     23157     23161     23162
     23160     23157     23161     23162     23164     23163     23167     23168
     23165     23163     23167     23168     23166     23163     23167     23168
     23170     23169     23173     23174     23171     23169     23173     23174
     23172     23169     23173     23174     23176     23175     23179     23180
     23177     23175     23179     23180     23178     23175     23179     23180
     23182     23181     23185     23186     23183     23181     23185     23186
     23184     23181     23185     23186     23188     23187     23191     23192
     23189     23187     23191     23192     23190     23187     23191     23192
     23194     23193     23197     23198     23195     23193     23197     23198
     23196     23193     23197     23198     23200     23199     23203     23204
     23201     23199     23203     23204     23202     23199     23203     23204
     23206     23205     23209     23210     23207     23205     23209     23210
     23208     23205     23209     23210     23212     23211     23215     23216
     23213     23211     23215     23216     23214     23211     23215     23216
     23218     23217     23221     23222     23219     23217     23221     23222
     23220     23217     23221     23222     23224     23223     23227     23228
     23225     23223     23227     23228     23226     23223     23227     23228
     23230     23229     23233     23234     23231     23229     23233     23234
     23232     23229     23233     23234     23236     23235     23239     23240
     23237     23235     23239     23240     23238     23235     23239     23240
     23242     23241     23245     23246     23243     23241     23245     23246
     23244     23241     23245     23246     23248     23247     23251     23252
     23249     23247     23251     23252     23250     23247     23251     23252
     23254     23253     23257     23258     23255     23253     23257     23258
     23256     23253     23257     23258     23260     23259     23263     23264
     23261     23259     23263     23264     23262     23259     23263     23264
     23266     23265     23269     23270     23267     23265     23269     23270
     23268     23265     23269     23270     23272     23271     23275     23276
     23273     23271     23275     23276     23274     23271     23275     23276
     23278     23277     23281     23282     23279     23277     23281     23282
     23280     23277     23281     23282     23284     23283     23287     23288
     23285     23283     23287     23288     23286     23283     23287     23288
     23290     23289     23293     23294     23291     23289     23293     23294
     23292     23289     23293     23294     23296     23295     23299     23300
     23297     23295     23299     23300     23298     23295     23299     23300
     23302     23301     23305     23306     23303     23301     23305     23306
     23304     23301     23305     23306     23308     23307     23311     23312
     23309     23307     23311     23312     23310     23307     23311     23312
     23314     23313     23317     23318     23315     23313     23317     23318
     23316     23313     23317     23318     23320     23319     23323     23324
     23321     23319     23323     23324     23322     23319     23323     23324
     23326     23325     23329     23330     23327     23325     23329     23330
     23328     23325     23329     23330     23332     23331     23335     23336
     23333     23331     23335     23336     23334     23331     23335     23336
     23338     23337     23341     23342     23339     23337     23341     23342
     23340     23337     23341     23342     23344     23343     23347     23348
     23345     23343     23347     23348     23346     23343     23347     23348
     23350     23349     23353     23354     23351     23349     23353     23354
     23352     23349     23353     23354     23356     23355     23359     23360
     23357     23355     23359     23360     23358     23355     23359     23360
     23362     23361     23365     23366     23363     23361     23365     23366
     23364     23361     23365     23366     23368     23367     23371     23372
     23369     23367     23371     23372     23370     23367     23371     23372
     23374     23373     23377     23378     23375     23373     23377     23378
     23376     23373     23377     23378     23380     23379     23383     23384
     23381     23379     23383     23384     23382     23379     23383     23384
     23386     23385     23389     23390     23387     23385     23389     23390
     23388     23385     23389     23390     23392     23391     23395     23396
     23393     23391     23395     23396     23394     23391     23395     23396
     23398     23397     23401     23402     23399     23397     23401     23402
     23400     23397     23401     23402     23404     23403     23407     23408
     23405     23403     23407     23408     23406     23403     23407     23408
     23410     23409     23413     23414     23411     23409     23413     23414
     23412     23409     23413     23414     23416     23415     23419     23420
     23417     23415     23419     23420     23418     23415     23419     23420
     23422     23421     23425     23426     23423     23421     23425     23426
     23424     23421     23425     23426     23428     23427     23431     23432
     23429     23427     23431     23432     23430     23427     23431     23432
     23434     23433     23437     23438     23435     23433     23437     23438
     23436     23433     23437     23438     23440     23439     23443     23444
     23441     23439     23443     23444     23442     23439     23443     23444
     23446     23445     23449     23450     23447     23445     23449     23450
     23448     23445     23449     23450     23452     23451     23455     23456
     23453     23451     23455     23456     23454     23451     23455     23456
     23458     23457     23461     23462     23459     23457     23461     23462
     23460     23457     23461     23462     23464     23463     23467     23468
     23465     23463     23467     23468     23466     23463     23467     23468
     23470     23469     23473     23474     23471     23469     23473     23474
     23472     23469     23473     23474     23476     23475     23479     23480
     23477     23475     23479     23480     23478     23475     23479     23480
     23482     23481     23485     23486     23483     23481     23485     23486
     23484     23481     23485     23486     23488     23487     23491     23492
     23489     23487     23491     23492     23490     23487     23491     23492
     23494     23493     23497     23498     23495     23493     23497     23498
     23496     23493     23497     23498     23500     23499     23503     23504
     23501     23499     23503     23504     23502     23499     23503     23504
     23506     23505     23509     23510     23507     23505     23509     23510
     23508     23505     23509     23510     23512     23511     23515     23516
     23513     23511     23515     23516     23514     23511     23515     23516
     23518     23517     23521     23522     23519     23517     23521     23522
     23520     23517     23521     23522     23524     23523     23527     23528
     23525     23523     23527     23528     23526     23523     23527     23528
     23530     23529     23533     23534     23531     23529     23533     23534
     23532     23529     23533     23534     23536     23535     23539     23540
     23537     23535     23539     23540     23538     23535     23539     23540
     23542     23541     23545     23546     23543     23541     23545     23546
     23544     23541     23545     23546     23548     23547     23551     23552
     23549     23547     23551     23552     23550     23547     23551     23552
     23554     23553     23557     23558     23555     23553     23557     23558
     23556     23553     23557     23558     23560     23559     23563     23564
     23561     23559     23563     23564     23562     23559     23563     23564
     23566     23565     23569     23570     23567     23565     23569     23570
     23568     23565     23569     23570     23572     23571     23575     23576
     23573     23571     23575     23576     23574     23571     23575     23576
     23578     23577     23581     23582     23579     23577     23581     23582
     23580     23577     23581     23582     23584     23583     23587     23588
     23585     23583     23587     23588     23586     23583     23587     23588
     23590     23589     23593     23594     23591     23589     23593     23594
     23592     23589     23593     23594     23596     23595     23599     23600
     23597     23595     23599     23600     23598     23595     23599     23600
     23602     23601     23605     23606     23603     23601     23605     23606
     23604     23601     23605     23606     23608     23607     23611     23612
     23609     23607     23611     23612     23610     23607     23611     23612
     23614     23613     23617     23618     23615     23613     23617     23618
     23616     23613     23617     23618     23620     23619     23623     23624
     23621     23619     23623     23624     23622     23619     23623     23624
     23626     23625     23629     23630     23627     23625     23629     23630
     23628     23625     23629     23630     23632     23631     23635     23636
     23633     23631     23635     23636     23634     23631     23635     23636
     23638     23637     23641     23642     23639     23637     23641     23642
     23640     23637     23641     23642     23644     23643     23647     23648
     23645     23643     23647     23648     23646     23643     23647     23648
     23650     23649     23653     23654     23651     23649     23653     23654
     23652     23649     23653     23654     23656     23655     23659     23660
     23657     23655     23659     23660     23658     23655     23659     23660
     23662     23661     23665     23666     23663     23661     23665     23666
     23664     23661     23665     23666     23668     23667     23671     23672
     23669     23667     23671     23672     23670     23667     23671     23672
     23674     23673     23677     23678     23675     23673     23677     23678
     23676     23673     23677     23678     23680     23679     23683     23684
     23681     23679     23683     23684     23682     23679     23683     23684
     23686     23685     23689     23690     23687     23685     23689     23690
     23688     23685     23689     23690     23692     23691     23695     23696
     23693     23691     23695     23696     23694     23691     23695     23696
     23698     23697     23701     23702     23699     23697     23701     23702
     23700     23697     23701     23702     23704     23703     23707     23708
     23705     23703     23707     23708     23706     23703     23707     23708
     23710     23709     23713     23714     23711     23709     23713     23714
     23712     23709     23713     23714     23716     23715     23719     23720
     23717     23715     23719     23720     23718     23715     23719     23720
     23722     23721     23725     23726     23723     23721     23725     23726
     23724     23721     23725     23726     23728     23727     23731     23732
     23729     23727     23731     23732     23730     23727     23731     23732
     23734     23733     23737     23738     23735     23733     23737     23738
     23736     23733     23737     23738     23740     23739     23743     23744
     23741     23739     23743     23744     23742     23739     23743     23744
     23746     23745     23749     23750     23747     23745     23749     23750
     23748     23745     23749     23750     23752     23751     23755     23756
     23753     23751     23755     23756     23754     23751     23755     23756
     23758     23757     23761     23762     23759     23757     23761     23762
     23760     23757     23761     23762     23764     23763     23767     23768
     23765     23763     23767     23768     23766     23763     23767     23768
     23770     23769     23773     23774     23771     23769     23773     23774
     23772     23769     23773     23774     23776     23775     23779     23780
     23777     23775     23779     23780     23778     23775     23779     23780
     23782     23781     23785     23786     23783     23781     23785     23786
     23784     23781     23785     23786     23788     23787     23791     23792
     23789     23787     23791     23792     23790     23787     23791     23792
     23794     23793     23797     23798     23795     23793     23797     23798
     23796     23793     23797     23798     23800     23799     23803     23804
     23801     23799     23803     23804     23802     23799     23803     23804
     23806     23805     23809     23810     23807     23805     23809     23810
     23808     23805     23809     23810     23812     23811     23815     23816
     23813     23811     23815     23816     23814     23811     23815     23816
     23818     23817     23821     23822     23819     23817     23821     23822
     23820     23817     23821     23822     23824     23823     23827     23828
     23825     23823     23827     23828     23826     23823     23827     23828
     23830     23829     23833     23834     23831     23829     23833     23834
     23832     23829     23833     23834     23836     23835     23839     23840
     23837     23835     23839     23840     23838     23835     23839     23840
     23842     23841     23845     23846     23843     23841     23845     23846
     23844     23841     23845     23846     23848     23847     23851     23852
     23849     23847     23851     23852     23850     23847     23851     23852
     23854     23853     23857     23858     23855     23853     23857     23858
     23856     23853     23857     23858     23860     23859     23863     23864
     23861     23859     23863     23864     23862     23859     23863     23864
     23866     23865     23869     23870     23867     23865     23869     23870
     23868     23865     23869     23870     23872     23871     23875     23876
     23873     23871     23875     23876     23874     23871     23875     23876
     23878     23877     23881     23882     23879     23877     23881     23882
     23880     23877     23881     23882     23884     23883     23887     23888
     23885     23883     23887     23888     23886     23883     23887     23888
     23890     23889     23893     23894     23891     23889     23893     23894
     23892     23889     23893     23894     23896     23895     23899     23900
     23897     23895     23899     23900     23898     23895     23899     23900
     23902     23901     23905     23906     23903     23901     23905     23906
     23904     23901     23905     23906     23908     23907     23911     23912
     23909     23907     23911     23912     23910     23907     23911     23912
     23914     23913     23917     23918     23915     23913     23917     23918
     23916     23913     23917     23918     23920     23919     23923     23924
     23921     23919     23923     23924     23922     23919     23923     23924
     23926     23925     23929     23930     23927     23925     23929     23930
     23928     23925     23929     23930     23932     23931     23935     23936
     23933     23931     23935     23936     23934     23931     23935     23936
     23938     23937     23941     23942     23939     23937     23941     23942
     23940     23937     23941     23942     23944     23943     23947     23948
     23945     23943     23947     23948     23946     23943     23947     23948
     23950     23949     23953     23954     23951     23949     23953     23954
     23952     23949     23953     23954     23956     23955     23959     23960
     23957     23955     23959     23960     23958     23955     23959     23960
     23962     23961     23965     23966     23963     23961     23965     23966
     23964     23961     23965     23966     23968     23967     23971     23972
     23969     23967     23971     23972     23970     23967     23971     23972
     23974     23973     23977     23978     23975     23973     23977     23978
     23976     23973     23977     23978     23980     23979     23983     23984
     23981     23979     23983     23984     23982     23979     23983     23984
     23986     23985     23989     23990     23987     23985     23989     23990
     23988     23985     23989     23990     23992     23991     23995     23996
     23993     23991     23995     23996     23994     23991     23995     23996
     23998     23997     24001     24002     23999     23997     24001     24002
     24000     23997     24001     24002     24004     24003     24007     24008
     24005     24003     24007     24008     24006     24003     24007     24008
     24010     24009     24013     24014     24011     24009     24013     24014
     24012     24009     24013     24014     24016     24015     24019     24020
     24017     24015     24019     24020     24018     24015     24019     24020
     24022     24021     24025     24026     24023     24021     24025     24026
     24024     24021     24025     24026     24028     24027     24031     24032
     24029     24027     24031     24032     24030     24027     24031     24032
     24034     24033     24037     24038     24035     24033     24037     24038
     24036     24033     24037     24038     24040     24039     24043     24044
     24041     24039     24043     24044     24042     24039     24043     24044
     24046     24045     24049     24050     24047     24045     24049     24050
     24048     24045     24049     24050     24052     24051     24055     24056
     24053     24051     24055     24056     24054     24051     24055     24056
     24058     24057     24061     24062     24059     24057     24061     24062
     24060     24057     24061     24062     24064     24063     24067     24068
     24065     24063     24067     24068     24066     24063     24067     24068
     24070     24069     24073     24074     24071     24069     24073     24074
     24072     24069     24073     24074     24076     24075     24079     24080
     24077     24075     24079     24080     24078     24075     24079     24080
     24082     24081     24085     24086     24083     24081     24085     24086
     24084     24081     24085     24086     24088     24087     24091     24092
     24089     24087     24091     24092     24090     24087     24091     24092
     24094     24093     24097     24098     24095     24093     24097     24098
     24096     24093     24097     24098     24100     24099     24103     24104
     24101     24099     24103     24104     24102     24099     24103     24104
     24106     24105     24109     24110     24107     24105     24109     24110
     24108     24105     24109     24110     24112     24111     24115     24116
     24113     24111     24115     24116     24114     24111     24115     24116
     24118     24117     24121     24122     24119     24117     24121     24122
     24120     24117     24121     24122     24124     24123     24127     24128
     24125     24123     24127     24128     24126     24123     24127     24128
     24130     24129     24133     24134     24131     24129     24133     24134
     24132     24129     24133     24134     24136     24135     24139     24140
     24137     24135     24139     24140     24138     24135     24139     24140
     24142     24141     24145     24146     24143     24141     24145     24146
     24144     24141     24145     24146     24148     24147     24151     24152
     24149     24147     24151     24152     24150     24147     24151     24152
     24154     24153     24157     24158     24155     24153     24157     24158
     24156     24153     24157     24158     24160     24159     24163     24164
     24161     24159     24163     24164     24162     24159     24163     24164
     24166     24165     24169     24170     24167     24165     24169     24170
     24168     24165     24169     24170     24172     24171     24175     24176
     24173     24171     24175     24176     24174     24171     24175     24176
     24178     24177     24181     24182     24179     24177     24181     24182
     24180     24177     24181     24182     24184     24183     24187     24188
     24185     24183     24187     24188     24186     24183     24187     24188
     24190     24189     24193     24194     24191     24189     24193     24194
     24192     24189     24193     24194     24196     24195     24199     24200
     24197     24195     24199     24200     24198     24195     24199     24200
     24202     24201     24205     24206     24203     24201     24205     24206
     24204     24201     24205     24206     24208     24207     24211     24212
     24209     24207     24211     24212     24210     24207     24211     24212
     24214     24213     24217     24218     24215     24213     24217     24218
     24216     24213     24217     24218     24220     24219     24223     24224
     24221     24219     24223     24224     24222     24219     24223     24224
     24226     24225     24229     24230     24227     24225     24229     24230
     24228     24225     24229     24230     24232     24231     24235     24236
     24233     24231     24235     24236     24234     24231     24235     24236
     24238     24237     24241     24242     24239     24237     24241     24242
     24240     24237     24241     24242     24244     24243     24247     24248
     24245     24243     24247     24248     24246     24243     24247     24248
     24250     24249     24253     24254     24251     24249     24253     24254
     24252     24249     24253     24254     24256     24255     24259     24260
     24257     24255     24259     24260     24258     24255     24259     24260
     24262     24261     24265     24266     24263     24261     24265     24266
     24264     24261     24265     24266     24268     24267     24271     24272
     24269     24267     24271     24272     24270     24267     24271     24272
     24274     24273     24277     24278     24275     24273     24277     24278
     24276     24273     24277     24278     24280     24279     24283     24284
     24281     24279     24283     24284     24282     24279     24283     24284
     24286     24285     24289     24290     24287     24285     24289     24290
     24288     24285     24289     24290     24292     24291     24295     24296
     24293     24291     24295     24296     24294     24291     24295     24296
     24298     24297     24301     24302     24299     24297     24301     24302
     24300     24297     24301     24302     24304     24303     24307     24308
     24305     24303     24307     24308     24306     24303     24307     24308
     24310     24309     24313     24314     24311     24309     24313     24314
     24312     24309     24313     24314     24316     24315     24319     24320
     24317     24315     24319     24320     24318     24315     24319     24320
     24322     24321     24325     24326     24323     24321     24325     24326
     24324     24321     24325     24326     24328     24327     24331     24332
     24329     24327     24331     24332     24330     24327     24331     24332
     24334     24333     24337     24338     24335     24333     24337     24338
     24336     24333     24337     24338     24340     24339     24343     24344
     24341     24339     24343     24344     24342     24339     24343     24344
     24346     24345     24349     24350     24347     24345     24349     24350
     24348     24345     24349     24350     24352     24351     24355     24356
     24353     24351     24355     24356     24354     24351     24355     24356
     24358     24357     24361     24362     24359     24357     24361     24362
     24360     24357     24361     24362     24364     24363     24367     24368
     24365     24363     24367     24368     24366     24363     24367     24368
     24370     24369     24373     24374     24371     24369     24373     24374
     24372     24369     24373     24374     24376     24375     24379     24380
     24377     24375     24379     24380     24378     24375     24379     24380
     24382     24381     24385     24386     24383     24381     24385     24386
     24384     24381     24385     24386     24388     24387     24391     24392
     24389     24387     24391     24392     24390     24387     24391     24392
     24394     24393     24397     24398     24395     24393     24397     24398
     24396     24393     24397     24398     24400     24399     24403     24404
     24401     24399     24403     24404     24402     24399     24403     24404
     24406     24405     24409     24410     24407     24405     24409     24410
     24408     24405     24409     24410     24412     24411     24415     24416
     24413     24411     24415     24416     24414     24411     24415     24416
     24418     24417     24421     24422     24419     24417     24421     24422
     24420     24417     24421     24422     24424     24423     24427     24428
     24425     24423     24427     24428     24426     24423     24427     24428
     24430     24429     24433     24434     24431     24429     24433     24434
     24432     24429     24433     24434     24436     24435     24439     24440
     24437     24435     24439     24440     24438     24435     24439     24440
     24442     24441     24445     24446     24443     24441     24445     24446
     24444     24441     24445     24446     24448     24447     24451     24452
     24449     24447     24451     24452     24450     24447     24451     24452
     24454     24453     24457     24458     24455     24453     24457     24458
     24456     24453     24457     24458     24460     24459     24463     24464
     24461     24459     24463     24464     24462     24459     24463     24464
     24466     24465     24469     24470     24467     24465     24469     24470
     24468     24465     24469     24470     24472     24471     24475     24476
     24473     24471     24475     24476     24474     24471     24475     24476
     24478     24477     24481     24482     24479     24477     24481     24482
     24480     24477     24481     24482     24484     24483     24487     24488
     24485     24483     24487     24488     24486     24483     24487     24488
     24490     24489     24493     24494     24491     24489     24493     24494
     24492     24489     24493     24494     24496     24495     24499     24500
     24497     24495     24499     24500     24498     24495     24499     24500
     24502     24501     24505     24506     24503     24501     24505     24506
     24504     24501     24505     24506     24508     24507     24511     24512
     24509     24507     24511     24512     24510     24507     24511     24512
     24514     24513     24517     24518     24515     24513     24517     24518
     24516     24513     24517     24518     24520     24519     24523     24524
     24521     24519     24523     24524     24522     24519     24523     24524
     24526     24525     24529     24530     24527     24525     24529     24530
     24528     24525     24529     24530     24532     24531     24535     24536
     24533     24531     24535     24536     24534     24531     24535     24536
     24538     24537     24541     24542     24539     24537     24541     24542
     24540     24537     24541     24542     24544     24543     24547     24548
     24545     24543     24547     24548     24546     24543     24547     24548
     24550     24549     24553     24554     24551     24549     24553     24554
     24552     24549     24553     24554     24556     24555     24559     24560
     24557     24555     24559     24560     24558     24555     24559     24560
     24562     24561     24565     24566     24563     24561     24565     24566
     24564     24561     24565     24566     24568     24567     24571     24572
     24569     24567     24571     24572     24570     24567     24571     24572
     24574     24573     24577     24578     24575     24573     24577     24578
     24576     24573     24577     24578     24580     24579     24583     24584
     24581     24579     24583     24584     24582     24579     24583     24584
     24586     24585     24589     24590     24587     24585     24589     24590
     24588     24585     24589     24590     24592     24591     24595     24596
     24593     24591     24595     24596     24594     24591     24595     24596
     24598     24597     24601     24602     24599     24597     24601     24602
     24600     24597     24601     24602     24604     24603     24607     24608
     24605     24603     24607     24608     24606     24603     24607     24608
     24610     24609     24613     24614     24611     24609     24613     24614
     24612     24609     24613     24614     24616     24615     24619     24620
     24617     24615     24619     24620     24618     24615     24619     24620
     24622     24621     24625     24626     24623     24621     24625     24626
     24624     24621     24625     24626     24628     24627     24631     24632
     24629     24627     24631     24632     24630     24627     24631     24632
     24634     24633     24637     24638     24635     24633     24637     24638
     24636     24633     24637     24638     24640     24639     24643     24644
     24641     24639     24643     24644     24642     24639     24643     24644
     24646     24645     24649     24650     24647     24645     24649     24650
     24648     24645     24649     24650     24652     24651     24655     24656
     24653     24651     24655     24656     24654     24651     24655     24656
     24658     24657     24661     24662     24659     24657     24661     24662
     24660     24657     24661     24662     24664     24663     24667     24668
     24665     24663     24667     24668     24666     24663     24667     24668
     24670     24669     24673     24674     24671     24669     24673     24674
     24672     24669     24673     24674     24676     24675     24679     24680
     24677     24675     24679     24680     24678     24675     24679     24680
     24682     24681     24685     24686     24683     24681     24685     24686
     24684     24681     24685     24686     24688     24687     24691     24692
     24689     24687     24691     24692     24690     24687     24691     24692
     24694     24693     24697     24698     24695     24693     24697     24698
     24696     24693     24697     24698     24700     24699     24703     24704
     24701     24699     24703     24704     24702     24699     24703     24704
     24706     24705     24709     24710     24707     24705     24709     24710
     24708     24705     24709     24710     24712     24711     24715     24716
     24713     24711     24715     24716     24714     24711     24715     24716
     24718     24717     24721     24722     24719     24717     24721     24722
     24720     24717     24721     24722     24724     24723     24727     24728
     24725     24723     24727     24728     24726     24723     24727     24728
     24730     24729     24733     24734     24731     24729     24733     24734
     24732     24729     24733     24734     24736     24735     24739     24740
     24737     24735     24739     24740     24738     24735     24739     24740
     24742     24741     24745     24746     24743     24741     24745     24746
     24744     24741     24745     24746     24748     24747     24751     24752
     24749     24747     24751     24752     24750     24747     24751     24752
     24754     24753     24757     24758     24755     24753     24757     24758
     24756     24753     24757     24758     24760     24759     24763     24764
     24761     24759     24763     24764     24762     24759     24763     24764
     24766     24765     24769     24770     24767     24765     24769     24770
     24768     24765     24769     24770     24772     24771     24775     24776
     24773     24771     24775     24776     24774     24771     24775     24776
     24778     24777     24781     24782     24779     24777     24781     24782
     24780     24777     24781     24782     24784     24783     24787     24788
     24785     24783     24787     24788     24786     24783     24787     24788
     24790     24789     24793     24794     24791     24789     24793     24794
     24792     24789     24793     24794     24796     24795     24799     24800
     24797     24795     24799     24800     24798     24795     24799     24800
     24802     24801     24805     24806     24803     24801     24805     24806
     24804     24801     24805     24806     24808     24807     24811     24812
     24809     24807     24811     24812     24810     24807     24811     24812
     24814     24813     24817     24818     24815     24813     24817     24818
     24816     24813     24817     24818     24820     24819     24823     24824
     24821     24819     24823     24824     24822     24819     24823     24824
     24826     24825     24829     24830     24827     24825     24829     24830
     24828     24825     24829     24830     24832     24831     24835     24836
     24833     24831     24835     24836     24834     24831     24835     24836
     24838     24837     24841     24842     24839     24837     24841     24842
     24840     24837     24841     24842     24844     24843     24847     24848
     24845     24843     24847     24848     24846     24843     24847     24848
     24850     24849     24853     24854     24851     24849     24853     24854
     24852     24849     24853     24854     24856     24855     24859     24860
     24857     24855     24859     24860     24858     24855     24859     24860
     24862     24861     24865     24866     24863     24861     24865     24866
     24864     24861     24865     24866     24868     24867     24871     24872
     24869     24867     24871     24872     24870     24867     24871     24872
     24874     24873     24877     24878     24875     24873     24877     24878
     24876     24873     24877     24878     24880     24879     24883     24884
     24881     24879     24883     24884     24882     24879     24883     24884
     24886     24885     24889     24890     24887     24885     24889     24890
     24888     24885     24889     24890     24892     24891     24895     24896
     24893     24891     24895     24896     24894     24891     24895     24896
     24898     24897     24901     24902     24899     24897     24901     24902
     24900     24897     24901     24902     24904     24903     24907     24908
     24905     24903     24907     24908     24906     24903     24907     24908
     24910     24909     24913     24914     24911     24909     24913     24914
     24912     24909     24913     24914     24916     24915     24919     24920
     24917     24915     24919     24920     24918     24915     24919     24920
     24922     24921     24925     24926     24923     24921     24925     24926
     24924     24921     24925     24926     24928     24927     24931     24932
     24929     24927     24931     24932     24930     24927     24931     24932
     24934     24933     24937     24938     24935     24933     24937     24938
     24936     24933     24937     24938     24940     24939     24943     24944
     24941     24939     24943     24944     24942     24939     24943     24944
     24946     24945     24949     24950     24947     24945     24949     24950
     24948     24945     24949     24950     24952     24951     24955     24956
     24953     24951     24955     24956     24954     24951     24955     24956
     24958     24957     24961     24962     24959     24957     24961     24962
     24960     24957     24961     24962     24964     24963     24967     24968
     24965     24963     24967     24968     24966     24963     24967     24968
     24970     24969     24973     24974     24971     24969     24973     24974
     24972     24969     24973     24974     24976     24975     24979     24980
     24977     24975     24979     24980     24978     24975     24979     24980
     24982     24981     24985     24986     24983     24981     24985     24986
     24984     24981     24985     24986     24988     24987     24991     24992
     24989     24987     24991     24992     24990     24987     24991     24992
     24994     24993     24997     24998     24995     24993     24997     24998
     24996     24993     24997     24998     25000     24999     25003     25004
     25001     24999     25003     25004     25002     24999     25003     25004
     25006     25005     25009     25010     25007     25005     25009     25010
     25008     25005     25009     25010     25012     25011     25015     25016
     25013     25011     25015     25016     25014     25011     25015     25016
     25018     25017     25021     25022     25019     25017     25021     25022
     25020     25017     25021     25022     25024     25023     25027     25028
     25025     25023     25027     25028     25026     25023     25027     25028
     25030     25029     25033     25034     25031     25029     25033     25034
     25032     25029     25033     25034     25036     25035     25039     25040
     25037     25035     25039     25040     25038     25035     25039     25040
     25042     25041     25045     25046     25043     25041     25045     25046
     25044     25041     25045     25046     25048     25047     25051     25052
     25049     25047     25051     25052     25050     25047     25051     25052
     25054     25053     25057     25058     25055     25053     25057     25058
     25056     25053     25057     25058     25060     25059     25063     25064
     25061     25059     25063     25064     25062     25059     25063     25064
     25066     25065     25069     25070     25067     25065     25069     25070
     25068     25065     25069     25070     25072     25071     25075     25076
     25073     25071     25075     25076     25074     25071     25075     25076
     25078     25077     25081     25082     25079     25077     25081     25082
     25080     25077     25081     25082     25084     25083     25087     25088
     25085     25083     25087     25088     25086     25083     25087     25088
     25090     25089     25093     25094     25091     25089     25093     25094
     25092     25089     25093     25094     25096     25095     25099     25100
     25097     25095     25099     25100     25098     25095     25099     25100
     25102     25101     25105     25106     25103     25101     25105     25106
     25104     25101     25105     25106     25108     25107     25111     25112
     25109     25107     25111     25112     25110     25107     25111     25112
     25114     25113     25117     25118     25115     25113     25117     25118
     25116     25113     25117     25118     25120     25119     25123     25124
     25121     25119     25123     25124     25122     25119     25123     25124
     25126     25125     25129     25130     25127     25125     25129     25130
     25128     25125     25129     25130     25132     25131     25135     25136
     25133     25131     25135     25136     25134     25131     25135     25136
     25138     25137     25141     25142     25139     25137     25141     25142
     25140     25137     25141     25142     25144     25143     25147     25148
     25145     25143     25147     25148     25146     25143     25147     25148
     25150     25149     25153     25154     25151     25149     25153     25154
     25152     25149     25153     25154     25156     25155     25159     25160
     25157     25155     25159     25160     25158     25155     25159     25160
     25162     25161     25165     25166     25163     25161     25165     25166
     25164     25161     25165     25166     25168     25167     25171     25172
     25169     25167     25171     25172     25170     25167     25171     25172
     25174     25173     25177     25178     25175     25173     25177     25178
     25176     25173     25177     25178     25180     25179     25183     25184
     25181     25179     25183     25184     25182     25179     25183     25184
     25186     25185     25189     25190     25187     25185     25189     25190
     25188     25185     25189     25190     25192     25191     25195     25196
     25193     25191     25195     25196     25194     25191     25195     25196
     25198     25197     25201     25202     25199     25197     25201     25202
     25200     25197     25201     25202     25204     25203     25207     25208
     25205     25203     25207     25208     25206     25203     25207     25208
     25210     25209     25213     25214     25211     25209     25213     25214
     25212     25209     25213     25214     25216     25215     25219     25220
     25217     25215     25219     25220     25218     25215     25219     25220
     25222     25221     25225     25226     25223     25221     25225     25226
     25224     25221     25225     25226     25228     25227     25231     25232
     25229     25227     25231     25232     25230     25227     25231     25232
     25234     25233     25237     25238     25235     25233     25237     25238
     25236     25233     25237     25238     25240     25239     25243     25244
     25241     25239     25243     25244     25242     25239     25243     25244
     25246     25245     25249     25250     25247     25245     25249     25250
     25248     25245     25249     25250     25252     25251     25255     25256
     25253     25251     25255     25256     25254     25251     25255     25256
     25258     25257     25261     25262     25259     25257     25261     25262
     25260     25257     25261     25262     25264     25263     25267     25268
     25265     25263     25267     25268     25266     25263     25267     25268
     25270     25269     25273     25274     25271     25269     25273     25274
     25272     25269     25273     25274     25276     25275     25279     25280
     25277     25275     25279     25280     25278     25275     25279     25280
     25282     25281     25285     25286     25283     25281     25285     25286
     25284     25281     25285     25286     25288     25287     25291     25292
     25289     25287     25291     25292     25290     25287     25291     25292
     25294     25293     25297     25298     25295     25293     25297     25298
     25296     25293     25297     25298     25300     25299     25303     25304
     25301     25299     25303     25304     25302     25299     25303     25304
     25306     25305     25309     25310     25307     25305     25309     25310
     25308     25305     25309     25310     25312     25311     25315     25316
     25313     25311     25315     25316     25314     25311     25315     25316
     25318     25317     25321     25322     25319     25317     25321     25322
     25320     25317     25321     25322     25324     25323     25327     25328
     25325     25323     25327     25328     25326     25323     25327     25328
     25330     25329     25333     25334     25331     25329     25333     25334
     25332     25329     25333     25334     25336     25335     25339     25340
     25337     25335     25339     25340     25338     25335     25339     25340
     25342     25341     25345     25346     25343     25341     25345     25346
     25344     25341     25345     25346     25348     25347     25351     25352
     25349     25347     25351     25352     25350     25347     25351     25352
     25354     25353     25357     25358     25355     25353     25357     25358
     25356     25353     25357     25358     25360     25359     25363     25364
     25361     25359     25363     25364     25362     25359     25363     25364
     25366     25365     25369     25370     25367     25365     25369     25370
     25368     25365     25369     25370     25372     25371     25375     25376
     25373     25371     25375     25376     25374     25371     25375     25376
     25378     25377     25381     25382     25379     25377     25381     25382
     25380     25377     25381     25382     25384     25383     25387     25388
     25385     25383     25387     25388     25386     25383     25387     25388
     25390     25389     25393     25394     25391     25389     25393     25394
     25392     25389     25393     25394     25396     25395     25399     25400
     25397     25395     25399     25400     25398     25395     25399     25400
     25402     25401     25405     25406     25403     25401     25405     25406
     25404     25401     25405     25406     25408     25407     25411     25412
     25409     25407     25411     25412     25410     25407     25411     25412
     25414     25413     25417     25418     25415     25413     25417     25418
     25416     25413     25417     25418     25420     25419     25423     25424
     25421     25419     25423     25424     25422     25419     25423     25424
     25426     25425     25429     25430     25427     25425     25429     25430
     25428     25425     25429     25430     25432     25431     25435     25436
     25433     25431     25435     25436     25434     25431     25435     25436
     25438     25437     25441     25442     25439     25437     25441     25442
     25440     25437     25441     25442     25444     25443     25447     25448
     25445     25443     25447     25448     25446     25443     25447     25448
     25450     25449     25453     25454     25451     25449     25453     25454
     25452     25449     25453     25454     25456     25455     25459     25460
     25457     25455     25459     25460     25458     25455     25459     25460
     25462     25461     25465     25466     25463     25461     25465     25466
     25464     25461     25465     25466     25468     25467     25471     25472
     25469     25467     25471     25472     25470     25467     25471     25472
     25474     25473     25477     25478     25475     25473     25477     25478
     25476     25473     25477     25478     25480     25479     25483     25484
     25481     25479     25483     25484     25482     25479     25483     25484
     25486     25485     25489     25490     25487     25485     25489     25490
     25488     25485     25489     25490     25492     25491     25495     25496
     25493     25491     25495     25496     25494     25491     25495     25496
     25498     25497     25501     25502     25499     25497     25501     25502
     25500     25497     25501     25502     25504     25503     25507     25508
     25505     25503     25507     25508     25506     25503     25507     25508
     25510     25509     25513     25514     25511     25509     25513     25514
     25512     25509     25513     25514     25516     25515     25519     25520
     25517     25515     25519     25520     25518     25515     25519     25520
     25522     25521     25525     25526     25523     25521     25525     25526
     25524     25521     25525     25526     25528     25527     25531     25532
     25529     25527     25531     25532     25530     25527     25531     25532
     25534     25533     25537     25538     25535     25533     25537     25538
     25536     25533     25537     25538     25540     25539     25543     25544
     25541     25539     25543     25544     25542     25539     25543     25544
     25546     25545     25549     25550     25547     25545     25549     25550
     25548     25545     25549     25550     25552     25551     25555     25556
     25553     25551     25555     25556     25554     25551     25555     25556
     25558     25557     25561     25562     25559     25557     25561     25562
     25560     25557     25561     25562     25564     25563     25567     25568
     25565     25563     25567     25568     25566     25563     25567     25568
     25570     25569     25573     25574     25571     25569     25573     25574
     25572     25569     25573     25574     25576     25575     25579     25580
     25577     25575     25579     25580     25578     25575     25579     25580
     25582     25581     25585     25586     25583     25581     25585     25586
     25584     25581     25585     25586     25588     25587     25591     25592
     25589     25587     25591     25592     25590     25587     25591     25592
     25594     25593     25597     25598     25595     25593     25597     25598
     25596     25593     25597     25598     25600     25599     25603     25604
     25601     25599     25603     25604     25602     25599     25603     25604
     25606     25605     25609     25610     25607     25605     25609     25610
     25608     25605     25609     25610     25612     25611     25615     25616
     25613     25611     25615     25616     25614     25611     25615     25616
     25618     25617     25621     25622     25619     25617     25621     25622
     25620     25617     25621     25622     25624     25623     25627     25628
     25625     25623     25627     25628     25626     25623     25627     25628
     25630     25629     25633     25634     25631     25629     25633     25634
     25632     25629     25633     25634     25636     25635     25639     25640
     25637     25635     25639     25640     25638     25635     25639     25640
     25642     25641     25645     25646     25643     25641     25645     25646
     25644     25641     25645     25646     25648     25647     25651     25652
     25649     25647     25651     25652     25650     25647     25651     25652
     25654     25653     25657     25658     25655     25653     25657     25658
     25656     25653     25657     25658     25660     25659     25663     25664
     25661     25659     25663     25664     25662     25659     25663     25664
     25666     25665     25669     25670     25667     25665     25669     25670
     25668     25665     25669     25670     25672     25671     25675     25676
     25673     25671     25675     25676     25674     25671     25675     25676
     25678     25677     25681     25682     25679     25677     25681     25682
     25680     25677     25681     25682     25684     25683     25687     25688
     25685     25683     25687     25688     25686     25683     25687     25688
     25690     25689     25693     25694     25691     25689     25693     25694
     25692     25689     25693     25694     25696     25695     25699     25700
     25697     25695     25699     25700     25698     25695     25699     25700
     25702     25701     25705     25706     25703     25701     25705     25706
     25704     25701     25705     25706     25708     25707     25711     25712
     25709     25707     25711     25712     25710     25707     25711     25712
     25714     25713     25717     25718     25715     25713     25717     25718
     25716     25713     25717     25718     25720     25719     25723     25724
     25721     25719     25723     25724     25722     25719     25723     25724
     25726     25725     25729     25730     25727     25725     25729     25730
     25728     25725     25729     25730     25732     25731     25735     25736
     25733     25731     25735     25736     25734     25731     25735     25736
     25738     25737     25741     25742     25739     25737     25741     25742
     25740     25737     25741     25742     25744     25743     25747     25748
     25745     25743     25747     25748     25746     25743     25747     25748
     25750     25749     25753     25754     25751     25749     25753     25754
     25752     25749     25753     25754     25756     25755     25759     25760
     25757     25755     25759     25760     25758     25755     25759     25760
     25762     25761     25765     25766     25763     25761     25765     25766
     25764     25761     25765     25766     25768     25767     25771     25772
     25769     25767     25771     25772     25770     25767     25771     25772
     25774     25773     25777     25778     25775     25773     25777     25778
     25776     25773     25777     25778     25780     25779     25783     25784
     25781     25779     25783     25784     25782     25779     25783     25784
     25786     25785     25789     25790     25787     25785     25789     25790
     25788     25785     25789     25790     25792     25791     25795     25796
     25793     25791     25795     25796     25794     25791     25795     25796
     25798     25797     25801     25802     25799     25797     25801     25802
     25800     25797     25801     25802     25804     25803     25807     25808
     25805     25803     25807     25808     25806     25803     25807     25808
     25810     25809     25813     25814     25811     25809     25813     25814
     25812     25809     25813     25814     25816     25815     25819     25820
     25817     25815     25819     25820     25818     25815     25819     25820
     25822     25821     25825     25826     25823     25821     25825     25826
     25824     25821     25825     25826     25828     25827     25831     25832
     25829     25827     25831     25832     25830     25827     25831     25832
     25834     25833     25837     25838     25835     25833     25837     25838
     25836     25833     25837     25838     25840     25839     25843     25844
     25841     25839     25843     25844     25842     25839     25843     25844
     25846     25845     25849     25850     25847     25845     25849     25850
     25848     25845     25849     25850     25852     25851     25855     25856
     25853     25851     25855     25856     25854     25851     25855     25856
     25858     25857     25861     25862     25859     25857     25861     25862
     25860     25857     25861     25862     25864     25863     25867     25868
     25865     25863     25867     25868     25866     25863     25867     25868
     25870     25869     25873     25874     25871     25869     25873     25874
     25872     25869     25873     25874     25876     25875     25879     25880
     25877     25875     25879     25880     25878     25875     25879     25880
     25882     25881     25885     25886     25883     25881     25885     25886
     25884     25881     25885     25886     25888     25887     25891     25892
     25889     25887     25891     25892     25890     25887     25891     25892
     25894     25893     25897     25898     25895     25893     25897     25898
     25896     25893     25897     25898     25900     25899     25903     25904
     25901     25899     25903     25904     25902     25899     25903     25904
     25906     25905     25909     25910     25907     25905     25909     25910
     25908     25905     25909     25910     25912     25911     25915     25916
     25913     25911     25915     25916     25914     25911     25915     25916
     25918     25917     25921     25922     25919     25917     25921     25922
     25920     25917     25921     25922     25924     25923     25927     25928
     25925     25923     25927     25928     25926     25923     25927     25928
     25930     25929     25933     25934     25931     25929     25933     25934
     25932     25929     25933     25934     25936     25935     25939     25940
     25937     25935     25939     25940     25938     25935     25939     25940
     25942     25941     25945     25946     25943     25941     25945     25946
     25944     25941     25945     25946     25948     25947     25951     25952
     25949     25947     25951     25952     25950     25947     25951     25952
     25954     25953     25957     25958     25955     25953     25957     25958
     25956     25953     25957     25958     25960     25959     25963     25964
     25961     25959     25963     25964     25962     25959     25963     25964
     25966     25965     25969     25970     25967     25965     25969     25970
     25968     25965     25969     25970     25972     25971     25975     25976
     25973     25971     25975     25976     25974     25971     25975     25976
     25978     25977     25981     25982     25979     25977     25981     25982
     25980     25977     25981     25982     25984     25983     25987     25988
     25985     25983     25987     25988     25986     25983     25987     25988
     25990     25989     25993     25994     25991     25989     25993     25994
     25992     25989     25993     25994     25996     25995     25999     26000
     25997     25995     25999     26000     25998     25995     25999     26000
     26002     26001     26005     26006     26003     26001     26005     26006
     26004     26001     26005     26006     26008     26007     26011     26012
     26009     26007     26011     26012     26010     26007     26011     26012
     26014     26013     26017     26018     26015     26013     26017     26018
     26016     26013     26017     26018     26020     26019     26023     26024
     26021     26019     26023     26024     26022     26019     26023     26024
     26026     26025     26029     26030     26027     26025     26029     26030
     26028     26025     26029     26030     26032     26031     26035     26036
     26033     26031     26035     26036     26034     26031     26035     26036
     26038     26037     26041     26042     26039     26037     26041     26042
     26040     26037     26041     26042     26044     26043     26047     26048
     26045     26043     26047     26048     26046     26043     26047     26048
     26050     26049     26053     26054     26051     26049     26053     26054
     26052     26049     26053     26054     26056     26055     26059     26060
     26057     26055     26059     26060     26058     26055     26059     26060
     26062     26061     26065     26066     26063     26061     26065     26066
     26064     26061     26065     26066     26068     26067     26071     26072
     26069     26067     26071     26072     26070     26067     26071     26072
     26074     26073     26077     26078     26075     26073     26077     26078
     26076     26073     26077     26078     26080     26079     26083     26084
     26081     26079     26083     26084     26082     26079     26083     26084
     26086     26085     26089     26090     26087     26085     26089     26090
     26088     26085     26089     26090     26092     26091     26095     26096
     26093     26091     26095     26096     26094     26091     26095     26096
     26098     26097     26101     26102     26099     26097     26101     26102
     26100     26097     26101     26102     26104     26103     26107     26108
     26105     26103     26107     26108     26106     26103     26107     26108
     26110     26109     26113     26114     26111     26109     26113     26114
     26112     26109     26113     26114     26116     26115     26119     26120
     26117     26115     26119     26120     26118     26115     26119     26120
     26122     26121     26125     26126     26123     26121     26125     26126
     26124     26121     26125     26126     26128     26127     26131     26132
     26129     26127     26131     26132     26130     26127     26131     26132
     26134     26133     26137     26138     26135     26133     26137     26138
     26136     26133     26137     26138     26140     26139     26143     26144
     26141     26139     26143     26144     26142     26139     26143     26144
     26146     26145     26149     26150     26147     26145     26149     26150
     26148     26145     26149     26150     26152     26151     26155     26156
     26153     26151     26155     26156     26154     26151     26155     26156
     26158     26157     26161     26162     26159     26157     26161     26162
     26160     26157     26161     26162     26164     26163     26167     26168
     26165     26163     26167     26168     26166     26163     26167     26168
     26170     26169     26173     26174     26171     26169     26173     26174
     26172     26169     26173     26174     26176     26175     26179     26180
     26177     26175     26179     26180     26178     26175     26179     26180
     26182     26181     26185     26186     26183     26181     26185     26186
     26184     26181     26185     26186     26188     26187     26191     26192
     26189     26187     26191     26192     26190     26187     26191     26192
     26194     26193     26197     26198     26195     26193     26197     26198
     26196     26193     26197     26198     26200     26199     26203     26204
     26201     26199     26203     26204     26202     26199     26203     26204
     26206     26205     26209     26210     26207     26205     26209     26210
     26208     26205     26209     26210     26212     26211     26215     26216
     26213     26211     26215     26216     26214     26211     26215     26216
     26218     26217     26221     26222     26219     26217     26221     26222
     26220     26217     26221     26222     26224     26223     26227     26228
     26225     26223     26227     26228     26226     26223     26227     26228
     26230     26229     26233     26234     26231     26229     26233     26234
     26232     26229     26233     26234     26236     26235     26239     26240
     26237     26235     26239     26240     26238     26235     26239     26240
     26242     26241     26245     26246     26243     26241     26245     26246
     26244     26241     26245     26246     26248     26247     26251     26252
     26249     26247     26251     26252     26250     26247     26251     26252
     26254     26253     26257     26258     26255     26253     26257     26258
     26256     26253     26257     26258     26260     26259     26263     26264
     26261     26259     26263     26264     26262     26259     26263     26264
     26266     26265     26269     26270     26267     26265     26269     26270
     26268     26265     26269     26270     26272     26271     26275     26276
     26273     26271     26275     26276     26274     26271     26275     26276
     26278     26277     26281     26282     26279     26277     26281     26282
     26280     26277     26281     26282     26284     26283     26287     26288
     26285     26283     26287     26288     26286     26283     26287     26288
     26290     26289     26293     26294     26291     26289     26293     26294
     26292     26289     26293     26294     26296     26295     26299     26300
     26297     26295     26299     26300     26298     26295     26299     26300
     26302     26301     26305     26306     26303     26301     26305     26306
     26304     26301     26305     26306     26308     26307     26311     26312
     26309     26307     26311     26312     26310     26307     26311     26312
     26314     26313     26317     26318     26315     26313     26317     26318
     26316     26313     26317     26318     26320     26319     26323     26324
     26321     26319     26323     26324     26322     26319     26323     26324
     26326     26325     26329     26330     26327     26325     26329     26330
     26328     26325     26329     26330     26332     26331     26335     26336
     26333     26331     26335     26336     26334     26331     26335     26336
     26338     26337     26341     26342     26339     26337     26341     26342
     26340     26337     26341     26342     26344     26343     26347     26348
     26345     26343     26347     26348     26346     26343     26347     26348
     26350     26349     26353     26354     26351     26349     26353     26354
     26352     26349     26353     26354     26356     26355     26359     26360
     26357     26355     26359     26360     26358     26355     26359     26360
     26362     26361     26365     26366     26363     26361     26365     26366
     26364     26361     26365     26366     26368     26367     26371     26372
     26369     26367     26371     26372     26370     26367     26371     26372
     26374     26373     26377     26378     26375     26373     26377     26378
     26376     26373     26377     26378     26380     26379     26383     26384
     26381     26379     26383     26384     26382     26379     26383     26384
     26386     26385     26389     26390     26387     26385     26389     26390
     26388     26385     26389     26390     26392     26391     26395     26396
     26393     26391     26395     26396     26394     26391     26395     26396
     26398     26397     26401     26402     26399     26397     26401     26402
     26400     26397     26401     26402     26404     26403     26407     26408
     26405     26403     26407     26408     26406     26403     26407     26408
     26410     26409     26413     26414     26411     26409     26413     26414
     26412     26409     26413     26414     26416     26415     26419     26420
     26417     26415     26419     26420     26418     26415     26419     26420
     26422     26421     26425     26426     26423     26421     26425     26426
     26424     26421     26425     26426     26428     26427     26431     26432
     26429     26427     26431     26432     26430     26427     26431     26432
     26434     26433     26437     26438     26435     26433     26437     26438
     26436     26433     26437     26438     26440     26439     26443     26444
     26441     26439     26443     26444     26442     26439     26443     26444
     26446     26445     26449     26450     26447     26445     26449     26450
     26448     26445     26449     26450     26452     26451     26455     26456
     26453     26451     26455     26456     26454     26451     26455     26456
     26458     26457     26461     26462     26459     26457     26461     26462
     26460     26457     26461     26462     26464     26463     26467     26468
     26465     26463     26467     26468     26466     26463     26467     26468
     26470     26469     26473     26474     26471     26469     26473     26474
     26472     26469     26473     26474     26476     26475     26479     26480
     26477     26475     26479     26480     26478     26475     26479     26480
     26482     26481     26485     26486     26483     26481     26485     26486
     26484     26481     26485     26486     26488     26487     26491     26492
     26489     26487     26491     26492     26490     26487     26491     26492
     26494     26493     26497     26498     26495     26493     26497     26498
     26496     26493     26497     26498     26500     26499     26503     26504
     26501     26499     26503     26504     26502     26499     26503     26504
     26506     26505     26509     26510     26507     26505     26509     26510
     26508     26505     26509     26510     26512     26511     26515     26516
     26513     26511     26515     26516     26514     26511     26515     26516
     26518     26517     26521     26522     26519     26517     26521     26522
     26520     26517     26521     26522     26524     26523     26527     26528
     26525     26523     26527     26528     26526     26523     26527     26528
     26530     26529     26533     26534     26531     26529     26533     26534
     26532     26529     26533     26534     26536     26535     26539     26540
     26537     26535     26539     26540     26538     26535     26539     26540
     26542     26541     26545     26546     26543     26541     26545     26546
     26544     26541     26545     26546     26548     26547     26551     26552
     26549     26547     26551     26552     26550     26547     26551     26552
     26554     26553     26557     26558     26555     26553     26557     26558
     26556     26553     26557     26558     26560     26559     26563     26564
     26561     26559     26563     26564     26562     26559     26563     26564
     26566     26565     26569     26570     26567     26565     26569     26570
     26568     26565     26569     26570     26572     26571     26575     26576
     26573     26571     26575     26576     26574     26571     26575     26576
     26578     26577     26581     26582     26579     26577     26581     26582
     26580     26577     26581     26582     26584     26583     26587     26588
     26585     26583     26587     26588     26586     26583     26587     26588
     26590     26589     26593     26594     26591     26589     26593     26594
     26592     26589     26593     26594     26596     26595     26599     26600
     26597     26595     26599     26600     26598     26595     26599     26600
     26602     26601     26605     26606     26603     26601     26605     26606
     26604     26601     26605     26606     26608     26607     26611     26612
     26609     26607     26611     26612     26610     26607     26611     26612
     26614     26613     26617     26618     26615     26613     26617     26618
     26616     26613     26617     26618     26620     26619     26623     26624
     26621     26619     26623     26624     26622     26619     26623     26624
     26626     26625     26629     26630     26627     26625     26629     26630
     26628     26625     26629     26630     26632     26631     26635     26636
     26633     26631     26635     26636     26634     26631     26635     26636
     26638     26637     26641     26642     26639     26637     26641     26642
     26640     26637     26641     26642     26644     26643     26647     26648
     26645     26643     26647     26648     26646     26643     26647     26648
     26650     26649     26653     26654     26651     26649     26653     26654
     26652     26649     26653     26654     26656     26655     26659     26660
     26657     26655     26659     26660     26658     26655     26659     26660
     26662     26661     26665     26666     26663     26661     26665     26666
     26664     26661     26665     26666     26668     26667     26671     26672
     26669     26667     26671     26672     26670     26667     26671     26672
     26674     26673     26677     26678     26675     26673     26677     26678
     26676     26673     26677     26678     26680     26679     26683     26684
     26681     26679     26683     26684     26682     26679     26683     26684
     26686     26685     26689     26690     26687     26685     26689     26690
     26688     26685     26689     26690     26692     26691     26695     26696
     26693     26691     26695     26696     26694     26691     26695     26696
     26698     26697     26701     26702     26699     26697     26701     26702
     26700     26697     26701     26702     26704     26703     26707     26708
     26705     26703     26707     26708     26706     26703     26707     26708
     26710     26709     26713     26714     26711     26709     26713     26714
     26712     26709     26713     26714     26716     26715     26719     26720
     26717     26715     26719     26720     26718     26715     26719     26720
     26722     26721     26725     26726     26723     26721     26725     26726
     26724     26721     26725     26726     26728     26727     26731     26732
     26729     26727     26731     26732     26730     26727     26731     26732
     26734     26733     26737     26738     26735     26733     26737     26738
     26736     26733     26737     26738     26740     26739     26743     26744
     26741     26739     26743     26744     26742     26739     26743     26744
     26746     26745     26749     26750     26747     26745     26749     26750
     26748     26745     26749     26750     26752     26751     26755     26756
     26753     26751     26755     26756     26754     26751     26755     26756
     26758     26757     26761     26762     26759     26757     26761     26762
     26760     26757     26761     26762     26764     26763     26767     26768
     26765     26763     26767     26768     26766     26763     26767     26768
     26770     26769     26773     26774     26771     26769     26773     26774
     26772     26769     26773     26774     26776     26775     26779     26780
     26777     26775     26779     26780     26778     26775     26779     26780
     26782     26781     26785     26786     26783     26781     26785     26786
     26784     26781     26785     26786     26788     26787     26791     26792
     26789     26787     26791     26792     26790     26787     26791     26792
     26794     26793     26797     26798     26795     26793     26797     26798
     26796     26793     26797     26798     26800     26799     26803     26804
     26801     26799     26803     26804     26802     26799     26803     26804
     26806     26805     26809     26810     26807     26805     26809     26810
     26808     26805     26809     26810     26812     26811     26815     26816
     26813     26811     26815     26816     26814     26811     26815     26816
     26818     26817     26821     26822     26819     26817     26821     26822
     26820     26817     26821     26822     26824     26823     26827     26828
     26825     26823     26827     26828     26826     26823     26827     26828
     26830     26829     26833     26834     26831     26829     26833     26834
     26832     26829     26833     26834     26836     26835     26839     26840
     26837     26835     26839     26840     26838     26835     26839     26840
     26842     26841     26845     26846     26843     26841     26845     26846
     26844     26841     26845     26846     26848     26847     26851     26852
     26849     26847     26851     26852     26850     26847     26851     26852
     26854     26853     26857     26858     26855     26853     26857     26858
     26856     26853     26857     26858     26860     26859     26863     26864
     26861     26859     26863     26864     26862     26859     26863     26864
     26866     26865     26869     26870     26867     26865     26869     26870
     26868     26865     26869     26870     26872     26871     26875     26876
     26873     26871     26875     26876     26874     26871     26875     26876
     26878     26877     26881     26882     26879     26877     26881     26882
     26880     26877     26881     26882     26884     26883     26887     26888
     26885     26883     26887     26888     26886     26883     26887     26888
     26890     26889     26893     26894     26891     26889     26893     26894
     26892     26889     26893     26894     26896     26895     26899     26900
     26897     26895     26899     26900     26898     26895     26899     26900
     26902     26901     26905     26906     26903     26901     26905     26906
     26904     26901     26905     26906     26908     26907     26911     26912
     26909     26907     26911     26912     26910     26907     26911     26912
     26914     26913     26917     26918     26915     26913     26917     26918
     26916     26913     26917     26918     26920     26919     26923     26924
     26921     26919     26923     26924     26922     26919     26923     26924
     26926     26925     26929     26930     26927     26925     26929     26930
     26928     26925     26929     26930     26932     26931     26935     26936
     26933     26931     26935     26936     26934     26931     26935     26936
     26938     26937     26941     26942     26939     26937     26941     26942
     26940     26937     26941     26942     26944     26943     26947     26948
     26945     26943     26947     26948     26946     26943     26947     26948
     26950     26949     26953     26954     26951     26949     26953     26954
     26952     26949     26953     26954     26956     26955     26959     26960
     26957     26955     26959     26960     26958     26955     26959     26960
     26962     26961     26965     26966     26963     26961     26965     26966
     26964     26961     26965     26966     26968     26967     26971     26972
     26969     26967     26971     26972     26970     26967     26971     26972
     26974     26973     26977     26978     26975     26973     26977     26978
     26976     26973     26977     26978     26980     26979     26983     26984
     26981     26979     26983     26984     26982     26979     26983     26984
     26986     26985     26989     26990     26987     26985     26989     26990
     26988     26985     26989     26990     26992     26991     26995     26996
     26993     26991     26995     26996     26994     26991     26995     26996
     26998     26997     27001     27002     26999     26997     27001     27002
     27000     26997     27001     27002     27004     27003     27007     27008
     27005     27003     27007     27008     27006     27003     27007     27008
     27010     27009     27013     27014     27011     27009     27013     27014
     27012     27009     27013     27014     27016     27015     27019     27020
     27017     27015     27019     27020     27018     27015     27019     27020
     27022     27021     27025     27026     27023     27021     27025     27026
     27024     27021     27025     27026     27028     27027     27031     27032
     27029     27027     27031     27032     27030     27027     27031     27032
     27034     27033     27037     27038     27035     27033     27037     27038
     27036     27033     27037     27038     27040     27039     27043     27044
     27041     27039     27043     27044     27042     27039     27043     27044
     27046     27045     27049     27050     27047     27045     27049     27050
     27048     27045     27049     27050     27052     27051     27055     27056
     27053     27051     27055     27056     27054     27051     27055     27056
     27058     27057     27061     27062     27059     27057     27061     27062
     27060     27057     27061     27062     27064     27063     27067     27068
     27065     27063     27067     27068     27066     27063     27067     27068
     27070     27069     27073     27074     27071     27069     27073     27074
     27072     27069     27073     27074     27076     27075     27079     27080
     27077     27075     27079     27080     27078     27075     27079     27080
     27082     27081     27085     27086     27083     27081     27085     27086
     27084     27081     27085     27086     27088     27087     27091     27092
     27089     27087     27091     27092     27090     27087     27091     27092
     27094     27093     27097     27098     27095     27093     27097     27098
     27096     27093     27097     27098     27100     27099     27103     27104
     27101     27099     27103     27104     27102     27099     27103     27104
     27106     27105     27109     27110     27107     27105     27109     27110
     27108     27105     27109     27110     27112     27111     27115     27116
     27113     27111     27115     27116     27114     27111     27115     27116
     27118     27117     27121     27122     27119     27117     27121     27122
     27120     27117     27121     27122     27124     27123     27127     27128
     27125     27123     27127     27128     27126     27123     27127     27128
     27130     27129     27133     27134     27131     27129     27133     27134
     27132     27129     27133     27134     27136     27135     27139     27140
     27137     27135     27139     27140     27138     27135     27139     27140
     27142     27141     27145     27146     27143     27141     27145     27146
     27144     27141     27145     27146     27148     27147     27151     27152
     27149     27147     27151     27152     27150     27147     27151     27152
     27154     27153     27157     27158     27155     27153     27157     27158
     27156     27153     27157     27158     27160     27159     27163     27164
     27161     27159     27163     27164     27162     27159     27163     27164
     27166     27165     27169     27170     27167     27165     27169     27170
     27168     27165     27169     27170     27172     27171     27175     27176
     27173     27171     27175     27176     27174     27171     27175     27176
     27178     27177     27181     27182     27179     27177     27181     27182
     27180     27177     27181     27182     27184     27183     27187     27188
     27185     27183     27187     27188     27186     27183     27187     27188
     27190     27189     27193     27194     27191     27189     27193     27194
     27192     27189     27193     27194     27196     27195     27199     27200
     27197     27195     27199     27200     27198     27195     27199     27200
     27202     27201     27205     27206     27203     27201     27205     27206
     27204     27201     27205     27206     27208     27207     27211     27212
     27209     27207     27211     27212     27210     27207     27211     27212
     27214     27213     27217     27218     27215     27213     27217     27218
     27216     27213     27217     27218     27220     27219     27223     27224
     27221     27219     27223     27224     27222     27219     27223     27224
     27226     27225     27229     27230     27227     27225     27229     27230
     27228     27225     27229     27230     27232     27231     27235     27236
     27233     27231     27235     27236     27234     27231     27235     27236
     27238     27237     27241     27242     27239     27237     27241     27242
     27240     27237     27241     27242     27244     27243     27247     27248
     27245     27243     27247     27248     27246     27243     27247     27248
     27250     27249     27253     27254     27251     27249     27253     27254
     27252     27249     27253     27254     27256     27255     27259     27260
     27257     27255     27259     27260     27258     27255     27259     27260
     27262     27261     27265     27266     27263     27261     27265     27266
     27264     27261     27265     27266     27268     27267     27271     27272
     27269     27267     27271     27272     27270     27267     27271     27272
     27274     27273     27277     27278     27275     27273     27277     27278
     27276     27273     27277     27278     27280     27279     27283     27284
     27281     27279     27283     27284     27282     27279     27283     27284
     27286     27285     27289     27290     27287     27285     27289     27290
     27288     27285     27289     27290     27292     27291     27295     27296
     27293     27291     27295     27296     27294     27291     27295     27296
     27298     27297     27301     27302     27299     27297     27301     27302
     27300     27297     27301     27302     27304     27303     27307     27308
     27305     27303     27307     27308     27306     27303     27307     27308
     27310     27309     27313     27314     27311     27309     27313     27314
     27312     27309     27313     27314     27316     27315     27319     27320
     27317     27315     27319     27320     27318     27315     27319     27320
     27322     27321     27325     27326     27323     27321     27325     27326
     27324     27321     27325     27326     27328     27327     27331     27332
     27329     27327     27331     27332     27330     27327     27331     27332
     27334     27333     27337     27338     27335     27333     27337     27338
     27336     27333     27337     27338     27340     27339     27343     27344
     27341     27339     27343     27344     27342     27339     27343     27344
     27346     27345     27349     27350     27347     27345     27349     27350
     27348     27345     27349     27350     27352     27351     27355     27356
     27353     27351     27355     27356     27354     27351     27355     27356
     27358     27357     27361     27362     27359     27357     27361     27362
     27360     27357     27361     27362     27364     27363     27367     27368
     27365     27363     27367     27368     27366     27363     27367     27368
     27370     27369     27373     27374     27371     27369     27373     27374
     27372     27369     27373     27374     27376     27375     27379     27380
     27377     27375     27379     27380     27378     27375     27379     27380
     27382     27381     27385     27386     27383     27381     27385     27386
     27384     27381     27385     27386     27388     27387     27391     27392
     27389     27387     27391     27392     27390     27387     27391     27392
     27394     27393     27397     27398     27395     27393     27397     27398
     27396     27393     27397     27398     27400     27399     27403     27404
     27401     27399     27403     27404     27402     27399     27403     27404
     27406     27405     27409     27410     27407     27405     27409     27410
     27408     27405     27409     27410     27412     27411     27415     27416
     27413     27411     27415     27416     27414     27411     27415     27416
     27418     27417     27421     27422     27419     27417     27421     27422
     27420     27417     27421     27422     27424     27423     27427     27428
     27425     27423     27427     27428     27426     27423     27427     27428
     27430     27429     27433     27434     27431     27429     27433     27434
     27432     27429     27433     27434     27436     27435     27439     27440
     27437     27435     27439     27440     27438     27435     27439     27440
     27442     27441     27445     27446     27443     27441     27445     27446
     27444     27441     27445     27446     27448     27447     27451     27452
     27449     27447     27451     27452     27450     27447     27451     27452
     27454     27453     27457     27458     27455     27453     27457     27458
     27456     27453     27457     27458     27460     27459     27463     27464
     27461     27459     27463     27464     27462     27459     27463     27464
     27466     27465     27469     27470     27467     27465     27469     27470
     27468     27465     27469     27470     27472     27471     27475     27476
     27473     27471     27475     27476     27474     27471     27475     27476
     27478     27477     27481     27482     27479     27477     27481     27482
     27480     27477     27481     27482     27484     27483     27487     27488
     27485     27483     27487     27488     27486     27483     27487     27488
     27490     27489     27493     27494     27491     27489     27493     27494
     27492     27489     27493     27494     27496     27495     27499     27500
     27497     27495     27499     27500     27498     27495     27499     27500
     27502     27501     27505     27506     27503     27501     27505     27506
     27504     27501     27505     27506     27508     27507     27511     27512
     27509     27507     27511     27512     27510     27507     27511     27512
     27514     27513     27517     27518     27515     27513     27517     27518
     27516     27513     27517     27518     27520     27519     27523     27524
     27521     27519     27523     27524     27522     27519     27523     27524
     27526     27525     27529     27530     27527     27525     27529     27530
     27528     27525     27529     27530     27532     27531     27535     27536
     27533     27531     27535     27536     27534     27531     27535     27536
     27538     27537     27541     27542     27539     27537     27541     27542
     27540     27537     27541     27542     27544     27543     27547     27548
     27545     27543     27547     27548     27546     27543     27547     27548
     27550     27549     27553     27554     27551     27549     27553     27554
     27552     27549     27553     27554     27556     27555     27559     27560
     27557     27555     27559     27560     27558     27555     27559     27560
     27562     27561     27565     27566     27563     27561     27565     27566
     27564     27561     27565     27566     27568     27567     27571     27572
     27569     27567     27571     27572     27570     27567     27571     27572
     27574     27573     27577     27578     27575     27573     27577     27578
     27576     27573     27577     27578     27580     27579     27583     27584
     27581     27579     27583     27584     27582     27579     27583     27584
     27586     27585     27589     27590     27587     27585     27589     27590
     27588     27585     27589     27590     27592     27591     27595     27596
     27593     27591     27595     27596     27594     27591     27595     27596
     27598     27597     27601     27602     27599     27597     27601     27602
     27600     27597     27601     27602     27604     27603     27607     27608
     27605     27603     27607     27608     27606     27603     27607     27608
     27610     27609     27613     27614     27611     27609     27613     27614
     27612     27609     27613     27614     27616     27615     27619     27620
     27617     27615     27619     27620     27618     27615     27619     27620
     27622     27621     27625     27626     27623     27621     27625     27626
     27624     27621     27625     27626     27628     27627     27631     27632
     27629     27627     27631     27632     27630     27627     27631     27632
     27634     27633     27637     27638     27635     27633     27637     27638
     27636     27633     27637     27638     27640     27639     27643     27644
     27641     27639     27643     27644     27642     27639     27643     27644
     27646     27645     27649     27650     27647     27645     27649     27650
     27648     27645     27649     27650     27652     27651     27655     27656
     27653     27651     27655     27656     27654     27651     27655     27656
     27658     27657     27661     27662     27659     27657     27661     27662
     27660     27657     27661     27662     27664     27663     27667     27668
     27665     27663     27667     27668     27666     27663     27667     27668
     27670     27669     27673     27674     27671     27669     27673     27674
     27672     27669     27673     27674     27676     27675     27679     27680
     27677     27675     27679     27680     27678     27675     27679     27680
     27682     27681     27685     27686     27683     27681     27685     27686
     27684     27681     27685     27686     27688     27687     27691     27692
     27689     27687     27691     27692     27690     27687     27691     27692
     27694     27693     27697     27698     27695     27693     27697     27698
     27696     27693     27697     27698     27700     27699     27703     27704
     27701     27699     27703     27704     27702     27699     27703     27704
     27706     27705     27709     27710     27707     27705     27709     27710
     27708     27705     27709     27710     27712     27711     27715     27716
     27713     27711     27715     27716     27714     27711     27715     27716
     27718     27717     27721     27722     27719     27717     27721     27722
     27720     27717     27721     27722     27724     27723     27727     27728
     27725     27723     27727     27728     27726     27723     27727     27728
     27730     27729     27733     27734     27731     27729     27733     27734
     27732     27729     27733     27734     27736     27735     27739     27740
     27737     27735     27739     27740     27738     27735     27739     27740
     27742     27741     27745     27746     27743     27741     27745     27746
     27744     27741     27745     27746     27748     27747     27751     27752
     27749     27747     27751     27752     27750     27747     27751     27752
     27754     27753     27757     27758     27755     27753     27757     27758
     27756     27753     27757     27758     27760     27759     27763     27764
     27761     27759     27763     27764     27762     27759     27763     27764
     27766     27765     27769     27770     27767     27765     27769     27770
     27768     27765     27769     27770     27772     27771     27775     27776
     27773     27771     27775     27776     27774     27771     27775     27776
     27778     27777     27781     27782     27779     27777     27781     27782
     27780     27777     27781     27782     27784     27783     27787     27788
     27785     27783     27787     27788     27786     27783     27787     27788
     27790     27789     27793     27794     27791     27789     27793     27794
     27792     27789     27793     27794     27796     27795     27799     27800
     27797     27795     27799     27800     27798     27795     27799     27800
     27802     27801     27805     27806     27803     27801     27805     27806
     27804     27801     27805     27806     27808     27807     27811     27812
     27809     27807     27811     27812     27810     27807     27811     27812
     27814     27813     27817     27818     27815     27813     27817     27818
     27816     27813     27817     27818     27820     27819     27823     27824
     27821     27819     27823     27824     27822     27819     27823     27824
     27826     27825     27829     27830     27827     27825     27829     27830
     27828     27825     27829     27830     27832     27831     27835     27836
     27833     27831     27835     27836     27834     27831     27835     27836
     27838     27837     27841     27842     27839     27837     27841     27842
     27840     27837     27841     27842     27844     27843     27847     27848
     27845     27843     27847     27848     27846     27843     27847     27848
     27850     27849     27853     27854     27851     27849     27853     27854
     27852     27849     27853     27854     27856     27855     27859     27860
     27857     27855     27859     27860     27858     27855     27859     27860
     27862     27861     27865     27866     27863     27861     27865     27866
     27864     27861     27865     27866     27868     27867     27871     27872
     27869     27867     27871     27872     27870     27867     27871     27872
     27874     27873     27877     27878     27875     27873     27877     27878
     27876     27873     27877     27878     27880     27879     27883     27884
     27881     27879     27883     27884     27882     27879     27883     27884
     27886     27885     27889     27890     27887     27885     27889     27890
     27888     27885     27889     27890     27892     27891     27895     27896
     27893     27891     27895     27896     27894     27891     27895     27896
     27898     27897     27901     27902     27899     27897     27901     27902
     27900     27897     27901     27902     27904     27903     27907     27908
     27905     27903     27907     27908     27906     27903     27907     27908
     27910     27909     27913     27914     27911     27909     27913     27914
     27912     27909     27913     27914     27916     27915     27919     27920
     27917     27915     27919     27920     27918     27915     27919     27920
     27922     27921     27925     27926     27923     27921     27925     27926
     27924     27921     27925     27926     27928     27927     27931     27932
     27929     27927     27931     27932     27930     27927     27931     27932
     27934     27933     27937     27938     27935     27933     27937     27938
     27936     27933     27937     27938     27940     27939     27943     27944
     27941     27939     27943     27944     27942     27939     27943     27944
     27946     27945     27949     27950     27947     27945     27949     27950
     27948     27945     27949     27950     27952     27951     27955     27956
     27953     27951     27955     27956     27954     27951     27955     27956
     27958     27957     27961     27962     27959     27957     27961     27962
     27960     27957     27961     27962     27964     27963     27967     27968
     27965     27963     27967     27968     27966     27963     27967     27968
     27970     27969     27973     27974     27971     27969     27973     27974
     27972     27969     27973     27974     27976     27975     27979     27980
     27977     27975     27979     27980     27978     27975     27979     27980
     27982     27981     27985     27986     27983     27981     27985     27986
     27984     27981     27985     27986     27988     27987     27991     27992
     27989     27987     27991     27992     27990     27987     27991     27992
     27994     27993     27997     27998     27995     27993     27997     27998
     27996     27993     27997     27998     28000     27999     28003     28004
     28001     27999     28003     28004     28002     27999     28003     28004
     28006     28005     28009     28010     28007     28005     28009     28010
     28008     28005     28009     28010     28012     28011     28015     28016
     28013     28011     28015     28016     28014     28011     28015     28016
     28018     28017     28021     28022     28019     28017     28021     28022
     28020     28017     28021     28022     28024     28023     28027     28028
     28025     28023     28027     28028     28026     28023     28027     28028
     28030     28029     28033     28034     28031     28029     28033     28034
     28032     28029     28033     28034     28036     28035     28039     28040
     28037     28035     28039     28040     28038     28035     28039     28040
     28042     28041     28045     28046     28043     28041     28045     28046
     28044     28041     28045     28046     28048     28047     28051     28052
     28049     28047     28051     28052     28050     28047     28051     28052
     28054     28053     28057     28058     28055     28053     28057     28058
     28056     28053     28057     28058     28060     28059     28063     28064
     28061     28059     28063     28064     28062     28059     28063     28064
     28066     28065     28069     28070     28067     28065     28069     28070
     28068     28065     28069     28070     28072     28071     28075     28076
     28073     28071     28075     28076     28074     28071     28075     28076
     28078     28077     28081     28082     28079     28077     28081     28082
     28080     28077     28081     28082     28084     28083     28087     28088
     28085     28083     28087     28088     28086     28083     28087     28088
     28090     28089     28093     28094     28091     28089     28093     28094
     28092     28089     28093     28094     28096     28095     28099     28100
     28097     28095     28099     28100     28098     28095     28099     28100
     28102     28101     28105     28106     28103     28101     28105     28106
     28104     28101     28105     28106     28108     28107     28111     28112
     28109     28107     28111     28112     28110     28107     28111     28112
     28114     28113     28117     28118     28115     28113     28117     28118
     28116     28113     28117     28118     28120     28119     28123     28124
     28121     28119     28123     28124     28122     28119     28123     28124
     28126     28125     28129     28130     28127     28125     28129     28130
     28128     28125     28129     28130     28132     28131     28135     28136
     28133     28131     28135     28136     28134     28131     28135     28136
     28138     28137     28141     28142     28139     28137     28141     28142
     28140     28137     28141     28142     28144     28143     28147     28148
     28145     28143     28147     28148     28146     28143     28147     28148
     28150     28149     28153     28154     28151     28149     28153     28154
     28152     28149     28153     28154     28156     28155     28159     28160
     28157     28155     28159     28160     28158     28155     28159     28160
     28162     28161     28165     28166     28163     28161     28165     28166
     28164     28161     28165     28166     28168     28167     28171     28172
     28169     28167     28171     28172     28170     28167     28171     28172
     28174     28173     28177     28178     28175     28173     28177     28178
     28176     28173     28177     28178     28180     28179     28183     28184
     28181     28179     28183     28184     28182     28179     28183     28184
     28186     28185     28189     28190     28187     28185     28189     28190
     28188     28185     28189     28190     28192     28191     28195     28196
     28193     28191     28195     28196     28194     28191     28195     28196
     28198     28197     28201     28202     28199     28197     28201     28202
     28200     28197     28201     28202     28204     28203     28207     28208
     28205     28203     28207     28208     28206     28203     28207     28208
     28210     28209     28213     28214     28211     28209     28213     28214
     28212     28209     28213     28214     28216     28215     28219     28220
     28217     28215     28219     28220     28218     28215     28219     28220
     28222     28221     28225     28226     28223     28221     28225     28226
     28224     28221     28225     28226     28228     28227     28231     28232
     28229     28227     28231     28232     28230     28227     28231     28232
     28234     28233     28237     28238     28235     28233     28237     28238
     28236     28233     28237     28238     28240     28239     28243     28244
     28241     28239     28243     28244     28242     28239     28243     28244
     28246     28245     28249     28250     28247     28245     28249     28250
     28248     28245     28249     28250     28252     28251     28255     28256
     28253     28251     28255     28256     28254     28251     28255     28256
     28258     28257     28261     28262     28259     28257     28261     28262
     28260     28257     28261     28262     28264     28263     28267     28268
     28265     28263     28267     28268     28266     28263     28267     28268
     28270     28269     28273     28274     28271     28269     28273     28274
     28272     28269     28273     28274     28276     28275     28279     28280
     28277     28275     28279     28280     28278     28275     28279     28280
     28282     28281     28285     28286     28283     28281     28285     28286
     28284     28281     28285     28286     28288     28287     28291     28292
     28289     28287     28291     28292     28290     28287     28291     28292
     28294     28293     28297     28298     28295     28293     28297     28298
     28296     28293     28297     28298     28300     28299     28303     28304
     28301     28299     28303     28304     28302     28299     28303     28304
     28306     28305     28309     28310     28307     28305     28309     28310
     28308     28305     28309     28310     28312     28311     28315     28316
     28313     28311     28315     28316     28314     28311     28315     28316
     28318     28317     28321     28322     28319     28317     28321     28322
     28320     28317     28321     28322     28324     28323     28327     28328
     28325     28323     28327     28328     28326     28323     28327     28328
     28330     28329     28333     28334     28331     28329     28333     28334
     28332     28329     28333     28334     28336     28335     28339     28340
     28337     28335     28339     28340     28338     28335     28339     28340
     28342     28341     28345     28346     28343     28341     28345     28346
     28344     28341     28345     28346     28348     28347     28351     28352
     28349     28347     28351     28352     28350     28347     28351     28352
     28354     28353     28357     28358     28355     28353     28357     28358
     28356     28353     28357     28358     28360     28359     28363     28364
     28361     28359     28363     28364     28362     28359     28363     28364
     28366     28365     28369     28370     28367     28365     28369     28370
     28368     28365     28369     28370     28372     28371     28375     28376
     28373     28371     28375     28376     28374     28371     28375     28376
     28378     28377     28381     28382     28379     28377     28381     28382
     28380     28377     28381     28382     28384     28383     28387     28388
     28385     28383     28387     28388     28386     28383     28387     28388
     28390     28389     28393     28394     28391     28389     28393     28394
     28392     28389     28393     28394     28396     28395     28399     28400
     28397     28395     28399     28400     28398     28395     28399     28400
     28402     28401     28405     28406     28403     28401     28405     28406
     28404     28401     28405     28406     28408     28407     28411     28412
     28409     28407     28411     28412     28410     28407     28411     28412
     28414     28413     28417     28418     28415     28413     28417     28418
     28416     28413     28417     28418     28420     28419     28423     28424
     28421     28419     28423     28424     28422     28419     28423     28424
     28426     28425     28429     28430     28427     28425     28429     28430
     28428     28425     28429     28430     28432     28431     28435     28436
     28433     28431     28435     28436     28434     28431     28435     28436
     28438     28437     28441     28442     28439     28437     28441     28442
     28440     28437     28441     28442     28444     28443     28447     28448
     28445     28443     28447     28448     28446     28443     28447     28448
     28450     28449     28453     28454     28451     28449     28453     28454
     28452     28449     28453     28454     28456     28455     28459     28460
     28457     28455     28459     28460     28458     28455     28459     28460
     28462     28461     28465     28466     28463     28461     28465     28466
     28464     28461     28465     28466     28468     28467     28471     28472
     28469     28467     28471     28472     28470     28467     28471     28472
     28474     28473     28477     28478     28475     28473     28477     28478
     28476     28473     28477     28478     28480     28479     28483     28484
     28481     28479     28483     28484     28482     28479     28483     28484
     28486     28485     28489     28490     28487     28485     28489     28490
     28488     28485     28489     28490     28492     28491     28495     28496
     28493     28491     28495     28496     28494     28491     28495     28496
     28498     28497     28501     28502     28499     28497     28501     28502
     28500     28497     28501     28502     28504     28503     28507     28508
     28505     28503     28507     28508     28506     28503     28507     28508
     28510     28509     28513     28514     28511     28509     28513     28514
     28512     28509     28513     28514     28516     28515     28519     28520
     28517     28515     28519     28520     28518     28515     28519     28520
     28522     28521     28525     28526     28523     28521     28525     28526
     28524     28521     28525     28526     28528     28527     28531     28532
     28529     28527     28531     28532     28530     28527     28531     28532
     28534     28533     28537     28538     28535     28533     28537     28538
     28536     28533     28537     28538     28540     28539     28543     28544
     28541     28539     28543     28544     28542     28539     28543     28544
     28546     28545     28549     28550     28547     28545     28549     28550
     28548     28545     28549     28550     28552     28551     28555     28556
     28553     28551     28555     28556     28554     28551     28555     28556
     28558     28557     28561     28562     28559     28557     28561     28562
     28560     28557     28561     28562     28564     28563     28567     28568
     28565     28563     28567     28568     28566     28563     28567     28568
     28570     28569     28573     28574     28571     28569     28573     28574
     28572     28569     28573     28574     28576     28575     28579     28580
     28577     28575     28579     28580     28578     28575     28579     28580
     28582     28581     28585     28586     28583     28581     28585     28586
     28584     28581     28585     28586     28588     28587     28591     28592
     28589     28587     28591     28592     28590     28587     28591     28592
     28594     28593     28597     28598     28595     28593     28597     28598
     28596     28593     28597     28598     28600     28599     28603     28604
     28601     28599     28603     28604     28602     28599     28603     28604
     28606     28605     28609     28610     28607     28605     28609     28610
     28608     28605     28609     28610     28612     28611     28615     28616
     28613     28611     28615     28616     28614     28611     28615     28616
     28618     28617     28621     28622     28619     28617     28621     28622
     28620     28617     28621     28622     28624     28623     28627     28628
     28625     28623     28627     28628     28626     28623     28627     28628
     28630     28629     28633     28634     28631     28629     28633     28634
     28632     28629     28633     28634     28636     28635     28639     28640
     28637     28635     28639     28640     28638     28635     28639     28640
     28642     28641     28645     28646     28643     28641     28645     28646
     28644     28641     28645     28646     28648     28647     28651     28652
     28649     28647     28651     28652     28650     28647     28651     28652
     28654     28653     28657     28658     28655     28653     28657     28658
     28656     28653     28657     28658     28660     28659     28663     28664
     28661     28659     28663     28664     28662     28659     28663     28664
     28666     28665     28669     28670     28667     28665     28669     28670
     28668     28665     28669     28670     28672     28671     28675     28676
     28673     28671     28675     28676     28674     28671     28675     28676
     28678     28677     28681     28682     28679     28677     28681     28682
     28680     28677     28681     28682     28684     28683     28687     28688
     28685     28683     28687     28688     28686     28683     28687     28688
     28690     28689     28693     28694     28691     28689     28693     28694
     28692     28689     28693     28694     28696     28695     28699     28700
     28697     28695     28699     28700     28698     28695     28699     28700
     28702     28701     28705     28706     28703     28701     28705     28706
     28704     28701     28705     28706     28708     28707     28711     28712
     28709     28707     28711     28712     28710     28707     28711     28712
     28714     28713     28717     28718     28715     28713     28717     28718
     28716     28713     28717     28718     28720     28719     28723     28724
     28721     28719     28723     28724     28722     28719     28723     28724
     28726     28725     28729     28730     28727     28725     28729     28730
     28728     28725     28729     28730     28732     28731     28735     28736
     28733     28731     28735     28736     28734     28731     28735     28736
     28738     28737     28741     28742     28739     28737     28741     28742
     28740     28737     28741     28742     28744     28743     28747     28748
     28745     28743     28747     28748     28746     28743     28747     28748
     28750     28749     28753     28754     28751     28749     28753     28754
     28752     28749     28753     28754     28756     28755     28759     28760
     28757     28755     28759     28760     28758     28755     28759     28760
     28762     28761     28765     28766     28763     28761     28765     28766
     28764     28761     28765     28766     28768     28767     28771     28772
     28769     28767     28771     28772     28770     28767     28771     28772
     28774     28773     28777     28778     28775     28773     28777     28778
     28776     28773     28777     28778     28780     28779     28783     28784
     28781     28779     28783     28784     28782     28779     28783     28784
     28786     28785     28789     28790     28787     28785     28789     28790
     28788     28785     28789     28790     28792     28791     28795     28796
     28793     28791     28795     28796     28794     28791     28795     28796
     28798     28797     28801     28802     28799     28797     28801     28802
     28800     28797     28801     28802     28804     28803     28807     28808
     28805     28803     28807     28808     28806     28803     28807     28808
     28810     28809     28813     28814     28811     28809     28813     28814
     28812     28809     28813     28814     28816     28815     28819     28820
     28817     28815     28819     28820     28818     28815     28819     28820
     28822     28821     28825     28826     28823     28821     28825     28826
     28824     28821     28825     28826     28828     28827     28831     28832
     28829     28827     28831     28832     28830     28827     28831     28832
     28834     28833     28837     28838     28835     28833     28837     28838
     28836     28833     28837     28838     28840     28839     28843     28844
     28841     28839     28843     28844     28842     28839     28843     28844
     28846     28845     28849     28850     28847     28845     28849     28850
     28848     28845     28849     28850     28852     28851     28855     28856
     28853     28851     28855     28856     28854     28851     28855     28856
     28858     28857     28861     28862     28859     28857     28861     28862
     28860     28857     28861     28862     28864     28863     28867     28868
     28865     28863     28867     28868     28866     28863     28867     28868
     28870     28869     28873     28874     28871     28869     28873     28874
     28872     28869     28873     28874     28876     28875     28879     28880
     28877     28875     28879     28880     28878     28875     28879     28880
     28882     28881     28885     28886     28883     28881     28885     28886
     28884     28881     28885     28886     28888     28887     28891     28892
     28889     28887     28891     28892     28890     28887     28891     28892
     28894     28893     28897     28898     28895     28893     28897     28898
     28896     28893     28897     28898     28900     28899     28903     28904
     28901     28899     28903     28904     28902     28899     28903     28904
     28906     28905     28909     28910     28907     28905     28909     28910
     28908     28905     28909     28910     28912     28911     28915     28916
     28913     28911     28915     28916     28914     28911     28915     28916
     28918     28917     28921     28922     28919     28917     28921     28922
     28920     28917     28921     28922     28924     28923     28927     28928
     28925     28923     28927     28928     28926     28923     28927     28928
     28930     28929     28933     28934     28931     28929     28933     28934
     28932     28929     28933     28934     28936     28935     28939     28940
     28937     28935     28939     28940     28938     28935     28939     28940
     28942     28941     28945     28946     28943     28941     28945     28946
     28944     28941     28945     28946     28948     28947     28951     28952
     28949     28947     28951     28952     28950     28947     28951     28952
     28954     28953     28957     28958     28955     28953     28957     28958
     28956     28953     28957     28958     28960     28959     28963     28964
     28961     28959     28963     28964     28962     28959     28963     28964
     28966     28965     28969     28970     28967     28965     28969     28970
     28968     28965     28969     28970     28972     28971     28975     28976
     28973     28971     28975     28976     28974     28971     28975     28976
     28978     28977     28981     28982     28979     28977     28981     28982
     28980     28977     28981     28982     28984     28983     28987     28988
     28985     28983     28987     28988     28986     28983     28987     28988
     28990     28989     28993     28994     28991     28989     28993     28994
     28992     28989     28993     28994     28996     28995     28999     29000
     28997     28995     28999     29000     28998     28995     28999     29000
     29002     29001     29005     29006     29003     29001     29005     29006
     29004     29001     29005     29006     29008     29007     29011     29012
     29009     29007     29011     29012     29010     29007     29011     29012
     29014     29013     29017     29018     29015     29013     29017     29018
     29016     29013     29017     29018     29020     29019     29023     29024
     29021     29019     29023     29024     29022     29019     29023     29024
     29026     29025     29029     29030     29027     29025     29029     29030
     29028     29025     29029     29030     29032     29031     29035     29036
     29033     29031     29035     29036     29034     29031     29035     29036
     29038     29037     29041     29042     29039     29037     29041     29042
     29040     29037     29041     29042     29044     29043     29047     29048
     29045     29043     29047     29048     29046     29043     29047     29048
     29050     29049     29053     29054     29051     29049     29053     29054
     29052     29049     29053     29054     29056     29055     29059     29060
     29057     29055     29059     29060     29058     29055     29059     29060
     29062     29061     29065     29066     29063     29061     29065     29066
     29064     29061     29065     29066     29068     29067     29071     29072
     29069     29067     29071     29072     29070     29067     29071     29072
     29074     29073     29077     29078     29075     29073     29077     29078
     29076     29073     29077     29078     29080     29079     29083     29084
     29081     29079     29083     29084     29082     29079     29083     29084
     29086     29085     29089     29090     29087     29085     29089     29090
     29088     29085     29089     29090     29092     29091     29095     29096
     29093     29091     29095     29096     29094     29091     29095     29096
     29098     29097     29101     29102     29099     29097     29101     29102
     29100     29097     29101     29102     29104     29103     29107     29108
     29105     29103     29107     29108     29106     29103     29107     29108
     29110     29109     29113     29114     29111     29109     29113     29114
     29112     29109     29113     29114     29116     29115     29119     29120
     29117     29115     29119     29120     29118     29115     29119     29120
     29122     29121     29125     29126     29123     29121     29125     29126
     29124     29121     29125     29126     29128     29127     29131     29132
     29129     29127     29131     29132     29130     29127     29131     29132
     29134     29133     29137     29138     29135     29133     29137     29138
     29136     29133     29137     29138     29140     29139     29143     29144
     29141     29139     29143     29144     29142     29139     29143     29144
     29146     29145     29149     29150     29147     29145     29149     29150
     29148     29145     29149     29150     29152     29151     29155     29156
     29153     29151     29155     29156     29154     29151     29155     29156
     29158     29157     29161     29162     29159     29157     29161     29162
     29160     29157     29161     29162     29164     29163     29167     29168
     29165     29163     29167     29168     29166     29163     29167     29168
     29170     29169     29173     29174     29171     29169     29173     29174
     29172     29169     29173     29174     29176     29175     29179     29180
     29177     29175     29179     29180     29178     29175     29179     29180
     29182     29181     29185     29186     29183     29181     29185     29186
     29184     29181     29185     29186     29188     29187     29191     29192
     29189     29187     29191     29192     29190     29187     29191     29192
     29194     29193     29197     29198     29195     29193     29197     29198
     29196     29193     29197     29198     29200     29199     29203     29204
     29201     29199     29203     29204     29202     29199     29203     29204
     29206     29205     29209     29210     29207     29205     29209     29210
     29208     29205     29209     29210     29212     29211     29215     29216
     29213     29211     29215     29216     29214     29211     29215     29216
     29218     29217     29221     29222     29219     29217     29221     29222
     29220     29217     29221     29222     29224     29223     29227     29228
     29225     29223     29227     29228     29226     29223     29227     29228
     29230     29229     29233     29234     29231     29229     29233     29234
     29232     29229     29233     29234     29236     29235     29239     29240
     29237     29235     29239     29240     29238     29235     29239     29240
     29242     29241     29245     29246     29243     29241     29245     29246
     29244     29241     29245     29246     29248     29247     29251     29252
     29249     29247     29251     29252     29250     29247     29251     29252
     29254     29253     29257     29258     29255     29253     29257     29258
     29256     29253     29257     29258     29260     29259     29263     29264
     29261     29259     29263     29264     29262     29259     29263     29264
     29266     29265     29269     29270     29267     29265     29269     29270
     29268     29265     29269     29270     29272     29271     29275     29276
     29273     29271     29275     29276     29274     29271     29275     29276
     29278     29277     29281     29282     29279     29277     29281     29282
     29280     29277     29281     29282     29284     29283     29287     29288
     29285     29283     29287     29288     29286     29283     29287     29288
     29290     29289     29293     29294     29291     29289     29293     29294
     29292     29289     29293     29294     29296     29295     29299     29300
     29297     29295     29299     29300     29298     29295     29299     29300
     29302     29301     29305     29306     29303     29301     29305     29306
     29304     29301     29305     29306     29308     29307     29311     29312
     29309     29307     29311     29312     29310     29307     29311     29312
     29314     29313     29317     29318     29315     29313     29317     29318
     29316     29313     29317     29318     29320     29319     29323     29324
     29321     29319     29323     29324     29322     29319     29323     29324
     29326     29325     29329     29330     29327     29325     29329     29330
     29328     29325     29329     29330     29332     29331     29335     29336
     29333     29331     29335     29336     29334     29331     29335     29336
     29338     29337     29341     29342     29339     29337     29341     29342
     29340     29337     29341     29342     29344     29343     29347     29348
     29345     29343     29347     29348     29346     29343     29347     29348
     29350     29349     29353     29354     29351     29349     29353     29354
     29352     29349     29353     29354     29356     29355     29359     29360
     29357     29355     29359     29360     29358     29355     29359     29360
     29362     29361     29365     29366     29363     29361     29365     29366
     29364     29361     29365     29366     29368     29367     29371     29372
     29369     29367     29371     29372     29370     29367     29371     29372
     29374     29373     29377     29378     29375     29373     29377     29378
     29376     29373     29377     29378     29380     29379     29383     29384
     29381     29379     29383     29384     29382     29379     29383     29384
     29386     29385     29389     29390     29387     29385     29389     29390
     29388     29385     29389     29390     29392     29391     29395     29396
     29393     29391     29395     29396     29394     29391     29395     29396
     29398     29397     29401     29402     29399     29397     29401     29402
     29400     29397     29401     29402     29404     29403     29407     29408
     29405     29403     29407     29408     29406     29403     29407     29408
     29410     29409     29413     29414     29411     29409     29413     29414
     29412     29409     29413     29414     29416     29415     29419     29420
     29417     29415     29419     29420     29418     29415     29419     29420
     29422     29421     29425     29426     29423     29421     29425     29426
     29424     29421     29425     29426     29428     29427     29431     29432
     29429     29427     29431     29432     29430     29427     29431     29432
     29434     29433     29437     29438     29435     29433     29437     29438
     29436     29433     29437     29438     29440     29439     29443     29444
     29441     29439     29443     29444     29442     29439     29443     29444
     29446     29445     29449     29450     29447     29445     29449     29450
     29448     29445     29449     29450     29452     29451     29455     29456
     29453     29451     29455     29456     29454     29451     29455     29456
     29458     29457     29461     29462     29459     29457     29461     29462
     29460     29457     29461     29462     29464     29463     29467     29468
     29465     29463     29467     29468     29466     29463     29467     29468
     29470     29469     29473     29474     29471     29469     29473     29474
     29472     29469     29473     29474     29476     29475     29479     29480
     29477     29475     29479     29480     29478     29475     29479     29480
     29482     29481     29485     29486     29483     29481     29485     29486
     29484     29481     29485     29486     29488     29487     29491     29492
     29489     29487     29491     29492     29490     29487     29491     29492
     29494     29493     29497     29498     29495     29493     29497     29498
     29496     29493     29497     29498     29500     29499     29503     29504
     29501     29499     29503     29504     29502     29499     29503     29504
     29506     29505     29509     29510     29507     29505     29509     29510
     29508     29505     29509     29510     29512     29511     29515     29516
     29513     29511     29515     29516     29514     29511     29515     29516
     29518     29517     29521     29522     29519     29517     29521     29522
     29520     29517     29521     29522     29524     29523     29527     29528
     29525     29523     29527     29528     29526     29523     29527     29528
     29530     29529     29533     29534     29531     29529     29533     29534
     29532     29529     29533     29534     29536     29535     29539     29540
     29537     29535     29539     29540     29538     29535     29539     29540
     29542     29541     29545     29546     29543     29541     29545     29546
     29544     29541     29545     29546     29548     29547     29551     29552
     29549     29547     29551     29552     29550     29547     29551     29552
     29554     29553     29557     29558     29555     29553     29557     29558
     29556     29553     29557     29558     29560     29559     29563     29564
     29561     29559     29563     29564     29562     29559     29563     29564
     29566     29565     29569     29570     29567     29565     29569     29570
     29568     29565     29569     29570     29572     29571     29575     29576
     29573     29571     29575     29576     29574     29571     29575     29576
     29578     29577     29581     29582     29579     29577     29581     29582
     29580     29577     29581     29582     29584     29583     29587     29588
     29585     29583     29587     29588     29586     29583     29587     29588
     29590     29589     29593     29594     29591     29589     29593     29594
     29592     29589     29593     29594     29596     29595     29599     29600
     29597     29595     29599     29600     29598     29595     29599     29600
     29602     29601     29605     29606     29603     29601     29605     29606
     29604     29601     29605     29606     29608     29607     29611     29612
     29609     29607     29611     29612     29610     29607     29611     29612
     29614     29613     29617     29618     29615     29613     29617     29618
     29616     29613     29617     29618     29620     29619     29623     29624
     29621     29619     29623     29624     29622     29619     29623     29624
     29626     29625     29629     29630     29627     29625     29629     29630
     29628     29625     29629     29630     29632     29631     29635     29636
     29633     29631     29635     29636     29634     29631     29635     29636
     29638     29637     29641     29642     29639     29637     29641     29642
     29640     29637     29641     29642     29644     29643     29647     29648
     29645     29643     29647     29648     29646     29643     29647     29648
     29650     29649     29653     29654     29651     29649     29653     29654
     29652     29649     29653     29654     29656     29655     29659     29660
     29657     29655     29659     29660     29658     29655     29659     29660
     29662     29661     29665     29666     29663     29661     29665     29666
     29664     29661     29665     29666     29668     29667     29671     29672
     29669     29667     29671     29672     29670     29667     29671     29672
     29674     29673     29677     29678     29675     29673     29677     29678
     29676     29673     29677     29678     29680     29679     29683     29684
     29681     29679     29683     29684     29682     29679     29683     29684
     29686     29685     29689     29690     29687     29685     29689     29690
     29688     29685     29689     29690     29692     29691     29695     29696
     29693     29691     29695     29696     29694     29691     29695     29696
     29698     29697     29701     29702     29699     29697     29701     29702
     29700     29697     29701     29702     29704     29703     29707     29708
     29705     29703     29707     29708     29706     29703     29707     29708
     29710     29709     29713     29714     29711     29709     29713     29714
     29712     29709     29713     29714     29716     29715     29719     29720
     29717     29715     29719     29720     29718     29715     29719     29720
     29722     29721     29725     29726     29723     29721     29725     29726
     29724     29721     29725     29726     29728     29727     29731     29732
     29729     29727     29731     29732     29730     29727     29731     29732
     29734     29733     29737     29738     29735     29733     29737     29738
     29736     29733     29737     29738     29740     29739     29743     29744
     29741     29739     29743     29744     29742     29739     29743     29744
     29746     29745     29749     29750     29747     29745     29749     29750
     29748     29745     29749     29750     29752     29751     29755     29756
     29753     29751     29755     29756     29754     29751     29755     29756
     29758     29757     29761     29762     29759     29757     29761     29762
     29760     29757     29761     29762     29764     29763     29767     29768
     29765     29763     29767     29768     29766     29763     29767     29768
     29770     29769     29773     29774     29771     29769     29773     29774
     29772     29769     29773     29774     29776     29775     29779     29780
     29777     29775     29779     29780     29778     29775     29779     29780
     29782     29781     29785     29786     29783     29781     29785     29786
     29784     29781     29785     29786     29788     29787     29791     29792
     29789     29787     29791     29792     29790     29787     29791     29792
     29794     29793     29797     29798     29795     29793     29797     29798
     29796     29793     29797     29798     29800     29799     29803     29804
     29801     29799     29803     29804     29802     29799     29803     29804
     29806     29805     29809     29810     29807     29805     29809     29810
     29808     29805     29809     29810     29812     29811     29815     29816
     29813     29811     29815     29816     29814     29811     29815     29816
     29818     29817     29821     29822     29819     29817     29821     29822
     29820     29817     29821     29822     29824     29823     29827     29828
     29825     29823     29827     29828     29826     29823     29827     29828
     29830     29829     29833     29834     29831     29829     29833     29834
     29832     29829     29833     29834     29836     29835     29839     29840
     29837     29835     29839     29840     29838     29835     29839     29840
     29842     29841     29845     29846     29843     29841     29845     29846
     29844     29841     29845     29846     29848     29847     29851     29852
     29849     29847     29851     29852     29850     29847     29851     29852
     29854     29853     29857     29858     29855     29853     29857     29858
     29856     29853     29857     29858     29860     29859     29863     29864
     29861     29859     29863     29864     29862     29859     29863     29864
     29866     29865     29869     29870     29867     29865     29869     29870
     29868     29865     29869     29870     29872     29871     29875     29876
     29873     29871     29875     29876     29874     29871     29875     29876
     29878     29877     29881     29882     29879     29877     29881     29882
     29880     29877     29881     29882     29884     29883     29887     29888
     29885     29883     29887     29888     29886     29883     29887     29888
     29890     29889     29893     29894     29891     29889     29893     29894
     29892     29889     29893     29894     29896     29895     29899     29900
     29897     29895     29899     29900     29898     29895     29899     29900
     29902     29901     29905     29906     29903     29901     29905     29906
     29904     29901     29905     29906     29908     29907     29911     29912
     29909     29907     29911     29912     29910     29907     29911     29912
     29914     29913     29917     29918     29915     29913     29917     29918
     29916     29913     29917     29918     29920     29919     29923     29924
     29921     29919     29923     29924     29922     29919     29923     29924
     29926     29925     29929     29930     29927     29925     29929     29930
     29928     29925     29929     29930     29932     29931     29935     29936
     29933     29931     29935     29936     29934     29931     29935     29936
     29938     29937     29941     29942     29939     29937     29941     29942
     29940     29937     29941     29942     29944     29943     29947     29948
     29945     29943     29947     29948     29946     29943     29947     29948
     29950     29949     29953     29954     29951     29949     29953     29954
     29952     29949     29953     29954     29956     29955     29959     29960
     29957     29955     29959     29960     29958     29955     29959     29960
     29962     29961     29965     29966     29963     29961     29965     29966
     29964     29961     29965     29966     29968     29967     29971     29972
     29969     29967     29971     29972     29970     29967     29971     29972
     29974     29973     29977     29978     29975     29973     29977     29978
     29976     29973     29977     29978     29980     29979     29983     29984
     29981     29979     29983     29984     29982     29979     29983     29984
     29986     29985     29989     29990     29987     29985     29989     29990
     29988     29985     29989     29990     29992     29991     29995     29996
     29993     29991     29995     29996     29994     29991     29995     29996
     29998     29997     30001     30002     29999     29997     30001     30002
     30000     29997     30001     30002     30004     30003     30007     30008
     30005     30003     30007     30008     30006     30003     30007     30008
     30010     30009     30013     30014     30011     30009     30013     30014
     30012     30009     30013     30014     30016     30015     30019     30020
     30017     30015     30019     30020     30018     30015     30019     30020
     30022     30021     30025     30026     30023     30021     30025     30026
     30024     30021     30025     30026     30028     30027     30031     30032
     30029     30027     30031     30032     30030     30027     30031     30032
     30034     30033     30037     30038     30035     30033     30037     30038
     30036     30033     30037     30038     30040     30039     30043     30044
     30041     30039     30043     30044     30042     30039     30043     30044
     30046     30045     30049     30050     30047     30045     30049     30050
     30048     30045     30049     30050     30052     30051     30055     30056
     30053     30051     30055     30056     30054     30051     30055     30056
     30058     30057     30061     30062     30059     30057     30061     30062
     30060     30057     30061     30062     30064     30063     30067     30068
     30065     30063     30067     30068     30066     30063     30067     30068
     30070     30069     30073     30074     30071     30069     30073     30074
     30072     30069     30073     30074     30076     30075     30079     30080
     30077     30075     30079     30080     30078     30075     30079     30080
     30082     30081     30085     30086     30083     30081     30085     30086
     30084     30081     30085     30086     30088     30087     30091     30092
     30089     30087     30091     30092     30090     30087     30091     30092
     30094     30093     30097     30098     30095     30093     30097     30098
     30096     30093     30097     30098     30100     30099     30103     30104
     30101     30099     30103     30104     30102     30099     30103     30104
     30106     30105     30109     30110     30107     30105     30109     30110
     30108     30105     30109     30110     30112     30111     30115     30116
     30113     30111     30115     30116     30114     30111     30115     30116
     30118     30117     30121     30122     30119     30117     30121     30122
     30120     30117     30121     30122     30124     30123     30127     30128
     30125     30123     30127     30128     30126     30123     30127     30128
     30130     30129     30133     30134     30131     30129     30133     30134
     30132     30129     30133     30134     30136     30135     30139     30140
     30137     30135     30139     30140     30138     30135     30139     30140
     30142     30141     30145     30146     30143     30141     30145     30146
     30144     30141     30145     30146     30148     30147     30151     30152
     30149     30147     30151     30152     30150     30147     30151     30152
     30154     30153     30157     30158     30155     30153     30157     30158
     30156     30153     30157     30158     30160     30159     30163     30164
     30161     30159     30163     30164     30162     30159     30163     30164
     30166     30165     30169     30170     30167     30165     30169     30170
     30168     30165     30169     30170     30172     30171     30175     30176
     30173     30171     30175     30176     30174     30171     30175     30176
     30178     30177     30181     30182     30179     30177     30181     30182
     30180     30177     30181     30182     30184     30183     30187     30188
     30185     30183     30187     30188     30186     30183     30187     30188
     30190     30189     30193     30194     30191     30189     30193     30194
     30192     30189     30193     30194     30196     30195     30199     30200
     30197     30195     30199     30200     30198     30195     30199     30200
     30202     30201     30205     30206     30203     30201     30205     30206
     30204     30201     30205     30206     30208     30207     30211     30212
     30209     30207     30211     30212     30210     30207     30211     30212
     30214     30213     30217     30218     30215     30213     30217     30218
     30216     30213     30217     30218     30220     30219     30223     30224
     30221     30219     30223     30224     30222     30219     30223     30224
     30226     30225     30229     30230     30227     30225     30229     30230
     30228     30225     30229     30230     30232     30231     30235     30236
     30233     30231     30235     30236     30234     30231     30235     30236
     30238     30237     30241     30242     30239     30237     30241     30242
     30240     30237     30241     30242     30244     30243     30247     30248
     30245     30243     30247     30248     30246     30243     30247     30248
     30250     30249     30253     30254     30251     30249     30253     30254
     30252     30249     30253     30254     30256     30255     30259     30260
     30257     30255     30259     30260     30258     30255     30259     30260
     30262     30261     30265     30266     30263     30261     30265     30266
     30264     30261     30265     30266     30268     30267     30271     30272
     30269     30267     30271     30272     30270     30267     30271     30272
     30274     30273     30277     30278     30275     30273     30277     30278
     30276     30273     30277     30278     30280     30279     30283     30284
     30281     30279     30283     30284     30282     30279     30283     30284
     30286     30285     30289     30290     30287     30285     30289     30290
     30288     30285     30289     30290     30292     30291     30295     30296
     30293     30291     30295     30296     30294     30291     30295     30296
     30298     30297     30301     30302     30299     30297     30301     30302
     30300     30297     30301     30302     30304     30303     30307     30308
     30305     30303     30307     30308     30306     30303     30307     30308
     30310     30309     30313     30314     30311     30309     30313     30314
     30312     30309     30313     30314     30316     30315     30319     30320
     30317     30315     30319     30320     30318     30315     30319     30320
     30322     30321     30325     30326     30323     30321     30325     30326
     30324     30321     30325     30326     30328     30327     30331     30332
     30329     30327     30331     30332     30330     30327     30331     30332
     30334     30333     30337     30338     30335     30333     30337     30338
     30336     30333     30337     30338     30340     30339     30343     30344
     30341     30339     30343     30344     30342     30339     30343     30344
     30346     30345     30349     30350     30347     30345     30349     30350
     30348     30345     30349     30350     30352     30351     30355     30356
     30353     30351     30355     30356     30354     30351     30355     30356
     30358     30357     30361     30362     30359     30357     30361     30362
     30360     30357     30361     30362     30364     30363     30367     30368
     30365     30363     30367     30368     30366     30363     30367     30368
     30370     30369     30373     30374     30371     30369     30373     30374
     30372     30369     30373     30374     30376     30375     30379     30380
     30377     30375     30379     30380     30378     30375     30379     30380
     30382     30381     30385     30386     30383     30381     30385     30386
     30384     30381     30385     30386     30388     30387     30391     30392
     30389     30387     30391     30392     30390     30387     30391     30392
     30394     30393     30397     30398     30395     30393     30397     30398
     30396     30393     30397     30398     30400     30399     30403     30404
     30401     30399     30403     30404     30402     30399     30403     30404
     30406     30405     30409     30410     30407     30405     30409     30410
     30408     30405     30409     30410     30412     30411     30415     30416
     30413     30411     30415     30416     30414     30411     30415     30416
     30418     30417     30421     30422     30419     30417     30421     30422
     30420     30417     30421     30422     30424     30423     30427     30428
     30425     30423     30427     30428     30426     30423     30427     30428
     30430     30429     30433     30434     30431     30429     30433     30434
     30432     30429     30433     30434     30436     30435     30439     30440
     30437     30435     30439     30440     30438     30435     30439     30440
     30442     30441     30445     30446     30443     30441     30445     30446
     30444     30441     30445     30446     30448     30447     30451     30452
     30449     30447     30451     30452     30450     30447     30451     30452
     30454     30453     30457     30458     30455     30453     30457     30458
     30456     30453     30457     30458     30460     30459     30463     30464
     30461     30459     30463     30464     30462     30459     30463     30464
     30466     30465     30469     30470     30467     30465     30469     30470
     30468     30465     30469     30470     30472     30471     30475     30476
     30473     30471     30475     30476     30474     30471     30475     30476
     30478     30477     30481     30482     30479     30477     30481     30482
     30480     30477     30481     30482     30484     30483     30487     30488
     30485     30483     30487     30488     30486     30483     30487     30488
     30490     30489     30493     30494     30491     30489     30493     30494
     30492     30489     30493     30494     30496     30495     30499     30500
     30497     30495     30499     30500     30498     30495     30499     30500
     30502     30501     30505     30506     30503     30501     30505     30506
     30504     30501     30505     30506     30508     30507     30511     30512
     30509     30507     30511     30512     30510     30507     30511     30512
     30514     30513     30517     30518     30515     30513     30517     30518
     30516     30513     30517     30518     30520     30519     30523     30524
     30521     30519     30523     30524     30522     30519     30523     30524
     30526     30525     30529     30530     30527     30525     30529     30530
     30528     30525     30529     30530     30532     30531     30535     30536
     30533     30531     30535     30536     30534     30531     30535     30536
     30538     30537     30541     30542     30539     30537     30541     30542
     30540     30537     30541     30542     30544     30543     30547     30548
     30545     30543     30547     30548     30546     30543     30547     30548
     30550     30549     30553     30554     30551     30549     30553     30554
     30552     30549     30553     30554     30556     30555     30559     30560
     30557     30555     30559     30560     30558     30555     30559     30560
     30562     30561     30565     30566     30563     30561     30565     30566
     30564     30561     30565     30566     30568     30567     30571     30572
     30569     30567     30571     30572     30570     30567     30571     30572
     30574     30573     30577     30578     30575     30573     30577     30578
     30576     30573     30577     30578     30580     30579     30583     30584
     30581     30579     30583     30584     30582     30579     30583     30584
     30586     30585     30589     30590     30587     30585     30589     30590
     30588     30585     30589     30590     30592     30591     30595     30596
     30593     30591     30595     30596     30594     30591     30595     30596
     30598     30597     30601     30602     30599     30597     30601     30602
     30600     30597     30601     30602     30604     30603     30607     30608
     30605     30603     30607     30608     30606     30603     30607     30608
     30610     30609     30613     30614     30611     30609     30613     30614
     30612     30609     30613     30614     30616     30615     30619     30620
     30617     30615     30619     30620     30618     30615     30619     30620
     30622     30621     30625     30626     30623     30621     30625     30626
     30624     30621     30625     30626     30628     30627     30631     30632
     30629     30627     30631     30632     30630     30627     30631     30632
     30634     30633     30637     30638     30635     30633     30637     30638
     30636     30633     30637     30638     30640     30639     30643     30644
     30641     30639     30643     30644     30642     30639     30643     30644
     30646     30645     30649     30650     30647     30645     30649     30650
     30648     30645     30649     30650     30652     30651     30655     30656
     30653     30651     30655     30656     30654     30651     30655     30656
     30658     30657     30661     30662     30659     30657     30661     30662
     30660     30657     30661     30662     30664     30663     30667     30668
     30665     30663     30667     30668     30666     30663     30667     30668
     30670     30669     30673     30674     30671     30669     30673     30674
     30672     30669     30673     30674     30676     30675     30679     30680
     30677     30675     30679     30680     30678     30675     30679     30680
     30682     30681     30685     30686     30683     30681     30685     30686
     30684     30681     30685     30686     30688     30687     30691     30692
     30689     30687     30691     30692     30690     30687     30691     30692
     30694     30693     30697     30698     30695     30693     30697     30698
     30696     30693     30697     30698     30700     30699     30703     30704
     30701     30699     30703     30704     30702     30699     30703     30704
     30706     30705     30709     30710     30707     30705     30709     30710
     30708     30705     30709     30710     30712     30711     30715     30716
     30713     30711     30715     30716     30714     30711     30715     30716
     30718     30717     30721     30722     30719     30717     30721     30722
     30720     30717     30721     30722     30724     30723     30727     30728
     30725     30723     30727     30728     30726     30723     30727     30728
     30730     30729     30733     30734     30731     30729     30733     30734
     30732     30729     30733     30734     30736     30735     30739     30740
     30737     30735     30739     30740     30738     30735     30739     30740
     30742     30741     30745     30746     30743     30741     30745     30746
     30744     30741     30745     30746     30748     30747     30751     30752
     30749     30747     30751     30752     30750     30747     30751     30752
     30754     30753     30757     30758     30755     30753     30757     30758
     30756     30753     30757     30758     30760     30759     30763     30764
     30761     30759     30763     30764     30762     30759     30763     30764
     30766     30765     30769     30770     30767     30765     30769     30770
     30768     30765     30769     30770     30772     30771     30775     30776
     30773     30771     30775     30776     30774     30771     30775     30776
     30778     30777     30781     30782     30779     30777     30781     30782
     30780     30777     30781     30782     30784     30783     30787     30788
     30785     30783     30787     30788     30786     30783     30787     30788
     30790     30789     30793     30794     30791     30789     30793     30794
     30792     30789     30793     30794     30796     30795     30799     30800
     30797     30795     30799     30800     30798     30795     30799     30800
     30802     30801     30805     30806     30803     30801     30805     30806
     30804     30801     30805     30806     30808     30807     30811     30812
     30809     30807     30811     30812     30810     30807     30811     30812
     30814     30813     30817     30818     30815     30813     30817     30818
     30816     30813     30817     30818     30820     30819     30823     30824
     30821     30819     30823     30824     30822     30819     30823     30824
     30826     30825     30829     30830     30827     30825     30829     30830
     30828     30825     30829     30830     30832     30831     30835     30836
     30833     30831     30835     30836     30834     30831     30835     30836
     30838     30837     30841     30842     30839     30837     30841     30842
     30840     30837     30841     30842     30844     30843     30847     30848
     30845     30843     30847     30848     30846     30843     30847     30848
     30850     30849     30853     30854     30851     30849     30853     30854
     30852     30849     30853     30854     30856     30855     30859     30860
     30857     30855     30859     30860     30858     30855     30859     30860
     30862     30861     30865     30866     30863     30861     30865     30866
     30864     30861     30865     30866     30868     30867     30871     30872
     30869     30867     30871     30872     30870     30867     30871     30872
     30874     30873     30877     30878     30875     30873     30877     30878
     30876     30873     30877     30878     30880     30879     30883     30884
     30881     30879     30883     30884     30882     30879     30883     30884
     30886     30885     30889     30890     30887     30885     30889     30890
     30888     30885     30889     30890     30892     30891     30895     30896
     30893     30891     30895     30896     30894     30891     30895     30896
     30898     30897     30901     30902     30899     30897     30901     30902
     30900     30897     30901     30902     30904     30903     30907     30908
     30905     30903     30907     30908     30906     30903     30907     30908
     30910     30909     30913     30914     30911     30909     30913     30914
     30912     30909     30913     30914     30916     30915     30919     30920
     30917     30915     30919     30920     30918     30915     30919     30920
     30922     30921     30925     30926     30923     30921     30925     30926
     30924     30921     30925     30926     30928     30927     30931     30932
     30929     30927     30931     30932     30930     30927     30931     30932
     30934     30933     30937     30938     30935     30933     30937     30938
     30936     30933     30937     30938     30940     30939     30943     30944
     30941     30939     30943     30944     30942     30939     30943     30944
     30946     30945     30949     30950     30947     30945     30949     30950
     30948     30945     30949     30950     30952     30951     30955     30956
     30953     30951     30955     30956     30954     30951     30955     30956
     30958     30957     30961     30962     30959     30957     30961     30962
     30960     30957     30961     30962     30964     30963     30967     30968
     30965     30963     30967     30968     30966     30963     30967     30968
     30970     30969     30973     30974     30971     30969     30973     30974
     30972     30969     30973     30974     30976     30975     30979     30980
     30977     30975     30979     30980     30978     30975     30979     30980
     30982     30981     30985     30986     30983     30981     30985     30986
     30984     30981     30985     30986     30988     30987     30991     30992
     30989     30987     30991     30992     30990     30987     30991     30992
     30994     30993     30997     30998     30995     30993     30997     30998
     30996     30993     30997     30998     31000     30999     31003     31004
     31001     30999     31003     31004     31002     30999     31003     31004
     31006     31005     31009     31010     31007     31005     31009     31010
     31008     31005     31009     31010     31012     31011     31015     31016
     31013     31011     31015     31016     31014     31011     31015     31016
     31018     31017     31021     31022     31019     31017     31021     31022
     31020     31017     31021     31022     31024     31023     31027     31028
     31025     31023     31027     31028     31026     31023     31027     31028
     31030     31029     31033     31034     31031     31029     31033     31034
     31032     31029     31033     31034     31036     31035     31039     31040
     31037     31035     31039     31040     31038     31035     31039     31040
     31042     31041     31045     31046     31043     31041     31045     31046
     31044     31041     31045     31046     31048     31047     31051     31052
     31049     31047     31051     31052     31050     31047     31051     31052
     31054     31053     31057     31058     31055     31053     31057     31058
     31056     31053     31057     31058     31060     31059     31063     31064
     31061     31059     31063     31064     31062     31059     31063     31064
     31066     31065     31069     31070     31067     31065     31069     31070
     31068     31065     31069     31070     31072     31071     31075     31076
     31073     31071     31075     31076     31074     31071     31075     31076
     31078     31077     31081     31082     31079     31077     31081     31082
     31080     31077     31081     31082     31084     31083     31087     31088
     31085     31083     31087     31088     31086     31083     31087     31088
     31090     31089     31093     31094     31091     31089     31093     31094
     31092     31089     31093     31094     31096     31095     31099     31100
     31097     31095     31099     31100     31098     31095     31099     31100
     31102     31101     31105     31106     31103     31101     31105     31106
     31104     31101     31105     31106     31108     31107     31111     31112
     31109     31107     31111     31112     31110     31107     31111     31112
     31114     31113     31117     31118     31115     31113     31117     31118
     31116     31113     31117     31118     31120     31119     31123     31124
     31121     31119     31123     31124     31122     31119     31123     31124
     31126     31125     31129     31130     31127     31125     31129     31130
     31128     31125     31129     31130     31132     31131     31135     31136
     31133     31131     31135     31136     31134     31131     31135     31136
     31138     31137     31141     31142     31139     31137     31141     31142
     31140     31137     31141     31142     31144     31143     31147     31148
     31145     31143     31147     31148     31146     31143     31147     31148
     31150     31149     31153     31154     31151     31149     31153     31154
     31152     31149     31153     31154     31156     31155     31159     31160
     31157     31155     31159     31160     31158     31155     31159     31160
     31162     31161     31165     31166     31163     31161     31165     31166
     31164     31161     31165     31166     31168     31167     31171     31172
     31169     31167     31171     31172     31170     31167     31171     31172
     31174     31173     31177     31178     31175     31173     31177     31178
     31176     31173     31177     31178     31180     31179     31183     31184
     31181     31179     31183     31184     31182     31179     31183     31184
     31186     31185     31189     31190     31187     31185     31189     31190
     31188     31185     31189     31190     31192     31191     31195     31196
     31193     31191     31195     31196     31194     31191     31195     31196
     31198     31197     31201     31202     31199     31197     31201     31202
     31200     31197     31201     31202     31204     31203     31207     31208
     31205     31203     31207     31208     31206     31203     31207     31208
     31210     31209     31213     31214     31211     31209     31213     31214
     31212     31209     31213     31214     31216     31215     31219     31220
     31217     31215     31219     31220     31218     31215     31219     31220
     31222     31221     31225     31226     31223     31221     31225     31226
     31224     31221     31225     31226     31228     31227     31231     31232
     31229     31227     31231     31232     31230     31227     31231     31232
     31234     31233     31237     31238     31235     31233     31237     31238
     31236     31233     31237     31238     31240     31239     31243     31244
     31241     31239     31243     31244     31242     31239     31243     31244
     31246     31245     31249     31250     31247     31245     31249     31250
     31248     31245     31249     31250     31252     31251     31255     31256
     31253     31251     31255     31256     31254     31251     31255     31256
     31258     31257     31261     31262     31259     31257     31261     31262
     31260     31257     31261     31262     31264     31263     31267     31268
     31265     31263     31267     31268     31266     31263     31267     31268
     31270     31269     31273     31274     31271     31269     31273     31274
     31272     31269     31273     31274     31276     31275     31279     31280
     31277     31275     31279     31280     31278     31275     31279     31280
     31282     31281     31285     31286     31283     31281     31285     31286
     31284     31281     31285     31286     31288     31287     31291     31292
     31289     31287     31291     31292     31290     31287     31291     31292
     31294     31293     31297     31298     31295     31293     31297     31298
     31296     31293     31297     31298     31300     31299     31303     31304
     31301     31299     31303     31304     31302     31299     31303     31304
     31306     31305     31309     31310     31307     31305     31309     31310
     31308     31305     31309     31310     31312     31311     31315     31316
     31313     31311     31315     31316     31314     31311     31315     31316
     31318     31317     31321     31322     31319     31317     31321     31322
     31320     31317     31321     31322     31324     31323     31327     31328
     31325     31323     31327     31328     31326     31323     31327     31328
     31330     31329     31333     31334     31331     31329     31333     31334
     31332     31329     31333     31334     31336     31335     31339     31340
     31337     31335     31339     31340     31338     31335     31339     31340
     31342     31341     31345     31346     31343     31341     31345     31346
     31344     31341     31345     31346     31348     31347     31351     31352
     31349     31347     31351     31352     31350     31347     31351     31352
     31354     31353     31357     31358     31355     31353     31357     31358
     31356     31353     31357     31358     31360     31359     31363     31364
     31361     31359     31363     31364     31362     31359     31363     31364
     31366     31365     31369     31370     31367     31365     31369     31370
     31368     31365     31369     31370     31372     31371     31375     31376
     31373     31371     31375     31376     31374     31371     31375     31376
     31378     31377     31381     31382     31379     31377     31381     31382
     31380     31377     31381     31382     31384     31383     31387     31388
     31385     31383     31387     31388     31386     31383     31387     31388
     31390     31389     31393     31394     31391     31389     31393     31394
     31392     31389     31393     31394     31396     31395     31399     31400
     31397     31395     31399     31400     31398     31395     31399     31400
     31402     31401     31405     31406     31403     31401     31405     31406
     31404     31401     31405     31406     31408     31407     31411     31412
     31409     31407     31411     31412     31410     31407     31411     31412
     31414     31413     31417     31418     31415     31413     31417     31418
     31416     31413     31417     31418     31420     31419     31423     31424
     31421     31419     31423     31424     31422     31419     31423     31424
     31426     31425     31429     31430     31427     31425     31429     31430
     31428     31425     31429     31430     31432     31431     31435     31436
     31433     31431     31435     31436     31434     31431     31435     31436
     31438     31437     31441     31442     31439     31437     31441     31442
     31440     31437     31441     31442     31444     31443     31447     31448
     31445     31443     31447     31448     31446     31443     31447     31448
     31450     31449     31453     31454     31451     31449     31453     31454
     31452     31449     31453     31454     31456     31455     31459     31460
     31457     31455     31459     31460     31458     31455     31459     31460
     31462     31461     31465     31466     31463     31461     31465     31466
     31464     31461     31465     31466     31468     31467     31471     31472
     31469     31467     31471     31472     31470     31467     31471     31472
     31474     31473     31477     31478     31475     31473     31477     31478
     31476     31473     31477     31478     31480     31479     31483     31484
     31481     31479     31483     31484     31482     31479     31483     31484
     31486     31485     31489     31490     31487     31485     31489     31490
     31488     31485     31489     31490     31492     31491     31495     31496
     31493     31491     31495     31496     31494     31491     31495     31496
     31498     31497     31501     31502     31499     31497     31501     31502
     31500     31497     31501     31502     31504     31503     31507     31508
     31505     31503     31507     31508     31506     31503     31507     31508
     31510     31509     31513     31514     31511     31509     31513     31514
     31512     31509     31513     31514     31516     31515     31519     31520
     31517     31515     31519     31520     31518     31515     31519     31520
     31522     31521     31525     31526     31523     31521     31525     31526
     31524     31521     31525     31526     31528     31527     31531     31532
     31529     31527     31531     31532     31530     31527     31531     31532
     31534     31533     31537     31538     31535     31533     31537     31538
     31536     31533     31537     31538     31540     31539     31543     31544
     31541     31539     31543     31544     31542     31539     31543     31544
     31546     31545     31549     31550     31547     31545     31549     31550
     31548     31545     31549     31550     31552     31551     31555     31556
     31553     31551     31555     31556     31554     31551     31555     31556
     31558     31557     31561     31562     31559     31557     31561     31562
     31560     31557     31561     31562     31564     31563     31567     31568
     31565     31563     31567     31568     31566     31563     31567     31568
     31570     31569     31573     31574     31571     31569     31573     31574
     31572     31569     31573     31574     31576     31575     31579     31580
     31577     31575     31579     31580     31578     31575     31579     31580
     31582     31581     31585     31586     31583     31581     31585     31586
     31584     31581     31585     31586     31588     31587     31591     31592
     31589     31587     31591     31592     31590     31587     31591     31592
     31594     31593     31597     31598     31595     31593     31597     31598
     31596     31593     31597     31598     31600     31599     31603     31604
     31601     31599     31603     31604     31602     31599     31603     31604
     31606     31605     31609     31610     31607     31605     31609     31610
     31608     31605     31609     31610     31612     31611     31615     31616
     31613     31611     31615     31616     31614     31611     31615     31616
     31618     31617     31621     31622     31619     31617     31621     31622
     31620     31617     31621     31622     31624     31623     31627     31628
     31625     31623     31627     31628     31626     31623     31627     31628
     31630     31629     31633     31634     31631     31629     31633     31634
     31632     31629     31633     31634     31636     31635     31639     31640
     31637     31635     31639     31640     31638     31635     31639     31640
     31642     31641     31645     31646     31643     31641     31645     31646
     31644     31641     31645     31646     31648     31647     31651     31652
     31649     31647     31651     31652     31650     31647     31651     31652
     31654     31653     31657     31658     31655     31653     31657     31658
     31656     31653     31657     31658     31660     31659     31663     31664
     31661     31659     31663     31664     31662     31659     31663     31664
     31666     31665     31669     31670     31667     31665     31669     31670
     31668     31665     31669     31670     31672     31671     31675     31676
     31673     31671     31675     31676     31674     31671     31675     31676
     31678     31677     31681     31682     31679     31677     31681     31682
     31680     31677     31681     31682     31684     31683     31687     31688
     31685     31683     31687     31688     31686     31683     31687     31688
     31690     31689     31693     31694     31691     31689     31693     31694
     31692     31689     31693     31694     31696     31695     31699     31700
     31697     31695     31699     31700     31698     31695     31699     31700
     31702     31701     31705     31706     31703     31701     31705     31706
     31704     31701     31705     31706     31708     31707     31711     31712
     31709     31707     31711     31712     31710     31707     31711     31712
     31714     31713     31717     31718     31715     31713     31717     31718
     31716     31713     31717     31718     31720     31719     31723     31724
     31721     31719     31723     31724     31722     31719     31723     31724
     31726     31725     31729     31730     31727     31725     31729     31730
     31728     31725     31729     31730     31732     31731     31735     31736
     31733     31731     31735     31736     31734     31731     31735     31736
     31738     31737     31741     31742     31739     31737     31741     31742
     31740     31737     31741     31742     31744     31743     31747     31748
     31745     31743     31747     31748     31746     31743     31747     31748
     31750     31749     31753     31754     31751     31749     31753     31754
     31752     31749     31753     31754     31756     31755     31759     31760
     31757     31755     31759     31760     31758     31755     31759     31760
     31762     31761     31765     31766     31763     31761     31765     31766
     31764     31761     31765     31766     31768     31767     31771     31772
     31769     31767     31771     31772     31770     31767     31771     31772
     31774     31773     31777     31778     31775     31773     31777     31778
     31776     31773     31777     31778     31780     31779     31783     31784
     31781     31779     31783     31784     31782     31779     31783     31784
     31786     31785     31789     31790     31787     31785     31789     31790
     31788     31785     31789     31790     31792     31791     31795     31796
     31793     31791     31795     31796     31794     31791     31795     31796
     31798     31797     31801     31802     31799     31797     31801     31802
     31800     31797     31801     31802     31804     31803     31807     31808
     31805     31803     31807     31808     31806     31803     31807     31808
     31810     31809     31813     31814     31811     31809     31813     31814
     31812     31809     31813     31814     31816     31815     31819     31820
     31817     31815     31819     31820     31818     31815     31819     31820
     31822     31821     31825     31826     31823     31821     31825     31826
     31824     31821     31825     31826     31828     31827     31831     31832
     31829     31827     31831     31832     31830     31827     31831     31832
     31834     31833     31837     31838     31835     31833     31837     31838
     31836     31833     31837     31838     31840     31839     31843     31844
     31841     31839     31843     31844     31842     31839     31843     31844
     31846     31845     31849     31850     31847     31845     31849     31850
     31848     31845     31849     31850     31852     31851     31855     31856
     31853     31851     31855     31856     31854     31851     31855     31856
     31858     31857     31861     31862     31859     31857     31861     31862
     31860     31857     31861     31862     31864     31863     31867     31868
     31865     31863     31867     31868     31866     31863     31867     31868
     31870     31869     31873     31874     31871     31869     31873     31874
     31872     31869     31873     31874     31876     31875     31879     31880
     31877     31875     31879     31880     31878     31875     31879     31880
     31882     31881     31885     31886     31883     31881     31885     31886
     31884     31881     31885     31886     31888     31887     31891     31892
     31889     31887     31891     31892     31890     31887     31891     31892
     31894     31893     31897     31898     31895     31893     31897     31898
     31896     31893     31897     31898     31900     31899     31903     31904
     31901     31899     31903     31904     31902     31899     31903     31904
     31906     31905     31909     31910     31907     31905     31909     31910
     31908     31905     31909     31910     31912     31911     31915     31916
     31913     31911     31915     31916     31914     31911     31915     31916
     31918     31917     31921     31922     31919     31917     31921     31922
     31920     31917     31921     31922     31924     31923     31927     31928
     31925     31923     31927     31928     31926     31923     31927     31928
     31930     31929     31933     31934     31931     31929     31933     31934
     31932     31929     31933     31934     31936     31935     31939     31940
     31937     31935     31939     31940     31938     31935     31939     31940
     31942     31941     31945     31946     31943     31941     31945     31946
     31944     31941     31945     31946     31948     31947     31951     31952
     31949     31947     31951     31952     31950     31947     31951     31952
     31954     31953     31957     31958     31955     31953     31957     31958
     31956     31953     31957     31958     31960     31959     31963     31964
     31961     31959     31963     31964     31962     31959     31963     31964
     31966     31965     31969     31970     31967     31965     31969     31970
     31968     31965     31969     31970     31972     31971     31975     31976
     31973     31971     31975     31976     31974     31971     31975     31976
     31978     31977     31981     31982     31979     31977     31981     31982
     31980     31977     31981     31982     31984     31983     31987     31988
     31985     31983     31987     31988     31986     31983     31987     31988
     31990     31989     31993     31994     31991     31989     31993     31994
     31992     31989     31993     31994     31996     31995     31999     32000
     31997     31995     31999     32000     31998     31995     31999     32000
     32002     32001     32005     32006     32003     32001     32005     32006
     32004     32001     32005     32006     32008     32007     32011     32012
     32009     32007     32011     32012     32010     32007     32011     32012
     32014     32013     32017     32018     32015     32013     32017     32018
     32016     32013     32017     32018     32020     32019     32023     32024
     32021     32019     32023     32024     32022     32019     32023     32024
     32026     32025     32029     32030     32027     32025     32029     32030
     32028     32025     32029     32030     32032     32031     32035     32036
     32033     32031     32035     32036     32034     32031     32035     32036
     32038     32037     32041     32042     32039     32037     32041     32042
     32040     32037     32041     32042     32044     32043     32047     32048
     32045     32043     32047     32048     32046     32043     32047     32048
     32050     32049     32053     32054     32051     32049     32053     32054
     32052     32049     32053     32054     32056     32055     32059     32060
     32057     32055     32059     32060     32058     32055     32059     32060
     32062     32061     32065     32066     32063     32061     32065     32066
     32064     32061     32065     32066     32068     32067     32071     32072
     32069     32067     32071     32072     32070     32067     32071     32072
     32074     32073     32077     32078     32075     32073     32077     32078
     32076     32073     32077     32078     32080     32079     32083     32084
     32081     32079     32083     32084     32082     32079     32083     32084
     32086     32085     32089     32090     32087     32085     32089     32090
     32088     32085     32089     32090     32092     32091     32095     32096
     32093     32091     32095     32096     32094     32091     32095     32096
     32098     32097     32101     32102     32099     32097     32101     32102
     32100     32097     32101     32102     32104     32103     32107     32108
     32105     32103     32107     32108     32106     32103     32107     32108
     32110     32109     32113     32114     32111     32109     32113     32114
     32112     32109     32113     32114     32116     32115     32119     32120
     32117     32115     32119     32120     32118     32115     32119     32120
     32122     32121     32125     32126     32123     32121     32125     32126
     32124     32121     32125     32126     32128     32127     32131     32132
     32129     32127     32131     32132     32130     32127     32131     32132
     32134     32133     32137     32138     32135     32133     32137     32138
     32136     32133     32137     32138     32140     32139     32143     32144
     32141     32139     32143     32144     32142     32139     32143     32144
     32146     32145     32149     32150     32147     32145     32149     32150
     32148     32145     32149     32150     32152     32151     32155     32156
     32153     32151     32155     32156     32154     32151     32155     32156
     32158     32157     32161     32162     32159     32157     32161     32162
     32160     32157     32161     32162     32164     32163     32167     32168
     32165     32163     32167     32168     32166     32163     32167     32168
     32170     32169     32173     32174     32171     32169     32173     32174
     32172     32169     32173     32174     32176     32175     32179     32180
     32177     32175     32179     32180     32178     32175     32179     32180
     32182     32181     32185     32186     32183     32181     32185     32186
     32184     32181     32185     32186     32188     32187     32191     32192
     32189     32187     32191     32192     32190     32187     32191     32192
     32194     32193     32197     32198     32195     32193     32197     32198
     32196     32193     32197     32198     32200     32199     32203     32204
     32201     32199     32203     32204     32202     32199     32203     32204
     32206     32205     32209     32210     32207     32205     32209     32210
     32208     32205     32209     32210     32212     32211     32215     32216
     32213     32211     32215     32216     32214     32211     32215     32216
     32218     32217     32221     32222     32219     32217     32221     32222
     32220     32217     32221     32222     32224     32223     32227     32228
     32225     32223     32227     32228     32226     32223     32227     32228
     32230     32229     32233     32234     32231     32229     32233     32234
     32232     32229     32233     32234     32236     32235     32239     32240
     32237     32235     32239     32240     32238     32235     32239     32240
     32242     32241     32245     32246     32243     32241     32245     32246
     32244     32241     32245     32246     32248     32247     32251     32252
     32249     32247     32251     32252     32250     32247     32251     32252
     32254     32253     32257     32258     32255     32253     32257     32258
     32256     32253     32257     32258     32260     32259     32263     32264
     32261     32259     32263     32264     32262     32259     32263     32264
     32266     32265     32269     32270     32267     32265     32269     32270
     32268     32265     32269     32270     32272     32271     32275     32276
     32273     32271     32275     32276     32274     32271     32275     32276
     32278     32277     32281     32282     32279     32277     32281     32282
     32280     32277     32281     32282     32284     32283     32287     32288
     32285     32283     32287     32288     32286     32283     32287     32288
     32290     32289     32293     32294     32291     32289     32293     32294
     32292     32289     32293     32294     32296     32295     32299     32300
     32297     32295     32299     32300     32298     32295     32299     32300
     32302     32301     32305     32306     32303     32301     32305     32306
     32304     32301     32305     32306     32308     32307     32311     32312
     32309     32307     32311     32312     32310     32307     32311     32312
     32314     32313     32317     32318     32315     32313     32317     32318
     32316     32313     32317     32318     32320     32319     32323     32324
     32321     32319     32323     32324     32322     32319     32323     32324
     32326     32325     32329     32330     32327     32325     32329     32330
     32328     32325     32329     32330     32332     32331     32335     32336
     32333     32331     32335     32336     32334     32331     32335     32336
     32338     32337     32341     32342     32339     32337     32341     32342
     32340     32337     32341     32342     32344     32343     32347     32348
     32345     32343     32347     32348     32346     32343     32347     32348
     32350     32349     32353     32354     32351     32349     32353     32354
     32352     32349     32353     32354     32356     32355     32359     32360
     32357     32355     32359     32360     32358     32355     32359     32360
     32362     32361     32365     32366     32363     32361     32365     32366
     32364     32361     32365     32366     32368     32367     32371     32372
     32369     32367     32371     32372     32370     32367     32371     32372
     32374     32373     32377     32378     32375     32373     32377     32378
     32376     32373     32377     32378     32380     32379     32383     32384
     32381     32379     32383     32384     32382     32379     32383     32384
     32386     32385     32389     32390     32387     32385     32389     32390
     32388     32385     32389     32390     32392     32391     32395     32396
     32393     32391     32395     32396     32394     32391     32395     32396
     32398     32397     32401     32402     32399     32397     32401     32402
     32400     32397     32401     32402     32404     32403     32407     32408
     32405     32403     32407     32408     32406     32403     32407     32408
     32410     32409     32413     32414     32411     32409     32413     32414
     32412     32409     32413     32414     32416     32415     32419     32420
     32417     32415     32419     32420     32418     32415     32419     32420
     32422     32421     32425     32426     32423     32421     32425     32426
     32424     32421     32425     32426     32428     32427     32431     32432
     32429     32427     32431     32432     32430     32427     32431     32432
     32434     32433     32437     32438     32435     32433     32437     32438
     32436     32433     32437     32438     32440     32439     32443     32444
     32441     32439     32443     32444     32442     32439     32443     32444
     32446     32445     32449     32450     32447     32445     32449     32450
     32448     32445     32449     32450     32452     32451     32455     32456
     32453     32451     32455     32456     32454     32451     32455     32456
     32458     32457     32461     32462     32459     32457     32461     32462
     32460     32457     32461     32462     32464     32463     32467     32468
     32465     32463     32467     32468     32466     32463     32467     32468
     32470     32469     32473     32474     32471     32469     32473     32474
     32472     32469     32473     32474     32476     32475     32479     32480
     32477     32475     32479     32480     32478     32475     32479     32480
     32482     32481     32485     32486     32483     32481     32485     32486
     32484     32481     32485     32486     32488     32487     32491     32492
     32489     32487     32491     32492     32490     32487     32491     32492
     32494     32493     32497     32498     32495     32493     32497     32498
     32496     32493     32497     32498     32500     32499     32503     32504
     32501     32499     32503     32504     32502     32499     32503     32504
     32506     32505     32509     32510     32507     32505     32509     32510
     32508     32505     32509     32510     32512     32511     32515     32516
     32513     32511     32515     32516     32514     32511     32515     32516
     32518     32517     32521     32522     32519     32517     32521     32522
     32520     32517     32521     32522     32524     32523     32527     32528
     32525     32523     32527     32528     32526     32523     32527     32528
     32530     32529     32533     32534     32531     32529     32533     32534
     32532     32529     32533     32534     32536     32535     32539     32540
     32537     32535     32539     32540     32538     32535     32539     32540
     32542     32541     32545     32546     32543     32541     32545     32546
     32544     32541     32545     32546     32548     32547     32551     32552
     32549     32547     32551     32552     32550     32547     32551     32552
     32554     32553     32557     32558     32555     32553     32557     32558
     32556     32553     32557     32558     32560     32559     32563     32564
     32561     32559     32563     32564     32562     32559     32563     32564
     32566     32565     32569     32570     32567     32565     32569     32570
     32568     32565     32569     32570     32572     32571     32575     32576
     32573     32571     32575     32576     32574     32571     32575     32576
     32578     32577     32581     32582     32579     32577     32581     32582
     32580     32577     32581     32582     32584     32583     32587     32588
     32585     32583     32587     32588     32586     32583     32587     32588
     32590     32589     32593     32594     32591     32589     32593     32594
     32592     32589     32593     32594     32596     32595     32599     32600
     32597     32595     32599     32600     32598     32595     32599     32600
     32602     32601     32605     32606     32603     32601     32605     32606
     32604     32601     32605     32606     32608     32607     32611     32612
     32609     32607     32611     32612     32610     32607     32611     32612
     32614     32613     32617     32618     32615     32613     32617     32618
     32616     32613     32617     32618     32620     32619     32623     32624
     32621     32619     32623     32624     32622     32619     32623     32624
     32626     32625     32629     32630     32627     32625     32629     32630
     32628     32625     32629     32630     32632     32631     32635     32636
     32633     32631     32635     32636     32634     32631     32635     32636
     32638     32637     32641     32642     32639     32637     32641     32642
     32640     32637     32641     32642     32644     32643     32647     32648
     32645     32643     32647     32648     32646     32643     32647     32648
     32650     32649     32653     32654     32651     32649     32653     32654
     32652     32649     32653     32654     32656     32655     32659     32660
     32657     32655     32659     32660     32658     32655     32659     32660
     32662     32661     32665     32666     32663     32661     32665     32666
     32664     32661     32665     32666     32668     32667     32671     32672
     32669     32667     32671     32672     32670     32667     32671     32672
     32674     32673     32677     32678     32675     32673     32677     32678
     32676     32673     32677     32678     32680     32679     32683     32684
     32681     32679     32683     32684     32682     32679     32683     32684
     32686     32685     32689     32690     32687     32685     32689     32690
     32688     32685     32689     32690     32692     32691     32695     32696
     32693     32691     32695     32696     32694     32691     32695     32696
     32698     32697     32701     32702     32699     32697     32701     32702
     32700     32697     32701     32702     32704     32703     32707     32708
     32705     32703     32707     32708     32706     32703     32707     32708
     32710     32709     32713     32714     32711     32709     32713     32714
     32712     32709     32713     32714     32716     32715     32719     32720
     32717     32715     32719     32720     32718     32715     32719     32720
     32722     32721     32725     32726     32723     32721     32725     32726
     32724     32721     32725     32726     32728     32727     32731     32732
     32729     32727     32731     32732     32730     32727     32731     32732
     32734     32733     32737     32738     32735     32733     32737     32738
     32736     32733     32737     32738     32740     32739     32743     32744
     32741     32739     32743     32744     32742     32739     32743     32744
     32746     32745     32749     32750     32747     32745     32749     32750
     32748     32745     32749     32750     32752     32751     32755     32756
     32753     32751     32755     32756     32754     32751     32755     32756
     32758     32757     32761     32762     32759     32757     32761     32762
     32760     32757     32761     32762     32764     32763     32767     32768
     32765     32763     32767     32768     32766     32763     32767     32768
     32770     32769     32773     32774     32771     32769     32773     32774
     32772     32769     32773     32774     32776     32775     32779     32780
     32777     32775     32779     32780     32778     32775     32779     32780
     32782     32781     32785     32786     32783     32781     32785     32786
     32784     32781     32785     32786     32788     32787     32791     32792
     32789     32787     32791     32792     32790     32787     32791     32792
     32794     32793     32797     32798     32795     32793     32797     32798
     32796     32793     32797     32798     32800     32799     32803     32804
     32801     32799     32803     32804     32802     32799     32803     32804
     32806     32805     32809     32810     32807     32805     32809     32810
     32808     32805     32809     32810     32812     32811     32815     32816
     32813     32811     32815     32816     32814     32811     32815     32816
     32818     32817     32821     32822     32819     32817     32821     32822
     32820     32817     32821     32822     32824     32823     32827     32828
     32825     32823     32827     32828     32826     32823     32827     32828
     32830     32829     32833     32834     32831     32829     32833     32834
     32832     32829     32833     32834     32836     32835     32839     32840
     32837     32835     32839     32840     32838     32835     32839     32840
     32842     32841     32845     32846     32843     32841     32845     32846
     32844     32841     32845     32846     32848     32847     32851     32852
     32849     32847     32851     32852     32850     32847     32851     32852
     32854     32853     32857     32858     32855     32853     32857     32858
     32856     32853     32857     32858     32860     32859     32863     32864
     32861     32859     32863     32864     32862     32859     32863     32864
     32866     32865     32869     32870     32867     32865     32869     32870
     32868     32865     32869     32870     32872     32871     32875     32876
     32873     32871     32875     32876     32874     32871     32875     32876
     32878     32877     32881     32882     32879     32877     32881     32882
     32880     32877     32881     32882     32884     32883     32887     32888
     32885     32883     32887     32888     32886     32883     32887     32888
     32890     32889     32893     32894     32891     32889     32893     32894
     32892     32889     32893     32894     32896     32895     32899     32900
     32897     32895     32899     32900     32898     32895     32899     32900
     32902     32901     32905     32906     32903     32901     32905     32906
     32904     32901     32905     32906     32908     32907     32911     32912
     32909     32907     32911     32912     32910     32907     32911     32912
     32914     32913     32917     32918     32915     32913     32917     32918
     32916     32913     32917     32918     32920     32919     32923     32924
     32921     32919     32923     32924     32922     32919     32923     32924
     32926     32925     32929     32930     32927     32925     32929     32930
     32928     32925     32929     32930     32932     32931     32935     32936
     32933     32931     32935     32936     32934     32931     32935     32936
     32938     32937     32941     32942     32939     32937     32941     32942
     32940     32937     32941     32942     32944     32943     32947     32948
     32945     32943     32947     32948     32946     32943     32947     32948
     32950     32949     32953     32954     32951     32949     32953     32954
     32952     32949     32953     32954     32956     32955     32959     32960
     32957     32955     32959     32960     32958     32955     32959     32960
     32962     32961     32965     32966     32963     32961     32965     32966
     32964     32961     32965     32966     32968     32967     32971     32972
     32969     32967     32971     32972     32970     32967     32971     32972
     32974     32973     32977     32978     32975     32973     32977     32978
     32976     32973     32977     32978     32980     32979     32983     32984
     32981     32979     32983     32984     32982     32979     32983     32984
     32986     32985     32989     32990     32987     32985     32989     32990
     32988     32985     32989     32990     32992     32991     32995     32996
     32993     32991     32995     32996     32994     32991     32995     32996
     32998     32997     33001     33002     32999     32997     33001     33002
     33000     32997     33001     33002     33004     33003     33007     33008
     33005     33003     33007     33008     33006     33003     33007     33008
     33010     33009     33013     33014     33011     33009     33013     33014
     33012     33009     33013     33014     33016     33015     33019     33020
     33017     33015     33019     33020     33018     33015     33019     33020
     33022     33021     33025     33026     33023     33021     33025     33026
     33024     33021     33025     33026     33028     33027     33031     33032
     33029     33027     33031     33032     33030     33027     33031     33032
     33034     33033     33037     33038     33035     33033     33037     33038
     33036     33033     33037     33038     33040     33039     33043     33044
     33041     33039     33043     33044     33042     33039     33043     33044
     33046     33045     33049     33050     33047     33045     33049     33050
     33048     33045     33049     33050     33052     33051     33055     33056
     33053     33051     33055     33056     33054     33051     33055     33056
     33058     33057     33061     33062     33059     33057     33061     33062
     33060     33057     33061     33062     33064     33063     33067     33068
     33065     33063     33067     33068     33066     33063     33067     33068
     33070     33069     33073     33074     33071     33069     33073     33074
     33072     33069     33073     33074     33076     33075     33079     33080
     33077     33075     33079     33080     33078     33075     33079     33080
     33082     33081     33085     33086     33083     33081     33085     33086
     33084     33081     33085     33086     33088     33087     33091     33092
     33089     33087     33091     33092     33090     33087     33091     33092
     33094     33093     33097     33098     33095     33093     33097     33098
     33096     33093     33097     33098     33100     33099     33103     33104
     33101     33099     33103     33104     33102     33099     33103     33104
     33106     33105     33109     33110     33107     33105     33109     33110
     33108     33105     33109     33110     33112     33111     33115     33116
     33113     33111     33115     33116     33114     33111     33115     33116
     33118     33117     33121     33122     33119     33117     33121     33122
     33120     33117     33121     33122     33124     33123     33127     33128
     33125     33123     33127     33128     33126     33123     33127     33128
     33130     33129     33133     33134     33131     33129     33133     33134
     33132     33129     33133     33134     33136     33135     33139     33140
     33137     33135     33139     33140     33138     33135     33139     33140
     33142     33141     33145     33146     33143     33141     33145     33146
     33144     33141     33145     33146     33148     33147     33151     33152
     33149     33147     33151     33152     33150     33147     33151     33152
     33154     33153     33157     33158     33155     33153     33157     33158
     33156     33153     33157     33158     33160     33159     33163     33164
     33161     33159     33163     33164     33162     33159     33163     33164
     33166     33165     33169     33170     33167     33165     33169     33170
     33168     33165     33169     33170     33172     33171     33175     33176
     33173     33171     33175     33176     33174     33171     33175     33176
     33178     33177     33181     33182     33179     33177     33181     33182
     33180     33177     33181     33182     33184     33183     33187     33188
     33185     33183     33187     33188     33186     33183     33187     33188
     33190     33189     33193     33194     33191     33189     33193     33194
     33192     33189     33193     33194     33196     33195     33199     33200
     33197     33195     33199     33200     33198     33195     33199     33200
     33202     33201     33205     33206     33203     33201     33205     33206
     33204     33201     33205     33206     33208     33207     33211     33212
     33209     33207     33211     33212     33210     33207     33211     33212
     33214     33213     33217     33218     33215     33213     33217     33218
     33216     33213     33217     33218     33220     33219     33223     33224
     33221     33219     33223     33224     33222     33219     33223     33224
     33226     33225     33229     33230     33227     33225     33229     33230
     33228     33225     33229     33230     33232     33231     33235     33236
     33233     33231     33235     33236     33234     33231     33235     33236
     33238     33237     33241     33242     33239     33237     33241     33242
     33240     33237     33241     33242     33244     33243     33247     33248
     33245     33243     33247     33248     33246     33243     33247     33248
     33250     33249     33253     33254     33251     33249     33253     33254
     33252     33249     33253     33254     33256     33255     33259     33260
     33257     33255     33259     33260     33258     33255     33259     33260
     33262     33261     33265     33266     33263     33261     33265     33266
     33264     33261     33265     33266     33268     33267     33271     33272
     33269     33267     33271     33272     33270     33267     33271     33272
     33274     33273     33277     33278     33275     33273     33277     33278
     33276     33273     33277     33278     33280     33279     33283     33284
     33281     33279     33283     33284     33282     33279     33283     33284
     33286     33285     33289     33290     33287     33285     33289     33290
     33288     33285     33289     33290     33292     33291     33295     33296
     33293     33291     33295     33296     33294     33291     33295     33296
     33298     33297     33301     33302     33299     33297     33301     33302
     33300     33297     33301     33302     33304     33303     33307     33308
     33305     33303     33307     33308     33306     33303     33307     33308
     33310     33309     33313     33314     33311     33309     33313     33314
     33312     33309     33313     33314     33316     33315     33319     33320
     33317     33315     33319     33320     33318     33315     33319     33320
     33322     33321     33325     33326     33323     33321     33325     33326
     33324     33321     33325     33326     33328     33327     33331     33332
     33329     33327     33331     33332     33330     33327     33331     33332
     33334     33333     33337     33338     33335     33333     33337     33338
     33336     33333     33337     33338     33340     33339     33343     33344
     33341     33339     33343     33344     33342     33339     33343     33344
     33346     33345     33349     33350     33347     33345     33349     33350
     33348     33345     33349     33350     33352     33351     33355     33356
     33353     33351     33355     33356     33354     33351     33355     33356
     33358     33357     33361     33362     33359     33357     33361     33362
     33360     33357     33361     33362     33364     33363     33367     33368
     33365     33363     33367     33368     33366     33363     33367     33368
     33370     33369     33373     33374     33371     33369     33373     33374
     33372     33369     33373     33374     33376     33375     33379     33380
     33377     33375     33379     33380     33378     33375     33379     33380
     33382     33381     33385     33386     33383     33381     33385     33386
     33384     33381     33385     33386     33388     33387     33391     33392
     33389     33387     33391     33392     33390     33387     33391     33392
     33394     33393     33397     33398     33395     33393     33397     33398
     33396     33393     33397     33398     33400     33399     33403     33404
     33401     33399     33403     33404     33402     33399     33403     33404
     33406     33405     33409     33410     33407     33405     33409     33410
     33408     33405     33409     33410     33412     33411     33415     33416
     33413     33411     33415     33416     33414     33411     33415     33416
     33418     33417     33421     33422     33419     33417     33421     33422
     33420     33417     33421     33422     33424     33423     33427     33428
     33425     33423     33427     33428     33426     33423     33427     33428
     33430     33429     33433     33434     33431     33429     33433     33434
     33432     33429     33433     33434     33436     33435     33439     33440
     33437     33435     33439     33440     33438     33435     33439     33440
     33442     33441     33445     33446     33443     33441     33445     33446
     33444     33441     33445     33446     33448     33447     33451     33452
     33449     33447     33451     33452     33450     33447     33451     33452
     33454     33453     33457     33458     33455     33453     33457     33458
     33456     33453     33457     33458     33460     33459     33463     33464
     33461     33459     33463     33464     33462     33459     33463     33464
     33466     33465     33469     33470     33467     33465     33469     33470
     33468     33465     33469     33470     33472     33471     33475     33476
     33473     33471     33475     33476     33474     33471     33475     33476
     33478     33477     33481     33482     33479     33477     33481     33482
     33480     33477     33481     33482     33484     33483     33487     33488
     33485     33483     33487     33488     33486     33483     33487     33488
     33490     33489     33493     33494     33491     33489     33493     33494
     33492     33489     33493     33494     33496     33495     33499     33500
     33497     33495     33499     33500     33498     33495     33499     33500
     33502     33501     33505     33506     33503     33501     33505     33506
     33504     33501     33505     33506     33508     33507     33511     33512
     33509     33507     33511     33512     33510     33507     33511     33512
     33514     33513     33517     33518     33515     33513     33517     33518
     33516     33513     33517     33518     33520     33519     33523     33524
     33521     33519     33523     33524     33522     33519     33523     33524
     33526     33525     33529     33530     33527     33525     33529     33530
     33528     33525     33529     33530     33532     33531     33535     33536
     33533     33531     33535     33536     33534     33531     33535     33536
     33538     33537     33541     33542     33539     33537     33541     33542
     33540     33537     33541     33542     33544     33543     33547     33548
     33545     33543     33547     33548     33546     33543     33547     33548
     33550     33549     33553     33554     33551     33549     33553     33554
     33552     33549     33553     33554     33556     33555     33559     33560
     33557     33555     33559     33560     33558     33555     33559     33560
     33562     33561     33565     33566     33563     33561     33565     33566
     33564     33561     33565     33566     33568     33567     33571     33572
     33569     33567     33571     33572     33570     33567     33571     33572
     33574     33573     33577     33578     33575     33573     33577     33578
     33576     33573     33577     33578     33580     33579     33583     33584
     33581     33579     33583     33584     33582     33579     33583     33584
     33586     33585     33589     33590     33587     33585     33589     33590
     33588     33585     33589     33590     33592     33591     33595     33596
     33593     33591     33595     33596     33594     33591     33595     33596
     33598     33597     33601     33602     33599     33597     33601     33602
     33600     33597     33601     33602     33604     33603     33607     33608
     33605     33603     33607     33608     33606     33603     33607     33608
     33610     33609     33613     33614     33611     33609     33613     33614
     33612     33609     33613     33614     33616     33615     33619     33620
     33617     33615     33619     33620     33618     33615     33619     33620
     33622     33621     33625     33626     33623     33621     33625     33626
     33624     33621     33625     33626     33628     33627     33631     33632
     33629     33627     33631     33632     33630     33627     33631     33632
     33634     33633     33637     33638     33635     33633     33637     33638
     33636     33633     33637     33638     33640     33639     33643     33644
     33641     33639     33643     33644     33642     33639     33643     33644
     33646     33645     33649     33650     33647     33645     33649     33650
     33648     33645     33649     33650     33652     33651     33655     33656
     33653     33651     33655     33656     33654     33651     33655     33656
     33658     33657     33661     33662     33659     33657     33661     33662
     33660     33657     33661     33662     33664     33663     33667     33668
     33665     33663     33667     33668     33666     33663     33667     33668
     33670     33669     33673     33674     33671     33669     33673     33674
     33672     33669     33673     33674     33676     33675     33679     33680
     33677     33675     33679     33680     33678     33675     33679     33680
     33682     33681     33685     33686     33683     33681     33685     33686
     33684     33681     33685     33686     33688     33687     33691     33692
     33689     33687     33691     33692     33690     33687     33691     33692
     33694     33693     33697     33698     33695     33693     33697     33698
     33696     33693     33697     33698     33700     33699     33703     33704
     33701     33699     33703     33704     33702     33699     33703     33704
     33706     33705     33709     33710     33707     33705     33709     33710
     33708     33705     33709     33710     33712     33711     33715     33716
     33713     33711     33715     33716     33714     33711     33715     33716
     33718     33717     33721     33722     33719     33717     33721     33722
     33720     33717     33721     33722     33724     33723     33727     33728
     33725     33723     33727     33728     33726     33723     33727     33728
     33730     33729     33733     33734     33731     33729     33733     33734
     33732     33729     33733     33734     33736     33735     33739     33740
     33737     33735     33739     33740     33738     33735     33739     33740
     33742     33741     33745     33746     33743     33741     33745     33746
     33744     33741     33745     33746     33748     33747     33751     33752
     33749     33747     33751     33752     33750     33747     33751     33752
     33754     33753     33757     33758     33755     33753     33757     33758
     33756     33753     33757     33758     33760     33759     33763     33764
     33761     33759     33763     33764     33762     33759     33763     33764
     33766     33765     33769     33770     33767     33765     33769     33770
     33768     33765     33769     33770     33772     33771     33775     33776
     33773     33771     33775     33776     33774     33771     33775     33776
     33778     33777     33781     33782     33779     33777     33781     33782
     33780     33777     33781     33782     33784     33783     33787     33788
     33785     33783     33787     33788     33786     33783     33787     33788
     33790     33789     33793     33794     33791     33789     33793     33794
     33792     33789     33793     33794     33796     33795     33799     33800
     33797     33795     33799     33800     33798     33795     33799     33800
     33802     33801     33805     33806     33803     33801     33805     33806
     33804     33801     33805     33806     33808     33807     33811     33812
     33809     33807     33811     33812     33810     33807     33811     33812
     33814     33813     33817     33818     33815     33813     33817     33818
     33816     33813     33817     33818     33820     33819     33823     33824
     33821     33819     33823     33824     33822     33819     33823     33824
     33826     33825     33829     33830     33827     33825     33829     33830
     33828     33825     33829     33830     33832     33831     33835     33836
     33833     33831     33835     33836     33834     33831     33835     33836
     33838     33837     33841     33842     33839     33837     33841     33842
     33840     33837     33841     33842     33844     33843     33847     33848
     33845     33843     33847     33848     33846     33843     33847     33848
     33850     33849     33853     33854     33851     33849     33853     33854
     33852     33849     33853     33854     33856     33855     33859     33860
     33857     33855     33859     33860     33858     33855     33859     33860
     33862     33861     33865     33866     33863     33861     33865     33866
     33864     33861     33865     33866     33868     33867     33871     33872
     33869     33867     33871     33872     33870     33867     33871     33872
     33874     33873     33877     33878     33875     33873     33877     33878
     33876     33873     33877     33878     33880     33879     33883     33884
     33881     33879     33883     33884     33882     33879     33883     33884
     33886     33885     33889     33890     33887     33885     33889     33890
     33888     33885     33889     33890     33892     33891     33895     33896
     33893     33891     33895     33896     33894     33891     33895     33896
     33898     33897     33901     33902     33899     33897     33901     33902
     33900     33897     33901     33902     33904     33903     33907     33908
     33905     33903     33907     33908     33906     33903     33907     33908
     33910     33909     33913     33914     33911     33909     33913     33914
     33912     33909     33913     33914     33916     33915     33919     33920
     33917     33915     33919     33920     33918     33915     33919     33920
     33922     33921     33925     33926     33923     33921     33925     33926
     33924     33921     33925     33926     33928     33927     33931     33932
     33929     33927     33931     33932     33930     33927     33931     33932
     33934     33933     33937     33938     33935     33933     33937     33938
     33936     33933     33937     33938     33940     33939     33943     33944
     33941     33939     33943     33944     33942     33939     33943     33944
     33946     33945     33949     33950     33947     33945     33949     33950
     33948     33945     33949     33950     33952     33951     33955     33956
     33953     33951     33955     33956     33954     33951     33955     33956
     33958     33957     33961     33962     33959     33957     33961     33962
     33960     33957     33961     33962     33964     33963     33967     33968
     33965     33963     33967     33968     33966     33963     33967     33968
     33970     33969     33973     33974     33971     33969     33973     33974
     33972     33969     33973     33974     33976     33975     33979     33980
     33977     33975     33979     33980     33978     33975     33979     33980
     33982     33981     33985     33986     33983     33981     33985     33986
     33984     33981     33985     33986     33988     33987     33991     33992
     33989     33987     33991     33992     33990     33987     33991     33992
     33994     33993     33997     33998     33995     33993     33997     33998
     33996     33993     33997     33998     34000     33999     34003     34004
     34001     33999     34003     34004     34002     33999     34003     34004
     34006     34005     34009     34010     34007     34005     34009     34010
     34008     34005     34009     34010     34012     34011     34015     34016
     34013     34011     34015     34016     34014     34011     34015     34016
     34018     34017     34021     34022     34019     34017     34021     34022
     34020     34017     34021     34022     34024     34023     34027     34028
     34025     34023     34027     34028     34026     34023     34027     34028
     34030     34029     34033     34034     34031     34029     34033     34034
     34032     34029     34033     34034     34036     34035     34039     34040
     34037     34035     34039     34040     34038     34035     34039     34040
     34042     34041     34045     34046     34043     34041     34045     34046
     34044     34041     34045     34046     34048     34047     34051     34052
     34049     34047     34051     34052     34050     34047     34051     34052
     34054     34053     34057     34058     34055     34053     34057     34058
     34056     34053     34057     34058     34060     34059     34063     34064
     34061     34059     34063     34064     34062     34059     34063     34064
     34066     34065     34069     34070     34067     34065     34069     34070
     34068     34065     34069     34070     34072     34071     34075     34076
     34073     34071     34075     34076     34074     34071     34075     34076
     34078     34077     34081     34082     34079     34077     34081     34082
     34080     34077     34081     34082     34084     34083     34087     34088
     34085     34083     34087     34088     34086     34083     34087     34088
     34090     34089     34093     34094     34091     34089     34093     34094
     34092     34089     34093     34094     34096     34095     34099     34100
     34097     34095     34099     34100     34098     34095     34099     34100
     34102     34101     34105     34106     34103     34101     34105     34106
     34104     34101     34105     34106     34108     34107     34111     34112
     34109     34107     34111     34112     34110     34107     34111     34112
     34114     34113     34117     34118     34115     34113     34117     34118
     34116     34113     34117     34118     34120     34119     34123     34124
     34121     34119     34123     34124     34122     34119     34123     34124
     34126     34125     34129     34130     34127     34125     34129     34130
     34128     34125     34129     34130     34132     34131     34135     34136
     34133     34131     34135     34136     34134     34131     34135     34136
     34138     34137     34141     34142     34139     34137     34141     34142
     34140     34137     34141     34142     34144     34143     34147     34148
     34145     34143     34147     34148     34146     34143     34147     34148
     34150     34149     34153     34154     34151     34149     34153     34154
     34152     34149     34153     34154     34156     34155     34159     34160
     34157     34155     34159     34160     34158     34155     34159     34160
     34162     34161     34165     34166     34163     34161     34165     34166
     34164     34161     34165     34166     34168     34167     34171     34172
     34169     34167     34171     34172     34170     34167     34171     34172
     34174     34173     34177     34178     34175     34173     34177     34178
     34176     34173     34177     34178     34180     34179     34183     34184
     34181     34179     34183     34184     34182     34179     34183     34184
     34186     34185     34189     34190     34187     34185     34189     34190
     34188     34185     34189     34190     34192     34191     34195     34196
     34193     34191     34195     34196     34194     34191     34195     34196
     34198     34197     34201     34202     34199     34197     34201     34202
     34200     34197     34201     34202     34204     34203     34207     34208
     34205     34203     34207     34208     34206     34203     34207     34208
     34210     34209     34213     34214     34211     34209     34213     34214
     34212     34209     34213     34214     34216     34215     34219     34220
     34217     34215     34219     34220     34218     34215     34219     34220
     34222     34221     34225     34226     34223     34221     34225     34226
     34224     34221     34225     34226     34228     34227     34231     34232
     34229     34227     34231     34232     34230     34227     34231     34232
     34234     34233     34237     34238     34235     34233     34237     34238
     34236     34233     34237     34238     34240     34239     34243     34244
     34241     34239     34243     34244     34242     34239     34243     34244
     34246     34245     34249     34250     34247     34245     34249     34250
     34248     34245     34249     34250     34252     34251     34255     34256
     34253     34251     34255     34256     34254     34251     34255     34256
     34258     34257     34261     34262     34259     34257     34261     34262
     34260     34257     34261     34262     34264     34263     34267     34268
     34265     34263     34267     34268     34266     34263     34267     34268
     34270     34269     34273     34274     34271     34269     34273     34274
     34272     34269     34273     34274     34276     34275     34279     34280
     34277     34275     34279     34280     34278     34275     34279     34280
     34282     34281     34285     34286     34283     34281     34285     34286
     34284     34281     34285     34286     34288     34287     34291     34292
     34289     34287     34291     34292     34290     34287     34291     34292
     34294     34293     34297     34298     34295     34293     34297     34298
     34296     34293     34297     34298     34300     34299     34303     34304
     34301     34299     34303     34304     34302     34299     34303     34304
     34306     34305     34309     34310     34307     34305     34309     34310
     34308     34305     34309     34310     34312     34311     34315     34316
     34313     34311     34315     34316     34314     34311     34315     34316
     34318     34317     34321     34322     34319     34317     34321     34322
     34320     34317     34321     34322     34324     34323     34327     34328
     34325     34323     34327     34328     34326     34323     34327     34328
     34330     34329     34333     34334     34331     34329     34333     34334
     34332     34329     34333     34334     34336     34335     34339     34340
     34337     34335     34339     34340     34338     34335     34339     34340
     34342     34341     34345     34346     34343     34341     34345     34346
     34344     34341     34345     34346     34348     34347     34351     34352
     34349     34347     34351     34352     34350     34347     34351     34352
     34354     34353     34357     34358     34355     34353     34357     34358
     34356     34353     34357     34358     34360     34359     34363     34364
     34361     34359     34363     34364     34362     34359     34363     34364
     34366     34365     34369     34370     34367     34365     34369     34370
     34368     34365     34369     34370     34372     34371     34375     34376
     34373     34371     34375     34376     34374     34371     34375     34376
     34378     34377     34381     34382     34379     34377     34381     34382
     34380     34377     34381     34382     34384     34383     34387     34388
     34385     34383     34387     34388     34386     34383     34387     34388
     34390     34389     34393     34394     34391     34389     34393     34394
     34392     34389     34393     34394     34396     34395     34399     34400
     34397     34395     34399     34400     34398     34395     34399     34400
     34402     34401     34405     34406     34403     34401     34405     34406
     34404     34401     34405     34406     34408     34407     34411     34412
     34409     34407     34411     34412     34410     34407     34411     34412
     34414     34413     34417     34418     34415     34413     34417     34418
     34416     34413     34417     34418     34420     34419     34423     34424
     34421     34419     34423     34424     34422     34419     34423     34424
     34426     34425     34429     34430     34427     34425     34429     34430
     34428     34425     34429     34430     34432     34431     34435     34436
     34433     34431     34435     34436     34434     34431     34435     34436
     34438     34437     34441     34442     34439     34437     34441     34442
     34440     34437     34441     34442     34444     34443     34447     34448
     34445     34443     34447     34448     34446     34443     34447     34448
     34450     34449     34453     34454     34451     34449     34453     34454
     34452     34449     34453     34454     34456     34455     34459     34460
     34457     34455     34459     34460     34458     34455     34459     34460
     34462     34461     34465     34466     34463     34461     34465     34466
     34464     34461     34465     34466     34468     34467     34471     34472
     34469     34467     34471     34472     34470     34467     34471     34472
     34474     34473     34477     34478     34475     34473     34477     34478
     34476     34473     34477     34478     34480     34479     34483     34484
     34481     34479     34483     34484     34482     34479     34483     34484
     34486     34485     34489     34490     34487     34485     34489     34490
     34488     34485     34489     34490     34492     34491     34495     34496
     34493     34491     34495     34496     34494     34491     34495     34496
     34498     34497     34501     34502     34499     34497     34501     34502
     34500     34497     34501     34502     34504     34503     34507     34508
     34505     34503     34507     34508     34506     34503     34507     34508
     34510     34509     34513     34514     34511     34509     34513     34514
     34512     34509     34513     34514     34516     34515     34519     34520
     34517     34515     34519     34520     34518     34515     34519     34520
     34522     34521     34525     34526     34523     34521     34525     34526
     34524     34521     34525     34526     34528     34527     34531     34532
     34529     34527     34531     34532     34530     34527     34531     34532
     34534     34533     34537     34538     34535     34533     34537     34538
     34536     34533     34537     34538     34540     34539     34543     34544
     34541     34539     34543     34544     34542     34539     34543     34544
     34546     34545     34549     34550     34547     34545     34549     34550
     34548     34545     34549     34550     34552     34551     34555     34556
     34553     34551     34555     34556     34554     34551     34555     34556
     34558     34557     34561     34562     34559     34557     34561     34562
     34560     34557     34561     34562     34564     34563     34567     34568
     34565     34563     34567     34568     34566     34563     34567     34568
     34570     34569     34573     34574     34571     34569     34573     34574
     34572     34569     34573     34574     34576     34575     34579     34580
     34577     34575     34579     34580     34578     34575     34579     34580
     34582     34581     34585     34586     34583     34581     34585     34586
     34584     34581     34585     34586     34588     34587     34591     34592
     34589     34587     34591     34592     34590     34587     34591     34592
     34594     34593     34597     34598     34595     34593     34597     34598
     34596     34593     34597     34598     34600     34599     34603     34604
     34601     34599     34603     34604     34602     34599     34603     34604
     34606     34605     34609     34610     34607     34605     34609     34610
     34608     34605     34609     34610     34612     34611     34615     34616
     34613     34611     34615     34616     34614     34611     34615     34616
     34618     34617     34621     34622     34619     34617     34621     34622
     34620     34617     34621     34622     34624     34623     34627     34628
     34625     34623     34627     34628     34626     34623     34627     34628
     34630     34629     34633     34634     34631     34629     34633     34634
     34632     34629     34633     34634     34636     34635     34639     34640
     34637     34635     34639     34640     34638     34635     34639     34640
     34642     34641     34645     34646     34643     34641     34645     34646
     34644     34641     34645     34646     34648     34647     34651     34652
     34649     34647     34651     34652     34650     34647     34651     34652
     34654     34653     34657     34658     34655     34653     34657     34658
     34656     34653     34657     34658     34660     34659     34663     34664
     34661     34659     34663     34664     34662     34659     34663     34664
     34666     34665     34669     34670     34667     34665     34669     34670
     34668     34665     34669     34670     34672     34671     34675     34676
     34673     34671     34675     34676     34674     34671     34675     34676
     34678     34677     34681     34682     34679     34677     34681     34682
     34680     34677     34681     34682     34684     34683     34687     34688
     34685     34683     34687     34688     34686     34683     34687     34688
     34690     34689     34693     34694     34691     34689     34693     34694
     34692     34689     34693     34694     34696     34695     34699     34700
     34697     34695     34699     34700     34698     34695     34699     34700
     34702     34701     34705     34706     34703     34701     34705     34706
     34704     34701     34705     34706     34708     34707     34711     34712
     34709     34707     34711     34712     34710     34707     34711     34712
     34714     34713     34717     34718     34715     34713     34717     34718
     34716     34713     34717     34718     34720     34719     34723     34724
     34721     34719     34723     34724     34722     34719     34723     34724
     34726     34725     34729     34730     34727     34725     34729     34730
     34728     34725     34729     34730     34732     34731     34735     34736
     34733     34731     34735     34736     34734     34731     34735     34736
     34738     34737     34741     34742     34739     34737     34741     34742
     34740     34737     34741     34742     34744     34743     34747     34748
     34745     34743     34747     34748     34746     34743     34747     34748
     34750     34749     34753     34754     34751     34749     34753     34754
     34752     34749     34753     34754     34756     34755     34759     34760
     34757     34755     34759     34760     34758     34755     34759     34760
     34762     34761     34765     34766     34763     34761     34765     34766
     34764     34761     34765     34766     34768     34767     34771     34772
     34769     34767     34771     34772     34770     34767     34771     34772
     34774     34773     34777     34778     34775     34773     34777     34778
     34776     34773     34777     34778     34780     34779     34783     34784
     34781     34779     34783     34784     34782     34779     34783     34784
     34786     34785     34789     34790     34787     34785     34789     34790
     34788     34785     34789     34790     34792     34791     34795     34796
     34793     34791     34795     34796     34794     34791     34795     34796
     34798     34797     34801     34802     34799     34797     34801     34802
     34800     34797     34801     34802     34804     34803     34807     34808
     34805     34803     34807     34808     34806     34803     34807     34808
     34810     34809     34813     34814     34811     34809     34813     34814
     34812     34809     34813     34814     34816     34815     34819     34820
     34817     34815     34819     34820     34818     34815     34819     34820
     34822     34821     34825     34826     34823     34821     34825     34826
     34824     34821     34825     34826     34828     34827     34831     34832
     34829     34827     34831     34832     34830     34827     34831     34832
     34834     34833     34837     34838     34835     34833     34837     34838
     34836     34833     34837     34838     34840     34839     34843     34844
     34841     34839     34843     34844     34842     34839     34843     34844
     34846     34845     34849     34850     34847     34845     34849     34850
     34848     34845     34849     34850     34852     34851     34855     34856
     34853     34851     34855     34856     34854     34851     34855     34856
     34858     34857     34861     34862     34859     34857     34861     34862
     34860     34857     34861     34862     34864     34863     34867     34868
     34865     34863     34867     34868     34866     34863     34867     34868
     34870     34869     34873     34874     34871     34869     34873     34874
     34872     34869     34873     34874     34876     34875     34879     34880
     34877     34875     34879     34880     34878     34875     34879     34880
     34882     34881     34885     34886     34883     34881     34885     34886
     34884     34881     34885     34886     34888     34887     34891     34892
     34889     34887     34891     34892     34890     34887     34891     34892
     34894     34893     34897     34898     34895     34893     34897     34898
     34896     34893     34897     34898     34900     34899     34903     34904
     34901     34899     34903     34904     34902     34899     34903     34904
     34906     34905     34909     34910     34907     34905     34909     34910
     34908     34905     34909     34910     34912     34911     34915     34916
     34913     34911     34915     34916     34914     34911     34915     34916
     34918     34917     34921     34922     34919     34917     34921     34922
     34920     34917     34921     34922     34924     34923     34927     34928
     34925     34923     34927     34928     34926     34923     34927     34928
     34930     34929     34933     34934     34931     34929     34933     34934
     34932     34929     34933     34934     34936     34935     34939     34940
     34937     34935     34939     34940     34938     34935     34939     34940
     34942     34941     34945     34946     34943     34941     34945     34946
     34944     34941     34945     34946     34948     34947     34951     34952
     34949     34947     34951     34952     34950     34947     34951     34952
     34954     34953     34957     34958     34955     34953     34957     34958
     34956     34953     34957     34958     34960     34959     34963     34964
     34961     34959     34963     34964     34962     34959     34963     34964
     34966     34965     34969     34970     34967     34965     34969     34970
     34968     34965     34969     34970     34972     34971     34975     34976
     34973     34971     34975     34976     34974     34971     34975     34976
     34978     34977     34981     34982     34979     34977     34981     34982
     34980     34977     34981     34982     34984     34983     34987     34988
     34985     34983     34987     34988     34986     34983     34987     34988
     34990     34989     34993     34994     34991     34989     34993     34994
     34992     34989     34993     34994     34996     34995     34999     35000
     34997     34995     34999     35000     34998     34995     34999     35000
     35002     35001     35005     35006     35003     35001     35005     35006
     35004     35001     35005     35006     35008     35007     35011     35012
     35009     35007     35011     35012     35010     35007     35011     35012
     35014     35013     35017     35018     35015     35013     35017     35018
     35016     35013     35017     35018     35020     35019     35023     35024
     35021     35019     35023     35024     35022     35019     35023     35024
     35026     35025     35029     35030     35027     35025     35029     35030
     35028     35025     35029     35030     35032     35031     35035     35036
     35033     35031     35035     35036     35034     35031     35035     35036
     35038     35037     35041     35042     35039     35037     35041     35042
     35040     35037     35041     35042     35044     35043     35047     35048
     35045     35043     35047     35048     35046     35043     35047     35048
     35050     35049     35053     35054     35051     35049     35053     35054
     35052     35049     35053     35054     35056     35055     35059     35060
     35057     35055     35059     35060     35058     35055     35059     35060
     35062     35061     35065     35066     35063     35061     35065     35066
     35064     35061     35065     35066     35068     35067     35071     35072
     35069     35067     35071     35072     35070     35067     35071     35072
     35074     35073     35077     35078     35075     35073     35077     35078
     35076     35073     35077     35078     35080     35079     35083     35084
     35081     35079     35083     35084     35082     35079     35083     35084
     35086     35085     35089     35090     35087     35085     35089     35090
     35088     35085     35089     35090     35092     35091     35095     35096
     35093     35091     35095     35096     35094     35091     35095     35096
     35098     35097     35101     35102     35099     35097     35101     35102
     35100     35097     35101     35102     35104     35103     35107     35108
     35105     35103     35107     35108     35106     35103     35107     35108
     35110     35109     35113     35114     35111     35109     35113     35114
     35112     35109     35113     35114     35116     35115     35119     35120
     35117     35115     35119     35120     35118     35115     35119     35120
     35122     35121     35125     35126     35123     35121     35125     35126
     35124     35121     35125     35126     35128     35127     35131     35132
     35129     35127     35131     35132     35130     35127     35131     35132
     35134     35133     35137     35138     35135     35133     35137     35138
     35136     35133     35137     35138     35140     35139     35143     35144
     35141     35139     35143     35144     35142     35139     35143     35144
     35146     35145     35149     35150     35147     35145     35149     35150
     35148     35145     35149     35150     35152     35151     35155     35156
     35153     35151     35155     35156     35154     35151     35155     35156
     35158     35157     35161     35162     35159     35157     35161     35162
     35160     35157     35161     35162     35164     35163     35167     35168
     35165     35163     35167     35168     35166     35163     35167     35168
     35170     35169     35173     35174     35171     35169     35173     35174
     35172     35169     35173     35174     35176     35175     35179     35180
     35177     35175     35179     35180     35178     35175     35179     35180
     35182     35181     35185     35186     35183     35181     35185     35186
     35184     35181     35185     35186     35188     35187     35191     35192
     35189     35187     35191     35192     35190     35187     35191     35192
     35194     35193     35197     35198     35195     35193     35197     35198
     35196     35193     35197     35198     35200     35199     35203     35204
     35201     35199     35203     35204     35202     35199     35203     35204
     35206     35205     35209     35210     35207     35205     35209     35210
     35208     35205     35209     35210     35212     35211     35215     35216
     35213     35211     35215     35216     35214     35211     35215     35216
     35218     35217     35221     35222     35219     35217     35221     35222
     35220     35217     35221     35222     35224     35223     35227     35228
     35225     35223     35227     35228     35226     35223     35227     35228
     35230     35229     35233     35234     35231     35229     35233     35234
     35232     35229     35233     35234     35236     35235     35239     35240
     35237     35235     35239     35240     35238     35235     35239     35240
     35242     35241     35245     35246     35243     35241     35245     35246
     35244     35241     35245     35246     35248     35247     35251     35252
     35249     35247     35251     35252     35250     35247     35251     35252
     35254     35253     35257     35258     35255     35253     35257     35258
     35256     35253     35257     35258     35260     35259     35263     35264
     35261     35259     35263     35264     35262     35259     35263     35264
     35266     35265     35269     35270     35267     35265     35269     35270
     35268     35265     35269     35270     35272     35271     35275     35276
     35273     35271     35275     35276     35274     35271     35275     35276
     35278     35277     35281     35282     35279     35277     35281     35282
     35280     35277     35281     35282     35284     35283     35287     35288
     35285     35283     35287     35288     35286     35283     35287     35288
     35290     35289     35293     35294     35291     35289     35293     35294
     35292     35289     35293     35294     35296     35295     35299     35300
     35297     35295     35299     35300     35298     35295     35299     35300
     35302     35301     35305     35306     35303     35301     35305     35306
     35304     35301     35305     35306     35308     35307     35311     35312
     35309     35307     35311     35312     35310     35307     35311     35312
     35314     35313     35317     35318     35315     35313     35317     35318
     35316     35313     35317     35318     35320     35319     35323     35324
     35321     35319     35323     35324     35322     35319     35323     35324
     35326     35325     35329     35330     35327     35325     35329     35330
     35328     35325     35329     35330     35332     35331     35335     35336
     35333     35331     35335     35336     35334     35331     35335     35336
     35338     35337     35341     35342     35339     35337     35341     35342
     35340     35337     35341     35342     35344     35343     35347     35348
     35345     35343     35347     35348     35346     35343     35347     35348
     35350     35349     35353     35354     35351     35349     35353     35354
     35352     35349     35353     35354     35356     35355     35359     35360
     35357     35355     35359     35360     35358     35355     35359     35360
     35362     35361     35365     35366     35363     35361     35365     35366
     35364     35361     35365     35366     35368     35367     35371     35372
     35369     35367     35371     35372     35370     35367     35371     35372
     35374     35373     35377     35378     35375     35373     35377     35378
     35376     35373     35377     35378     35380     35379     35383     35384
     35381     35379     35383     35384     35382     35379     35383     35384
     35386     35385     35389     35390     35387     35385     35389     35390
     35388     35385     35389     35390     35392     35391     35395     35396
     35393     35391     35395     35396     35394     35391     35395     35396
     35398     35397     35401     35402     35399     35397     35401     35402
     35400     35397     35401     35402     35404     35403     35407     35408
     35405     35403     35407     35408     35406     35403     35407     35408
     35410     35409     35413     35414     35411     35409     35413     35414
     35412     35409     35413     35414     35416     35415     35419     35420
     35417     35415     35419     35420     35418     35415     35419     35420
     35422     35421     35425     35426     35423     35421     35425     35426
     35424     35421     35425     35426     35428     35427     35431     35432
     35429     35427     35431     35432     35430     35427     35431     35432
     35434     35433     35437     35438     35435     35433     35437     35438
     35436     35433     35437     35438     35440     35439     35443     35444
     35441     35439     35443     35444     35442     35439     35443     35444
     35446     35445     35449     35450     35447     35445     35449     35450
     35448     35445     35449     35450     35452     35451     35455     35456
     35453     35451     35455     35456     35454     35451     35455     35456
     35458     35457     35461     35462     35459     35457     35461     35462
     35460     35457     35461     35462     35464     35463     35467     35468
     35465     35463     35467     35468     35466     35463     35467     35468
     35470     35469     35473     35474     35471     35469     35473     35474
     35472     35469     35473     35474     35476     35475     35479     35480
     35477     35475     35479     35480     35478     35475     35479     35480
     35482     35481     35485     35486     35483     35481     35485     35486
     35484     35481     35485     35486     35488     35487     35491     35492
     35489     35487     35491     35492     35490     35487     35491     35492
     35494     35493     35497     35498     35495     35493     35497     35498
     35496     35493     35497     35498     35500     35499     35503     35504
     35501     35499     35503     35504     35502     35499     35503     35504
     35506     35505     35509     35510     35507     35505     35509     35510
     35508     35505     35509     35510     35512     35511     35515     35516
     35513     35511     35515     35516     35514     35511     35515     35516
     35518     35517     35521     35522     35519     35517     35521     35522
     35520     35517     35521     35522     35524     35523     35527     35528
     35525     35523     35527     35528     35526     35523     35527     35528
     35530     35529     35533     35534     35531     35529     35533     35534
     35532     35529     35533     35534     35536     35535     35539     35540
     35537     35535     35539     35540     35538     35535     35539     35540
     35542     35541     35545     35546     35543     35541     35545     35546
     35544     35541     35545     35546     35548     35547     35551     35552
     35549     35547     35551     35552     35550     35547     35551     35552
     35554     35553     35557     35558     35555     35553     35557     35558
     35556     35553     35557     35558     35560     35559     35563     35564
     35561     35559     35563     35564     35562     35559     35563     35564
     35566     35565     35569     35570     35567     35565     35569     35570
     35568     35565     35569     35570     35572     35571     35575     35576
     35573     35571     35575     35576     35574     35571     35575     35576
     35578     35577     35581     35582     35579     35577     35581     35582
     35580     35577     35581     35582     35584     35583     35587     35588
     35585     35583     35587     35588     35586     35583     35587     35588
     35590     35589     35593     35594     35591     35589     35593     35594
     35592     35589     35593     35594     35596     35595     35599     35600
     35597     35595     35599     35600     35598     35595     35599     35600
     35602     35601     35605     35606     35603     35601     35605     35606
     35604     35601     35605     35606     35608     35607     35611     35612
     35609     35607     35611     35612     35610     35607     35611     35612
     35614     35613     35617     35618     35615     35613     35617     35618
     35616     35613     35617     35618     35620     35619     35623     35624
     35621     35619     35623     35624     35622     35619     35623     35624
     35626     35625     35629     35630     35627     35625     35629     35630
     35628     35625     35629     35630     35632     35631     35635     35636
     35633     35631     35635     35636     35634     35631     35635     35636
     35638     35637     35641     35642     35639     35637     35641     35642
     35640     35637     35641     35642     35644     35643     35647     35648
     35645     35643     35647     35648     35646     35643     35647     35648
     35650     35649     35653     35654     35651     35649     35653     35654
     35652     35649     35653     35654     35656     35655     35659     35660
     35657     35655     35659     35660     35658     35655     35659     35660
     35662     35661     35665     35666     35663     35661     35665     35666
     35664     35661     35665     35666     35668     35667     35671     35672
     35669     35667     35671     35672     35670     35667     35671     35672
     35674     35673     35677     35678     35675     35673     35677     35678
     35676     35673     35677     35678     35680     35679     35683     35684
     35681     35679     35683     35684     35682     35679     35683     35684
     35686     35685     35689     35690     35687     35685     35689     35690
     35688     35685     35689     35690     35692     35691     35695     35696
     35693     35691     35695     35696     35694     35691     35695     35696
     35698     35697     35701     35702     35699     35697     35701     35702
     35700     35697     35701     35702     35704     35703     35707     35708
     35705     35703     35707     35708     35706     35703     35707     35708
     35710     35709     35713     35714     35711     35709     35713     35714
     35712     35709     35713     35714     35716     35715     35719     35720
     35717     35715     35719     35720     35718     35715     35719     35720
     35722     35721     35725     35726     35723     35721     35725     35726
     35724     35721     35725     35726     35728     35727     35731     35732
     35729     35727     35731     35732     35730     35727     35731     35732
     35734     35733     35737     35738     35735     35733     35737     35738
     35736     35733     35737     35738     35740     35739     35743     35744
     35741     35739     35743     35744     35742     35739     35743     35744
     35746     35745     35749     35750     35747     35745     35749     35750
     35748     35745     35749     35750     35752     35751     35755     35756
     35753     35751     35755     35756     35754     35751     35755     35756
     35758     35757     35761     35762     35759     35757     35761     35762
     35760     35757     35761     35762     35764     35763     35767     35768
     35765     35763     35767     35768     35766     35763     35767     35768
     35770     35769     35773     35774     35771     35769     35773     35774
     35772     35769     35773     35774     35776     35775     35779     35780
     35777     35775     35779     35780     35778     35775     35779     35780
     35782     35781     35785     35786     35783     35781     35785     35786
     35784     35781     35785     35786     35788     35787     35791     35792
     35789     35787     35791     35792     35790     35787     35791     35792
     35794     35793     35797     35798     35795     35793     35797     35798
     35796     35793     35797     35798     35800     35799     35803     35804
     35801     35799     35803     35804     35802     35799     35803     35804
     35806     35805     35809     35810     35807     35805     35809     35810
     35808     35805     35809     35810     35812     35811     35815     35816
     35813     35811     35815     35816     35814     35811     35815     35816
     35818     35817     35821     35822     35819     35817     35821     35822
     35820     35817     35821     35822     35824     35823     35827     35828
     35825     35823     35827     35828     35826     35823     35827     35828
     35830     35829     35833     35834     35831     35829     35833     35834
     35832     35829     35833     35834     35836     35835     35839     35840
     35837     35835     35839     35840     35838     35835     35839     35840
     35842     35841     35845     35846     35843     35841     35845     35846
     35844     35841     35845     35846     35848     35847     35851     35852
     35849     35847     35851     35852     35850     35847     35851     35852
     35854     35853     35857     35858     35855     35853     35857     35858
     35856     35853     35857     35858     35860     35859     35863     35864
     35861     35859     35863     35864     35862     35859     35863     35864
     35866     35865     35869     35870     35867     35865     35869     35870
     35868     35865     35869     35870     35872     35871     35875     35876
     35873     35871     35875     35876     35874     35871     35875     35876
     35878     35877     35881     35882     35879     35877     35881     35882
     35880     35877     35881     35882     35884     35883     35887     35888
     35885     35883     35887     35888     35886     35883     35887     35888
     35890     35889     35893     35894     35891     35889     35893     35894
     35892     35889     35893     35894     35896     35895     35899     35900
     35897     35895     35899     35900     35898     35895     35899     35900
     35902     35901     35905     35906     35903     35901     35905     35906
     35904     35901     35905     35906     35908     35907     35911     35912
     35909     35907     35911     35912     35910     35907     35911     35912
     35914     35913     35917     35918     35915     35913     35917     35918
     35916     35913     35917     35918     35920     35919     35923     35924
     35921     35919     35923     35924     35922     35919     35923     35924
     35926     35925     35929     35930     35927     35925     35929     35930
     35928     35925     35929     35930     35932     35931     35935     35936
     35933     35931     35935     35936     35934     35931     35935     35936
     35938     35937     35941     35942     35939     35937     35941     35942
     35940     35937     35941     35942     35944     35943     35947     35948
     35945     35943     35947     35948     35946     35943     35947     35948
     35950     35949     35953     35954     35951     35949     35953     35954
     35952     35949     35953     35954     35956     35955     35959     35960
     35957     35955     35959     35960     35958     35955     35959     35960
     35962     35961     35965     35966     35963     35961     35965     35966
     35964     35961     35965     35966     35968     35967     35971     35972
     35969     35967     35971     35972     35970     35967     35971     35972
     35974     35973     35977     35978     35975     35973     35977     35978
     35976     35973     35977     35978     35980     35979     35983     35984
     35981     35979     35983     35984     35982     35979     35983     35984
     35986     35985     35989     35990     35987     35985     35989     35990
     35988     35985     35989     35990     35992     35991     35995     35996
     35993     35991     35995     35996     35994     35991     35995     35996
     35998     35997     36001     36002     35999     35997     36001     36002
     36000     35997     36001     36002     36004     36003     36007     36008
     36005     36003     36007     36008     36006     36003     36007     36008
     36010     36009     36013     36014     36011     36009     36013     36014
     36012     36009     36013     36014     36016     36015     36019     36020
     36017     36015     36019     36020     36018     36015     36019     36020
     36022     36021     36025     36026     36023     36021     36025     36026
     36024     36021     36025     36026     36028     36027     36031     36032
     36029     36027     36031     36032     36030     36027     36031     36032
     36034     36033     36037     36038     36035     36033     36037     36038
     36036     36033     36037     36038     36040     36039     36043     36044
     36041     36039     36043     36044     36042     36039     36043     36044
     36046     36045     36049     36050     36047     36045     36049     36050
     36048     36045     36049     36050     36052     36051     36055     36056
     36053     36051     36055     36056     36054     36051     36055     36056
     36058     36057     36061     36062     36059     36057     36061     36062
     36060     36057     36061     36062     36064     36063     36067     36068
     36065     36063     36067     36068     36066     36063     36067     36068
     36070     36069     36073     36074     36071     36069     36073     36074
     36072     36069     36073     36074     36076     36075     36079     36080
     36077     36075     36079     36080     36078     36075     36079     36080
     36082     36081     36085     36086     36083     36081     36085     36086
     36084     36081     36085     36086     36088     36087     36091     36092
     36089     36087     36091     36092     36090     36087     36091     36092
     36094     36093     36097     36098     36095     36093     36097     36098
     36096     36093     36097     36098     36100     36099     36103     36104
     36101     36099     36103     36104     36102     36099     36103     36104
     36106     36105     36109     36110     36107     36105     36109     36110
     36108     36105     36109     36110     36112     36111     36115     36116
     36113     36111     36115     36116     36114     36111     36115     36116
     36118     36117     36121     36122     36119     36117     36121     36122
     36120     36117     36121     36122     36124     36123     36127     36128
     36125     36123     36127     36128     36126     36123     36127     36128
     36130     36129     36133     36134     36131     36129     36133     36134
     36132     36129     36133     36134     36136     36135     36139     36140
     36137     36135     36139     36140     36138     36135     36139     36140
     36142     36141     36145     36146     36143     36141     36145     36146
     36144     36141     36145     36146     36148     36147     36151     36152
     36149     36147     36151     36152     36150     36147     36151     36152
     36154     36153     36157     36158     36155     36153     36157     36158
     36156     36153     36157     36158     36160     36159     36163     36164
     36161     36159     36163     36164     36162     36159     36163     36164
     36166     36165     36169     36170     36167     36165     36169     36170
     36168     36165     36169     36170     36172     36171     36175     36176
     36173     36171     36175     36176     36174     36171     36175     36176
     36178     36177     36181     36182     36179     36177     36181     36182
     36180     36177     36181     36182     36184     36183     36187     36188
     36185     36183     36187     36188     36186     36183     36187     36188
     36190     36189     36193     36194     36191     36189     36193     36194
     36192     36189     36193     36194     36196     36195     36199     36200
     36197     36195     36199     36200     36198     36195     36199     36200
     36202     36201     36205     36206     36203     36201     36205     36206
     36204     36201     36205     36206     36208     36207     36211     36212
     36209     36207     36211     36212     36210     36207     36211     36212
     36214     36213     36217     36218     36215     36213     36217     36218
     36216     36213     36217     36218     36220     36219     36223     36224
     36221     36219     36223     36224     36222     36219     36223     36224
     36226     36225     36229     36230     36227     36225     36229     36230
     36228     36225     36229     36230     36232     36231     36235     36236
     36233     36231     36235     36236     36234     36231     36235     36236
     36238     36237     36241     36242     36239     36237     36241     36242
     36240     36237     36241     36242     36244     36243     36247     36248
     36245     36243     36247     36248     36246     36243     36247     36248
     36250     36249     36253     36254     36251     36249     36253     36254
     36252     36249     36253     36254     36256     36255     36259     36260
     36257     36255     36259     36260     36258     36255     36259     36260
     36262     36261     36265     36266     36263     36261     36265     36266
     36264     36261     36265     36266     36268     36267     36271     36272
     36269     36267     36271     36272     36270     36267     36271     36272
     36274     36273     36277     36278     36275     36273     36277     36278
     36276     36273     36277     36278     36280     36279     36283     36284
     36281     36279     36283     36284     36282     36279     36283     36284
     36286     36285     36289     36290     36287     36285     36289     36290
     36288     36285     36289     36290     36292     36291     36295     36296
     36293     36291     36295     36296     36294     36291     36295     36296
     36298     36297     36301     36302     36299     36297     36301     36302
     36300     36297     36301     36302     36304     36303     36307     36308
     36305     36303     36307     36308     36306     36303     36307     36308
     36310     36309     36313     36314     36311     36309     36313     36314
     36312     36309     36313     36314     36316     36315     36319     36320
     36317     36315     36319     36320     36318     36315     36319     36320
     36322     36321     36325     36326     36323     36321     36325     36326
     36324     36321     36325     36326     36328     36327     36331     36332
     36329     36327     36331     36332     36330     36327     36331     36332
     36334     36333     36337     36338     36335     36333     36337     36338
     36336     36333     36337     36338     36340     36339     36343     36344
     36341     36339     36343     36344     36342     36339     36343     36344
     36346     36345     36349     36350     36347     36345     36349     36350
     36348     36345     36349     36350     36352     36351     36355     36356
     36353     36351     36355     36356     36354     36351     36355     36356
     36358     36357     36361     36362     36359     36357     36361     36362
     36360     36357     36361     36362     36364     36363     36367     36368
     36365     36363     36367     36368     36366     36363     36367     36368
     36370     36369     36373     36374     36371     36369     36373     36374
     36372     36369     36373     36374     36376     36375     36379     36380
     36377     36375     36379     36380     36378     36375     36379     36380
     36382     36381     36385     36386     36383     36381     36385     36386
     36384     36381     36385     36386     36388     36387     36391     36392
     36389     36387     36391     36392     36390     36387     36391     36392
     36394     36393     36397     36398     36395     36393     36397     36398
     36396     36393     36397     36398     36400     36399     36403     36404
     36401     36399     36403     36404     36402     36399     36403     36404
     36406     36405     36409     36410     36407     36405     36409     36410
     36408     36405     36409     36410     36412     36411     36415     36416
     36413     36411     36415     36416     36414     36411     36415     36416
     36418     36417     36421     36422     36419     36417     36421     36422
     36420     36417     36421     36422     36424     36423     36427     36428
     36425     36423     36427     36428     36426     36423     36427     36428
     36430     36429     36433     36434     36431     36429     36433     36434
     36432     36429     36433     36434     36436     36435     36439     36440
     36437     36435     36439     36440     36438     36435     36439     36440
     36442     36441     36445     36446     36443     36441     36445     36446
     36444     36441     36445     36446     36448     36447     36451     36452
     36449     36447     36451     36452     36450     36447     36451     36452
     36454     36453     36457     36458     36455     36453     36457     36458
     36456     36453     36457     36458     36460     36459     36463     36464
     36461     36459     36463     36464     36462     36459     36463     36464
     36466     36465     36469     36470     36467     36465     36469     36470
     36468     36465     36469     36470     36472     36471     36475     36476
     36473     36471     36475     36476     36474     36471     36475     36476
     36478     36477     36481     36482     36479     36477     36481     36482
     36480     36477     36481     36482     36484     36483     36487     36488
     36485     36483     36487     36488     36486     36483     36487     36488
     36490     36489     36493     36494     36491     36489     36493     36494
     36492     36489     36493     36494     36496     36495     36499     36500
     36497     36495     36499     36500     36498     36495     36499     36500
     36502     36501     36505     36506     36503     36501     36505     36506
     36504     36501     36505     36506     36508     36507     36511     36512
     36509     36507     36511     36512     36510     36507     36511     36512
     36514     36513     36517     36518     36515     36513     36517     36518
     36516     36513     36517     36518     36520     36519     36523     36524
     36521     36519     36523     36524     36522     36519     36523     36524
     36526     36525     36529     36530     36527     36525     36529     36530
     36528     36525     36529     36530     36532     36531     36535     36536
     36533     36531     36535     36536     36534     36531     36535     36536
     36538     36537     36541     36542     36539     36537     36541     36542
     36540     36537     36541     36542     36544     36543     36547     36548
     36545     36543     36547     36548     36546     36543     36547     36548
     36550     36549     36553     36554     36551     36549     36553     36554
     36552     36549     36553     36554     36556     36555     36559     36560
     36557     36555     36559     36560     36558     36555     36559     36560
     36562     36561     36565     36566     36563     36561     36565     36566
     36564     36561     36565     36566     36568     36567     36571     36572
     36569     36567     36571     36572     36570     36567     36571     36572
     36574     36573     36577     36578     36575     36573     36577     36578
     36576     36573     36577     36578     36580     36579     36583     36584
     36581     36579     36583     36584     36582     36579     36583     36584
     36586     36585     36589     36590     36587     36585     36589     36590
     36588     36585     36589     36590     36592     36591     36595     36596
     36593     36591     36595     36596     36594     36591     36595     36596
     36598     36597     36601     36602     36599     36597     36601     36602
     36600     36597     36601     36602     36604     36603     36607     36608
     36605     36603     36607     36608     36606     36603     36607     36608
     36610     36609     36613     36614     36611     36609     36613     36614
     36612     36609     36613     36614     36616     36615     36619     36620
     36617     36615     36619     36620     36618     36615     36619     36620
     36622     36621     36625     36626     36623     36621     36625     36626
     36624     36621     36625     36626     36628     36627     36631     36632
     36629     36627     36631     36632     36630     36627     36631     36632
     36634     36633     36637     36638     36635     36633     36637     36638
     36636     36633     36637     36638     36640     36639     36643     36644
     36641     36639     36643     36644     36642     36639     36643     36644
     36646     36645     36649     36650     36647     36645     36649     36650
     36648     36645     36649     36650     36652     36651     36655     36656
     36653     36651     36655     36656     36654     36651     36655     36656
     36658     36657     36661     36662     36659     36657     36661     36662
     36660     36657     36661     36662     36664     36663     36667     36668
     36665     36663     36667     36668     36666     36663     36667     36668
     36670     36669     36673     36674     36671     36669     36673     36674
     36672     36669     36673     36674     36676     36675     36679     36680
     36677     36675     36679     36680     36678     36675     36679     36680
     36682     36681     36685     36686     36683     36681     36685     36686
     36684     36681     36685     36686     36688     36687     36691     36692
     36689     36687     36691     36692     36690     36687     36691     36692
     36694     36693     36697     36698     36695     36693     36697     36698
     36696     36693     36697     36698     36700     36699     36703     36704
     36701     36699     36703     36704     36702     36699     36703     36704
     36706     36705     36709     36710     36707     36705     36709     36710
     36708     36705     36709     36710     36712     36711     36715     36716
     36713     36711     36715     36716     36714     36711     36715     36716
     36718     36717     36721     36722     36719     36717     36721     36722
     36720     36717     36721     36722     36724     36723     36727     36728
     36725     36723     36727     36728     36726     36723     36727     36728
     36730     36729     36733     36734     36731     36729     36733     36734
     36732     36729     36733     36734     36736     36735     36739     36740
     36737     36735     36739     36740     36738     36735     36739     36740
     36742     36741     36745     36746     36743     36741     36745     36746
     36744     36741     36745     36746     36748     36747     36751     36752
     36749     36747     36751     36752     36750     36747     36751     36752
     36754     36753     36757     36758     36755     36753     36757     36758
     36756     36753     36757     36758     36760     36759     36763     36764
     36761     36759     36763     36764     36762     36759     36763     36764
     36766     36765     36769     36770     36767     36765     36769     36770
     36768     36765     36769     36770     36772     36771     36775     36776
     36773     36771     36775     36776     36774     36771     36775     36776
     36778     36777     36781     36782     36779     36777     36781     36782
     36780     36777     36781     36782     36784     36783     36787     36788
     36785     36783     36787     36788     36786     36783     36787     36788
     36790     36789     36793     36794     36791     36789     36793     36794
     36792     36789     36793     36794     36796     36795     36799     36800
     36797     36795     36799     36800     36798     36795     36799     36800
     36802     36801     36805     36806     36803     36801     36805     36806
     36804     36801     36805     36806     36808     36807     36811     36812
     36809     36807     36811     36812     36810     36807     36811     36812
     36814     36813     36817     36818     36815     36813     36817     36818
     36816     36813     36817     36818     36820     36819     36823     36824
     36821     36819     36823     36824     36822     36819     36823     36824
     36826     36825     36829     36830     36827     36825     36829     36830
     36828     36825     36829     36830     36832     36831     36835     36836
     36833     36831     36835     36836     36834     36831     36835     36836
     36838     36837     36841     36842     36839     36837     36841     36842
     36840     36837     36841     36842     36844     36843     36847     36848
     36845     36843     36847     36848     36846     36843     36847     36848
     36850     36849     36853     36854     36851     36849     36853     36854
     36852     36849     36853     36854     36856     36855     36859     36860
     36857     36855     36859     36860     36858     36855     36859     36860
     36862     36861     36865     36866     36863     36861     36865     36866
     36864     36861     36865     36866     36868     36867     36871     36872
     36869     36867     36871     36872     36870     36867     36871     36872
     36874     36873     36877     36878     36875     36873     36877     36878
     36876     36873     36877     36878     36880     36879     36883     36884
     36881     36879     36883     36884     36882     36879     36883     36884
     36886     36885     36889     36890     36887     36885     36889     36890
     36888     36885     36889     36890     36892     36891     36895     36896
     36893     36891     36895     36896     36894     36891     36895     36896
     36898     36897     36901     36902     36899     36897     36901     36902
     36900     36897     36901     36902     36904     36903     36907     36908
     36905     36903     36907     36908     36906     36903     36907     36908
     36910     36909     36913     36914     36911     36909     36913     36914
     36912     36909     36913     36914     36916     36915     36919     36920
     36917     36915     36919     36920     36918     36915     36919     36920
     36922     36921     36925     36926     36923     36921     36925     36926
     36924     36921     36925     36926     36928     36927     36931     36932
     36929     36927     36931     36932     36930     36927     36931     36932
     36934     36933     36937     36938     36935     36933     36937     36938
     36936     36933     36937     36938     36940     36939     36943     36944
     36941     36939     36943     36944     36942     36939     36943     36944
     36946     36945     36949     36950     36947     36945     36949     36950
     36948     36945     36949     36950     36952     36951     36955     36956
     36953     36951     36955     36956     36954     36951     36955     36956
     36958     36957     36961     36962     36959     36957     36961     36962
     36960     36957     36961     36962     36964     36963     36967     36968
     36965     36963     36967     36968     36966     36963     36967     36968
     36970     36969     36973     36974     36971     36969     36973     36974
     36972     36969     36973     36974     36976     36975     36979     36980
     36977     36975     36979     36980     36978     36975     36979     36980
     36982     36981     36985     36986     36983     36981     36985     36986
     36984     36981     36985     36986     36988     36987     36991     36992
     36989     36987     36991     36992     36990     36987     36991     36992
     36994     36993     36997     36998     36995     36993     36997     36998
     36996     36993     36997     36998     37000     36999     37003     37004
     37001     36999     37003     37004     37002     36999     37003     37004
     37006     37005     37009     37010     37007     37005     37009     37010
     37008     37005     37009     37010     37012     37011     37015     37016
     37013     37011     37015     37016     37014     37011     37015     37016
     37018     37017     37021     37022     37019     37017     37021     37022
     37020     37017     37021     37022     37024     37023     37027     37028
     37025     37023     37027     37028     37026     37023     37027     37028
     37030     37029     37033     37034     37031     37029     37033     37034
     37032     37029     37033     37034     37036     37035     37039     37040
     37037     37035     37039     37040     37038     37035     37039     37040
     37042     37041     37045     37046     37043     37041     37045     37046
     37044     37041     37045     37046     37048     37047     37051     37052
     37049     37047     37051     37052     37050     37047     37051     37052
     37054     37053     37057     37058     37055     37053     37057     37058
     37056     37053     37057     37058     37060     37059     37063     37064
     37061     37059     37063     37064     37062     37059     37063     37064
     37066     37065     37069     37070     37067     37065     37069     37070
     37068     37065     37069     37070     37072     37071     37075     37076
     37073     37071     37075     37076     37074     37071     37075     37076
     37078     37077     37081     37082     37079     37077     37081     37082
     37080     37077     37081     37082     37084     37083     37087     37088
     37085     37083     37087     37088     37086     37083     37087     37088
     37090     37089     37093     37094     37091     37089     37093     37094
     37092     37089     37093     37094     37096     37095     37099     37100
     37097     37095     37099     37100     37098     37095     37099     37100
     37102     37101     37105     37106     37103     37101     37105     37106
     37104     37101     37105     37106     37108     37107     37111     37112
     37109     37107     37111     37112     37110     37107     37111     37112
     37114     37113     37117     37118     37115     37113     37117     37118
     37116     37113     37117     37118     37120     37119     37123     37124
     37121     37119     37123     37124     37122     37119     37123     37124
     37126     37125     37129     37130     37127     37125     37129     37130
     37128     37125     37129     37130     37132     37131     37135     37136
     37133     37131     37135     37136     37134     37131     37135     37136
     37138     37137     37141     37142     37139     37137     37141     37142
     37140     37137     37141     37142     37144     37143     37147     37148
     37145     37143     37147     37148     37146     37143     37147     37148
     37150     37149     37153     37154     37151     37149     37153     37154
     37152     37149     37153     37154     37156     37155     37159     37160
     37157     37155     37159     37160     37158     37155     37159     37160
     37162     37161     37165     37166     37163     37161     37165     37166
     37164     37161     37165     37166     37168     37167     37171     37172
     37169     37167     37171     37172     37170     37167     37171     37172
     37174     37173     37177     37178     37175     37173     37177     37178
     37176     37173     37177     37178     37180     37179     37183     37184
     37181     37179     37183     37184     37182     37179     37183     37184
     37186     37185     37189     37190     37187     37185     37189     37190
     37188     37185     37189     37190     37192     37191     37195     37196
     37193     37191     37195     37196     37194     37191     37195     37196
     37198     37197     37201     37202     37199     37197     37201     37202
     37200     37197     37201     37202     37204     37203     37207     37208
     37205     37203     37207     37208     37206     37203     37207     37208
     37210     37209     37213     37214     37211     37209     37213     37214
     37212     37209     37213     37214     37216     37215     37219     37220
     37217     37215     37219     37220     37218     37215     37219     37220
     37222     37221     37225     37226     37223     37221     37225     37226
     37224     37221     37225     37226     37228     37227     37231     37232
     37229     37227     37231     37232     37230     37227     37231     37232
     37234     37233     37237     37238     37235     37233     37237     37238
     37236     37233     37237     37238     37240     37239     37243     37244
     37241     37239     37243     37244     37242     37239     37243     37244
     37246     37245     37249     37250     37247     37245     37249     37250
     37248     37245     37249     37250     37252     37251     37255     37256
     37253     37251     37255     37256     37254     37251     37255     37256
     37258     37257     37261     37262     37259     37257     37261     37262
     37260     37257     37261     37262     37264     37263     37267     37268
     37265     37263     37267     37268     37266     37263     37267     37268
     37270     37269     37273     37274     37271     37269     37273     37274
     37272     37269     37273     37274     37276     37275     37279     37280
     37277     37275     37279     37280     37278     37275     37279     37280
     37282     37281     37285     37286     37283     37281     37285     37286
     37284     37281     37285     37286     37288     37287     37291     37292
     37289     37287     37291     37292     37290     37287     37291     37292
     37294     37293     37297     37298     37295     37293     37297     37298
     37296     37293     37297     37298     37300     37299     37303     37304
     37301     37299     37303     37304     37302     37299     37303     37304
     37306     37305     37309     37310     37307     37305     37309     37310
     37308     37305     37309     37310     37312     37311     37315     37316
     37313     37311     37315     37316     37314     37311     37315     37316
     37318     37317     37321     37322     37319     37317     37321     37322
     37320     37317     37321     37322     37324     37323     37327     37328
     37325     37323     37327     37328     37326     37323     37327     37328
     37330     37329     37333     37334     37331     37329     37333     37334
     37332     37329     37333     37334     37336     37335     37339     37340
     37337     37335     37339     37340     37338     37335     37339     37340
     37342     37341     37345     37346     37343     37341     37345     37346
     37344     37341     37345     37346     37348     37347     37351     37352
     37349     37347     37351     37352     37350     37347     37351     37352
     37354     37353     37357     37358     37355     37353     37357     37358
     37356     37353     37357     37358     37360     37359     37363     37364
     37361     37359     37363     37364     37362     37359     37363     37364
     37366     37365     37369     37370     37367     37365     37369     37370
     37368     37365     37369     37370     37372     37371     37375     37376
     37373     37371     37375     37376     37374     37371     37375     37376
     37378     37377     37381     37382     37379     37377     37381     37382
     37380     37377     37381     37382     37384     37383     37387     37388
     37385     37383     37387     37388     37386     37383     37387     37388
     37390     37389     37393     37394     37391     37389     37393     37394
     37392     37389     37393     37394     37396     37395     37399     37400
     37397     37395     37399     37400     37398     37395     37399     37400
     37402     37401     37405     37406     37403     37401     37405     37406
     37404     37401     37405     37406     37408     37407     37411     37412
     37409     37407     37411     37412     37410     37407     37411     37412
     37414     37413     37417     37418     37415     37413     37417     37418
     37416     37413     37417     37418     37420     37419     37423     37424
     37421     37419     37423     37424     37422     37419     37423     37424
     37426     37425     37429     37430     37427     37425     37429     37430
     37428     37425     37429     37430     37432     37431     37435     37436
     37433     37431     37435     37436     37434     37431     37435     37436
     37438     37437     37441     37442     37439     37437     37441     37442
     37440     37437     37441     37442     37444     37443     37447     37448
     37445     37443     37447     37448     37446     37443     37447     37448
     37450     37449     37453     37454     37451     37449     37453     37454
     37452     37449     37453     37454     37456     37455     37459     37460
     37457     37455     37459     37460     37458     37455     37459     37460
     37462     37461     37465     37466     37463     37461     37465     37466
     37464     37461     37465     37466     37468     37467     37471     37472
     37469     37467     37471     37472     37470     37467     37471     37472
     37474     37473     37477     37478     37475     37473     37477     37478
     37476     37473     37477     37478     37480     37479     37483     37484
     37481     37479     37483     37484     37482     37479     37483     37484
     37486     37485     37489     37490     37487     37485     37489     37490
     37488     37485     37489     37490     37492     37491     37495     37496
     37493     37491     37495     37496     37494     37491     37495     37496
     37498     37497     37501     37502     37499     37497     37501     37502
     37500     37497     37501     37502     37504     37503     37507     37508
     37505     37503     37507     37508     37506     37503     37507     37508
     37510     37509     37513     37514     37511     37509     37513     37514
     37512     37509     37513     37514     37516     37515     37519     37520
     37517     37515     37519     37520     37518     37515     37519     37520
     37522     37521     37525     37526     37523     37521     37525     37526
     37524     37521     37525     37526     37528     37527     37531     37532
     37529     37527     37531     37532     37530     37527     37531     37532
     37534     37533     37537     37538     37535     37533     37537     37538
     37536     37533     37537     37538     37540     37539     37543     37544
     37541     37539     37543     37544     37542     37539     37543     37544
     37546     37545     37549     37550     37547     37545     37549     37550
     37548     37545     37549     37550     37552     37551     37555     37556
     37553     37551     37555     37556     37554     37551     37555     37556
     37558     37557     37561     37562     37559     37557     37561     37562
     37560     37557     37561     37562     37564     37563     37567     37568
     37565     37563     37567     37568     37566     37563     37567     37568
     37570     37569     37573     37574     37571     37569     37573     37574
     37572     37569     37573     37574     37576     37575     37579     37580
     37577     37575     37579     37580     37578     37575     37579     37580
     37582     37581     37585     37586     37583     37581     37585     37586
     37584     37581     37585     37586     37588     37587     37591     37592
     37589     37587     37591     37592     37590     37587     37591     37592
     37594     37593     37597     37598     37595     37593     37597     37598
     37596     37593     37597     37598     37600     37599     37603     37604
     37601     37599     37603     37604     37602     37599     37603     37604
     37606     37605     37609     37610     37607     37605     37609     37610
     37608     37605     37609     37610     37612     37611     37615     37616
     37613     37611     37615     37616     37614     37611     37615     37616
     37618     37617     37621     37622     37619     37617     37621     37622
     37620     37617     37621     37622     37624     37623     37627     37628
     37625     37623     37627     37628     37626     37623     37627     37628
     37630     37629     37633     37634     37631     37629     37633     37634
     37632     37629     37633     37634     37636     37635     37639     37640
     37637     37635     37639     37640     37638     37635     37639     37640
     37642     37641     37645     37646     37643     37641     37645     37646
     37644     37641     37645     37646     37648     37647     37651     37652
     37649     37647     37651     37652     37650     37647     37651     37652
     37654     37653     37657     37658     37655     37653     37657     37658
     37656     37653     37657     37658     37660     37659     37663     37664
     37661     37659     37663     37664     37662     37659     37663     37664
     37666     37665     37669     37670     37667     37665     37669     37670
     37668     37665     37669     37670     37672     37671     37675     37676
     37673     37671     37675     37676     37674     37671     37675     37676
     37678     37677     37681     37682     37679     37677     37681     37682
     37680     37677     37681     37682     37684     37683     37687     37688
     37685     37683     37687     37688     37686     37683     37687     37688
     37690     37689     37693     37694     37691     37689     37693     37694
     37692     37689     37693     37694     37696     37695     37699     37700
     37697     37695     37699     37700     37698     37695     37699     37700
     37702     37701     37705     37706     37703     37701     37705     37706
     37704     37701     37705     37706     37708     37707     37711     37712
     37709     37707     37711     37712     37710     37707     37711     37712
     37714     37713     37717     37718     37715     37713     37717     37718
     37716     37713     37717     37718     37720     37719     37723     37724
     37721     37719     37723     37724     37722     37719     37723     37724
     37726     37725     37729     37730     37727     37725     37729     37730
     37728     37725     37729     37730     37732     37731     37735     37736
     37733     37731     37735     37736     37734     37731     37735     37736
     37738     37737     37741     37742     37739     37737     37741     37742
     37740     37737     37741     37742     37744     37743     37747     37748
     37745     37743     37747     37748     37746     37743     37747     37748
     37750     37749     37753     37754     37751     37749     37753     37754
     37752     37749     37753     37754     37756     37755     37759     37760
     37757     37755     37759     37760     37758     37755     37759     37760
     37762     37761     37765     37766     37763     37761     37765     37766
     37764     37761     37765     37766     37768     37767     37771     37772
     37769     37767     37771     37772     37770     37767     37771     37772
     37774     37773     37777     37778     37775     37773     37777     37778
     37776     37773     37777     37778     37780     37779     37783     37784
     37781     37779     37783     37784     37782     37779     37783     37784
     37786     37785     37789     37790     37787     37785     37789     37790
     37788     37785     37789     37790     37792     37791     37795     37796
     37793     37791     37795     37796     37794     37791     37795     37796
     37798     37797     37801     37802     37799     37797     37801     37802
     37800     37797     37801     37802     37804     37803     37807     37808
     37805     37803     37807     37808     37806     37803     37807     37808
     37810     37809     37813     37814     37811     37809     37813     37814
     37812     37809     37813     37814     37816     37815     37819     37820
     37817     37815     37819     37820     37818     37815     37819     37820
     37822     37821     37825     37826     37823     37821     37825     37826
     37824     37821     37825     37826     37828     37827     37831     37832
     37829     37827     37831     37832     37830     37827     37831     37832
     37834     37833     37837     37838     37835     37833     37837     37838
     37836     37833     37837     37838     37840     37839     37843     37844
     37841     37839     37843     37844     37842     37839     37843     37844
     37846     37845     37849     37850     37847     37845     37849     37850
     37848     37845     37849     37850     37852     37851     37855     37856
     37853     37851     37855     37856     37854     37851     37855     37856
     37858     37857     37861     37862     37859     37857     37861     37862
     37860     37857     37861     37862     37864     37863     37867     37868
     37865     37863     37867     37868     37866     37863     37867     37868
     37870     37869     37873     37874     37871     37869     37873     37874
     37872     37869     37873     37874     37876     37875     37879     37880
     37877     37875     37879     37880     37878     37875     37879     37880
     37882     37881     37885     37886     37883     37881     37885     37886
     37884     37881     37885     37886     37888     37887     37891     37892
     37889     37887     37891     37892     37890     37887     37891     37892
     37894     37893     37897     37898     37895     37893     37897     37898
     37896     37893     37897     37898     37900     37899     37903     37904
     37901     37899     37903     37904     37902     37899     37903     37904
     37906     37905     37909     37910     37907     37905     37909     37910
     37908     37905     37909     37910     37912     37911     37915     37916
     37913     37911     37915     37916     37914     37911     37915     37916
     37918     37917     37921     37922     37919     37917     37921     37922
     37920     37917     37921     37922     37924     37923     37927     37928
     37925     37923     37927     37928     37926     37923     37927     37928
     37930     37929     37933     37934     37931     37929     37933     37934
     37932     37929     37933     37934     37936     37935     37939     37940
     37937     37935     37939     37940     37938     37935     37939     37940
     37942     37941     37945     37946     37943     37941     37945     37946
     37944     37941     37945     37946     37948     37947     37951     37952
     37949     37947     37951     37952     37950     37947     37951     37952
     37954     37953     37957     37958     37955     37953     37957     37958
     37956     37953     37957     37958     37960     37959     37963     37964
     37961     37959     37963     37964     37962     37959     37963     37964
     37966     37965     37969     37970     37967     37965     37969     37970
     37968     37965     37969     37970     37972     37971     37975     37976
     37973     37971     37975     37976     37974     37971     37975     37976
     37978     37977     37981     37982     37979     37977     37981     37982
     37980     37977     37981     37982     37984     37983     37987     37988
     37985     37983     37987     37988     37986     37983     37987     37988
     37990     37989     37993     37994     37991     37989     37993     37994
     37992     37989     37993     37994     37996     37995     37999     38000
     37997     37995     37999     38000     37998     37995     37999     38000
     38002     38001     38005     38006     38003     38001     38005     38006
     38004     38001     38005     38006     38008     38007     38011     38012
     38009     38007     38011     38012     38010     38007     38011     38012
     38014     38013     38017     38018     38015     38013     38017     38018
     38016     38013     38017     38018     38020     38019     38023     38024
     38021     38019     38023     38024     38022     38019     38023     38024
     38026     38025     38029     38030     38027     38025     38029     38030
     38028     38025     38029     38030     38032     38031     38035     38036
     38033     38031     38035     38036     38034     38031     38035     38036
     38038     38037     38041     38042     38039     38037     38041     38042
     38040     38037     38041     38042     38044     38043     38047     38048
     38045     38043     38047     38048     38046     38043     38047     38048
     38050     38049     38053     38054     38051     38049     38053     38054
     38052     38049     38053     38054     38056     38055     38059     38060
     38057     38055     38059     38060     38058     38055     38059     38060
     38062     38061     38065     38066     38063     38061     38065     38066
     38064     38061     38065     38066     38068     38067     38071     38072
     38069     38067     38071     38072     38070     38067     38071     38072
     38074     38073     38077     38078     38075     38073     38077     38078
     38076     38073     38077     38078     38080     38079     38083     38084
     38081     38079     38083     38084     38082     38079     38083     38084
     38086     38085     38089     38090     38087     38085     38089     38090
     38088     38085     38089     38090     38092     38091     38095     38096
     38093     38091     38095     38096     38094     38091     38095     38096
     38098     38097     38101     38102     38099     38097     38101     38102
     38100     38097     38101     38102     38104     38103     38107     38108
     38105     38103     38107     38108     38106     38103     38107     38108
     38110     38109     38113     38114     38111     38109     38113     38114
     38112     38109     38113     38114     38116     38115     38119     38120
     38117     38115     38119     38120     38118     38115     38119     38120
     38122     38121     38125     38126     38123     38121     38125     38126
     38124     38121     38125     38126     38128     38127     38131     38132
     38129     38127     38131     38132     38130     38127     38131     38132
     38134     38133     38137     38138     38135     38133     38137     38138
     38136     38133     38137     38138     38140     38139     38143     38144
     38141     38139     38143     38144     38142     38139     38143     38144
     38146     38145     38149     38150     38147     38145     38149     38150
     38148     38145     38149     38150     38152     38151     38155     38156
     38153     38151     38155     38156     38154     38151     38155     38156
     38158     38157     38161     38162     38159     38157     38161     38162
     38160     38157     38161     38162     38164     38163     38167     38168
     38165     38163     38167     38168     38166     38163     38167     38168
     38170     38169     38173     38174     38171     38169     38173     38174
     38172     38169     38173     38174     38176     38175     38179     38180
     38177     38175     38179     38180     38178     38175     38179     38180
     38182     38181     38185     38186     38183     38181     38185     38186
     38184     38181     38185     38186     38188     38187     38191     38192
     38189     38187     38191     38192     38190     38187     38191     38192
     38194     38193     38197     38198     38195     38193     38197     38198
     38196     38193     38197     38198     38200     38199     38203     38204
     38201     38199     38203     38204     38202     38199     38203     38204
     38206     38205     38209     38210     38207     38205     38209     38210
     38208     38205     38209     38210     38212     38211     38215     38216
     38213     38211     38215     38216     38214     38211     38215     38216
     38218     38217     38221     38222     38219     38217     38221     38222
     38220     38217     38221     38222     38224     38223     38227     38228
     38225     38223     38227     38228     38226     38223     38227     38228
     38230     38229     38233     38234     38231     38229     38233     38234
     38232     38229     38233     38234     38236     38235     38239     38240
     38237     38235     38239     38240     38238     38235     38239     38240
     38242     38241     38245     38246     38243     38241     38245     38246
     38244     38241     38245     38246     38248     38247     38251     38252
     38249     38247     38251     38252     38250     38247     38251     38252
     38254     38253     38257     38258     38255     38253     38257     38258
     38256     38253     38257     38258     38260     38259     38263     38264
     38261     38259     38263     38264     38262     38259     38263     38264
     38266     38265     38269     38270     38267     38265     38269     38270
     38268     38265     38269     38270     38272     38271     38275     38276
     38273     38271     38275     38276     38274     38271     38275     38276
     38278     38277     38281     38282     38279     38277     38281     38282
     38280     38277     38281     38282     38284     38283     38287     38288
     38285     38283     38287     38288     38286     38283     38287     38288
     38290     38289     38293     38294     38291     38289     38293     38294
     38292     38289     38293     38294     38296     38295     38299     38300
     38297     38295     38299     38300     38298     38295     38299     38300
     38302     38301     38305     38306     38303     38301     38305     38306
     38304     38301     38305     38306     38308     38307     38311     38312
     38309     38307     38311     38312     38310     38307     38311     38312
     38314     38313     38317     38318     38315     38313     38317     38318
     38316     38313     38317     38318     38320     38319     38323     38324
     38321     38319     38323     38324     38322     38319     38323     38324
     38326     38325     38329     38330     38327     38325     38329     38330
     38328     38325     38329     38330     38332     38331     38335     38336
     38333     38331     38335     38336     38334     38331     38335     38336
     38338     38337     38341     38342     38339     38337     38341     38342
     38340     38337     38341     38342     38344     38343     38347     38348
     38345     38343     38347     38348     38346     38343     38347     38348
     38350     38349     38353     38354     38351     38349     38353     38354
     38352     38349     38353     38354     38356     38355     38359     38360
     38357     38355     38359     38360     38358     38355     38359     38360
     38362     38361     38365     38366     38363     38361     38365     38366
     38364     38361     38365     38366     38368     38367     38371     38372
     38369     38367     38371     38372     38370     38367     38371     38372
     38374     38373     38377     38378     38375     38373     38377     38378
     38376     38373     38377     38378     38380     38379     38383     38384
     38381     38379     38383     38384     38382     38379     38383     38384
     38386     38385     38389     38390     38387     38385     38389     38390
     38388     38385     38389     38390     38392     38391     38395     38396
     38393     38391     38395     38396     38394     38391     38395     38396
     38398     38397     38401     38402     38399     38397     38401     38402
     38400     38397     38401     38402     38404     38403     38407     38408
     38405     38403     38407     38408     38406     38403     38407     38408
     38410     38409     38413     38414     38411     38409     38413     38414
     38412     38409     38413     38414     38416     38415     38419     38420
     38417     38415     38419     38420     38418     38415     38419     38420
     38422     38421     38425     38426     38423     38421     38425     38426
     38424     38421     38425     38426     38428     38427     38431     38432
     38429     38427     38431     38432     38430     38427     38431     38432
     38434     38433     38437     38438     38435     38433     38437     38438
     38436     38433     38437     38438     38440     38439     38443     38444
     38441     38439     38443     38444     38442     38439     38443     38444
     38446     38445     38449     38450     38447     38445     38449     38450
     38448     38445     38449     38450     38452     38451     38455     38456
     38453     38451     38455     38456     38454     38451     38455     38456
     38458     38457     38461     38462     38459     38457     38461     38462
     38460     38457     38461     38462     38464     38463     38467     38468
     38465     38463     38467     38468     38466     38463     38467     38468
     38470     38469     38473     38474     38471     38469     38473     38474
     38472     38469     38473     38474     38476     38475     38479     38480
     38477     38475     38479     38480     38478     38475     38479     38480
     38482     38481     38485     38486     38483     38481     38485     38486
     38484     38481     38485     38486     38488     38487     38491     38492
     38489     38487     38491     38492     38490     38487     38491     38492
     38494     38493     38497     38498     38495     38493     38497     38498
     38496     38493     38497     38498     38500     38499     38503     38504
     38501     38499     38503     38504     38502     38499     38503     38504
     38506     38505     38509     38510     38507     38505     38509     38510
     38508     38505     38509     38510     38512     38511     38515     38516
     38513     38511     38515     38516     38514     38511     38515     38516
     38518     38517     38521     38522     38519     38517     38521     38522
     38520     38517     38521     38522     38524     38523     38527     38528
     38525     38523     38527     38528     38526     38523     38527     38528
     38530     38529     38533     38534     38531     38529     38533     38534
     38532     38529     38533     38534     38536     38535     38539     38540
     38537     38535     38539     38540     38538     38535     38539     38540
     38542     38541     38545     38546     38543     38541     38545     38546
     38544     38541     38545     38546     38548     38547     38551     38552
     38549     38547     38551     38552     38550     38547     38551     38552
     38554     38553     38557     38558     38555     38553     38557     38558
     38556     38553     38557     38558     38560     38559     38563     38564
     38561     38559     38563     38564     38562     38559     38563     38564
     38566     38565     38569     38570     38567     38565     38569     38570
     38568     38565     38569     38570     38572     38571     38575     38576
     38573     38571     38575     38576     38574     38571     38575     38576
     38578     38577     38581     38582     38579     38577     38581     38582
     38580     38577     38581     38582     38584     38583     38587     38588
     38585     38583     38587     38588     38586     38583     38587     38588
     38590     38589     38593     38594     38591     38589     38593     38594
     38592     38589     38593     38594     38596     38595     38599     38600
     38597     38595     38599     38600     38598     38595     38599     38600
     38602     38601     38605     38606     38603     38601     38605     38606
     38604     38601     38605     38606     38608     38607     38611     38612
     38609     38607     38611     38612     38610     38607     38611     38612
     38614     38613     38617     38618     38615     38613     38617     38618
     38616     38613     38617     38618     38620     38619     38623     38624
     38621     38619     38623     38624     38622     38619     38623     38624
     38626     38625     38629     38630     38627     38625     38629     38630
     38628     38625     38629     38630     38632     38631     38635     38636
     38633     38631     38635     38636     38634     38631     38635     38636
     38638     38637     38641     38642     38639     38637     38641     38642
     38640     38637     38641     38642     38644     38643     38647     38648
     38645     38643     38647     38648     38646     38643     38647     38648
     38650     38649     38653     38654     38651     38649     38653     38654
     38652     38649     38653     38654     38656     38655     38659     38660
     38657     38655     38659     38660     38658     38655     38659     38660
     38662     38661     38665     38666     38663     38661     38665     38666
     38664     38661     38665     38666     38668     38667     38671     38672
     38669     38667     38671     38672     38670     38667     38671     38672
     38674     38673     38677     38678     38675     38673     38677     38678
     38676     38673     38677     38678     38680     38679     38683     38684
     38681     38679     38683     38684     38682     38679     38683     38684
     38686     38685     38689     38690     38687     38685     38689     38690
     38688     38685     38689     38690     38692     38691     38695     38696
     38693     38691     38695     38696     38694     38691     38695     38696
     38698     38697     38701     38702     38699     38697     38701     38702
     38700     38697     38701     38702     38704     38703     38707     38708
     38705     38703     38707     38708     38706     38703     38707     38708
     38710     38709     38713     38714     38711     38709     38713     38714
     38712     38709     38713     38714     38716     38715     38719     38720
     38717     38715     38719     38720     38718     38715     38719     38720
     38722     38721     38725     38726     38723     38721     38725     38726
     38724     38721     38725     38726     38728     38727     38731     38732
     38729     38727     38731     38732     38730     38727     38731     38732
     38734     38733     38737     38738     38735     38733     38737     38738
     38736     38733     38737     38738     38740     38739     38743     38744
     38741     38739     38743     38744     38742     38739     38743     38744
     38746     38745     38749     38750     38747     38745     38749     38750
     38748     38745     38749     38750     38752     38751     38755     38756
     38753     38751     38755     38756     38754     38751     38755     38756
     38758     38757     38761     38762     38759     38757     38761     38762
     38760     38757     38761     38762     38764     38763     38767     38768
     38765     38763     38767     38768     38766     38763     38767     38768
     38770     38769     38773     38774     38771     38769     38773     38774
     38772     38769     38773     38774     38776     38775     38779     38780
     38777     38775     38779     38780     38778     38775     38779     38780
     38782     38781     38785     38786     38783     38781     38785     38786
     38784     38781     38785     38786     38788     38787     38791     38792
     38789     38787     38791     38792     38790     38787     38791     38792
     38794     38793     38797     38798     38795     38793     38797     38798
     38796     38793     38797     38798     38800     38799     38803     38804
     38801     38799     38803     38804     38802     38799     38803     38804
     38806     38805     38809     38810     38807     38805     38809     38810
     38808     38805     38809     38810     38812     38811     38815     38816
     38813     38811     38815     38816     38814     38811     38815     38816
     38818     38817     38821     38822     38819     38817     38821     38822
     38820     38817     38821     38822     38824     38823     38827     38828
     38825     38823     38827     38828     38826     38823     38827     38828
     38830     38829     38833     38834     38831     38829     38833     38834
     38832     38829     38833     38834     38836     38835     38839     38840
     38837     38835     38839     38840     38838     38835     38839     38840
     38842     38841     38845     38846     38843     38841     38845     38846
     38844     38841     38845     38846     38848     38847     38851     38852
     38849     38847     38851     38852     38850     38847     38851     38852
     38854     38853     38857     38858     38855     38853     38857     38858
     38856     38853     38857     38858     38860     38859     38863     38864
     38861     38859     38863     38864     38862     38859     38863     38864
     38866     38865     38869     38870     38867     38865     38869     38870
     38868     38865     38869     38870     38872     38871     38875     38876
     38873     38871     38875     38876     38874     38871     38875     38876
     38878     38877     38881     38882     38879     38877     38881     38882
     38880     38877     38881     38882     38884     38883     38887     38888
     38885     38883     38887     38888     38886     38883     38887     38888
     38890     38889     38893     38894     38891     38889     38893     38894
     38892     38889     38893     38894     38896     38895     38899     38900
     38897     38895     38899     38900     38898     38895     38899     38900
     38902     38901     38905     38906     38903     38901     38905     38906
     38904     38901     38905     38906     38908     38907     38911     38912
     38909     38907     38911     38912     38910     38907     38911     38912
     38914     38913     38917     38918     38915     38913     38917     38918
     38916     38913     38917     38918     38920     38919     38923     38924
     38921     38919     38923     38924     38922     38919     38923     38924
     38926     38925     38929     38930     38927     38925     38929     38930
     38928     38925     38929     38930     38932     38931     38935     38936
     38933     38931     38935     38936     38934     38931     38935     38936
     38938     38937     38941     38942     38939     38937     38941     38942
     38940     38937     38941     38942     38944     38943     38947     38948
     38945     38943     38947     38948     38946     38943     38947     38948
     38950     38949     38953     38954     38951     38949     38953     38954
     38952     38949     38953     38954     38956     38955     38959     38960
     38957     38955     38959     38960     38958     38955     38959     38960
     38962     38961     38965     38966     38963     38961     38965     38966
     38964     38961     38965     38966     38968     38967     38971     38972
     38969     38967     38971     38972     38970     38967     38971     38972
     38974     38973     38977     38978     38975     38973     38977     38978
     38976     38973     38977     38978     38980     38979     38983     38984
     38981     38979     38983     38984     38982     38979     38983     38984
     38986     38985     38989     38990     38987     38985     38989     38990
     38988     38985     38989     38990     38992     38991     38995     38996
     38993     38991     38995     38996     38994     38991     38995     38996
     38998     38997     39001     39002     38999     38997     39001     39002
     39000     38997     39001     39002     39004     39003     39007     39008
     39005     39003     39007     39008     39006     39003     39007     39008
     39010     39009     39013     39014     39011     39009     39013     39014
     39012     39009     39013     39014     39016     39015     39019     39020
     39017     39015     39019     39020     39018     39015     39019     39020
     39022     39021     39025     39026     39023     39021     39025     39026
     39024     39021     39025     39026     39028     39027     39031     39032
     39029     39027     39031     39032     39030     39027     39031     39032
     39034     39033     39037     39038     39035     39033     39037     39038
     39036     39033     39037     39038     39040     39039     39043     39044
     39041     39039     39043     39044     39042     39039     39043     39044
     39046     39045     39049     39050     39047     39045     39049     39050
     39048     39045     39049     39050     39052     39051     39055     39056
     39053     39051     39055     39056     39054     39051     39055     39056
     39058     39057     39061     39062     39059     39057     39061     39062
     39060     39057     39061     39062     39064     39063     39067     39068
     39065     39063     39067     39068     39066     39063     39067     39068
     39070     39069     39073     39074     39071     39069     39073     39074
     39072     39069     39073     39074     39076     39075     39079     39080
     39077     39075     39079     39080     39078     39075     39079     39080
     39082     39081     39085     39086     39083     39081     39085     39086
     39084     39081     39085     39086     39088     39087     39091     39092
     39089     39087     39091     39092     39090     39087     39091     39092
     39094     39093     39097     39098     39095     39093     39097     39098
     39096     39093     39097     39098     39100     39099     39103     39104
     39101     39099     39103     39104     39102     39099     39103     39104
     39106     39105     39109     39110     39107     39105     39109     39110
     39108     39105     39109     39110     39112     39111     39115     39116
     39113     39111     39115     39116     39114     39111     39115     39116
     39118     39117     39121     39122     39119     39117     39121     39122
     39120     39117     39121     39122     39124     39123     39127     39128
     39125     39123     39127     39128     39126     39123     39127     39128
     39130     39129     39133     39134     39131     39129     39133     39134
     39132     39129     39133     39134     39136     39135     39139     39140
     39137     39135     39139     39140     39138     39135     39139     39140
     39142     39141     39145     39146     39143     39141     39145     39146
     39144     39141     39145     39146     39148     39147     39151     39152
     39149     39147     39151     39152     39150     39147     39151     39152
     39154     39153     39157     39158     39155     39153     39157     39158
     39156     39153     39157     39158     39160     39159     39163     39164
     39161     39159     39163     39164     39162     39159     39163     39164
     39166     39165     39169     39170     39167     39165     39169     39170
     39168     39165     39169     39170     39172     39171     39175     39176
     39173     39171     39175     39176     39174     39171     39175     39176
     39178     39177     39181     39182     39179     39177     39181     39182
     39180     39177     39181     39182     39184     39183     39187     39188
     39185     39183     39187     39188     39186     39183     39187     39188
     39190     39189     39193     39194     39191     39189     39193     39194
     39192     39189     39193     39194     39196     39195     39199     39200
     39197     39195     39199     39200     39198     39195     39199     39200
     39202     39201     39205     39206     39203     39201     39205     39206
     39204     39201     39205     39206     39208     39207     39211     39212
     39209     39207     39211     39212     39210     39207     39211     39212
     39214     39213     39217     39218     39215     39213     39217     39218
     39216     39213     39217     39218     39220     39219     39223     39224
     39221     39219     39223     39224     39222     39219     39223     39224
     39226     39225     39229     39230     39227     39225     39229     39230
     39228     39225     39229     39230     39232     39231     39235     39236
     39233     39231     39235     39236     39234     39231     39235     39236
     39238     39237     39241     39242     39239     39237     39241     39242
     39240     39237     39241     39242     39244     39243     39247     39248
     39245     39243     39247     39248     39246     39243     39247     39248
     39250     39249     39253     39254     39251     39249     39253     39254
     39252     39249     39253     39254     39256     39255     39259     39260
     39257     39255     39259     39260     39258     39255     39259     39260
     39262     39261     39265     39266     39263     39261     39265     39266
     39264     39261     39265     39266     39268     39267     39271     39272
     39269     39267     39271     39272     39270     39267     39271     39272
     39274     39273     39277     39278     39275     39273     39277     39278
     39276     39273     39277     39278     39280     39279     39283     39284
     39281     39279     39283     39284     39282     39279     39283     39284
     39286     39285     39289     39290     39287     39285     39289     39290
     39288     39285     39289     39290     39292     39291     39295     39296
     39293     39291     39295     39296     39294     39291     39295     39296
     39298     39297     39301     39302     39299     39297     39301     39302
     39300     39297     39301     39302     39304     39303     39307     39308
     39305     39303     39307     39308     39306     39303     39307     39308
     39310     39309     39313     39314     39311     39309     39313     39314
     39312     39309     39313     39314     39316     39315     39319     39320
     39317     39315     39319     39320     39318     39315     39319     39320
     39322     39321     39325     39326     39323     39321     39325     39326
     39324     39321     39325     39326     39328     39327     39331     39332
     39329     39327     39331     39332     39330     39327     39331     39332
     39334     39333     39337     39338     39335     39333     39337     39338
     39336     39333     39337     39338     39340     39339     39343     39344
     39341     39339     39343     39344     39342     39339     39343     39344
     39346     39345     39349     39350     39347     39345     39349     39350
     39348     39345     39349     39350     39352     39351     39355     39356
     39353     39351     39355     39356     39354     39351     39355     39356
     39358     39357     39361     39362     39359     39357     39361     39362
     39360     39357     39361     39362     39364     39363     39367     39368
     39365     39363     39367     39368     39366     39363     39367     39368
     39370     39369     39373     39374     39371     39369     39373     39374
     39372     39369     39373     39374     39376     39375     39379     39380
     39377     39375     39379     39380     39378     39375     39379     39380
     39382     39381     39385     39386     39383     39381     39385     39386
     39384     39381     39385     39386     39388     39387     39391     39392
     39389     39387     39391     39392     39390     39387     39391     39392
     39394     39393     39397     39398     39395     39393     39397     39398
     39396     39393     39397     39398     39400     39399     39403     39404
     39401     39399     39403     39404     39402     39399     39403     39404
     39406     39405     39409     39410     39407     39405     39409     39410
     39408     39405     39409     39410     39412     39411     39415     39416
     39413     39411     39415     39416     39414     39411     39415     39416
     39418     39417     39421     39422     39419     39417     39421     39422
     39420     39417     39421     39422     39424     39423     39427     39428
     39425     39423     39427     39428     39426     39423     39427     39428
     39430     39429     39433     39434     39431     39429     39433     39434
     39432     39429     39433     39434     39436     39435     39439     39440
     39437     39435     39439     39440     39438     39435     39439     39440
     39442     39441     39445     39446     39443     39441     39445     39446
     39444     39441     39445     39446     39448     39447     39451     39452
     39449     39447     39451     39452     39450     39447     39451     39452
     39454     39453     39457     39458     39455     39453     39457     39458
     39456     39453     39457     39458     39460     39459     39463     39464
     39461     39459     39463     39464     39462     39459     39463     39464
     39466     39465     39469     39470     39467     39465     39469     39470
     39468     39465     39469     39470     39472     39471     39475     39476
     39473     39471     39475     39476     39474     39471     39475     39476
     39478     39477     39481     39482     39479     39477     39481     39482
     39480     39477     39481     39482     39484     39483     39487     39488
     39485     39483     39487     39488     39486     39483     39487     39488
     39490     39489     39493     39494     39491     39489     39493     39494
     39492     39489     39493     39494     39496     39495     39499     39500
     39497     39495     39499     39500     39498     39495     39499     39500
     39502     39501     39505     39506     39503     39501     39505     39506
     39504     39501     39505     39506     39508     39507     39511     39512
     39509     39507     39511     39512     39510     39507     39511     39512
     39514     39513     39517     39518     39515     39513     39517     39518
     39516     39513     39517     39518     39520     39519     39523     39524
     39521     39519     39523     39524     39522     39519     39523     39524
     39526     39525     39529     39530     39527     39525     39529     39530
     39528     39525     39529     39530     39532     39531     39535     39536
     39533     39531     39535     39536     39534     39531     39535     39536
     39538     39537     39541     39542     39539     39537     39541     39542
     39540     39537     39541     39542     39544     39543     39547     39548
     39545     39543     39547     39548     39546     39543     39547     39548
     39550     39549     39553     39554     39551     39549     39553     39554
     39552     39549     39553     39554     39556     39555     39559     39560
     39557     39555     39559     39560     39558     39555     39559     39560
     39562     39561     39565     39566     39563     39561     39565     39566
     39564     39561     39565     39566     39568     39567     39571     39572
     39569     39567     39571     39572     39570     39567     39571     39572
     39574     39573     39577     39578     39575     39573     39577     39578
     39576     39573     39577     39578     39580     39579     39583     39584
     39581     39579     39583     39584     39582     39579     39583     39584
     39586     39585     39589     39590     39587     39585     39589     39590
     39588     39585     39589     39590     39592     39591     39595     39596
     39593     39591     39595     39596     39594     39591     39595     39596
     39598     39597     39601     39602     39599     39597     39601     39602
     39600     39597     39601     39602     39604     39603     39607     39608
     39605     39603     39607     39608     39606     39603     39607     39608
     39610     39609     39613     39614     39611     39609     39613     39614
     39612     39609     39613     39614     39616     39615     39619     39620
     39617     39615     39619     39620     39618     39615     39619     39620
     39622     39621     39625     39626     39623     39621     39625     39626
     39624     39621     39625     39626     39628     39627     39631     39632
     39629     39627     39631     39632     39630     39627     39631     39632
     39634     39633     39637     39638     39635     39633     39637     39638
     39636     39633     39637     39638     39640     39639     39643     39644
     39641     39639     39643     39644     39642     39639     39643     39644
     39646     39645     39649     39650     39647     39645     39649     39650
     39648     39645     39649     39650     39652     39651     39655     39656
     39653     39651     39655     39656     39654     39651     39655     39656
     39658     39657     39661     39662     39659     39657     39661     39662
     39660     39657     39661     39662     39664     39663     39667     39668
     39665     39663     39667     39668     39666     39663     39667     39668
     39670     39669     39673     39674     39671     39669     39673     39674
     39672     39669     39673     39674     39676     39675     39679     39680
     39677     39675     39679     39680     39678     39675     39679     39680
     39682     39681     39685     39686     39683     39681     39685     39686
     39684     39681     39685     39686     39688     39687     39691     39692
     39689     39687     39691     39692     39690     39687     39691     39692
     39694     39693     39697     39698     39695     39693     39697     39698
     39696     39693     39697     39698     39700     39699     39703     39704
     39701     39699     39703     39704     39702     39699     39703     39704
     39706     39705     39709     39710     39707     39705     39709     39710
     39708     39705     39709     39710     39712     39711     39715     39716
     39713     39711     39715     39716     39714     39711     39715     39716
     39718     39717     39721     39722     39719     39717     39721     39722
     39720     39717     39721     39722     39724     39723     39727     39728
     39725     39723     39727     39728     39726     39723     39727     39728
     39730     39729     39733     39734     39731     39729     39733     39734
     39732     39729     39733     39734     39736     39735     39739     39740
     39737     39735     39739     39740     39738     39735     39739     39740
     39742     39741     39745     39746     39743     39741     39745     39746
     39744     39741     39745     39746     39748     39747     39751     39752
     39749     39747     39751     39752     39750     39747     39751     39752
     39754     39753     39757     39758     39755     39753     39757     39758
     39756     39753     39757     39758     39760     39759     39763     39764
     39761     39759     39763     39764     39762     39759     39763     39764
     39766     39765     39769     39770     39767     39765     39769     39770
     39768     39765     39769     39770     39772     39771     39775     39776
     39773     39771     39775     39776     39774     39771     39775     39776
     39778     39777     39781     39782     39779     39777     39781     39782
     39780     39777     39781     39782     39784     39783     39787     39788
     39785     39783     39787     39788     39786     39783     39787     39788
     39790     39789     39793     39794     39791     39789     39793     39794
     39792     39789     39793     39794     39796     39795     39799     39800
     39797     39795     39799     39800     39798     39795     39799     39800
     39802     39801     39805     39806     39803     39801     39805     39806
     39804     39801     39805     39806     39808     39807     39811     39812
     39809     39807     39811     39812     39810     39807     39811     39812
     39814     39813     39817     39818     39815     39813     39817     39818
     39816     39813     39817     39818     39820     39819     39823     39824
     39821     39819     39823     39824     39822     39819     39823     39824
     39826     39825     39829     39830     39827     39825     39829     39830
     39828     39825     39829     39830     39832     39831     39835     39836
     39833     39831     39835     39836     39834     39831     39835     39836
     39838     39837     39841     39842     39839     39837     39841     39842
     39840     39837     39841     39842     39844     39843     39847     39848
     39845     39843     39847     39848     39846     39843     39847     39848
     39850     39849     39853     39854     39851     39849     39853     39854
     39852     39849     39853     39854     39856     39855     39859     39860
     39857     39855     39859     39860     39858     39855     39859     39860
     39862     39861     39865     39866     39863     39861     39865     39866
     39864     39861     39865     39866     39868     39867     39871     39872
     39869     39867     39871     39872     39870     39867     39871     39872
     39874     39873     39877     39878     39875     39873     39877     39878
     39876     39873     39877     39878     39880     39879     39883     39884
     39881     39879     39883     39884     39882     39879     39883     39884
     39886     39885     39889     39890     39887     39885     39889     39890
     39888     39885     39889     39890     39892     39891     39895     39896
     39893     39891     39895     39896     39894     39891     39895     39896
     39898     39897     39901     39902     39899     39897     39901     39902
     39900     39897     39901     39902     39904     39903     39907     39908
     39905     39903     39907     39908     39906     39903     39907     39908
     39910     39909     39913     39914     39911     39909     39913     39914
     39912     39909     39913     39914     39916     39915     39919     39920
     39917     39915     39919     39920     39918     39915     39919     39920
     39922     39921     39925     39926     39923     39921     39925     39926
     39924     39921     39925     39926     39928     39927     39931     39932
     39929     39927     39931     39932     39930     39927     39931     39932
     39934     39933     39937     39938     39935     39933     39937     39938
     39936     39933     39937     39938     39940     39939     39943     39944
     39941     39939     39943     39944     39942     39939     39943     39944
     39946     39945     39949     39950     39947     39945     39949     39950
     39948     39945     39949     39950     39952     39951     39955     39956
     39953     39951     39955     39956     39954     39951     39955     39956
     39958     39957     39961     39962     39959     39957     39961     39962
     39960     39957     39961     39962     39964     39963     39967     39968
     39965     39963     39967     39968     39966     39963     39967     39968
     39970     39969     39973     39974     39971     39969     39973     39974
     39972     39969     39973     39974     39976     39975     39979     39980
     39977     39975     39979     39980     39978     39975     39979     39980
     39982     39981     39985     39986     39983     39981     39985     39986
     39984     39981     39985     39986     39988     39987     39991     39992
     39989     39987     39991     39992     39990     39987     39991     39992
     39994     39993     39997     39998     39995     39993     39997     39998
     39996     39993     39997     39998     40000     39999     40003     40004
     40001     39999     40003     40004     40002     39999     40003     40004
     40006     40005     40009     40010     40007     40005     40009     40010
     40008     40005     40009     40010     40012     40011     40015     40016
     40013     40011     40015     40016     40014     40011     40015     40016
     40018     40017     40021     40022     40019     40017     40021     40022
     40020     40017     40021     40022     40024     40023     40027     40028
     40025     40023     40027     40028     40026     40023     40027     40028
     40030     40029     40033     40034     40031     40029     40033     40034
     40032     40029     40033     40034     40036     40035     40039     40040
     40037     40035     40039     40040     40038     40035     40039     40040
     40042     40041     40045     40046     40043     40041     40045     40046
     40044     40041     40045     40046     40048     40047     40051     40052
     40049     40047     40051     40052     40050     40047     40051     40052
     40054     40053     40057     40058     40055     40053     40057     40058
     40056     40053     40057     40058     40060     40059     40063     40064
     40061     40059     40063     40064     40062     40059     40063     40064
     40066     40065     40069     40070     40067     40065     40069     40070
     40068     40065     40069     40070     40072     40071     40075     40076
     40073     40071     40075     40076     40074     40071     40075     40076
     40078     40077     40081     40082     40079     40077     40081     40082
     40080     40077     40081     40082     40084     40083     40087     40088
     40085     40083     40087     40088     40086     40083     40087     40088
     40090     40089     40093     40094     40091     40089     40093     40094
     40092     40089     40093     40094     40096     40095     40099     40100
     40097     40095     40099     40100     40098     40095     40099     40100
     40102     40101     40105     40106     40103     40101     40105     40106
     40104     40101     40105     40106     40108     40107     40111     40112
     40109     40107     40111     40112     40110     40107     40111     40112
     40114     40113     40117     40118     40115     40113     40117     40118
     40116     40113     40117     40118     40120     40119     40123     40124
     40121     40119     40123     40124     40122     40119     40123     40124
     40126     40125     40129     40130     40127     40125     40129     40130
     40128     40125     40129     40130     40132     40131     40135     40136
     40133     40131     40135     40136     40134     40131     40135     40136
     40138     40137     40141     40142     40139     40137     40141     40142
     40140     40137     40141     40142     40144     40143     40147     40148
     40145     40143     40147     40148     40146     40143     40147     40148
     40150     40149     40153     40154     40151     40149     40153     40154
     40152     40149     40153     40154     40156     40155     40159     40160
     40157     40155     40159     40160     40158     40155     40159     40160
     40162     40161     40165     40166     40163     40161     40165     40166
     40164     40161     40165     40166     40168     40167     40171     40172
     40169     40167     40171     40172     40170     40167     40171     40172
     40174     40173     40177     40178     40175     40173     40177     40178
     40176     40173     40177     40178     40180     40179     40183     40184
     40181     40179     40183     40184     40182     40179     40183     40184
     40186     40185     40189     40190     40187     40185     40189     40190
     40188     40185     40189     40190     40192     40191     40195     40196
     40193     40191     40195     40196     40194     40191     40195     40196
     40198     40197     40201     40202     40199     40197     40201     40202
     40200     40197     40201     40202     40204     40203     40207     40208
     40205     40203     40207     40208     40206     40203     40207     40208
     40210     40209     40213     40214     40211     40209     40213     40214
     40212     40209     40213     40214     40216     40215     40219     40220
     40217     40215     40219     40220     40218     40215     40219     40220
     40222     40221     40225     40226     40223     40221     40225     40226
     40224     40221     40225     40226     40228     40227     40231     40232
     40229     40227     40231     40232     40230     40227     40231     40232
     40234     40233     40237     40238     40235     40233     40237     40238
     40236     40233     40237     40238     40240     40239     40243     40244
     40241     40239     40243     40244     40242     40239     40243     40244
     40246     40245     40249     40250     40247     40245     40249     40250
     40248     40245     40249     40250     40252     40251     40255     40256
     40253     40251     40255     40256     40254     40251     40255     40256
     40258     40257     40261     40262     40259     40257     40261     40262
     40260     40257     40261     40262     40264     40263     40267     40268
     40265     40263     40267     40268     40266     40263     40267     40268
     40270     40269     40273     40274     40271     40269     40273     40274
     40272     40269     40273     40274     40276     40275     40279     40280
     40277     40275     40279     40280     40278     40275     40279     40280
     40282     40281     40285     40286     40283     40281     40285     40286
     40284     40281     40285     40286     40288     40287     40291     40292
     40289     40287     40291     40292     40290     40287     40291     40292
     40294     40293     40297     40298     40295     40293     40297     40298
     40296     40293     40297     40298     40300     40299     40303     40304
     40301     40299     40303     40304     40302     40299     40303     40304
     40306     40305     40309     40310     40307     40305     40309     40310
     40308     40305     40309     40310     40312     40311     40315     40316
     40313     40311     40315     40316     40314     40311     40315     40316
     40318     40317     40321     40322     40319     40317     40321     40322
     40320     40317     40321     40322     40324     40323     40327     40328
     40325     40323     40327     40328     40326     40323     40327     40328
     40330     40329     40333     40334     40331     40329     40333     40334
     40332     40329     40333     40334     40336     40335     40339     40340
     40337     40335     40339     40340     40338     40335     40339     40340
     40342     40341     40345     40346     40343     40341     40345     40346
     40344     40341     40345     40346     40348     40347     40351     40352
     40349     40347     40351     40352     40350     40347     40351     40352
     40354     40353     40357     40358     40355     40353     40357     40358
     40356     40353     40357     40358     40360     40359     40363     40364
     40361     40359     40363     40364     40362     40359     40363     40364
     40366     40365     40369     40370     40367     40365     40369     40370
     40368     40365     40369     40370     40372     40371     40375     40376
     40373     40371     40375     40376     40374     40371     40375     40376
     40378     40377     40381     40382     40379     40377     40381     40382
     40380     40377     40381     40382     40384     40383     40387     40388
     40385     40383     40387     40388     40386     40383     40387     40388
     40390     40389     40393     40394     40391     40389     40393     40394
     40392     40389     40393     40394     40396     40395     40399     40400
     40397     40395     40399     40400     40398     40395     40399     40400
     40402     40401     40405     40406     40403     40401     40405     40406
     40404     40401     40405     40406     40408     40407     40411     40412
     40409     40407     40411     40412     40410     40407     40411     40412
     40414     40413     40417     40418     40415     40413     40417     40418
     40416     40413     40417     40418     40420     40419     40423     40424
     40421     40419     40423     40424     40422     40419     40423     40424
     40426     40425     40429     40430     40427     40425     40429     40430
     40428     40425     40429     40430     40432     40431     40435     40436
     40433     40431     40435     40436     40434     40431     40435     40436
     40438     40437     40441     40442     40439     40437     40441     40442
     40440     40437     40441     40442     40444     40443     40447     40448
     40445     40443     40447     40448     40446     40443     40447     40448
     40450     40449     40453     40454     40451     40449     40453     40454
     40452     40449     40453     40454     40456     40455     40459     40460
     40457     40455     40459     40460     40458     40455     40459     40460
     40462     40461     40465     40466     40463     40461     40465     40466
     40464     40461     40465     40466     40468     40467     40471     40472
     40469     40467     40471     40472     40470     40467     40471     40472
     40474     40473     40477     40478     40475     40473     40477     40478
     40476     40473     40477     40478     40480     40479     40483     40484
     40481     40479     40483     40484     40482     40479     40483     40484
     40486     40485     40489     40490     40487     40485     40489     40490
     40488     40485     40489     40490     40492     40491     40495     40496
     40493     40491     40495     40496     40494     40491     40495     40496
     40498     40497     40501     40502     40499     40497     40501     40502
     40500     40497     40501     40502     40504     40503     40507     40508
     40505     40503     40507     40508     40506     40503     40507     40508
     40510     40509     40513     40514     40511     40509     40513     40514
     40512     40509     40513     40514     40516     40515     40519     40520
     40517     40515     40519     40520     40518     40515     40519     40520
     40522     40521     40525     40526     40523     40521     40525     40526
     40524     40521     40525     40526     40528     40527     40531     40532
     40529     40527     40531     40532     40530     40527     40531     40532
     40534     40533     40537     40538     40535     40533     40537     40538
     40536     40533     40537     40538     40540     40539     40543     40544
     40541     40539     40543     40544     40542     40539     40543     40544
     40546     40545     40549     40550     40547     40545     40549     40550
     40548     40545     40549     40550     40552     40551     40555     40556
     40553     40551     40555     40556     40554     40551     40555     40556
     40558     40557     40561     40562     40559     40557     40561     40562
     40560     40557     40561     40562     40564     40563     40567     40568
     40565     40563     40567     40568     40566     40563     40567     40568
     40570     40569     40573     40574     40571     40569     40573     40574
     40572     40569     40573     40574     40576     40575     40579     40580
     40577     40575     40579     40580     40578     40575     40579     40580
     40582     40581     40585     40586     40583     40581     40585     40586
     40584     40581     40585     40586     40588     40587     40591     40592
     40589     40587     40591     40592     40590     40587     40591     40592
     40594     40593     40597     40598     40595     40593     40597     40598
     40596     40593     40597     40598     40600     40599     40603     40604
     40601     40599     40603     40604     40602     40599     40603     40604
     40606     40605     40609     40610     40607     40605     40609     40610
     40608     40605     40609     40610     40612     40611     40615     40616
     40613     40611     40615     40616     40614     40611     40615     40616
     40618     40617     40621     40622     40619     40617     40621     40622
     40620     40617     40621     40622     40624     40623     40627     40628
     40625     40623     40627     40628     40626     40623     40627     40628
     40630     40629     40633     40634     40631     40629     40633     40634
     40632     40629     40633     40634     40636     40635     40639     40640
     40637     40635     40639     40640     40638     40635     40639     40640
     40642     40641     40645     40646     40643     40641     40645     40646
     40644     40641     40645     40646     40648     40647     40651     40652
     40649     40647     40651     40652     40650     40647     40651     40652
     40654     40653     40657     40658     40655     40653     40657     40658
     40656     40653     40657     40658     40660     40659     40663     40664
     40661     40659     40663     40664     40662     40659     40663     40664
     40666     40665     40669     40670     40667     40665     40669     40670
     40668     40665     40669     40670     40672     40671     40675     40676
     40673     40671     40675     40676     40674     40671     40675     40676
     40678     40677     40681     40682     40679     40677     40681     40682
     40680     40677     40681     40682     40684     40683     40687     40688
     40685     40683     40687     40688     40686     40683     40687     40688
     40690     40689     40693     40694     40691     40689     40693     40694
     40692     40689     40693     40694     40696     40695     40699     40700
     40697     40695     40699     40700     40698     40695     40699     40700
     40702     40701     40705     40706     40703     40701     40705     40706
     40704     40701     40705     40706     40708     40707     40711     40712
     40709     40707     40711     40712     40710     40707     40711     40712
     40714     40713     40717     40718     40715     40713     40717     40718
     40716     40713     40717     40718     40720     40719     40723     40724
     40721     40719     40723     40724     40722     40719     40723     40724
     40726     40725     40729     40730     40727     40725     40729     40730
     40728     40725     40729     40730     40732     40731     40735     40736
     40733     40731     40735     40736     40734     40731     40735     40736
     40738     40737     40741     40742     40739     40737     40741     40742
     40740     40737     40741     40742     40744     40743     40747     40748
     40745     40743     40747     40748     40746     40743     40747     40748
     40750     40749     40753     40754     40751     40749     40753     40754
     40752     40749     40753     40754     40756     40755     40759     40760
     40757     40755     40759     40760     40758     40755     40759     40760
     40762     40761     40765     40766     40763     40761     40765     40766
     40764     40761     40765     40766     40768     40767     40771     40772
     40769     40767     40771     40772     40770     40767     40771     40772
     40774     40773     40777     40778     40775     40773     40777     40778
     40776     40773     40777     40778     40780     40779     40783     40784
     40781     40779     40783     40784     40782     40779     40783     40784
     40786     40785     40789     40790     40787     40785     40789     40790
     40788     40785     40789     40790     40792     40791     40795     40796
     40793     40791     40795     40796     40794     40791     40795     40796
     40798     40797     40801     40802     40799     40797     40801     40802
     40800     40797     40801     40802     40804     40803     40807     40808
     40805     40803     40807     40808     40806     40803     40807     40808
     40810     40809     40813     40814     40811     40809     40813     40814
     40812     40809     40813     40814     40816     40815     40819     40820
     40817     40815     40819     40820     40818     40815     40819     40820
     40822     40821     40825     40826     40823     40821     40825     40826
     40824     40821     40825     40826     40828     40827     40831     40832
     40829     40827     40831     40832     40830     40827     40831     40832
     40834     40833     40837     40838     40835     40833     40837     40838
     40836     40833     40837     40838     40840     40839     40843     40844
     40841     40839     40843     40844     40842     40839     40843     40844
     40846     40845     40849     40850     40847     40845     40849     40850
     40848     40845     40849     40850     40852     40851     40855     40856
     40853     40851     40855     40856     40854     40851     40855     40856
     40858     40857     40861     40862     40859     40857     40861     40862
     40860     40857     40861     40862     40864     40863     40867     40868
     40865     40863     40867     40868     40866     40863     40867     40868
     40870     40869     40873     40874     40871     40869     40873     40874
     40872     40869     40873     40874     40876     40875     40879     40880
     40877     40875     40879     40880     40878     40875     40879     40880
     40882     40881     40885     40886     40883     40881     40885     40886
     40884     40881     40885     40886     40888     40887     40891     40892
     40889     40887     40891     40892     40890     40887     40891     40892
     40894     40893     40897     40898     40895     40893     40897     40898
     40896     40893     40897     40898     40900     40899     40903     40904
     40901     40899     40903     40904     40902     40899     40903     40904
     40906     40905     40909     40910     40907     40905     40909     40910
     40908     40905     40909     40910     40912     40911     40915     40916
     40913     40911     40915     40916     40914     40911     40915     40916
     40918     40917     40921     40922     40919     40917     40921     40922
     40920     40917     40921     40922     40924     40923     40927     40928
     40925     40923     40927     40928     40926     40923     40927     40928
     40930     40929     40933     40934     40931     40929     40933     40934
     40932     40929     40933     40934     40936     40935     40939     40940
     40937     40935     40939     40940     40938     40935     40939     40940
     40942     40941     40945     40946     40943     40941     40945     40946
     40944     40941     40945     40946     40948     40947     40951     40952
     40949     40947     40951     40952     40950     40947     40951     40952
     40954     40953     40957     40958     40955     40953     40957     40958
     40956     40953     40957     40958     40960     40959     40963     40964
     40961     40959     40963     40964     40962     40959     40963     40964
     40966     40965     40969     40970     40967     40965     40969     40970
     40968     40965     40969     40970     40972     40971     40975     40976
     40973     40971     40975     40976     40974     40971     40975     40976
     40978     40977     40981     40982     40979     40977     40981     40982
     40980     40977     40981     40982     40984     40983     40987     40988
     40985     40983     40987     40988     40986     40983     40987     40988
     40990     40989     40993     40994     40991     40989     40993     40994
     40992     40989     40993     40994     40996     40995     40999     41000
     40997     40995     40999     41000     40998     40995     40999     41000
     41002     41001     41005     41006     41003     41001     41005     41006
     41004     41001     41005     41006     41008     41007     41011     41012
     41009     41007     41011     41012     41010     41007     41011     41012
     41014     41013     41017     41018     41015     41013     41017     41018
     41016     41013     41017     41018     41020     41019     41023     41024
     41021     41019     41023     41024     41022     41019     41023     41024
     41026     41025     41029     41030     41027     41025     41029     41030
     41028     41025     41029     41030     41032     41031     41035     41036
     41033     41031     41035     41036     41034     41031     41035     41036
     41038     41037     41041     41042     41039     41037     41041     41042
     41040     41037     41041     41042     41044     41043     41047     41048
     41045     41043     41047     41048     41046     41043     41047     41048
     41050     41049     41053     41054     41051     41049     41053     41054
     41052     41049     41053     41054     41056     41055     41059     41060
     41057     41055     41059     41060     41058     41055     41059     41060
     41062     41061     41065     41066     41063     41061     41065     41066
     41064     41061     41065     41066     41068     41067     41071     41072
     41069     41067     41071     41072     41070     41067     41071     41072
     41074     41073     41077     41078     41075     41073     41077     41078
     41076     41073     41077     41078     41080     41079     41083     41084
     41081     41079     41083     41084     41082     41079     41083     41084
     41086     41085     41089     41090     41087     41085     41089     41090
     41088     41085     41089     41090     41092     41091     41095     41096
     41093     41091     41095     41096     41094     41091     41095     41096
     41098     41097     41101     41102     41099     41097     41101     41102
     41100     41097     41101     41102     41104     41103     41107     41108
     41105     41103     41107     41108     41106     41103     41107     41108
     41110     41109     41113     41114     41111     41109     41113     41114
     41112     41109     41113     41114     41116     41115     41119     41120
     41117     41115     41119     41120     41118     41115     41119     41120
     41122     41121     41125     41126     41123     41121     41125     41126
     41124     41121     41125     41126     41128     41127     41131     41132
     41129     41127     41131     41132     41130     41127     41131     41132
     41134     41133     41137     41138     41135     41133     41137     41138
     41136     41133     41137     41138     41140     41139     41143     41144
     41141     41139     41143     41144     41142     41139     41143     41144
     41146     41145     41149     41150     41147     41145     41149     41150
     41148     41145     41149     41150     41152     41151     41155     41156
     41153     41151     41155     41156     41154     41151     41155     41156
     41158     41157     41161     41162     41159     41157     41161     41162
     41160     41157     41161     41162     41164     41163     41167     41168
     41165     41163     41167     41168     41166     41163     41167     41168
     41170     41169     41173     41174     41171     41169     41173     41174
     41172     41169     41173     41174     41176     41175     41179     41180
     41177     41175     41179     41180     41178     41175     41179     41180
     41182     41181     41185     41186     41183     41181     41185     41186
     41184     41181     41185     41186     41188     41187     41191     41192
     41189     41187     41191     41192     41190     41187     41191     41192
     41194     41193     41197     41198     41195     41193     41197     41198
     41196     41193     41197     41198     41200     41199     41203     41204
     41201     41199     41203     41204     41202     41199     41203     41204
     41206     41205     41209     41210     41207     41205     41209     41210
     41208     41205     41209     41210     41212     41211     41215     41216
     41213     41211     41215     41216     41214     41211     41215     41216
     41218     41217     41221     41222     41219     41217     41221     41222
     41220     41217     41221     41222     41224     41223     41227     41228
     41225     41223     41227     41228     41226     41223     41227     41228
     41230     41229     41233     41234     41231     41229     41233     41234
     41232     41229     41233     41234     41236     41235     41239     41240
     41237     41235     41239     41240     41238     41235     41239     41240
     41242     41241     41245     41246     41243     41241     41245     41246
     41244     41241     41245     41246     41248     41247     41251     41252
     41249     41247     41251     41252     41250     41247     41251     41252
     41254     41253     41257     41258     41255     41253     41257     41258
     41256     41253     41257     41258     41260     41259     41263     41264
     41261     41259     41263     41264     41262     41259     41263     41264
     41266     41265     41269     41270     41267     41265     41269     41270
     41268     41265     41269     41270     41272     41271     41275     41276
     41273     41271     41275     41276     41274     41271     41275     41276
     41278     41277     41281     41282     41279     41277     41281     41282
     41280     41277     41281     41282     41284     41283     41287     41288
     41285     41283     41287     41288     41286     41283     41287     41288
     41290     41289     41293     41294     41291     41289     41293     41294
     41292     41289     41293     41294     41296     41295     41299     41300
     41297     41295     41299     41300     41298     41295     41299     41300
     41302     41301     41305     41306     41303     41301     41305     41306
     41304     41301     41305     41306     41308     41307     41311     41312
     41309     41307     41311     41312     41310     41307     41311     41312
     41314     41313     41317     41318     41315     41313     41317     41318
     41316     41313     41317     41318     41320     41319     41323     41324
     41321     41319     41323     41324     41322     41319     41323     41324
     41326     41325     41329     41330     41327     41325     41329     41330
     41328     41325     41329     41330     41332     41331     41335     41336
     41333     41331     41335     41336     41334     41331     41335     41336
     41338     41337     41341     41342     41339     41337     41341     41342
     41340     41337     41341     41342     41344     41343     41347     41348
     41345     41343     41347     41348     41346     41343     41347     41348
     41350     41349     41353     41354     41351     41349     41353     41354
     41352     41349     41353     41354     41356     41355     41359     41360
     41357     41355     41359     41360     41358     41355     41359     41360
     41362     41361     41365     41366     41363     41361     41365     41366
     41364     41361     41365     41366     41368     41367     41371     41372
     41369     41367     41371     41372     41370     41367     41371     41372
     41374     41373     41377     41378     41375     41373     41377     41378
     41376     41373     41377     41378     41380     41379     41383     41384
     41381     41379     41383     41384     41382     41379     41383     41384
     41386     41385     41389     41390     41387     41385     41389     41390
     41388     41385     41389     41390     41392     41391     41395     41396
     41393     41391     41395     41396     41394     41391     41395     41396
     41398     41397     41401     41402     41399     41397     41401     41402
     41400     41397     41401     41402     41404     41403     41407     41408
     41405     41403     41407     41408     41406     41403     41407     41408
     41410     41409     41413     41414     41411     41409     41413     41414
     41412     41409     41413     41414     41416     41415     41419     41420
     41417     41415     41419     41420     41418     41415     41419     41420
     41422     41421     41425     41426     41423     41421     41425     41426
     41424     41421     41425     41426     41428     41427     41431     41432
     41429     41427     41431     41432     41430     41427     41431     41432
     41434     41433     41437     41438     41435     41433     41437     41438
     41436     41433     41437     41438     41440     41439     41443     41444
     41441     41439     41443     41444     41442     41439     41443     41444
     41446     41445     41449     41450     41447     41445     41449     41450
     41448     41445     41449     41450     41452     41451     41455     41456
     41453     41451     41455     41456     41454     41451     41455     41456
     41458     41457     41461     41462     41459     41457     41461     41462
     41460     41457     41461     41462     41464     41463     41467     41468
     41465     41463     41467     41468     41466     41463     41467     41468
     41470     41469     41473     41474     41471     41469     41473     41474
     41472     41469     41473     41474     41476     41475     41479     41480
     41477     41475     41479     41480     41478     41475     41479     41480
     41482     41481     41485     41486     41483     41481     41485     41486
     41484     41481     41485     41486     41488     41487     41491     41492
     41489     41487     41491     41492     41490     41487     41491     41492
     41494     41493     41497     41498     41495     41493     41497     41498
     41496     41493     41497     41498     41500     41499     41503     41504
     41501     41499     41503     41504     41502     41499     41503     41504
     41506     41505     41509     41510     41507     41505     41509     41510
     41508     41505     41509     41510     41512     41511     41515     41516
     41513     41511     41515     41516     41514     41511     41515     41516
     41518     41517     41521     41522     41519     41517     41521     41522
     41520     41517     41521     41522     41524     41523     41527     41528
     41525     41523     41527     41528     41526     41523     41527     41528
     41530     41529     41533     41534     41531     41529     41533     41534
     41532     41529     41533     41534     41536     41535     41539     41540
     41537     41535     41539     41540     41538     41535     41539     41540
     41542     41541     41545     41546     41543     41541     41545     41546
     41544     41541     41545     41546     41548     41547     41551     41552
     41549     41547     41551     41552     41550     41547     41551     41552
     41554     41553     41557     41558     41555     41553     41557     41558
     41556     41553     41557     41558     41560     41559     41563     41564
     41561     41559     41563     41564     41562     41559     41563     41564
     41566     41565     41569     41570     41567     41565     41569     41570
     41568     41565     41569     41570     41572     41571     41575     41576
     41573     41571     41575     41576     41574     41571     41575     41576
     41578     41577     41581     41582     41579     41577     41581     41582
     41580     41577     41581     41582     41584     41583     41587     41588
     41585     41583     41587     41588     41586     41583     41587     41588
     41590     41589     41593     41594     41591     41589     41593     41594
     41592     41589     41593     41594     41596     41595     41599     41600
     41597     41595     41599     41600     41598     41595     41599     41600
     41602     41601     41605     41606     41603     41601     41605     41606
     41604     41601     41605     41606     41608     41607     41611     41612
     41609     41607     41611     41612     41610     41607     41611     41612
     41614     41613     41617     41618     41615     41613     41617     41618
     41616     41613     41617     41618     41620     41619     41623     41624
     41621     41619     41623     41624     41622     41619     41623     41624
     41626     41625     41629     41630     41627     41625     41629     41630
     41628     41625     41629     41630     41632     41631     41635     41636
     41633     41631     41635     41636     41634     41631     41635     41636
     41638     41637     41641     41642     41639     41637     41641     41642
     41640     41637     41641     41642     41644     41643     41647     41648
     41645     41643     41647     41648     41646     41643     41647     41648
     41650     41649     41653     41654     41651     41649     41653     41654
     41652     41649     41653     41654     41656     41655     41659     41660
     41657     41655     41659     41660     41658     41655     41659     41660
     41662     41661     41665     41666     41663     41661     41665     41666
     41664     41661     41665     41666     41668     41667     41671     41672
     41669     41667     41671     41672     41670     41667     41671     41672
     41674     41673     41677     41678     41675     41673     41677     41678
     41676     41673     41677     41678     41680     41679     41683     41684
     41681     41679     41683     41684     41682     41679     41683     41684
     41686     41685     41689     41690     41687     41685     41689     41690
     41688     41685     41689     41690     41692     41691     41695     41696
     41693     41691     41695     41696     41694     41691     41695     41696
     41698     41697     41701     41702     41699     41697     41701     41702
     41700     41697     41701     41702     41704     41703     41707     41708
     41705     41703     41707     41708     41706     41703     41707     41708
     41710     41709     41713     41714     41711     41709     41713     41714
     41712     41709     41713     41714     41716     41715     41719     41720
     41717     41715     41719     41720     41718     41715     41719     41720
     41722     41721     41725     41726     41723     41721     41725     41726
     41724     41721     41725     41726     41728     41727     41731     41732
     41729     41727     41731     41732     41730     41727     41731     41732
     41734     41733     41737     41738     41735     41733     41737     41738
     41736     41733     41737     41738     41740     41739     41743     41744
     41741     41739     41743     41744     41742     41739     41743     41744
     41746     41745     41749     41750     41747     41745     41749     41750
     41748     41745     41749     41750     41752     41751     41755     41756
     41753     41751     41755     41756     41754     41751     41755     41756
     41758     41757     41761     41762     41759     41757     41761     41762
     41760     41757     41761     41762     41764     41763     41767     41768
     41765     41763     41767     41768     41766     41763     41767     41768
     41770     41769     41773     41774     41771     41769     41773     41774
     41772     41769     41773     41774     41776     41775     41779     41780
     41777     41775     41779     41780     41778     41775     41779     41780
     41782     41781     41785     41786     41783     41781     41785     41786
     41784     41781     41785     41786     41788     41787     41791     41792
     41789     41787     41791     41792     41790     41787     41791     41792
     41794     41793     41797     41798     41795     41793     41797     41798
     41796     41793     41797     41798     41800     41799     41803     41804
     41801     41799     41803     41804     41802     41799     41803     41804
     41806     41805     41809     41810     41807     41805     41809     41810
     41808     41805     41809     41810     41812     41811     41815     41816
     41813     41811     41815     41816     41814     41811     41815     41816
     41818     41817     41821     41822     41819     41817     41821     41822
     41820     41817     41821     41822     41824     41823     41827     41828
     41825     41823     41827     41828     41826     41823     41827     41828
     41830     41829     41833     41834     41831     41829     41833     41834
     41832     41829     41833     41834     41836     41835     41839     41840
     41837     41835     41839     41840     41838     41835     41839     41840
     41842     41841     41845     41846     41843     41841     41845     41846
     41844     41841     41845     41846     41848     41847     41851     41852
     41849     41847     41851     41852     41850     41847     41851     41852
     41854     41853     41857     41858     41855     41853     41857     41858
     41856     41853     41857     41858     41860     41859     41863     41864
     41861     41859     41863     41864     41862     41859     41863     41864
     41866     41865     41869     41870     41867     41865     41869     41870
     41868     41865     41869     41870     41872     41871     41875     41876
     41873     41871     41875     41876     41874     41871     41875     41876
     41878     41877     41881     41882     41879     41877     41881     41882
     41880     41877     41881     41882     41884     41883     41887     41888
     41885     41883     41887     41888     41886     41883     41887     41888
     41890     41889     41893     41894     41891     41889     41893     41894
     41892     41889     41893     41894     41896     41895     41899     41900
     41897     41895     41899     41900     41898     41895     41899     41900
     41902     41901     41905     41906     41903     41901     41905     41906
     41904     41901     41905     41906     41908     41907     41911     41912
     41909     41907     41911     41912     41910     41907     41911     41912
     41914     41913     41917     41918     41915     41913     41917     41918
     41916     41913     41917     41918     41920     41919     41923     41924
     41921     41919     41923     41924     41922     41919     41923     41924
     41926     41925     41929     41930     41927     41925     41929     41930
     41928     41925     41929     41930     41932     41931     41935     41936
     41933     41931     41935     41936     41934     41931     41935     41936
     41938     41937     41941     41942     41939     41937     41941     41942
     41940     41937     41941     41942     41944     41943     41947     41948
     41945     41943     41947     41948     41946     41943     41947     41948
     41950     41949     41953     41954     41951     41949     41953     41954
     41952     41949     41953     41954     41956     41955     41959     41960
     41957     41955     41959     41960     41958     41955     41959     41960
     41962     41961     41965     41966     41963     41961     41965     41966
     41964     41961     41965     41966     41968     41967     41971     41972
     41969     41967     41971     41972     41970     41967     41971     41972
     41974     41973     41977     41978     41975     41973     41977     41978
     41976     41973     41977     41978     41980     41979     41983     41984
     41981     41979     41983     41984     41982     41979     41983     41984
     41986     41985     41989     41990     41987     41985     41989     41990
     41988     41985     41989     41990     41992     41991     41995     41996
     41993     41991     41995     41996     41994     41991     41995     41996
     41998     41997     42001     42002     41999     41997     42001     42002
     42000     41997     42001     42002     42004     42003     42007     42008
     42005     42003     42007     42008     42006     42003     42007     42008
     42010     42009     42013     42014     42011     42009     42013     42014
     42012     42009     42013     42014     42016     42015     42019     42020
     42017     42015     42019     42020     42018     42015     42019     42020
     42022     42021     42025     42026     42023     42021     42025     42026
     42024     42021     42025     42026     42028     42027     42031     42032
     42029     42027     42031     42032     42030     42027     42031     42032
     42034     42033     42037     42038     42035     42033     42037     42038
     42036     42033     42037     42038     42040     42039     42043     42044
     42041     42039     42043     42044     42042     42039     42043     42044
     42046     42045     42049     42050     42047     42045     42049     42050
     42048     42045     42049     42050     42052     42051     42055     42056
     42053     42051     42055     42056     42054     42051     42055     42056
     42058     42057     42061     42062     42059     42057     42061     42062
     42060     42057     42061     42062     42064     42063     42067     42068
     42065     42063     42067     42068     42066     42063     42067     42068
     42070     42069     42073     42074     42071     42069     42073     42074
     42072     42069     42073     42074     42076     42075     42079     42080
     42077     42075     42079     42080     42078     42075     42079     42080
     42082     42081     42085     42086     42083     42081     42085     42086
     42084     42081     42085     42086     42088     42087     42091     42092
     42089     42087     42091     42092     42090     42087     42091     42092
     42094     42093     42097     42098     42095     42093     42097     42098
     42096     42093     42097     42098     42100     42099     42103     42104
     42101     42099     42103     42104     42102     42099     42103     42104
     42106     42105     42109     42110     42107     42105     42109     42110
     42108     42105     42109     42110     42112     42111     42115     42116
     42113     42111     42115     42116     42114     42111     42115     42116
     42118     42117     42121     42122     42119     42117     42121     42122
     42120     42117     42121     42122     42124     42123     42127     42128
     42125     42123     42127     42128     42126     42123     42127     42128
     42130     42129     42133     42134     42131     42129     42133     42134
     42132     42129     42133     42134     42136     42135     42139     42140
     42137     42135     42139     42140     42138     42135     42139     42140
     42142     42141     42145     42146     42143     42141     42145     42146
     42144     42141     42145     42146     42148     42147     42151     42152
     42149     42147     42151     42152     42150     42147     42151     42152
     42154     42153     42157     42158     42155     42153     42157     42158
     42156     42153     42157     42158     42160     42159     42163     42164
     42161     42159     42163     42164     42162     42159     42163     42164
     42166     42165     42169     42170     42167     42165     42169     42170
     42168     42165     42169     42170     42172     42171     42175     42176
     42173     42171     42175     42176     42174     42171     42175     42176
     42178     42177     42181     42182     42179     42177     42181     42182
     42180     42177     42181     42182     42184     42183     42187     42188
     42185     42183     42187     42188     42186     42183     42187     42188
     42190     42189     42193     42194     42191     42189     42193     42194
     42192     42189     42193     42194     42196     42195     42199     42200
     42197     42195     42199     42200     42198     42195     42199     42200
     42202     42201     42205     42206     42203     42201     42205     42206
     42204     42201     42205     42206     42208     42207     42211     42212
     42209     42207     42211     42212     42210     42207     42211     42212
     42214     42213     42217     42218     42215     42213     42217     42218
     42216     42213     42217     42218     42220     42219     42223     42224
     42221     42219     42223     42224     42222     42219     42223     42224
     42226     42225     42229     42230     42227     42225     42229     42230
     42228     42225     42229     42230     42232     42231     42235     42236
     42233     42231     42235     42236     42234     42231     42235     42236
     42238     42237     42241     42242     42239     42237     42241     42242
     42240     42237     42241     42242     42244     42243     42247     42248
     42245     42243     42247     42248     42246     42243     42247     42248
     42250     42249     42253     42254     42251     42249     42253     42254
     42252     42249     42253     42254     42256     42255     42259     42260
     42257     42255     42259     42260     42258     42255     42259     42260
     42262     42261     42265     42266     42263     42261     42265     42266
     42264     42261     42265     42266     42268     42267     42271     42272
     42269     42267     42271     42272     42270     42267     42271     42272
     42274     42273     42277     42278     42275     42273     42277     42278
     42276     42273     42277     42278     42280     42279     42283     42284
     42281     42279     42283     42284     42282     42279     42283     42284
     42286     42285     42289     42290     42287     42285     42289     42290
     42288     42285     42289     42290     42292     42291     42295     42296
     42293     42291     42295     42296     42294     42291     42295     42296
     42298     42297     42301     42302     42299     42297     42301     42302
     42300     42297     42301     42302     42304     42303     42307     42308
     42305     42303     42307     42308     42306     42303     42307     42308
     42310     42309     42313     42314     42311     42309     42313     42314
     42312     42309     42313     42314     42316     42315     42319     42320
     42317     42315     42319     42320     42318     42315     42319     42320
     42322     42321     42325     42326     42323     42321     42325     42326
     42324     42321     42325     42326     42328     42327     42331     42332
     42329     42327     42331     42332     42330     42327     42331     42332
     42334     42333     42337     42338     42335     42333     42337     42338
     42336     42333     42337     42338     42340     42339     42343     42344
     42341     42339     42343     42344     42342     42339     42343     42344
     42346     42345     42349     42350     42347     42345     42349     42350
     42348     42345     42349     42350     42352     42351     42355     42356
     42353     42351     42355     42356     42354     42351     42355     42356
     42358     42357     42361     42362     42359     42357     42361     42362
     42360     42357     42361     42362     42364     42363     42367     42368
     42365     42363     42367     42368     42366     42363     42367     42368
     42370     42369     42373     42374     42371     42369     42373     42374
     42372     42369     42373     42374     42376     42375     42379     42380
     42377     42375     42379     42380     42378     42375     42379     42380
     42382     42381     42385     42386     42383     42381     42385     42386
     42384     42381     42385     42386     42388     42387     42391     42392
     42389     42387     42391     42392     42390     42387     42391     42392
     42394     42393     42397     42398     42395     42393     42397     42398
     42396     42393     42397     42398     42400     42399     42403     42404
     42401     42399     42403     42404     42402     42399     42403     42404
     42406     42405     42409     42410     42407     42405     42409     42410
     42408     42405     42409     42410     42412     42411     42415     42416
     42413     42411     42415     42416     42414     42411     42415     42416
     42418     42417     42421     42422     42419     42417     42421     42422
     42420     42417     42421     42422     42424     42423     42427     42428
     42425     42423     42427     42428     42426     42423     42427     42428
     42430     42429     42433     42434     42431     42429     42433     42434
     42432     42429     42433     42434     42436     42435     42439     42440
     42437     42435     42439     42440     42438     42435     42439     42440
     42442     42441     42445     42446     42443     42441     42445     42446
     42444     42441     42445     42446     42448     42447     42451     42452
     42449     42447     42451     42452     42450     42447     42451     42452
     42454     42453     42457     42458     42455     42453     42457     42458
     42456     42453     42457     42458     42460     42459     42463     42464
     42461     42459     42463     42464     42462     42459     42463     42464
     42466     42465     42469     42470     42467     42465     42469     42470
     42468     42465     42469     42470     42472     42471     42475     42476
     42473     42471     42475     42476     42474     42471     42475     42476
     42478     42477     42481     42482     42479     42477     42481     42482
     42480     42477     42481     42482     42484     42483     42487     42488
     42485     42483     42487     42488     42486     42483     42487     42488
     42490     42489     42493     42494     42491     42489     42493     42494
     42492     42489     42493     42494     42496     42495     42499     42500
     42497     42495     42499     42500     42498     42495     42499     42500
     42502     42501     42505     42506     42503     42501     42505     42506
     42504     42501     42505     42506     42508     42507     42511     42512
     42509     42507     42511     42512     42510     42507     42511     42512
     42514     42513     42517     42518     42515     42513     42517     42518
     42516     42513     42517     42518     42520     42519     42523     42524
     42521     42519     42523     42524     42522     42519     42523     42524
     42526     42525     42529     42530     42527     42525     42529     42530
     42528     42525     42529     42530     42532     42531     42535     42536
     42533     42531     42535     42536     42534     42531     42535     42536
     42538     42537     42541     42542     42539     42537     42541     42542
     42540     42537     42541     42542     42544     42543     42547     42548
     42545     42543     42547     42548     42546     42543     42547     42548
     42550     42549     42553     42554     42551     42549     42553     42554
     42552     42549     42553     42554     42556     42555     42559     42560
     42557     42555     42559     42560     42558     42555     42559     42560
     42562     42561     42565     42566     42563     42561     42565     42566
     42564     42561     42565     42566     42568     42567     42571     42572
     42569     42567     42571     42572     42570     42567     42571     42572
     42574     42573     42577     42578     42575     42573     42577     42578
     42576     42573     42577     42578     42580     42579     42583     42584
     42581     42579     42583     42584     42582     42579     42583     42584
     42586     42585     42589     42590     42587     42585     42589     42590
     42588     42585     42589     42590     42592     42591     42595     42596
     42593     42591     42595     42596     42594     42591     42595     42596
     42598     42597     42601     42602     42599     42597     42601     42602
     42600     42597     42601     42602     42604     42603     42607     42608
     42605     42603     42607     42608     42606     42603     42607     42608
     42610     42609     42613     42614     42611     42609     42613     42614
     42612     42609     42613     42614     42616     42615     42619     42620
     42617     42615     42619     42620     42618     42615     42619     42620
     42622     42621     42625     42626     42623     42621     42625     42626
     42624     42621     42625     42626     42628     42627     42631     42632
     42629     42627     42631     42632     42630     42627     42631     42632
     42634     42633     42637     42638     42635     42633     42637     42638
     42636     42633     42637     42638     42640     42639     42643     42644
     42641     42639     42643     42644     42642     42639     42643     42644
     42646     42645     42649     42650     42647     42645     42649     42650
     42648     42645     42649     42650     42652     42651     42655     42656
     42653     42651     42655     42656     42654     42651     42655     42656
     42658     42657     42661     42662     42659     42657     42661     42662
     42660     42657     42661     42662     42664     42663     42667     42668
     42665     42663     42667     42668     42666     42663     42667     42668
     42670     42669     42673     42674     42671     42669     42673     42674
     42672     42669     42673     42674     42676     42675     42679     42680
     42677     42675     42679     42680     42678     42675     42679     42680
     42682     42681     42685     42686     42683     42681     42685     42686
     42684     42681     42685     42686     42688     42687     42691     42692
     42689     42687     42691     42692     42690     42687     42691     42692
     42694     42693     42697     42698     42695     42693     42697     42698
     42696     42693     42697     42698     42700     42699     42703     42704
     42701     42699     42703     42704     42702     42699     42703     42704
     42706     42705     42709     42710     42707     42705     42709     42710
     42708     42705     42709     42710     42712     42711     42715     42716
     42713     42711     42715     42716     42714     42711     42715     42716
     42718     42717     42721     42722     42719     42717     42721     42722
     42720     42717     42721     42722     42724     42723     42727     42728
     42725     42723     42727     42728     42726     42723     42727     42728
     42730     42729     42733     42734     42731     42729     42733     42734
     42732     42729     42733     42734     42736     42735     42739     42740
     42737     42735     42739     42740     42738     42735     42739     42740
     42742     42741     42745     42746     42743     42741     42745     42746
     42744     42741     42745     42746     42748     42747     42751     42752
     42749     42747     42751     42752     42750     42747     42751     42752
     42754     42753     42757     42758     42755     42753     42757     42758
     42756     42753     42757     42758     42760     42759     42763     42764
     42761     42759     42763     42764     42762     42759     42763     42764
     42766     42765     42769     42770     42767     42765     42769     42770
     42768     42765     42769     42770     42772     42771     42775     42776
     42773     42771     42775     42776     42774     42771     42775     42776
     42778     42777     42781     42782     42779     42777     42781     42782
     42780     42777     42781     42782     42784     42783     42787     42788
     42785     42783     42787     42788     42786     42783     42787     42788
     42790     42789     42793     42794     42791     42789     42793     42794
     42792     42789     42793     42794     42796     42795     42799     42800
     42797     42795     42799     42800     42798     42795     42799     42800
     42802     42801     42805     42806     42803     42801     42805     42806
     42804     42801     42805     42806     42808     42807     42811     42812
     42809     42807     42811     42812     42810     42807     42811     42812
     42814     42813     42817     42818     42815     42813     42817     42818
     42816     42813     42817     42818     42820     42819     42823     42824
     42821     42819     42823     42824     42822     42819     42823     42824
     42826     42825     42829     42830     42827     42825     42829     42830
     42828     42825     42829     42830     42832     42831     42835     42836
     42833     42831     42835     42836     42834     42831     42835     42836
     42838     42837     42841     42842     42839     42837     42841     42842
     42840     42837     42841     42842     42844     42843     42847     42848
     42845     42843     42847     42848     42846     42843     42847     42848
     42850     42849     42853     42854     42851     42849     42853     42854
     42852     42849     42853     42854     42856     42855     42859     42860
     42857     42855     42859     42860     42858     42855     42859     42860
     42862     42861     42865     42866     42863     42861     42865     42866
     42864     42861     42865     42866     42868     42867     42871     42872
     42869     42867     42871     42872     42870     42867     42871     42872
     42874     42873     42877     42878     42875     42873     42877     42878
     42876     42873     42877     42878     42880     42879     42883     42884
     42881     42879     42883     42884     42882     42879     42883     42884
     42886     42885     42889     42890     42887     42885     42889     42890
     42888     42885     42889     42890     42892     42891     42895     42896
     42893     42891     42895     42896     42894     42891     42895     42896
     42898     42897     42901     42902     42899     42897     42901     42902
     42900     42897     42901     42902     42904     42903     42907     42908
     42905     42903     42907     42908     42906     42903     42907     42908
     42910     42909     42913     42914     42911     42909     42913     42914
     42912     42909     42913     42914     42916     42915     42919     42920
     42917     42915     42919     42920     42918     42915     42919     42920
     42922     42921     42925     42926     42923     42921     42925     42926
     42924     42921     42925     42926     42928     42927     42931     42932
     42929     42927     42931     42932     42930     42927     42931     42932
     42934     42933     42937     42938     42935     42933     42937     42938
     42936     42933     42937     42938     42940     42939     42943     42944
     42941     42939     42943     42944     42942     42939     42943     42944
     42946     42945     42949     42950     42947     42945     42949     42950
     42948     42945     42949     42950     42952     42951     42955     42956
     42953     42951     42955     42956     42954     42951     42955     42956
     42958     42957     42961     42962     42959     42957     42961     42962
     42960     42957     42961     42962     42964     42963     42967     42968
     42965     42963     42967     42968     42966     42963     42967     42968
     42970     42969     42973     42974     42971     42969     42973     42974
     42972     42969     42973     42974     42976     42975     42979     42980
     42977     42975     42979     42980     42978     42975     42979     42980
     42982     42981     42985     42986     42983     42981     42985     42986
     42984     42981     42985     42986     42988     42987     42991     42992
     42989     42987     42991     42992     42990     42987     42991     42992
     42994     42993     42997     42998     42995     42993     42997     42998
     42996     42993     42997     42998     43000     42999     43003     43004
     43001     42999     43003     43004     43002     42999     43003     43004
     43006     43005     43009     43010     43007     43005     43009     43010
     43008     43005     43009     43010     43012     43011     43015     43016
     43013     43011     43015     43016     43014     43011     43015     43016
     43018     43017     43021     43022     43019     43017     43021     43022
     43020     43017     43021     43022     43024     43023     43027     43028
     43025     43023     43027     43028     43026     43023     43027     43028
     43030     43029     43033     43034     43031     43029     43033     43034
     43032     43029     43033     43034     43036     43035     43039     43040
     43037     43035     43039     43040     43038     43035     43039     43040
     43042     43041     43045     43046     43043     43041     43045     43046
     43044     43041     43045     43046     43048     43047     43051     43052
     43049     43047     43051     43052     43050     43047     43051     43052
     43054     43053     43057     43058     43055     43053     43057     43058
     43056     43053     43057     43058     43060     43059     43063     43064
     43061     43059     43063     43064     43062     43059     43063     43064
     43066     43065     43069     43070     43067     43065     43069     43070
     43068     43065     43069     43070     43072     43071     43075     43076
     43073     43071     43075     43076     43074     43071     43075     43076
     43078     43077     43081     43082     43079     43077     43081     43082
     43080     43077     43081     43082     43084     43083     43087     43088
     43085     43083     43087     43088     43086     43083     43087     43088
     43090     43089     43093     43094     43091     43089     43093     43094
     43092     43089     43093     43094     43096     43095     43099     43100
     43097     43095     43099     43100     43098     43095     43099     43100
     43102     43101     43105     43106     43103     43101     43105     43106
     43104     43101     43105     43106     43108     43107     43111     43112
     43109     43107     43111     43112     43110     43107     43111     43112
     43114     43113     43117     43118     43115     43113     43117     43118
     43116     43113     43117     43118     43120     43119     43123     43124
     43121     43119     43123     43124     43122     43119     43123     43124
     43126     43125     43129     43130     43127     43125     43129     43130
     43128     43125     43129     43130     43132     43131     43135     43136
     43133     43131     43135     43136     43134     43131     43135     43136
     43138     43137     43141     43142     43139     43137     43141     43142
     43140     43137     43141     43142     43144     43143     43147     43148
     43145     43143     43147     43148     43146     43143     43147     43148
     43150     43149     43153     43154     43151     43149     43153     43154
     43152     43149     43153     43154     43156     43155     43159     43160
     43157     43155     43159     43160     43158     43155     43159     43160
     43162     43161     43165     43166     43163     43161     43165     43166
     43164     43161     43165     43166     43168     43167     43171     43172
     43169     43167     43171     43172     43170     43167     43171     43172
     43174     43173     43177     43178     43175     43173     43177     43178
     43176     43173     43177     43178     43180     43179     43183     43184
     43181     43179     43183     43184     43182     43179     43183     43184
     43186     43185     43189     43190     43187     43185     43189     43190
     43188     43185     43189     43190     43192     43191     43195     43196
     43193     43191     43195     43196     43194     43191     43195     43196
     43198     43197     43201     43202     43199     43197     43201     43202
     43200     43197     43201     43202     43204     43203     43207     43208
     43205     43203     43207     43208     43206     43203     43207     43208
     43210     43209     43213     43214     43211     43209     43213     43214
     43212     43209     43213     43214     43216     43215     43219     43220
     43217     43215     43219     43220     43218     43215     43219     43220
     43222     43221     43225     43226     43223     43221     43225     43226
     43224     43221     43225     43226     43228     43227     43231     43232
     43229     43227     43231     43232     43230     43227     43231     43232
     43234     43233     43237     43238     43235     43233     43237     43238
     43236     43233     43237     43238     43240     43239     43243     43244
     43241     43239     43243     43244     43242     43239     43243     43244
     43246     43245     43249     43250     43247     43245     43249     43250
     43248     43245     43249     43250     43252     43251     43255     43256
     43253     43251     43255     43256     43254     43251     43255     43256
     43258     43257     43261     43262     43259     43257     43261     43262
     43260     43257     43261     43262     43264     43263     43267     43268
     43265     43263     43267     43268     43266     43263     43267     43268
     43270     43269     43273     43274     43271     43269     43273     43274
     43272     43269     43273     43274     43276     43275     43279     43280
     43277     43275     43279     43280     43278     43275     43279     43280
     43282     43281     43285     43286     43283     43281     43285     43286
     43284     43281     43285     43286     43288     43287     43291     43292
     43289     43287     43291     43292     43290     43287     43291     43292
     43294     43293     43297     43298     43295     43293     43297     43298
     43296     43293     43297     43298     43300     43299     43303     43304
     43301     43299     43303     43304     43302     43299     43303     43304
     43306     43305     43309     43310     43307     43305     43309     43310
     43308     43305     43309     43310     43312     43311     43315     43316
     43313     43311     43315     43316     43314     43311     43315     43316
     43318     43317     43321     43322     43319     43317     43321     43322
     43320     43317     43321     43322     43324     43323     43327     43328
     43325     43323     43327     43328     43326     43323     43327     43328
     43330     43329     43333     43334     43331     43329     43333     43334
     43332     43329     43333     43334     43336     43335     43339     43340
     43337     43335     43339     43340     43338     43335     43339     43340
     43342     43341     43345     43346     43343     43341     43345     43346
     43344     43341     43345     43346     43348     43347     43351     43352
     43349     43347     43351     43352     43350     43347     43351     43352
     43354     43353     43357     43358     43355     43353     43357     43358
     43356     43353     43357     43358     43360     43359     43363     43364
     43361     43359     43363     43364     43362     43359     43363     43364
     43366     43365     43369     43370     43367     43365     43369     43370
     43368     43365     43369     43370     43372     43371     43375     43376
     43373     43371     43375     43376     43374     43371     43375     43376
     43378     43377     43381     43382     43379     43377     43381     43382
     43380     43377     43381     43382     43384     43383     43387     43388
     43385     43383     43387     43388     43386     43383     43387     43388
     43390     43389     43393     43394     43391     43389     43393     43394
     43392     43389     43393     43394     43396     43395     43399     43400
     43397     43395     43399     43400     43398     43395     43399     43400
     43402     43401     43405     43406     43403     43401     43405     43406
     43404     43401     43405     43406     43408     43407     43411     43412
     43409     43407     43411     43412     43410     43407     43411     43412
     43414     43413     43417     43418     43415     43413     43417     43418
     43416     43413     43417     43418     43420     43419     43423     43424
     43421     43419     43423     43424     43422     43419     43423     43424
     43426     43425     43429     43430     43427     43425     43429     43430
     43428     43425     43429     43430     43432     43431     43435     43436
     43433     43431     43435     43436     43434     43431     43435     43436
     43438     43437     43441     43442     43439     43437     43441     43442
     43440     43437     43441     43442     43444     43443     43447     43448
     43445     43443     43447     43448     43446     43443     43447     43448
     43450     43449     43453     43454     43451     43449     43453     43454
     43452     43449     43453     43454     43456     43455     43459     43460
     43457     43455     43459     43460     43458     43455     43459     43460
     43462     43461     43465     43466     43463     43461     43465     43466
     43464     43461     43465     43466     43468     43467     43471     43472
     43469     43467     43471     43472     43470     43467     43471     43472
     43474     43473     43477     43478     43475     43473     43477     43478
     43476     43473     43477     43478     43480     43479     43483     43484
     43481     43479     43483     43484     43482     43479     43483     43484
     43486     43485     43489     43490     43487     43485     43489     43490
     43488     43485     43489     43490     43492     43491     43495     43496
     43493     43491     43495     43496     43494     43491     43495     43496
     43498     43497     43501     43502     43499     43497     43501     43502
     43500     43497     43501     43502     43504     43503     43507     43508
     43505     43503     43507     43508     43506     43503     43507     43508
     43510     43509     43513     43514     43511     43509     43513     43514
     43512     43509     43513     43514     43516     43515     43519     43520
     43517     43515     43519     43520     43518     43515     43519     43520
     43522     43521     43525     43526     43523     43521     43525     43526
     43524     43521     43525     43526     43528     43527     43531     43532
     43529     43527     43531     43532     43530     43527     43531     43532
     43534     43533     43537     43538     43535     43533     43537     43538
     43536     43533     43537     43538     43540     43539     43543     43544
     43541     43539     43543     43544     43542     43539     43543     43544
     43546     43545     43549     43550     43547     43545     43549     43550
     43548     43545     43549     43550     43552     43551     43555     43556
     43553     43551     43555     43556     43554     43551     43555     43556
     43558     43557     43561     43562     43559     43557     43561     43562
     43560     43557     43561     43562     43564     43563     43567     43568
     43565     43563     43567     43568     43566     43563     43567     43568
     43570     43569     43573     43574     43571     43569     43573     43574
     43572     43569     43573     43574     43576     43575     43579     43580
     43577     43575     43579     43580     43578     43575     43579     43580
     43582     43581     43585     43586     43583     43581     43585     43586
     43584     43581     43585     43586     43588     43587     43591     43592
     43589     43587     43591     43592     43590     43587     43591     43592
     43594     43593     43597     43598     43595     43593     43597     43598
     43596     43593     43597     43598     43600     43599     43603     43604
     43601     43599     43603     43604     43602     43599     43603     43604
     43606     43605     43609     43610     43607     43605     43609     43610
     43608     43605     43609     43610     43612     43611     43615     43616
     43613     43611     43615     43616     43614     43611     43615     43616
     43618     43617     43621     43622     43619     43617     43621     43622
     43620     43617     43621     43622     43624     43623     43627     43628
     43625     43623     43627     43628     43626     43623     43627     43628
     43630     43629     43633     43634     43631     43629     43633     43634
     43632     43629     43633     43634     43636     43635     43639     43640
     43637     43635     43639     43640     43638     43635     43639     43640
     43642     43641     43645     43646     43643     43641     43645     43646
     43644     43641     43645     43646     43648     43647     43651     43652
     43649     43647     43651     43652     43650     43647     43651     43652
     43654     43653     43657     43658     43655     43653     43657     43658
     43656     43653     43657     43658     43660     43659     43663     43664
     43661     43659     43663     43664     43662     43659     43663     43664
     43666     43665     43669     43670     43667     43665     43669     43670
     43668     43665     43669     43670     43672     43671     43675     43676
     43673     43671     43675     43676     43674     43671     43675     43676
     43678     43677     43681     43682     43679     43677     43681     43682
     43680     43677     43681     43682     43684     43683     43687     43688
     43685     43683     43687     43688     43686     43683     43687     43688
     43690     43689     43693     43694     43691     43689     43693     43694
     43692     43689     43693     43694     43696     43695     43699     43700
     43697     43695     43699     43700     43698     43695     43699     43700
     43702     43701     43705     43706     43703     43701     43705     43706
     43704     43701     43705     43706     43708     43707     43711     43712
     43709     43707     43711     43712     43710     43707     43711     43712
     43714     43713     43717     43718     43715     43713     43717     43718
     43716     43713     43717     43718     43720     43719     43723     43724
     43721     43719     43723     43724     43722     43719     43723     43724
     43726     43725     43729     43730     43727     43725     43729     43730
     43728     43725     43729     43730     43732     43731     43735     43736
     43733     43731     43735     43736     43734     43731     43735     43736
     43738     43737     43741     43742     43739     43737     43741     43742
     43740     43737     43741     43742     43744     43743     43747     43748
     43745     43743     43747     43748     43746     43743     43747     43748
     43750     43749     43753     43754     43751     43749     43753     43754
     43752     43749     43753     43754     43756     43755     43759     43760
     43757     43755     43759     43760     43758     43755     43759     43760
     43762     43761     43765     43766     43763     43761     43765     43766
     43764     43761     43765     43766     43768     43767     43771     43772
     43769     43767     43771     43772     43770     43767     43771     43772
     43774     43773     43777     43778     43775     43773     43777     43778
     43776     43773     43777     43778     43780     43779     43783     43784
     43781     43779     43783     43784     43782     43779     43783     43784
     43786     43785     43789     43790     43787     43785     43789     43790
     43788     43785     43789     43790     43792     43791     43795     43796
     43793     43791     43795     43796     43794     43791     43795     43796
     43798     43797     43801     43802     43799     43797     43801     43802
     43800     43797     43801     43802     43804     43803     43807     43808
     43805     43803     43807     43808     43806     43803     43807     43808
     43810     43809     43813     43814     43811     43809     43813     43814
     43812     43809     43813     43814     43816     43815     43819     43820
     43817     43815     43819     43820     43818     43815     43819     43820
     43822     43821     43825     43826     43823     43821     43825     43826
     43824     43821     43825     43826     43828     43827     43831     43832
     43829     43827     43831     43832     43830     43827     43831     43832
     43834     43833     43837     43838     43835     43833     43837     43838
     43836     43833     43837     43838     43840     43839     43843     43844
     43841     43839     43843     43844     43842     43839     43843     43844
     43846     43845     43849     43850     43847     43845     43849     43850
     43848     43845     43849     43850     43852     43851     43855     43856
     43853     43851     43855     43856     43854     43851     43855     43856
     43858     43857     43861     43862     43859     43857     43861     43862
     43860     43857     43861     43862     43864     43863     43867     43868
     43865     43863     43867     43868     43866     43863     43867     43868
     43870     43869     43873     43874     43871     43869     43873     43874
     43872     43869     43873     43874     43876     43875     43879     43880
     43877     43875     43879     43880     43878     43875     43879     43880
     43882     43881     43885     43886     43883     43881     43885     43886
     43884     43881     43885     43886     43888     43887     43891     43892
     43889     43887     43891     43892     43890     43887     43891     43892
     43894     43893     43897     43898     43895     43893     43897     43898
     43896     43893     43897     43898     43900     43899     43903     43904
     43901     43899     43903     43904     43902     43899     43903     43904
     43906     43905     43909     43910     43907     43905     43909     43910
     43908     43905     43909     43910     43912     43911     43915     43916
     43913     43911     43915     43916     43914     43911     43915     43916
     43918     43917     43921     43922     43919     43917     43921     43922
     43920     43917     43921     43922     43924     43923     43927     43928
     43925     43923     43927     43928     43926     43923     43927     43928
     43930     43929     43933     43934     43931     43929     43933     43934
     43932     43929     43933     43934     43936     43935     43939     43940
     43937     43935     43939     43940     43938     43935     43939     43940
     43942     43941     43945     43946     43943     43941     43945     43946
     43944     43941     43945     43946     43948     43947     43951     43952
     43949     43947     43951     43952     43950     43947     43951     43952
     43954     43953     43957     43958     43955     43953     43957     43958
     43956     43953     43957     43958     43960     43959     43963     43964
     43961     43959     43963     43964     43962     43959     43963     43964
     43966     43965     43969     43970     43967     43965     43969     43970
     43968     43965     43969     43970     43972     43971     43975     43976
     43973     43971     43975     43976     43974     43971     43975     43976
     43978     43977     43981     43982     43979     43977     43981     43982
     43980     43977     43981     43982     43984     43983     43987     43988
     43985     43983     43987     43988     43986     43983     43987     43988
     43990     43989     43993     43994     43991     43989     43993     43994
     43992     43989     43993     43994     43996     43995     43999     44000
     43997     43995     43999     44000     43998     43995     43999     44000
     44002     44001     44005     44006     44003     44001     44005     44006
     44004     44001     44005     44006     44008     44007     44011     44012
     44009     44007     44011     44012     44010     44007     44011     44012
     44014     44013     44017     44018     44015     44013     44017     44018
     44016     44013     44017     44018     44020     44019     44023     44024
     44021     44019     44023     44024     44022     44019     44023     44024
     44026     44025     44029     44030     44027     44025     44029     44030
     44028     44025     44029     44030     44032     44031     44035     44036
     44033     44031     44035     44036     44034     44031     44035     44036
     44038     44037     44041     44042     44039     44037     44041     44042
     44040     44037     44041     44042     44044     44043     44047     44048
     44045     44043     44047     44048     44046     44043     44047     44048
     44050     44049     44053     44054     44051     44049     44053     44054
     44052     44049     44053     44054     44056     44055     44059     44060
     44057     44055     44059     44060     44058     44055     44059     44060
     44062     44061     44065     44066     44063     44061     44065     44066
     44064     44061     44065     44066     44068     44067     44071     44072
     44069     44067     44071     44072     44070     44067     44071     44072
     44074     44073     44077     44078     44075     44073     44077     44078
     44076     44073     44077     44078     44080     44079     44083     44084
     44081     44079     44083     44084     44082     44079     44083     44084
     44086     44085     44089     44090     44087     44085     44089     44090
     44088     44085     44089     44090     44092     44091     44095     44096
     44093     44091     44095     44096     44094     44091     44095     44096
     44098     44097     44101     44102     44099     44097     44101     44102
     44100     44097     44101     44102     44104     44103     44107     44108
     44105     44103     44107     44108     44106     44103     44107     44108
     44110     44109     44113     44114     44111     44109     44113     44114
     44112     44109     44113     44114     44116     44115     44119     44120
     44117     44115     44119     44120     44118     44115     44119     44120
     44122     44121     44125     44126     44123     44121     44125     44126
     44124     44121     44125     44126     44128     44127     44131     44132
     44129     44127     44131     44132     44130     44127     44131     44132
     44134     44133     44137     44138     44135     44133     44137     44138
     44136     44133     44137     44138     44140     44139     44143     44144
     44141     44139     44143     44144     44142     44139     44143     44144
     44146     44145     44149     44150     44147     44145     44149     44150
     44148     44145     44149     44150     44152     44151     44155     44156
     44153     44151     44155     44156     44154     44151     44155     44156
     44158     44157     44161     44162     44159     44157     44161     44162
     44160     44157     44161     44162     44164     44163     44167     44168
     44165     44163     44167     44168     44166     44163     44167     44168
     44170     44169     44173     44174     44171     44169     44173     44174
     44172     44169     44173     44174     44176     44175     44179     44180
     44177     44175     44179     44180     44178     44175     44179     44180
     44182     44181     44185     44186     44183     44181     44185     44186
     44184     44181     44185     44186     44188     44187     44191     44192
     44189     44187     44191     44192     44190     44187     44191     44192
     44194     44193     44197     44198     44195     44193     44197     44198
     44196     44193     44197     44198     44200     44199     44203     44204
     44201     44199     44203     44204     44202     44199     44203     44204
     44206     44205     44209     44210     44207     44205     44209     44210
     44208     44205     44209     44210     44212     44211     44215     44216
     44213     44211     44215     44216     44214     44211     44215     44216
     44218     44217     44221     44222     44219     44217     44221     44222
     44220     44217     44221     44222     44224     44223     44227     44228
     44225     44223     44227     44228     44226     44223     44227     44228
     44230     44229     44233     44234     44231     44229     44233     44234
     44232     44229     44233     44234     44236     44235     44239     44240
     44237     44235     44239     44240     44238     44235     44239     44240
     44242     44241     44245     44246     44243     44241     44245     44246
     44244     44241     44245     44246     44248     44247     44251     44252
     44249     44247     44251     44252     44250     44247     44251     44252
     44254     44253     44257     44258     44255     44253     44257     44258
     44256     44253     44257     44258     44260     44259     44263     44264
     44261     44259     44263     44264     44262     44259     44263     44264
     44266     44265     44269     44270     44267     44265     44269     44270
     44268     44265     44269     44270     44272     44271     44275     44276
     44273     44271     44275     44276     44274     44271     44275     44276
     44278     44277     44281     44282     44279     44277     44281     44282
     44280     44277     44281     44282     44284     44283     44287     44288
     44285     44283     44287     44288     44286     44283     44287     44288
     44290     44289     44293     44294     44291     44289     44293     44294
     44292     44289     44293     44294     44296     44295     44299     44300
     44297     44295     44299     44300     44298     44295     44299     44300
     44302     44301     44305     44306     44303     44301     44305     44306
     44304     44301     44305     44306     44308     44307     44311     44312
     44309     44307     44311     44312     44310     44307     44311     44312
     44314     44313     44317     44318     44315     44313     44317     44318
     44316     44313     44317     44318     44320     44319     44323     44324
     44321     44319     44323     44324     44322     44319     44323     44324
     44326     44325     44329     44330     44327     44325     44329     44330
     44328     44325     44329     44330     44332     44331     44335     44336
     44333     44331     44335     44336     44334     44331     44335     44336
     44338     44337     44341     44342     44339     44337     44341     44342
     44340     44337     44341     44342     44344     44343     44347     44348
     44345     44343     44347     44348     44346     44343     44347     44348
     44350     44349     44353     44354     44351     44349     44353     44354
     44352     44349     44353     44354     44356     44355     44359     44360
     44357     44355     44359     44360     44358     44355     44359     44360
     44362     44361     44365     44366     44363     44361     44365     44366
     44364     44361     44365     44366     44368     44367     44371     44372
     44369     44367     44371     44372     44370     44367     44371     44372
     44374     44373     44377     44378     44375     44373     44377     44378
     44376     44373     44377     44378     44380     44379     44383     44384
     44381     44379     44383     44384     44382     44379     44383     44384
     44386     44385     44389     44390     44387     44385     44389     44390
     44388     44385     44389     44390     44392     44391     44395     44396
     44393     44391     44395     44396     44394     44391     44395     44396
     44398     44397     44401     44402     44399     44397     44401     44402
     44400     44397     44401     44402     44404     44403     44407     44408
     44405     44403     44407     44408     44406     44403     44407     44408
     44410     44409     44413     44414     44411     44409     44413     44414
     44412     44409     44413     44414     44416     44415     44419     44420
     44417     44415     44419     44420     44418     44415     44419     44420
     44422     44421     44425     44426     44423     44421     44425     44426
     44424     44421     44425     44426     44428     44427     44431     44432
     44429     44427     44431     44432     44430     44427     44431     44432
     44434     44433     44437     44438     44435     44433     44437     44438
     44436     44433     44437     44438     44440     44439     44443     44444
     44441     44439     44443     44444     44442     44439     44443     44444
     44446     44445     44449     44450     44447     44445     44449     44450
     44448     44445     44449     44450     44452     44451     44455     44456
     44453     44451     44455     44456     44454     44451     44455     44456
     44458     44457     44461     44462     44459     44457     44461     44462
     44460     44457     44461     44462     44464     44463     44467     44468
     44465     44463     44467     44468     44466     44463     44467     44468
     44470     44469     44473     44474     44471     44469     44473     44474
     44472     44469     44473     44474     44476     44475     44479     44480
     44477     44475     44479     44480     44478     44475     44479     44480
     44482     44481     44485     44486     44483     44481     44485     44486
     44484     44481     44485     44486     44488     44487     44491     44492
     44489     44487     44491     44492     44490     44487     44491     44492
     44494     44493     44497     44498     44495     44493     44497     44498
     44496     44493     44497     44498     44500     44499     44503     44504
     44501     44499     44503     44504     44502     44499     44503     44504
     44506     44505     44509     44510     44507     44505     44509     44510
     44508     44505     44509     44510     44512     44511     44515     44516
     44513     44511     44515     44516     44514     44511     44515     44516
     44518     44517     44521     44522     44519     44517     44521     44522
     44520     44517     44521     44522     44524     44523     44527     44528
     44525     44523     44527     44528     44526     44523     44527     44528
     44530     44529     44533     44534     44531     44529     44533     44534
     44532     44529     44533     44534     44536     44535     44539     44540
     44537     44535     44539     44540     44538     44535     44539     44540
     44542     44541     44545     44546     44543     44541     44545     44546
     44544     44541     44545     44546     44548     44547     44551     44552
     44549     44547     44551     44552     44550     44547     44551     44552
     44554     44553     44557     44558     44555     44553     44557     44558
     44556     44553     44557     44558     44560     44559     44563     44564
     44561     44559     44563     44564     44562     44559     44563     44564
     44566     44565     44569     44570     44567     44565     44569     44570
     44568     44565     44569     44570     44572     44571     44575     44576
     44573     44571     44575     44576     44574     44571     44575     44576
     44578     44577     44581     44582     44579     44577     44581     44582
     44580     44577     44581     44582     44584     44583     44587     44588
     44585     44583     44587     44588     44586     44583     44587     44588
     44590     44589     44593     44594     44591     44589     44593     44594
     44592     44589     44593     44594     44596     44595     44599     44600
     44597     44595     44599     44600     44598     44595     44599     44600
     44602     44601     44605     44606     44603     44601     44605     44606
     44604     44601     44605     44606     44608     44607     44611     44612
     44609     44607     44611     44612     44610     44607     44611     44612
     44614     44613     44617     44618     44615     44613     44617     44618
     44616     44613     44617     44618     44620     44619     44623     44624
     44621     44619     44623     44624     44622     44619     44623     44624
     44626     44625     44629     44630     44627     44625     44629     44630
     44628     44625     44629     44630     44632     44631     44635     44636
     44633     44631     44635     44636     44634     44631     44635     44636
     44638     44637     44641     44642     44639     44637     44641     44642
     44640     44637     44641     44642     44644     44643     44647     44648
     44645     44643     44647     44648     44646     44643     44647     44648
     44650     44649     44653     44654     44651     44649     44653     44654
     44652     44649     44653     44654     44656     44655     44659     44660
     44657     44655     44659     44660     44658     44655     44659     44660
     44662     44661     44665     44666     44663     44661     44665     44666
     44664     44661     44665     44666     44668     44667     44671     44672
     44669     44667     44671     44672     44670     44667     44671     44672
     44674     44673     44677     44678     44675     44673     44677     44678
     44676     44673     44677     44678     44680     44679     44683     44684
     44681     44679     44683     44684     44682     44679     44683     44684
     44686     44685     44689     44690     44687     44685     44689     44690
     44688     44685     44689     44690     44692     44691     44695     44696
     44693     44691     44695     44696     44694     44691     44695     44696
     44698     44697     44701     44702     44699     44697     44701     44702
     44700     44697     44701     44702     44704     44703     44707     44708
     44705     44703     44707     44708     44706     44703     44707     44708
     44710     44709     44713     44714     44711     44709     44713     44714
     44712     44709     44713     44714     44716     44715     44719     44720
     44717     44715     44719     44720     44718     44715     44719     44720
     44722     44721     44725     44726     44723     44721     44725     44726
     44724     44721     44725     44726     44728     44727     44731     44732
     44729     44727     44731     44732     44730     44727     44731     44732
     44734     44733     44737     44738     44735     44733     44737     44738
     44736     44733     44737     44738     44740     44739     44743     44744
     44741     44739     44743     44744     44742     44739     44743     44744
     44746     44745     44749     44750     44747     44745     44749     44750
     44748     44745     44749     44750     44752     44751     44755     44756
     44753     44751     44755     44756     44754     44751     44755     44756
     44758     44757     44761     44762     44759     44757     44761     44762
     44760     44757     44761     44762     44764     44763     44767     44768
     44765     44763     44767     44768     44766     44763     44767     44768
     44770     44769     44773     44774     44771     44769     44773     44774
     44772     44769     44773     44774     44776     44775     44779     44780
     44777     44775     44779     44780     44778     44775     44779     44780
     44782     44781     44785     44786     44783     44781     44785     44786
     44784     44781     44785     44786     44788     44787     44791     44792
     44789     44787     44791     44792     44790     44787     44791     44792
     44794     44793     44797     44798     44795     44793     44797     44798
     44796     44793     44797     44798     44800     44799     44803     44804
     44801     44799     44803     44804     44802     44799     44803     44804
     44806     44805     44809     44810     44807     44805     44809     44810
     44808     44805     44809     44810     44812     44811     44815     44816
     44813     44811     44815     44816     44814     44811     44815     44816
     44818     44817     44821     44822     44819     44817     44821     44822
     44820     44817     44821     44822     44824     44823     44827     44828
     44825     44823     44827     44828     44826     44823     44827     44828
     44830     44829     44833     44834     44831     44829     44833     44834
     44832     44829     44833     44834     44836     44835     44839     44840
     44837     44835     44839     44840     44838     44835     44839     44840
     44842     44841     44845     44846     44843     44841     44845     44846
     44844     44841     44845     44846     44848     44847     44851     44852
     44849     44847     44851     44852     44850     44847     44851     44852
     44854     44853     44857     44858     44855     44853     44857     44858
     44856     44853     44857     44858     44860     44859     44863     44864
     44861     44859     44863     44864     44862     44859     44863     44864
     44866     44865     44869     44870     44867     44865     44869     44870
     44868     44865     44869     44870     44872     44871     44875     44876
     44873     44871     44875     44876     44874     44871     44875     44876
     44878     44877     44881     44882     44879     44877     44881     44882
     44880     44877     44881     44882     44884     44883     44887     44888
     44885     44883     44887     44888     44886     44883     44887     44888
     44890     44889     44893     44894     44891     44889     44893     44894
     44892     44889     44893     44894     44896     44895     44899     44900
     44897     44895     44899     44900     44898     44895     44899     44900
     44902     44901     44905     44906     44903     44901     44905     44906
     44904     44901     44905     44906     44908     44907     44911     44912
     44909     44907     44911     44912     44910     44907     44911     44912
     44914     44913     44917     44918     44915     44913     44917     44918
     44916     44913     44917     44918     44920     44919     44923     44924
     44921     44919     44923     44924     44922     44919     44923     44924
     44926     44925     44929     44930     44927     44925     44929     44930
     44928     44925     44929     44930     44932     44931     44935     44936
     44933     44931     44935     44936     44934     44931     44935     44936
     44938     44937     44941     44942     44939     44937     44941     44942
     44940     44937     44941     44942     44944     44943     44947     44948
     44945     44943     44947     44948     44946     44943     44947     44948
     44950     44949     44953     44954     44951     44949     44953     44954
     44952     44949     44953     44954     44956     44955     44959     44960
     44957     44955     44959     44960     44958     44955     44959     44960
     44962     44961     44965     44966     44963     44961     44965     44966
     44964     44961     44965     44966     44968     44967     44971     44972
     44969     44967     44971     44972     44970     44967     44971     44972
     44974     44973     44977     44978     44975     44973     44977     44978
     44976     44973     44977     44978     44980     44979     44983     44984
     44981     44979     44983     44984     44982     44979     44983     44984
     44986     44985     44989     44990     44987     44985     44989     44990
     44988     44985     44989     44990     44992     44991     44995     44996
     44993     44991     44995     44996     44994     44991     44995     44996
     44998     44997     45001     45002     44999     44997     45001     45002
     45000     44997     45001     45002     45004     45003     45007     45008
     45005     45003     45007     45008     45006     45003     45007     45008
     45010     45009     45013     45014     45011     45009     45013     45014
     45012     45009     45013     45014     45016     45015     45019     45020
     45017     45015     45019     45020     45018     45015     45019     45020
     45022     45021     45025     45026     45023     45021     45025     45026
     45024     45021     45025     45026     45028     45027     45031     45032
     45029     45027     45031     45032     45030     45027     45031     45032
     45034     45033     45037     45038     45035     45033     45037     45038
     45036     45033     45037     45038     45040     45039     45043     45044
     45041     45039     45043     45044     45042     45039     45043     45044
     45046     45045     45049     45050     45047     45045     45049     45050
     45048     45045     45049     45050     45052     45051     45055     45056
     45053     45051     45055     45056     45054     45051     45055     45056
     45058     45057     45061     45062     45059     45057     45061     45062
     45060     45057     45061     45062     45064     45063     45067     45068
     45065     45063     45067     45068     45066     45063     45067     45068
     45070     45069     45073     45074     45071     45069     45073     45074
     45072     45069     45073     45074     45076     45075     45079     45080
     45077     45075     45079     45080     45078     45075     45079     45080
     45082     45081     45085     45086     45083     45081     45085     45086
     45084     45081     45085     45086     45088     45087     45091     45092
     45089     45087     45091     45092     45090     45087     45091     45092
     45094     45093     45097     45098     45095     45093     45097     45098
     45096     45093     45097     45098     45100     45099     45103     45104
     45101     45099     45103     45104     45102     45099     45103     45104
     45106     45105     45109     45110     45107     45105     45109     45110
     45108     45105     45109     45110     45112     45111     45115     45116
     45113     45111     45115     45116     45114     45111     45115     45116
     45118     45117     45121     45122     45119     45117     45121     45122
     45120     45117     45121     45122     45124     45123     45127     45128
     45125     45123     45127     45128     45126     45123     45127     45128
     45130     45129     45133     45134     45131     45129     45133     45134
     45132     45129     45133     45134     45136     45135     45139     45140
     45137     45135     45139     45140     45138     45135     45139     45140
     45142     45141     45145     45146     45143     45141     45145     45146
     45144     45141     45145     45146     45148     45147     45151     45152
     45149     45147     45151     45152     45150     45147     45151     45152
     45154     45153     45157     45158     45155     45153     45157     45158
     45156     45153     45157     45158     45160     45159     45163     45164
     45161     45159     45163     45164     45162     45159     45163     45164
     45166     45165     45169     45170     45167     45165     45169     45170
     45168     45165     45169     45170     45172     45171     45175     45176
     45173     45171     45175     45176     45174     45171     45175     45176
     45178     45177     45181     45182     45179     45177     45181     45182
     45180     45177     45181     45182     45184     45183     45187     45188
     45185     45183     45187     45188     45186     45183     45187     45188
     45190     45189     45193     45194     45191     45189     45193     45194
     45192     45189     45193     45194     45196     45195     45199     45200
     45197     45195     45199     45200     45198     45195     45199     45200
     45202     45201     45205     45206     45203     45201     45205     45206
     45204     45201     45205     45206     45208     45207     45211     45212
     45209     45207     45211     45212     45210     45207     45211     45212
     45214     45213     45217     45218     45215     45213     45217     45218
     45216     45213     45217     45218     45220     45219     45223     45224
     45221     45219     45223     45224     45222     45219     45223     45224
     45226     45225     45229     45230     45227     45225     45229     45230
     45228     45225     45229     45230     45232     45231     45235     45236
     45233     45231     45235     45236     45234     45231     45235     45236
     45238     45237     45241     45242     45239     45237     45241     45242
     45240     45237     45241     45242     45244     45243     45247     45248
     45245     45243     45247     45248     45246     45243     45247     45248
     45250     45249     45253     45254     45251     45249     45253     45254
     45252     45249     45253     45254     45256     45255     45259     45260
     45257     45255     45259     45260     45258     45255     45259     45260
     45262     45261     45265     45266     45263     45261     45265     45266
     45264     45261     45265     45266     45268     45267     45271     45272
     45269     45267     45271     45272     45270     45267     45271     45272
     45274     45273     45277     45278     45275     45273     45277     45278
     45276     45273     45277     45278     45280     45279     45283     45284
     45281     45279     45283     45284     45282     45279     45283     45284
     45286     45285     45289     45290     45287     45285     45289     45290
     45288     45285     45289     45290     45292     45291     45295     45296
     45293     45291     45295     45296     45294     45291     45295     45296
     45298     45297     45301     45302     45299     45297     45301     45302
     45300     45297     45301     45302     45304     45303     45307     45308
     45305     45303     45307     45308     45306     45303     45307     45308
     45310     45309     45313     45314     45311     45309     45313     45314
     45312     45309     45313     45314     45316     45315     45319     45320
     45317     45315     45319     45320     45318     45315     45319     45320
     45322     45321     45325     45326     45323     45321     45325     45326
     45324     45321     45325     45326     45328     45327     45331     45332
     45329     45327     45331     45332     45330     45327     45331     45332
     45334     45333     45337     45338     45335     45333     45337     45338
     45336     45333     45337     45338     45340     45339     45343     45344
     45341     45339     45343     45344     45342     45339     45343     45344
     45346     45345     45349     45350     45347     45345     45349     45350
     45348     45345     45349     45350     45352     45351     45355     45356
     45353     45351     45355     45356     45354     45351     45355     45356
     45358     45357     45361     45362     45359     45357     45361     45362
     45360     45357     45361     45362     45364     45363     45367     45368
     45365     45363     45367     45368     45366     45363     45367     45368
     45370     45369     45373     45374     45371     45369     45373     45374
     45372     45369     45373     45374     45376     45375     45379     45380
     45377     45375     45379     45380     45378     45375     45379     45380
     45382     45381     45385     45386     45383     45381     45385     45386
     45384     45381     45385     45386     45388     45387     45391     45392
     45389     45387     45391     45392     45390     45387     45391     45392
     45394     45393     45397     45398     45395     45393     45397     45398
     45396     45393     45397     45398     45400     45399     45403     45404
     45401     45399     45403     45404     45402     45399     45403     45404
     45406     45405     45409     45410     45407     45405     45409     45410
     45408     45405     45409     45410     45412     45411     45415     45416
     45413     45411     45415     45416     45414     45411     45415     45416
     45418     45417     45421     45422     45419     45417     45421     45422
     45420     45417     45421     45422     45424     45423     45427     45428
     45425     45423     45427     45428     45426     45423     45427     45428
     45430     45429     45433     45434     45431     45429     45433     45434
     45432     45429     45433     45434     45436     45435     45439     45440
     45437     45435     45439     45440     45438     45435     45439     45440
     45442     45441     45445     45446     45443     45441     45445     45446
     45444     45441     45445     45446     45448     45447     45451     45452
     45449     45447     45451     45452     45450     45447     45451     45452
     45454     45453     45457     45458     45455     45453     45457     45458
     45456     45453     45457     45458     45460     45459     45463     45464
     45461     45459     45463     45464     45462     45459     45463     45464
     45466     45465     45469     45470     45467     45465     45469     45470
     45468     45465     45469     45470     45472     45471     45475     45476
     45473     45471     45475     45476     45474     45471     45475     45476
     45478     45477     45481     45482     45479     45477     45481     45482
     45480     45477     45481     45482     45484     45483     45487     45488
     45485     45483     45487     45488     45486     45483     45487     45488
     45490     45489     45493     45494     45491     45489     45493     45494
     45492     45489     45493     45494     45496     45495     45499     45500
     45497     45495     45499     45500     45498     45495     45499     45500
     45502     45501     45505     45506     45503     45501     45505     45506
     45504     45501     45505     45506     45508     45507     45511     45512
     45509     45507     45511     45512     45510     45507     45511     45512
     45514     45513     45517     45518     45515     45513     45517     45518
     45516     45513     45517     45518     45520     45519     45523     45524
     45521     45519     45523     45524     45522     45519     45523     45524
     45526     45525     45529     45530     45527     45525     45529     45530
     45528     45525     45529     45530     45532     45531     45535     45536
     45533     45531     45535     45536     45534     45531     45535     45536
     45538     45537     45541     45542     45539     45537     45541     45542
     45540     45537     45541     45542     45544     45543     45547     45548
     45545     45543     45547     45548     45546     45543     45547     45548
     45550     45549     45553     45554     45551     45549     45553     45554
     45552     45549     45553     45554     45556     45555     45559     45560
     45557     45555     45559     45560     45558     45555     45559     45560
     45562     45561     45565     45566     45563     45561     45565     45566
     45564     45561     45565     45566     45568     45567     45571     45572
     45569     45567     45571     45572     45570     45567     45571     45572
     45574     45573     45577     45578     45575     45573     45577     45578
     45576     45573     45577     45578     45580     45579     45583     45584
     45581     45579     45583     45584     45582     45579     45583     45584
     45586     45585     45589     45590     45587     45585     45589     45590
     45588     45585     45589     45590     45592     45591     45595     45596
     45593     45591     45595     45596     45594     45591     45595     45596
     45598     45597     45601     45602     45599     45597     45601     45602
     45600     45597     45601     45602     45604     45603     45607     45608
     45605     45603     45607     45608     45606     45603     45607     45608
     45610     45609     45613     45614     45611     45609     45613     45614
     45612     45609     45613     45614     45616     45615     45619     45620
     45617     45615     45619     45620     45618     45615     45619     45620
     45622     45621     45625     45626     45623     45621     45625     45626
     45624     45621     45625     45626     45628     45627     45631     45632
     45629     45627     45631     45632     45630     45627     45631     45632
     45634     45633     45637     45638     45635     45633     45637     45638
     45636     45633     45637     45638     45640     45639     45643     45644
     45641     45639     45643     45644     45642     45639     45643     45644
     45646     45645     45649     45650     45647     45645     45649     45650
     45648     45645     45649     45650     45652     45651     45655     45656
     45653     45651     45655     45656     45654     45651     45655     45656
     45658     45657     45661     45662     45659     45657     45661     45662
     45660     45657     45661     45662     45664     45663     45667     45668
     45665     45663     45667     45668     45666     45663     45667     45668
     45670     45669     45673     45674     45671     45669     45673     45674
     45672     45669     45673     45674     45676     45675     45679     45680
     45677     45675     45679     45680     45678     45675     45679     45680
     45682     45681     45685     45686     45683     45681     45685     45686
     45684     45681     45685     45686     45688     45687     45691     45692
     45689     45687     45691     45692     45690     45687     45691     45692
     45694     45693     45697     45698     45695     45693     45697     45698
     45696     45693     45697     45698     45700     45699     45703     45704
     45701     45699     45703     45704     45702     45699     45703     45704
     45706     45705     45709     45710     45707     45705     45709     45710
     45708     45705     45709     45710     45712     45711     45715     45716
     45713     45711     45715     45716     45714     45711     45715     45716
     45718     45717     45721     45722     45719     45717     45721     45722
     45720     45717     45721     45722     45724     45723     45727     45728
     45725     45723     45727     45728     45726     45723     45727     45728
     45730     45729     45733     45734     45731     45729     45733     45734
     45732     45729     45733     45734     45736     45735     45739     45740
     45737     45735     45739     45740     45738     45735     45739     45740
     45742     45741     45745     45746     45743     45741     45745     45746
     45744     45741     45745     45746     45748     45747     45751     45752
     45749     45747     45751     45752     45750     45747     45751     45752
     45754     45753     45757     45758     45755     45753     45757     45758
     45756     45753     45757     45758     45760     45759     45763     45764
     45761     45759     45763     45764     45762     45759     45763     45764
     45766     45765     45769     45770     45767     45765     45769     45770
     45768     45765     45769     45770     45772     45771     45775     45776
     45773     45771     45775     45776     45774     45771     45775     45776
     45778     45777     45781     45782     45779     45777     45781     45782
     45780     45777     45781     45782     45784     45783     45787     45788
     45785     45783     45787     45788     45786     45783     45787     45788
     45790     45789     45793     45794     45791     45789     45793     45794
     45792     45789     45793     45794     45796     45795     45799     45800
     45797     45795     45799     45800     45798     45795     45799     45800
     45802     45801     45805     45806     45803     45801     45805     45806
     45804     45801     45805     45806     45808     45807     45811     45812
     45809     45807     45811     45812     45810     45807     45811     45812
     45814     45813     45817     45818     45815     45813     45817     45818
     45816     45813     45817     45818     45820     45819     45823     45824
     45821     45819     45823     45824     45822     45819     45823     45824
     45826     45825     45829     45830     45827     45825     45829     45830
     45828     45825     45829     45830     45832     45831     45835     45836
     45833     45831     45835     45836     45834     45831     45835     45836
     45838     45837     45841     45842     45839     45837     45841     45842
     45840     45837     45841     45842     45844     45843     45847     45848
     45845     45843     45847     45848     45846     45843     45847     45848
     45850     45849     45853     45854     45851     45849     45853     45854
     45852     45849     45853     45854     45856     45855     45859     45860
     45857     45855     45859     45860     45858     45855     45859     45860
     45862     45861     45865     45866     45863     45861     45865     45866
     45864     45861     45865     45866     45868     45867     45871     45872
     45869     45867     45871     45872     45870     45867     45871     45872
     45874     45873     45877     45878     45875     45873     45877     45878
     45876     45873     45877     45878     45880     45879     45883     45884
     45881     45879     45883     45884     45882     45879     45883     45884
     45886     45885     45889     45890     45887     45885     45889     45890
     45888     45885     45889     45890     45892     45891     45895     45896
     45893     45891     45895     45896     45894     45891     45895     45896
     45898     45897     45901     45902     45899     45897     45901     45902
     45900     45897     45901     45902     45904     45903     45907     45908
     45905     45903     45907     45908     45906     45903     45907     45908
     45910     45909     45913     45914     45911     45909     45913     45914
     45912     45909     45913     45914     45916     45915     45919     45920
     45917     45915     45919     45920     45918     45915     45919     45920
     45922     45921     45925     45926     45923     45921     45925     45926
     45924     45921     45925     45926     45928     45927     45931     45932
     45929     45927     45931     45932     45930     45927     45931     45932
     45934     45933     45937     45938     45935     45933     45937     45938
     45936     45933     45937     45938     45940     45939     45943     45944
     45941     45939     45943     45944     45942     45939     45943     45944
     45946     45945     45949     45950     45947     45945     45949     45950
     45948     45945     45949     45950     45952     45951     45955     45956
     45953     45951     45955     45956     45954     45951     45955     45956
     45958     45957     45961     45962     45959     45957     45961     45962
     45960     45957     45961     45962     45964     45963     45967     45968
     45965     45963     45967     45968     45966     45963     45967     45968
     45970     45969     45973     45974     45971     45969     45973     45974
     45972     45969     45973     45974     45976     45975     45979     45980
     45977     45975     45979     45980     45978     45975     45979     45980
     45982     45981     45985     45986     45983     45981     45985     45986
     45984     45981     45985     45986     45988     45987     45991     45992
     45989     45987     45991     45992     45990     45987     45991     45992
     45994     45993     45997     45998     45995     45993     45997     45998
     45996     45993     45997     45998     46000     45999     46003     46004
     46001     45999     46003     46004     46002     45999     46003     46004
     46006     46005     46009     46010     46007     46005     46009     46010
     46008     46005     46009     46010     46012     46011     46015     46016
     46013     46011     46015     46016     46014     46011     46015     46016
     46018     46017     46021     46022     46019     46017     46021     46022
     46020     46017     46021     46022     46024     46023     46027     46028
     46025     46023     46027     46028     46026     46023     46027     46028
     46030     46029     46033     46034     46031     46029     46033     46034
     46032     46029     46033     46034     46036     46035     46039     46040
     46037     46035     46039     46040     46038     46035     46039     46040
     46042     46041     46045     46046     46043     46041     46045     46046
     46044     46041     46045     46046     46048     46047     46051     46052
     46049     46047     46051     46052     46050     46047     46051     46052
     46054     46053     46057     46058     46055     46053     46057     46058
     46056     46053     46057     46058     46060     46059     46063     46064
     46061     46059     46063     46064     46062     46059     46063     46064
     46066     46065     46069     46070     46067     46065     46069     46070
     46068     46065     46069     46070     46072     46071     46075     46076
     46073     46071     46075     46076     46074     46071     46075     46076
     46078     46077     46081     46082     46079     46077     46081     46082
     46080     46077     46081     46082     46084     46083     46087     46088
     46085     46083     46087     46088     46086     46083     46087     46088
     46090     46089     46093     46094     46091     46089     46093     46094
     46092     46089     46093     46094     46096     46095     46099     46100
     46097     46095     46099     46100     46098     46095     46099     46100
     46102     46101     46105     46106     46103     46101     46105     46106
     46104     46101     46105     46106     46108     46107     46111     46112
     46109     46107     46111     46112     46110     46107     46111     46112
     46114     46113     46117     46118     46115     46113     46117     46118
     46116     46113     46117     46118     46120     46119     46123     46124
     46121     46119     46123     46124     46122     46119     46123     46124
     46126     46125     46129     46130     46127     46125     46129     46130
     46128     46125     46129     46130     46132     46131     46135     46136
     46133     46131     46135     46136     46134     46131     46135     46136
     46138     46137     46141     46142     46139     46137     46141     46142
     46140     46137     46141     46142     46144     46143     46147     46148
     46145     46143     46147     46148     46146     46143     46147     46148
     46150     46149     46153     46154     46151     46149     46153     46154
     46152     46149     46153     46154     46156     46155     46159     46160
     46157     46155     46159     46160     46158     46155     46159     46160
     46162     46161     46165     46166     46163     46161     46165     46166
     46164     46161     46165     46166     46168     46167     46171     46172
     46169     46167     46171     46172     46170     46167     46171     46172
     46174     46173     46177     46178     46175     46173     46177     46178
     46176     46173     46177     46178     46180     46179     46183     46184
     46181     46179     46183     46184     46182     46179     46183     46184
     46186     46185     46189     46190     46187     46185     46189     46190
     46188     46185     46189     46190     46192     46191     46195     46196
     46193     46191     46195     46196     46194     46191     46195     46196
     46198     46197     46201     46202     46199     46197     46201     46202
     46200     46197     46201     46202     46204     46203     46207     46208
     46205     46203     46207     46208     46206     46203     46207     46208
     46210     46209     46213     46214     46211     46209     46213     46214
     46212     46209     46213     46214     46216     46215     46219     46220
     46217     46215     46219     46220     46218     46215     46219     46220
     46222     46221     46225     46226     46223     46221     46225     46226
     46224     46221     46225     46226     46228     46227     46231     46232
     46229     46227     46231     46232     46230     46227     46231     46232
     46234     46233     46237     46238     46235     46233     46237     46238
     46236     46233     46237     46238     46240     46239     46243     46244
     46241     46239     46243     46244     46242     46239     46243     46244
     46246     46245     46249     46250     46247     46245     46249     46250
     46248     46245     46249     46250     46252     46251     46255     46256
     46253     46251     46255     46256     46254     46251     46255     46256
     46258     46257     46261     46262     46259     46257     46261     46262
     46260     46257     46261     46262     46264     46263     46267     46268
     46265     46263     46267     46268     46266     46263     46267     46268
     46270     46269     46273     46274     46271     46269     46273     46274
     46272     46269     46273     46274     46276     46275     46279     46280
     46277     46275     46279     46280     46278     46275     46279     46280
     46282     46281     46285     46286     46283     46281     46285     46286
     46284     46281     46285     46286     46288     46287     46291     46292
     46289     46287     46291     46292     46290     46287     46291     46292
     46294     46293     46297     46298     46295     46293     46297     46298
     46296     46293     46297     46298     46300     46299     46303     46304
     46301     46299     46303     46304     46302     46299     46303     46304
     46306     46305     46309     46310     46307     46305     46309     46310
     46308     46305     46309     46310     46312     46311     46315     46316
     46313     46311     46315     46316     46314     46311     46315     46316
     46318     46317     46321     46322     46319     46317     46321     46322
     46320     46317     46321     46322     46324     46323     46327     46328
     46325     46323     46327     46328     46326     46323     46327     46328
     46330     46329     46333     46334     46331     46329     46333     46334
     46332     46329     46333     46334     46336     46335     46339     46340
     46337     46335     46339     46340     46338     46335     46339     46340
     46342     46341     46345     46346     46343     46341     46345     46346
     46344     46341     46345     46346     46348     46347     46351     46352
     46349     46347     46351     46352     46350     46347     46351     46352
     46354     46353     46357     46358     46355     46353     46357     46358
     46356     46353     46357     46358     46360     46359     46363     46364
     46361     46359     46363     46364     46362     46359     46363     46364
     46366     46365     46369     46370     46367     46365     46369     46370
     46368     46365     46369     46370     46372     46371     46375     46376
     46373     46371     46375     46376     46374     46371     46375     46376
     46378     46377     46381     46382     46379     46377     46381     46382
     46380     46377     46381     46382     46384     46383     46387     46388
     46385     46383     46387     46388     46386     46383     46387     46388
     46390     46389     46393     46394     46391     46389     46393     46394
     46392     46389     46393     46394     46396     46395     46399     46400
     46397     46395     46399     46400     46398     46395     46399     46400
     46402     46401     46405     46406     46403     46401     46405     46406
     46404     46401     46405     46406     46408     46407     46411     46412
     46409     46407     46411     46412     46410     46407     46411     46412
     46414     46413     46417     46418     46415     46413     46417     46418
     46416     46413     46417     46418     46420     46419     46423     46424
     46421     46419     46423     46424     46422     46419     46423     46424
     46426     46425     46429     46430     46427     46425     46429     46430
     46428     46425     46429     46430     46432     46431     46435     46436
     46433     46431     46435     46436     46434     46431     46435     46436
     46438     46437     46441     46442     46439     46437     46441     46442
     46440     46437     46441     46442     46444     46443     46447     46448
     46445     46443     46447     46448     46446     46443     46447     46448
     46450     46449     46453     46454     46451     46449     46453     46454
     46452     46449     46453     46454     46456     46455     46459     46460
     46457     46455     46459     46460     46458     46455     46459     46460
     46462     46461     46465     46466     46463     46461     46465     46466
     46464     46461     46465     46466     46468     46467     46471     46472
     46469     46467     46471     46472     46470     46467     46471     46472
     46474     46473     46477     46478     46475     46473     46477     46478
     46476     46473     46477     46478     46480     46479     46483     46484
     46481     46479     46483     46484     46482     46479     46483     46484
     46486     46485     46489     46490     46487     46485     46489     46490
     46488     46485     46489     46490     46492     46491     46495     46496
     46493     46491     46495     46496     46494     46491     46495     46496
     46498     46497     46501     46502     46499     46497     46501     46502
     46500     46497     46501     46502     46504     46503     46507     46508
     46505     46503     46507     46508     46506     46503     46507     46508
     46510     46509     46513     46514     46511     46509     46513     46514
     46512     46509     46513     46514     46516     46515     46519     46520
     46517     46515     46519     46520     46518     46515     46519     46520
     46522     46521     46525     46526     46523     46521     46525     46526
     46524     46521     46525     46526     46528     46527     46531     46532
     46529     46527     46531     46532     46530     46527     46531     46532
     46534     46533     46537     46538     46535     46533     46537     46538
     46536     46533     46537     46538     46540     46539     46543     46544
     46541     46539     46543     46544     46542     46539     46543     46544
     46546     46545     46549     46550     46547     46545     46549     46550
     46548     46545     46549     46550     46552     46551     46555     46556
     46553     46551     46555     46556     46554     46551     46555     46556
     46558     46557     46561     46562     46559     46557     46561     46562
     46560     46557     46561     46562     46564     46563     46567     46568
     46565     46563     46567     46568     46566     46563     46567     46568
     46570     46569     46573     46574     46571     46569     46573     46574
     46572     46569     46573     46574     46576     46575     46579     46580
     46577     46575     46579     46580     46578     46575     46579     46580
     46582     46581     46585     46586     46583     46581     46585     46586
     46584     46581     46585     46586     46588     46587     46591     46592
     46589     46587     46591     46592     46590     46587     46591     46592
     46594     46593     46597     46598     46595     46593     46597     46598
     46596     46593     46597     46598     46600     46599     46603     46604
     46601     46599     46603     46604     46602     46599     46603     46604
     46606     46605     46609     46610     46607     46605     46609     46610
     46608     46605     46609     46610     46612     46611     46615     46616
     46613     46611     46615     46616     46614     46611     46615     46616
     46618     46617     46621     46622     46619     46617     46621     46622
     46620     46617     46621     46622     46624     46623     46627     46628
     46625     46623     46627     46628     46626     46623     46627     46628
     46630     46629     46633     46634     46631     46629     46633     46634
     46632     46629     46633     46634     46636     46635     46639     46640
     46637     46635     46639     46640     46638     46635     46639     46640
     46642     46641     46645     46646     46643     46641     46645     46646
     46644     46641     46645     46646     46648     46647     46651     46652
     46649     46647     46651     46652     46650     46647     46651     46652
     46654     46653     46657     46658     46655     46653     46657     46658
     46656     46653     46657     46658     46660     46659     46663     46664
     46661     46659     46663     46664     46662     46659     46663     46664
     46666     46665     46669     46670     46667     46665     46669     46670
     46668     46665     46669     46670     46672     46671     46675     46676
     46673     46671     46675     46676     46674     46671     46675     46676
     46678     46677     46681     46682     46679     46677     46681     46682
     46680     46677     46681     46682     46684     46683     46687     46688
     46685     46683     46687     46688     46686     46683     46687     46688
     46690     46689     46693     46694     46691     46689     46693     46694
     46692     46689     46693     46694     46696     46695     46699     46700
     46697     46695     46699     46700     46698     46695     46699     46700
     46702     46701     46705     46706     46703     46701     46705     46706
     46704     46701     46705     46706     46708     46707     46711     46712
     46709     46707     46711     46712     46710     46707     46711     46712
     46714     46713     46717     46718     46715     46713     46717     46718
     46716     46713     46717     46718     46720     46719     46723     46724
     46721     46719     46723     46724     46722     46719     46723     46724
     46726     46725     46729     46730     46727     46725     46729     46730
     46728     46725     46729     46730     46732     46731     46735     46736
     46733     46731     46735     46736     46734     46731     46735     46736
     46738     46737     46741     46742     46739     46737     46741     46742
     46740     46737     46741     46742     46744     46743     46747     46748
     46745     46743     46747     46748     46746     46743     46747     46748
     46750     46749     46753     46754     46751     46749     46753     46754
     46752     46749     46753     46754     46756     46755     46759     46760
     46757     46755     46759     46760     46758     46755     46759     46760
     46762     46761     46765     46766     46763     46761     46765     46766
     46764     46761     46765     46766     46768     46767     46771     46772
     46769     46767     46771     46772     46770     46767     46771     46772
     46774     46773     46777     46778     46775     46773     46777     46778
     46776     46773     46777     46778     46780     46779     46783     46784
     46781     46779     46783     46784     46782     46779     46783     46784
     46786     46785     46789     46790     46787     46785     46789     46790
     46788     46785     46789     46790     46792     46791     46795     46796
     46793     46791     46795     46796     46794     46791     46795     46796
     46798     46797     46801     46802     46799     46797     46801     46802
     46800     46797     46801     46802     46804     46803     46807     46808
     46805     46803     46807     46808     46806     46803     46807     46808
     46810     46809     46813     46814     46811     46809     46813     46814
     46812     46809     46813     46814     46816     46815     46819     46820
     46817     46815     46819     46820     46818     46815     46819     46820
     46822     46821     46825     46826     46823     46821     46825     46826
     46824     46821     46825     46826     46828     46827     46831     46832
     46829     46827     46831     46832     46830     46827     46831     46832
     46834     46833     46837     46838     46835     46833     46837     46838
     46836     46833     46837     46838     46840     46839     46843     46844
     46841     46839     46843     46844     46842     46839     46843     46844
     46846     46845     46849     46850     46847     46845     46849     46850
     46848     46845     46849     46850     46852     46851     46855     46856
     46853     46851     46855     46856     46854     46851     46855     46856
     46858     46857     46861     46862     46859     46857     46861     46862
     46860     46857     46861     46862     46864     46863     46867     46868
     46865     46863     46867     46868     46866     46863     46867     46868
     46870     46869     46873     46874     46871     46869     46873     46874
     46872     46869     46873     46874     46876     46875     46879     46880
     46877     46875     46879     46880     46878     46875     46879     46880
     46882     46881     46885     46886     46883     46881     46885     46886
     46884     46881     46885     46886     46888     46887     46891     46892
     46889     46887     46891     46892     46890     46887     46891     46892
     46894     46893     46897     46898     46895     46893     46897     46898
     46896     46893     46897     46898     46900     46899     46903     46904
     46901     46899     46903     46904     46902     46899     46903     46904
     46906     46905     46909     46910     46907     46905     46909     46910
     46908     46905     46909     46910     46912     46911     46915     46916
     46913     46911     46915     46916     46914     46911     46915     46916
     46918     46917     46921     46922     46919     46917     46921     46922
     46920     46917     46921     46922     46924     46923     46927     46928
     46925     46923     46927     46928     46926     46923     46927     46928
     46930     46929     46933     46934     46931     46929     46933     46934
     46932     46929     46933     46934     46936     46935     46939     46940
     46937     46935     46939     46940     46938     46935     46939     46940
     46942     46941     46945     46946     46943     46941     46945     46946
     46944     46941     46945     46946     46948     46947     46951     46952
     46949     46947     46951     46952     46950     46947     46951     46952
     46954     46953     46957     46958     46955     46953     46957     46958
     46956     46953     46957     46958     46960     46959     46963     46964
     46961     46959     46963     46964     46962     46959     46963     46964
     46966     46965     46969     46970     46967     46965     46969     46970
     46968     46965     46969     46970     46972     46971     46975     46976
     46973     46971     46975     46976     46974     46971     46975     46976
     46978     46977     46981     46982     46979     46977     46981     46982
     46980     46977     46981     46982     46984     46983     46987     46988
     46985     46983     46987     46988     46986     46983     46987     46988
     46990     46989     46993     46994     46991     46989     46993     46994
     46992     46989     46993     46994     46996     46995     46999     47000
     46997     46995     46999     47000     46998     46995     46999     47000
     47002     47001     47005     47006     47003     47001     47005     47006
     47004     47001     47005     47006     47008     47007     47011     47012
     47009     47007     47011     47012     47010     47007     47011     47012
     47014     47013     47017     47018     47015     47013     47017     47018
     47016     47013     47017     47018     47020     47019     47023     47024
     47021     47019     47023     47024     47022     47019     47023     47024
     47026     47025     47029     47030     47027     47025     47029     47030
     47028     47025     47029     47030     47032     47031     47035     47036
     47033     47031     47035     47036     47034     47031     47035     47036
     47038     47037     47041     47042     47039     47037     47041     47042
     47040     47037     47041     47042     47044     47043     47047     47048
     47045     47043     47047     47048     47046     47043     47047     47048
     47050     47049     47053     47054     47051     47049     47053     47054
     47052     47049     47053     47054     47056     47055     47059     47060
     47057     47055     47059     47060     47058     47055     47059     47060
     47062     47061     47065     47066     47063     47061     47065     47066
     47064     47061     47065     47066     47068     47067     47071     47072
     47069     47067     47071     47072     47070     47067     47071     47072
     47074     47073     47077     47078     47075     47073     47077     47078
     47076     47073     47077     47078     47080     47079     47083     47084
     47081     47079     47083     47084     47082     47079     47083     47084
     47086     47085     47089     47090     47087     47085     47089     47090
     47088     47085     47089     47090     47092     47091     47095     47096
     47093     47091     47095     47096     47094     47091     47095     47096
     47098     47097     47101     47102     47099     47097     47101     47102
     47100     47097     47101     47102     47104     47103     47107     47108
     47105     47103     47107     47108     47106     47103     47107     47108
     47110     47109     47113     47114     47111     47109     47113     47114
     47112     47109     47113     47114     47116     47115     47119     47120
     47117     47115     47119     47120     47118     47115     47119     47120
     47122     47121     47125     47126     47123     47121     47125     47126
     47124     47121     47125     47126     47128     47127     47131     47132
     47129     47127     47131     47132     47130     47127     47131     47132
     47134     47133     47137     47138     47135     47133     47137     47138
     47136     47133     47137     47138     47140     47139     47143     47144
     47141     47139     47143     47144     47142     47139     47143     47144
     47146     47145     47149     47150     47147     47145     47149     47150
     47148     47145     47149     47150     47152     47151     47155     47156
     47153     47151     47155     47156     47154     47151     47155     47156
     47158     47157     47161     47162     47159     47157     47161     47162
     47160     47157     47161     47162     47164     47163     47167     47168
     47165     47163     47167     47168     47166     47163     47167     47168
     47170     47169     47173     47174     47171     47169     47173     47174
     47172     47169     47173     47174     47176     47175     47179     47180
     47177     47175     47179     47180     47178     47175     47179     47180
     47182     47181     47185     47186     47183     47181     47185     47186
     47184     47181     47185     47186     47188     47187     47191     47192
     47189     47187     47191     47192     47190     47187     47191     47192
     47194     47193     47197     47198     47195     47193     47197     47198
     47196     47193     47197     47198     47200     47199     47203     47204
     47201     47199     47203     47204     47202     47199     47203     47204
     47206     47205     47209     47210     47207     47205     47209     47210
     47208     47205     47209     47210     47212     47211     47215     47216
     47213     47211     47215     47216     47214     47211     47215     47216
     47218     47217     47221     47222     47219     47217     47221     47222
     47220     47217     47221     47222     47224     47223     47227     47228
     47225     47223     47227     47228     47226     47223     47227     47228
     47230     47229     47233     47234     47231     47229     47233     47234
     47232     47229     47233     47234     47236     47235     47239     47240
     47237     47235     47239     47240     47238     47235     47239     47240
     47242     47241     47245     47246     47243     47241     47245     47246
     47244     47241     47245     47246     47248     47247     47251     47252
     47249     47247     47251     47252     47250     47247     47251     47252
     47254     47253     47257     47258     47255     47253     47257     47258
     47256     47253     47257     47258     47260     47259     47263     47264
     47261     47259     47263     47264     47262     47259     47263     47264
     47266     47265     47269     47270     47267     47265     47269     47270
     47268     47265     47269     47270     47272     47271     47275     47276
     47273     47271     47275     47276     47274     47271     47275     47276
     47278     47277     47281     47282     47279     47277     47281     47282
     47280     47277     47281     47282     47284     47283     47287     47288
     47285     47283     47287     47288     47286     47283     47287     47288
     47290     47289     47293     47294     47291     47289     47293     47294
     47292     47289     47293     47294     47296     47295     47299     47300
     47297     47295     47299     47300     47298     47295     47299     47300
     47302     47301     47305     47306     47303     47301     47305     47306
     47304     47301     47305     47306     47308     47307     47311     47312
     47309     47307     47311     47312     47310     47307     47311     47312
     47314     47313     47317     47318     47315     47313     47317     47318
     47316     47313     47317     47318     47320     47319     47323     47324
     47321     47319     47323     47324     47322     47319     47323     47324
     47326     47325     47329     47330     47327     47325     47329     47330
     47328     47325     47329     47330     47332     47331     47335     47336
     47333     47331     47335     47336     47334     47331     47335     47336
     47338     47337     47341     47342     47339     47337     47341     47342
     47340     47337     47341     47342     47344     47343     47347     47348
     47345     47343     47347     47348     47346     47343     47347     47348
     47350     47349     47353     47354     47351     47349     47353     47354
     47352     47349     47353     47354     47356     47355     47359     47360
     47357     47355     47359     47360     47358     47355     47359     47360
     47362     47361     47365     47366     47363     47361     47365     47366
     47364     47361     47365     47366     47368     47367     47371     47372
     47369     47367     47371     47372     47370     47367     47371     47372
     47374     47373     47377     47378     47375     47373     47377     47378
     47376     47373     47377     47378     47380     47379     47383     47384
     47381     47379     47383     47384     47382     47379     47383     47384
     47386     47385     47389     47390     47387     47385     47389     47390
     47388     47385     47389     47390     47392     47391     47395     47396
     47393     47391     47395     47396     47394     47391     47395     47396
     47398     47397     47401     47402     47399     47397     47401     47402
     47400     47397     47401     47402     47404     47403     47407     47408
     47405     47403     47407     47408     47406     47403     47407     47408
     47410     47409     47413     47414     47411     47409     47413     47414
     47412     47409     47413     47414     47416     47415     47419     47420
     47417     47415     47419     47420     47418     47415     47419     47420
     47422     47421     47425     47426     47423     47421     47425     47426
     47424     47421     47425     47426     47428     47427     47431     47432
     47429     47427     47431     47432     47430     47427     47431     47432
     47434     47433     47437     47438     47435     47433     47437     47438
     47436     47433     47437     47438     47440     47439     47443     47444
     47441     47439     47443     47444     47442     47439     47443     47444
     47446     47445     47449     47450     47447     47445     47449     47450
     47448     47445     47449     47450     47452     47451     47455     47456
     47453     47451     47455     47456     47454     47451     47455     47456
     47458     47457     47461     47462     47459     47457     47461     47462
     47460     47457     47461     47462     47464     47463     47467     47468
     47465     47463     47467     47468     47466     47463     47467     47468
     47470     47469     47473     47474     47471     47469     47473     47474
     47472     47469     47473     47474     47476     47475     47479     47480
     47477     47475     47479     47480     47478     47475     47479     47480
     47482     47481     47485     47486     47483     47481     47485     47486
     47484     47481     47485     47486     47488     47487     47491     47492
     47489     47487     47491     47492     47490     47487     47491     47492
     47494     47493     47497     47498     47495     47493     47497     47498
     47496     47493     47497     47498     47500     47499     47503     47504
     47501     47499     47503     47504     47502     47499     47503     47504
     47506     47505     47509     47510     47507     47505     47509     47510
     47508     47505     47509     47510     47512     47511     47515     47516
     47513     47511     47515     47516     47514     47511     47515     47516
     47518     47517     47521     47522     47519     47517     47521     47522
     47520     47517     47521     47522     47524     47523     47527     47528
     47525     47523     47527     47528     47526     47523     47527     47528
     47530     47529     47533     47534     47531     47529     47533     47534
     47532     47529     47533     47534     47536     47535     47539     47540
     47537     47535     47539     47540     47538     47535     47539     47540
     47542     47541     47545     47546     47543     47541     47545     47546
     47544     47541     47545     47546     47548     47547     47551     47552
     47549     47547     47551     47552     47550     47547     47551     47552
     47554     47553     47557     47558     47555     47553     47557     47558
     47556     47553     47557     47558     47560     47559     47563     47564
     47561     47559     47563     47564     47562     47559     47563     47564
     47566     47565     47569     47570     47567     47565     47569     47570
     47568     47565     47569     47570     47572     47571     47575     47576
     47573     47571     47575     47576     47574     47571     47575     47576
     47578     47577     47581     47582     47579     47577     47581     47582
     47580     47577     47581     47582     47584     47583     47587     47588
     47585     47583     47587     47588     47586     47583     47587     47588
     47590     47589     47593     47594     47591     47589     47593     47594
     47592     47589     47593     47594     47596     47595     47599     47600
     47597     47595     47599     47600     47598     47595     47599     47600
     47602     47601     47605     47606     47603     47601     47605     47606
     47604     47601     47605     47606     47608     47607     47611     47612
     47609     47607     47611     47612     47610     47607     47611     47612
     47614     47613     47617     47618     47615     47613     47617     47618
     47616     47613     47617     47618     47620     47619     47623     47624
     47621     47619     47623     47624     47622     47619     47623     47624
     47626     47625     47629     47630     47627     47625     47629     47630
     47628     47625     47629     47630     47632     47631     47635     47636
     47633     47631     47635     47636     47634     47631     47635     47636
     47638     47637     47641     47642     47639     47637     47641     47642
     47640     47637     47641     47642     47644     47643     47647     47648
     47645     47643     47647     47648     47646     47643     47647     47648
     47650     47649     47653     47654     47651     47649     47653     47654
     47652     47649     47653     47654     47656     47655     47659     47660
     47657     47655     47659     47660     47658     47655     47659     47660
     47662     47661     47665     47666     47663     47661     47665     47666
     47664     47661     47665     47666     47668     47667     47671     47672
     47669     47667     47671     47672     47670     47667     47671     47672
     47674     47673     47677     47678     47675     47673     47677     47678
     47676     47673     47677     47678     47680     47679     47683     47684
     47681     47679     47683     47684     47682     47679     47683     47684
     47686     47685     47689     47690     47687     47685     47689     47690
     47688     47685     47689     47690     47692     47691     47695     47696
     47693     47691     47695     47696     47694     47691     47695     47696
     47698     47697     47701     47702     47699     47697     47701     47702
     47700     47697     47701     47702     47704     47703     47707     47708
     47705     47703     47707     47708     47706     47703     47707     47708
     47710     47709     47713     47714     47711     47709     47713     47714
     47712     47709     47713     47714     47716     47715     47719     47720
     47717     47715     47719     47720     47718     47715     47719     47720
     47722     47721     47725     47726     47723     47721     47725     47726
     47724     47721     47725     47726     47728     47727     47731     47732
     47729     47727     47731     47732     47730     47727     47731     47732
     47734     47733     47737     47738     47735     47733     47737     47738
     47736     47733     47737     47738     47740     47739     47743     47744
     47741     47739     47743     47744     47742     47739     47743     47744
     47746     47745     47749     47750     47747     47745     47749     47750
     47748     47745     47749     47750     47752     47751     47755     47756
     47753     47751     47755     47756     47754     47751     47755     47756
     47758     47757     47761     47762     47759     47757     47761     47762
     47760     47757     47761     47762     47764     47763     47767     47768
     47765     47763     47767     47768     47766     47763     47767     47768
     47770     47769     47773     47774     47771     47769     47773     47774
     47772     47769     47773     47774     47776     47775     47779     47780
     47777     47775     47779     47780     47778     47775     47779     47780
     47782     47781     47785     47786     47783     47781     47785     47786
     47784     47781     47785     47786     47788     47787     47791     47792
     47789     47787     47791     47792     47790     47787     47791     47792
     47794     47793     47797     47798     47795     47793     47797     47798
     47796     47793     47797     47798     47800     47799     47803     47804
     47801     47799     47803     47804     47802     47799     47803     47804
     47806     47805     47809     47810     47807     47805     47809     47810
     47808     47805     47809     47810     47812     47811     47815     47816
     47813     47811     47815     47816     47814     47811     47815     47816
     47818     47817     47821     47822     47819     47817     47821     47822
     47820     47817     47821     47822     47824     47823     47827     47828
     47825     47823     47827     47828     47826     47823     47827     47828
     47830     47829     47833     47834     47831     47829     47833     47834
     47832     47829     47833     47834     47836     47835     47839     47840
     47837     47835     47839     47840     47838     47835     47839     47840
     47842     47841     47845     47846     47843     47841     47845     47846
     47844     47841     47845     47846     47848     47847     47851     47852
     47849     47847     47851     47852     47850     47847     47851     47852
     47854     47853     47857     47858     47855     47853     47857     47858
     47856     47853     47857     47858     47860     47859     47863     47864
     47861     47859     47863     47864     47862     47859     47863     47864
     47866     47865     47869     47870     47867     47865     47869     47870
     47868     47865     47869     47870     47872     47871     47875     47876
     47873     47871     47875     47876     47874     47871     47875     47876
     47878     47877     47881     47882     47879     47877     47881     47882
     47880     47877     47881     47882     47884     47883     47887     47888
     47885     47883     47887     47888     47886     47883     47887     47888
     47890     47889     47893     47894     47891     47889     47893     47894
     47892     47889     47893     47894     47896     47895     47899     47900
     47897     47895     47899     47900     47898     47895     47899     47900
     47902     47901     47905     47906     47903     47901     47905     47906
     47904     47901     47905     47906     47908     47907     47911     47912
     47909     47907     47911     47912     47910     47907     47911     47912
     47914     47913     47917     47918     47915     47913     47917     47918
     47916     47913     47917     47918     47920     47919     47923     47924
     47921     47919     47923     47924     47922     47919     47923     47924
     47926     47925     47929     47930     47927     47925     47929     47930
     47928     47925     47929     47930     47932     47931     47935     47936
     47933     47931     47935     47936     47934     47931     47935     47936
     47938     47937     47941     47942     47939     47937     47941     47942
     47940     47937     47941     47942     47944     47943     47947     47948
     47945     47943     47947     47948     47946     47943     47947     47948
     47950     47949     47953     47954     47951     47949     47953     47954
     47952     47949     47953     47954     47956     47955     47959     47960
     47957     47955     47959     47960     47958     47955     47959     47960
     47962     47961     47965     47966     47963     47961     47965     47966
     47964     47961     47965     47966     47968     47967     47971     47972
     47969     47967     47971     47972     47970     47967     47971     47972
     47974     47973     47977     47978     47975     47973     47977     47978
     47976     47973     47977     47978     47980     47979     47983     47984
     47981     47979     47983     47984     47982     47979     47983     47984
     47986     47985     47989     47990     47987     47985     47989     47990
     47988     47985     47989     47990     47992     47991     47995     47996
     47993     47991     47995     47996     47994     47991     47995     47996
     47998     47997     48001     48002     47999     47997     48001     48002
     48000     47997     48001     48002     48004     48003     48007     48008
     48005     48003     48007     48008     48006     48003     48007     48008
     48010     48009     48013     48014     48011     48009     48013     48014
     48012     48009     48013     48014     48016     48015     48019     48020
     48017     48015     48019     48020     48018     48015     48019     48020
     48022     48021     48025     48026     48023     48021     48025     48026
     48024     48021     48025     48026     48028     48027     48031     48032
     48029     48027     48031     48032     48030     48027     48031     48032
     48034     48033     48037     48038     48035     48033     48037     48038
     48036     48033     48037     48038     48040     48039     48043     48044
     48041     48039     48043     48044     48042     48039     48043     48044
     48046     48045     48049     48050     48047     48045     48049     48050
     48048     48045     48049     48050     48052     48051     48055     48056
     48053     48051     48055     48056     48054     48051     48055     48056
     48058     48057     48061     48062     48059     48057     48061     48062
     48060     48057     48061     48062     48064     48063     48067     48068
     48065     48063     48067     48068     48066     48063     48067     48068
     48070     48069     48073     48074     48071     48069     48073     48074
     48072     48069     48073     48074     48076     48075     48079     48080
     48077     48075     48079     48080     48078     48075     48079     48080
     48082     48081     48085     48086     48083     48081     48085     48086
     48084     48081     48085     48086     48088     48087     48091     48092
     48089     48087     48091     48092     48090     48087     48091     48092
     48094     48093     48097     48098     48095     48093     48097     48098
     48096     48093     48097     48098     48100     48099     48103     48104
     48101     48099     48103     48104     48102     48099     48103     48104
     48106     48105     48109     48110     48107     48105     48109     48110
     48108     48105     48109     48110     48112     48111     48115     48116
     48113     48111     48115     48116     48114     48111     48115     48116
     48118     48117     48121     48122     48119     48117     48121     48122
     48120     48117     48121     48122     48124     48123     48127     48128
     48125     48123     48127     48128     48126     48123     48127     48128
     48130     48129     48133     48134     48131     48129     48133     48134
     48132     48129     48133     48134     48136     48135     48139     48140
     48137     48135     48139     48140     48138     48135     48139     48140
     48142     48141     48145     48146     48143     48141     48145     48146
     48144     48141     48145     48146     48148     48147     48151     48152
     48149     48147     48151     48152     48150     48147     48151     48152
     48154     48153     48157     48158     48155     48153     48157     48158
     48156     48153     48157     48158     48160     48159     48163     48164
     48161     48159     48163     48164     48162     48159     48163     48164
     48166     48165     48169     48170     48167     48165     48169     48170
     48168     48165     48169     48170     48172     48171     48175     48176
     48173     48171     48175     48176     48174     48171     48175     48176
     48178     48177     48181     48182     48179     48177     48181     48182
     48180     48177     48181     48182     48184     48183     48187     48188
     48185     48183     48187     48188     48186     48183     48187     48188
     48190     48189     48193     48194     48191     48189     48193     48194
     48192     48189     48193     48194     48196     48195     48199     48200
     48197     48195     48199     48200     48198     48195     48199     48200
     48202     48201     48205     48206     48203     48201     48205     48206
     48204     48201     48205     48206     48208     48207     48211     48212
     48209     48207     48211     48212     48210     48207     48211     48212
     48214     48213     48217     48218     48215     48213     48217     48218
     48216     48213     48217     48218     48220     48219     48223     48224
     48221     48219     48223     48224     48222     48219     48223     48224
     48226     48225     48229     48230     48227     48225     48229     48230
     48228     48225     48229     48230     48232     48231     48235     48236
     48233     48231     48235     48236     48234     48231     48235     48236
     48238     48237     48241     48242     48239     48237     48241     48242
     48240     48237     48241     48242     48244     48243     48247     48248
     48245     48243     48247     48248     48246     48243     48247     48248
     48250     48249     48253     48254     48251     48249     48253     48254
     48252     48249     48253     48254     48256     48255     48259     48260
     48257     48255     48259     48260     48258     48255     48259     48260
     48262     48261     48265     48266     48263     48261     48265     48266
     48264     48261     48265     48266     48268     48267     48271     48272
     48269     48267     48271     48272     48270     48267     48271     48272
     48274     48273     48277     48278     48275     48273     48277     48278
     48276     48273     48277     48278     48280     48279     48283     48284
     48281     48279     48283     48284     48282     48279     48283     48284
     48286     48285     48289     48290     48287     48285     48289     48290
     48288     48285     48289     48290     48292     48291     48295     48296
     48293     48291     48295     48296     48294     48291     48295     48296
     48298     48297     48301     48302     48299     48297     48301     48302
     48300     48297     48301     48302     48304     48303     48307     48308
     48305     48303     48307     48308     48306     48303     48307     48308
     48310     48309     48313     48314     48311     48309     48313     48314
     48312     48309     48313     48314     48316     48315     48319     48320
     48317     48315     48319     48320     48318     48315     48319     48320
     48322     48321     48325     48326     48323     48321     48325     48326
     48324     48321     48325     48326     48328     48327     48331     48332
     48329     48327     48331     48332     48330     48327     48331     48332
     48334     48333     48337     48338     48335     48333     48337     48338
     48336     48333     48337     48338     48340     48339     48343     48344
     48341     48339     48343     48344     48342     48339     48343     48344
     48346     48345     48349     48350     48347     48345     48349     48350
     48348     48345     48349     48350     48352     48351     48355     48356
     48353     48351     48355     48356     48354     48351     48355     48356
     48358     48357     48361     48362     48359     48357     48361     48362
     48360     48357     48361     48362     48364     48363     48367     48368
     48365     48363     48367     48368     48366     48363     48367     48368
     48370     48369     48373     48374     48371     48369     48373     48374
     48372     48369     48373     48374     48376     48375     48379     48380
     48377     48375     48379     48380     48378     48375     48379     48380
     48382     48381     48385     48386     48383     48381     48385     48386
     48384     48381     48385     48386     48388     48387     48391     48392
     48389     48387     48391     48392     48390     48387     48391     48392
     48394     48393     48397     48398     48395     48393     48397     48398
     48396     48393     48397     48398     48400     48399     48403     48404
     48401     48399     48403     48404     48402     48399     48403     48404
     48406     48405     48409     48410     48407     48405     48409     48410
     48408     48405     48409     48410     48412     48411     48415     48416
     48413     48411     48415     48416     48414     48411     48415     48416
     48418     48417     48421     48422     48419     48417     48421     48422
     48420     48417     48421     48422     48424     48423     48427     48428
     48425     48423     48427     48428     48426     48423     48427     48428
     48430     48429     48433     48434     48431     48429     48433     48434
     48432     48429     48433     48434     48436     48435     48439     48440
     48437     48435     48439     48440     48438     48435     48439     48440
     48442     48441     48445     48446     48443     48441     48445     48446
     48444     48441     48445     48446     48448     48447     48451     48452
     48449     48447     48451     48452     48450     48447     48451     48452
     48454     48453     48457     48458     48455     48453     48457     48458
     48456     48453     48457     48458     48460     48459     48463     48464
     48461     48459     48463     48464     48462     48459     48463     48464
     48466     48465     48469     48470     48467     48465     48469     48470
     48468     48465     48469     48470     48472     48471     48475     48476
     48473     48471     48475     48476     48474     48471     48475     48476
     48478     48477     48481     48482     48479     48477     48481     48482
     48480     48477     48481     48482     48484     48483     48487     48488
     48485     48483     48487     48488     48486     48483     48487     48488
     48490     48489     48493     48494     48491     48489     48493     48494
     48492     48489     48493     48494     48496     48495     48499     48500
     48497     48495     48499     48500     48498     48495     48499     48500
     48502     48501     48505     48506     48503     48501     48505     48506
     48504     48501     48505     48506     48508     48507     48511     48512
     48509     48507     48511     48512     48510     48507     48511     48512
     48514     48513     48517     48518     48515     48513     48517     48518
     48516     48513     48517     48518     48520     48519     48523     48524
     48521     48519     48523     48524     48522     48519     48523     48524
     48526     48525     48529     48530     48527     48525     48529     48530
     48528     48525     48529     48530     48532     48531     48535     48536
     48533     48531     48535     48536     48534     48531     48535     48536
     48538     48537     48541     48542     48539     48537     48541     48542
     48540     48537     48541     48542     48544     48543     48547     48548
     48545     48543     48547     48548     48546     48543     48547     48548
     48550     48549     48553     48554     48551     48549     48553     48554
     48552     48549     48553     48554     48556     48555     48559     48560
     48557     48555     48559     48560     48558     48555     48559     48560
     48562     48561     48565     48566     48563     48561     48565     48566
     48564     48561     48565     48566     48568     48567     48571     48572
     48569     48567     48571     48572     48570     48567     48571     48572
     48574     48573     48577     48578     48575     48573     48577     48578
     48576     48573     48577     48578     48580     48579     48583     48584
     48581     48579     48583     48584     48582     48579     48583     48584
     48586     48585     48589     48590     48587     48585     48589     48590
     48588     48585     48589     48590     48592     48591     48595     48596
     48593     48591     48595     48596     48594     48591     48595     48596
     48598     48597     48601     48602     48599     48597     48601     48602
     48600     48597     48601     48602     48604     48603     48607     48608
     48605     48603     48607     48608     48606     48603     48607     48608
     48610     48609     48613     48614     48611     48609     48613     48614
     48612     48609     48613     48614     48616     48615     48619     48620
     48617     48615     48619     48620     48618     48615     48619     48620
     48622     48621     48625     48626     48623     48621     48625     48626
     48624     48621     48625     48626     48628     48627     48631     48632
     48629     48627     48631     48632     48630     48627     48631     48632
     48634     48633     48637     48638     48635     48633     48637     48638
     48636     48633     48637     48638     48640     48639     48643     48644
     48641     48639     48643     48644     48642     48639     48643     48644
     48646     48645     48649     48650     48647     48645     48649     48650
     48648     48645     48649     48650     48652     48651     48655     48656
     48653     48651     48655     48656     48654     48651     48655     48656
     48658     48657     48661     48662     48659     48657     48661     48662
     48660     48657     48661     48662     48664     48663     48667     48668
     48665     48663     48667     48668     48666     48663     48667     48668
     48670     48669     48673     48674     48671     48669     48673     48674
     48672     48669     48673     48674     48676     48675     48679     48680
     48677     48675     48679     48680     48678     48675     48679     48680
     48682     48681     48685     48686     48683     48681     48685     48686
     48684     48681     48685     48686     48688     48687     48691     48692
     48689     48687     48691     48692     48690     48687     48691     48692
     48694     48693     48697     48698     48695     48693     48697     48698
     48696     48693     48697     48698     48700     48699     48703     48704
     48701     48699     48703     48704     48702     48699     48703     48704
     48706     48705     48709     48710     48707     48705     48709     48710
     48708     48705     48709     48710     48712     48711     48715     48716
     48713     48711     48715     48716     48714     48711     48715     48716
     48718     48717     48721     48722     48719     48717     48721     48722
     48720     48717     48721     48722     48724     48723     48727     48728
     48725     48723     48727     48728     48726     48723     48727     48728
     48730     48729     48733     48734     48731     48729     48733     48734
     48732     48729     48733     48734     48736     48735     48739     48740
     48737     48735     48739     48740     48738     48735     48739     48740
     48742     48741     48745     48746     48743     48741     48745     48746
     48744     48741     48745     48746     48748     48747     48751     48752
     48749     48747     48751     48752     48750     48747     48751     48752
     48754     48753     48757     48758     48755     48753     48757     48758
     48756     48753     48757     48758     48760     48759     48763     48764
     48761     48759     48763     48764     48762     48759     48763     48764
     48766     48765     48769     48770     48767     48765     48769     48770
     48768     48765     48769     48770     48772     48771     48775     48776
     48773     48771     48775     48776     48774     48771     48775     48776
     48778     48777     48781     48782     48779     48777     48781     48782
     48780     48777     48781     48782     48784     48783     48787     48788
     48785     48783     48787     48788     48786     48783     48787     48788
     48790     48789     48793     48794     48791     48789     48793     48794
     48792     48789     48793     48794     48796     48795     48799     48800
     48797     48795     48799     48800     48798     48795     48799     48800
     48802     48801     48805     48806     48803     48801     48805     48806
     48804     48801     48805     48806     48808     48807     48811     48812
     48809     48807     48811     48812     48810     48807     48811     48812
     48814     48813     48817     48818     48815     48813     48817     48818
     48816     48813     48817     48818     48820     48819     48823     48824
     48821     48819     48823     48824     48822     48819     48823     48824
     48826     48825     48829     48830     48827     48825     48829     48830
     48828     48825     48829     48830     48832     48831     48835     48836
     48833     48831     48835     48836     48834     48831     48835     48836
     48838     48837     48841     48842     48839     48837     48841     48842
     48840     48837     48841     48842     48844     48843     48847     48848
     48845     48843     48847     48848     48846     48843     48847     48848
     48850     48849     48853     48854     48851     48849     48853     48854
     48852     48849     48853     48854     48856     48855     48859     48860
     48857     48855     48859     48860     48858     48855     48859     48860
     48862     48861     48865     48866     48863     48861     48865     48866
     48864     48861     48865     48866     48868     48867     48871     48872
     48869     48867     48871     48872     48870     48867     48871     48872
     48874     48873     48877     48878     48875     48873     48877     48878
     48876     48873     48877     48878     48880     48879     48883     48884
     48881     48879     48883     48884     48882     48879     48883     48884
     48886     48885     48889     48890     48887     48885     48889     48890
     48888     48885     48889     48890     48892     48891     48895     48896
     48893     48891     48895     48896     48894     48891     48895     48896
     48898     48897     48901     48902     48899     48897     48901     48902
     48900     48897     48901     48902     48904     48903     48907     48908
     48905     48903     48907     48908     48906     48903     48907     48908
     48910     48909     48913     48914     48911     48909     48913     48914
     48912     48909     48913     48914     48916     48915     48919     48920
     48917     48915     48919     48920     48918     48915     48919     48920
     48922     48921     48925     48926     48923     48921     48925     48926
     48924     48921     48925     48926     48928     48927     48931     48932
     48929     48927     48931     48932     48930     48927     48931     48932
     48934     48933     48937     48938     48935     48933     48937     48938
     48936     48933     48937     48938     48940     48939     48943     48944
     48941     48939     48943     48944     48942     48939     48943     48944
     48946     48945     48949     48950     48947     48945     48949     48950
     48948     48945     48949     48950     48952     48951     48955     48956
     48953     48951     48955     48956     48954     48951     48955     48956
     48958     48957     48961     48962     48959     48957     48961     48962
     48960     48957     48961     48962     48964     48963     48967     48968
     48965     48963     48967     48968     48966     48963     48967     48968
     48970     48969     48973     48974     48971     48969     48973     48974
     48972     48969     48973     48974     48976     48975     48979     48980
     48977     48975     48979     48980     48978     48975     48979     48980
     48982     48981     48985     48986     48983     48981     48985     48986
     48984     48981     48985     48986     48988     48987     48991     48992
     48989     48987     48991     48992     48990     48987     48991     48992
     48994     48993     48997     48998     48995     48993     48997     48998
     48996     48993     48997     48998     49000     48999     49003     49004
     49001     48999     49003     49004     49002     48999     49003     49004
     49006     49005     49009     49010     49007     49005     49009     49010
     49008     49005     49009     49010     49012     49011     49015     49016
     49013     49011     49015     49016     49014     49011     49015     49016
     49018     49017     49021     49022     49019     49017     49021     49022
     49020     49017     49021     49022     49024     49023     49027     49028
     49025     49023     49027     49028     49026     49023     49027     49028
     49030     49029     49033     49034     49031     49029     49033     49034
     49032     49029     49033     49034     49036     49035     49039     49040
     49037     49035     49039     49040     49038     49035     49039     49040
     49042     49041     49045     49046     49043     49041     49045     49046
     49044     49041     49045     49046     49048     49047     49051     49052
     49049     49047     49051     49052     49050     49047     49051     49052
     49054     49053     49057     49058     49055     49053     49057     49058
     49056     49053     49057     49058     49060     49059     49063     49064
     49061     49059     49063     49064     49062     49059     49063     49064
     49066     49065     49069     49070     49067     49065     49069     49070
     49068     49065     49069     49070     49072     49071     49075     49076
     49073     49071     49075     49076     49074     49071     49075     49076
     49078     49077     49081     49082     49079     49077     49081     49082
     49080     49077     49081     49082     49084     49083     49087     49088
     49085     49083     49087     49088     49086     49083     49087     49088
     49090     49089     49093     49094     49091     49089     49093     49094
     49092     49089     49093     49094     49096     49095     49099     49100
     49097     49095     49099     49100     49098     49095     49099     49100
     49102     49101     49105     49106     49103     49101     49105     49106
     49104     49101     49105     49106     49108     49107     49111     49112
     49109     49107     49111     49112     49110     49107     49111     49112
     49114     49113     49117     49118     49115     49113     49117     49118
     49116     49113     49117     49118     49120     49119     49123     49124
     49121     49119     49123     49124     49122     49119     49123     49124
     49126     49125     49129     49130     49127     49125     49129     49130
     49128     49125     49129     49130     49132     49131     49135     49136
     49133     49131     49135     49136     49134     49131     49135     49136
     49138     49137     49141     49142     49139     49137     49141     49142
     49140     49137     49141     49142     49144     49143     49147     49148
     49145     49143     49147     49148     49146     49143     49147     49148
     49150     49149     49153     49154     49151     49149     49153     49154
     49152     49149     49153     49154     49156     49155     49159     49160
     49157     49155     49159     49160     49158     49155     49159     49160
     49162     49161     49165     49166     49163     49161     49165     49166
     49164     49161     49165     49166     49168     49167     49171     49172
     49169     49167     49171     49172     49170     49167     49171     49172
     49174     49173     49177     49178     49175     49173     49177     49178
     49176     49173     49177     49178     49180     49179     49183     49184
     49181     49179     49183     49184     49182     49179     49183     49184
     49186     49185     49189     49190     49187     49185     49189     49190
     49188     49185     49189     49190     49192     49191     49195     49196
     49193     49191     49195     49196     49194     49191     49195     49196
     49198     49197     49201     49202     49199     49197     49201     49202
     49200     49197     49201     49202     49204     49203     49207     49208
     49205     49203     49207     49208     49206     49203     49207     49208
     49210     49209     49213     49214     49211     49209     49213     49214
     49212     49209     49213     49214     49216     49215     49219     49220
     49217     49215     49219     49220     49218     49215     49219     49220
     49222     49221     49225     49226     49223     49221     49225     49226
     49224     49221     49225     49226     49228     49227     49231     49232
     49229     49227     49231     49232     49230     49227     49231     49232
     49234     49233     49237     49238     49235     49233     49237     49238
     49236     49233     49237     49238     49240     49239     49243     49244
     49241     49239     49243     49244     49242     49239     49243     49244
     49246     49245     49249     49250     49247     49245     49249     49250
     49248     49245     49249     49250     49252     49251     49255     49256
     49253     49251     49255     49256     49254     49251     49255     49256
     49258     49257     49261     49262     49259     49257     49261     49262
     49260     49257     49261     49262     49264     49263     49267     49268
     49265     49263     49267     49268     49266     49263     49267     49268
     49270     49269     49273     49274     49271     49269     49273     49274
     49272     49269     49273     49274     49276     49275     49279     49280
     49277     49275     49279     49280     49278     49275     49279     49280
     49282     49281     49285     49286     49283     49281     49285     49286
     49284     49281     49285     49286     49288     49287     49291     49292
     49289     49287     49291     49292     49290     49287     49291     49292
     49294     49293     49297     49298     49295     49293     49297     49298
     49296     49293     49297     49298     49300     49299     49303     49304
     49301     49299     49303     49304     49302     49299     49303     49304
     49306     49305     49309     49310     49307     49305     49309     49310
     49308     49305     49309     49310     49312     49311     49315     49316
     49313     49311     49315     49316     49314     49311     49315     49316
     49318     49317     49321     49322     49319     49317     49321     49322
     49320     49317     49321     49322     49324     49323     49327     49328
     49325     49323     49327     49328     49326     49323     49327     49328
     49330     49329     49333     49334     49331     49329     49333     49334
     49332     49329     49333     49334     49336     49335     49339     49340
     49337     49335     49339     49340     49338     49335     49339     49340
     49342     49341     49345     49346     49343     49341     49345     49346
     49344     49341     49345     49346     49348     49347     49351     49352
     49349     49347     49351     49352     49350     49347     49351     49352
     49354     49353     49357     49358     49355     49353     49357     49358
     49356     49353     49357     49358     49360     49359     49363     49364
     49361     49359     49363     49364     49362     49359     49363     49364
     49366     49365     49369     49370     49367     49365     49369     49370
     49368     49365     49369     49370     49372     49371     49375     49376
     49373     49371     49375     49376     49374     49371     49375     49376
     49378     49377     49381     49382     49379     49377     49381     49382
     49380     49377     49381     49382     49384     49383     49387     49388
     49385     49383     49387     49388     49386     49383     49387     49388
     49390     49389     49393     49394     49391     49389     49393     49394
     49392     49389     49393     49394     49396     49395     49399     49400
     49397     49395     49399     49400     49398     49395     49399     49400
     49402     49401     49405     49406     49403     49401     49405     49406
     49404     49401     49405     49406     49408     49407     49411     49412
     49409     49407     49411     49412     49410     49407     49411     49412
     49414     49413     49417     49418     49415     49413     49417     49418
     49416     49413     49417     49418     49420     49419     49423     49424
     49421     49419     49423     49424     49422     49419     49423     49424
     49426     49425     49429     49430     49427     49425     49429     49430
     49428     49425     49429     49430     49432     49431     49435     49436
     49433     49431     49435     49436     49434     49431     49435     49436
     49438     49437     49441     49442     49439     49437     49441     49442
     49440     49437     49441     49442     49444     49443     49447     49448
     49445     49443     49447     49448     49446     49443     49447     49448
     49450     49449     49453     49454     49451     49449     49453     49454
     49452     49449     49453     49454     49456     49455     49459     49460
     49457     49455     49459     49460     49458     49455     49459     49460
     49462     49461     49465     49466     49463     49461     49465     49466
     49464     49461     49465     49466     49468     49467     49471     49472
     49469     49467     49471     49472     49470     49467     49471     49472
     49474     49473     49477     49478     49475     49473     49477     49478
     49476     49473     49477     49478     49480     49479     49483     49484
     49481     49479     49483     49484     49482     49479     49483     49484
     49486     49485     49489     49490     49487     49485     49489     49490
     49488     49485     49489     49490     49492     49491     49495     49496
     49493     49491     49495     49496     49494     49491     49495     49496
     49498     49497     49501     49502     49499     49497     49501     49502
     49500     49497     49501     49502     49504     49503     49507     49508
     49505     49503     49507     49508     49506     49503     49507     49508
     49510     49509     49513     49514     49511     49509     49513     49514
     49512     49509     49513     49514     49516     49515     49519     49520
     49517     49515     49519     49520     49518     49515     49519     49520
     49522     49521     49525     49526     49523     49521     49525     49526
     49524     49521     49525     49526     49528     49527     49531     49532
     49529     49527     49531     49532     49530     49527     49531     49532
     49534     49533     49537     49538     49535     49533     49537     49538
     49536     49533     49537     49538     49540     49539     49543     49544
     49541     49539     49543     49544     49542     49539     49543     49544
     49546     49545     49549     49550     49547     49545     49549     49550
     49548     49545     49549     49550     49552     49551     49555     49556
     49553     49551     49555     49556     49554     49551     49555     49556
     49558     49557     49561     49562     49559     49557     49561     49562
     49560     49557     49561     49562     49564     49563     49567     49568
     49565     49563     49567     49568     49566     49563     49567     49568
     49570     49569     49573     49574     49571     49569     49573     49574
     49572     49569     49573     49574     49576     49575     49579     49580
     49577     49575     49579     49580     49578     49575     49579     49580
     49582     49581     49585     49586     49583     49581     49585     49586
     49584     49581     49585     49586     49588     49587     49591     49592
     49589     49587     49591     49592     49590     49587     49591     49592
     49594     49593     49597     49598     49595     49593     49597     49598
     49596     49593     49597     49598     49600     49599     49603     49604
     49601     49599     49603     49604     49602     49599     49603     49604
     49606     49605     49609     49610     49607     49605     49609     49610
     49608     49605     49609     49610     49612     49611     49615     49616
     49613     49611     49615     49616     49614     49611     49615     49616
     49618     49617     49621     49622     49619     49617     49621     49622
     49620     49617     49621     49622     49624     49623     49627     49628
     49625     49623     49627     49628     49626     49623     49627     49628
     49630     49629     49633     49634     49631     49629     49633     49634
     49632     49629     49633     49634     49636     49635     49639     49640
     49637     49635     49639     49640     49638     49635     49639     49640
     49642     49641     49645     49646     49643     49641     49645     49646
     49644     49641     49645     49646     49648     49647     49651     49652
     49649     49647     49651     49652     49650     49647     49651     49652
     49654     49653     49657     49658     49655     49653     49657     49658
     49656     49653     49657     49658     49660     49659     49663     49664
     49661     49659     49663     49664     49662     49659     49663     49664
     49666     49665     49669     49670     49667     49665     49669     49670
     49668     49665     49669     49670     49672     49671     49675     49676
     49673     49671     49675     49676     49674     49671     49675     49676
     49678     49677     49681     49682     49679     49677     49681     49682
     49680     49677     49681     49682     49684     49683     49687     49688
     49685     49683     49687     49688     49686     49683     49687     49688
     49690     49689     49693     49694     49691     49689     49693     49694
     49692     49689     49693     49694     49696     49695     49699     49700
     49697     49695     49699     49700     49698     49695     49699     49700
     49702     49701     49705     49706     49703     49701     49705     49706
     49704     49701     49705     49706     49708     49707     49711     49712
     49709     49707     49711     49712     49710     49707     49711     49712
     49714     49713     49717     49718     49715     49713     49717     49718
     49716     49713     49717     49718     49720     49719     49723     49724
     49721     49719     49723     49724     49722     49719     49723     49724
     49726     49725     49729     49730     49727     49725     49729     49730
     49728     49725     49729     49730     49732     49731     49735     49736
     49733     49731     49735     49736     49734     49731     49735     49736
     49738     49737     49741     49742     49739     49737     49741     49742
     49740     49737     49741     49742     49744     49743     49747     49748
     49745     49743     49747     49748     49746     49743     49747     49748
     49750     49749     49753     49754     49751     49749     49753     49754
     49752     49749     49753     49754     49756     49755     49759     49760
     49757     49755     49759     49760     49758     49755     49759     49760
     49762     49761     49765     49766     49763     49761     49765     49766
     49764     49761     49765     49766     49768     49767     49771     49772
     49769     49767     49771     49772     49770     49767     49771     49772
     49774     49773     49777     49778     49775     49773     49777     49778
     49776     49773     49777     49778     49780     49779     49783     49784
     49781     49779     49783     49784     49782     49779     49783     49784
     49786     49785     49789     49790     49787     49785     49789     49790
     49788     49785     49789     49790     49792     49791     49795     49796
     49793     49791     49795     49796     49794     49791     49795     49796
     49798     49797     49801     49802     49799     49797     49801     49802
     49800     49797     49801     49802     49804     49803     49807     49808
     49805     49803     49807     49808     49806     49803     49807     49808
     49810     49809     49813     49814     49811     49809     49813     49814
     49812     49809     49813     49814     49816     49815     49819     49820
     49817     49815     49819     49820     49818     49815     49819     49820
     49822     49821     49825     49826     49823     49821     49825     49826
     49824     49821     49825     49826     49828     49827     49831     49832
     49829     49827     49831     49832     49830     49827     49831     49832
     49834     49833     49837     49838     49835     49833     49837     49838
     49836     49833     49837     49838     49840     49839     49843     49844
     49841     49839     49843     49844     49842     49839     49843     49844
     49846     49845     49849     49850     49847     49845     49849     49850
     49848     49845     49849     49850     49852     49851     49855     49856
     49853     49851     49855     49856     49854     49851     49855     49856
     49858     49857     49861     49862     49859     49857     49861     49862
     49860     49857     49861     49862     49864     49863     49867     49868
     49865     49863     49867     49868     49866     49863     49867     49868
     49870     49869     49873     49874     49871     49869     49873     49874
     49872     49869     49873     49874     49876     49875     49879     49880
     49877     49875     49879     49880     49878     49875     49879     49880
     49882     49881     49885     49886     49883     49881     49885     49886
     49884     49881     49885     49886     49888     49887     49891     49892
     49889     49887     49891     49892     49890     49887     49891     49892
     49894     49893     49897     49898     49895     49893     49897     49898
     49896     49893     49897     49898     49900     49899     49903     49904
     49901     49899     49903     49904     49902     49899     49903     49904
     49906     49905     49909     49910     49907     49905     49909     49910
     49908     49905     49909     49910     49912     49911     49915     49916
     49913     49911     49915     49916     49914     49911     49915     49916
     49918     49917     49921     49922     49919     49917     49921     49922
     49920     49917     49921     49922     49924     49923     49927     49928
     49925     49923     49927     49928     49926     49923     49927     49928
     49930     49929     49933     49934     49931     49929     49933     49934
     49932     49929     49933     49934     49936     49935     49939     49940
     49937     49935     49939     49940     49938     49935     49939     49940
     49942     49941     49945     49946     49943     49941     49945     49946
     49944     49941     49945     49946     49948     49947     49951     49952
     49949     49947     49951     49952     49950     49947     49951     49952
     49954     49953     49957     49958     49955     49953     49957     49958
     49956     49953     49957     49958     49960     49959     49963     49964
     49961     49959     49963     49964     49962     49959     49963     49964
     49966     49965     49969     49970     49967     49965     49969     49970
     49968     49965     49969     49970     49972     49971     49975     49976
     49973     49971     49975     49976     49974     49971     49975     49976
     49978     49977     49981     49982     49979     49977     49981     49982
     49980     49977     49981     49982     49984     49983     49987     49988
     49985     49983     49987     49988     49986     49983     49987     49988
     49990     49989     49993     49994     49991     49989     49993     49994
     49992     49989     49993     49994     49996     49995     49999     50000
     49997     49995     49999     50000     49998     49995     49999     50000
     50002     50001     50005     50006     50003     50001     50005     50006
     50004     50001     50005     50006     50008     50007     50011     50012
     50009     50007     50011     50012     50010     50007     50011     50012
     50014     50013     50017     50018     50015     50013     50017     50018
     50016     50013     50017     50018     50020     50019     50023     50024
     50021     50019     50023     50024     50022     50019     50023     50024
     50026     50025     50029     50030     50027     50025     50029     50030
     50028     50025     50029     50030     50032     50031     50035     50036
     50033     50031     50035     50036     50034     50031     50035     50036
     50038     50037     50041     50042     50039     50037     50041     50042
     50040     50037     50041     50042     50044     50043     50047     50048
     50045     50043     50047     50048     50046     50043     50047     50048
     50050     50049     50053     50054     50051     50049     50053     50054
     50052     50049     50053     50054     50056     50055     50059     50060
     50057     50055     50059     50060     50058     50055     50059     50060
     50062     50061     50065     50066     50063     50061     50065     50066
     50064     50061     50065     50066     50068     50067     50071     50072
     50069     50067     50071     50072     50070     50067     50071     50072
     50074     50073     50077     50078     50075     50073     50077     50078
     50076     50073     50077     50078     50080     50079     50083     50084
     50081     50079     50083     50084     50082     50079     50083     50084
     50086     50085     50089     50090     50087     50085     50089     50090
     50088     50085     50089     50090     50092     50091     50095     50096
     50093     50091     50095     50096     50094     50091     50095     50096
     50098     50097     50101     50102     50099     50097     50101     50102
     50100     50097     50101     50102     50104     50103     50107     50108
     50105     50103     50107     50108     50106     50103     50107     50108
     50110     50109     50113     50114     50111     50109     50113     50114
     50112     50109     50113     50114     50116     50115     50119     50120
     50117     50115     50119     50120     50118     50115     50119     50120
     50122     50121     50125     50126     50123     50121     50125     50126
     50124     50121     50125     50126     50128     50127     50131     50132
     50129     50127     50131     50132     50130     50127     50131     50132
     50134     50133     50137     50138     50135     50133     50137     50138
     50136     50133     50137     50138     50140     50139     50143     50144
     50141     50139     50143     50144     50142     50139     50143     50144
     50146     50145     50149     50150     50147     50145     50149     50150
     50148     50145     50149     50150     50152     50151     50155     50156
     50153     50151     50155     50156     50154     50151     50155     50156
     50158     50157     50161     50162     50159     50157     50161     50162
     50160     50157     50161     50162     50164     50163     50167     50168
     50165     50163     50167     50168     50166     50163     50167     50168
     50170     50169     50173     50174     50171     50169     50173     50174
     50172     50169     50173     50174     50176     50175     50179     50180
     50177     50175     50179     50180     50178     50175     50179     50180
     50182     50181     50185     50186     50183     50181     50185     50186
     50184     50181     50185     50186     50188     50187     50191     50192
     50189     50187     50191     50192     50190     50187     50191     50192
     50194     50193     50197     50198     50195     50193     50197     50198
     50196     50193     50197     50198     50200     50199     50203     50204
     50201     50199     50203     50204     50202     50199     50203     50204
     50206     50205     50209     50210     50207     50205     50209     50210
     50208     50205     50209     50210     50212     50211     50215     50216
     50213     50211     50215     50216     50214     50211     50215     50216
     50218     50217     50221     50222     50219     50217     50221     50222
     50220     50217     50221     50222     50224     50223     50227     50228
     50225     50223     50227     50228     50226     50223     50227     50228
     50230     50229     50233     50234     50231     50229     50233     50234
     50232     50229     50233     50234     50236     50235     50239     50240
     50237     50235     50239     50240     50238     50235     50239     50240
     50242     50241     50245     50246     50243     50241     50245     50246
     50244     50241     50245     50246     50248     50247     50251     50252
     50249     50247     50251     50252     50250     50247     50251     50252
     50254     50253     50257     50258     50255     50253     50257     50258
     50256     50253     50257     50258     50260     50259     50263     50264
     50261     50259     50263     50264     50262     50259     50263     50264
     50266     50265     50269     50270     50267     50265     50269     50270
     50268     50265     50269     50270     50272     50271     50275     50276
     50273     50271     50275     50276     50274     50271     50275     50276
     50278     50277     50281     50282     50279     50277     50281     50282
     50280     50277     50281     50282     50284     50283     50287     50288
     50285     50283     50287     50288     50286     50283     50287     50288
     50290     50289     50293     50294     50291     50289     50293     50294
     50292     50289     50293     50294     50296     50295     50299     50300
     50297     50295     50299     50300     50298     50295     50299     50300
     50302     50301     50305     50306     50303     50301     50305     50306
     50304     50301     50305     50306     50308     50307     50311     50312
     50309     50307     50311     50312     50310     50307     50311     50312
     50314     50313     50317     50318     50315     50313     50317     50318
     50316     50313     50317     50318     50320     50319     50323     50324
     50321     50319     50323     50324     50322     50319     50323     50324
     50326     50325     50329     50330     50327     50325     50329     50330
     50328     50325     50329     50330     50332     50331     50335     50336
     50333     50331     50335     50336     50334     50331     50335     50336
     50338     50337     50341     50342     50339     50337     50341     50342
     50340     50337     50341     50342     50344     50343     50347     50348
     50345     50343     50347     50348     50346     50343     50347     50348
     50350     50349     50353     50354     50351     50349     50353     50354
     50352     50349     50353     50354     50356     50355     50359     50360
     50357     50355     50359     50360     50358     50355     50359     50360
     50362     50361     50365     50366     50363     50361     50365     50366
     50364     50361     50365     50366     50368     50367     50371     50372
     50369     50367     50371     50372     50370     50367     50371     50372
     50374     50373     50377     50378     50375     50373     50377     50378
     50376     50373     50377     50378     50380     50379     50383     50384
     50381     50379     50383     50384     50382     50379     50383     50384
     50386     50385     50389     50390     50387     50385     50389     50390
     50388     50385     50389     50390     50392     50391     50395     50396
     50393     50391     50395     50396     50394     50391     50395     50396
     50398     50397     50401     50402     50399     50397     50401     50402
     50400     50397     50401     50402     50404     50403     50407     50408
     50405     50403     50407     50408     50406     50403     50407     50408
     50410     50409     50413     50414     50411     50409     50413     50414
     50412     50409     50413     50414     50416     50415     50419     50420
     50417     50415     50419     50420     50418     50415     50419     50420
     50422     50421     50425     50426     50423     50421     50425     50426
     50424     50421     50425     50426     50428     50427     50431     50432
     50429     50427     50431     50432     50430     50427     50431     50432
     50434     50433     50437     50438     50435     50433     50437     50438
     50436     50433     50437     50438     50440     50439     50443     50444
     50441     50439     50443     50444     50442     50439     50443     50444
     50446     50445     50449     50450     50447     50445     50449     50450
     50448     50445     50449     50450     50452     50451     50455     50456
     50453     50451     50455     50456     50454     50451     50455     50456
     50458     50457     50461     50462     50459     50457     50461     50462
     50460     50457     50461     50462     50464     50463     50467     50468
     50465     50463     50467     50468     50466     50463     50467     50468
     50470     50469     50473     50474     50471     50469     50473     50474
     50472     50469     50473     50474     50476     50475     50479     50480
     50477     50475     50479     50480     50478     50475     50479     50480
     50482     50481     50485     50486     50483     50481     50485     50486
     50484     50481     50485     50486     50488     50487     50491     50492
     50489     50487     50491     50492     50490     50487     50491     50492
     50494     50493     50497     50498     50495     50493     50497     50498
     50496     50493     50497     50498     50500     50499     50503     50504
     50501     50499     50503     50504     50502     50499     50503     50504
     50506     50505     50509     50510     50507     50505     50509     50510
     50508     50505     50509     50510     50512     50511     50515     50516
     50513     50511     50515     50516     50514     50511     50515     50516
     50518     50517     50521     50522     50519     50517     50521     50522
     50520     50517     50521     50522     50524     50523     50527     50528
     50525     50523     50527     50528     50526     50523     50527     50528
     50530     50529     50533     50534     50531     50529     50533     50534
     50532     50529     50533     50534     50536     50535     50539     50540
     50537     50535     50539     50540     50538     50535     50539     50540
     50542     50541     50545     50546     50543     50541     50545     50546
     50544     50541     50545     50546     50548     50547     50551     50552
     50549     50547     50551     50552     50550     50547     50551     50552
     50554     50553     50557     50558     50555     50553     50557     50558
     50556     50553     50557     50558     50560     50559     50563     50564
     50561     50559     50563     50564     50562     50559     50563     50564
     50566     50565     50569     50570     50567     50565     50569     50570
     50568     50565     50569     50570     50572     50571     50575     50576
     50573     50571     50575     50576     50574     50571     50575     50576
     50578     50577     50581     50582     50579     50577     50581     50582
     50580     50577     50581     50582     50584     50583     50587     50588
     50585     50583     50587     50588     50586     50583     50587     50588
     50590     50589     50593     50594     50591     50589     50593     50594
     50592     50589     50593     50594     50596     50595     50599     50600
     50597     50595     50599     50600     50598     50595     50599     50600
     50602     50601     50605     50606     50603     50601     50605     50606
     50604     50601     50605     50606     50608     50607     50611     50612
     50609     50607     50611     50612     50610     50607     50611     50612
     50614     50613     50617     50618     50615     50613     50617     50618
     50616     50613     50617     50618     50620     50619     50623     50624
     50621     50619     50623     50624     50622     50619     50623     50624
     50626     50625     50629     50630     50627     50625     50629     50630
     50628     50625     50629     50630     50632     50631     50635     50636
     50633     50631     50635     50636     50634     50631     50635     50636
     50638     50637     50641     50642     50639     50637     50641     50642
     50640     50637     50641     50642     50644     50643     50647     50648
     50645     50643     50647     50648     50646     50643     50647     50648
     50650     50649     50653     50654     50651     50649     50653     50654
     50652     50649     50653     50654     50656     50655     50659     50660
     50657     50655     50659     50660     50658     50655     50659     50660
     50662     50661     50665     50666     50663     50661     50665     50666
     50664     50661     50665     50666     50668     50667     50671     50672
     50669     50667     50671     50672     50670     50667     50671     50672
     50674     50673     50677     50678     50675     50673     50677     50678
     50676     50673     50677     50678     50680     50679     50683     50684
     50681     50679     50683     50684     50682     50679     50683     50684
     50686     50685     50689     50690     50687     50685     50689     50690
     50688     50685     50689     50690     50692     50691     50695     50696
     50693     50691     50695     50696     50694     50691     50695     50696
     50698     50697     50701     50702     50699     50697     50701     50702
     50700     50697     50701     50702     50704     50703     50707     50708
     50705     50703     50707     50708     50706     50703     50707     50708
     50710     50709     50713     50714     50711     50709     50713     50714
     50712     50709     50713     50714     50716     50715     50719     50720
     50717     50715     50719     50720     50718     50715     50719     50720
     50722     50721     50725     50726     50723     50721     50725     50726
     50724     50721     50725     50726     50728     50727     50731     50732
     50729     50727     50731     50732     50730     50727     50731     50732
     50734     50733     50737     50738     50735     50733     50737     50738
     50736     50733     50737     50738     50740     50739     50743     50744
     50741     50739     50743     50744     50742     50739     50743     50744
     50746     50745     50749     50750     50747     50745     50749     50750
     50748     50745     50749     50750     50752     50751     50755     50756
     50753     50751     50755     50756     50754     50751     50755     50756
     50758     50757     50761     50762     50759     50757     50761     50762
     50760     50757     50761     50762     50764     50763     50767     50768
     50765     50763     50767     50768     50766     50763     50767     50768
     50770     50769     50773     50774     50771     50769     50773     50774
     50772     50769     50773     50774     50776     50775     50779     50780
     50777     50775     50779     50780     50778     50775     50779     50780
     50782     50781     50785     50786     50783     50781     50785     50786
     50784     50781     50785     50786     50788     50787     50791     50792
     50789     50787     50791     50792     50790     50787     50791     50792
     50794     50793     50797     50798     50795     50793     50797     50798
     50796     50793     50797     50798     50800     50799     50803     50804
     50801     50799     50803     50804     50802     50799     50803     50804
     50806     50805     50809     50810     50807     50805     50809     50810
     50808     50805     50809     50810     50812     50811     50815     50816
     50813     50811     50815     50816     50814     50811     50815     50816
     50818     50817     50821     50822     50819     50817     50821     50822
     50820     50817     50821     50822     50824     50823     50827     50828
     50825     50823     50827     50828     50826     50823     50827     50828
     50830     50829     50833     50834     50831     50829     50833     50834
     50832     50829     50833     50834     50836     50835     50839     50840
     50837     50835     50839     50840     50838     50835     50839     50840
     50842     50841     50845     50846     50843     50841     50845     50846
     50844     50841     50845     50846     50848     50847     50851     50852
     50849     50847     50851     50852     50850     50847     50851     50852
     50854     50853     50857     50858     50855     50853     50857     50858
     50856     50853     50857     50858     50860     50859     50863     50864
     50861     50859     50863     50864     50862     50859     50863     50864
     50866     50865     50869     50870     50867     50865     50869     50870
     50868     50865     50869     50870     50872     50871     50875     50876
     50873     50871     50875     50876     50874     50871     50875     50876
     50878     50877     50881     50882     50879     50877     50881     50882
     50880     50877     50881     50882     50884     50883     50887     50888
     50885     50883     50887     50888     50886     50883     50887     50888
     50890     50889     50893     50894     50891     50889     50893     50894
     50892     50889     50893     50894     50896     50895     50899     50900
     50897     50895     50899     50900     50898     50895     50899     50900
     50902     50901     50905     50906     50903     50901     50905     50906
     50904     50901     50905     50906     50908     50907     50911     50912
     50909     50907     50911     50912     50910     50907     50911     50912
     50914     50913     50917     50918     50915     50913     50917     50918
     50916     50913     50917     50918     50920     50919     50923     50924
     50921     50919     50923     50924     50922     50919     50923     50924
     50926     50925     50929     50930     50927     50925     50929     50930
     50928     50925     50929     50930     50932     50931     50935     50936
     50933     50931     50935     50936     50934     50931     50935     50936
     50938     50937     50941     50942     50939     50937     50941     50942
     50940     50937     50941     50942     50944     50943     50947     50948
     50945     50943     50947     50948     50946     50943     50947     50948
     50950     50949     50953     50954     50951     50949     50953     50954
     50952     50949     50953     50954     50956     50955     50959     50960
     50957     50955     50959     50960     50958     50955     50959     50960
     50962     50961     50965     50966     50963     50961     50965     50966
     50964     50961     50965     50966     50968     50967     50971     50972
     50969     50967     50971     50972     50970     50967     50971     50972
     50974     50973     50977     50978     50975     50973     50977     50978
     50976     50973     50977     50978     50980     50979     50983     50984
     50981     50979     50983     50984     50982     50979     50983     50984
     50986     50985     50989     50990     50987     50985     50989     50990
     50988     50985     50989     50990     50992     50991     50995     50996
     50993     50991     50995     50996     50994     50991     50995     50996
     50998     50997     51001     51002     50999     50997     51001     51002
     51000     50997     51001     51002     51004     51003     51007     51008
     51005     51003     51007     51008     51006     51003     51007     51008
     51010     51009     51013     51014     51011     51009     51013     51014
     51012     51009     51013     51014     51016     51015     51019     51020
     51017     51015     51019     51020     51018     51015     51019     51020
     51022     51021     51025     51026     51023     51021     51025     51026
     51024     51021     51025     51026     51028     51027     51031     51032
     51029     51027     51031     51032     51030     51027     51031     51032
     51034     51033     51037     51038     51035     51033     51037     51038
     51036     51033     51037     51038     51040     51039     51043     51044
     51041     51039     51043     51044     51042     51039     51043     51044
     51046     51045     51049     51050     51047     51045     51049     51050
     51048     51045     51049     51050     51052     51051     51055     51056
     51053     51051     51055     51056     51054     51051     51055     51056
     51058     51057     51061     51062     51059     51057     51061     51062
     51060     51057     51061     51062     51064     51063     51067     51068
     51065     51063     51067     51068     51066     51063     51067     51068
     51070     51069     51073     51074     51071     51069     51073     51074
     51072     51069     51073     51074     51076     51075     51079     51080
     51077     51075     51079     51080     51078     51075     51079     51080
     51082     51081     51085     51086     51083     51081     51085     51086
     51084     51081     51085     51086     51088     51087     51091     51092
     51089     51087     51091     51092     51090     51087     51091     51092
     51094     51093     51097     51098     51095     51093     51097     51098
     51096     51093     51097     51098     51100     51099     51103     51104
     51101     51099     51103     51104     51102     51099     51103     51104
     51106     51105     51109     51110     51107     51105     51109     51110
     51108     51105     51109     51110     51112     51111     51115     51116
     51113     51111     51115     51116     51114     51111     51115     51116
     51118     51117     51121     51122     51119     51117     51121     51122
     51120     51117     51121     51122     51124     51123     51127     51128
     51125     51123     51127     51128     51126     51123     51127     51128
     51130     51129     51133     51134     51131     51129     51133     51134
     51132     51129     51133     51134     51136     51135     51139     51140
     51137     51135     51139     51140     51138     51135     51139     51140
     51142     51141     51145     51146     51143     51141     51145     51146
     51144     51141     51145     51146     51148     51147     51151     51152
     51149     51147     51151     51152     51150     51147     51151     51152
     51154     51153     51157     51158     51155     51153     51157     51158
     51156     51153     51157     51158     51160     51159     51163     51164
     51161     51159     51163     51164     51162     51159     51163     51164
     51166     51165     51169     51170     51167     51165     51169     51170
     51168     51165     51169     51170     51172     51171     51175     51176
     51173     51171     51175     51176     51174     51171     51175     51176
     51178     51177     51181     51182     51179     51177     51181     51182
     51180     51177     51181     51182     51184     51183     51187     51188
     51185     51183     51187     51188     51186     51183     51187     51188
     51190     51189     51193     51194     51191     51189     51193     51194
     51192     51189     51193     51194     51196     51195     51199     51200
     51197     51195     51199     51200     51198     51195     51199     51200
     51202     51201     51205     51206     51203     51201     51205     51206
     51204     51201     51205     51206     51208     51207     51211     51212
     51209     51207     51211     51212     51210     51207     51211     51212
     51214     51213     51217     51218     51215     51213     51217     51218
     51216     51213     51217     51218     51220     51219     51223     51224
     51221     51219     51223     51224     51222     51219     51223     51224
     51226     51225     51229     51230     51227     51225     51229     51230
     51228     51225     51229     51230     51232     51231     51235     51236
     51233     51231     51235     51236     51234     51231     51235     51236
     51238     51237     51241     51242     51239     51237     51241     51242
     51240     51237     51241     51242     51244     51243     51247     51248
     51245     51243     51247     51248     51246     51243     51247     51248
     51250     51249     51253     51254     51251     51249     51253     51254
     51252     51249     51253     51254     51256     51255     51259     51260
     51257     51255     51259     51260     51258     51255     51259     51260
     51262     51261     51265     51266     51263     51261     51265     51266
     51264     51261     51265     51266     51268     51267     51271     51272
     51269     51267     51271     51272     51270     51267     51271     51272
     51274     51273     51277     51278     51275     51273     51277     51278
     51276     51273     51277     51278     51280     51279     51283     51284
     51281     51279     51283     51284     51282     51279     51283     51284
     51286     51285     51289     51290     51287     51285     51289     51290
     51288     51285     51289     51290     51292     51291     51295     51296
     51293     51291     51295     51296     51294     51291     51295     51296
     51298     51297     51301     51302     51299     51297     51301     51302
     51300     51297     51301     51302     51304     51303     51307     51308
     51305     51303     51307     51308     51306     51303     51307     51308
     51310     51309     51313     51314     51311     51309     51313     51314
     51312     51309     51313     51314     51316     51315     51319     51320
     51317     51315     51319     51320     51318     51315     51319     51320
     51322     51321     51325     51326     51323     51321     51325     51326
     51324     51321     51325     51326     51328     51327     51331     51332
     51329     51327     51331     51332     51330     51327     51331     51332
     51334     51333     51337     51338     51335     51333     51337     51338
     51336     51333     51337     51338     51340     51339     51343     51344
     51341     51339     51343     51344     51342     51339     51343     51344
     51346     51345     51349     51350     51347     51345     51349     51350
     51348     51345     51349     51350     51352     51351     51355     51356
     51353     51351     51355     51356     51354     51351     51355     51356
     51358     51357     51361     51362     51359     51357     51361     51362
     51360     51357     51361     51362     51364     51363     51367     51368
     51365     51363     51367     51368     51366     51363     51367     51368
     51370     51369     51373     51374     51371     51369     51373     51374
     51372     51369     51373     51374     51376     51375     51379     51380
     51377     51375     51379     51380     51378     51375     51379     51380
     51382     51381     51385     51386     51383     51381     51385     51386
     51384     51381     51385     51386     51388     51387     51391     51392
     51389     51387     51391     51392     51390     51387     51391     51392
     51394     51393     51397     51398     51395     51393     51397     51398
     51396     51393     51397     51398     51400     51399     51403     51404
     51401     51399     51403     51404     51402     51399     51403     51404
     51406     51405     51409     51410     51407     51405     51409     51410
     51408     51405     51409     51410     51412     51411     51415     51416
     51413     51411     51415     51416     51414     51411     51415     51416
     51418     51417     51421     51422     51419     51417     51421     51422
     51420     51417     51421     51422     51424     51423     51427     51428
     51425     51423     51427     51428     51426     51423     51427     51428
     51430     51429     51433     51434     51431     51429     51433     51434
     51432     51429     51433     51434     51436     51435     51439     51440
     51437     51435     51439     51440     51438     51435     51439     51440
     51442     51441     51445     51446     51443     51441     51445     51446
     51444     51441     51445     51446     51448     51447     51451     51452
     51449     51447     51451     51452     51450     51447     51451     51452
     51454     51453     51457     51458     51455     51453     51457     51458
     51456     51453     51457     51458     51460     51459     51463     51464
     51461     51459     51463     51464     51462     51459     51463     51464
     51466     51465     51469     51470     51467     51465     51469     51470
     51468     51465     51469     51470     51472     51471     51475     51476
     51473     51471     51475     51476     51474     51471     51475     51476
     51478     51477     51481     51482     51479     51477     51481     51482
     51480     51477     51481     51482     51484     51483     51487     51488
     51485     51483     51487     51488     51486     51483     51487     51488
     51490     51489     51493     51494     51491     51489     51493     51494
     51492     51489     51493     51494     51496     51495     51499     51500
     51497     51495     51499     51500     51498     51495     51499     51500
     51502     51501     51505     51506     51503     51501     51505     51506
     51504     51501     51505     51506     51508     51507     51511     51512
     51509     51507     51511     51512     51510     51507     51511     51512
     51514     51513     51517     51518     51515     51513     51517     51518
     51516     51513     51517     51518     51520     51519     51523     51524
     51521     51519     51523     51524     51522     51519     51523     51524
     51526     51525     51529     51530     51527     51525     51529     51530
     51528     51525     51529     51530     51532     51531     51535     51536
     51533     51531     51535     51536     51534     51531     51535     51536
     51538     51537     51541     51542     51539     51537     51541     51542
     51540     51537     51541     51542     51544     51543     51547     51548
     51545     51543     51547     51548     51546     51543     51547     51548
     51550     51549     51553     51554     51551     51549     51553     51554
     51552     51549     51553     51554     51556     51555     51559     51560
     51557     51555     51559     51560     51558     51555     51559     51560
     51562     51561     51565     51566     51563     51561     51565     51566
     51564     51561     51565     51566     51568     51567     51571     51572
     51569     51567     51571     51572     51570     51567     51571     51572
     51574     51573     51577     51578     51575     51573     51577     51578
     51576     51573     51577     51578     51580     51579     51583     51584
     51581     51579     51583     51584     51582     51579     51583     51584
     51586     51585     51589     51590     51587     51585     51589     51590
     51588     51585     51589     51590     51592     51591     51595     51596
     51593     51591     51595     51596     51594     51591     51595     51596
     51598     51597     51601     51602     51599     51597     51601     51602
     51600     51597     51601     51602     51604     51603     51607     51608
     51605     51603     51607     51608     51606     51603     51607     51608
     51610     51609     51613     51614     51611     51609     51613     51614
     51612     51609     51613     51614     51616     51615     51619     51620
     51617     51615     51619     51620     51618     51615     51619     51620
     51622     51621     51625     51626     51623     51621     51625     51626
     51624     51621     51625     51626     51628     51627     51631     51632
     51629     51627     51631     51632     51630     51627     51631     51632
     51634     51633     51637     51638     51635     51633     51637     51638
     51636     51633     51637     51638     51640     51639     51643     51644
     51641     51639     51643     51644     51642     51639     51643     51644
     51646     51645     51649     51650     51647     51645     51649     51650
     51648     51645     51649     51650     51652     51651     51655     51656
     51653     51651     51655     51656     51654     51651     51655     51656
     51658     51657     51661     51662     51659     51657     51661     51662
     51660     51657     51661     51662     51664     51663     51667     51668
     51665     51663     51667     51668     51666     51663     51667     51668
     51670     51669     51673     51674     51671     51669     51673     51674
     51672     51669     51673     51674     51676     51675     51679     51680
     51677     51675     51679     51680     51678     51675     51679     51680
     51682     51681     51685     51686     51683     51681     51685     51686
     51684     51681     51685     51686     51688     51687     51691     51692
     51689     51687     51691     51692     51690     51687     51691     51692
     51694     51693     51697     51698     51695     51693     51697     51698
     51696     51693     51697     51698     51700     51699     51703     51704
     51701     51699     51703     51704     51702     51699     51703     51704
     51706     51705     51709     51710     51707     51705     51709     51710
     51708     51705     51709     51710     51712     51711     51715     51716
     51713     51711     51715     51716     51714     51711     51715     51716
     51718     51717     51721     51722     51719     51717     51721     51722
     51720     51717     51721     51722     51724     51723     51727     51728
     51725     51723     51727     51728     51726     51723     51727     51728
     51730     51729     51733     51734     51731     51729     51733     51734
     51732     51729     51733     51734     51736     51735     51739     51740
     51737     51735     51739     51740     51738     51735     51739     51740
     51742     51741     51745     51746     51743     51741     51745     51746
     51744     51741     51745     51746     51748     51747     51751     51752
     51749     51747     51751     51752     51750     51747     51751     51752
     51754     51753     51757     51758     51755     51753     51757     51758
     51756     51753     51757     51758     51760     51759     51763     51764
     51761     51759     51763     51764     51762     51759     51763     51764
     51766     51765     51769     51770     51767     51765     51769     51770
     51768     51765     51769     51770     51772     51771     51775     51776
     51773     51771     51775     51776     51774     51771     51775     51776
     51778     51777     51781     51782     51779     51777     51781     51782
     51780     51777     51781     51782     51784     51783     51787     51788
     51785     51783     51787     51788     51786     51783     51787     51788
     51790     51789     51793     51794     51791     51789     51793     51794
     51792     51789     51793     51794     51796     51795     51799     51800
     51797     51795     51799     51800     51798     51795     51799     51800
     51802     51801     51805     51806     51803     51801     51805     51806
     51804     51801     51805     51806     51808     51807     51811     51812
     51809     51807     51811     51812     51810     51807     51811     51812
     51814     51813     51817     51818     51815     51813     51817     51818
     51816     51813     51817     51818     51820     51819     51823     51824
     51821     51819     51823     51824     51822     51819     51823     51824
     51826     51825     51829     51830     51827     51825     51829     51830
     51828     51825     51829     51830     51832     51831     51835     51836
     51833     51831     51835     51836     51834     51831     51835     51836
     51838     51837     51841     51842     51839     51837     51841     51842
     51840     51837     51841     51842     51844     51843     51847     51848
     51845     51843     51847     51848     51846     51843     51847     51848
     51850     51849     51853     51854     51851     51849     51853     51854
     51852     51849     51853     51854     51856     51855     51859     51860
     51857     51855     51859     51860     51858     51855     51859     51860
     51862     51861     51865     51866     51863     51861     51865     51866
     51864     51861     51865     51866     51868     51867     51871     51872
     51869     51867     51871     51872     51870     51867     51871     51872
     51874     51873     51877     51878     51875     51873     51877     51878
     51876     51873     51877     51878     51880     51879     51883     51884
     51881     51879     51883     51884     51882     51879     51883     51884
     51886     51885     51889     51890     51887     51885     51889     51890
     51888     51885     51889     51890     51892     51891     51895     51896
     51893     51891     51895     51896     51894     51891     51895     51896
     51898     51897     51901     51902     51899     51897     51901     51902
     51900     51897     51901     51902     51904     51903     51907     51908
     51905     51903     51907     51908     51906     51903     51907     51908
     51910     51909     51913     51914     51911     51909     51913     51914
     51912     51909     51913     51914     51916     51915     51919     51920
     51917     51915     51919     51920     51918     51915     51919     51920
     51922     51921     51925     51926     51923     51921     51925     51926
     51924     51921     51925     51926     51928     51927     51931     51932
     51929     51927     51931     51932     51930     51927     51931     51932
     51934     51933     51937     51938     51935     51933     51937     51938
     51936     51933     51937     51938     51940     51939     51943     51944
     51941     51939     51943     51944     51942     51939     51943     51944
     51946     51945     51949     51950     51947     51945     51949     51950
     51948     51945     51949     51950     51952     51951     51955     51956
     51953     51951     51955     51956     51954     51951     51955     51956
     51958     51957     51961     51962     51959     51957     51961     51962
     51960     51957     51961     51962     51964     51963     51967     51968
     51965     51963     51967     51968     51966     51963     51967     51968
     51970     51969     51973     51974     51971     51969     51973     51974
     51972     51969     51973     51974     51976     51975     51979     51980
     51977     51975     51979     51980     51978     51975     51979     51980
     51982     51981     51985     51986     51983     51981     51985     51986
     51984     51981     51985     51986     51988     51987     51991     51992
     51989     51987     51991     51992     51990     51987     51991     51992
     51994     51993     51997     51998     51995     51993     51997     51998
     51996     51993     51997     51998     52000     51999     52003     52004
     52001     51999     52003     52004     52002     51999     52003     52004
     52006     52005     52009     52010     52007     52005     52009     52010
     52008     52005     52009     52010     52012     52011     52015     52016
     52013     52011     52015     52016     52014     52011     52015     52016
     52018     52017     52021     52022     52019     52017     52021     52022
     52020     52017     52021     52022     52024     52023     52027     52028
     52025     52023     52027     52028     52026     52023     52027     52028
     52030     52029     52033     52034     52031     52029     52033     52034
     52032     52029     52033     52034     52036     52035     52039     52040
     52037     52035     52039     52040     52038     52035     52039     52040
     52042     52041     52045     52046     52043     52041     52045     52046
     52044     52041     52045     52046     52048     52047     52051     52052
     52049     52047     52051     52052     52050     52047     52051     52052
     52054     52053     52057     52058     52055     52053     52057     52058
     52056     52053     52057     52058     52060     52059     52063     52064
     52061     52059     52063     52064     52062     52059     52063     52064
     52066     52065     52069     52070     52067     52065     52069     52070
     52068     52065     52069     52070     52072     52071     52075     52076
     52073     52071     52075     52076     52074     52071     52075     52076
     52078     52077     52081     52082     52079     52077     52081     52082
     52080     52077     52081     52082     52084     52083     52087     52088
     52085     52083     52087     52088     52086     52083     52087     52088
     52090     52089     52093     52094     52091     52089     52093     52094
     52092     52089     52093     52094     52096     52095     52099     52100
     52097     52095     52099     52100     52098     52095     52099     52100
     52102     52101     52105     52106     52103     52101     52105     52106
     52104     52101     52105     52106     52108     52107     52111     52112
     52109     52107     52111     52112     52110     52107     52111     52112
     52114     52113     52117     52118     52115     52113     52117     52118
     52116     52113     52117     52118     52120     52119     52123     52124
     52121     52119     52123     52124     52122     52119     52123     52124
     52126     52125     52129     52130     52127     52125     52129     52130
     52128     52125     52129     52130     52132     52131     52135     52136
     52133     52131     52135     52136     52134     52131     52135     52136
     52138     52137     52141     52142     52139     52137     52141     52142
     52140     52137     52141     52142     52144     52143     52147     52148
     52145     52143     52147     52148     52146     52143     52147     52148
     52150     52149     52153     52154     52151     52149     52153     52154
     52152     52149     52153     52154     52156     52155     52159     52160
     52157     52155     52159     52160     52158     52155     52159     52160
     52162     52161     52165     52166     52163     52161     52165     52166
     52164     52161     52165     52166     52168     52167     52171     52172
     52169     52167     52171     52172     52170     52167     52171     52172
     52174     52173     52177     52178     52175     52173     52177     52178
     52176     52173     52177     52178     52180     52179     52183     52184
     52181     52179     52183     52184     52182     52179     52183     52184
     52186     52185     52189     52190     52187     52185     52189     52190
     52188     52185     52189     52190     52192     52191     52195     52196
     52193     52191     52195     52196     52194     52191     52195     52196
     52198     52197     52201     52202     52199     52197     52201     52202
     52200     52197     52201     52202     52204     52203     52207     52208
     52205     52203     52207     52208     52206     52203     52207     52208
     52210     52209     52213     52214     52211     52209     52213     52214
     52212     52209     52213     52214     52216     52215     52219     52220
     52217     52215     52219     52220     52218     52215     52219     52220
     52222     52221     52225     52226     52223     52221     52225     52226
     52224     52221     52225     52226     52228     52227     52231     52232
     52229     52227     52231     52232     52230     52227     52231     52232
     52234     52233     52237     52238     52235     52233     52237     52238
     52236     52233     52237     52238     52240     52239     52243     52244
     52241     52239     52243     52244     52242     52239     52243     52244
     52246     52245     52249     52250     52247     52245     52249     52250
     52248     52245     52249     52250     52252     52251     52255     52256
     52253     52251     52255     52256     52254     52251     52255     52256
     52258     52257     52261     52262     52259     52257     52261     52262
     52260     52257     52261     52262     52264     52263     52267     52268
     52265     52263     52267     52268     52266     52263     52267     52268
     52270     52269     52273     52274     52271     52269     52273     52274
     52272     52269     52273     52274     52276     52275     52279     52280
     52277     52275     52279     52280     52278     52275     52279     52280
     52282     52281     52285     52286     52283     52281     52285     52286
     52284     52281     52285     52286     52288     52287     52291     52292
     52289     52287     52291     52292     52290     52287     52291     52292
     52294     52293     52297     52298     52295     52293     52297     52298
     52296     52293     52297     52298     52300     52299     52303     52304
     52301     52299     52303     52304     52302     52299     52303     52304
     52306     52305     52309     52310     52307     52305     52309     52310
     52308     52305     52309     52310     52312     52311     52315     52316
     52313     52311     52315     52316     52314     52311     52315     52316
     52318     52317     52321     52322     52319     52317     52321     52322
     52320     52317     52321     52322     52324     52323     52327     52328
     52325     52323     52327     52328     52326     52323     52327     52328
     52330     52329     52333     52334     52331     52329     52333     52334
     52332     52329     52333     52334     52336     52335     52339     52340
     52337     52335     52339     52340     52338     52335     52339     52340
     52342     52341     52345     52346     52343     52341     52345     52346
     52344     52341     52345     52346     52348     52347     52351     52352
     52349     52347     52351     52352     52350     52347     52351     52352
     52354     52353     52357     52358     52355     52353     52357     52358
     52356     52353     52357     52358     52360     52359     52363     52364
     52361     52359     52363     52364     52362     52359     52363     52364
     52366     52365     52369     52370     52367     52365     52369     52370
     52368     52365     52369     52370     52372     52371     52375     52376
     52373     52371     52375     52376     52374     52371     52375     52376
     52378     52377     52381     52382     52379     52377     52381     52382
     52380     52377     52381     52382     52384     52383     52387     52388
     52385     52383     52387     52388     52386     52383     52387     52388
     52390     52389     52393     52394     52391     52389     52393     52394
     52392     52389     52393     52394     52396     52395     52399     52400
     52397     52395     52399     52400     52398     52395     52399     52400
     52402     52401     52405     52406     52403     52401     52405     52406
     52404     52401     52405     52406     52408     52407     52411     52412
     52409     52407     52411     52412     52410     52407     52411     52412
     52414     52413     52417     52418     52415     52413     52417     52418
     52416     52413     52417     52418     52420     52419     52423     52424
     52421     52419     52423     52424     52422     52419     52423     52424
     52426     52425     52429     52430     52427     52425     52429     52430
     52428     52425     52429     52430     52432     52431     52435     52436
     52433     52431     52435     52436     52434     52431     52435     52436
     52438     52437     52441     52442     52439     52437     52441     52442
     52440     52437     52441     52442     52444     52443     52447     52448
     52445     52443     52447     52448     52446     52443     52447     52448
     52450     52449     52453     52454     52451     52449     52453     52454
     52452     52449     52453     52454     52456     52455     52459     52460
     52457     52455     52459     52460     52458     52455     52459     52460
     52462     52461     52465     52466     52463     52461     52465     52466
     52464     52461     52465     52466     52468     52467     52471     52472
     52469     52467     52471     52472     52470     52467     52471     52472
     52474     52473     52477     52478     52475     52473     52477     52478
     52476     52473     52477     52478     52480     52479     52483     52484
     52481     52479     52483     52484     52482     52479     52483     52484
     52486     52485     52489     52490     52487     52485     52489     52490
     52488     52485     52489     52490     52492     52491     52495     52496
     52493     52491     52495     52496     52494     52491     52495     52496
     52498     52497     52501     52502     52499     52497     52501     52502
     52500     52497     52501     52502     52504     52503     52507     52508
     52505     52503     52507     52508     52506     52503     52507     52508
     52510     52509     52513     52514     52511     52509     52513     52514
     52512     52509     52513     52514     52516     52515     52519     52520
     52517     52515     52519     52520     52518     52515     52519     52520
     52522     52521     52525     52526     52523     52521     52525     52526
     52524     52521     52525     52526     52528     52527     52531     52532
     52529     52527     52531     52532     52530     52527     52531     52532
     52534     52533     52537     52538     52535     52533     52537     52538
     52536     52533     52537     52538     52540     52539     52543     52544
     52541     52539     52543     52544     52542     52539     52543     52544
     52546     52545     52549     52550     52547     52545     52549     52550
     52548     52545     52549     52550     52552     52551     52555     52556
     52553     52551     52555     52556     52554     52551     52555     52556
     52558     52557     52561     52562     52559     52557     52561     52562
     52560     52557     52561     52562     52564     52563     52567     52568
     52565     52563     52567     52568     52566     52563     52567     52568
     52570     52569     52573     52574     52571     52569     52573     52574
     52572     52569     52573     52574     52576     52575     52579     52580
     52577     52575     52579     52580     52578     52575     52579     52580
     52582     52581     52585     52586     52583     52581     52585     52586
     52584     52581     52585     52586     52588     52587     52591     52592
     52589     52587     52591     52592     52590     52587     52591     52592
     52594     52593     52597     52598     52595     52593     52597     52598
     52596     52593     52597     52598     52600     52599     52603     52604
     52601     52599     52603     52604     52602     52599     52603     52604
     52606     52605     52609     52610     52607     52605     52609     52610
     52608     52605     52609     52610     52612     52611     52615     52616
     52613     52611     52615     52616     52614     52611     52615     52616
     52618     52617     52621     52622     52619     52617     52621     52622
     52620     52617     52621     52622     52624     52623     52627     52628
     52625     52623     52627     52628     52626     52623     52627     52628
     52630     52629     52633     52634     52631     52629     52633     52634
     52632     52629     52633     52634     52636     52635     52639     52640
     52637     52635     52639     52640     52638     52635     52639     52640
     52642     52641     52645     52646     52643     52641     52645     52646
     52644     52641     52645     52646     52648     52647     52651     52652
     52649     52647     52651     52652     52650     52647     52651     52652
     52654     52653     52657     52658     52655     52653     52657     52658
     52656     52653     52657     52658     52660     52659     52663     52664
     52661     52659     52663     52664     52662     52659     52663     52664
     52666     52665     52669     52670     52667     52665     52669     52670
     52668     52665     52669     52670     52672     52671     52675     52676
     52673     52671     52675     52676     52674     52671     52675     52676
     52678     52677     52681     52682     52679     52677     52681     52682
     52680     52677     52681     52682     52684     52683     52687     52688
     52685     52683     52687     52688     52686     52683     52687     52688
     52690     52689     52693     52694     52691     52689     52693     52694
     52692     52689     52693     52694     52696     52695     52699     52700
     52697     52695     52699     52700     52698     52695     52699     52700
     52702     52701     52705     52706     52703     52701     52705     52706
     52704     52701     52705     52706     52708     52707     52711     52712
     52709     52707     52711     52712     52710     52707     52711     52712
     52714     52713     52717     52718     52715     52713     52717     52718
     52716     52713     52717     52718     52720     52719     52723     52724
     52721     52719     52723     52724     52722     52719     52723     52724
     52726     52725     52729     52730     52727     52725     52729     52730
     52728     52725     52729     52730     52732     52731     52735     52736
     52733     52731     52735     52736     52734     52731     52735     52736
     52738     52737     52741     52742     52739     52737     52741     52742
     52740     52737     52741     52742     52744     52743     52747     52748
     52745     52743     52747     52748     52746     52743     52747     52748
     52750     52749     52753     52754     52751     52749     52753     52754
     52752     52749     52753     52754     52756     52755     52759     52760
     52757     52755     52759     52760     52758     52755     52759     52760
     52762     52761     52765     52766     52763     52761     52765     52766
     52764     52761     52765     52766     52768     52767     52771     52772
     52769     52767     52771     52772     52770     52767     52771     52772
     52774     52773     52777     52778     52775     52773     52777     52778
     52776     52773     52777     52778     52780     52779     52783     52784
     52781     52779     52783     52784     52782     52779     52783     52784
     52786     52785     52789     52790     52787     52785     52789     52790
     52788     52785     52789     52790     52792     52791     52795     52796
     52793     52791     52795     52796     52794     52791     52795     52796
     52798     52797     52801     52802     52799     52797     52801     52802
     52800     52797     52801     52802     52804     52803     52807     52808
     52805     52803     52807     52808     52806     52803     52807     52808
     52810     52809     52813     52814     52811     52809     52813     52814
     52812     52809     52813     52814     52816     52815     52819     52820
     52817     52815     52819     52820     52818     52815     52819     52820
     52822     52821     52825     52826     52823     52821     52825     52826
     52824     52821     52825     52826     52828     52827     52831     52832
     52829     52827     52831     52832     52830     52827     52831     52832
     52834     52833     52837     52838     52835     52833     52837     52838
     52836     52833     52837     52838     52840     52839     52843     52844
     52841     52839     52843     52844     52842     52839     52843     52844
     52846     52845     52849     52850     52847     52845     52849     52850
     52848     52845     52849     52850     52852     52851     52855     52856
     52853     52851     52855     52856     52854     52851     52855     52856
     52858     52857     52861     52862     52859     52857     52861     52862
     52860     52857     52861     52862     52864     52863     52867     52868
     52865     52863     52867     52868     52866     52863     52867     52868
     52870     52869     52873     52874     52871     52869     52873     52874
     52872     52869     52873     52874     52876     52875     52879     52880
     52877     52875     52879     52880     52878     52875     52879     52880
     52882     52881     52885     52886     52883     52881     52885     52886
     52884     52881     52885     52886     52888     52887     52891     52892
     52889     52887     52891     52892     52890     52887     52891     52892
     52894     52893     52897     52898     52895     52893     52897     52898
     52896     52893     52897     52898     52900     52899     52903     52904
     52901     52899     52903     52904     52902     52899     52903     52904
     52906     52905     52909     52910     52907     52905     52909     52910
     52908     52905     52909     52910     52912     52911     52915     52916
     52913     52911     52915     52916     52914     52911     52915     52916
     52918     52917     52921     52922     52919     52917     52921     52922
     52920     52917     52921     52922     52924     52923     52927     52928
     52925     52923     52927     52928     52926     52923     52927     52928
     52930     52929     52933     52934     52931     52929     52933     52934
     52932     52929     52933     52934     52936     52935     52939     52940
     52937     52935     52939     52940     52938     52935     52939     52940
     52942     52941     52945     52946     52943     52941     52945     52946
     52944     52941     52945     52946     52948     52947     52951     52952
     52949     52947     52951     52952     52950     52947     52951     52952
     52954     52953     52957     52958     52955     52953     52957     52958
     52956     52953     52957     52958     52960     52959     52963     52964
     52961     52959     52963     52964     52962     52959     52963     52964
     52966     52965     52969     52970     52967     52965     52969     52970
     52968     52965     52969     52970     52972     52971     52975     52976
     52973     52971     52975     52976     52974     52971     52975     52976
     52978     52977     52981     52982     52979     52977     52981     52982
     52980     52977     52981     52982     52984     52983     52987     52988
     52985     52983     52987     52988     52986     52983     52987     52988
     52990     52989     52993     52994     52991     52989     52993     52994
     52992     52989     52993     52994     52996     52995     52999     53000
     52997     52995     52999     53000     52998     52995     52999     53000
     53002     53001     53005     53006     53003     53001     53005     53006
     53004     53001     53005     53006     53008     53007     53011     53012
     53009     53007     53011     53012     53010     53007     53011     53012
     53014     53013     53017     53018     53015     53013     53017     53018
     53016     53013     53017     53018     53020     53019     53023     53024
     53021     53019     53023     53024     53022     53019     53023     53024
     53026     53025     53029     53030     53027     53025     53029     53030
     53028     53025     53029     53030     53032     53031     53035     53036
     53033     53031     53035     53036     53034     53031     53035     53036
     53038     53037     53041     53042     53039     53037     53041     53042
     53040     53037     53041     53042     53044     53043     53047     53048
     53045     53043     53047     53048     53046     53043     53047     53048
     53050     53049     53053     53054     53051     53049     53053     53054
     53052     53049     53053     53054     53056     53055     53059     53060
     53057     53055     53059     53060     53058     53055     53059     53060
     53062     53061     53065     53066     53063     53061     53065     53066
     53064     53061     53065     53066     53068     53067     53071     53072
     53069     53067     53071     53072     53070     53067     53071     53072
     53074     53073     53077     53078     53075     53073     53077     53078
     53076     53073     53077     53078     53080     53079     53083     53084
     53081     53079     53083     53084     53082     53079     53083     53084
     53086     53085     53089     53090     53087     53085     53089     53090
     53088     53085     53089     53090     53092     53091     53095     53096
     53093     53091     53095     53096     53094     53091     53095     53096
     53098     53097     53101     53102     53099     53097     53101     53102
     53100     53097     53101     53102     53104     53103     53107     53108
     53105     53103     53107     53108     53106     53103     53107     53108
     53110     53109     53113     53114     53111     53109     53113     53114
     53112     53109     53113     53114     53116     53115     53119     53120
     53117     53115     53119     53120     53118     53115     53119     53120
     53122     53121     53125     53126     53123     53121     53125     53126
     53124     53121     53125     53126     53128     53127     53131     53132
     53129     53127     53131     53132     53130     53127     53131     53132
     53134     53133     53137     53138     53135     53133     53137     53138
     53136     53133     53137     53138     53140     53139     53143     53144
     53141     53139     53143     53144     53142     53139     53143     53144
     53146     53145     53149     53150     53147     53145     53149     53150
     53148     53145     53149     53150     53152     53151     53155     53156
     53153     53151     53155     53156     53154     53151     53155     53156
     53158     53157     53161     53162     53159     53157     53161     53162
     53160     53157     53161     53162     53164     53163     53167     53168
     53165     53163     53167     53168     53166     53163     53167     53168
     53170     53169     53173     53174     53171     53169     53173     53174
     53172     53169     53173     53174     53176     53175     53179     53180
     53177     53175     53179     53180     53178     53175     53179     53180
     53182     53181     53185     53186     53183     53181     53185     53186
     53184     53181     53185     53186     53188     53187     53191     53192
     53189     53187     53191     53192     53190     53187     53191     53192
     53194     53193     53197     53198     53195     53193     53197     53198
     53196     53193     53197     53198     53200     53199     53203     53204
     53201     53199     53203     53204     53202     53199     53203     53204
     53206     53205     53209     53210     53207     53205     53209     53210
     53208     53205     53209     53210     53212     53211     53215     53216
     53213     53211     53215     53216     53214     53211     53215     53216
     53218     53217     53221     53222     53219     53217     53221     53222
     53220     53217     53221     53222     53224     53223     53227     53228
     53225     53223     53227     53228     53226     53223     53227     53228
     53230     53229     53233     53234     53231     53229     53233     53234
     53232     53229     53233     53234     53236     53235     53239     53240
     53237     53235     53239     53240     53238     53235     53239     53240
     53242     53241     53245     53246     53243     53241     53245     53246
     53244     53241     53245     53246     53248     53247     53251     53252
     53249     53247     53251     53252     53250     53247     53251     53252
     53254     53253     53257     53258     53255     53253     53257     53258
     53256     53253     53257     53258     53260     53259     53263     53264
     53261     53259     53263     53264     53262     53259     53263     53264
     53266     53265     53269     53270     53267     53265     53269     53270
     53268     53265     53269     53270     53272     53271     53275     53276
     53273     53271     53275     53276     53274     53271     53275     53276
     53278     53277     53281     53282     53279     53277     53281     53282
     53280     53277     53281     53282     53284     53283     53287     53288
     53285     53283     53287     53288     53286     53283     53287     53288
     53290     53289     53293     53294     53291     53289     53293     53294
     53292     53289     53293     53294     53296     53295     53299     53300
     53297     53295     53299     53300     53298     53295     53299     53300
     53302     53301     53305     53306     53303     53301     53305     53306
     53304     53301     53305     53306     53308     53307     53311     53312
     53309     53307     53311     53312     53310     53307     53311     53312
     53314     53313     53317     53318     53315     53313     53317     53318
     53316     53313     53317     53318     53320     53319     53323     53324
     53321     53319     53323     53324     53322     53319     53323     53324
     53326     53325     53329     53330     53327     53325     53329     53330
     53328     53325     53329     53330     53332     53331     53335     53336
     53333     53331     53335     53336     53334     53331     53335     53336
     53338     53337     53341     53342     53339     53337     53341     53342
     53340     53337     53341     53342     53344     53343     53347     53348
     53345     53343     53347     53348     53346     53343     53347     53348
     53350     53349     53353     53354     53351     53349     53353     53354
     53352     53349     53353     53354     53356     53355     53359     53360
     53357     53355     53359     53360     53358     53355     53359     53360
     53362     53361     53365     53366     53363     53361     53365     53366
     53364     53361     53365     53366     53368     53367     53371     53372
     53369     53367     53371     53372     53370     53367     53371     53372
     53374     53373     53377     53378     53375     53373     53377     53378
     53376     53373     53377     53378     53380     53379     53383     53384
     53381     53379     53383     53384     53382     53379     53383     53384
     53386     53385     53389     53390     53387     53385     53389     53390
     53388     53385     53389     53390     53392     53391     53395     53396
     53393     53391     53395     53396     53394     53391     53395     53396
     53398     53397     53401     53402     53399     53397     53401     53402
     53400     53397     53401     53402     53404     53403     53407     53408
     53405     53403     53407     53408     53406     53403     53407     53408
     53410     53409     53413     53414     53411     53409     53413     53414
     53412     53409     53413     53414     53416     53415     53419     53420
     53417     53415     53419     53420     53418     53415     53419     53420
     53422     53421     53425     53426     53423     53421     53425     53426
     53424     53421     53425     53426     53428     53427     53431     53432
     53429     53427     53431     53432     53430     53427     53431     53432
     53434     53433     53437     53438     53435     53433     53437     53438
     53436     53433     53437     53438     53440     53439     53443     53444
     53441     53439     53443     53444     53442     53439     53443     53444
     53446     53445     53449     53450     53447     53445     53449     53450
     53448     53445     53449     53450     53452     53451     53455     53456
     53453     53451     53455     53456     53454     53451     53455     53456
     53458     53457     53461     53462     53459     53457     53461     53462
     53460     53457     53461     53462     53464     53463     53467     53468
     53465     53463     53467     53468     53466     53463     53467     53468
     53470     53469     53473     53474     53471     53469     53473     53474
     53472     53469     53473     53474     53476     53475     53479     53480
     53477     53475     53479     53480     53478     53475     53479     53480
     53482     53481     53485     53486     53483     53481     53485     53486
     53484     53481     53485     53486     53488     53487     53491     53492
     53489     53487     53491     53492     53490     53487     53491     53492
     53494     53493     53497     53498     53495     53493     53497     53498
     53496     53493     53497     53498     53500     53499     53503     53504
     53501     53499     53503     53504     53502     53499     53503     53504
     53506     53505     53509     53510     53507     53505     53509     53510
     53508     53505     53509     53510     53512     53511     53515     53516
     53513     53511     53515     53516     53514     53511     53515     53516
     53518     53517     53521     53522     53519     53517     53521     53522
     53520     53517     53521     53522     53524     53523     53527     53528
     53525     53523     53527     53528     53526     53523     53527     53528
     53530     53529     53533     53534     53531     53529     53533     53534
     53532     53529     53533     53534     53536     53535     53539     53540
     53537     53535     53539     53540     53538     53535     53539     53540
     53542     53541     53545     53546     53543     53541     53545     53546
     53544     53541     53545     53546     53548     53547     53551     53552
     53549     53547     53551     53552     53550     53547     53551     53552
     53554     53553     53557     53558     53555     53553     53557     53558
     53556     53553     53557     53558     53560     53559     53563     53564
     53561     53559     53563     53564     53562     53559     53563     53564
     53566     53565     53569     53570     53567     53565     53569     53570
     53568     53565     53569     53570     53572     53571     53575     53576
     53573     53571     53575     53576     53574     53571     53575     53576
     53578     53577     53581     53582     53579     53577     53581     53582
     53580     53577     53581     53582     53584     53583     53587     53588
     53585     53583     53587     53588     53586     53583     53587     53588
     53590     53589     53593     53594     53591     53589     53593     53594
     53592     53589     53593     53594     53596     53595     53599     53600
     53597     53595     53599     53600     53598     53595     53599     53600
     53602     53601     53605     53606     53603     53601     53605     53606
     53604     53601     53605     53606     53608     53607     53611     53612
     53609     53607     53611     53612     53610     53607     53611     53612
     53614     53613     53617     53618     53615     53613     53617     53618
     53616     53613     53617     53618     53620     53619     53623     53624
     53621     53619     53623     53624     53622     53619     53623     53624
     53626     53625     53629     53630     53627     53625     53629     53630
     53628     53625     53629     53630     53632     53631     53635     53636
     53633     53631     53635     53636     53634     53631     53635     53636
     53638     53637     53641     53642     53639     53637     53641     53642
     53640     53637     53641     53642     53644     53643     53647     53648
     53645     53643     53647     53648     53646     53643     53647     53648
     53650     53649     53653     53654     53651     53649     53653     53654
     53652     53649     53653     53654     53656     53655     53659     53660
     53657     53655     53659     53660     53658     53655     53659     53660
     53662     53661     53665     53666     53663     53661     53665     53666
     53664     53661     53665     53666     53668     53667     53671     53672
     53669     53667     53671     53672     53670     53667     53671     53672
     53674     53673     53677     53678     53675     53673     53677     53678
     53676     53673     53677     53678     53680     53679     53683     53684
     53681     53679     53683     53684     53682     53679     53683     53684
     53686     53685     53689     53690     53687     53685     53689     53690
     53688     53685     53689     53690     53692     53691     53695     53696
     53693     53691     53695     53696     53694     53691     53695     53696
     53698     53697     53701     53702     53699     53697     53701     53702
     53700     53697     53701     53702     53704     53703     53707     53708
     53705     53703     53707     53708     53706     53703     53707     53708
     53710     53709     53713     53714     53711     53709     53713     53714
     53712     53709     53713     53714     53716     53715     53719     53720
     53717     53715     53719     53720     53718     53715     53719     53720
     53722     53721     53725     53726     53723     53721     53725     53726
     53724     53721     53725     53726     53728     53727     53731     53732
     53729     53727     53731     53732     53730     53727     53731     53732
     53734     53733     53737     53738     53735     53733     53737     53738
     53736     53733     53737     53738     53740     53739     53743     53744
     53741     53739     53743     53744     53742     53739     53743     53744
     53746     53745     53749     53750     53747     53745     53749     53750
     53748     53745     53749     53750     53752     53751     53755     53756
     53753     53751     53755     53756     53754     53751     53755     53756
     53758     53757     53761     53762     53759     53757     53761     53762
     53760     53757     53761     53762     53764     53763     53767     53768
     53765     53763     53767     53768     53766     53763     53767     53768
     53770     53769     53773     53774     53771     53769     53773     53774
     53772     53769     53773     53774     53776     53775     53779     53780
     53777     53775     53779     53780     53778     53775     53779     53780
     53782     53781     53785     53786     53783     53781     53785     53786
     53784     53781     53785     53786     53788     53787     53791     53792
     53789     53787     53791     53792     53790     53787     53791     53792
     53794     53793     53797     53798     53795     53793     53797     53798
     53796     53793     53797     53798     53800     53799     53803     53804
     53801     53799     53803     53804     53802     53799     53803     53804
     53806     53805     53809     53810     53807     53805     53809     53810
     53808     53805     53809     53810     53812     53811     53815     53816
     53813     53811     53815     53816     53814     53811     53815     53816
     53818     53817     53821     53822     53819     53817     53821     53822
     53820     53817     53821     53822     53824     53823     53827     53828
     53825     53823     53827     53828     53826     53823     53827     53828
     53830     53829     53833     53834     53831     53829     53833     53834
     53832     53829     53833     53834     53836     53835     53839     53840
     53837     53835     53839     53840     53838     53835     53839     53840
     53842     53841     53845     53846     53843     53841     53845     53846
     53844     53841     53845     53846     53848     53847     53851     53852
     53849     53847     53851     53852     53850     53847     53851     53852
     53854     53853     53857     53858     53855     53853     53857     53858
     53856     53853     53857     53858     53860     53859     53863     53864
     53861     53859     53863     53864     53862     53859     53863     53864
     53866     53865     53869     53870     53867     53865     53869     53870
     53868     53865     53869     53870     53872     53871     53875     53876
     53873     53871     53875     53876     53874     53871     53875     53876
     53878     53877     53881     53882     53879     53877     53881     53882
     53880     53877     53881     53882     53884     53883     53887     53888
     53885     53883     53887     53888     53886     53883     53887     53888
     53890     53889     53893     53894     53891     53889     53893     53894
     53892     53889     53893     53894     53896     53895     53899     53900
     53897     53895     53899     53900     53898     53895     53899     53900
     53902     53901     53905     53906     53903     53901     53905     53906
     53904     53901     53905     53906     53908     53907     53911     53912
     53909     53907     53911     53912     53910     53907     53911     53912
     53914     53913     53917     53918     53915     53913     53917     53918
     53916     53913     53917     53918     53920     53919     53923     53924
     53921     53919     53923     53924     53922     53919     53923     53924
     53926     53925     53929     53930     53927     53925     53929     53930
     53928     53925     53929     53930     53932     53931     53935     53936
     53933     53931     53935     53936     53934     53931     53935     53936
     53938     53937     53941     53942     53939     53937     53941     53942
     53940     53937     53941     53942     53944     53943     53947     53948
     53945     53943     53947     53948     53946     53943     53947     53948
     53950     53949     53953     53954     53951     53949     53953     53954
     53952     53949     53953     53954     53956     53955     53959     53960
     53957     53955     53959     53960     53958     53955     53959     53960
     53962     53961     53965     53966     53963     53961     53965     53966
     53964     53961     53965     53966     53968     53967     53971     53972
     53969     53967     53971     53972     53970     53967     53971     53972
     53974     53973     53977     53978     53975     53973     53977     53978
     53976     53973     53977     53978     53980     53979     53983     53984
     53981     53979     53983     53984     53982     53979     53983     53984
     53986     53985     53989     53990     53987     53985     53989     53990
     53988     53985     53989     53990     53992     53991     53995     53996
     53993     53991     53995     53996     53994     53991     53995     53996
     53998     53997     54001     54002     53999     53997     54001     54002
     54000     53997     54001     54002     54004     54003     54007     54008
     54005     54003     54007     54008     54006     54003     54007     54008
     54010     54009     54013     54014     54011     54009     54013     54014
     54012     54009     54013     54014     54016     54015     54019     54020
     54017     54015     54019     54020     54018     54015     54019     54020
     54022     54021     54025     54026     54023     54021     54025     54026
     54024     54021     54025     54026     54028     54027     54031     54032
     54029     54027     54031     54032     54030     54027     54031     54032
     54034     54033     54037     54038     54035     54033     54037     54038
     54036     54033     54037     54038     54040     54039     54043     54044
     54041     54039     54043     54044     54042     54039     54043     54044
     54046     54045     54049     54050     54047     54045     54049     54050
     54048     54045     54049     54050     54052     54051     54055     54056
     54053     54051     54055     54056     54054     54051     54055     54056
     54058     54057     54061     54062     54059     54057     54061     54062
     54060     54057     54061     54062     54064     54063     54067     54068
     54065     54063     54067     54068     54066     54063     54067     54068
     54070     54069     54073     54074     54071     54069     54073     54074
     54072     54069     54073     54074     54076     54075     54079     54080
     54077     54075     54079     54080     54078     54075     54079     54080
     54082     54081     54085     54086     54083     54081     54085     54086
     54084     54081     54085     54086     54088     54087     54091     54092
     54089     54087     54091     54092     54090     54087     54091     54092
     54094     54093     54097     54098     54095     54093     54097     54098
     54096     54093     54097     54098     54100     54099     54103     54104
     54101     54099     54103     54104     54102     54099     54103     54104
     54106     54105     54109     54110     54107     54105     54109     54110
     54108     54105     54109     54110     54112     54111     54115     54116
     54113     54111     54115     54116     54114     54111     54115     54116
     54118     54117     54121     54122     54119     54117     54121     54122
     54120     54117     54121     54122     54124     54123     54127     54128
     54125     54123     54127     54128     54126     54123     54127     54128
     54130     54129     54133     54134     54131     54129     54133     54134
     54132     54129     54133     54134     54136     54135     54139     54140
     54137     54135     54139     54140     54138     54135     54139     54140
     54142     54141     54145     54146     54143     54141     54145     54146
     54144     54141     54145     54146     54148     54147     54151     54152
     54149     54147     54151     54152     54150     54147     54151     54152
     54154     54153     54157     54158     54155     54153     54157     54158
     54156     54153     54157     54158     54160     54159     54163     54164
     54161     54159     54163     54164     54162     54159     54163     54164
     54166     54165     54169     54170     54167     54165     54169     54170
     54168     54165     54169     54170     54172     54171     54175     54176
     54173     54171     54175     54176     54174     54171     54175     54176
     54178     54177     54181     54182     54179     54177     54181     54182
     54180     54177     54181     54182     54184     54183     54187     54188
     54185     54183     54187     54188     54186     54183     54187     54188
     54190     54189     54193     54194     54191     54189     54193     54194
     54192     54189     54193     54194     54196     54195     54199     54200
     54197     54195     54199     54200     54198     54195     54199     54200
     54202     54201     54205     54206     54203     54201     54205     54206
     54204     54201     54205     54206     54208     54207     54211     54212
     54209     54207     54211     54212     54210     54207     54211     54212
     54214     54213     54217     54218     54215     54213     54217     54218
     54216     54213     54217     54218     54220     54219     54223     54224
     54221     54219     54223     54224     54222     54219     54223     54224
     54226     54225     54229     54230     54227     54225     54229     54230
     54228     54225     54229     54230     54232     54231     54235     54236
     54233     54231     54235     54236     54234     54231     54235     54236
     54238     54237     54241     54242     54239     54237     54241     54242
     54240     54237     54241     54242     54244     54243     54247     54248
     54245     54243     54247     54248     54246     54243     54247     54248
     54250     54249     54253     54254     54251     54249     54253     54254
     54252     54249     54253     54254     54256     54255     54259     54260
     54257     54255     54259     54260     54258     54255     54259     54260
     54262     54261     54265     54266     54263     54261     54265     54266
     54264     54261     54265     54266     54268     54267     54271     54272
     54269     54267     54271     54272     54270     54267     54271     54272
     54274     54273     54277     54278     54275     54273     54277     54278
     54276     54273     54277     54278     54280     54279     54283     54284
     54281     54279     54283     54284     54282     54279     54283     54284
     54286     54285     54289     54290     54287     54285     54289     54290
     54288     54285     54289     54290     54292     54291     54295     54296
     54293     54291     54295     54296     54294     54291     54295     54296
     54298     54297     54301     54302     54299     54297     54301     54302
     54300     54297     54301     54302     54304     54303     54307     54308
     54305     54303     54307     54308     54306     54303     54307     54308
     54310     54309     54313     54314     54311     54309     54313     54314
     54312     54309     54313     54314     54316     54315     54319     54320
     54317     54315     54319     54320     54318     54315     54319     54320
     54322     54321     54325     54326     54323     54321     54325     54326
     54324     54321     54325     54326     54328     54327     54331     54332
     54329     54327     54331     54332     54330     54327     54331     54332
     54334     54333     54337     54338     54335     54333     54337     54338
     54336     54333     54337     54338     54340     54339     54343     54344
     54341     54339     54343     54344     54342     54339     54343     54344
     54346     54345     54349     54350     54347     54345     54349     54350
     54348     54345     54349     54350     54352     54351     54355     54356
     54353     54351     54355     54356     54354     54351     54355     54356
     54358     54357     54361     54362     54359     54357     54361     54362
     54360     54357     54361     54362     54364     54363     54367     54368
     54365     54363     54367     54368     54366     54363     54367     54368
     54370     54369     54373     54374     54371     54369     54373     54374
     54372     54369     54373     54374     54376     54375     54379     54380
     54377     54375     54379     54380     54378     54375     54379     54380
     54382     54381     54385     54386     54383     54381     54385     54386
     54384     54381     54385     54386     54388     54387     54391     54392
     54389     54387     54391     54392     54390     54387     54391     54392
     54394     54393     54397     54398     54395     54393     54397     54398
     54396     54393     54397     54398     54400     54399     54403     54404
     54401     54399     54403     54404     54402     54399     54403     54404
     54406     54405     54409     54410     54407     54405     54409     54410
     54408     54405     54409     54410     54412     54411     54415     54416
     54413     54411     54415     54416     54414     54411     54415     54416
     54418     54417     54421     54422     54419     54417     54421     54422
     54420     54417     54421     54422     54424     54423     54427     54428
     54425     54423     54427     54428     54426     54423     54427     54428
     54430     54429     54433     54434     54431     54429     54433     54434
     54432     54429     54433     54434     54436     54435     54439     54440
     54437     54435     54439     54440     54438     54435     54439     54440
     54442     54441     54445     54446     54443     54441     54445     54446
     54444     54441     54445     54446     54448     54447     54451     54452
     54449     54447     54451     54452     54450     54447     54451     54452
     54454     54453     54457     54458     54455     54453     54457     54458
     54456     54453     54457     54458     54460     54459     54463     54464
     54461     54459     54463     54464     54462     54459     54463     54464
     54466     54465     54469     54470     54467     54465     54469     54470
     54468     54465     54469     54470     54472     54471     54475     54476
     54473     54471     54475     54476     54474     54471     54475     54476
     54478     54477     54481     54482     54479     54477     54481     54482
     54480     54477     54481     54482     54484     54483     54487     54488
     54485     54483     54487     54488     54486     54483     54487     54488
     54490     54489     54493     54494     54491     54489     54493     54494
     54492     54489     54493     54494     54496     54495     54499     54500
     54497     54495     54499     54500     54498     54495     54499     54500
     54502     54501     54505     54506     54503     54501     54505     54506
     54504     54501     54505     54506     54508     54507     54511     54512
     54509     54507     54511     54512     54510     54507     54511     54512
     54514     54513     54517     54518     54515     54513     54517     54518
     54516     54513     54517     54518     54520     54519     54523     54524
     54521     54519     54523     54524     54522     54519     54523     54524
     54526     54525     54529     54530     54527     54525     54529     54530
     54528     54525     54529     54530     54532     54531     54535     54536
     54533     54531     54535     54536     54534     54531     54535     54536
     54538     54537     54541     54542     54539     54537     54541     54542
     54540     54537     54541     54542     54544     54543     54547     54548
     54545     54543     54547     54548     54546     54543     54547     54548
     54550     54549     54553     54554     54551     54549     54553     54554
     54552     54549     54553     54554     54556     54555     54559     54560
     54557     54555     54559     54560     54558     54555     54559     54560
     54562     54561     54565     54566     54563     54561     54565     54566
     54564     54561     54565     54566     54568     54567     54571     54572
     54569     54567     54571     54572     54570     54567     54571     54572
     54574     54573     54577     54578     54575     54573     54577     54578
     54576     54573     54577     54578     54580     54579     54583     54584
     54581     54579     54583     54584     54582     54579     54583     54584
     54586     54585     54589     54590     54587     54585     54589     54590
     54588     54585     54589     54590     54592     54591     54595     54596
     54593     54591     54595     54596     54594     54591     54595     54596
     54598     54597     54601     54602     54599     54597     54601     54602
     54600     54597     54601     54602     54604     54603     54607     54608
     54605     54603     54607     54608     54606     54603     54607     54608
     54610     54609     54613     54614     54611     54609     54613     54614
     54612     54609     54613     54614     54616     54615     54619     54620
     54617     54615     54619     54620     54618     54615     54619     54620
     54622     54621     54625     54626     54623     54621     54625     54626
     54624     54621     54625     54626     54628     54627     54631     54632
     54629     54627     54631     54632     54630     54627     54631     54632
     54634     54633     54637     54638     54635     54633     54637     54638
     54636     54633     54637     54638     54640     54639     54643     54644
     54641     54639     54643     54644     54642     54639     54643     54644
     54646     54645     54649     54650     54647     54645     54649     54650
     54648     54645     54649     54650     54652     54651     54655     54656
     54653     54651     54655     54656     54654     54651     54655     54656
     54658     54657     54661     54662     54659     54657     54661     54662
     54660     54657     54661     54662     54664     54663     54667     54668
     54665     54663     54667     54668     54666     54663     54667     54668
     54670     54669     54673     54674     54671     54669     54673     54674
     54672     54669     54673     54674     54676     54675     54679     54680
     54677     54675     54679     54680     54678     54675     54679     54680
     54682     54681     54685     54686     54683     54681     54685     54686
     54684     54681     54685     54686     54688     54687     54691     54692
     54689     54687     54691     54692     54690     54687     54691     54692
     54694     54693     54697     54698     54695     54693     54697     54698
     54696     54693     54697     54698     54700     54699     54703     54704
     54701     54699     54703     54704     54702     54699     54703     54704
     54706     54705     54709     54710     54707     54705     54709     54710
     54708     54705     54709     54710     54712     54711     54715     54716
     54713     54711     54715     54716     54714     54711     54715     54716
     54718     54717     54721     54722     54719     54717     54721     54722
     54720     54717     54721     54722     54724     54723     54727     54728
     54725     54723     54727     54728     54726     54723     54727     54728
     54730     54729     54733     54734     54731     54729     54733     54734
     54732     54729     54733     54734     54736     54735     54739     54740
     54737     54735     54739     54740     54738     54735     54739     54740
     54742     54741     54745     54746     54743     54741     54745     54746
     54744     54741     54745     54746     54748     54747     54751     54752
     54749     54747     54751     54752     54750     54747     54751     54752
     54754     54753     54757     54758     54755     54753     54757     54758
     54756     54753     54757     54758     54760     54759     54763     54764
     54761     54759     54763     54764     54762     54759     54763     54764
     54766     54765     54769     54770     54767     54765     54769     54770
     54768     54765     54769     54770     54772     54771     54775     54776
     54773     54771     54775     54776     54774     54771     54775     54776
     54778     54777     54781     54782     54779     54777     54781     54782
     54780     54777     54781     54782     54784     54783     54787     54788
     54785     54783     54787     54788     54786     54783     54787     54788
     54790     54789     54793     54794     54791     54789     54793     54794
     54792     54789     54793     54794     54796     54795     54799     54800
     54797     54795     54799     54800     54798     54795     54799     54800
     54802     54801     54805     54806     54803     54801     54805     54806
     54804     54801     54805     54806     54808     54807     54811     54812
     54809     54807     54811     54812     54810     54807     54811     54812
     54814     54813     54817     54818     54815     54813     54817     54818
     54816     54813     54817     54818     54820     54819     54823     54824
     54821     54819     54823     54824     54822     54819     54823     54824
     54826     54825     54829     54830     54827     54825     54829     54830
     54828     54825     54829     54830     54832     54831     54835     54836
     54833     54831     54835     54836     54834     54831     54835     54836
     54838     54837     54841     54842     54839     54837     54841     54842
     54840     54837     54841     54842     54844     54843     54847     54848
     54845     54843     54847     54848     54846     54843     54847     54848
     54850     54849     54853     54854     54851     54849     54853     54854
     54852     54849     54853     54854     54856     54855     54859     54860
     54857     54855     54859     54860     54858     54855     54859     54860
     54862     54861     54865     54866     54863     54861     54865     54866
     54864     54861     54865     54866     54868     54867     54871     54872
     54869     54867     54871     54872     54870     54867     54871     54872
     54874     54873     54877     54878     54875     54873     54877     54878
     54876     54873     54877     54878     54880     54879     54883     54884
     54881     54879     54883     54884     54882     54879     54883     54884
     54886     54885     54889     54890     54887     54885     54889     54890
     54888     54885     54889     54890     54892     54891     54895     54896
     54893     54891     54895     54896     54894     54891     54895     54896
     54898     54897     54901     54902     54899     54897     54901     54902
     54900     54897     54901     54902     54904     54903     54907     54908
     54905     54903     54907     54908     54906     54903     54907     54908
     54910     54909     54913     54914     54911     54909     54913     54914
     54912     54909     54913     54914     54916     54915     54919     54920
     54917     54915     54919     54920     54918     54915     54919     54920
     54922     54921     54925     54926     54923     54921     54925     54926
     54924     54921     54925     54926     54928     54927     54931     54932
     54929     54927     54931     54932     54930     54927     54931     54932
     54934     54933     54937     54938     54935     54933     54937     54938
     54936     54933     54937     54938     54940     54939     54943     54944
     54941     54939     54943     54944     54942     54939     54943     54944
     54946     54945     54949     54950     54947     54945     54949     54950
     54948     54945     54949     54950     54952     54951     54955     54956
     54953     54951     54955     54956     54954     54951     54955     54956
     54958     54957     54961     54962     54959     54957     54961     54962
     54960     54957     54961     54962     54964     54963     54967     54968
     54965     54963     54967     54968     54966     54963     54967     54968
     54970     54969     54973     54974     54971     54969     54973     54974
     54972     54969     54973     54974     54976     54975     54979     54980
     54977     54975     54979     54980     54978     54975     54979     54980
     54982     54981     54985     54986     54983     54981     54985     54986
     54984     54981     54985     54986     54988     54987     54991     54992
     54989     54987     54991     54992     54990     54987     54991     54992
     54994     54993     54997     54998     54995     54993     54997     54998
     54996     54993     54997     54998     55000     54999     55003     55004
     55001     54999     55003     55004     55002     54999     55003     55004
     55006     55005     55009     55010     55007     55005     55009     55010
     55008     55005     55009     55010     55012     55011     55015     55016
     55013     55011     55015     55016     55014     55011     55015     55016
     55018     55017     55021     55022     55019     55017     55021     55022
     55020     55017     55021     55022     55024     55023     55027     55028
     55025     55023     55027     55028     55026     55023     55027     55028
     55030     55029     55033     55034     55031     55029     55033     55034
     55032     55029     55033     55034     55036     55035     55039     55040
     55037     55035     55039     55040     55038     55035     55039     55040
     55042     55041     55045     55046     55043     55041     55045     55046
     55044     55041     55045     55046     55048     55047     55051     55052
     55049     55047     55051     55052     55050     55047     55051     55052
     55054     55053     55057     55058     55055     55053     55057     55058
     55056     55053     55057     55058     55060     55059     55063     55064
     55061     55059     55063     55064     55062     55059     55063     55064
     55066     55065     55069     55070     55067     55065     55069     55070
     55068     55065     55069     55070     55072     55071     55075     55076
     55073     55071     55075     55076     55074     55071     55075     55076
     55078     55077     55081     55082     55079     55077     55081     55082
     55080     55077     55081     55082     55084     55083     55087     55088
     55085     55083     55087     55088     55086     55083     55087     55088
     55090     55089     55093     55094     55091     55089     55093     55094
     55092     55089     55093     55094     55096     55095     55099     55100
     55097     55095     55099     55100     55098     55095     55099     55100
     55102     55101     55105     55106     55103     55101     55105     55106
     55104     55101     55105     55106     55108     55107     55111     55112
     55109     55107     55111     55112     55110     55107     55111     55112
     55114     55113     55117     55118     55115     55113     55117     55118
     55116     55113     55117     55118     55120     55119     55123     55124
     55121     55119     55123     55124     55122     55119     55123     55124
     55126     55125     55129     55130     55127     55125     55129     55130
     55128     55125     55129     55130     55132     55131     55135     55136
     55133     55131     55135     55136     55134     55131     55135     55136
     55138     55137     55141     55142     55139     55137     55141     55142
     55140     55137     55141     55142     55144     55143     55147     55148
     55145     55143     55147     55148     55146     55143     55147     55148
     55150     55149     55153     55154     55151     55149     55153     55154
     55152     55149     55153     55154     55156     55155     55159     55160
     55157     55155     55159     55160     55158     55155     55159     55160
     55162     55161     55165     55166     55163     55161     55165     55166
     55164     55161     55165     55166     55168     55167     55171     55172
     55169     55167     55171     55172     55170     55167     55171     55172
     55174     55173     55177     55178     55175     55173     55177     55178
     55176     55173     55177     55178     55180     55179     55183     55184
     55181     55179     55183     55184     55182     55179     55183     55184
     55186     55185     55189     55190     55187     55185     55189     55190
     55188     55185     55189     55190     55192     55191     55195     55196
     55193     55191     55195     55196     55194     55191     55195     55196
     55198     55197     55201     55202     55199     55197     55201     55202
     55200     55197     55201     55202     55204     55203     55207     55208
     55205     55203     55207     55208     55206     55203     55207     55208
     55210     55209     55213     55214     55211     55209     55213     55214
     55212     55209     55213     55214     55216     55215     55219     55220
     55217     55215     55219     55220     55218     55215     55219     55220
     55222     55221     55225     55226     55223     55221     55225     55226
     55224     55221     55225     55226     55228     55227     55231     55232
     55229     55227     55231     55232     55230     55227     55231     55232
     55234     55233     55237     55238     55235     55233     55237     55238
     55236     55233     55237     55238     55240     55239     55243     55244
     55241     55239     55243     55244     55242     55239     55243     55244
     55246     55245     55249     55250     55247     55245     55249     55250
     55248     55245     55249     55250     55252     55251     55255     55256
     55253     55251     55255     55256     55254     55251     55255     55256
     55258     55257     55261     55262     55259     55257     55261     55262
     55260     55257     55261     55262     55264     55263     55267     55268
     55265     55263     55267     55268     55266     55263     55267     55268
     55270     55269     55273     55274     55271     55269     55273     55274
     55272     55269     55273     55274     55276     55275     55279     55280
     55277     55275     55279     55280     55278     55275     55279     55280
     55282     55281     55285     55286     55283     55281     55285     55286
     55284     55281     55285     55286     55288     55287     55291     55292
     55289     55287     55291     55292     55290     55287     55291     55292
     55294     55293     55297     55298     55295     55293     55297     55298
     55296     55293     55297     55298     55300     55299     55303     55304
     55301     55299     55303     55304     55302     55299     55303     55304
     55306     55305     55309     55310     55307     55305     55309     55310
     55308     55305     55309     55310     55312     55311     55315     55316
     55313     55311     55315     55316     55314     55311     55315     55316
     55318     55317     55321     55322     55319     55317     55321     55322
     55320     55317     55321     55322     55324     55323     55327     55328
     55325     55323     55327     55328     55326     55323     55327     55328
     55330     55329     55333     55334     55331     55329     55333     55334
     55332     55329     55333     55334     55336     55335     55339     55340
     55337     55335     55339     55340     55338     55335     55339     55340
     55342     55341     55345     55346     55343     55341     55345     55346
     55344     55341     55345     55346     55348     55347     55351     55352
     55349     55347     55351     55352     55350     55347     55351     55352
     55354     55353     55357     55358     55355     55353     55357     55358
     55356     55353     55357     55358     55360     55359     55363     55364
     55361     55359     55363     55364     55362     55359     55363     55364
     55366     55365     55369     55370     55367     55365     55369     55370
     55368     55365     55369     55370     55372     55371     55375     55376
     55373     55371     55375     55376     55374     55371     55375     55376
     55378     55377     55381     55382     55379     55377     55381     55382
     55380     55377     55381     55382     55384     55383     55387     55388
     55385     55383     55387     55388     55386     55383     55387     55388
     55390     55389     55393     55394     55391     55389     55393     55394
     55392     55389     55393     55394     55396     55395     55399     55400
     55397     55395     55399     55400     55398     55395     55399     55400
     55402     55401     55405     55406     55403     55401     55405     55406
     55404     55401     55405     55406     55408     55407     55411     55412
     55409     55407     55411     55412     55410     55407     55411     55412
     55414     55413     55417     55418     55415     55413     55417     55418
     55416     55413     55417     55418     55420     55419     55423     55424
     55421     55419     55423     55424     55422     55419     55423     55424
     55426     55425     55429     55430     55427     55425     55429     55430
     55428     55425     55429     55430     55432     55431     55435     55436
     55433     55431     55435     55436     55434     55431     55435     55436
     55438     55437     55441     55442     55439     55437     55441     55442
     55440     55437     55441     55442     55444     55443     55447     55448
     55445     55443     55447     55448     55446     55443     55447     55448
     55450     55449     55453     55454     55451     55449     55453     55454
     55452     55449     55453     55454     55456     55455     55459     55460
     55457     55455     55459     55460     55458     55455     55459     55460
     55462     55461     55465     55466     55463     55461     55465     55466
     55464     55461     55465     55466     55468     55467     55471     55472
     55469     55467     55471     55472     55470     55467     55471     55472
     55474     55473     55477     55478     55475     55473     55477     55478
     55476     55473     55477     55478     55480     55479     55483     55484
     55481     55479     55483     55484     55482     55479     55483     55484
     55486     55485     55489     55490     55487     55485     55489     55490
     55488     55485     55489     55490     55492     55491     55495     55496
     55493     55491     55495     55496     55494     55491     55495     55496
     55498     55497     55501     55502     55499     55497     55501     55502
     55500     55497     55501     55502     55504     55503     55507     55508
     55505     55503     55507     55508     55506     55503     55507     55508
     55510     55509     55513     55514     55511     55509     55513     55514
     55512     55509     55513     55514     55516     55515     55519     55520
     55517     55515     55519     55520     55518     55515     55519     55520
     55522     55521     55525     55526     55523     55521     55525     55526
     55524     55521     55525     55526     55528     55527     55531     55532
     55529     55527     55531     55532     55530     55527     55531     55532
     55534     55533     55537     55538     55535     55533     55537     55538
     55536     55533     55537     55538     55540     55539     55543     55544
     55541     55539     55543     55544     55542     55539     55543     55544
     55546     55545     55549     55550     55547     55545     55549     55550
     55548     55545     55549     55550     55552     55551     55555     55556
     55553     55551     55555     55556     55554     55551     55555     55556
     55558     55557     55561     55562     55559     55557     55561     55562
     55560     55557     55561     55562     55564     55563     55567     55568
     55565     55563     55567     55568     55566     55563     55567     55568
     55570     55569     55573     55574     55571     55569     55573     55574
     55572     55569     55573     55574     55576     55575     55579     55580
     55577     55575     55579     55580     55578     55575     55579     55580
     55582     55581     55585     55586     55583     55581     55585     55586
     55584     55581     55585     55586     55588     55587     55591     55592
     55589     55587     55591     55592     55590     55587     55591     55592
     55594     55593     55597     55598     55595     55593     55597     55598
     55596     55593     55597     55598     55600     55599     55603     55604
     55601     55599     55603     55604     55602     55599     55603     55604
     55606     55605     55609     55610     55607     55605     55609     55610
     55608     55605     55609     55610     55612     55611     55615     55616
     55613     55611     55615     55616     55614     55611     55615     55616
     55618     55617     55621     55622     55619     55617     55621     55622
     55620     55617     55621     55622     55624     55623     55627     55628
     55625     55623     55627     55628     55626     55623     55627     55628
     55630     55629     55633     55634     55631     55629     55633     55634
     55632     55629     55633     55634     55636     55635     55639     55640
     55637     55635     55639     55640     55638     55635     55639     55640
     55642     55641     55645     55646     55643     55641     55645     55646
     55644     55641     55645     55646     55648     55647     55651     55652
     55649     55647     55651     55652     55650     55647     55651     55652
     55654     55653     55657     55658     55655     55653     55657     55658
     55656     55653     55657     55658     55660     55659     55663     55664
     55661     55659     55663     55664     55662     55659     55663     55664
     55666     55665     55669     55670     55667     55665     55669     55670
     55668     55665     55669     55670     55672     55671     55675     55676
     55673     55671     55675     55676     55674     55671     55675     55676
     55678     55677     55681     55682     55679     55677     55681     55682
     55680     55677     55681     55682     55684     55683     55687     55688
     55685     55683     55687     55688     55686     55683     55687     55688
     55690     55689     55693     55694     55691     55689     55693     55694
     55692     55689     55693     55694     55696     55695     55699     55700
     55697     55695     55699     55700     55698     55695     55699     55700
     55702     55701     55705     55706     55703     55701     55705     55706
     55704     55701     55705     55706     55708     55707     55711     55712
     55709     55707     55711     55712     55710     55707     55711     55712
     55714     55713     55717     55718     55715     55713     55717     55718
     55716     55713     55717     55718     55720     55719     55723     55724
     55721     55719     55723     55724     55722     55719     55723     55724
     55726     55725     55729     55730     55727     55725     55729     55730
     55728     55725     55729     55730     55732     55731     55735     55736
     55733     55731     55735     55736     55734     55731     55735     55736
     55738     55737     55741     55742     55739     55737     55741     55742
     55740     55737     55741     55742     55744     55743     55747     55748
     55745     55743     55747     55748     55746     55743     55747     55748
     55750     55749     55753     55754     55751     55749     55753     55754
     55752     55749     55753     55754     55756     55755     55759     55760
     55757     55755     55759     55760     55758     55755     55759     55760
     55762     55761     55765     55766     55763     55761     55765     55766
     55764     55761     55765     55766     55768     55767     55771     55772
     55769     55767     55771     55772     55770     55767     55771     55772
     55774     55773     55777     55778     55775     55773     55777     55778
     55776     55773     55777     55778     55780     55779     55783     55784
     55781     55779     55783     55784     55782     55779     55783     55784
     55786     55785     55789     55790     55787     55785     55789     55790
     55788     55785     55789     55790     55792     55791     55795     55796
     55793     55791     55795     55796     55794     55791     55795     55796
     55798     55797     55801     55802     55799     55797     55801     55802
     55800     55797     55801     55802     55804     55803     55807     55808
     55805     55803     55807     55808     55806     55803     55807     55808
     55810     55809     55813     55814     55811     55809     55813     55814
     55812     55809     55813     55814     55816     55815     55819     55820
     55817     55815     55819     55820     55818     55815     55819     55820
     55822     55821     55825     55826     55823     55821     55825     55826
     55824     55821     55825     55826     55828     55827     55831     55832
     55829     55827     55831     55832     55830     55827     55831     55832
     55834     55833     55837     55838     55835     55833     55837     55838
     55836     55833     55837     55838     55840     55839     55843     55844
     55841     55839     55843     55844     55842     55839     55843     55844
     55846     55845     55849     55850     55847     55845     55849     55850
     55848     55845     55849     55850     55852     55851     55855     55856
     55853     55851     55855     55856     55854     55851     55855     55856
     55858     55857     55861     55862     55859     55857     55861     55862
     55860     55857     55861     55862     55864     55863     55867     55868
     55865     55863     55867     55868     55866     55863     55867     55868
     55870     55869     55873     55874     55871     55869     55873     55874
     55872     55869     55873     55874     55876     55875     55879     55880
     55877     55875     55879     55880     55878     55875     55879     55880
     55882     55881     55885     55886     55883     55881     55885     55886
     55884     55881     55885     55886     55888     55887     55891     55892
     55889     55887     55891     55892     55890     55887     55891     55892
     55894     55893     55897     55898     55895     55893     55897     55898
     55896     55893     55897     55898     55900     55899     55903     55904
     55901     55899     55903     55904     55902     55899     55903     55904
     55906     55905     55909     55910     55907     55905     55909     55910
     55908     55905     55909     55910     55912     55911     55915     55916
     55913     55911     55915     55916     55914     55911     55915     55916
     55918     55917     55921     55922     55919     55917     55921     55922
     55920     55917     55921     55922     55924     55923     55927     55928
     55925     55923     55927     55928     55926     55923     55927     55928
     55930     55929     55933     55934     55931     55929     55933     55934
     55932     55929     55933     55934     55936     55935     55939     55940
     55937     55935     55939     55940     55938     55935     55939     55940
     55942     55941     55945     55946     55943     55941     55945     55946
     55944     55941     55945     55946     55948     55947     55951     55952
     55949     55947     55951     55952     55950     55947     55951     55952
     55954     55953     55957     55958     55955     55953     55957     55958
     55956     55953     55957     55958     55960     55959     55963     55964
     55961     55959     55963     55964     55962     55959     55963     55964
     55966     55965     55969     55970     55967     55965     55969     55970
     55968     55965     55969     55970     55972     55971     55975     55976
     55973     55971     55975     55976     55974     55971     55975     55976
     55978     55977     55981     55982     55979     55977     55981     55982
     55980     55977     55981     55982     55984     55983     55987     55988
     55985     55983     55987     55988     55986     55983     55987     55988
     55990     55989     55993     55994     55991     55989     55993     55994
     55992     55989     55993     55994     55996     55995     55999     56000
     55997     55995     55999     56000     55998     55995     55999     56000
     56002     56001     56005     56006     56003     56001     56005     56006
     56004     56001     56005     56006     56008     56007     56011     56012
     56009     56007     56011     56012     56010     56007     56011     56012
     56014     56013     56017     56018     56015     56013     56017     56018
     56016     56013     56017     56018     56020     56019     56023     56024
     56021     56019     56023     56024     56022     56019     56023     56024
     56026     56025     56029     56030     56027     56025     56029     56030
     56028     56025     56029     56030     56032     56031     56035     56036
     56033     56031     56035     56036     56034     56031     56035     56036
     56038     56037     56041     56042     56039     56037     56041     56042
     56040     56037     56041     56042     56044     56043     56047     56048
     56045     56043     56047     56048     56046     56043     56047     56048
     56050     56049     56053     56054     56051     56049     56053     56054
     56052     56049     56053     56054     56056     56055     56059     56060
     56057     56055     56059     56060     56058     56055     56059     56060
     56062     56061     56065     56066     56063     56061     56065     56066
     56064     56061     56065     56066     56068     56067     56071     56072
     56069     56067     56071     56072     56070     56067     56071     56072
     56074     56073     56077     56078     56075     56073     56077     56078
     56076     56073     56077     56078     56080     56079     56083     56084
     56081     56079     56083     56084     56082     56079     56083     56084
     56086     56085     56089     56090     56087     56085     56089     56090
     56088     56085     56089     56090     56092     56091     56095     56096
     56093     56091     56095     56096     56094     56091     56095     56096
     56098     56097     56101     56102     56099     56097     56101     56102
     56100     56097     56101     56102     56104     56103     56107     56108
     56105     56103     56107     56108     56106     56103     56107     56108
     56110     56109     56113     56114     56111     56109     56113     56114
     56112     56109     56113     56114     56116     56115     56119     56120
     56117     56115     56119     56120     56118     56115     56119     56120
     56122     56121     56125     56126     56123     56121     56125     56126
     56124     56121     56125     56126     56128     56127     56131     56132
     56129     56127     56131     56132     56130     56127     56131     56132
     56134     56133     56137     56138     56135     56133     56137     56138
     56136     56133     56137     56138     56140     56139     56143     56144
     56141     56139     56143     56144     56142     56139     56143     56144
     56146     56145     56149     56150     56147     56145     56149     56150
     56148     56145     56149     56150     56152     56151     56155     56156
     56153     56151     56155     56156     56154     56151     56155     56156
     56158     56157     56161     56162     56159     56157     56161     56162
     56160     56157     56161     56162     56164     56163     56167     56168
     56165     56163     56167     56168     56166     56163     56167     56168
     56170     56169     56173     56174     56171     56169     56173     56174
     56172     56169     56173     56174     56176     56175     56179     56180
     56177     56175     56179     56180     56178     56175     56179     56180
     56182     56181     56185     56186     56183     56181     56185     56186
     56184     56181     56185     56186     56188     56187     56191     56192
     56189     56187     56191     56192     56190     56187     56191     56192
     56194     56193     56197     56198     56195     56193     56197     56198
     56196     56193     56197     56198     56200     56199     56203     56204
     56201     56199     56203     56204     56202     56199     56203     56204
     56206     56205     56209     56210     56207     56205     56209     56210
     56208     56205     56209     56210     56212     56211     56215     56216
     56213     56211     56215     56216     56214     56211     56215     56216
     56218     56217     56221     56222     56219     56217     56221     56222
     56220     56217     56221     56222     56224     56223     56227     56228
     56225     56223     56227     56228     56226     56223     56227     56228
     56230     56229     56233     56234     56231     56229     56233     56234
     56232     56229     56233     56234     56236     56235     56239     56240
     56237     56235     56239     56240     56238     56235     56239     56240
     56242     56241     56245     56246     56243     56241     56245     56246
     56244     56241     56245     56246     56248     56247     56251     56252
     56249     56247     56251     56252     56250     56247     56251     56252
     56254     56253     56257     56258     56255     56253     56257     56258
     56256     56253     56257     56258     56260     56259     56263     56264
     56261     56259     56263     56264     56262     56259     56263     56264
     56266     56265     56269     56270     56267     56265     56269     56270
     56268     56265     56269     56270     56272     56271     56275     56276
     56273     56271     56275     56276     56274     56271     56275     56276
     56278     56277     56281     56282     56279     56277     56281     56282
     56280     56277     56281     56282     56284     56283     56287     56288
     56285     56283     56287     56288     56286     56283     56287     56288
     56290     56289     56293     56294     56291     56289     56293     56294
     56292     56289     56293     56294     56296     56295     56299     56300
     56297     56295     56299     56300     56298     56295     56299     56300
     56302     56301     56305     56306     56303     56301     56305     56306
     56304     56301     56305     56306     56308     56307     56311     56312
     56309     56307     56311     56312     56310     56307     56311     56312
     56314     56313     56317     56318     56315     56313     56317     56318
     56316     56313     56317     56318     56320     56319     56323     56324
     56321     56319     56323     56324     56322     56319     56323     56324
     56326     56325     56329     56330     56327     56325     56329     56330
     56328     56325     56329     56330     56332     56331     56335     56336
     56333     56331     56335     56336     56334     56331     56335     56336
     56338     56337     56341     56342     56339     56337     56341     56342
     56340     56337     56341     56342     56344     56343     56347     56348
     56345     56343     56347     56348     56346     56343     56347     56348
     56350     56349     56353     56354     56351     56349     56353     56354
     56352     56349     56353     56354     56356     56355     56359     56360
     56357     56355     56359     56360     56358     56355     56359     56360
     56362     56361     56365     56366     56363     56361     56365     56366
     56364     56361     56365     56366     56368     56367     56371     56372
     56369     56367     56371     56372     56370     56367     56371     56372
     56374     56373     56377     56378     56375     56373     56377     56378
     56376     56373     56377     56378     56380     56379     56383     56384
     56381     56379     56383     56384     56382     56379     56383     56384
     56386     56385     56389     56390     56387     56385     56389     56390
     56388     56385     56389     56390     56392     56391     56395     56396
     56393     56391     56395     56396     56394     56391     56395     56396
     56398     56397     56401     56402     56399     56397     56401     56402
     56400     56397     56401     56402     56404     56403     56407     56408
     56405     56403     56407     56408     56406     56403     56407     56408
     56410     56409     56413     56414     56411     56409     56413     56414
     56412     56409     56413     56414     56416     56415     56419     56420
     56417     56415     56419     56420     56418     56415     56419     56420
     56422     56421     56425     56426     56423     56421     56425     56426
     56424     56421     56425     56426     56428     56427     56431     56432
     56429     56427     56431     56432     56430     56427     56431     56432
     56434     56433     56437     56438     56435     56433     56437     56438
     56436     56433     56437     56438     56440     56439     56443     56444
     56441     56439     56443     56444     56442     56439     56443     56444
     56446     56445     56449     56450     56447     56445     56449     56450
     56448     56445     56449     56450     56452     56451     56455     56456
     56453     56451     56455     56456     56454     56451     56455     56456
     56458     56457     56461     56462     56459     56457     56461     56462
     56460     56457     56461     56462     56464     56463     56467     56468
     56465     56463     56467     56468     56466     56463     56467     56468
     56470     56469     56473     56474     56471     56469     56473     56474
     56472     56469     56473     56474     56476     56475     56479     56480
     56477     56475     56479     56480     56478     56475     56479     56480
     56482     56481     56485     56486     56483     56481     56485     56486
     56484     56481     56485     56486     56488     56487     56491     56492
     56489     56487     56491     56492     56490     56487     56491     56492
     56494     56493     56497     56498     56495     56493     56497     56498
     56496     56493     56497     56498     56500     56499     56503     56504
     56501     56499     56503     56504     56502     56499     56503     56504
     56506     56505     56509     56510     56507     56505     56509     56510
     56508     56505     56509     56510     56512     56511     56515     56516
     56513     56511     56515     56516     56514     56511     56515     56516
     56518     56517     56521     56522     56519     56517     56521     56522
     56520     56517     56521     56522     56524     56523     56527     56528
     56525     56523     56527     56528     56526     56523     56527     56528
     56530     56529     56533     56534     56531     56529     56533     56534
     56532     56529     56533     56534     56536     56535     56539     56540
     56537     56535     56539     56540     56538     56535     56539     56540
     56542     56541     56545     56546     56543     56541     56545     56546
     56544     56541     56545     56546     56548     56547     56551     56552
     56549     56547     56551     56552     56550     56547     56551     56552
     56554     56553     56557     56558     56555     56553     56557     56558
     56556     56553     56557     56558     56560     56559     56563     56564
     56561     56559     56563     56564     56562     56559     56563     56564
     56566     56565     56569     56570     56567     56565     56569     56570
     56568     56565     56569     56570     56572     56571     56575     56576
     56573     56571     56575     56576     56574     56571     56575     56576
     56578     56577     56581     56582     56579     56577     56581     56582
     56580     56577     56581     56582     56584     56583     56587     56588
     56585     56583     56587     56588     56586     56583     56587     56588
     56590     56589     56593     56594     56591     56589     56593     56594
     56592     56589     56593     56594     56596     56595     56599     56600
     56597     56595     56599     56600     56598     56595     56599     56600
     56602     56601     56605     56606     56603     56601     56605     56606
     56604     56601     56605     56606     56608     56607     56611     56612
     56609     56607     56611     56612     56610     56607     56611     56612
     56614     56613     56617     56618     56615     56613     56617     56618
     56616     56613     56617     56618     56620     56619     56623     56624
     56621     56619     56623     56624     56622     56619     56623     56624
     56626     56625     56629     56630     56627     56625     56629     56630
     56628     56625     56629     56630     56632     56631     56635     56636
     56633     56631     56635     56636     56634     56631     56635     56636
     56638     56637     56641     56642     56639     56637     56641     56642
     56640     56637     56641     56642     56644     56643     56647     56648
     56645     56643     56647     56648     56646     56643     56647     56648
     56650     56649     56653     56654     56651     56649     56653     56654
     56652     56649     56653     56654     56656     56655     56659     56660
     56657     56655     56659     56660     56658     56655     56659     56660
     56662     56661     56665     56666     56663     56661     56665     56666
     56664     56661     56665     56666     56668     56667     56671     56672
     56669     56667     56671     56672     56670     56667     56671     56672
     56674     56673     56677     56678     56675     56673     56677     56678
     56676     56673     56677     56678     56680     56679     56683     56684
     56681     56679     56683     56684     56682     56679     56683     56684
     56686     56685     56689     56690     56687     56685     56689     56690
     56688     56685     56689     56690     56692     56691     56695     56696
     56693     56691     56695     56696     56694     56691     56695     56696
     56698     56697     56701     56702     56699     56697     56701     56702
     56700     56697     56701     56702     56704     56703     56707     56708
     56705     56703     56707     56708     56706     56703     56707     56708
     56710     56709     56713     56714     56711     56709     56713     56714
     56712     56709     56713     56714     56716     56715     56719     56720
     56717     56715     56719     56720     56718     56715     56719     56720
     56722     56721     56725     56726     56723     56721     56725     56726
     56724     56721     56725     56726     56728     56727     56731     56732
     56729     56727     56731     56732     56730     56727     56731     56732
     56734     56733     56737     56738     56735     56733     56737     56738
     56736     56733     56737     56738     56740     56739     56743     56744
     56741     56739     56743     56744     56742     56739     56743     56744
     56746     56745     56749     56750     56747     56745     56749     56750
     56748     56745     56749     56750     56752     56751     56755     56756
     56753     56751     56755     56756     56754     56751     56755     56756
     56758     56757     56761     56762     56759     56757     56761     56762
     56760     56757     56761     56762     56764     56763     56767     56768
     56765     56763     56767     56768     56766     56763     56767     56768
     56770     56769     56773     56774     56771     56769     56773     56774
     56772     56769     56773     56774     56776     56775     56779     56780
     56777     56775     56779     56780     56778     56775     56779     56780
     56782     56781     56785     56786     56783     56781     56785     56786
     56784     56781     56785     56786     56788     56787     56791     56792
     56789     56787     56791     56792     56790     56787     56791     56792
     56794     56793     56797     56798     56795     56793     56797     56798
     56796     56793     56797     56798     56800     56799     56803     56804
     56801     56799     56803     56804     56802     56799     56803     56804
     56806     56805     56809     56810     56807     56805     56809     56810
     56808     56805     56809     56810     56812     56811     56815     56816
     56813     56811     56815     56816     56814     56811     56815     56816
     56818     56817     56821     56822     56819     56817     56821     56822
     56820     56817     56821     56822     56824     56823     56827     56828
     56825     56823     56827     56828     56826     56823     56827     56828
     56830     56829     56833     56834     56831     56829     56833     56834
     56832     56829     56833     56834     56836     56835     56839     56840
     56837     56835     56839     56840     56838     56835     56839     56840
     56842     56841     56845     56846     56843     56841     56845     56846
     56844     56841     56845     56846     56848     56847     56851     56852
     56849     56847     56851     56852     56850     56847     56851     56852
     56854     56853     56857     56858     56855     56853     56857     56858
     56856     56853     56857     56858     56860     56859     56863     56864
     56861     56859     56863     56864     56862     56859     56863     56864
     56866     56865     56869     56870     56867     56865     56869     56870
     56868     56865     56869     56870     56872     56871     56875     56876
     56873     56871     56875     56876     56874     56871     56875     56876
     56878     56877     56881     56882     56879     56877     56881     56882
     56880     56877     56881     56882     56884     56883     56887     56888
     56885     56883     56887     56888     56886     56883     56887     56888
     56890     56889     56893     56894     56891     56889     56893     56894
     56892     56889     56893     56894     56896     56895     56899     56900
     56897     56895     56899     56900     56898     56895     56899     56900
     56902     56901     56905     56906     56903     56901     56905     56906
     56904     56901     56905     56906     56908     56907     56911     56912
     56909     56907     56911     56912     56910     56907     56911     56912
     56914     56913     56917     56918     56915     56913     56917     56918
     56916     56913     56917     56918     56920     56919     56923     56924
     56921     56919     56923     56924     56922     56919     56923     56924
     56926     56925     56929     56930     56927     56925     56929     56930
     56928     56925     56929     56930     56932     56931     56935     56936
     56933     56931     56935     56936     56934     56931     56935     56936
     56938     56937     56941     56942     56939     56937     56941     56942
     56940     56937     56941     56942     56944     56943     56947     56948
     56945     56943     56947     56948     56946     56943     56947     56948
     56950     56949     56953     56954     56951     56949     56953     56954
     56952     56949     56953     56954     56956     56955     56959     56960
     56957     56955     56959     56960     56958     56955     56959     56960
     56962     56961     56965     56966     56963     56961     56965     56966
     56964     56961     56965     56966     56968     56967     56971     56972
     56969     56967     56971     56972     56970     56967     56971     56972
     56974     56973     56977     56978     56975     56973     56977     56978
     56976     56973     56977     56978     56980     56979     56983     56984
     56981     56979     56983     56984     56982     56979     56983     56984
     56986     56985     56989     56990     56987     56985     56989     56990
     56988     56985     56989     56990     56992     56991     56995     56996
     56993     56991     56995     56996     56994     56991     56995     56996
     56998     56997     57001     57002     56999     56997     57001     57002
     57000     56997     57001     57002     57004     57003     57007     57008
     57005     57003     57007     57008     57006     57003     57007     57008
     57010     57009     57013     57014     57011     57009     57013     57014
     57012     57009     57013     57014     57016     57015     57019     57020
     57017     57015     57019     57020     57018     57015     57019     57020
     57022     57021     57025     57026     57023     57021     57025     57026
     57024     57021     57025     57026     57028     57027     57031     57032
     57029     57027     57031     57032     57030     57027     57031     57032
     57034     57033     57037     57038     57035     57033     57037     57038
     57036     57033     57037     57038     57040     57039     57043     57044
     57041     57039     57043     57044     57042     57039     57043     57044
     57046     57045     57049     57050     57047     57045     57049     57050
     57048     57045     57049     57050     57052     57051     57055     57056
     57053     57051     57055     57056     57054     57051     57055     57056
     57058     57057     57061     57062     57059     57057     57061     57062
     57060     57057     57061     57062     57064     57063     57067     57068
     57065     57063     57067     57068     57066     57063     57067     57068
     57070     57069     57073     57074     57071     57069     57073     57074
     57072     57069     57073     57074     57076     57075     57079     57080
     57077     57075     57079     57080     57078     57075     57079     57080
     57082     57081     57085     57086     57083     57081     57085     57086
     57084     57081     57085     57086     57088     57087     57091     57092
     57089     57087     57091     57092     57090     57087     57091     57092
     57094     57093     57097     57098     57095     57093     57097     57098
     57096     57093     57097     57098     57100     57099     57103     57104
     57101     57099     57103     57104     57102     57099     57103     57104
     57106     57105     57109     57110     57107     57105     57109     57110
     57108     57105     57109     57110     57112     57111     57115     57116
     57113     57111     57115     57116     57114     57111     57115     57116
     57118     57117     57121     57122     57119     57117     57121     57122
     57120     57117     57121     57122     57124     57123     57127     57128
     57125     57123     57127     57128     57126     57123     57127     57128
     57130     57129     57133     57134     57131     57129     57133     57134
     57132     57129     57133     57134     57136     57135     57139     57140
     57137     57135     57139     57140     57138     57135     57139     57140
     57142     57141     57145     57146     57143     57141     57145     57146
     57144     57141     57145     57146     57148     57147     57151     57152
     57149     57147     57151     57152     57150     57147     57151     57152
     57154     57153     57157     57158     57155     57153     57157     57158
     57156     57153     57157     57158     57160     57159     57163     57164
     57161     57159     57163     57164     57162     57159     57163     57164
     57166     57165     57169     57170     57167     57165     57169     57170
     57168     57165     57169     57170     57172     57171     57175     57176
     57173     57171     57175     57176     57174     57171     57175     57176
     57178     57177     57181     57182     57179     57177     57181     57182
     57180     57177     57181     57182     57184     57183     57187     57188
     57185     57183     57187     57188     57186     57183     57187     57188
     57190     57189     57193     57194     57191     57189     57193     57194
     57192     57189     57193     57194     57196     57195     57199     57200
     57197     57195     57199     57200     57198     57195     57199     57200
     57202     57201     57205     57206     57203     57201     57205     57206
     57204     57201     57205     57206     57208     57207     57211     57212
     57209     57207     57211     57212     57210     57207     57211     57212
     57214     57213     57217     57218     57215     57213     57217     57218
     57216     57213     57217     57218     57220     57219     57223     57224
     57221     57219     57223     57224     57222     57219     57223     57224
     57226     57225     57229     57230     57227     57225     57229     57230
     57228     57225     57229     57230     57232     57231     57235     57236
     57233     57231     57235     57236     57234     57231     57235     57236
     57238     57237     57241     57242     57239     57237     57241     57242
     57240     57237     57241     57242     57244     57243     57247     57248
     57245     57243     57247     57248     57246     57243     57247     57248
     57250     57249     57253     57254     57251     57249     57253     57254
     57252     57249     57253     57254     57256     57255     57259     57260
     57257     57255     57259     57260     57258     57255     57259     57260
     57262     57261     57265     57266     57263     57261     57265     57266
     57264     57261     57265     57266     57268     57267     57271     57272
     57269     57267     57271     57272     57270     57267     57271     57272
     57274     57273     57277     57278     57275     57273     57277     57278
     57276     57273     57277     57278     57280     57279     57283     57284
     57281     57279     57283     57284     57282     57279     57283     57284
     57286     57285     57289     57290     57287     57285     57289     57290
     57288     57285     57289     57290     57292     57291     57295     57296
     57293     57291     57295     57296     57294     57291     57295     57296
     57298     57297     57301     57302     57299     57297     57301     57302
     57300     57297     57301     57302     57304     57303     57307     57308
     57305     57303     57307     57308     57306     57303     57307     57308
     57310     57309     57313     57314     57311     57309     57313     57314
     57312     57309     57313     57314     57316     57315     57319     57320
     57317     57315     57319     57320     57318     57315     57319     57320
     57322     57321     57325     57326     57323     57321     57325     57326
     57324     57321     57325     57326     57328     57327     57331     57332
     57329     57327     57331     57332     57330     57327     57331     57332
     57334     57333     57337     57338     57335     57333     57337     57338
     57336     57333     57337     57338     57340     57339     57343     57344
     57341     57339     57343     57344     57342     57339     57343     57344
     57346     57345     57349     57350     57347     57345     57349     57350
     57348     57345     57349     57350     57352     57351     57355     57356
     57353     57351     57355     57356     57354     57351     57355     57356
     57358     57357     57361     57362     57359     57357     57361     57362
     57360     57357     57361     57362     57364     57363     57367     57368
     57365     57363     57367     57368     57366     57363     57367     57368
     57370     57369     57373     57374     57371     57369     57373     57374
     57372     57369     57373     57374     57376     57375     57379     57380
     57377     57375     57379     57380     57378     57375     57379     57380
     57382     57381     57385     57386     57383     57381     57385     57386
     57384     57381     57385     57386     57388     57387     57391     57392
     57389     57387     57391     57392     57390     57387     57391     57392
     57394     57393     57397     57398     57395     57393     57397     57398
     57396     57393     57397     57398     57400     57399     57403     57404
     57401     57399     57403     57404     57402     57399     57403     57404
     57406     57405     57409     57410     57407     57405     57409     57410
     57408     57405     57409     57410     57412     57411     57415     57416
     57413     57411     57415     57416     57414     57411     57415     57416
     57418     57417     57421     57422     57419     57417     57421     57422
     57420     57417     57421     57422     57424     57423     57427     57428
     57425     57423     57427     57428     57426     57423     57427     57428
     57430     57429     57433     57434     57431     57429     57433     57434
     57432     57429     57433     57434     57436     57435     57439     57440
     57437     57435     57439     57440     57438     57435     57439     57440
     57442     57441     57445     57446     57443     57441     57445     57446
     57444     57441     57445     57446     57448     57447     57451     57452
     57449     57447     57451     57452     57450     57447     57451     57452
     57454     57453     57457     57458     57455     57453     57457     57458
     57456     57453     57457     57458     57460     57459     57463     57464
     57461     57459     57463     57464     57462     57459     57463     57464
     57466     57465     57469     57470     57467     57465     57469     57470
     57468     57465     57469     57470     57472     57471     57475     57476
     57473     57471     57475     57476     57474     57471     57475     57476
     57478     57477     57481     57482     57479     57477     57481     57482
     57480     57477     57481     57482     57484     57483     57487     57488
     57485     57483     57487     57488     57486     57483     57487     57488
     57490     57489     57493     57494     57491     57489     57493     57494
     57492     57489     57493     57494     57496     57495     57499     57500
     57497     57495     57499     57500     57498     57495     57499     57500
     57502     57501     57505     57506     57503     57501     57505     57506
     57504     57501     57505     57506     57508     57507     57511     57512
     57509     57507     57511     57512     57510     57507     57511     57512
     57514     57513     57517     57518     57515     57513     57517     57518
     57516     57513     57517     57518     57520     57519     57523     57524
     57521     57519     57523     57524     57522     57519     57523     57524
     57526     57525     57529     57530     57527     57525     57529     57530
     57528     57525     57529     57530     57532     57531     57535     57536
     57533     57531     57535     57536     57534     57531     57535     57536
     57538     57537     57541     57542     57539     57537     57541     57542
     57540     57537     57541     57542     57544     57543     57547     57548
     57545     57543     57547     57548     57546     57543     57547     57548
     57550     57549     57553     57554     57551     57549     57553     57554
     57552     57549     57553     57554     57556     57555     57559     57560
     57557     57555     57559     57560     57558     57555     57559     57560
     57562     57561     57565     57566     57563     57561     57565     57566
     57564     57561     57565     57566     57568     57567     57571     57572
     57569     57567     57571     57572     57570     57567     57571     57572
     57574     57573     57577     57578     57575     57573     57577     57578
     57576     57573     57577     57578     57580     57579     57583     57584
     57581     57579     57583     57584     57582     57579     57583     57584
     57586     57585     57589     57590     57587     57585     57589     57590
     57588     57585     57589     57590     57592     57591     57595     57596
     57593     57591     57595     57596     57594     57591     57595     57596
     57598     57597     57601     57602     57599     57597     57601     57602
     57600     57597     57601     57602     57604     57603     57607     57608
     57605     57603     57607     57608     57606     57603     57607     57608
     57610     57609     57613     57614     57611     57609     57613     57614
     57612     57609     57613     57614     57616     57615     57619     57620
     57617     57615     57619     57620     57618     57615     57619     57620
     57622     57621     57625     57626     57623     57621     57625     57626
     57624     57621     57625     57626     57628     57627     57631     57632
     57629     57627     57631     57632     57630     57627     57631     57632
     57634     57633     57637     57638     57635     57633     57637     57638
     57636     57633     57637     57638     57640     57639     57643     57644
     57641     57639     57643     57644     57642     57639     57643     57644
     57646     57645     57649     57650     57647     57645     57649     57650
     57648     57645     57649     57650     57652     57651     57655     57656
     57653     57651     57655     57656     57654     57651     57655     57656
     57658     57657     57661     57662     57659     57657     57661     57662
     57660     57657     57661     57662     57664     57663     57667     57668
     57665     57663     57667     57668     57666     57663     57667     57668
     57670     57669     57673     57674     57671     57669     57673     57674
     57672     57669     57673     57674     57676     57675     57679     57680
     57677     57675     57679     57680     57678     57675     57679     57680
     57682     57681     57685     57686     57683     57681     57685     57686
     57684     57681     57685     57686     57688     57687     57691     57692
     57689     57687     57691     57692     57690     57687     57691     57692
     57694     57693     57697     57698     57695     57693     57697     57698
     57696     57693     57697     57698     57700     57699     57703     57704
     57701     57699     57703     57704     57702     57699     57703     57704
     57706     57705     57709     57710     57707     57705     57709     57710
     57708     57705     57709     57710     57712     57711     57715     57716
     57713     57711     57715     57716     57714     57711     57715     57716
     57718     57717     57721     57722     57719     57717     57721     57722
     57720     57717     57721     57722     57724     57723     57727     57728
     57725     57723     57727     57728     57726     57723     57727     57728
     57730     57729     57733     57734     57731     57729     57733     57734
     57732     57729     57733     57734     57736     57735     57739     57740
     57737     57735     57739     57740     57738     57735     57739     57740
     57742     57741     57745     57746     57743     57741     57745     57746
     57744     57741     57745     57746     57748     57747     57751     57752
     57749     57747     57751     57752     57750     57747     57751     57752
     57754     57753     57757     57758     57755     57753     57757     57758
     57756     57753     57757     57758     57760     57759     57763     57764
     57761     57759     57763     57764     57762     57759     57763     57764
     57766     57765     57769     57770     57767     57765     57769     57770
     57768     57765     57769     57770     57772     57771     57775     57776
     57773     57771     57775     57776     57774     57771     57775     57776
     57778     57777     57781     57782     57779     57777     57781     57782
     57780     57777     57781     57782     57784     57783     57787     57788
     57785     57783     57787     57788     57786     57783     57787     57788
     57790     57789     57793     57794     57791     57789     57793     57794
     57792     57789     57793     57794     57796     57795     57799     57800
     57797     57795     57799     57800     57798     57795     57799     57800
     57802     57801     57805     57806     57803     57801     57805     57806
     57804     57801     57805     57806     57808     57807     57811     57812
     57809     57807     57811     57812     57810     57807     57811     57812
     57814     57813     57817     57818     57815     57813     57817     57818
     57816     57813     57817     57818     57820     57819     57823     57824
     57821     57819     57823     57824     57822     57819     57823     57824
     57826     57825     57829     57830     57827     57825     57829     57830
     57828     57825     57829     57830     57832     57831     57835     57836
     57833     57831     57835     57836     57834     57831     57835     57836
     57838     57837     57841     57842     57839     57837     57841     57842
     57840     57837     57841     57842     57844     57843     57847     57848
     57845     57843     57847     57848     57846     57843     57847     57848
     57850     57849     57853     57854     57851     57849     57853     57854
     57852     57849     57853     57854     57856     57855     57859     57860
     57857     57855     57859     57860     57858     57855     57859     57860
     57862     57861     57865     57866     57863     57861     57865     57866
     57864     57861     57865     57866     57868     57867     57871     57872
     57869     57867     57871     57872     57870     57867     57871     57872
     57874     57873     57877     57878     57875     57873     57877     57878
     57876     57873     57877     57878     57880     57879     57883     57884
     57881     57879     57883     57884     57882     57879     57883     57884
     57886     57885     57889     57890     57887     57885     57889     57890
     57888     57885     57889     57890     57892     57891     57895     57896
     57893     57891     57895     57896     57894     57891     57895     57896
     57898     57897     57901     57902     57899     57897     57901     57902
     57900     57897     57901     57902     57904     57903     57907     57908
     57905     57903     57907     57908     57906     57903     57907     57908
     57910     57909     57913     57914     57911     57909     57913     57914
     57912     57909     57913     57914     57916     57915     57919     57920
     57917     57915     57919     57920     57918     57915     57919     57920
     57922     57921     57925     57926     57923     57921     57925     57926
     57924     57921     57925     57926     57928     57927     57931     57932
     57929     57927     57931     57932     57930     57927     57931     57932
     57934     57933     57937     57938     57935     57933     57937     57938
     57936     57933     57937     57938     57940     57939     57943     57944
     57941     57939     57943     57944     57942     57939     57943     57944
     57946     57945     57949     57950     57947     57945     57949     57950
     57948     57945     57949     57950     57952     57951     57955     57956
     57953     57951     57955     57956     57954     57951     57955     57956
     57958     57957     57961     57962     57959     57957     57961     57962
     57960     57957     57961     57962     57964     57963     57967     57968
     57965     57963     57967     57968     57966     57963     57967     57968
     57970     57969     57973     57974     57971     57969     57973     57974
     57972     57969     57973     57974     57976     57975     57979     57980
     57977     57975     57979     57980     57978     57975     57979     57980
     57982     57981     57985     57986     57983     57981     57985     57986
     57984     57981     57985     57986     57988     57987     57991     57992
     57989     57987     57991     57992     57990     57987     57991     57992
     57994     57993     57997     57998     57995     57993     57997     57998
     57996     57993     57997     57998     58000     57999     58003     58004
     58001     57999     58003     58004     58002     57999     58003     58004
     58006     58005     58009     58010     58007     58005     58009     58010
     58008     58005     58009     58010     58012     58011     58015     58016
     58013     58011     58015     58016     58014     58011     58015     58016
     58018     58017     58021     58022     58019     58017     58021     58022
     58020     58017     58021     58022     58024     58023     58027     58028
     58025     58023     58027     58028     58026     58023     58027     58028
     58030     58029     58033     58034     58031     58029     58033     58034
     58032     58029     58033     58034     58036     58035     58039     58040
     58037     58035     58039     58040     58038     58035     58039     58040
     58042     58041     58045     58046     58043     58041     58045     58046
     58044     58041     58045     58046     58048     58047     58051     58052
     58049     58047     58051     58052     58050     58047     58051     58052
     58054     58053     58057     58058     58055     58053     58057     58058
     58056     58053     58057     58058     58060     58059     58063     58064
     58061     58059     58063     58064     58062     58059     58063     58064
     58066     58065     58069     58070     58067     58065     58069     58070
     58068     58065     58069     58070     58072     58071     58075     58076
     58073     58071     58075     58076     58074     58071     58075     58076
     58078     58077     58081     58082     58079     58077     58081     58082
     58080     58077     58081     58082     58084     58083     58087     58088
     58085     58083     58087     58088     58086     58083     58087     58088
     58090     58089     58093     58094     58091     58089     58093     58094
     58092     58089     58093     58094     58096     58095     58099     58100
     58097     58095     58099     58100     58098     58095     58099     58100
     58102     58101     58105     58106     58103     58101     58105     58106
     58104     58101     58105     58106     58108     58107     58111     58112
     58109     58107     58111     58112     58110     58107     58111     58112
     58114     58113     58117     58118     58115     58113     58117     58118
     58116     58113     58117     58118     58120     58119     58123     58124
     58121     58119     58123     58124     58122     58119     58123     58124
     58126     58125     58129     58130     58127     58125     58129     58130
     58128     58125     58129     58130     58132     58131     58135     58136
     58133     58131     58135     58136     58134     58131     58135     58136
     58138     58137     58141     58142     58139     58137     58141     58142
     58140     58137     58141     58142     58144     58143     58147     58148
     58145     58143     58147     58148     58146     58143     58147     58148
     58150     58149     58153     58154     58151     58149     58153     58154
     58152     58149     58153     58154     58156     58155     58159     58160
     58157     58155     58159     58160     58158     58155     58159     58160
     58162     58161     58165     58166     58163     58161     58165     58166
     58164     58161     58165     58166     58168     58167     58171     58172
     58169     58167     58171     58172     58170     58167     58171     58172
     58174     58173     58177     58178     58175     58173     58177     58178
     58176     58173     58177     58178     58180     58179     58183     58184
     58181     58179     58183     58184     58182     58179     58183     58184
     58186     58185     58189     58190     58187     58185     58189     58190
     58188     58185     58189     58190     58192     58191     58195     58196
     58193     58191     58195     58196     58194     58191     58195     58196
     58198     58197     58201     58202     58199     58197     58201     58202
     58200     58197     58201     58202     58204     58203     58207     58208
     58205     58203     58207     58208     58206     58203     58207     58208
     58210     58209     58213     58214     58211     58209     58213     58214
     58212     58209     58213     58214     58216     58215     58219     58220
     58217     58215     58219     58220     58218     58215     58219     58220
     58222     58221     58225     58226     58223     58221     58225     58226
     58224     58221     58225     58226     58228     58227     58231     58232
     58229     58227     58231     58232     58230     58227     58231     58232
     58234     58233     58237     58238     58235     58233     58237     58238
     58236     58233     58237     58238     58240     58239     58243     58244
     58241     58239     58243     58244     58242     58239     58243     58244
     58246     58245     58249     58250     58247     58245     58249     58250
     58248     58245     58249     58250     58252     58251     58255     58256
     58253     58251     58255     58256     58254     58251     58255     58256
     58258     58257     58261     58262     58259     58257     58261     58262
     58260     58257     58261     58262     58264     58263     58267     58268
     58265     58263     58267     58268     58266     58263     58267     58268
     58270     58269     58273     58274     58271     58269     58273     58274
     58272     58269     58273     58274     58276     58275     58279     58280
     58277     58275     58279     58280     58278     58275     58279     58280
     58282     58281     58285     58286     58283     58281     58285     58286
     58284     58281     58285     58286     58288     58287     58291     58292
     58289     58287     58291     58292     58290     58287     58291     58292
     58294     58293     58297     58298     58295     58293     58297     58298
     58296     58293     58297     58298     58300     58299     58303     58304
     58301     58299     58303     58304     58302     58299     58303     58304
     58306     58305     58309     58310     58307     58305     58309     58310
     58308     58305     58309     58310     58312     58311     58315     58316
     58313     58311     58315     58316     58314     58311     58315     58316
     58318     58317     58321     58322     58319     58317     58321     58322
     58320     58317     58321     58322     58324     58323     58327     58328
     58325     58323     58327     58328     58326     58323     58327     58328
     58330     58329     58333     58334     58331     58329     58333     58334
     58332     58329     58333     58334     58336     58335     58339     58340
     58337     58335     58339     58340     58338     58335     58339     58340
     58342     58341     58345     58346     58343     58341     58345     58346
     58344     58341     58345     58346     58348     58347     58351     58352
     58349     58347     58351     58352     58350     58347     58351     58352
     58354     58353     58357     58358     58355     58353     58357     58358
     58356     58353     58357     58358     58360     58359     58363     58364
     58361     58359     58363     58364     58362     58359     58363     58364
     58366     58365     58369     58370     58367     58365     58369     58370
     58368     58365     58369     58370     58372     58371     58375     58376
     58373     58371     58375     58376     58374     58371     58375     58376
     58378     58377     58381     58382     58379     58377     58381     58382
     58380     58377     58381     58382     58384     58383     58387     58388
     58385     58383     58387     58388     58386     58383     58387     58388
     58390     58389     58393     58394     58391     58389     58393     58394
     58392     58389     58393     58394     58396     58395     58399     58400
     58397     58395     58399     58400     58398     58395     58399     58400
     58402     58401     58405     58406     58403     58401     58405     58406
     58404     58401     58405     58406     58408     58407     58411     58412
     58409     58407     58411     58412     58410     58407     58411     58412
     58414     58413     58417     58418     58415     58413     58417     58418
     58416     58413     58417     58418     58420     58419     58423     58424
     58421     58419     58423     58424     58422     58419     58423     58424
     58426     58425     58429     58430     58427     58425     58429     58430
     58428     58425     58429     58430     58432     58431     58435     58436
     58433     58431     58435     58436     58434     58431     58435     58436
     58438     58437     58441     58442     58439     58437     58441     58442
     58440     58437     58441     58442     58444     58443     58447     58448
     58445     58443     58447     58448     58446     58443     58447     58448
     58450     58449     58453     58454     58451     58449     58453     58454
     58452     58449     58453     58454     58456     58455     58459     58460
     58457     58455     58459     58460     58458     58455     58459     58460
     58462     58461     58465     58466     58463     58461     58465     58466
     58464     58461     58465     58466     58468     58467     58471     58472
     58469     58467     58471     58472     58470     58467     58471     58472
     58474     58473     58477     58478     58475     58473     58477     58478
     58476     58473     58477     58478     58480     58479     58483     58484
     58481     58479     58483     58484     58482     58479     58483     58484
     58486     58485     58489     58490     58487     58485     58489     58490
     58488     58485     58489     58490     58492     58491     58495     58496
     58493     58491     58495     58496     58494     58491     58495     58496
     58498     58497     58501     58502     58499     58497     58501     58502
     58500     58497     58501     58502     58504     58503     58507     58508
     58505     58503     58507     58508     58506     58503     58507     58508
     58510     58509     58513     58514     58511     58509     58513     58514
     58512     58509     58513     58514     58516     58515     58519     58520
     58517     58515     58519     58520     58518     58515     58519     58520
     58522     58521     58525     58526     58523     58521     58525     58526
     58524     58521     58525     58526     58528     58527     58531     58532
     58529     58527     58531     58532     58530     58527     58531     58532
     58534     58533     58537     58538     58535     58533     58537     58538
     58536     58533     58537     58538     58540     58539     58543     58544
     58541     58539     58543     58544     58542     58539     58543     58544
     58546     58545     58549     58550     58547     58545     58549     58550
     58548     58545     58549     58550     58552     58551     58555     58556
     58553     58551     58555     58556     58554     58551     58555     58556
     58558     58557     58561     58562     58559     58557     58561     58562
     58560     58557     58561     58562     58564     58563     58567     58568
     58565     58563     58567     58568     58566     58563     58567     58568
     58570     58569     58573     58574     58571     58569     58573     58574
     58572     58569     58573     58574     58576     58575     58579     58580
     58577     58575     58579     58580     58578     58575     58579     58580
     58582     58581     58585     58586     58583     58581     58585     58586
     58584     58581     58585     58586     58588     58587     58591     58592
     58589     58587     58591     58592     58590     58587     58591     58592
     58594     58593     58597     58598     58595     58593     58597     58598
     58596     58593     58597     58598     58600     58599     58603     58604
     58601     58599     58603     58604     58602     58599     58603     58604
     58606     58605     58609     58610     58607     58605     58609     58610
     58608     58605     58609     58610     58612     58611     58615     58616
     58613     58611     58615     58616     58614     58611     58615     58616
     58618     58617     58621     58622     58619     58617     58621     58622
     58620     58617     58621     58622     58624     58623     58627     58628
     58625     58623     58627     58628     58626     58623     58627     58628
     58630     58629     58633     58634     58631     58629     58633     58634
     58632     58629     58633     58634     58636     58635     58639     58640
     58637     58635     58639     58640     58638     58635     58639     58640
     58642     58641     58645     58646     58643     58641     58645     58646
     58644     58641     58645     58646     58648     58647     58651     58652
     58649     58647     58651     58652     58650     58647     58651     58652
     58654     58653     58657     58658     58655     58653     58657     58658
     58656     58653     58657     58658     58660     58659     58663     58664
     58661     58659     58663     58664     58662     58659     58663     58664
     58666     58665     58669     58670     58667     58665     58669     58670
     58668     58665     58669     58670     58672     58671     58675     58676
     58673     58671     58675     58676     58674     58671     58675     58676
     58678     58677     58681     58682     58679     58677     58681     58682
     58680     58677     58681     58682     58684     58683     58687     58688
     58685     58683     58687     58688     58686     58683     58687     58688
     58690     58689     58693     58694     58691     58689     58693     58694
     58692     58689     58693     58694     58696     58695     58699     58700
     58697     58695     58699     58700     58698     58695     58699     58700
     58702     58701     58705     58706     58703     58701     58705     58706
     58704     58701     58705     58706     58708     58707     58711     58712
     58709     58707     58711     58712     58710     58707     58711     58712
     58714     58713     58717     58718     58715     58713     58717     58718
     58716     58713     58717     58718     58720     58719     58723     58724
     58721     58719     58723     58724     58722     58719     58723     58724
     58726     58725     58729     58730     58727     58725     58729     58730
     58728     58725     58729     58730     58732     58731     58735     58736
     58733     58731     58735     58736     58734     58731     58735     58736
     58738     58737     58741     58742     58739     58737     58741     58742
     58740     58737     58741     58742     58744     58743     58747     58748
     58745     58743     58747     58748     58746     58743     58747     58748
     58750     58749     58753     58754     58751     58749     58753     58754
     58752     58749     58753     58754     58756     58755     58759     58760
     58757     58755     58759     58760     58758     58755     58759     58760
     58762     58761     58765     58766     58763     58761     58765     58766
     58764     58761     58765     58766     58768     58767     58771     58772
     58769     58767     58771     58772     58770     58767     58771     58772
     58774     58773     58777     58778     58775     58773     58777     58778
     58776     58773     58777     58778     58780     58779     58783     58784
     58781     58779     58783     58784     58782     58779     58783     58784
     58786     58785     58789     58790     58787     58785     58789     58790
     58788     58785     58789     58790     58792     58791     58795     58796
     58793     58791     58795     58796     58794     58791     58795     58796
     58798     58797     58801     58802     58799     58797     58801     58802
     58800     58797     58801     58802     58804     58803     58807     58808
     58805     58803     58807     58808     58806     58803     58807     58808
     58810     58809     58813     58814     58811     58809     58813     58814
     58812     58809     58813     58814     58816     58815     58819     58820
     58817     58815     58819     58820     58818     58815     58819     58820
     58822     58821     58825     58826     58823     58821     58825     58826
     58824     58821     58825     58826     58828     58827     58831     58832
     58829     58827     58831     58832     58830     58827     58831     58832
     58834     58833     58837     58838     58835     58833     58837     58838
     58836     58833     58837     58838     58840     58839     58843     58844
     58841     58839     58843     58844     58842     58839     58843     58844
     58846     58845     58849     58850     58847     58845     58849     58850
     58848     58845     58849     58850     58852     58851     58855     58856
     58853     58851     58855     58856     58854     58851     58855     58856
     58858     58857     58861     58862     58859     58857     58861     58862
     58860     58857     58861     58862     58864     58863     58867     58868
     58865     58863     58867     58868     58866     58863     58867     58868
     58870     58869     58873     58874     58871     58869     58873     58874
     58872     58869     58873     58874     58876     58875     58879     58880
     58877     58875     58879     58880     58878     58875     58879     58880
     58882     58881     58885     58886     58883     58881     58885     58886
     58884     58881     58885     58886     58888     58887     58891     58892
     58889     58887     58891     58892     58890     58887     58891     58892
     58894     58893     58897     58898     58895     58893     58897     58898
     58896     58893     58897     58898     58900     58899     58903     58904
     58901     58899     58903     58904     58902     58899     58903     58904
     58906     58905     58909     58910     58907     58905     58909     58910
     58908     58905     58909     58910     58912     58911     58915     58916
     58913     58911     58915     58916     58914     58911     58915     58916
     58918     58917     58921     58922     58919     58917     58921     58922
     58920     58917     58921     58922     58924     58923     58927     58928
     58925     58923     58927     58928     58926     58923     58927     58928
     58930     58929     58933     58934     58931     58929     58933     58934
     58932     58929     58933     58934     58936     58935     58939     58940
     58937     58935     58939     58940     58938     58935     58939     58940
     58942     58941     58945     58946     58943     58941     58945     58946
     58944     58941     58945     58946     58948     58947     58951     58952
     58949     58947     58951     58952     58950     58947     58951     58952
     58954     58953     58957     58958     58955     58953     58957     58958
     58956     58953     58957     58958     58960     58959     58963     58964
     58961     58959     58963     58964     58962     58959     58963     58964
     58966     58965     58969     58970     58967     58965     58969     58970
     58968     58965     58969     58970     58972     58971     58975     58976
     58973     58971     58975     58976     58974     58971     58975     58976
     58978     58977     58981     58982     58979     58977     58981     58982
     58980     58977     58981     58982     58984     58983     58987     58988
     58985     58983     58987     58988     58986     58983     58987     58988
     58990     58989     58993     58994     58991     58989     58993     58994
     58992     58989     58993     58994     58996     58995     58999     59000
     58997     58995     58999     59000     58998     58995     58999     59000
     59002     59001     59005     59006     59003     59001     59005     59006
     59004     59001     59005     59006     59008     59007     59011     59012
     59009     59007     59011     59012     59010     59007     59011     59012
     59014     59013     59017     59018     59015     59013     59017     59018
     59016     59013     59017     59018     59020     59019     59023     59024
     59021     59019     59023     59024     59022     59019     59023     59024
     59026     59025     59029     59030     59027     59025     59029     59030
     59028     59025     59029     59030     59032     59031     59035     59036
     59033     59031     59035     59036     59034     59031     59035     59036
     59038     59037     59041     59042     59039     59037     59041     59042
     59040     59037     59041     59042     59044     59043     59047     59048
     59045     59043     59047     59048     59046     59043     59047     59048
     59050     59049     59053     59054     59051     59049     59053     59054
     59052     59049     59053     59054     59056     59055     59059     59060
     59057     59055     59059     59060     59058     59055     59059     59060
     59062     59061     59065     59066     59063     59061     59065     59066
     59064     59061     59065     59066     59068     59067     59071     59072
     59069     59067     59071     59072     59070     59067     59071     59072
     59074     59073     59077     59078     59075     59073     59077     59078
     59076     59073     59077     59078     59080     59079     59083     59084
     59081     59079     59083     59084     59082     59079     59083     59084
     59086     59085     59089     59090     59087     59085     59089     59090
     59088     59085     59089     59090     59092     59091     59095     59096
     59093     59091     59095     59096     59094     59091     59095     59096
     59098     59097     59101     59102     59099     59097     59101     59102
     59100     59097     59101     59102     59104     59103     59107     59108
     59105     59103     59107     59108     59106     59103     59107     59108
     59110     59109     59113     59114     59111     59109     59113     59114
     59112     59109     59113     59114     59116     59115     59119     59120
     59117     59115     59119     59120     59118     59115     59119     59120
     59122     59121     59125     59126     59123     59121     59125     59126
     59124     59121     59125     59126     59128     59127     59131     59132
     59129     59127     59131     59132     59130     59127     59131     59132
     59134     59133     59137     59138     59135     59133     59137     59138
     59136     59133     59137     59138     59140     59139     59143     59144
     59141     59139     59143     59144     59142     59139     59143     59144
     59146     59145     59149     59150     59147     59145     59149     59150
     59148     59145     59149     59150     59152     59151     59155     59156
     59153     59151     59155     59156     59154     59151     59155     59156
     59158     59157     59161     59162     59159     59157     59161     59162
     59160     59157     59161     59162     59164     59163     59167     59168
     59165     59163     59167     59168     59166     59163     59167     59168
     59170     59169     59173     59174     59171     59169     59173     59174
     59172     59169     59173     59174     59176     59175     59179     59180
     59177     59175     59179     59180     59178     59175     59179     59180
     59182     59181     59185     59186     59183     59181     59185     59186
     59184     59181     59185     59186     59188     59187     59191     59192
     59189     59187     59191     59192     59190     59187     59191     59192
     59194     59193     59197     59198     59195     59193     59197     59198
     59196     59193     59197     59198     59200     59199     59203     59204
     59201     59199     59203     59204     59202     59199     59203     59204
     59206     59205     59209     59210     59207     59205     59209     59210
     59208     59205     59209     59210     59212     59211     59215     59216
     59213     59211     59215     59216     59214     59211     59215     59216
     59218     59217     59221     59222     59219     59217     59221     59222
     59220     59217     59221     59222     59224     59223     59227     59228
     59225     59223     59227     59228     59226     59223     59227     59228
     59230     59229     59233     59234     59231     59229     59233     59234
     59232     59229     59233     59234     59236     59235     59239     59240
     59237     59235     59239     59240     59238     59235     59239     59240
     59242     59241     59245     59246     59243     59241     59245     59246
     59244     59241     59245     59246     59248     59247     59251     59252
     59249     59247     59251     59252     59250     59247     59251     59252
     59254     59253     59257     59258     59255     59253     59257     59258
     59256     59253     59257     59258     59260     59259     59263     59264
     59261     59259     59263     59264     59262     59259     59263     59264
     59266     59265     59269     59270     59267     59265     59269     59270
     59268     59265     59269     59270     59272     59271     59275     59276
     59273     59271     59275     59276     59274     59271     59275     59276
     59278     59277     59281     59282     59279     59277     59281     59282
     59280     59277     59281     59282     59284     59283     59287     59288
     59285     59283     59287     59288     59286     59283     59287     59288
     59290     59289     59293     59294     59291     59289     59293     59294
     59292     59289     59293     59294     59296     59295     59299     59300
     59297     59295     59299     59300     59298     59295     59299     59300
     59302     59301     59305     59306     59303     59301     59305     59306
     59304     59301     59305     59306     59308     59307     59311     59312
     59309     59307     59311     59312     59310     59307     59311     59312
     59314     59313     59317     59318     59315     59313     59317     59318
     59316     59313     59317     59318     59320     59319     59323     59324
     59321     59319     59323     59324     59322     59319     59323     59324
     59326     59325     59329     59330     59327     59325     59329     59330
     59328     59325     59329     59330     59332     59331     59335     59336
     59333     59331     59335     59336     59334     59331     59335     59336
     59338     59337     59341     59342     59339     59337     59341     59342
     59340     59337     59341     59342     59344     59343     59347     59348
     59345     59343     59347     59348     59346     59343     59347     59348
     59350     59349     59353     59354     59351     59349     59353     59354
     59352     59349     59353     59354     59356     59355     59359     59360
     59357     59355     59359     59360     59358     59355     59359     59360
     59362     59361     59365     59366     59363     59361     59365     59366
     59364     59361     59365     59366     59368     59367     59371     59372
     59369     59367     59371     59372     59370     59367     59371     59372
     59374     59373     59377     59378     59375     59373     59377     59378
     59376     59373     59377     59378     59380     59379     59383     59384
     59381     59379     59383     59384     59382     59379     59383     59384
     59386     59385     59389     59390     59387     59385     59389     59390
     59388     59385     59389     59390     59392     59391     59395     59396
     59393     59391     59395     59396     59394     59391     59395     59396
     59398     59397     59401     59402     59399     59397     59401     59402
     59400     59397     59401     59402     59404     59403     59407     59408
     59405     59403     59407     59408     59406     59403     59407     59408
     59410     59409     59413     59414     59411     59409     59413     59414
     59412     59409     59413     59414     59416     59415     59419     59420
     59417     59415     59419     59420     59418     59415     59419     59420
     59422     59421     59425     59426     59423     59421     59425     59426
     59424     59421     59425     59426     59428     59427     59431     59432
     59429     59427     59431     59432     59430     59427     59431     59432
     59434     59433     59437     59438     59435     59433     59437     59438
     59436     59433     59437     59438     59440     59439     59443     59444
     59441     59439     59443     59444     59442     59439     59443     59444
     59446     59445     59449     59450     59447     59445     59449     59450
     59448     59445     59449     59450     59452     59451     59455     59456
     59453     59451     59455     59456     59454     59451     59455     59456
     59458     59457     59461     59462     59459     59457     59461     59462
     59460     59457     59461     59462     59464     59463     59467     59468
     59465     59463     59467     59468     59466     59463     59467     59468
     59470     59469     59473     59474     59471     59469     59473     59474
     59472     59469     59473     59474     59476     59475     59479     59480
     59477     59475     59479     59480     59478     59475     59479     59480
     59482     59481     59485     59486     59483     59481     59485     59486
     59484     59481     59485     59486     59488     59487     59491     59492
     59489     59487     59491     59492     59490     59487     59491     59492
     59494     59493     59497     59498     59495     59493     59497     59498
     59496     59493     59497     59498     59500     59499     59503     59504
     59501     59499     59503     59504     59502     59499     59503     59504
     59506     59505     59509     59510     59507     59505     59509     59510
     59508     59505     59509     59510     59512     59511     59515     59516
     59513     59511     59515     59516     59514     59511     59515     59516
     59518     59517     59521     59522     59519     59517     59521     59522
     59520     59517     59521     59522     59524     59523     59527     59528
     59525     59523     59527     59528     59526     59523     59527     59528
     59530     59529     59533     59534     59531     59529     59533     59534
     59532     59529     59533     59534     59536     59535     59539     59540
     59537     59535     59539     59540     59538     59535     59539     59540
     59542     59541     59545     59546     59543     59541     59545     59546
     59544     59541     59545     59546     59548     59547     59551     59552
     59549     59547     59551     59552     59550     59547     59551     59552
     59554     59553     59557     59558     59555     59553     59557     59558
     59556     59553     59557     59558     59560     59559     59563     59564
     59561     59559     59563     59564     59562     59559     59563     59564
     59566     59565     59569     59570     59567     59565     59569     59570
     59568     59565     59569     59570     59572     59571     59575     59576
     59573     59571     59575     59576     59574     59571     59575     59576
     59578     59577     59581     59582     59579     59577     59581     59582
     59580     59577     59581     59582     59584     59583     59587     59588
     59585     59583     59587     59588     59586     59583     59587     59588
     59590     59589     59593     59594     59591     59589     59593     59594
     59592     59589     59593     59594     59596     59595     59599     59600
     59597     59595     59599     59600     59598     59595     59599     59600
     59602     59601     59605     59606     59603     59601     59605     59606
     59604     59601     59605     59606     59608     59607     59611     59612
     59609     59607     59611     59612     59610     59607     59611     59612
     59614     59613     59617     59618     59615     59613     59617     59618
     59616     59613     59617     59618     59620     59619     59623     59624
     59621     59619     59623     59624     59622     59619     59623     59624
     59626     59625     59629     59630     59627     59625     59629     59630
     59628     59625     59629     59630     59632     59631     59635     59636
     59633     59631     59635     59636     59634     59631     59635     59636
     59638     59637     59641     59642     59639     59637     59641     59642
     59640     59637     59641     59642     59644     59643     59647     59648
     59645     59643     59647     59648     59646     59643     59647     59648
     59650     59649     59653     59654     59651     59649     59653     59654
     59652     59649     59653     59654     59656     59655     59659     59660
     59657     59655     59659     59660     59658     59655     59659     59660
     59662     59661     59665     59666     59663     59661     59665     59666
     59664     59661     59665     59666     59668     59667     59671     59672
     59669     59667     59671     59672     59670     59667     59671     59672
     59674     59673     59677     59678     59675     59673     59677     59678
     59676     59673     59677     59678     59680     59679     59683     59684
     59681     59679     59683     59684     59682     59679     59683     59684
     59686     59685     59689     59690     59687     59685     59689     59690
     59688     59685     59689     59690     59692     59691     59695     59696
     59693     59691     59695     59696     59694     59691     59695     59696
     59698     59697     59701     59702     59699     59697     59701     59702
     59700     59697     59701     59702     59704     59703     59707     59708
     59705     59703     59707     59708     59706     59703     59707     59708
     59710     59709     59713     59714     59711     59709     59713     59714
     59712     59709     59713     59714     59716     59715     59719     59720
     59717     59715     59719     59720     59718     59715     59719     59720
     59722     59721     59725     59726     59723     59721     59725     59726
     59724     59721     59725     59726     59728     59727     59731     59732
     59729     59727     59731     59732     59730     59727     59731     59732
     59734     59733     59737     59738     59735     59733     59737     59738
     59736     59733     59737     59738     59740     59739     59743     59744
     59741     59739     59743     59744     59742     59739     59743     59744
     59746     59745     59749     59750     59747     59745     59749     59750
     59748     59745     59749     59750     59752     59751     59755     59756
     59753     59751     59755     59756     59754     59751     59755     59756
     59758     59757     59761     59762     59759     59757     59761     59762
     59760     59757     59761     59762     59764     59763     59767     59768
     59765     59763     59767     59768     59766     59763     59767     59768
     59770     59769     59773     59774     59771     59769     59773     59774
     59772     59769     59773     59774     59776     59775     59779     59780
     59777     59775     59779     59780     59778     59775     59779     59780
     59782     59781     59785     59786     59783     59781     59785     59786
     59784     59781     59785     59786     59788     59787     59791     59792
     59789     59787     59791     59792     59790     59787     59791     59792
     59794     59793     59797     59798     59795     59793     59797     59798
     59796     59793     59797     59798     59800     59799     59803     59804
     59801     59799     59803     59804     59802     59799     59803     59804
     59806     59805     59809     59810     59807     59805     59809     59810
     59808     59805     59809     59810     59812     59811     59815     59816
     59813     59811     59815     59816     59814     59811     59815     59816
     59818     59817     59821     59822     59819     59817     59821     59822
     59820     59817     59821     59822     59824     59823     59827     59828
     59825     59823     59827     59828     59826     59823     59827     59828
     59830     59829     59833     59834     59831     59829     59833     59834
     59832     59829     59833     59834     59836     59835     59839     59840
     59837     59835     59839     59840     59838     59835     59839     59840
     59842     59841     59845     59846     59843     59841     59845     59846
     59844     59841     59845     59846     59848     59847     59851     59852
     59849     59847     59851     59852     59850     59847     59851     59852
     59854     59853     59857     59858     59855     59853     59857     59858
     59856     59853     59857     59858     59860     59859     59863     59864
     59861     59859     59863     59864     59862     59859     59863     59864
     59866     59865     59869     59870     59867     59865     59869     59870
     59868     59865     59869     59870     59872     59871     59875     59876
     59873     59871     59875     59876     59874     59871     59875     59876
     59878     59877     59881     59882     59879     59877     59881     59882
     59880     59877     59881     59882     59884     59883     59887     59888
     59885     59883     59887     59888     59886     59883     59887     59888
     59890     59889     59893     59894     59891     59889     59893     59894
     59892     59889     59893     59894     59896     59895     59899     59900
     59897     59895     59899     59900     59898     59895     59899     59900
     59902     59901     59905     59906     59903     59901     59905     59906
     59904     59901     59905     59906     59908     59907     59911     59912
     59909     59907     59911     59912     59910     59907     59911     59912
     59914     59913     59917     59918     59915     59913     59917     59918
     59916     59913     59917     59918     59920     59919     59923     59924
     59921     59919     59923     59924     59922     59919     59923     59924
     59926     59925     59929     59930     59927     59925     59929     59930
     59928     59925     59929     59930     59932     59931     59935     59936
     59933     59931     59935     59936     59934     59931     59935     59936
     59938     59937     59941     59942     59939     59937     59941     59942
     59940     59937     59941     59942     59944     59943     59947     59948
     59945     59943     59947     59948     59946     59943     59947     59948
     59950     59949     59953     59954     59951     59949     59953     59954
     59952     59949     59953     59954     59956     59955     59959     59960
     59957     59955     59959     59960     59958     59955     59959     59960
     59962     59961     59965     59966     59963     59961     59965     59966
     59964     59961     59965     59966     59968     59967     59971     59972
     59969     59967     59971     59972     59970     59967     59971     59972
     59974     59973     59977     59978     59975     59973     59977     59978
     59976     59973     59977     59978     59980     59979     59983     59984
     59981     59979     59983     59984     59982     59979     59983     59984
     59986     59985     59989     59990     59987     59985     59989     59990
     59988     59985     59989     59990     59992     59991     59995     59996
     59993     59991     59995     59996     59994     59991     59995     59996
     59998     59997     60001     60002     59999     59997     60001     60002
     60000     59997     60001     60002     60004     60003     60007     60008
     60005     60003     60007     60008     60006     60003     60007     60008
     60010     60009     60013     60014     60011     60009     60013     60014
     60012     60009     60013     60014     60016     60015     60019     60020
     60017     60015     60019     60020     60018     60015     60019     60020
     60022     60021     60025     60026     60023     60021     60025     60026
     60024     60021     60025     60026     60028     60027     60031     60032
     60029     60027     60031     60032     60030     60027     60031     60032
     60034     60033     60037     60038     60035     60033     60037     60038
     60036     60033     60037     60038     60040     60039     60043     60044
     60041     60039     60043     60044     60042     60039     60043     60044
     60046     60045     60049     60050     60047     60045     60049     60050
     60048     60045     60049     60050     60052     60051     60055     60056
     60053     60051     60055     60056     60054     60051     60055     60056
     60058     60057     60061     60062     60059     60057     60061     60062
     60060     60057     60061     60062     60064     60063     60067     60068
     60065     60063     60067     60068     60066     60063     60067     60068
     60070     60069     60073     60074     60071     60069     60073     60074
     60072     60069     60073     60074     60076     60075     60079     60080
     60077     60075     60079     60080     60078     60075     60079     60080
     60082     60081     60085     60086     60083     60081     60085     60086
     60084     60081     60085     60086     60088     60087     60091     60092
     60089     60087     60091     60092     60090     60087     60091     60092
     60094     60093     60097     60098     60095     60093     60097     60098
     60096     60093     60097     60098     60100     60099     60103     60104
     60101     60099     60103     60104     60102     60099     60103     60104
     60106     60105     60109     60110     60107     60105     60109     60110
     60108     60105     60109     60110     60112     60111     60115     60116
     60113     60111     60115     60116     60114     60111     60115     60116
     60118     60117     60121     60122     60119     60117     60121     60122
     60120     60117     60121     60122     60124     60123     60127     60128
     60125     60123     60127     60128     60126     60123     60127     60128
     60130     60129     60133     60134     60131     60129     60133     60134
     60132     60129     60133     60134     60136     60135     60139     60140
     60137     60135     60139     60140     60138     60135     60139     60140
     60142     60141     60145     60146     60143     60141     60145     60146
     60144     60141     60145     60146     60148     60147     60151     60152
     60149     60147     60151     60152     60150     60147     60151     60152
     60154     60153     60157     60158     60155     60153     60157     60158
     60156     60153     60157     60158     60160     60159     60163     60164
     60161     60159     60163     60164     60162     60159     60163     60164
     60166     60165     60169     60170     60167     60165     60169     60170
     60168     60165     60169     60170     60172     60171     60175     60176
     60173     60171     60175     60176     60174     60171     60175     60176
     60178     60177     60181     60182     60179     60177     60181     60182
     60180     60177     60181     60182     60184     60183     60187     60188
     60185     60183     60187     60188     60186     60183     60187     60188
     60190     60189     60193     60194     60191     60189     60193     60194
     60192     60189     60193     60194     60196     60195     60199     60200
     60197     60195     60199     60200     60198     60195     60199     60200
     60202     60201     60205     60206     60203     60201     60205     60206
     60204     60201     60205     60206     60208     60207     60211     60212
     60209     60207     60211     60212     60210     60207     60211     60212
     60214     60213     60217     60218     60215     60213     60217     60218
     60216     60213     60217     60218     60220     60219     60223     60224
     60221     60219     60223     60224     60222     60219     60223     60224
     60226     60225     60229     60230     60227     60225     60229     60230
     60228     60225     60229     60230     60232     60231     60235     60236
     60233     60231     60235     60236     60234     60231     60235     60236
     60238     60237     60241     60242     60239     60237     60241     60242
     60240     60237     60241     60242     60244     60243     60247     60248
     60245     60243     60247     60248     60246     60243     60247     60248
     60250     60249     60253     60254     60251     60249     60253     60254
     60252     60249     60253     60254     60256     60255     60259     60260
     60257     60255     60259     60260     60258     60255     60259     60260
     60262     60261     60265     60266     60263     60261     60265     60266
     60264     60261     60265     60266     60268     60267     60271     60272
     60269     60267     60271     60272     60270     60267     60271     60272
     60274     60273     60277     60278     60275     60273     60277     60278
     60276     60273     60277     60278     60280     60279     60283     60284
     60281     60279     60283     60284     60282     60279     60283     60284
     60286     60285     60289     60290     60287     60285     60289     60290
     60288     60285     60289     60290     60292     60291     60295     60296
     60293     60291     60295     60296     60294     60291     60295     60296
     60298     60297     60301     60302     60299     60297     60301     60302
     60300     60297     60301     60302     60304     60303     60307     60308
     60305     60303     60307     60308     60306     60303     60307     60308
     60310     60309     60313     60314     60311     60309     60313     60314
     60312     60309     60313     60314     60316     60315     60319     60320
     60317     60315     60319     60320     60318     60315     60319     60320
     60322     60321     60325     60326     60323     60321     60325     60326
     60324     60321     60325     60326     60328     60327     60331     60332
     60329     60327     60331     60332     60330     60327     60331     60332
     60334     60333     60337     60338     60335     60333     60337     60338
     60336     60333     60337     60338     60340     60339     60343     60344
     60341     60339     60343     60344     60342     60339     60343     60344
     60346     60345     60349     60350     60347     60345     60349     60350
     60348     60345     60349     60350     60352     60351     60355     60356
     60353     60351     60355     60356     60354     60351     60355     60356
     60358     60357     60361     60362     60359     60357     60361     60362
     60360     60357     60361     60362     60364     60363     60367     60368
     60365     60363     60367     60368     60366     60363     60367     60368
     60370     60369     60373     60374     60371     60369     60373     60374
     60372     60369     60373     60374     60376     60375     60379     60380
     60377     60375     60379     60380     60378     60375     60379     60380
     60382     60381     60385     60386     60383     60381     60385     60386
     60384     60381     60385     60386     60388     60387     60391     60392
     60389     60387     60391     60392     60390     60387     60391     60392
     60394     60393     60397     60398     60395     60393     60397     60398
     60396     60393     60397     60398     60400     60399     60403     60404
     60401     60399     60403     60404     60402     60399     60403     60404
     60406     60405     60409     60410     60407     60405     60409     60410
     60408     60405     60409     60410     60412     60411     60415     60416
     60413     60411     60415     60416     60414     60411     60415     60416
     60418     60417     60421     60422     60419     60417     60421     60422
     60420     60417     60421     60422     60424     60423     60427     60428
     60425     60423     60427     60428     60426     60423     60427     60428
     60430     60429     60433     60434     60431     60429     60433     60434
     60432     60429     60433     60434     60436     60435     60439     60440
     60437     60435     60439     60440     60438     60435     60439     60440
     60442     60441     60445     60446     60443     60441     60445     60446
     60444     60441     60445     60446     60448     60447     60451     60452
     60449     60447     60451     60452     60450     60447     60451     60452
     60454     60453     60457     60458     60455     60453     60457     60458
     60456     60453     60457     60458     60460     60459     60463     60464
     60461     60459     60463     60464     60462     60459     60463     60464
     60466     60465     60469     60470     60467     60465     60469     60470
     60468     60465     60469     60470     60472     60471     60475     60476
     60473     60471     60475     60476     60474     60471     60475     60476
     60478     60477     60481     60482     60479     60477     60481     60482
     60480     60477     60481     60482     60484     60483     60487     60488
     60485     60483     60487     60488     60486     60483     60487     60488
     60490     60489     60493     60494     60491     60489     60493     60494
     60492     60489     60493     60494     60496     60495     60499     60500
     60497     60495     60499     60500     60498     60495     60499     60500
     60502     60501     60505     60506     60503     60501     60505     60506
     60504     60501     60505     60506     60508     60507     60511     60512
     60509     60507     60511     60512     60510     60507     60511     60512
     60514     60513     60517     60518     60515     60513     60517     60518
     60516     60513     60517     60518     60520     60519     60523     60524
     60521     60519     60523     60524     60522     60519     60523     60524
     60526     60525     60529     60530     60527     60525     60529     60530
     60528     60525     60529     60530     60532     60531     60535     60536
     60533     60531     60535     60536     60534     60531     60535     60536
     60538     60537     60541     60542     60539     60537     60541     60542
     60540     60537     60541     60542     60544     60543     60547     60548
     60545     60543     60547     60548     60546     60543     60547     60548
     60550     60549     60553     60554     60551     60549     60553     60554
     60552     60549     60553     60554     60556     60555     60559     60560
     60557     60555     60559     60560     60558     60555     60559     60560
     60562     60561     60565     60566     60563     60561     60565     60566
     60564     60561     60565     60566     60568     60567     60571     60572
     60569     60567     60571     60572     60570     60567     60571     60572
     60574     60573     60577     60578     60575     60573     60577     60578
     60576     60573     60577     60578     60580     60579     60583     60584
     60581     60579     60583     60584     60582     60579     60583     60584
     60586     60585     60589     60590     60587     60585     60589     60590
     60588     60585     60589     60590     60592     60591     60595     60596
     60593     60591     60595     60596     60594     60591     60595     60596
     60598     60597     60601     60602     60599     60597     60601     60602
     60600     60597     60601     60602     60604     60603     60607     60608
     60605     60603     60607     60608     60606     60603     60607     60608
     60610     60609     60613     60614     60611     60609     60613     60614
     60612     60609     60613     60614     60616     60615     60619     60620
     60617     60615     60619     60620     60618     60615     60619     60620
     60622     60621     60625     60626     60623     60621     60625     60626
     60624     60621     60625     60626     60628     60627     60631     60632
     60629     60627     60631     60632     60630     60627     60631     60632
     60634     60633     60637     60638     60635     60633     60637     60638
     60636     60633     60637     60638     60640     60639     60643     60644
     60641     60639     60643     60644     60642     60639     60643     60644
     60646     60645     60649     60650     60647     60645     60649     60650
     60648     60645     60649     60650     60652     60651     60655     60656
     60653     60651     60655     60656     60654     60651     60655     60656
     60658     60657     60661     60662     60659     60657     60661     60662
     60660     60657     60661     60662     60664     60663     60667     60668
     60665     60663     60667     60668     60666     60663     60667     60668
     60670     60669     60673     60674     60671     60669     60673     60674
     60672     60669     60673     60674     60676     60675     60679     60680
     60677     60675     60679     60680     60678     60675     60679     60680
     60682     60681     60685     60686     60683     60681     60685     60686
     60684     60681     60685     60686     60688     60687     60691     60692
     60689     60687     60691     60692     60690     60687     60691     60692
     60694     60693     60697     60698     60695     60693     60697     60698
     60696     60693     60697     60698     60700     60699     60703     60704
     60701     60699     60703     60704     60702     60699     60703     60704
     60706     60705     60709     60710     60707     60705     60709     60710
     60708     60705     60709     60710     60712     60711     60715     60716
     60713     60711     60715     60716     60714     60711     60715     60716
     60718     60717     60721     60722     60719     60717     60721     60722
     60720     60717     60721     60722     60724     60723     60727     60728
     60725     60723     60727     60728     60726     60723     60727     60728
     60730     60729     60733     60734     60731     60729     60733     60734
     60732     60729     60733     60734     60736     60735     60739     60740
     60737     60735     60739     60740     60738     60735     60739     60740
     60742     60741     60745     60746     60743     60741     60745     60746
     60744     60741     60745     60746     60748     60747     60751     60752
     60749     60747     60751     60752     60750     60747     60751     60752
     60754     60753     60757     60758     60755     60753     60757     60758
     60756     60753     60757     60758     60760     60759     60763     60764
     60761     60759     60763     60764     60762     60759     60763     60764
     60766     60765     60769     60770     60767     60765     60769     60770
     60768     60765     60769     60770     60772     60771     60775     60776
     60773     60771     60775     60776     60774     60771     60775     60776
     60778     60777     60781     60782     60779     60777     60781     60782
     60780     60777     60781     60782     60784     60783     60787     60788
     60785     60783     60787     60788     60786     60783     60787     60788
     60790     60789     60793     60794     60791     60789     60793     60794
     60792     60789     60793     60794     60796     60795     60799     60800
     60797     60795     60799     60800     60798     60795     60799     60800
     60802     60801     60805     60806     60803     60801     60805     60806
     60804     60801     60805     60806     60808     60807     60811     60812
     60809     60807     60811     60812     60810     60807     60811     60812
     60814     60813     60817     60818     60815     60813     60817     60818
     60816     60813     60817     60818     60820     60819     60823     60824
     60821     60819     60823     60824     60822     60819     60823     60824
     60826     60825     60829     60830     60827     60825     60829     60830
     60828     60825     60829     60830     60832     60831     60835     60836
     60833     60831     60835     60836     60834     60831     60835     60836
     60838     60837     60841     60842     60839     60837     60841     60842
     60840     60837     60841     60842     60844     60843     60847     60848
     60845     60843     60847     60848     60846     60843     60847     60848
     60850     60849     60853     60854     60851     60849     60853     60854
     60852     60849     60853     60854     60856     60855     60859     60860
     60857     60855     60859     60860     60858     60855     60859     60860
     60862     60861     60865     60866     60863     60861     60865     60866
     60864     60861     60865     60866     60868     60867     60871     60872
     60869     60867     60871     60872     60870     60867     60871     60872
     60874     60873     60877     60878     60875     60873     60877     60878
     60876     60873     60877     60878     60880     60879     60883     60884
     60881     60879     60883     60884     60882     60879     60883     60884
     60886     60885     60889     60890     60887     60885     60889     60890
     60888     60885     60889     60890     60892     60891     60895     60896
     60893     60891     60895     60896     60894     60891     60895     60896
     60898     60897     60901     60902     60899     60897     60901     60902
     60900     60897     60901     60902     60904     60903     60907     60908
     60905     60903     60907     60908     60906     60903     60907     60908
     60910     60909     60913     60914     60911     60909     60913     60914
     60912     60909     60913     60914     60916     60915     60919     60920
     60917     60915     60919     60920     60918     60915     60919     60920
     60922     60921     60925     60926     60923     60921     60925     60926
     60924     60921     60925     60926     60928     60927     60931     60932
     60929     60927     60931     60932     60930     60927     60931     60932
     60934     60933     60937     60938     60935     60933     60937     60938
     60936     60933     60937     60938     60940     60939     60943     60944
     60941     60939     60943     60944     60942     60939     60943     60944
     60946     60945     60949     60950     60947     60945     60949     60950
     60948     60945     60949     60950     60952     60951     60955     60956
     60953     60951     60955     60956     60954     60951     60955     60956
     60958     60957     60961     60962     60959     60957     60961     60962
     60960     60957     60961     60962     60964     60963     60967     60968
     60965     60963     60967     60968     60966     60963     60967     60968
     60970     60969     60973     60974     60971     60969     60973     60974
     60972     60969     60973     60974     60976     60975     60979     60980
     60977     60975     60979     60980     60978     60975     60979     60980
     60982     60981     60985     60986     60983     60981     60985     60986
     60984     60981     60985     60986     60988     60987     60991     60992
     60989     60987     60991     60992     60990     60987     60991     60992
     60994     60993     60997     60998     60995     60993     60997     60998
     60996     60993     60997     60998     61000     60999     61003     61004
     61001     60999     61003     61004     61002     60999     61003     61004
     61006     61005     61009     61010     61007     61005     61009     61010
     61008     61005     61009     61010     61012     61011     61015     61016
     61013     61011     61015     61016     61014     61011     61015     61016
     61018     61017     61021     61022     61019     61017     61021     61022
     61020     61017     61021     61022     61024     61023     61027     61028
     61025     61023     61027     61028     61026     61023     61027     61028
     61030     61029     61033     61034     61031     61029     61033     61034
     61032     61029     61033     61034     61036     61035     61039     61040
     61037     61035     61039     61040     61038     61035     61039     61040
     61042     61041     61045     61046     61043     61041     61045     61046
     61044     61041     61045     61046     61048     61047     61051     61052
     61049     61047     61051     61052     61050     61047     61051     61052
     61054     61053     61057     61058     61055     61053     61057     61058
     61056     61053     61057     61058     61060     61059     61063     61064
     61061     61059     61063     61064     61062     61059     61063     61064
     61066     61065     61069     61070     61067     61065     61069     61070
     61068     61065     61069     61070     61072     61071     61075     61076
     61073     61071     61075     61076     61074     61071     61075     61076
     61078     61077     61081     61082     61079     61077     61081     61082
     61080     61077     61081     61082     61084     61083     61087     61088
     61085     61083     61087     61088     61086     61083     61087     61088
     61090     61089     61093     61094     61091     61089     61093     61094
     61092     61089     61093     61094     61096     61095     61099     61100
     61097     61095     61099     61100     61098     61095     61099     61100
     61102     61101     61105     61106     61103     61101     61105     61106
     61104     61101     61105     61106     61108     61107     61111     61112
     61109     61107     61111     61112     61110     61107     61111     61112
     61114     61113     61117     61118     61115     61113     61117     61118
     61116     61113     61117     61118     61120     61119     61123     61124
     61121     61119     61123     61124     61122     61119     61123     61124
     61126     61125     61129     61130     61127     61125     61129     61130
     61128     61125     61129     61130     61132     61131     61135     61136
     61133     61131     61135     61136     61134     61131     61135     61136
     61138     61137     61141     61142     61139     61137     61141     61142
     61140     61137     61141     61142     61144     61143     61147     61148
     61145     61143     61147     61148     61146     61143     61147     61148
     61150     61149     61153     61154     61151     61149     61153     61154
     61152     61149     61153     61154     61156     61155     61159     61160
     61157     61155     61159     61160     61158     61155     61159     61160
     61162     61161     61165     61166     61163     61161     61165     61166
     61164     61161     61165     61166     61168     61167     61171     61172
     61169     61167     61171     61172     61170     61167     61171     61172
     61174     61173     61177     61178     61175     61173     61177     61178
     61176     61173     61177     61178     61180     61179     61183     61184
     61181     61179     61183     61184     61182     61179     61183     61184
     61186     61185     61189     61190     61187     61185     61189     61190
     61188     61185     61189     61190     61192     61191     61195     61196
     61193     61191     61195     61196     61194     61191     61195     61196
     61198     61197     61201     61202     61199     61197     61201     61202
     61200     61197     61201     61202     61204     61203     61207     61208
     61205     61203     61207     61208     61206     61203     61207     61208
     61210     61209     61213     61214     61211     61209     61213     61214
     61212     61209     61213     61214     61216     61215     61219     61220
     61217     61215     61219     61220     61218     61215     61219     61220
     61222     61221     61225     61226     61223     61221     61225     61226
     61224     61221     61225     61226     61228     61227     61231     61232
     61229     61227     61231     61232     61230     61227     61231     61232
     61234     61233     61237     61238     61235     61233     61237     61238
     61236     61233     61237     61238     61240     61239     61243     61244
     61241     61239     61243     61244     61242     61239     61243     61244
     61246     61245     61249     61250     61247     61245     61249     61250
     61248     61245     61249     61250     61252     61251     61255     61256
     61253     61251     61255     61256     61254     61251     61255     61256
     61258     61257     61261     61262     61259     61257     61261     61262
     61260     61257     61261     61262     61264     61263     61267     61268
     61265     61263     61267     61268     61266     61263     61267     61268
     61270     61269     61273     61274     61271     61269     61273     61274
     61272     61269     61273     61274     61276     61275     61279     61280
     61277     61275     61279     61280     61278     61275     61279     61280
     61282     61281     61285     61286     61283     61281     61285     61286
     61284     61281     61285     61286     61288     61287     61291     61292
     61289     61287     61291     61292     61290     61287     61291     61292
     61294     61293     61297     61298     61295     61293     61297     61298
     61296     61293     61297     61298     61300     61299     61303     61304
     61301     61299     61303     61304     61302     61299     61303     61304
     61306     61305     61309     61310     61307     61305     61309     61310
     61308     61305     61309     61310     61312     61311     61315     61316
     61313     61311     61315     61316     61314     61311     61315     61316
     61318     61317     61321     61322     61319     61317     61321     61322
     61320     61317     61321     61322     61324     61323     61327     61328
     61325     61323     61327     61328     61326     61323     61327     61328
     61330     61329     61333     61334     61331     61329     61333     61334
     61332     61329     61333     61334     61336     61335     61339     61340
     61337     61335     61339     61340     61338     61335     61339     61340
     61342     61341     61345     61346     61343     61341     61345     61346
     61344     61341     61345     61346     61348     61347     61351     61352
     61349     61347     61351     61352     61350     61347     61351     61352
     61354     61353     61357     61358     61355     61353     61357     61358
     61356     61353     61357     61358     61360     61359     61363     61364
     61361     61359     61363     61364     61362     61359     61363     61364
     61366     61365     61369     61370     61367     61365     61369     61370
     61368     61365     61369     61370     61372     61371     61375     61376
     61373     61371     61375     61376     61374     61371     61375     61376
     61378     61377     61381     61382     61379     61377     61381     61382
     61380     61377     61381     61382     61384     61383     61387     61388
     61385     61383     61387     61388     61386     61383     61387     61388
     61390     61389     61393     61394     61391     61389     61393     61394
     61392     61389     61393     61394     61396     61395     61399     61400
     61397     61395     61399     61400     61398     61395     61399     61400
     61402     61401     61405     61406     61403     61401     61405     61406
     61404     61401     61405     61406     61408     61407     61411     61412
     61409     61407     61411     61412     61410     61407     61411     61412
     61414     61413     61417     61418     61415     61413     61417     61418
     61416     61413     61417     61418     61420     61419     61423     61424
     61421     61419     61423     61424     61422     61419     61423     61424
     61426     61425     61429     61430     61427     61425     61429     61430
     61428     61425     61429     61430     61432     61431     61435     61436
     61433     61431     61435     61436     61434     61431     61435     61436
     61438     61437     61441     61442     61439     61437     61441     61442
     61440     61437     61441     61442     61444     61443     61447     61448
     61445     61443     61447     61448     61446     61443     61447     61448
     61450     61449     61453     61454     61451     61449     61453     61454
     61452     61449     61453     61454     61456     61455     61459     61460
     61457     61455     61459     61460     61458     61455     61459     61460
     61462     61461     61465     61466     61463     61461     61465     61466
     61464     61461     61465     61466     61468     61467     61471     61472
     61469     61467     61471     61472     61470     61467     61471     61472
     61474     61473     61477     61478     61475     61473     61477     61478
     61476     61473     61477     61478     61480     61479     61483     61484
     61481     61479     61483     61484     61482     61479     61483     61484
     61486     61485     61489     61490     61487     61485     61489     61490
     61488     61485     61489     61490     61492     61491     61495     61496
     61493     61491     61495     61496     61494     61491     61495     61496
     61498     61497     61501     61502     61499     61497     61501     61502
     61500     61497     61501     61502     61504     61503     61507     61508
     61505     61503     61507     61508     61506     61503     61507     61508
     61510     61509     61513     61514     61511     61509     61513     61514
     61512     61509     61513     61514     61516     61515     61519     61520
     61517     61515     61519     61520     61518     61515     61519     61520
     61522     61521     61525     61526     61523     61521     61525     61526
     61524     61521     61525     61526     61528     61527     61531     61532
     61529     61527     61531     61532     61530     61527     61531     61532
     61534     61533     61537     61538     61535     61533     61537     61538
     61536     61533     61537     61538     61540     61539     61543     61544
     61541     61539     61543     61544     61542     61539     61543     61544
     61546     61545     61549     61550     61547     61545     61549     61550
     61548     61545     61549     61550     61552     61551     61555     61556
     61553     61551     61555     61556     61554     61551     61555     61556
     61558     61557     61561     61562     61559     61557     61561     61562
     61560     61557     61561     61562     61564     61563     61567     61568
     61565     61563     61567     61568     61566     61563     61567     61568
     61570     61569     61573     61574     61571     61569     61573     61574
     61572     61569     61573     61574     61576     61575     61579     61580
     61577     61575     61579     61580     61578     61575     61579     61580
     61582     61581     61585     61586     61583     61581     61585     61586
     61584     61581     61585     61586     61588     61587     61591     61592
     61589     61587     61591     61592     61590     61587     61591     61592
     61594     61593     61597     61598     61595     61593     61597     61598
     61596     61593     61597     61598     61600     61599     61603     61604
     61601     61599     61603     61604     61602     61599     61603     61604
     61606     61605     61609     61610     61607     61605     61609     61610
     61608     61605     61609     61610     61612     61611     61615     61616
     61613     61611     61615     61616     61614     61611     61615     61616
     61618     61617     61621     61622     61619     61617     61621     61622
     61620     61617     61621     61622     61624     61623     61627     61628
     61625     61623     61627     61628     61626     61623     61627     61628
     61630     61629     61633     61634     61631     61629     61633     61634
     61632     61629     61633     61634     61636     61635     61639     61640
     61637     61635     61639     61640     61638     61635     61639     61640
     61642     61641     61645     61646     61643     61641     61645     61646
     61644     61641     61645     61646     61648     61647     61651     61652
     61649     61647     61651     61652     61650     61647     61651     61652
     61654     61653     61657     61658     61655     61653     61657     61658
     61656     61653     61657     61658     61660     61659     61663     61664
     61661     61659     61663     61664     61662     61659     61663     61664
     61666     61665     61669     61670     61667     61665     61669     61670
     61668     61665     61669     61670     61672     61671     61675     61676
     61673     61671     61675     61676     61674     61671     61675     61676
     61678     61677     61681     61682     61679     61677     61681     61682
     61680     61677     61681     61682     61684     61683     61687     61688
     61685     61683     61687     61688     61686     61683     61687     61688
     61690     61689     61693     61694     61691     61689     61693     61694
     61692     61689     61693     61694     61696     61695     61699     61700
     61697     61695     61699     61700     61698     61695     61699     61700
     61702     61701     61705     61706     61703     61701     61705     61706
     61704     61701     61705     61706     61708     61707     61711     61712
     61709     61707     61711     61712     61710     61707     61711     61712
     61714     61713     61717     61718     61715     61713     61717     61718
     61716     61713     61717     61718     61720     61719     61723     61724
     61721     61719     61723     61724     61722     61719     61723     61724
     61726     61725     61729     61730     61727     61725     61729     61730
     61728     61725     61729     61730     61732     61731     61735     61736
     61733     61731     61735     61736     61734     61731     61735     61736
     61738     61737     61741     61742     61739     61737     61741     61742
     61740     61737     61741     61742     61744     61743     61747     61748
     61745     61743     61747     61748     61746     61743     61747     61748
     61750     61749     61753     61754     61751     61749     61753     61754
     61752     61749     61753     61754     61756     61755     61759     61760
     61757     61755     61759     61760     61758     61755     61759     61760
     61762     61761     61765     61766     61763     61761     61765     61766
     61764     61761     61765     61766     61768     61767     61771     61772
     61769     61767     61771     61772     61770     61767     61771     61772
     61774     61773     61777     61778     61775     61773     61777     61778
     61776     61773     61777     61778     61780     61779     61783     61784
     61781     61779     61783     61784     61782     61779     61783     61784
     61786     61785     61789     61790     61787     61785     61789     61790
     61788     61785     61789     61790     61792     61791     61795     61796
     61793     61791     61795     61796     61794     61791     61795     61796
     61798     61797     61801     61802     61799     61797     61801     61802
     61800     61797     61801     61802     61804     61803     61807     61808
     61805     61803     61807     61808     61806     61803     61807     61808
     61810     61809     61813     61814     61811     61809     61813     61814
     61812     61809     61813     61814     61816     61815     61819     61820
     61817     61815     61819     61820     61818     61815     61819     61820
     61822     61821     61825     61826     61823     61821     61825     61826
     61824     61821     61825     61826     61828     61827     61831     61832
     61829     61827     61831     61832     61830     61827     61831     61832
     61834     61833     61837     61838     61835     61833     61837     61838
     61836     61833     61837     61838     61840     61839     61843     61844
     61841     61839     61843     61844     61842     61839     61843     61844
     61846     61845     61849     61850     61847     61845     61849     61850
     61848     61845     61849     61850     61852     61851     61855     61856
     61853     61851     61855     61856     61854     61851     61855     61856
     61858     61857     61861     61862     61859     61857     61861     61862
     61860     61857     61861     61862     61864     61863     61867     61868
     61865     61863     61867     61868     61866     61863     61867     61868
     61870     61869     61873     61874     61871     61869     61873     61874
     61872     61869     61873     61874     61876     61875     61879     61880
     61877     61875     61879     61880     61878     61875     61879     61880
     61882     61881     61885     61886     61883     61881     61885     61886
     61884     61881     61885     61886     61888     61887     61891     61892
     61889     61887     61891     61892     61890     61887     61891     61892
     61894     61893     61897     61898     61895     61893     61897     61898
     61896     61893     61897     61898     61900     61899     61903     61904
     61901     61899     61903     61904     61902     61899     61903     61904
     61906     61905     61909     61910     61907     61905     61909     61910
     61908     61905     61909     61910     61912     61911     61915     61916
     61913     61911     61915     61916     61914     61911     61915     61916
     61918     61917     61921     61922     61919     61917     61921     61922
     61920     61917     61921     61922     61924     61923     61927     61928
     61925     61923     61927     61928     61926     61923     61927     61928
     61930     61929     61933     61934     61931     61929     61933     61934
     61932     61929     61933     61934     61936     61935     61939     61940
     61937     61935     61939     61940     61938     61935     61939     61940
     61942     61941     61945     61946     61943     61941     61945     61946
     61944     61941     61945     61946     61948     61947     61951     61952
     61949     61947     61951     61952     61950     61947     61951     61952
     61954     61953     61957     61958     61955     61953     61957     61958
     61956     61953     61957     61958     61960     61959     61963     61964
     61961     61959     61963     61964     61962     61959     61963     61964
     61966     61965     61969     61970     61967     61965     61969     61970
     61968     61965     61969     61970     61972     61971     61975     61976
     61973     61971     61975     61976     61974     61971     61975     61976
     61978     61977     61981     61982     61979     61977     61981     61982
     61980     61977     61981     61982     61984     61983     61987     61988
     61985     61983     61987     61988     61986     61983     61987     61988
     61990     61989     61993     61994     61991     61989     61993     61994
     61992     61989     61993     61994     61996     61995     61999     62000
     61997     61995     61999     62000     61998     61995     61999     62000
     62002     62001     62005     62006     62003     62001     62005     62006
     62004     62001     62005     62006     62008     62007     62011     62012
     62009     62007     62011     62012     62010     62007     62011     62012
     62014     62013     62017     62018     62015     62013     62017     62018
     62016     62013     62017     62018     62020     62019     62023     62024
     62021     62019     62023     62024     62022     62019     62023     62024
     62026     62025     62029     62030     62027     62025     62029     62030
     62028     62025     62029     62030     62032     62031     62035     62036
     62033     62031     62035     62036     62034     62031     62035     62036
     62038     62037     62041     62042     62039     62037     62041     62042
     62040     62037     62041     62042     62044     62043     62047     62048
     62045     62043     62047     62048     62046     62043     62047     62048
     62050     62049     62053     62054     62051     62049     62053     62054
     62052     62049     62053     62054     62056     62055     62059     62060
     62057     62055     62059     62060     62058     62055     62059     62060
     62062     62061     62065     62066     62063     62061     62065     62066
     62064     62061     62065     62066     62068     62067     62071     62072
     62069     62067     62071     62072     62070     62067     62071     62072
     62074     62073     62077     62078     62075     62073     62077     62078
     62076     62073     62077     62078     62080     62079     62083     62084
     62081     62079     62083     62084     62082     62079     62083     62084
     62086     62085     62089     62090     62087     62085     62089     62090
     62088     62085     62089     62090     62092     62091     62095     62096
     62093     62091     62095     62096     62094     62091     62095     62096
     62098     62097     62101     62102     62099     62097     62101     62102
     62100     62097     62101     62102     62104     62103     62107     62108
     62105     62103     62107     62108     62106     62103     62107     62108
     62110     62109     62113     62114     62111     62109     62113     62114
     62112     62109     62113     62114     62116     62115     62119     62120
     62117     62115     62119     62120     62118     62115     62119     62120
     62122     62121     62125     62126     62123     62121     62125     62126
     62124     62121     62125     62126     62128     62127     62131     62132
     62129     62127     62131     62132     62130     62127     62131     62132
     62134     62133     62137     62138     62135     62133     62137     62138
     62136     62133     62137     62138     62140     62139     62143     62144
     62141     62139     62143     62144     62142     62139     62143     62144
     62146     62145     62149     62150     62147     62145     62149     62150
     62148     62145     62149     62150     62152     62151     62155     62156
     62153     62151     62155     62156     62154     62151     62155     62156
     62158     62157     62161     62162     62159     62157     62161     62162
     62160     62157     62161     62162     62164     62163     62167     62168
     62165     62163     62167     62168     62166     62163     62167     62168
     62170     62169     62173     62174     62171     62169     62173     62174
     62172     62169     62173     62174     62176     62175     62179     62180
     62177     62175     62179     62180     62178     62175     62179     62180
     62182     62181     62185     62186     62183     62181     62185     62186
     62184     62181     62185     62186     62188     62187     62191     62192
     62189     62187     62191     62192     62190     62187     62191     62192
     62194     62193     62197     62198     62195     62193     62197     62198
     62196     62193     62197     62198     62200     62199     62203     62204
     62201     62199     62203     62204     62202     62199     62203     62204
     62206     62205     62209     62210     62207     62205     62209     62210
     62208     62205     62209     62210     62212     62211     62215     62216
     62213     62211     62215     62216     62214     62211     62215     62216
     62218     62217     62221     62222     62219     62217     62221     62222
     62220     62217     62221     62222     62224     62223     62227     62228
     62225     62223     62227     62228     62226     62223     62227     62228
     62230     62229     62233     62234     62231     62229     62233     62234
     62232     62229     62233     62234     62236     62235     62239     62240
     62237     62235     62239     62240     62238     62235     62239     62240
     62242     62241     62245     62246     62243     62241     62245     62246
     62244     62241     62245     62246     62248     62247     62251     62252
     62249     62247     62251     62252     62250     62247     62251     62252
     62254     62253     62257     62258     62255     62253     62257     62258
     62256     62253     62257     62258     62260     62259     62263     62264
     62261     62259     62263     62264     62262     62259     62263     62264
     62266     62265     62269     62270     62267     62265     62269     62270
     62268     62265     62269     62270     62272     62271     62275     62276
     62273     62271     62275     62276     62274     62271     62275     62276
     62278     62277     62281     62282     62279     62277     62281     62282
     62280     62277     62281     62282     62284     62283     62287     62288
     62285     62283     62287     62288     62286     62283     62287     62288
     62290     62289     62293     62294     62291     62289     62293     62294
     62292     62289     62293     62294     62296     62295     62299     62300
     62297     62295     62299     62300     62298     62295     62299     62300
     62302     62301     62305     62306     62303     62301     62305     62306
     62304     62301     62305     62306     62308     62307     62311     62312
     62309     62307     62311     62312     62310     62307     62311     62312
     62314     62313     62317     62318     62315     62313     62317     62318
     62316     62313     62317     62318     62320     62319     62323     62324
     62321     62319     62323     62324     62322     62319     62323     62324
     62326     62325     62329     62330     62327     62325     62329     62330
     62328     62325     62329     62330     62332     62331     62335     62336
     62333     62331     62335     62336     62334     62331     62335     62336
     62338     62337     62341     62342     62339     62337     62341     62342
     62340     62337     62341     62342     62344     62343     62347     62348
     62345     62343     62347     62348     62346     62343     62347     62348
     62350     62349     62353     62354     62351     62349     62353     62354
     62352     62349     62353     62354     62356     62355     62359     62360
     62357     62355     62359     62360     62358     62355     62359     62360
     62362     62361     62365     62366     62363     62361     62365     62366
     62364     62361     62365     62366     62368     62367     62371     62372
     62369     62367     62371     62372     62370     62367     62371     62372
     62374     62373     62377     62378     62375     62373     62377     62378
     62376     62373     62377     62378     62380     62379     62383     62384
     62381     62379     62383     62384     62382     62379     62383     62384
     62386     62385     62389     62390     62387     62385     62389     62390
     62388     62385     62389     62390     62392     62391     62395     62396
     62393     62391     62395     62396     62394     62391     62395     62396
     62398     62397     62401     62402     62399     62397     62401     62402
     62400     62397     62401     62402     62404     62403     62407     62408
     62405     62403     62407     62408     62406     62403     62407     62408
     62410     62409     62413     62414     62411     62409     62413     62414
     62412     62409     62413     62414     62416     62415     62419     62420
     62417     62415     62419     62420     62418     62415     62419     62420
     62422     62421     62425     62426     62423     62421     62425     62426
     62424     62421     62425     62426     62428     62427     62431     62432
     62429     62427     62431     62432     62430     62427     62431     62432
     62434     62433     62437     62438     62435     62433     62437     62438
     62436     62433     62437     62438     62440     62439     62443     62444
     62441     62439     62443     62444     62442     62439     62443     62444
     62446     62445     62449     62450     62447     62445     62449     62450
     62448     62445     62449     62450     62452     62451     62455     62456
     62453     62451     62455     62456     62454     62451     62455     62456
     62458     62457     62461     62462     62459     62457     62461     62462
     62460     62457     62461     62462     62464     62463     62467     62468
     62465     62463     62467     62468     62466     62463     62467     62468
     62470     62469     62473     62474     62471     62469     62473     62474
     62472     62469     62473     62474     62476     62475     62479     62480
     62477     62475     62479     62480     62478     62475     62479     62480
     62482     62481     62485     62486     62483     62481     62485     62486
     62484     62481     62485     62486     62488     62487     62491     62492
     62489     62487     62491     62492     62490     62487     62491     62492
     62494     62493     62497     62498     62495     62493     62497     62498
     62496     62493     62497     62498     62500     62499     62503     62504
     62501     62499     62503     62504     62502     62499     62503     62504
     62506     62505     62509     62510     62507     62505     62509     62510
     62508     62505     62509     62510     62512     62511     62515     62516
     62513     62511     62515     62516     62514     62511     62515     62516
     62518     62517     62521     62522     62519     62517     62521     62522
     62520     62517     62521     62522     62524     62523     62527     62528
     62525     62523     62527     62528     62526     62523     62527     62528
     62530     62529     62533     62534     62531     62529     62533     62534
     62532     62529     62533     62534     62536     62535     62539     62540
     62537     62535     62539     62540     62538     62535     62539     62540
     62542     62541     62545     62546     62543     62541     62545     62546
     62544     62541     62545     62546     62548     62547     62551     62552
     62549     62547     62551     62552     62550     62547     62551     62552
     62554     62553     62557     62558     62555     62553     62557     62558
     62556     62553     62557     62558     62560     62559     62563     62564
     62561     62559     62563     62564     62562     62559     62563     62564
     62566     62565     62569     62570     62567     62565     62569     62570
     62568     62565     62569     62570     62572     62571     62575     62576
     62573     62571     62575     62576     62574     62571     62575     62576
     62578     62577     62581     62582     62579     62577     62581     62582
     62580     62577     62581     62582     62584     62583     62587     62588
     62585     62583     62587     62588     62586     62583     62587     62588
     62590     62589     62593     62594     62591     62589     62593     62594
     62592     62589     62593     62594     62596     62595     62599     62600
     62597     62595     62599     62600     62598     62595     62599     62600
     62602     62601     62605     62606     62603     62601     62605     62606
     62604     62601     62605     62606     62608     62607     62611     62612
     62609     62607     62611     62612     62610     62607     62611     62612
     62614     62613     62617     62618     62615     62613     62617     62618
     62616     62613     62617     62618     62620     62619     62623     62624
     62621     62619     62623     62624     62622     62619     62623     62624
     62626     62625     62629     62630     62627     62625     62629     62630
     62628     62625     62629     62630     62632     62631     62635     62636
     62633     62631     62635     62636     62634     62631     62635     62636
     62638     62637     62641     62642     62639     62637     62641     62642
     62640     62637     62641     62642     62644     62643     62647     62648
     62645     62643     62647     62648     62646     62643     62647     62648
     62650     62649     62653     62654     62651     62649     62653     62654
     62652     62649     62653     62654     62656     62655     62659     62660
     62657     62655     62659     62660     62658     62655     62659     62660
     62662     62661     62665     62666     62663     62661     62665     62666
     62664     62661     62665     62666     62668     62667     62671     62672
     62669     62667     62671     62672     62670     62667     62671     62672
     62674     62673     62677     62678     62675     62673     62677     62678
     62676     62673     62677     62678     62680     62679     62683     62684
     62681     62679     62683     62684     62682     62679     62683     62684
     62686     62685     62689     62690     62687     62685     62689     62690
     62688     62685     62689     62690     62692     62691     62695     62696
     62693     62691     62695     62696     62694     62691     62695     62696
     62698     62697     62701     62702     62699     62697     62701     62702
     62700     62697     62701     62702     62704     62703     62707     62708
     62705     62703     62707     62708     62706     62703     62707     62708
     62710     62709     62713     62714     62711     62709     62713     62714
     62712     62709     62713     62714     62716     62715     62719     62720
     62717     62715     62719     62720     62718     62715     62719     62720
     62722     62721     62725     62726     62723     62721     62725     62726
     62724     62721     62725     62726     62728     62727     62731     62732
     62729     62727     62731     62732     62730     62727     62731     62732
     62734     62733     62737     62738     62735     62733     62737     62738
     62736     62733     62737     62738     62740     62739     62743     62744
     62741     62739     62743     62744     62742     62739     62743     62744
     62746     62745     62749     62750     62747     62745     62749     62750
     62748     62745     62749     62750     62752     62751     62755     62756
     62753     62751     62755     62756     62754     62751     62755     62756
     62758     62757     62761     62762     62759     62757     62761     62762
     62760     62757     62761     62762     62764     62763     62767     62768
     62765     62763     62767     62768     62766     62763     62767     62768
     62770     62769     62773     62774     62771     62769     62773     62774
     62772     62769     62773     62774     62776     62775     62779     62780
     62777     62775     62779     62780     62778     62775     62779     62780
     62782     62781     62785     62786     62783     62781     62785     62786
     62784     62781     62785     62786     62788     62787     62791     62792
     62789     62787     62791     62792     62790     62787     62791     62792
     62794     62793     62797     62798     62795     62793     62797     62798
     62796     62793     62797     62798     62800     62799     62803     62804
     62801     62799     62803     62804     62802     62799     62803     62804
     62806     62805     62809     62810     62807     62805     62809     62810
     62808     62805     62809     62810     62812     62811     62815     62816
     62813     62811     62815     62816     62814     62811     62815     62816
     62818     62817     62821     62822     62819     62817     62821     62822
     62820     62817     62821     62822     62824     62823     62827     62828
     62825     62823     62827     62828     62826     62823     62827     62828
     62830     62829     62833     62834     62831     62829     62833     62834
     62832     62829     62833     62834     62836     62835     62839     62840
     62837     62835     62839     62840     62838     62835     62839     62840
     62842     62841     62845     62846     62843     62841     62845     62846
     62844     62841     62845     62846     62848     62847     62851     62852
     62849     62847     62851     62852     62850     62847     62851     62852
     62854     62853     62857     62858     62855     62853     62857     62858
     62856     62853     62857     62858     62860     62859     62863     62864
     62861     62859     62863     62864     62862     62859     62863     62864
     62866     62865     62869     62870     62867     62865     62869     62870
     62868     62865     62869     62870     62872     62871     62875     62876
     62873     62871     62875     62876     62874     62871     62875     62876
     62878     62877     62881     62882     62879     62877     62881     62882
     62880     62877     62881     62882     62884     62883     62887     62888
     62885     62883     62887     62888     62886     62883     62887     62888
     62890     62889     62893     62894     62891     62889     62893     62894
     62892     62889     62893     62894     62896     62895     62899     62900
     62897     62895     62899     62900     62898     62895     62899     62900
     62902     62901     62905     62906     62903     62901     62905     62906
     62904     62901     62905     62906     62908     62907     62911     62912
     62909     62907     62911     62912     62910     62907     62911     62912
     62914     62913     62917     62918     62915     62913     62917     62918
     62916     62913     62917     62918     62920     62919     62923     62924
     62921     62919     62923     62924     62922     62919     62923     62924
     62926     62925     62929     62930     62927     62925     62929     62930
     62928     62925     62929     62930     62932     62931     62935     62936
     62933     62931     62935     62936     62934     62931     62935     62936
     62938     62937     62941     62942     62939     62937     62941     62942
     62940     62937     62941     62942     62944     62943     62947     62948
     62945     62943     62947     62948     62946     62943     62947     62948
     62950     62949     62953     62954     62951     62949     62953     62954
     62952     62949     62953     62954     62956     62955     62959     62960
     62957     62955     62959     62960     62958     62955     62959     62960
     62962     62961     62965     62966     62963     62961     62965     62966
     62964     62961     62965     62966     62968     62967     62971     62972
     62969     62967     62971     62972     62970     62967     62971     62972
     62974     62973     62977     62978     62975     62973     62977     62978
     62976     62973     62977     62978     62980     62979     62983     62984
     62981     62979     62983     62984     62982     62979     62983     62984
     62986     62985     62989     62990     62987     62985     62989     62990
     62988     62985     62989     62990     62992     62991     62995     62996
     62993     62991     62995     62996     62994     62991     62995     62996
     62998     62997     63001     63002     62999     62997     63001     63002
     63000     62997     63001     63002     63004     63003     63007     63008
     63005     63003     63007     63008     63006     63003     63007     63008
     63010     63009     63013     63014     63011     63009     63013     63014
     63012     63009     63013     63014     63016     63015     63019     63020
     63017     63015     63019     63020     63018     63015     63019     63020
     63022     63021     63025     63026     63023     63021     63025     63026
     63024     63021     63025     63026     63028     63027     63031     63032
     63029     63027     63031     63032     63030     63027     63031     63032
     63034     63033     63037     63038     63035     63033     63037     63038
     63036     63033     63037     63038     63040     63039     63043     63044
     63041     63039     63043     63044     63042     63039     63043     63044
     63046     63045     63049     63050     63047     63045     63049     63050
     63048     63045     63049     63050     63052     63051     63055     63056
     63053     63051     63055     63056     63054     63051     63055     63056
     63058     63057     63061     63062     63059     63057     63061     63062
     63060     63057     63061     63062     63064     63063     63067     63068
     63065     63063     63067     63068     63066     63063     63067     63068
     63070     63069     63073     63074     63071     63069     63073     63074
     63072     63069     63073     63074     63076     63075     63079     63080
     63077     63075     63079     63080     63078     63075     63079     63080
     63082     63081     63085     63086     63083     63081     63085     63086
     63084     63081     63085     63086     63088     63087     63091     63092
     63089     63087     63091     63092     63090     63087     63091     63092
     63094     63093     63097     63098     63095     63093     63097     63098
     63096     63093     63097     63098     63100     63099     63103     63104
     63101     63099     63103     63104     63102     63099     63103     63104
     63106     63105     63109     63110     63107     63105     63109     63110
     63108     63105     63109     63110     63112     63111     63115     63116
     63113     63111     63115     63116     63114     63111     63115     63116
     63118     63117     63121     63122     63119     63117     63121     63122
     63120     63117     63121     63122     63124     63123     63127     63128
     63125     63123     63127     63128     63126     63123     63127     63128
     63130     63129     63133     63134     63131     63129     63133     63134
     63132     63129     63133     63134     63136     63135     63139     63140
     63137     63135     63139     63140     63138     63135     63139     63140
     63142     63141     63145     63146     63143     63141     63145     63146
     63144     63141     63145     63146     63148     63147     63151     63152
     63149     63147     63151     63152     63150     63147     63151     63152
     63154     63153     63157     63158     63155     63153     63157     63158
     63156     63153     63157     63158     63160     63159     63163     63164
     63161     63159     63163     63164     63162     63159     63163     63164
     63166     63165     63169     63170     63167     63165     63169     63170
     63168     63165     63169     63170     63172     63171     63175     63176
     63173     63171     63175     63176     63174     63171     63175     63176
     63178     63177     63181     63182     63179     63177     63181     63182
     63180     63177     63181     63182     63184     63183     63187     63188
     63185     63183     63187     63188     63186     63183     63187     63188
     63190     63189     63193     63194     63191     63189     63193     63194
     63192     63189     63193     63194     63196     63195     63199     63200
     63197     63195     63199     63200     63198     63195     63199     63200
     63202     63201     63205     63206     63203     63201     63205     63206
     63204     63201     63205     63206     63208     63207     63211     63212
     63209     63207     63211     63212     63210     63207     63211     63212
     63214     63213     63217     63218     63215     63213     63217     63218
     63216     63213     63217     63218     63220     63219     63223     63224
     63221     63219     63223     63224     63222     63219     63223     63224
     63226     63225     63229     63230     63227     63225     63229     63230
     63228     63225     63229     63230     63232     63231     63235     63236
     63233     63231     63235     63236     63234     63231     63235     63236
     63238     63237     63241     63242     63239     63237     63241     63242
     63240     63237     63241     63242     63244     63243     63247     63248
     63245     63243     63247     63248     63246     63243     63247     63248
     63250     63249     63253     63254     63251     63249     63253     63254
     63252     63249     63253     63254     63256     63255     63259     63260
     63257     63255     63259     63260     63258     63255     63259     63260
     63262     63261     63265     63266     63263     63261     63265     63266
     63264     63261     63265     63266     63268     63267     63271     63272
     63269     63267     63271     63272     63270     63267     63271     63272
     63274     63273     63277     63278     63275     63273     63277     63278
     63276     63273     63277     63278     63280     63279     63283     63284
     63281     63279     63283     63284     63282     63279     63283     63284
     63286     63285     63289     63290     63287     63285     63289     63290
     63288     63285     63289     63290     63292     63291     63295     63296
     63293     63291     63295     63296     63294     63291     63295     63296
     63298     63297     63301     63302     63299     63297     63301     63302
     63300     63297     63301     63302     63304     63303     63307     63308
     63305     63303     63307     63308     63306     63303     63307     63308
     63310     63309     63313     63314     63311     63309     63313     63314
     63312     63309     63313     63314     63316     63315     63319     63320
     63317     63315     63319     63320     63318     63315     63319     63320
     63322     63321     63325     63326     63323     63321     63325     63326
     63324     63321     63325     63326     63328     63327     63331     63332
     63329     63327     63331     63332     63330     63327     63331     63332
     63334     63333     63337     63338     63335     63333     63337     63338
     63336     63333     63337     63338     63340     63339     63343     63344
     63341     63339     63343     63344     63342     63339     63343     63344
     63346     63345     63349     63350     63347     63345     63349     63350
     63348     63345     63349     63350     63352     63351     63355     63356
     63353     63351     63355     63356     63354     63351     63355     63356
     63358     63357     63361     63362     63359     63357     63361     63362
     63360     63357     63361     63362     63364     63363     63367     63368
     63365     63363     63367     63368     63366     63363     63367     63368
     63370     63369     63373     63374     63371     63369     63373     63374
     63372     63369     63373     63374     63376     63375     63379     63380
     63377     63375     63379     63380     63378     63375     63379     63380
     63382     63381     63385     63386     63383     63381     63385     63386
     63384     63381     63385     63386     63388     63387     63391     63392
     63389     63387     63391     63392     63390     63387     63391     63392
     63394     63393     63397     63398     63395     63393     63397     63398
     63396     63393     63397     63398     63400     63399     63403     63404
     63401     63399     63403     63404     63402     63399     63403     63404
     63406     63405     63409     63410     63407     63405     63409     63410
     63408     63405     63409     63410     63412     63411     63415     63416
     63413     63411     63415     63416     63414     63411     63415     63416
     63418     63417     63421     63422     63419     63417     63421     63422
     63420     63417     63421     63422     63424     63423     63427     63428
     63425     63423     63427     63428     63426     63423     63427     63428
     63430     63429     63433     63434     63431     63429     63433     63434
     63432     63429     63433     63434     63436     63435     63439     63440
     63437     63435     63439     63440     63438     63435     63439     63440
     63442     63441     63445     63446     63443     63441     63445     63446
     63444     63441     63445     63446     63448     63447     63451     63452
     63449     63447     63451     63452     63450     63447     63451     63452
     63454     63453     63457     63458     63455     63453     63457     63458
     63456     63453     63457     63458     63460     63459     63463     63464
     63461     63459     63463     63464     63462     63459     63463     63464
     63466     63465     63469     63470     63467     63465     63469     63470
     63468     63465     63469     63470     63472     63471     63475     63476
     63473     63471     63475     63476     63474     63471     63475     63476
     63478     63477     63481     63482     63479     63477     63481     63482
     63480     63477     63481     63482     63484     63483     63487     63488
     63485     63483     63487     63488     63486     63483     63487     63488
     63490     63489     63493     63494     63491     63489     63493     63494
     63492     63489     63493     63494     63496     63495     63499     63500
     63497     63495     63499     63500     63498     63495     63499     63500
     63502     63501     63505     63506     63503     63501     63505     63506
     63504     63501     63505     63506     63508     63507     63511     63512
     63509     63507     63511     63512     63510     63507     63511     63512
     63514     63513     63517     63518     63515     63513     63517     63518
     63516     63513     63517     63518     63520     63519     63523     63524
     63521     63519     63523     63524     63522     63519     63523     63524
     63526     63525     63529     63530     63527     63525     63529     63530
     63528     63525     63529     63530     63532     63531     63535     63536
     63533     63531     63535     63536     63534     63531     63535     63536
     63538     63537     63541     63542     63539     63537     63541     63542
     63540     63537     63541     63542     63544     63543     63547     63548
     63545     63543     63547     63548     63546     63543     63547     63548
     63550     63549     63553     63554     63551     63549     63553     63554
     63552     63549     63553     63554     63556     63555     63559     63560
     63557     63555     63559     63560     63558     63555     63559     63560
     63562     63561     63565     63566     63563     63561     63565     63566
     63564     63561     63565     63566     63568     63567     63571     63572
     63569     63567     63571     63572     63570     63567     63571     63572
     63574     63573     63577     63578     63575     63573     63577     63578
     63576     63573     63577     63578     63580     63579     63583     63584
     63581     63579     63583     63584     63582     63579     63583     63584
     63586     63585     63589     63590     63587     63585     63589     63590
     63588     63585     63589     63590     63592     63591     63595     63596
     63593     63591     63595     63596     63594     63591     63595     63596
     63598     63597     63601     63602     63599     63597     63601     63602
     63600     63597     63601     63602     63604     63603     63607     63608
     63605     63603     63607     63608     63606     63603     63607     63608
     63610     63609     63613     63614     63611     63609     63613     63614
     63612     63609     63613     63614     63616     63615     63619     63620
     63617     63615     63619     63620     63618     63615     63619     63620
     63622     63621     63625     63626     63623     63621     63625     63626
     63624     63621     63625     63626     63628     63627     63631     63632
     63629     63627     63631     63632     63630     63627     63631     63632
     63634     63633     63637     63638     63635     63633     63637     63638
     63636     63633     63637     63638     63640     63639     63643     63644
     63641     63639     63643     63644     63642     63639     63643     63644
     63646     63645     63649     63650     63647     63645     63649     63650
     63648     63645     63649     63650     63652     63651     63655     63656
     63653     63651     63655     63656     63654     63651     63655     63656
     63658     63657     63661     63662     63659     63657     63661     63662
     63660     63657     63661     63662     63664     63663     63667     63668
     63665     63663     63667     63668     63666     63663     63667     63668
     63670     63669     63673     63674     63671     63669     63673     63674
     63672     63669     63673     63674     63676     63675     63679     63680
     63677     63675     63679     63680     63678     63675     63679     63680
     63682     63681     63685     63686     63683     63681     63685     63686
     63684     63681     63685     63686     63688     63687     63691     63692
     63689     63687     63691     63692     63690     63687     63691     63692
     63694     63693     63697     63698     63695     63693     63697     63698
     63696     63693     63697     63698     63700     63699     63703     63704
     63701     63699     63703     63704     63702     63699     63703     63704
     63706     63705     63709     63710     63707     63705     63709     63710
     63708     63705     63709     63710     63712     63711     63715     63716
     63713     63711     63715     63716     63714     63711     63715     63716
     63718     63717     63721     63722     63719     63717     63721     63722
     63720     63717     63721     63722     63724     63723     63727     63728
     63725     63723     63727     63728     63726     63723     63727     63728
     63730     63729     63733     63734     63731     63729     63733     63734
     63732     63729     63733     63734     63736     63735     63739     63740
     63737     63735     63739     63740     63738     63735     63739     63740
     63742     63741     63745     63746     63743     63741     63745     63746
     63744     63741     63745     63746     63748     63747     63751     63752
     63749     63747     63751     63752     63750     63747     63751     63752
     63754     63753     63757     63758     63755     63753     63757     63758
     63756     63753     63757     63758     63760     63759     63763     63764
     63761     63759     63763     63764     63762     63759     63763     63764
     63766     63765     63769     63770     63767     63765     63769     63770
     63768     63765     63769     63770     63772     63771     63775     63776
     63773     63771     63775     63776     63774     63771     63775     63776
     63778     63777     63781     63782     63779     63777     63781     63782
     63780     63777     63781     63782     63784     63783     63787     63788
     63785     63783     63787     63788     63786     63783     63787     63788
     63790     63789     63793     63794     63791     63789     63793     63794
     63792     63789     63793     63794     63796     63795     63799     63800
     63797     63795     63799     63800     63798     63795     63799     63800
     63802     63801     63805     63806     63803     63801     63805     63806
     63804     63801     63805     63806     63808     63807     63811     63812
     63809     63807     63811     63812     63810     63807     63811     63812
     63814     63813     63817     63818     63815     63813     63817     63818
     63816     63813     63817     63818     63820     63819     63823     63824
     63821     63819     63823     63824     63822     63819     63823     63824
     63826     63825     63829     63830     63827     63825     63829     63830
     63828     63825     63829     63830     63832     63831     63835     63836
     63833     63831     63835     63836     63834     63831     63835     63836
     63838     63837     63841     63842     63839     63837     63841     63842
     63840     63837     63841     63842     63844     63843     63847     63848
     63845     63843     63847     63848     63846     63843     63847     63848
     63850     63849     63853     63854     63851     63849     63853     63854
     63852     63849     63853     63854     63856     63855     63859     63860
     63857     63855     63859     63860     63858     63855     63859     63860
     63862     63861     63865     63866     63863     63861     63865     63866
     63864     63861     63865     63866     63868     63867     63871     63872
     63869     63867     63871     63872     63870     63867     63871     63872
     63874     63873     63877     63878     63875     63873     63877     63878
     63876     63873     63877     63878     63880     63879     63883     63884
     63881     63879     63883     63884     63882     63879     63883     63884
     63886     63885     63889     63890     63887     63885     63889     63890
     63888     63885     63889     63890     63892     63891     63895     63896
     63893     63891     63895     63896     63894     63891     63895     63896
     63898     63897     63901     63902     63899     63897     63901     63902
     63900     63897     63901     63902     63904     63903     63907     63908
     63905     63903     63907     63908     63906     63903     63907     63908
     63910     63909     63913     63914     63911     63909     63913     63914
     63912     63909     63913     63914     63916     63915     63919     63920
     63917     63915     63919     63920     63918     63915     63919     63920
     63922     63921     63925     63926     63923     63921     63925     63926
     63924     63921     63925     63926     63928     63927     63931     63932
     63929     63927     63931     63932     63930     63927     63931     63932
     63934     63933     63937     63938     63935     63933     63937     63938
     63936     63933     63937     63938     63940     63939     63943     63944
     63941     63939     63943     63944     63942     63939     63943     63944
     63946     63945     63949     63950     63947     63945     63949     63950
     63948     63945     63949     63950     63952     63951     63955     63956
     63953     63951     63955     63956     63954     63951     63955     63956
     63958     63957     63961     63962     63959     63957     63961     63962
     63960     63957     63961     63962     63964     63963     63967     63968
     63965     63963     63967     63968     63966     63963     63967     63968
     63970     63969     63973     63974     63971     63969     63973     63974
     63972     63969     63973     63974     63976     63975     63979     63980
     63977     63975     63979     63980     63978     63975     63979     63980
     63982     63981     63985     63986     63983     63981     63985     63986
     63984     63981     63985     63986     63988     63987     63991     63992
     63989     63987     63991     63992     63990     63987     63991     63992
     63994     63993     63997     63998     63995     63993     63997     63998
     63996     63993     63997     63998     64000     63999     64003     64004
     64001     63999     64003     64004     64002     63999     64003     64004
     64006     64005     64009     64010     64007     64005     64009     64010
     64008     64005     64009     64010     64012     64011     64015     64016
     64013     64011     64015     64016     64014     64011     64015     64016
     64018     64017     64021     64022     64019     64017     64021     64022
     64020     64017     64021     64022     64024     64023     64027     64028
     64025     64023     64027     64028     64026     64023     64027     64028
     64030     64029     64033     64034     64031     64029     64033     64034
     64032     64029     64033     64034     64036     64035     64039     64040
     64037     64035     64039     64040     64038     64035     64039     64040
     64042     64041     64045     64046     64043     64041     64045     64046
     64044     64041     64045     64046     64048     64047     64051     64052
     64049     64047     64051     64052     64050     64047     64051     64052
     64054     64053     64057     64058     64055     64053     64057     64058
     64056     64053     64057     64058     64060     64059     64063     64064
     64061     64059     64063     64064     64062     64059     64063     64064
     64066     64065     64069     64070     64067     64065     64069     64070
     64068     64065     64069     64070     64072     64071     64075     64076
     64073     64071     64075     64076     64074     64071     64075     64076
     64078     64077     64081     64082     64079     64077     64081     64082
     64080     64077     64081     64082     64084     64083     64087     64088
     64085     64083     64087     64088     64086     64083     64087     64088
     64090     64089     64093     64094     64091     64089     64093     64094
     64092     64089     64093     64094     64096     64095     64099     64100
     64097     64095     64099     64100     64098     64095     64099     64100
     64102     64101     64105     64106     64103     64101     64105     64106
     64104     64101     64105     64106     64108     64107     64111     64112
     64109     64107     64111     64112     64110     64107     64111     64112
     64114     64113     64117     64118     64115     64113     64117     64118
     64116     64113     64117     64118     64120     64119     64123     64124
     64121     64119     64123     64124     64122     64119     64123     64124
     64126     64125     64129     64130     64127     64125     64129     64130
     64128     64125     64129     64130     64132     64131     64135     64136
     64133     64131     64135     64136     64134     64131     64135     64136
     64138     64137     64141     64142     64139     64137     64141     64142
     64140     64137     64141     64142     64144     64143     64147     64148
     64145     64143     64147     64148     64146     64143     64147     64148
     64150     64149     64153     64154     64151     64149     64153     64154
     64152     64149     64153     64154     64156     64155     64159     64160
     64157     64155     64159     64160     64158     64155     64159     64160
     64162     64161     64165     64166     64163     64161     64165     64166
     64164     64161     64165     64166     64168     64167     64171     64172
     64169     64167     64171     64172     64170     64167     64171     64172
     64174     64173     64177     64178     64175     64173     64177     64178
     64176     64173     64177     64178     64180     64179     64183     64184
     64181     64179     64183     64184     64182     64179     64183     64184
     64186     64185     64189     64190     64187     64185     64189     64190
     64188     64185     64189     64190     64192     64191     64195     64196
     64193     64191     64195     64196     64194     64191     64195     64196
     64198     64197     64201     64202     64199     64197     64201     64202
     64200     64197     64201     64202     64204     64203     64207     64208
     64205     64203     64207     64208     64206     64203     64207     64208
     64210     64209     64213     64214     64211     64209     64213     64214
     64212     64209     64213     64214     64216     64215     64219     64220
     64217     64215     64219     64220     64218     64215     64219     64220
     64222     64221     64225     64226     64223     64221     64225     64226
     64224     64221     64225     64226     64228     64227     64231     64232
     64229     64227     64231     64232     64230     64227     64231     64232
     64234     64233     64237     64238     64235     64233     64237     64238
     64236     64233     64237     64238     64240     64239     64243     64244
     64241     64239     64243     64244     64242     64239     64243     64244
     64246     64245     64249     64250     64247     64245     64249     64250
     64248     64245     64249     64250     64252     64251     64255     64256
     64253     64251     64255     64256     64254     64251     64255     64256
     64258     64257     64261     64262     64259     64257     64261     64262
     64260     64257     64261     64262     64264     64263     64267     64268
     64265     64263     64267     64268     64266     64263     64267     64268
     64270     64269     64273     64274     64271     64269     64273     64274
     64272     64269     64273     64274     64276     64275     64279     64280
     64277     64275     64279     64280     64278     64275     64279     64280
     64282     64281     64285     64286     64283     64281     64285     64286
     64284     64281     64285     64286     64288     64287     64291     64292
     64289     64287     64291     64292     64290     64287     64291     64292
     64294     64293     64297     64298     64295     64293     64297     64298
     64296     64293     64297     64298     64300     64299     64303     64304
     64301     64299     64303     64304     64302     64299     64303     64304
     64306     64305     64309     64310     64307     64305     64309     64310
     64308     64305     64309     64310     64312     64311     64315     64316
     64313     64311     64315     64316     64314     64311     64315     64316
     64318     64317     64321     64322     64319     64317     64321     64322
     64320     64317     64321     64322     64324     64323     64327     64328
     64325     64323     64327     64328     64326     64323     64327     64328
     64330     64329     64333     64334     64331     64329     64333     64334
     64332     64329     64333     64334     64336     64335     64339     64340
     64337     64335     64339     64340     64338     64335     64339     64340
     64342     64341     64345     64346     64343     64341     64345     64346
     64344     64341     64345     64346     64348     64347     64351     64352
     64349     64347     64351     64352     64350     64347     64351     64352
     64354     64353     64357     64358     64355     64353     64357     64358
     64356     64353     64357     64358     64360     64359     64363     64364
     64361     64359     64363     64364     64362     64359     64363     64364
     64366     64365     64369     64370     64367     64365     64369     64370
     64368     64365     64369     64370     64372     64371     64375     64376
     64373     64371     64375     64376     64374     64371     64375     64376
     64378     64377     64381     64382     64379     64377     64381     64382
     64380     64377     64381     64382     64384     64383     64387     64388
     64385     64383     64387     64388     64386     64383     64387     64388
     64390     64389     64393     64394     64391     64389     64393     64394
     64392     64389     64393     64394     64396     64395     64399     64400
     64397     64395     64399     64400     64398     64395     64399     64400
     64402     64401     64405     64406     64403     64401     64405     64406
     64404     64401     64405     64406     64408     64407     64411     64412
     64409     64407     64411     64412     64410     64407     64411     64412
     64414     64413     64417     64418     64415     64413     64417     64418
     64416     64413     64417     64418     64420     64419     64423     64424
     64421     64419     64423     64424     64422     64419     64423     64424
     64426     64425     64429     64430     64427     64425     64429     64430
     64428     64425     64429     64430     64432     64431     64435     64436
     64433     64431     64435     64436     64434     64431     64435     64436
     64438     64437     64441     64442     64439     64437     64441     64442
     64440     64437     64441     64442     64444     64443     64447     64448
     64445     64443     64447     64448     64446     64443     64447     64448
     64450     64449     64453     64454     64451     64449     64453     64454
     64452     64449     64453     64454     64456     64455     64459     64460
     64457     64455     64459     64460     64458     64455     64459     64460
     64462     64461     64465     64466     64463     64461     64465     64466
     64464     64461     64465     64466     64468     64467     64471     64472
     64469     64467     64471     64472     64470     64467     64471     64472
     64474     64473     64477     64478     64475     64473     64477     64478
     64476     64473     64477     64478     64480     64479     64483     64484
     64481     64479     64483     64484     64482     64479     64483     64484
     64486     64485     64489     64490     64487     64485     64489     64490
     64488     64485     64489     64490     64492     64491     64495     64496
     64493     64491     64495     64496     64494     64491     64495     64496
     64498     64497     64501     64502     64499     64497     64501     64502
     64500     64497     64501     64502     64504     64503     64507     64508
     64505     64503     64507     64508     64506     64503     64507     64508
     64510     64509     64513     64514     64511     64509     64513     64514
     64512     64509     64513     64514     64516     64515     64519     64520
     64517     64515     64519     64520     64518     64515     64519     64520
     64522     64521     64525     64526     64523     64521     64525     64526
     64524     64521     64525     64526     64528     64527     64531     64532
     64529     64527     64531     64532     64530     64527     64531     64532
     64534     64533     64537     64538     64535     64533     64537     64538
     64536     64533     64537     64538     64540     64539     64543     64544
     64541     64539     64543     64544     64542     64539     64543     64544
     64546     64545     64549     64550     64547     64545     64549     64550
     64548     64545     64549     64550     64552     64551     64555     64556
     64553     64551     64555     64556     64554     64551     64555     64556
     64558     64557     64561     64562     64559     64557     64561     64562
     64560     64557     64561     64562     64564     64563     64567     64568
     64565     64563     64567     64568     64566     64563     64567     64568
     64570     64569     64573     64574     64571     64569     64573     64574
     64572     64569     64573     64574     64576     64575     64579     64580
     64577     64575     64579     64580     64578     64575     64579     64580
     64582     64581     64585     64586     64583     64581     64585     64586
     64584     64581     64585     64586     64588     64587     64591     64592
     64589     64587     64591     64592     64590     64587     64591     64592
     64594     64593     64597     64598     64595     64593     64597     64598
     64596     64593     64597     64598     64600     64599     64603     64604
     64601     64599     64603     64604     64602     64599     64603     64604
     64606     64605     64609     64610     64607     64605     64609     64610
     64608     64605     64609     64610     64612     64611     64615     64616
     64613     64611     64615     64616     64614     64611     64615     64616
     64618     64617     64621     64622     64619     64617     64621     64622
     64620     64617     64621     64622     64624     64623     64627     64628
     64625     64623     64627     64628     64626     64623     64627     64628
     64630     64629     64633     64634     64631     64629     64633     64634
     64632     64629     64633     64634     64636     64635     64639     64640
     64637     64635     64639     64640     64638     64635     64639     64640
     64642     64641     64645     64646     64643     64641     64645     64646
     64644     64641     64645     64646     64648     64647     64651     64652
     64649     64647     64651     64652     64650     64647     64651     64652
     64654     64653     64657     64658     64655     64653     64657     64658
     64656     64653     64657     64658     64660     64659     64663     64664
     64661     64659     64663     64664     64662     64659     64663     64664
     64666     64665     64669     64670     64667     64665     64669     64670
     64668     64665     64669     64670     64672     64671     64675     64676
     64673     64671     64675     64676     64674     64671     64675     64676
     64678     64677     64681     64682     64679     64677     64681     64682
     64680     64677     64681     64682     64684     64683     64687     64688
     64685     64683     64687     64688     64686     64683     64687     64688
     64690     64689     64693     64694     64691     64689     64693     64694
     64692     64689     64693     64694     64696     64695     64699     64700
     64697     64695     64699     64700     64698     64695     64699     64700
     64702     64701     64705     64706     64703     64701     64705     64706
     64704     64701     64705     64706     64708     64707     64711     64712
     64709     64707     64711     64712     64710     64707     64711     64712
     64714     64713     64717     64718     64715     64713     64717     64718
     64716     64713     64717     64718     64720     64719     64723     64724
     64721     64719     64723     64724     64722     64719     64723     64724
     64726     64725     64729     64730     64727     64725     64729     64730
     64728     64725     64729     64730     64732     64731     64735     64736
     64733     64731     64735     64736     64734     64731     64735     64736
     64738     64737     64741     64742     64739     64737     64741     64742
     64740     64737     64741     64742     64744     64743     64747     64748
     64745     64743     64747     64748     64746     64743     64747     64748
     64750     64749     64753     64754     64751     64749     64753     64754
     64752     64749     64753     64754     64756     64755     64759     64760
     64757     64755     64759     64760     64758     64755     64759     64760
     64762     64761     64765     64766     64763     64761     64765     64766
     64764     64761     64765     64766     64768     64767     64771     64772
     64769     64767     64771     64772     64770     64767     64771     64772
     64774     64773     64777     64778     64775     64773     64777     64778
     64776     64773     64777     64778     64780     64779     64783     64784
     64781     64779     64783     64784     64782     64779     64783     64784
     64786     64785     64789     64790     64787     64785     64789     64790
     64788     64785     64789     64790     64792     64791     64795     64796
     64793     64791     64795     64796     64794     64791     64795     64796
     64798     64797     64801     64802     64799     64797     64801     64802
     64800     64797     64801     64802     64804     64803     64807     64808
     64805     64803     64807     64808     64806     64803     64807     64808
     64810     64809     64813     64814     64811     64809     64813     64814
     64812     64809     64813     64814     64816     64815     64819     64820
     64817     64815     64819     64820     64818     64815     64819     64820
     64822     64821     64825     64826     64823     64821     64825     64826
     64824     64821     64825     64826     64828     64827     64831     64832
     64829     64827     64831     64832     64830     64827     64831     64832
     64834     64833     64837     64838     64835     64833     64837     64838
     64836     64833     64837     64838     64840     64839     64843     64844
     64841     64839     64843     64844     64842     64839     64843     64844
     64846     64845     64849     64850     64847     64845     64849     64850
     64848     64845     64849     64850     64852     64851     64855     64856
     64853     64851     64855     64856     64854     64851     64855     64856
     64858     64857     64861     64862     64859     64857     64861     64862
     64860     64857     64861     64862     64864     64863     64867     64868
     64865     64863     64867     64868     64866     64863     64867     64868
     64870     64869     64873     64874     64871     64869     64873     64874
     64872     64869     64873     64874     64876     64875     64879     64880
     64877     64875     64879     64880     64878     64875     64879     64880
     64882     64881     64885     64886     64883     64881     64885     64886
     64884     64881     64885     64886     64888     64887     64891     64892
     64889     64887     64891     64892     64890     64887     64891     64892
     64894     64893     64897     64898     64895     64893     64897     64898
     64896     64893     64897     64898     64900     64899     64903     64904
     64901     64899     64903     64904     64902     64899     64903     64904
     64906     64905     64909     64910     64907     64905     64909     64910
     64908     64905     64909     64910     64912     64911     64915     64916
     64913     64911     64915     64916     64914     64911     64915     64916
     64918     64917     64921     64922     64919     64917     64921     64922
     64920     64917     64921     64922     64924     64923     64927     64928
     64925     64923     64927     64928     64926     64923     64927     64928
     64930     64929     64933     64934     64931     64929     64933     64934
     64932     64929     64933     64934     64936     64935     64939     64940
     64937     64935     64939     64940     64938     64935     64939     64940
     64942     64941     64945     64946     64943     64941     64945     64946
     64944     64941     64945     64946     64948     64947     64951     64952
     64949     64947     64951     64952     64950     64947     64951     64952
     64954     64953     64957     64958     64955     64953     64957     64958
     64956     64953     64957     64958     64960     64959     64963     64964
     64961     64959     64963     64964     64962     64959     64963     64964
     64966     64965     64969     64970     64967     64965     64969     64970
     64968     64965     64969     64970     64972     64971     64975     64976
     64973     64971     64975     64976     64974     64971     64975     64976
     64978     64977     64981     64982     64979     64977     64981     64982
     64980     64977     64981     64982     64984     64983     64987     64988
     64985     64983     64987     64988     64986     64983     64987     64988
     64990     64989     64993     64994     64991     64989     64993     64994
     64992     64989     64993     64994     64996     64995     64999     65000
     64997     64995     64999     65000     64998     64995     64999     65000
     65002     65001     65005     65006     65003     65001     65005     65006
     65004     65001     65005     65006     65008     65007     65011     65012
     65009     65007     65011     65012     65010     65007     65011     65012
     65014     65013     65017     65018     65015     65013     65017     65018
     65016     65013     65017     65018     65020     65019     65023     65024
     65021     65019     65023     65024     65022     65019     65023     65024
     65026     65025     65029     65030     65027     65025     65029     65030
     65028     65025     65029     65030     65032     65031     65035     65036
     65033     65031     65035     65036     65034     65031     65035     65036
     65038     65037     65041     65042     65039     65037     65041     65042
     65040     65037     65041     65042     65044     65043     65047     65048
     65045     65043     65047     65048     65046     65043     65047     65048
     65050     65049     65053     65054     65051     65049     65053     65054
     65052     65049     65053     65054     65056     65055     65059     65060
     65057     65055     65059     65060     65058     65055     65059     65060
     65062     65061     65065     65066     65063     65061     65065     65066
     65064     65061     65065     65066     65068     65067     65071     65072
     65069     65067     65071     65072     65070     65067     65071     65072
     65074     65073     65077     65078     65075     65073     65077     65078
     65076     65073     65077     65078     65080     65079     65083     65084
     65081     65079     65083     65084     65082     65079     65083     65084
     65086     65085     65089     65090     65087     65085     65089     65090
     65088     65085     65089     65090     65092     65091     65095     65096
     65093     65091     65095     65096     65094     65091     65095     65096
     65098     65097     65101     65102     65099     65097     65101     65102
     65100     65097     65101     65102     65104     65103     65107     65108
     65105     65103     65107     65108     65106     65103     65107     65108
     65110     65109     65113     65114     65111     65109     65113     65114
     65112     65109     65113     65114     65116     65115     65119     65120
     65117     65115     65119     65120     65118     65115     65119     65120
     65122     65121     65125     65126     65123     65121     65125     65126
     65124     65121     65125     65126     65128     65127     65131     65132
     65129     65127     65131     65132     65130     65127     65131     65132
     65134     65133     65137     65138     65135     65133     65137     65138
     65136     65133     65137     65138     65140     65139     65143     65144
     65141     65139     65143     65144     65142     65139     65143     65144
     65146     65145     65149     65150     65147     65145     65149     65150
     65148     65145     65149     65150     65152     65151     65155     65156
     65153     65151     65155     65156     65154     65151     65155     65156
     65158     65157     65161     65162     65159     65157     65161     65162
     65160     65157     65161     65162     65164     65163     65167     65168
     65165     65163     65167     65168     65166     65163     65167     65168
     65170     65169     65173     65174     65171     65169     65173     65174
     65172     65169     65173     65174     65176     65175     65179     65180
     65177     65175     65179     65180     65178     65175     65179     65180
     65182     65181     65185     65186     65183     65181     65185     65186
     65184     65181     65185     65186     65188     65187     65191     65192
     65189     65187     65191     65192     65190     65187     65191     65192
     65194     65193     65197     65198     65195     65193     65197     65198
     65196     65193     65197     65198     65200     65199     65203     65204
     65201     65199     65203     65204     65202     65199     65203     65204
     65206     65205     65209     65210     65207     65205     65209     65210
     65208     65205     65209     65210     65212     65211     65215     65216
     65213     65211     65215     65216     65214     65211     65215     65216
     65218     65217     65221     65222     65219     65217     65221     65222
     65220     65217     65221     65222     65224     65223     65227     65228
     65225     65223     65227     65228     65226     65223     65227     65228
     65230     65229     65233     65234     65231     65229     65233     65234
     65232     65229     65233     65234     65236     65235     65239     65240
     65237     65235     65239     65240     65238     65235     65239     65240
     65242     65241     65245     65246     65243     65241     65245     65246
     65244     65241     65245     65246     65248     65247     65251     65252
     65249     65247     65251     65252     65250     65247     65251     65252
     65254     65253     65257     65258     65255     65253     65257     65258
     65256     65253     65257     65258     65260     65259     65263     65264
     65261     65259     65263     65264     65262     65259     65263     65264
     65266     65265     65269     65270     65267     65265     65269     65270
     65268     65265     65269     65270     65272     65271     65275     65276
     65273     65271     65275     65276     65274     65271     65275     65276
     65278     65277     65281     65282     65279     65277     65281     65282
     65280     65277     65281     65282     65284     65283     65287     65288
     65285     65283     65287     65288     65286     65283     65287     65288
     65290     65289     65293     65294     65291     65289     65293     65294
     65292     65289     65293     65294     65296     65295     65299     65300
     65297     65295     65299     65300     65298     65295     65299     65300
     65302     65301     65305     65306     65303     65301     65305     65306
     65304     65301     65305     65306     65308     65307     65311     65312
     65309     65307     65311     65312     65310     65307     65311     65312
     65314     65313     65317     65318     65315     65313     65317     65318
     65316     65313     65317     65318     65320     65319     65323     65324
     65321     65319     65323     65324     65322     65319     65323     65324
     65326     65325     65329     65330     65327     65325     65329     65330
     65328     65325     65329     65330     65332     65331     65335     65336
     65333     65331     65335     65336     65334     65331     65335     65336
     65338     65337     65341     65342     65339     65337     65341     65342
     65340     65337     65341     65342     65344     65343     65347     65348
     65345     65343     65347     65348     65346     65343     65347     65348
     65350     65349     65353     65354     65351     65349     65353     65354
     65352     65349     65353     65354     65356     65355     65359     65360
     65357     65355     65359     65360     65358     65355     65359     65360
     65362     65361     65365     65366     65363     65361     65365     65366
     65364     65361     65365     65366     65368     65367     65371     65372
     65369     65367     65371     65372     65370     65367     65371     65372
     65374     65373     65377     65378     65375     65373     65377     65378
     65376     65373     65377     65378     65380     65379     65383     65384
     65381     65379     65383     65384     65382     65379     65383     65384
     65386     65385     65389     65390     65387     65385     65389     65390
     65388     65385     65389     65390     65392     65391     65395     65396
     65393     65391     65395     65396     65394     65391     65395     65396
     65398     65397     65401     65402     65399     65397     65401     65402
     65400     65397     65401     65402     65404     65403     65407     65408
     65405     65403     65407     65408     65406     65403     65407     65408
     65410     65409     65413     65414     65411     65409     65413     65414
     65412     65409     65413     65414     65416     65415     65419     65420
     65417     65415     65419     65420     65418     65415     65419     65420
     65422     65421     65425     65426     65423     65421     65425     65426
     65424     65421     65425     65426     65428     65427     65431     65432
     65429     65427     65431     65432     65430     65427     65431     65432
     65434     65433     65437     65438     65435     65433     65437     65438
     65436     65433     65437     65438     65440     65439     65443     65444
     65441     65439     65443     65444     65442     65439     65443     65444
     65446     65445     65449     65450     65447     65445     65449     65450
     65448     65445     65449     65450     65452     65451     65455     65456
     65453     65451     65455     65456     65454     65451     65455     65456
     65458     65457     65461     65462     65459     65457     65461     65462
     65460     65457     65461     65462     65464     65463     65467     65468
     65465     65463     65467     65468     65466     65463     65467     65468
     65470     65469     65473     65474     65471     65469     65473     65474
     65472     65469     65473     65474     65476     65475     65479     65480
     65477     65475     65479     65480     65478     65475     65479     65480
     65482     65481     65485     65486     65483     65481     65485     65486
     65484     65481     65485     65486     65488     65487     65491     65492
     65489     65487     65491     65492     65490     65487     65491     65492
     65494     65493     65497     65498     65495     65493     65497     65498
     65496     65493     65497     65498     65500     65499     65503     65504
     65501     65499     65503     65504     65502     65499     65503     65504
     65506     65505     65509     65510     65507     65505     65509     65510
     65508     65505     65509     65510     65512     65511     65515     65516
     65513     65511     65515     65516     65514     65511     65515     65516
     65518     65517     65521     65522     65519     65517     65521     65522
     65520     65517     65521     65522     65524     65523     65527     65528
     65525     65523     65527     65528     65526     65523     65527     65528
     65530     65529     65533     65534     65531     65529     65533     65534
     65532     65529     65533     65534     65536     65535     65539     65540
     65537     65535     65539     65540     65538     65535     65539     65540
     65542     65541     65545     65546     65543     65541     65545     65546
     65544     65541     65545     65546     65548     65547     65551     65552
     65549     65547     65551     65552     65550     65547     65551     65552
     65554     65553     65557     65558     65555     65553     65557     65558
     65556     65553     65557     65558     65560     65559     65563     65564
     65561     65559     65563     65564     65562     65559     65563     65564
     65566     65565     65569     65570     65567     65565     65569     65570
     65568     65565     65569     65570     65572     65571     65575     65576
     65573     65571     65575     65576     65574     65571     65575     65576
     65578     65577     65581     65582     65579     65577     65581     65582
     65580     65577     65581     65582     65584     65583     65587     65588
     65585     65583     65587     65588     65586     65583     65587     65588
     65590     65589     65593     65594     65591     65589     65593     65594
     65592     65589     65593     65594     65596     65595     65599     65600
     65597     65595     65599     65600     65598     65595     65599     65600
     65602     65601     65605     65606     65603     65601     65605     65606
     65604     65601     65605     65606     65608     65607     65611     65612
     65609     65607     65611     65612     65610     65607     65611     65612
     65614     65613     65617     65618     65615     65613     65617     65618
     65616     65613     65617     65618     65620     65619     65623     65624
     65621     65619     65623     65624     65622     65619     65623     65624
     65626     65625     65629     65630     65627     65625     65629     65630
     65628     65625     65629     65630     65632     65631     65635     65636
     65633     65631     65635     65636     65634     65631     65635     65636
     65638     65637     65641     65642     65639     65637     65641     65642
     65640     65637     65641     65642     65644     65643     65647     65648
     65645     65643     65647     65648     65646     65643     65647     65648
     65650     65649     65653     65654     65651     65649     65653     65654
     65652     65649     65653     65654     65656     65655     65659     65660
     65657     65655     65659     65660     65658     65655     65659     65660
     65662     65661     65665     65666     65663     65661     65665     65666
     65664     65661     65665     65666     65668     65667     65671     65672
     65669     65667     65671     65672     65670     65667     65671     65672
     65674     65673     65677     65678     65675     65673     65677     65678
     65676     65673     65677     65678     65680     65679     65683     65684
     65681     65679     65683     65684     65682     65679     65683     65684
     65686     65685     65689     65690     65687     65685     65689     65690
     65688     65685     65689     65690     65692     65691     65695     65696
     65693     65691     65695     65696     65694     65691     65695     65696
     65698     65697     65701     65702     65699     65697     65701     65702
     65700     65697     65701     65702     65704     65703     65707     65708
     65705     65703     65707     65708     65706     65703     65707     65708
     65710     65709     65713     65714     65711     65709     65713     65714
     65712     65709     65713     65714     65716     65715     65719     65720
     65717     65715     65719     65720     65718     65715     65719     65720
     65722     65721     65725     65726     65723     65721     65725     65726
     65724     65721     65725     65726     65728     65727     65731     65732
     65729     65727     65731     65732     65730     65727     65731     65732
     65734     65733     65737     65738     65735     65733     65737     65738
     65736     65733     65737     65738     65740     65739     65743     65744
     65741     65739     65743     65744     65742     65739     65743     65744
     65746     65745     65749     65750     65747     65745     65749     65750
     65748     65745     65749     65750     65752     65751     65755     65756
     65753     65751     65755     65756     65754     65751     65755     65756
     65758     65757     65761     65762     65759     65757     65761     65762
     65760     65757     65761     65762     65764     65763     65767     65768
     65765     65763     65767     65768     65766     65763     65767     65768
     65770     65769     65773     65774     65771     65769     65773     65774
     65772     65769     65773     65774     65776     65775     65779     65780
     65777     65775     65779     65780     65778     65775     65779     65780
     65782     65781     65785     65786     65783     65781     65785     65786
     65784     65781     65785     65786     65788     65787     65791     65792
     65789     65787     65791     65792     65790     65787     65791     65792
     65794     65793     65797     65798     65795     65793     65797     65798
     65796     65793     65797     65798     65800     65799     65803     65804
     65801     65799     65803     65804     65802     65799     65803     65804
     65806     65805     65809     65810     65807     65805     65809     65810
     65808     65805     65809     65810     65812     65811     65815     65816
     65813     65811     65815     65816     65814     65811     65815     65816
     65818     65817     65821     65822     65819     65817     65821     65822
     65820     65817     65821     65822     65824     65823     65827     65828
     65825     65823     65827     65828     65826     65823     65827     65828
     65830     65829     65833     65834     65831     65829     65833     65834
     65832     65829     65833     65834     65836     65835     65839     65840
     65837     65835     65839     65840     65838     65835     65839     65840
     65842     65841     65845     65846     65843     65841     65845     65846
     65844     65841     65845     65846     65848     65847     65851     65852
     65849     65847     65851     65852     65850     65847     65851     65852
     65854     65853     65857     65858     65855     65853     65857     65858
     65856     65853     65857     65858     65860     65859     65863     65864
     65861     65859     65863     65864     65862     65859     65863     65864
     65866     65865     65869     65870     65867     65865     65869     65870
     65868     65865     65869     65870     65872     65871     65875     65876
     65873     65871     65875     65876     65874     65871     65875     65876
     65878     65877     65881     65882     65879     65877     65881     65882
     65880     65877     65881     65882     65884     65883     65887     65888
     65885     65883     65887     65888     65886     65883     65887     65888
     65890     65889     65893     65894     65891     65889     65893     65894
     65892     65889     65893     65894     65896     65895     65899     65900
     65897     65895     65899     65900     65898     65895     65899     65900
     65902     65901     65905     65906     65903     65901     65905     65906
     65904     65901     65905     65906     65908     65907     65911     65912
     65909     65907     65911     65912     65910     65907     65911     65912
     65914     65913     65917     65918     65915     65913     65917     65918
     65916     65913     65917     65918     65920     65919     65923     65924
     65921     65919     65923     65924     65922     65919     65923     65924
     65926     65925     65929     65930     65927     65925     65929     65930
     65928     65925     65929     65930     65932     65931     65935     65936
     65933     65931     65935     65936     65934     65931     65935     65936
     65938     65937     65941     65942     65939     65937     65941     65942
     65940     65937     65941     65942     65944     65943     65947     65948
     65945     65943     65947     65948     65946     65943     65947     65948
     65950     65949     65953     65954     65951     65949     65953     65954
     65952     65949     65953     65954     65956     65955     65959     65960
     65957     65955     65959     65960     65958     65955     65959     65960
     65962     65961     65965     65966     65963     65961     65965     65966
     65964     65961     65965     65966     65968     65967     65971     65972
     65969     65967     65971     65972     65970     65967     65971     65972
     65974     65973     65977     65978     65975     65973     65977     65978
     65976     65973     65977     65978     65980     65979     65983     65984
     65981     65979     65983     65984     65982     65979     65983     65984
     65986     65985     65989     65990     65987     65985     65989     65990
     65988     65985     65989     65990     65992     65991     65995     65996
     65993     65991     65995     65996     65994     65991     65995     65996
     65998     65997     66001     66002     65999     65997     66001     66002
     66000     65997     66001     66002     66004     66003     66007     66008
     66005     66003     66007     66008     66006     66003     66007     66008
     66010     66009     66013     66014     66011     66009     66013     66014
     66012     66009     66013     66014     66016     66015     66019     66020
     66017     66015     66019     66020     66018     66015     66019     66020
     66022     66021     66025     66026     66023     66021     66025     66026
     66024     66021     66025     66026     66028     66027     66031     66032
     66029     66027     66031     66032     66030     66027     66031     66032
     66034     66033     66037     66038     66035     66033     66037     66038
     66036     66033     66037     66038     66040     66039     66043     66044
     66041     66039     66043     66044     66042     66039     66043     66044
     66046     66045     66049     66050     66047     66045     66049     66050
     66048     66045     66049     66050     66052     66051     66055     66056
     66053     66051     66055     66056     66054     66051     66055     66056
     66058     66057     66061     66062     66059     66057     66061     66062
     66060     66057     66061     66062     66064     66063     66067     66068
     66065     66063     66067     66068     66066     66063     66067     66068
     66070     66069     66073     66074     66071     66069     66073     66074
     66072     66069     66073     66074     66076     66075     66079     66080
     66077     66075     66079     66080     66078     66075     66079     66080
     66082     66081     66085     66086     66083     66081     66085     66086
     66084     66081     66085     66086     66088     66087     66091     66092
     66089     66087     66091     66092     66090     66087     66091     66092
     66094     66093     66097     66098     66095     66093     66097     66098
     66096     66093     66097     66098     66100     66099     66103     66104
     66101     66099     66103     66104     66102     66099     66103     66104
     66106     66105     66109     66110     66107     66105     66109     66110
     66108     66105     66109     66110     66112     66111     66115     66116
     66113     66111     66115     66116     66114     66111     66115     66116
     66118     66117     66121     66122     66119     66117     66121     66122
     66120     66117     66121     66122     66124     66123     66127     66128
     66125     66123     66127     66128     66126     66123     66127     66128
     66130     66129     66133     66134     66131     66129     66133     66134
     66132     66129     66133     66134     66136     66135     66139     66140
     66137     66135     66139     66140     66138     66135     66139     66140
     66142     66141     66145     66146     66143     66141     66145     66146
     66144     66141     66145     66146     66148     66147     66151     66152
     66149     66147     66151     66152     66150     66147     66151     66152
     66154     66153     66157     66158     66155     66153     66157     66158
     66156     66153     66157     66158     66160     66159     66163     66164
     66161     66159     66163     66164     66162     66159     66163     66164
     66166     66165     66169     66170     66167     66165     66169     66170
     66168     66165     66169     66170     66172     66171     66175     66176
     66173     66171     66175     66176     66174     66171     66175     66176
     66178     66177     66181     66182     66179     66177     66181     66182
     66180     66177     66181     66182     66184     66183     66187     66188
     66185     66183     66187     66188     66186     66183     66187     66188
     66190     66189     66193     66194     66191     66189     66193     66194
     66192     66189     66193     66194     66196     66195     66199     66200
     66197     66195     66199     66200     66198     66195     66199     66200
     66202     66201     66205     66206     66203     66201     66205     66206
     66204     66201     66205     66206     66208     66207     66211     66212
     66209     66207     66211     66212     66210     66207     66211     66212
     66214     66213     66217     66218     66215     66213     66217     66218
     66216     66213     66217     66218     66220     66219     66223     66224
     66221     66219     66223     66224     66222     66219     66223     66224
     66226     66225     66229     66230     66227     66225     66229     66230
     66228     66225     66229     66230     66232     66231     66235     66236
     66233     66231     66235     66236     66234     66231     66235     66236
     66238     66237     66241     66242     66239     66237     66241     66242
     66240     66237     66241     66242     66244     66243     66247     66248
     66245     66243     66247     66248     66246     66243     66247     66248
     66250     66249     66253     66254     66251     66249     66253     66254
     66252     66249     66253     66254     66256     66255     66259     66260
     66257     66255     66259     66260     66258     66255     66259     66260
     66262     66261     66265     66266     66263     66261     66265     66266
     66264     66261     66265     66266     66268     66267     66271     66272
     66269     66267     66271     66272     66270     66267     66271     66272
     66274     66273     66277     66278     66275     66273     66277     66278
     66276     66273     66277     66278     66280     66279     66283     66284
     66281     66279     66283     66284     66282     66279     66283     66284
     66286     66285     66289     66290     66287     66285     66289     66290
     66288     66285     66289     66290     66292     66291     66295     66296
     66293     66291     66295     66296     66294     66291     66295     66296
     66298     66297     66301     66302     66299     66297     66301     66302
     66300     66297     66301     66302     66304     66303     66307     66308
     66305     66303     66307     66308     66306     66303     66307     66308
     66310     66309     66313     66314     66311     66309     66313     66314
     66312     66309     66313     66314     66316     66315     66319     66320
     66317     66315     66319     66320     66318     66315     66319     66320
     66322     66321     66325     66326     66323     66321     66325     66326
     66324     66321     66325     66326     66328     66327     66331     66332
     66329     66327     66331     66332     66330     66327     66331     66332
     66334     66333     66337     66338     66335     66333     66337     66338
     66336     66333     66337     66338     66340     66339     66343     66344
     66341     66339     66343     66344     66342     66339     66343     66344
     66346     66345     66349     66350     66347     66345     66349     66350
     66348     66345     66349     66350     66352     66351     66355     66356
     66353     66351     66355     66356     66354     66351     66355     66356
     66358     66357     66361     66362     66359     66357     66361     66362
     66360     66357     66361     66362     66364     66363     66367     66368
     66365     66363     66367     66368     66366     66363     66367     66368
     66370     66369     66373     66374     66371     66369     66373     66374
     66372     66369     66373     66374     66376     66375     66379     66380
     66377     66375     66379     66380     66378     66375     66379     66380
     66382     66381     66385     66386     66383     66381     66385     66386
     66384     66381     66385     66386     66388     66387     66391     66392
     66389     66387     66391     66392     66390     66387     66391     66392
     66394     66393     66397     66398     66395     66393     66397     66398
     66396     66393     66397     66398     66400     66399     66403     66404
     66401     66399     66403     66404     66402     66399     66403     66404
     66406     66405     66409     66410     66407     66405     66409     66410
     66408     66405     66409     66410     66412     66411     66415     66416
     66413     66411     66415     66416     66414     66411     66415     66416
     66418     66417     66421     66422     66419     66417     66421     66422
     66420     66417     66421     66422     66424     66423     66427     66428
     66425     66423     66427     66428     66426     66423     66427     66428
     66430     66429     66433     66434     66431     66429     66433     66434
     66432     66429     66433     66434     66436     66435     66439     66440
     66437     66435     66439     66440     66438     66435     66439     66440
     66442     66441     66445     66446     66443     66441     66445     66446
     66444     66441     66445     66446     66448     66447     66451     66452
     66449     66447     66451     66452     66450     66447     66451     66452
     66454     66453     66457     66458     66455     66453     66457     66458
     66456     66453     66457     66458     66460     66459     66463     66464
     66461     66459     66463     66464     66462     66459     66463     66464
     66466     66465     66469     66470     66467     66465     66469     66470
     66468     66465     66469     66470     66472     66471     66475     66476
     66473     66471     66475     66476     66474     66471     66475     66476
     66478     66477     66481     66482     66479     66477     66481     66482
     66480     66477     66481     66482     66484     66483     66487     66488
     66485     66483     66487     66488     66486     66483     66487     66488
     66490     66489     66493     66494     66491     66489     66493     66494
     66492     66489     66493     66494     66496     66495     66499     66500
     66497     66495     66499     66500     66498     66495     66499     66500
     66502     66501     66505     66506     66503     66501     66505     66506
     66504     66501     66505     66506     66508     66507     66511     66512
     66509     66507     66511     66512     66510     66507     66511     66512
     66514     66513     66517     66518     66515     66513     66517     66518
     66516     66513     66517     66518     66520     66519     66523     66524
     66521     66519     66523     66524     66522     66519     66523     66524
     66526     66525     66529     66530     66527     66525     66529     66530
     66528     66525     66529     66530     66532     66531     66535     66536
     66533     66531     66535     66536     66534     66531     66535     66536
     66538     66537     66541     66542     66539     66537     66541     66542
     66540     66537     66541     66542     66544     66543     66547     66548
     66545     66543     66547     66548     66546     66543     66547     66548
     66550     66549     66553     66554     66551     66549     66553     66554
     66552     66549     66553     66554     66556     66555     66559     66560
     66557     66555     66559     66560     66558     66555     66559     66560
     66562     66561     66565     66566     66563     66561     66565     66566
     66564     66561     66565     66566     66568     66567     66571     66572
     66569     66567     66571     66572     66570     66567     66571     66572
     66574     66573     66577     66578     66575     66573     66577     66578
     66576     66573     66577     66578     66580     66579     66583     66584
     66581     66579     66583     66584     66582     66579     66583     66584
     66586     66585     66589     66590     66587     66585     66589     66590
     66588     66585     66589     66590     66592     66591     66595     66596
     66593     66591     66595     66596     66594     66591     66595     66596
     66598     66597     66601     66602     66599     66597     66601     66602
     66600     66597     66601     66602     66604     66603     66607     66608
     66605     66603     66607     66608     66606     66603     66607     66608
     66610     66609     66613     66614     66611     66609     66613     66614
     66612     66609     66613     66614     66616     66615     66619     66620
     66617     66615     66619     66620     66618     66615     66619     66620
     66622     66621     66625     66626     66623     66621     66625     66626
     66624     66621     66625     66626     66628     66627     66631     66632
     66629     66627     66631     66632     66630     66627     66631     66632
     66634     66633     66637     66638     66635     66633     66637     66638
     66636     66633     66637     66638     66640     66639     66643     66644
     66641     66639     66643     66644     66642     66639     66643     66644
     66646     66645     66649     66650     66647     66645     66649     66650
     66648     66645     66649     66650     66652     66651     66655     66656
     66653     66651     66655     66656     66654     66651     66655     66656
     66658     66657     66661     66662     66659     66657     66661     66662
     66660     66657     66661     66662     66664     66663     66667     66668
     66665     66663     66667     66668     66666     66663     66667     66668
     66670     66669     66673     66674     66671     66669     66673     66674
     66672     66669     66673     66674     66676     66675     66679     66680
     66677     66675     66679     66680     66678     66675     66679     66680
     66682     66681     66685     66686     66683     66681     66685     66686
     66684     66681     66685     66686     66688     66687     66691     66692
     66689     66687     66691     66692     66690     66687     66691     66692
     66694     66693     66697     66698     66695     66693     66697     66698
     66696     66693     66697     66698     66700     66699     66703     66704
     66701     66699     66703     66704     66702     66699     66703     66704
     66706     66705     66709     66710     66707     66705     66709     66710
     66708     66705     66709     66710     66712     66711     66715     66716
     66713     66711     66715     66716     66714     66711     66715     66716
     66718     66717     66721     66722     66719     66717     66721     66722
     66720     66717     66721     66722     66724     66723     66727     66728
     66725     66723     66727     66728     66726     66723     66727     66728
     66730     66729     66733     66734     66731     66729     66733     66734
     66732     66729     66733     66734     66736     66735     66739     66740
     66737     66735     66739     66740     66738     66735     66739     66740
     66742     66741     66745     66746     66743     66741     66745     66746
     66744     66741     66745     66746     66748     66747     66751     66752
     66749     66747     66751     66752     66750     66747     66751     66752
     66754     66753     66757     66758     66755     66753     66757     66758
     66756     66753     66757     66758     66760     66759     66763     66764
     66761     66759     66763     66764     66762     66759     66763     66764
     66766     66765     66769     66770     66767     66765     66769     66770
     66768     66765     66769     66770     66772     66771     66775     66776
     66773     66771     66775     66776     66774     66771     66775     66776
     66778     66777     66781     66782     66779     66777     66781     66782
     66780     66777     66781     66782     66784     66783     66787     66788
     66785     66783     66787     66788     66786     66783     66787     66788
     66790     66789     66793     66794     66791     66789     66793     66794
     66792     66789     66793     66794     66796     66795     66799     66800
     66797     66795     66799     66800     66798     66795     66799     66800
     66802     66801     66805     66806     66803     66801     66805     66806
     66804     66801     66805     66806     66808     66807     66811     66812
     66809     66807     66811     66812     66810     66807     66811     66812
     66814     66813     66817     66818     66815     66813     66817     66818
     66816     66813     66817     66818     66820     66819     66823     66824
     66821     66819     66823     66824     66822     66819     66823     66824
     66826     66825     66829     66830     66827     66825     66829     66830
     66828     66825     66829     66830     66832     66831     66835     66836
     66833     66831     66835     66836     66834     66831     66835     66836
     66838     66837     66841     66842     66839     66837     66841     66842
     66840     66837     66841     66842     66844     66843     66847     66848
     66845     66843     66847     66848     66846     66843     66847     66848
     66850     66849     66853     66854     66851     66849     66853     66854
     66852     66849     66853     66854     66856     66855     66859     66860
     66857     66855     66859     66860     66858     66855     66859     66860
     66862     66861     66865     66866     66863     66861     66865     66866
     66864     66861     66865     66866     66868     66867     66871     66872
     66869     66867     66871     66872     66870     66867     66871     66872
     66874     66873     66877     66878     66875     66873     66877     66878
     66876     66873     66877     66878     66880     66879     66883     66884
     66881     66879     66883     66884     66882     66879     66883     66884
     66886     66885     66889     66890     66887     66885     66889     66890
     66888     66885     66889     66890     66892     66891     66895     66896
     66893     66891     66895     66896     66894     66891     66895     66896
     66898     66897     66901     66902     66899     66897     66901     66902
     66900     66897     66901     66902     66904     66903     66907     66908
     66905     66903     66907     66908     66906     66903     66907     66908
     66910     66909     66913     66914     66911     66909     66913     66914
     66912     66909     66913     66914     66916     66915     66919     66920
     66917     66915     66919     66920     66918     66915     66919     66920
     66922     66921     66925     66926     66923     66921     66925     66926
     66924     66921     66925     66926     66928     66927     66931     66932
     66929     66927     66931     66932     66930     66927     66931     66932
     66934     66933     66937     66938     66935     66933     66937     66938
     66936     66933     66937     66938     66940     66939     66943     66944
     66941     66939     66943     66944     66942     66939     66943     66944
     66946     66945     66949     66950     66947     66945     66949     66950
     66948     66945     66949     66950     66952     66951     66955     66956
     66953     66951     66955     66956     66954     66951     66955     66956
     66958     66957     66961     66962     66959     66957     66961     66962
     66960     66957     66961     66962     66964     66963     66967     66968
     66965     66963     66967     66968     66966     66963     66967     66968
     66970     66969     66973     66974     66971     66969     66973     66974
     66972     66969     66973     66974     66976     66975     66979     66980
     66977     66975     66979     66980     66978     66975     66979     66980
     66982     66981     66985     66986     66983     66981     66985     66986
     66984     66981     66985     66986     66988     66987     66991     66992
     66989     66987     66991     66992     66990     66987     66991     66992
     66994     66993     66997     66998     66995     66993     66997     66998
     66996     66993     66997     66998     67000     66999     67003     67004
     67001     66999     67003     67004     67002     66999     67003     67004
     67006     67005     67009     67010     67007     67005     67009     67010
     67008     67005     67009     67010     67012     67011     67015     67016
     67013     67011     67015     67016     67014     67011     67015     67016
     67018     67017     67021     67022     67019     67017     67021     67022
     67020     67017     67021     67022     67024     67023     67027     67028
     67025     67023     67027     67028     67026     67023     67027     67028
     67030     67029     67033     67034     67031     67029     67033     67034
     67032     67029     67033     67034     67036     67035     67039     67040
     67037     67035     67039     67040     67038     67035     67039     67040
     67042     67041     67045     67046     67043     67041     67045     67046
     67044     67041     67045     67046     67048     67047     67051     67052
     67049     67047     67051     67052     67050     67047     67051     67052
     67054     67053     67057     67058     67055     67053     67057     67058
     67056     67053     67057     67058     67060     67059     67063     67064
     67061     67059     67063     67064     67062     67059     67063     67064
     67066     67065     67069     67070     67067     67065     67069     67070
     67068     67065     67069     67070     67072     67071     67075     67076
     67073     67071     67075     67076     67074     67071     67075     67076
     67078     67077     67081     67082     67079     67077     67081     67082
     67080     67077     67081     67082     67084     67083     67087     67088
     67085     67083     67087     67088     67086     67083     67087     67088
     67090     67089     67093     67094     67091     67089     67093     67094
     67092     67089     67093     67094     67096     67095     67099     67100
     67097     67095     67099     67100     67098     67095     67099     67100
     67102     67101     67105     67106     67103     67101     67105     67106
     67104     67101     67105     67106     67108     67107     67111     67112
     67109     67107     67111     67112     67110     67107     67111     67112
     67114     67113     67117     67118     67115     67113     67117     67118
     67116     67113     67117     67118     67120     67119     67123     67124
     67121     67119     67123     67124     67122     67119     67123     67124
     67126     67125     67129     67130     67127     67125     67129     67130
     67128     67125     67129     67130     67132     67131     67135     67136
     67133     67131     67135     67136     67134     67131     67135     67136
     67138     67137     67141     67142     67139     67137     67141     67142
     67140     67137     67141     67142     67144     67143     67147     67148
     67145     67143     67147     67148     67146     67143     67147     67148
     67150     67149     67153     67154     67151     67149     67153     67154
     67152     67149     67153     67154     67156     67155     67159     67160
     67157     67155     67159     67160     67158     67155     67159     67160
     67162     67161     67165     67166     67163     67161     67165     67166
     67164     67161     67165     67166     67168     67167     67171     67172
     67169     67167     67171     67172     67170     67167     67171     67172
     67174     67173     67177     67178     67175     67173     67177     67178
     67176     67173     67177     67178     67180     67179     67183     67184
     67181     67179     67183     67184     67182     67179     67183     67184
     67186     67185     67189     67190     67187     67185     67189     67190
     67188     67185     67189     67190     67192     67191     67195     67196
     67193     67191     67195     67196     67194     67191     67195     67196
     67198     67197     67201     67202     67199     67197     67201     67202
     67200     67197     67201     67202     67204     67203     67207     67208
     67205     67203     67207     67208     67206     67203     67207     67208
     67210     67209     67213     67214     67211     67209     67213     67214
     67212     67209     67213     67214     67216     67215     67219     67220
     67217     67215     67219     67220     67218     67215     67219     67220
     67222     67221     67225     67226     67223     67221     67225     67226
     67224     67221     67225     67226     67228     67227     67231     67232
     67229     67227     67231     67232     67230     67227     67231     67232
     67234     67233     67237     67238     67235     67233     67237     67238
     67236     67233     67237     67238     67240     67239     67243     67244
     67241     67239     67243     67244     67242     67239     67243     67244
     67246     67245     67249     67250     67247     67245     67249     67250
     67248     67245     67249     67250     67252     67251     67255     67256
     67253     67251     67255     67256     67254     67251     67255     67256
     67258     67257     67261     67262     67259     67257     67261     67262
     67260     67257     67261     67262     67264     67263     67267     67268
     67265     67263     67267     67268     67266     67263     67267     67268
     67270     67269     67273     67274     67271     67269     67273     67274
     67272     67269     67273     67274     67276     67275     67279     67280
     67277     67275     67279     67280     67278     67275     67279     67280
     67282     67281     67285     67286     67283     67281     67285     67286
     67284     67281     67285     67286     67288     67287     67291     67292
     67289     67287     67291     67292     67290     67287     67291     67292
     67294     67293     67297     67298     67295     67293     67297     67298
     67296     67293     67297     67298     67300     67299     67303     67304
     67301     67299     67303     67304     67302     67299     67303     67304
     67306     67305     67309     67310     67307     67305     67309     67310
     67308     67305     67309     67310     67312     67311     67315     67316
     67313     67311     67315     67316     67314     67311     67315     67316
     67318     67317     67321     67322     67319     67317     67321     67322
     67320     67317     67321     67322     67324     67323     67327     67328
     67325     67323     67327     67328     67326     67323     67327     67328
     67330     67329     67333     67334     67331     67329     67333     67334
     67332     67329     67333     67334     67336     67335     67339     67340
     67337     67335     67339     67340     67338     67335     67339     67340
     67342     67341     67345     67346     67343     67341     67345     67346
     67344     67341     67345     67346     67348     67347     67351     67352
     67349     67347     67351     67352     67350     67347     67351     67352
     67354     67353     67357     67358     67355     67353     67357     67358
     67356     67353     67357     67358     67360     67359     67363     67364
     67361     67359     67363     67364     67362     67359     67363     67364
     67366     67365     67369     67370     67367     67365     67369     67370
     67368     67365     67369     67370     67372     67371     67375     67376
     67373     67371     67375     67376     67374     67371     67375     67376
     67378     67377     67381     67382     67379     67377     67381     67382
     67380     67377     67381     67382     67384     67383     67387     67388
     67385     67383     67387     67388     67386     67383     67387     67388
     67390     67389     67393     67394     67391     67389     67393     67394
     67392     67389     67393     67394     67396     67395     67399     67400
     67397     67395     67399     67400     67398     67395     67399     67400
     67402     67401     67405     67406     67403     67401     67405     67406
     67404     67401     67405     67406     67408     67407     67411     67412
     67409     67407     67411     67412     67410     67407     67411     67412
     67414     67413     67417     67418     67415     67413     67417     67418
     67416     67413     67417     67418     67420     67419     67423     67424
     67421     67419     67423     67424     67422     67419     67423     67424
     67426     67425     67429     67430     67427     67425     67429     67430
     67428     67425     67429     67430     67432     67431     67435     67436
     67433     67431     67435     67436     67434     67431     67435     67436
     67438     67437     67441     67442     67439     67437     67441     67442
     67440     67437     67441     67442     67444     67443     67447     67448
     67445     67443     67447     67448     67446     67443     67447     67448
     67450     67449     67453     67454     67451     67449     67453     67454
     67452     67449     67453     67454     67456     67455     67459     67460
     67457     67455     67459     67460     67458     67455     67459     67460
     67462     67461     67465     67466     67463     67461     67465     67466
     67464     67461     67465     67466     67468     67467     67471     67472
     67469     67467     67471     67472     67470     67467     67471     67472
     67474     67473     67477     67478     67475     67473     67477     67478
     67476     67473     67477     67478     67480     67479     67483     67484
     67481     67479     67483     67484     67482     67479     67483     67484
     67486     67485     67489     67490     67487     67485     67489     67490
     67488     67485     67489     67490     67492     67491     67495     67496
     67493     67491     67495     67496     67494     67491     67495     67496
     67498     67497     67501     67502     67499     67497     67501     67502
     67500     67497     67501     67502     67504     67503     67507     67508
     67505     67503     67507     67508     67506     67503     67507     67508
     67510     67509     67513     67514     67511     67509     67513     67514
     67512     67509     67513     67514     67516     67515     67519     67520
     67517     67515     67519     67520     67518     67515     67519     67520
     67522     67521     67525     67526     67523     67521     67525     67526
     67524     67521     67525     67526     67528     67527     67531     67532
     67529     67527     67531     67532     67530     67527     67531     67532
     67534     67533     67537     67538     67535     67533     67537     67538
     67536     67533     67537     67538     67540     67539     67543     67544
     67541     67539     67543     67544     67542     67539     67543     67544
     67546     67545     67549     67550     67547     67545     67549     67550
     67548     67545     67549     67550     67552     67551     67555     67556
     67553     67551     67555     67556     67554     67551     67555     67556
     67558     67557     67561     67562     67559     67557     67561     67562
     67560     67557     67561     67562     67564     67563     67567     67568
     67565     67563     67567     67568     67566     67563     67567     67568
     67570     67569     67573     67574     67571     67569     67573     67574
     67572     67569     67573     67574     67576     67575     67579     67580
     67577     67575     67579     67580     67578     67575     67579     67580
     67582     67581     67585     67586     67583     67581     67585     67586
     67584     67581     67585     67586     67588     67587     67591     67592
     67589     67587     67591     67592     67590     67587     67591     67592
     67594     67593     67597     67598     67595     67593     67597     67598
     67596     67593     67597     67598     67600     67599     67603     67604
     67601     67599     67603     67604     67602     67599     67603     67604
     67606     67605     67609     67610     67607     67605     67609     67610
     67608     67605     67609     67610     67612     67611     67615     67616
     67613     67611     67615     67616     67614     67611     67615     67616
     67618     67617     67621     67622     67619     67617     67621     67622
     67620     67617     67621     67622     67624     67623     67627     67628
     67625     67623     67627     67628     67626     67623     67627     67628
     67630     67629     67633     67634     67631     67629     67633     67634
     67632     67629     67633     67634     67636     67635     67639     67640
     67637     67635     67639     67640     67638     67635     67639     67640
     67642     67641     67645     67646     67643     67641     67645     67646
     67644     67641     67645     67646     67648     67647     67651     67652
     67649     67647     67651     67652     67650     67647     67651     67652
     67654     67653     67657     67658     67655     67653     67657     67658
     67656     67653     67657     67658     67660     67659     67663     67664
     67661     67659     67663     67664     67662     67659     67663     67664
     67666     67665     67669     67670     67667     67665     67669     67670
     67668     67665     67669     67670     67672     67671     67675     67676
     67673     67671     67675     67676     67674     67671     67675     67676
     67678     67677     67681     67682     67679     67677     67681     67682
     67680     67677     67681     67682     67684     67683     67687     67688
     67685     67683     67687     67688     67686     67683     67687     67688
     67690     67689     67693     67694     67691     67689     67693     67694
     67692     67689     67693     67694     67696     67695     67699     67700
     67697     67695     67699     67700     67698     67695     67699     67700
     67702     67701     67705     67706     67703     67701     67705     67706
     67704     67701     67705     67706     67708     67707     67711     67712
     67709     67707     67711     67712     67710     67707     67711     67712
     67714     67713     67717     67718     67715     67713     67717     67718
     67716     67713     67717     67718     67720     67719     67723     67724
     67721     67719     67723     67724     67722     67719     67723     67724
     67726     67725     67729     67730     67727     67725     67729     67730
     67728     67725     67729     67730     67732     67731     67735     67736
     67733     67731     67735     67736     67734     67731     67735     67736
     67738     67737     67741     67742     67739     67737     67741     67742
     67740     67737     67741     67742     67744     67743     67747     67748
     67745     67743     67747     67748     67746     67743     67747     67748
     67750     67749     67753     67754     67751     67749     67753     67754
     67752     67749     67753     67754     67756     67755     67759     67760
     67757     67755     67759     67760     67758     67755     67759     67760
     67762     67761     67765     67766     67763     67761     67765     67766
     67764     67761     67765     67766     67768     67767     67771     67772
     67769     67767     67771     67772     67770     67767     67771     67772
     67774     67773     67777     67778     67775     67773     67777     67778
     67776     67773     67777     67778     67780     67779     67783     67784
     67781     67779     67783     67784     67782     67779     67783     67784
     67786     67785     67789     67790     67787     67785     67789     67790
     67788     67785     67789     67790     67792     67791     67795     67796
     67793     67791     67795     67796     67794     67791     67795     67796
     67798     67797     67801     67802     67799     67797     67801     67802
     67800     67797     67801     67802     67804     67803     67807     67808
     67805     67803     67807     67808     67806     67803     67807     67808
     67810     67809     67813     67814     67811     67809     67813     67814
     67812     67809     67813     67814     67816     67815     67819     67820
     67817     67815     67819     67820     67818     67815     67819     67820
     67822     67821     67825     67826     67823     67821     67825     67826
     67824     67821     67825     67826     67828     67827     67831     67832
     67829     67827     67831     67832     67830     67827     67831     67832
     67834     67833     67837     67838     67835     67833     67837     67838
     67836     67833     67837     67838     67840     67839     67843     67844
     67841     67839     67843     67844     67842     67839     67843     67844
     67846     67845     67849     67850     67847     67845     67849     67850
     67848     67845     67849     67850     67852     67851     67855     67856
     67853     67851     67855     67856     67854     67851     67855     67856
     67858     67857     67861     67862     67859     67857     67861     67862
     67860     67857     67861     67862     67864     67863     67867     67868
     67865     67863     67867     67868     67866     67863     67867     67868
     67870     67869     67873     67874     67871     67869     67873     67874
     67872     67869     67873     67874     67876     67875     67879     67880
     67877     67875     67879     67880     67878     67875     67879     67880
     67882     67881     67885     67886     67883     67881     67885     67886
     67884     67881     67885     67886     67888     67887     67891     67892
     67889     67887     67891     67892     67890     67887     67891     67892
     67894     67893     67897     67898     67895     67893     67897     67898
     67896     67893     67897     67898     67900     67899     67903     67904
     67901     67899     67903     67904     67902     67899     67903     67904
     67906     67905     67909     67910     67907     67905     67909     67910
     67908     67905     67909     67910     67912     67911     67915     67916
     67913     67911     67915     67916     67914     67911     67915     67916
     67918     67917     67921     67922     67919     67917     67921     67922
     67920     67917     67921     67922     67924     67923     67927     67928
     67925     67923     67927     67928     67926     67923     67927     67928
     67930     67929     67933     67934     67931     67929     67933     67934
     67932     67929     67933     67934     67936     67935     67939     67940
     67937     67935     67939     67940     67938     67935     67939     67940
     67942     67941     67945     67946     67943     67941     67945     67946
     67944     67941     67945     67946     67948     67947     67951     67952
     67949     67947     67951     67952     67950     67947     67951     67952
     67954     67953     67957     67958     67955     67953     67957     67958
     67956     67953     67957     67958     67960     67959     67963     67964
     67961     67959     67963     67964     67962     67959     67963     67964
     67966     67965     67969     67970     67967     67965     67969     67970
     67968     67965     67969     67970     67972     67971     67975     67976
     67973     67971     67975     67976     67974     67971     67975     67976
     67978     67977     67981     67982     67979     67977     67981     67982
     67980     67977     67981     67982     67984     67983     67987     67988
     67985     67983     67987     67988     67986     67983     67987     67988
     67990     67989     67993     67994     67991     67989     67993     67994
     67992     67989     67993     67994     67996     67995     67999     68000
     67997     67995     67999     68000     67998     67995     67999     68000
     68002     68001     68005     68006     68003     68001     68005     68006
     68004     68001     68005     68006     68008     68007     68011     68012
     68009     68007     68011     68012     68010     68007     68011     68012
     68014     68013     68017     68018     68015     68013     68017     68018
     68016     68013     68017     68018     68020     68019     68023     68024
     68021     68019     68023     68024     68022     68019     68023     68024
     68026     68025     68029     68030     68027     68025     68029     68030
     68028     68025     68029     68030     68032     68031     68035     68036
     68033     68031     68035     68036     68034     68031     68035     68036
     68038     68037     68041     68042     68039     68037     68041     68042
     68040     68037     68041     68042     68044     68043     68047     68048
     68045     68043     68047     68048     68046     68043     68047     68048
     68050     68049     68053     68054     68051     68049     68053     68054
     68052     68049     68053     68054     68056     68055     68059     68060
     68057     68055     68059     68060     68058     68055     68059     68060
     68062     68061     68065     68066     68063     68061     68065     68066
     68064     68061     68065     68066     68068     68067     68071     68072
     68069     68067     68071     68072     68070     68067     68071     68072
     68074     68073     68077     68078     68075     68073     68077     68078
     68076     68073     68077     68078     68080     68079     68083     68084
     68081     68079     68083     68084     68082     68079     68083     68084
     68086     68085     68089     68090     68087     68085     68089     68090
     68088     68085     68089     68090     68092     68091     68095     68096
     68093     68091     68095     68096     68094     68091     68095     68096
     68098     68097     68101     68102     68099     68097     68101     68102
     68100     68097     68101     68102     68104     68103     68107     68108
     68105     68103     68107     68108     68106     68103     68107     68108
     68110     68109     68113     68114     68111     68109     68113     68114
     68112     68109     68113     68114     68116     68115     68119     68120
     68117     68115     68119     68120     68118     68115     68119     68120
     68122     68121     68125     68126     68123     68121     68125     68126
     68124     68121     68125     68126     68128     68127     68131     68132
     68129     68127     68131     68132     68130     68127     68131     68132
     68134     68133     68137     68138     68135     68133     68137     68138
     68136     68133     68137     68138     68140     68139     68143     68144
     68141     68139     68143     68144     68142     68139     68143     68144
     68146     68145     68149     68150     68147     68145     68149     68150
     68148     68145     68149     68150     68152     68151     68155     68156
     68153     68151     68155     68156     68154     68151     68155     68156
     68158     68157     68161     68162     68159     68157     68161     68162
     68160     68157     68161     68162     68164     68163     68167     68168
     68165     68163     68167     68168     68166     68163     68167     68168
     68170     68169     68173     68174     68171     68169     68173     68174
     68172     68169     68173     68174     68176     68175     68179     68180
     68177     68175     68179     68180     68178     68175     68179     68180
     68182     68181     68185     68186     68183     68181     68185     68186
     68184     68181     68185     68186     68188     68187     68191     68192
     68189     68187     68191     68192     68190     68187     68191     68192
     68194     68193     68197     68198     68195     68193     68197     68198
     68196     68193     68197     68198     68200     68199     68203     68204
     68201     68199     68203     68204     68202     68199     68203     68204
     68206     68205     68209     68210     68207     68205     68209     68210
     68208     68205     68209     68210     68212     68211     68215     68216
     68213     68211     68215     68216     68214     68211     68215     68216
     68218     68217     68221     68222     68219     68217     68221     68222
     68220     68217     68221     68222     68224     68223     68227     68228
     68225     68223     68227     68228     68226     68223     68227     68228
     68230     68229     68233     68234     68231     68229     68233     68234
     68232     68229     68233     68234     68236     68235     68239     68240
     68237     68235     68239     68240     68238     68235     68239     68240
     68242     68241     68245     68246     68243     68241     68245     68246
     68244     68241     68245     68246     68248     68247     68251     68252
     68249     68247     68251     68252     68250     68247     68251     68252
     68254     68253     68257     68258     68255     68253     68257     68258
     68256     68253     68257     68258     68260     68259     68263     68264
     68261     68259     68263     68264     68262     68259     68263     68264
     68266     68265     68269     68270     68267     68265     68269     68270
     68268     68265     68269     68270     68272     68271     68275     68276
     68273     68271     68275     68276     68274     68271     68275     68276
     68278     68277     68281     68282     68279     68277     68281     68282
     68280     68277     68281     68282     68284     68283     68287     68288
     68285     68283     68287     68288     68286     68283     68287     68288
     68290     68289     68293     68294     68291     68289     68293     68294
     68292     68289     68293     68294     68296     68295     68299     68300
     68297     68295     68299     68300     68298     68295     68299     68300
     68302     68301     68305     68306     68303     68301     68305     68306
     68304     68301     68305     68306     68308     68307     68311     68312
     68309     68307     68311     68312     68310     68307     68311     68312
     68314     68313     68317     68318     68315     68313     68317     68318
     68316     68313     68317     68318     68320     68319     68323     68324
     68321     68319     68323     68324     68322     68319     68323     68324
     68326     68325     68329     68330     68327     68325     68329     68330
     68328     68325     68329     68330     68332     68331     68335     68336
     68333     68331     68335     68336     68334     68331     68335     68336
     68338     68337     68341     68342     68339     68337     68341     68342
     68340     68337     68341     68342     68344     68343     68347     68348
     68345     68343     68347     68348     68346     68343     68347     68348
     68350     68349     68353     68354     68351     68349     68353     68354
     68352     68349     68353     68354     68356     68355     68359     68360
     68357     68355     68359     68360     68358     68355     68359     68360
     68362     68361     68365     68366     68363     68361     68365     68366
     68364     68361     68365     68366     68368     68367     68371     68372
     68369     68367     68371     68372     68370     68367     68371     68372
     68374     68373     68377     68378     68375     68373     68377     68378
     68376     68373     68377     68378     68380     68379     68383     68384
     68381     68379     68383     68384     68382     68379     68383     68384
     68386     68385     68389     68390     68387     68385     68389     68390
     68388     68385     68389     68390     68392     68391     68395     68396
     68393     68391     68395     68396     68394     68391     68395     68396
     68398     68397     68401     68402     68399     68397     68401     68402
     68400     68397     68401     68402     68404     68403     68407     68408
     68405     68403     68407     68408     68406     68403     68407     68408
     68410     68409     68413     68414     68411     68409     68413     68414
     68412     68409     68413     68414     68416     68415     68419     68420
     68417     68415     68419     68420     68418     68415     68419     68420
     68422     68421     68425     68426     68423     68421     68425     68426
     68424     68421     68425     68426     68428     68427     68431     68432
     68429     68427     68431     68432     68430     68427     68431     68432
     68434     68433     68437     68438     68435     68433     68437     68438
     68436     68433     68437     68438     68440     68439     68443     68444
     68441     68439     68443     68444     68442     68439     68443     68444
     68446     68445     68449     68450     68447     68445     68449     68450
     68448     68445     68449     68450     68452     68451     68455     68456
     68453     68451     68455     68456     68454     68451     68455     68456
     68458     68457     68461     68462     68459     68457     68461     68462
     68460     68457     68461     68462     68464     68463     68467     68468
     68465     68463     68467     68468     68466     68463     68467     68468
     68470     68469     68473     68474     68471     68469     68473     68474
     68472     68469     68473     68474     68476     68475     68479     68480
     68477     68475     68479     68480     68478     68475     68479     68480
     68482     68481     68485     68486     68483     68481     68485     68486
     68484     68481     68485     68486     68488     68487     68491     68492
     68489     68487     68491     68492     68490     68487     68491     68492
     68494     68493     68497     68498     68495     68493     68497     68498
     68496     68493     68497     68498     68500     68499     68503     68504
     68501     68499     68503     68504     68502     68499     68503     68504
     68506     68505     68509     68510     68507     68505     68509     68510
     68508     68505     68509     68510     68512     68511     68515     68516
     68513     68511     68515     68516     68514     68511     68515     68516
     68518     68517     68521     68522     68519     68517     68521     68522
     68520     68517     68521     68522     68524     68523     68527     68528
     68525     68523     68527     68528     68526     68523     68527     68528
     68530     68529     68533     68534     68531     68529     68533     68534
     68532     68529     68533     68534     68536     68535     68539     68540
     68537     68535     68539     68540     68538     68535     68539     68540
     68542     68541     68545     68546     68543     68541     68545     68546
     68544     68541     68545     68546     68548     68547     68551     68552
     68549     68547     68551     68552     68550     68547     68551     68552
     68554     68553     68557     68558     68555     68553     68557     68558
     68556     68553     68557     68558     68560     68559     68563     68564
     68561     68559     68563     68564     68562     68559     68563     68564
     68566     68565     68569     68570     68567     68565     68569     68570
     68568     68565     68569     68570     68572     68571     68575     68576
     68573     68571     68575     68576     68574     68571     68575     68576
     68578     68577     68581     68582     68579     68577     68581     68582
     68580     68577     68581     68582     68584     68583     68587     68588
     68585     68583     68587     68588     68586     68583     68587     68588
     68590     68589     68593     68594     68591     68589     68593     68594
     68592     68589     68593     68594     68596     68595     68599     68600
     68597     68595     68599     68600     68598     68595     68599     68600
     68602     68601     68605     68606     68603     68601     68605     68606
     68604     68601     68605     68606     68608     68607     68611     68612
     68609     68607     68611     68612     68610     68607     68611     68612
     68614     68613     68617     68618     68615     68613     68617     68618
     68616     68613     68617     68618     68620     68619     68623     68624
     68621     68619     68623     68624     68622     68619     68623     68624
     68626     68625     68629     68630     68627     68625     68629     68630
     68628     68625     68629     68630     68632     68631     68635     68636
     68633     68631     68635     68636     68634     68631     68635     68636
     68638     68637     68641     68642     68639     68637     68641     68642
     68640     68637     68641     68642     68644     68643     68647     68648
     68645     68643     68647     68648     68646     68643     68647     68648
     68650     68649     68653     68654     68651     68649     68653     68654
     68652     68649     68653     68654     68656     68655     68659     68660
     68657     68655     68659     68660     68658     68655     68659     68660
     68662     68661     68665     68666     68663     68661     68665     68666
     68664     68661     68665     68666     68668     68667     68671     68672
     68669     68667     68671     68672     68670     68667     68671     68672
     68674     68673     68677     68678     68675     68673     68677     68678
     68676     68673     68677     68678     68680     68679     68683     68684
     68681     68679     68683     68684     68682     68679     68683     68684
     68686     68685     68689     68690     68687     68685     68689     68690
     68688     68685     68689     68690     68692     68691     68695     68696
     68693     68691     68695     68696     68694     68691     68695     68696
     68698     68697     68701     68702     68699     68697     68701     68702
     68700     68697     68701     68702     68704     68703     68707     68708
     68705     68703     68707     68708     68706     68703     68707     68708
     68710     68709     68713     68714     68711     68709     68713     68714
     68712     68709     68713     68714     68716     68715     68719     68720
     68717     68715     68719     68720     68718     68715     68719     68720
     68722     68721     68725     68726     68723     68721     68725     68726
     68724     68721     68725     68726     68728     68727     68731     68732
     68729     68727     68731     68732     68730     68727     68731     68732
     68734     68733     68737     68738     68735     68733     68737     68738
     68736     68733     68737     68738     68740     68739     68743     68744
     68741     68739     68743     68744     68742     68739     68743     68744
     68746     68745     68749     68750     68747     68745     68749     68750
     68748     68745     68749     68750     68752     68751     68755     68756
     68753     68751     68755     68756     68754     68751     68755     68756
     68758     68757     68761     68762     68759     68757     68761     68762
     68760     68757     68761     68762     68764     68763     68767     68768
     68765     68763     68767     68768     68766     68763     68767     68768
     68770     68769     68773     68774     68771     68769     68773     68774
     68772     68769     68773     68774     68776     68775     68779     68780
     68777     68775     68779     68780     68778     68775     68779     68780
     68782     68781     68785     68786     68783     68781     68785     68786
     68784     68781     68785     68786     68788     68787     68791     68792
     68789     68787     68791     68792     68790     68787     68791     68792
     68794     68793     68797     68798     68795     68793     68797     68798
     68796     68793     68797     68798     68800     68799     68803     68804
     68801     68799     68803     68804     68802     68799     68803     68804
     68806     68805     68809     68810     68807     68805     68809     68810
     68808     68805     68809     68810     68812     68811     68815     68816
     68813     68811     68815     68816     68814     68811     68815     68816
     68818     68817     68821     68822     68819     68817     68821     68822
     68820     68817     68821     68822     68824     68823     68827     68828
     68825     68823     68827     68828     68826     68823     68827     68828
     68830     68829     68833     68834     68831     68829     68833     68834
     68832     68829     68833     68834     68836     68835     68839     68840
     68837     68835     68839     68840     68838     68835     68839     68840
     68842     68841     68845     68846     68843     68841     68845     68846
     68844     68841     68845     68846     68848     68847     68851     68852
     68849     68847     68851     68852     68850     68847     68851     68852
     68854     68853     68857     68858     68855     68853     68857     68858
     68856     68853     68857     68858     68860     68859     68863     68864
     68861     68859     68863     68864     68862     68859     68863     68864
     68866     68865     68869     68870     68867     68865     68869     68870
     68868     68865     68869     68870     68872     68871     68875     68876
     68873     68871     68875     68876     68874     68871     68875     68876
     68878     68877     68881     68882     68879     68877     68881     68882
     68880     68877     68881     68882     68884     68883     68887     68888
     68885     68883     68887     68888     68886     68883     68887     68888
     68890     68889     68893     68894     68891     68889     68893     68894
     68892     68889     68893     68894     68896     68895     68899     68900
     68897     68895     68899     68900     68898     68895     68899     68900
     68902     68901     68905     68906     68903     68901     68905     68906
     68904     68901     68905     68906     68908     68907     68911     68912
     68909     68907     68911     68912     68910     68907     68911     68912
     68914     68913     68917     68918     68915     68913     68917     68918
     68916     68913     68917     68918     68920     68919     68923     68924
     68921     68919     68923     68924     68922     68919     68923     68924
     68926     68925     68929     68930     68927     68925     68929     68930
     68928     68925     68929     68930     68932     68931     68935     68936
     68933     68931     68935     68936     68934     68931     68935     68936
     68938     68937     68941     68942     68939     68937     68941     68942
     68940     68937     68941     68942     68944     68943     68947     68948
     68945     68943     68947     68948     68946     68943     68947     68948
     68950     68949     68953     68954     68951     68949     68953     68954
     68952     68949     68953     68954     68956     68955     68959     68960
     68957     68955     68959     68960     68958     68955     68959     68960
     68962     68961     68965     68966     68963     68961     68965     68966
     68964     68961     68965     68966     68968     68967     68971     68972
     68969     68967     68971     68972     68970     68967     68971     68972
     68974     68973     68977     68978     68975     68973     68977     68978
     68976     68973     68977     68978     68980     68979     68983     68984
     68981     68979     68983     68984     68982     68979     68983     68984
     68986     68985     68989     68990     68987     68985     68989     68990
     68988     68985     68989     68990     68992     68991     68995     68996
     68993     68991     68995     68996     68994     68991     68995     68996
     68998     68997     69001     69002     68999     68997     69001     69002
     69000     68997     69001     69002     69004     69003     69007     69008
     69005     69003     69007     69008     69006     69003     69007     69008
     69010     69009     69013     69014     69011     69009     69013     69014
     69012     69009     69013     69014     69016     69015     69019     69020
     69017     69015     69019     69020     69018     69015     69019     69020
     69022     69021     69025     69026     69023     69021     69025     69026
     69024     69021     69025     69026     69028     69027     69031     69032
     69029     69027     69031     69032     69030     69027     69031     69032
     69034     69033     69037     69038     69035     69033     69037     69038
     69036     69033     69037     69038     69040     69039     69043     69044
     69041     69039     69043     69044     69042     69039     69043     69044
     69046     69045     69049     69050     69047     69045     69049     69050
     69048     69045     69049     69050     69052     69051     69055     69056
     69053     69051     69055     69056     69054     69051     69055     69056
     69058     69057     69061     69062     69059     69057     69061     69062
     69060     69057     69061     69062     69064     69063     69067     69068
     69065     69063     69067     69068     69066     69063     69067     69068
     69070     69069     69073     69074     69071     69069     69073     69074
     69072     69069     69073     69074     69076     69075     69079     69080
     69077     69075     69079     69080     69078     69075     69079     69080
     69082     69081     69085     69086     69083     69081     69085     69086
     69084     69081     69085     69086     69088     69087     69091     69092
     69089     69087     69091     69092     69090     69087     69091     69092
     69094     69093     69097     69098     69095     69093     69097     69098
     69096     69093     69097     69098     69100     69099     69103     69104
     69101     69099     69103     69104     69102     69099     69103     69104
     69106     69105     69109     69110     69107     69105     69109     69110
     69108     69105     69109     69110     69112     69111     69115     69116
     69113     69111     69115     69116     69114     69111     69115     69116
     69118     69117     69121     69122     69119     69117     69121     69122
     69120     69117     69121     69122     69124     69123     69127     69128
     69125     69123     69127     69128     69126     69123     69127     69128
     69130     69129     69133     69134     69131     69129     69133     69134
     69132     69129     69133     69134     69136     69135     69139     69140
     69137     69135     69139     69140     69138     69135     69139     69140
     69142     69141     69145     69146     69143     69141     69145     69146
     69144     69141     69145     69146     69148     69147     69151     69152
     69149     69147     69151     69152     69150     69147     69151     69152
     69154     69153     69157     69158     69155     69153     69157     69158
     69156     69153     69157     69158     69160     69159     69163     69164
     69161     69159     69163     69164     69162     69159     69163     69164
     69166     69165     69169     69170     69167     69165     69169     69170
     69168     69165     69169     69170     69172     69171     69175     69176
     69173     69171     69175     69176     69174     69171     69175     69176
     69178     69177     69181     69182     69179     69177     69181     69182
     69180     69177     69181     69182     69184     69183     69187     69188
     69185     69183     69187     69188     69186     69183     69187     69188
     69190     69189     69193     69194     69191     69189     69193     69194
     69192     69189     69193     69194     69196     69195     69199     69200
     69197     69195     69199     69200     69198     69195     69199     69200
     69202     69201     69205     69206     69203     69201     69205     69206
     69204     69201     69205     69206     69208     69207     69211     69212
     69209     69207     69211     69212     69210     69207     69211     69212
     69214     69213     69217     69218     69215     69213     69217     69218
     69216     69213     69217     69218     69220     69219     69223     69224
     69221     69219     69223     69224     69222     69219     69223     69224
     69226     69225     69229     69230     69227     69225     69229     69230
     69228     69225     69229     69230     69232     69231     69235     69236
     69233     69231     69235     69236     69234     69231     69235     69236
     69238     69237     69241     69242     69239     69237     69241     69242
     69240     69237     69241     69242     69244     69243     69247     69248
     69245     69243     69247     69248     69246     69243     69247     69248
     69250     69249     69253     69254     69251     69249     69253     69254
     69252     69249     69253     69254     69256     69255     69259     69260
     69257     69255     69259     69260     69258     69255     69259     69260
     69262     69261     69265     69266     69263     69261     69265     69266
     69264     69261     69265     69266     69268     69267     69271     69272
     69269     69267     69271     69272     69270     69267     69271     69272
     69274     69273     69277     69278     69275     69273     69277     69278
     69276     69273     69277     69278     69280     69279     69283     69284
     69281     69279     69283     69284     69282     69279     69283     69284
     69286     69285     69289     69290     69287     69285     69289     69290
     69288     69285     69289     69290     69292     69291     69295     69296
     69293     69291     69295     69296     69294     69291     69295     69296
     69298     69297     69301     69302     69299     69297     69301     69302
     69300     69297     69301     69302     69304     69303     69307     69308
     69305     69303     69307     69308     69306     69303     69307     69308
     69310     69309     69313     69314     69311     69309     69313     69314
     69312     69309     69313     69314     69316     69315     69319     69320
     69317     69315     69319     69320     69318     69315     69319     69320
     69322     69321     69325     69326     69323     69321     69325     69326
     69324     69321     69325     69326     69328     69327     69331     69332
     69329     69327     69331     69332     69330     69327     69331     69332
     69334     69333     69337     69338     69335     69333     69337     69338
     69336     69333     69337     69338     69340     69339     69343     69344
     69341     69339     69343     69344     69342     69339     69343     69344
     69346     69345     69349     69350     69347     69345     69349     69350
     69348     69345     69349     69350     69352     69351     69355     69356
     69353     69351     69355     69356     69354     69351     69355     69356
     69358     69357     69361     69362     69359     69357     69361     69362
     69360     69357     69361     69362     69364     69363     69367     69368
     69365     69363     69367     69368     69366     69363     69367     69368
     69370     69369     69373     69374     69371     69369     69373     69374
     69372     69369     69373     69374     69376     69375     69379     69380
     69377     69375     69379     69380     69378     69375     69379     69380
     69382     69381     69385     69386     69383     69381     69385     69386
     69384     69381     69385     69386     69388     69387     69391     69392
     69389     69387     69391     69392     69390     69387     69391     69392
     69394     69393     69397     69398     69395     69393     69397     69398
     69396     69393     69397     69398     69400     69399     69403     69404
     69401     69399     69403     69404     69402     69399     69403     69404
     69406     69405     69409     69410     69407     69405     69409     69410
     69408     69405     69409     69410     69412     69411     69415     69416
     69413     69411     69415     69416     69414     69411     69415     69416
     69418     69417     69421     69422     69419     69417     69421     69422
     69420     69417     69421     69422     69424     69423     69427     69428
     69425     69423     69427     69428     69426     69423     69427     69428
     69430     69429     69433     69434     69431     69429     69433     69434
     69432     69429     69433     69434     69436     69435     69439     69440
     69437     69435     69439     69440     69438     69435     69439     69440
     69442     69441     69445     69446     69443     69441     69445     69446
     69444     69441     69445     69446     69448     69447     69451     69452
     69449     69447     69451     69452     69450     69447     69451     69452
     69454     69453     69457     69458     69455     69453     69457     69458
     69456     69453     69457     69458     69460     69459     69463     69464
     69461     69459     69463     69464     69462     69459     69463     69464
     69466     69465     69469     69470     69467     69465     69469     69470
     69468     69465     69469     69470     69472     69471     69475     69476
     69473     69471     69475     69476     69474     69471     69475     69476
     69478     69477     69481     69482     69479     69477     69481     69482
     69480     69477     69481     69482     69484     69483     69487     69488
     69485     69483     69487     69488     69486     69483     69487     69488
     69490     69489     69493     69494     69491     69489     69493     69494
     69492     69489     69493     69494     69496     69495     69499     69500
     69497     69495     69499     69500     69498     69495     69499     69500
     69502     69501     69505     69506     69503     69501     69505     69506
     69504     69501     69505     69506     69508     69507     69511     69512
     69509     69507     69511     69512     69510     69507     69511     69512
     69514     69513     69517     69518     69515     69513     69517     69518
     69516     69513     69517     69518     69520     69519     69523     69524
     69521     69519     69523     69524     69522     69519     69523     69524
     69526     69525     69529     69530     69527     69525     69529     69530
     69528     69525     69529     69530     69532     69531     69535     69536
     69533     69531     69535     69536     69534     69531     69535     69536
     69538     69537     69541     69542     69539     69537     69541     69542
     69540     69537     69541     69542     69544     69543     69547     69548
     69545     69543     69547     69548     69546     69543     69547     69548
     69550     69549     69553     69554     69551     69549     69553     69554
     69552     69549     69553     69554     69556     69555     69559     69560
     69557     69555     69559     69560     69558     69555     69559     69560
     69562     69561     69565     69566     69563     69561     69565     69566
     69564     69561     69565     69566     69568     69567     69571     69572
     69569     69567     69571     69572     69570     69567     69571     69572
     69574     69573     69577     69578     69575     69573     69577     69578
     69576     69573     69577     69578     69580     69579     69583     69584
     69581     69579     69583     69584     69582     69579     69583     69584
     69586     69585     69589     69590     69587     69585     69589     69590
     69588     69585     69589     69590     69592     69591     69595     69596
     69593     69591     69595     69596     69594     69591     69595     69596
     69598     69597     69601     69602     69599     69597     69601     69602
     69600     69597     69601     69602     69604     69603     69607     69608
     69605     69603     69607     69608     69606     69603     69607     69608
     69610     69609     69613     69614     69611     69609     69613     69614
     69612     69609     69613     69614     69616     69615     69619     69620
     69617     69615     69619     69620     69618     69615     69619     69620
     69622     69621     69625     69626     69623     69621     69625     69626
     69624     69621     69625     69626     69628     69627     69631     69632
     69629     69627     69631     69632     69630     69627     69631     69632
     69634     69633     69637     69638     69635     69633     69637     69638
     69636     69633     69637     69638     69640     69639     69643     69644
     69641     69639     69643     69644     69642     69639     69643     69644
     69646     69645     69649     69650     69647     69645     69649     69650
     69648     69645     69649     69650     69652     69651     69655     69656
     69653     69651     69655     69656     69654     69651     69655     69656
     69658     69657     69661     69662     69659     69657     69661     69662
     69660     69657     69661     69662     69664     69663     69667     69668
     69665     69663     69667     69668     69666     69663     69667     69668
     69670     69669     69673     69674     69671     69669     69673     69674
     69672     69669     69673     69674     69676     69675     69679     69680
     69677     69675     69679     69680     69678     69675     69679     69680
     69682     69681     69685     69686     69683     69681     69685     69686
     69684     69681     69685     69686     69688     69687     69691     69692
     69689     69687     69691     69692     69690     69687     69691     69692
     69694     69693     69697     69698     69695     69693     69697     69698
     69696     69693     69697     69698     69700     69699     69703     69704
     69701     69699     69703     69704     69702     69699     69703     69704
     69706     69705     69709     69710     69707     69705     69709     69710
     69708     69705     69709     69710     69712     69711     69715     69716
     69713     69711     69715     69716     69714     69711     69715     69716
     69718     69717     69721     69722     69719     69717     69721     69722
     69720     69717     69721     69722     69724     69723     69727     69728
     69725     69723     69727     69728     69726     69723     69727     69728
     69730     69729     69733     69734     69731     69729     69733     69734
     69732     69729     69733     69734     69736     69735     69739     69740
     69737     69735     69739     69740     69738     69735     69739     69740
     69742     69741     69745     69746     69743     69741     69745     69746
     69744     69741     69745     69746     69748     69747     69751     69752
     69749     69747     69751     69752     69750     69747     69751     69752
     69754     69753     69757     69758     69755     69753     69757     69758
     69756     69753     69757     69758     69760     69759     69763     69764
     69761     69759     69763     69764     69762     69759     69763     69764
     69766     69765     69769     69770     69767     69765     69769     69770
     69768     69765     69769     69770     69772     69771     69775     69776
     69773     69771     69775     69776     69774     69771     69775     69776
     69778     69777     69781     69782     69779     69777     69781     69782
     69780     69777     69781     69782     69784     69783     69787     69788
     69785     69783     69787     69788     69786     69783     69787     69788
     69790     69789     69793     69794     69791     69789     69793     69794
     69792     69789     69793     69794     69796     69795     69799     69800
     69797     69795     69799     69800     69798     69795     69799     69800
     69802     69801     69805     69806     69803     69801     69805     69806
     69804     69801     69805     69806     69808     69807     69811     69812
     69809     69807     69811     69812     69810     69807     69811     69812
     69814     69813     69817     69818     69815     69813     69817     69818
     69816     69813     69817     69818     69820     69819     69823     69824
     69821     69819     69823     69824     69822     69819     69823     69824
     69826     69825     69829     69830     69827     69825     69829     69830
     69828     69825     69829     69830     69832     69831     69835     69836
     69833     69831     69835     69836     69834     69831     69835     69836
     69838     69837     69841     69842     69839     69837     69841     69842
     69840     69837     69841     69842     69844     69843     69847     69848
     69845     69843     69847     69848     69846     69843     69847     69848
     69850     69849     69853     69854     69851     69849     69853     69854
     69852     69849     69853     69854     69856     69855     69859     69860
     69857     69855     69859     69860     69858     69855     69859     69860
     69862     69861     69865     69866     69863     69861     69865     69866
     69864     69861     69865     69866     69868     69867     69871     69872
     69869     69867     69871     69872     69870     69867     69871     69872
     69874     69873     69877     69878     69875     69873     69877     69878
     69876     69873     69877     69878     69880     69879     69883     69884
     69881     69879     69883     69884     69882     69879     69883     69884
     69886     69885     69889     69890     69887     69885     69889     69890
     69888     69885     69889     69890     69892     69891     69895     69896
     69893     69891     69895     69896     69894     69891     69895     69896
     69898     69897     69901     69902     69899     69897     69901     69902
     69900     69897     69901     69902     69904     69903     69907     69908
     69905     69903     69907     69908     69906     69903     69907     69908
     69910     69909     69913     69914     69911     69909     69913     69914
     69912     69909     69913     69914     69916     69915     69919     69920
     69917     69915     69919     69920     69918     69915     69919     69920
     69922     69921     69925     69926     69923     69921     69925     69926
     69924     69921     69925     69926     69928     69927     69931     69932
     69929     69927     69931     69932     69930     69927     69931     69932
     69934     69933     69937     69938     69935     69933     69937     69938
     69936     69933     69937     69938     69940     69939     69943     69944
     69941     69939     69943     69944     69942     69939     69943     69944
     69946     69945     69949     69950     69947     69945     69949     69950
     69948     69945     69949     69950     69952     69951     69955     69956
     69953     69951     69955     69956     69954     69951     69955     69956
     69958     69957     69961     69962     69959     69957     69961     69962
     69960     69957     69961     69962     69964     69963     69967     69968
     69965     69963     69967     69968     69966     69963     69967     69968
     69970     69969     69973     69974     69971     69969     69973     69974
     69972     69969     69973     69974     69976     69975     69979     69980
     69977     69975     69979     69980     69978     69975     69979     69980
     69982     69981     69985     69986     69983     69981     69985     69986
     69984     69981     69985     69986     69988     69987     69991     69992
     69989     69987     69991     69992     69990     69987     69991     69992
     69994     69993     69997     69998     69995     69993     69997     69998
     69996     69993     69997     69998     70000     69999     70003     70004
     70001     69999     70003     70004     70002     69999     70003     70004
     70006     70005     70009     70010     70007     70005     70009     70010
     70008     70005     70009     70010     70012     70011     70015     70016
     70013     70011     70015     70016     70014     70011     70015     70016
     70018     70017     70021     70022     70019     70017     70021     70022
     70020     70017     70021     70022     70024     70023     70027     70028
     70025     70023     70027     70028     70026     70023     70027     70028
     70030     70029     70033     70034     70031     70029     70033     70034
     70032     70029     70033     70034     70036     70035     70039     70040
     70037     70035     70039     70040     70038     70035     70039     70040
     70042     70041     70045     70046     70043     70041     70045     70046
     70044     70041     70045     70046     70048     70047     70051     70052
     70049     70047     70051     70052     70050     70047     70051     70052
     70054     70053     70057     70058     70055     70053     70057     70058
     70056     70053     70057     70058     70060     70059     70063     70064
     70061     70059     70063     70064     70062     70059     70063     70064
     70066     70065     70069     70070     70067     70065     70069     70070
     70068     70065     70069     70070     70072     70071     70075     70076
     70073     70071     70075     70076     70074     70071     70075     70076
     70078     70077     70081     70082     70079     70077     70081     70082
     70080     70077     70081     70082     70084     70083     70087     70088
     70085     70083     70087     70088     70086     70083     70087     70088
     70090     70089     70093     70094     70091     70089     70093     70094
     70092     70089     70093     70094     70096     70095     70099     70100
     70097     70095     70099     70100     70098     70095     70099     70100
     70102     70101     70105     70106     70103     70101     70105     70106
     70104     70101     70105     70106     70108     70107     70111     70112
     70109     70107     70111     70112     70110     70107     70111     70112
     70114     70113     70117     70118     70115     70113     70117     70118
     70116     70113     70117     70118     70120     70119     70123     70124
     70121     70119     70123     70124     70122     70119     70123     70124
     70126     70125     70129     70130     70127     70125     70129     70130
     70128     70125     70129     70130     70132     70131     70135     70136
     70133     70131     70135     70136     70134     70131     70135     70136
     70138     70137     70141     70142     70139     70137     70141     70142
     70140     70137     70141     70142     70144     70143     70147     70148
     70145     70143     70147     70148     70146     70143     70147     70148
     70150     70149     70153     70154     70151     70149     70153     70154
     70152     70149     70153     70154     70156     70155     70159     70160
     70157     70155     70159     70160     70158     70155     70159     70160
     70162     70161     70165     70166     70163     70161     70165     70166
     70164     70161     70165     70166     70168     70167     70171     70172
     70169     70167     70171     70172     70170     70167     70171     70172
     70174     70173     70177     70178     70175     70173     70177     70178
     70176     70173     70177     70178     70180     70179     70183     70184
     70181     70179     70183     70184     70182     70179     70183     70184
     70186     70185     70189     70190     70187     70185     70189     70190
     70188     70185     70189     70190     70192     70191     70195     70196
     70193     70191     70195     70196     70194     70191     70195     70196
     70198     70197     70201     70202     70199     70197     70201     70202
     70200     70197     70201     70202     70204     70203     70207     70208
     70205     70203     70207     70208     70206     70203     70207     70208
     70210     70209     70213     70214     70211     70209     70213     70214
     70212     70209     70213     70214     70216     70215     70219     70220
     70217     70215     70219     70220     70218     70215     70219     70220
     70222     70221     70225     70226     70223     70221     70225     70226
     70224     70221     70225     70226     70228     70227     70231     70232
     70229     70227     70231     70232     70230     70227     70231     70232
     70234     70233     70237     70238     70235     70233     70237     70238
     70236     70233     70237     70238     70240     70239     70243     70244
     70241     70239     70243     70244     70242     70239     70243     70244
     70246     70245     70249     70250     70247     70245     70249     70250
     70248     70245     70249     70250     70252     70251     70255     70256
     70253     70251     70255     70256     70254     70251     70255     70256
     70258     70257     70261     70262     70259     70257     70261     70262
     70260     70257     70261     70262     70264     70263     70267     70268
     70265     70263     70267     70268     70266     70263     70267     70268
     70270     70269     70273     70274     70271     70269     70273     70274
     70272     70269     70273     70274     70276     70275     70279     70280
     70277     70275     70279     70280     70278     70275     70279     70280
     70282     70281     70285     70286     70283     70281     70285     70286
     70284     70281     70285     70286     70288     70287     70291     70292
     70289     70287     70291     70292     70290     70287     70291     70292
     70294     70293     70297     70298     70295     70293     70297     70298
     70296     70293     70297     70298     70300     70299     70303     70304
     70301     70299     70303     70304     70302     70299     70303     70304
     70306     70305     70309     70310     70307     70305     70309     70310
     70308     70305     70309     70310     70312     70311     70315     70316
     70313     70311     70315     70316     70314     70311     70315     70316
     70318     70317     70321     70322     70319     70317     70321     70322
     70320     70317     70321     70322     70324     70323     70327     70328
     70325     70323     70327     70328     70326     70323     70327     70328
     70330     70329     70333     70334     70331     70329     70333     70334
     70332     70329     70333     70334     70336     70335     70339     70340
     70337     70335     70339     70340     70338     70335     70339     70340
     70342     70341     70345     70346     70343     70341     70345     70346
     70344     70341     70345     70346     70348     70347     70351     70352
     70349     70347     70351     70352     70350     70347     70351     70352
     70354     70353     70357     70358     70355     70353     70357     70358
     70356     70353     70357     70358     70360     70359     70363     70364
     70361     70359     70363     70364     70362     70359     70363     70364
     70366     70365     70369     70370     70367     70365     70369     70370
     70368     70365     70369     70370     70372     70371     70375     70376
     70373     70371     70375     70376     70374     70371     70375     70376
     70378     70377     70381     70382     70379     70377     70381     70382
     70380     70377     70381     70382     70384     70383     70387     70388
     70385     70383     70387     70388     70386     70383     70387     70388
     70390     70389     70393     70394     70391     70389     70393     70394
     70392     70389     70393     70394     70396     70395     70399     70400
     70397     70395     70399     70400     70398     70395     70399     70400
     70402     70401     70405     70406     70403     70401     70405     70406
     70404     70401     70405     70406     70408     70407     70411     70412
     70409     70407     70411     70412     70410     70407     70411     70412
     70414     70413     70417     70418     70415     70413     70417     70418
     70416     70413     70417     70418     70420     70419     70423     70424
     70421     70419     70423     70424     70422     70419     70423     70424
     70426     70425     70429     70430     70427     70425     70429     70430
     70428     70425     70429     70430     70432     70431     70435     70436
     70433     70431     70435     70436     70434     70431     70435     70436
     70438     70437     70441     70442     70439     70437     70441     70442
     70440     70437     70441     70442     70444     70443     70447     70448
     70445     70443     70447     70448     70446     70443     70447     70448
     70450     70449     70453     70454     70451     70449     70453     70454
     70452     70449     70453     70454     70456     70455     70459     70460
     70457     70455     70459     70460     70458     70455     70459     70460
     70462     70461     70465     70466     70463     70461     70465     70466
     70464     70461     70465     70466     70468     70467     70471     70472
     70469     70467     70471     70472     70470     70467     70471     70472
     70474     70473     70477     70478     70475     70473     70477     70478
     70476     70473     70477     70478     70480     70479     70483     70484
     70481     70479     70483     70484     70482     70479     70483     70484
     70486     70485     70489     70490     70487     70485     70489     70490
     70488     70485     70489     70490     70492     70491     70495     70496
     70493     70491     70495     70496     70494     70491     70495     70496
     70498     70497     70501     70502     70499     70497     70501     70502
     70500     70497     70501     70502     70504     70503     70507     70508
     70505     70503     70507     70508     70506     70503     70507     70508
     70510     70509     70513     70514     70511     70509     70513     70514
     70512     70509     70513     70514     70516     70515     70519     70520
     70517     70515     70519     70520     70518     70515     70519     70520
     70522     70521     70525     70526     70523     70521     70525     70526
     70524     70521     70525     70526     70528     70527     70531     70532
     70529     70527     70531     70532     70530     70527     70531     70532
     70534     70533     70537     70538     70535     70533     70537     70538
     70536     70533     70537     70538     70540     70539     70543     70544
     70541     70539     70543     70544     70542     70539     70543     70544
     70546     70545     70549     70550     70547     70545     70549     70550
     70548     70545     70549     70550     70552     70551     70555     70556
     70553     70551     70555     70556     70554     70551     70555     70556
     70558     70557     70561     70562     70559     70557     70561     70562
     70560     70557     70561     70562     70564     70563     70567     70568
     70565     70563     70567     70568     70566     70563     70567     70568
     70570     70569     70573     70574     70571     70569     70573     70574
     70572     70569     70573     70574     70576     70575     70579     70580
     70577     70575     70579     70580     70578     70575     70579     70580
     70582     70581     70585     70586     70583     70581     70585     70586
     70584     70581     70585     70586     70588     70587     70591     70592
     70589     70587     70591     70592     70590     70587     70591     70592
     70594     70593     70597     70598     70595     70593     70597     70598
     70596     70593     70597     70598     70600     70599     70603     70604
     70601     70599     70603     70604     70602     70599     70603     70604
     70606     70605     70609     70610     70607     70605     70609     70610
     70608     70605     70609     70610     70612     70611     70615     70616
     70613     70611     70615     70616     70614     70611     70615     70616
     70618     70617     70621     70622     70619     70617     70621     70622
     70620     70617     70621     70622     70624     70623     70627     70628
     70625     70623     70627     70628     70626     70623     70627     70628
     70630     70629     70633     70634     70631     70629     70633     70634
     70632     70629     70633     70634     70636     70635     70639     70640
     70637     70635     70639     70640     70638     70635     70639     70640
     70642     70641     70645     70646     70643     70641     70645     70646
     70644     70641     70645     70646     70648     70647     70651     70652
     70649     70647     70651     70652     70650     70647     70651     70652
     70654     70653     70657     70658     70655     70653     70657     70658
     70656     70653     70657     70658     70660     70659     70663     70664
     70661     70659     70663     70664     70662     70659     70663     70664
     70666     70665     70669     70670     70667     70665     70669     70670
     70668     70665     70669     70670     70672     70671     70675     70676
     70673     70671     70675     70676     70674     70671     70675     70676
     70678     70677     70681     70682     70679     70677     70681     70682
     70680     70677     70681     70682     70684     70683     70687     70688
     70685     70683     70687     70688     70686     70683     70687     70688
     70690     70689     70693     70694     70691     70689     70693     70694
     70692     70689     70693     70694     70696     70695     70699     70700
     70697     70695     70699     70700     70698     70695     70699     70700
     70702     70701     70705     70706     70703     70701     70705     70706
     70704     70701     70705     70706     70708     70707     70711     70712
     70709     70707     70711     70712     70710     70707     70711     70712
     70714     70713     70717     70718     70715     70713     70717     70718
     70716     70713     70717     70718     70720     70719     70723     70724
     70721     70719     70723     70724     70722     70719     70723     70724
     70726     70725     70729     70730     70727     70725     70729     70730
     70728     70725     70729     70730     70732     70731     70735     70736
     70733     70731     70735     70736     70734     70731     70735     70736
     70738     70737     70741     70742     70739     70737     70741     70742
     70740     70737     70741     70742     70744     70743     70747     70748
     70745     70743     70747     70748     70746     70743     70747     70748
     70750     70749     70753     70754     70751     70749     70753     70754
     70752     70749     70753     70754     70756     70755     70759     70760
     70757     70755     70759     70760     70758     70755     70759     70760
     70762     70761     70765     70766     70763     70761     70765     70766
     70764     70761     70765     70766     70768     70767     70771     70772
     70769     70767     70771     70772     70770     70767     70771     70772
     70774     70773     70777     70778     70775     70773     70777     70778
     70776     70773     70777     70778     70780     70779     70783     70784
     70781     70779     70783     70784     70782     70779     70783     70784
     70786     70785     70789     70790     70787     70785     70789     70790
     70788     70785     70789     70790     70792     70791     70795     70796
     70793     70791     70795     70796     70794     70791     70795     70796
     70798     70797     70801     70802     70799     70797     70801     70802
     70800     70797     70801     70802     70804     70803     70807     70808
     70805     70803     70807     70808     70806     70803     70807     70808
     70810     70809     70813     70814     70811     70809     70813     70814
     70812     70809     70813     70814     70816     70815     70819     70820
     70817     70815     70819     70820     70818     70815     70819     70820
     70822     70821     70825     70826     70823     70821     70825     70826
     70824     70821     70825     70826     70828     70827     70831     70832
     70829     70827     70831     70832     70830     70827     70831     70832
     70834     70833     70837     70838     70835     70833     70837     70838
     70836     70833     70837     70838     70840     70839     70843     70844
     70841     70839     70843     70844     70842     70839     70843     70844
     70846     70845     70849     70850     70847     70845     70849     70850
     70848     70845     70849     70850     70852     70851     70855     70856
     70853     70851     70855     70856     70854     70851     70855     70856
     70858     70857     70861     70862     70859     70857     70861     70862
     70860     70857     70861     70862     70864     70863     70867     70868
     70865     70863     70867     70868     70866     70863     70867     70868
     70870     70869     70873     70874     70871     70869     70873     70874
     70872     70869     70873     70874     70876     70875     70879     70880
     70877     70875     70879     70880     70878     70875     70879     70880
     70882     70881     70885     70886     70883     70881     70885     70886
     70884     70881     70885     70886     70888     70887     70891     70892
     70889     70887     70891     70892     70890     70887     70891     70892
     70894     70893     70897     70898     70895     70893     70897     70898
     70896     70893     70897     70898     70900     70899     70903     70904
     70901     70899     70903     70904     70902     70899     70903     70904
     70906     70905     70909     70910     70907     70905     70909     70910
     70908     70905     70909     70910     70912     70911     70915     70916
     70913     70911     70915     70916     70914     70911     70915     70916
     70918     70917     70921     70922     70919     70917     70921     70922
     70920     70917     70921     70922     70924     70923     70927     70928
     70925     70923     70927     70928     70926     70923     70927     70928
     70930     70929     70933     70934     70931     70929     70933     70934
     70932     70929     70933     70934     70936     70935     70939     70940
     70937     70935     70939     70940     70938     70935     70939     70940
     70942     70941     70945     70946     70943     70941     70945     70946
     70944     70941     70945     70946     70948     70947     70951     70952
     70949     70947     70951     70952     70950     70947     70951     70952
     70954     70953     70957     70958     70955     70953     70957     70958
     70956     70953     70957     70958     70960     70959     70963     70964
     70961     70959     70963     70964     70962     70959     70963     70964
     70966     70965     70969     70970     70967     70965     70969     70970
     70968     70965     70969     70970     70972     70971     70975     70976
     70973     70971     70975     70976     70974     70971     70975     70976
     70978     70977     70981     70982     70979     70977     70981     70982
     70980     70977     70981     70982     70984     70983     70987     70988
     70985     70983     70987     70988     70986     70983     70987     70988
     70990     70989     70993     70994     70991     70989     70993     70994
     70992     70989     70993     70994     70996     70995     70999     71000
     70997     70995     70999     71000     70998     70995     70999     71000
     71002     71001     71005     71006     71003     71001     71005     71006
     71004     71001     71005     71006     71008     71007     71011     71012
     71009     71007     71011     71012     71010     71007     71011     71012
     71014     71013     71017     71018     71015     71013     71017     71018
     71016     71013     71017     71018     71020     71019     71023     71024
     71021     71019     71023     71024     71022     71019     71023     71024
     71026     71025     71029     71030     71027     71025     71029     71030
     71028     71025     71029     71030     71032     71031     71035     71036
     71033     71031     71035     71036     71034     71031     71035     71036
     71038     71037     71041     71042     71039     71037     71041     71042
     71040     71037     71041     71042     71044     71043     71047     71048
     71045     71043     71047     71048     71046     71043     71047     71048
     71050     71049     71053     71054     71051     71049     71053     71054
     71052     71049     71053     71054     71056     71055     71059     71060
     71057     71055     71059     71060     71058     71055     71059     71060
     71062     71061     71065     71066     71063     71061     71065     71066
     71064     71061     71065     71066     71068     71067     71071     71072
     71069     71067     71071     71072     71070     71067     71071     71072
     71074     71073     71077     71078     71075     71073     71077     71078
     71076     71073     71077     71078     71080     71079     71083     71084
     71081     71079     71083     71084     71082     71079     71083     71084
     71086     71085     71089     71090     71087     71085     71089     71090
     71088     71085     71089     71090     71092     71091     71095     71096
     71093     71091     71095     71096     71094     71091     71095     71096
     71098     71097     71101     71102     71099     71097     71101     71102
     71100     71097     71101     71102     71104     71103     71107     71108
     71105     71103     71107     71108     71106     71103     71107     71108
     71110     71109     71113     71114     71111     71109     71113     71114
     71112     71109     71113     71114     71116     71115     71119     71120
     71117     71115     71119     71120     71118     71115     71119     71120
     71122     71121     71125     71126     71123     71121     71125     71126
     71124     71121     71125     71126     71128     71127     71131     71132
     71129     71127     71131     71132     71130     71127     71131     71132
     71134     71133     71137     71138     71135     71133     71137     71138
     71136     71133     71137     71138     71140     71139     71143     71144
     71141     71139     71143     71144     71142     71139     71143     71144
     71146     71145     71149     71150     71147     71145     71149     71150
     71148     71145     71149     71150     71152     71151     71155     71156
     71153     71151     71155     71156     71154     71151     71155     71156
     71158     71157     71161     71162     71159     71157     71161     71162
     71160     71157     71161     71162     71164     71163     71167     71168
     71165     71163     71167     71168     71166     71163     71167     71168
     71170     71169     71173     71174     71171     71169     71173     71174
     71172     71169     71173     71174     71176     71175     71179     71180
     71177     71175     71179     71180     71178     71175     71179     71180
     71182     71181     71185     71186     71183     71181     71185     71186
     71184     71181     71185     71186     71188     71187     71191     71192
     71189     71187     71191     71192     71190     71187     71191     71192
     71194     71193     71197     71198     71195     71193     71197     71198
     71196     71193     71197     71198     71200     71199     71203     71204
     71201     71199     71203     71204     71202     71199     71203     71204
     71206     71205     71209     71210     71207     71205     71209     71210
     71208     71205     71209     71210     71212     71211     71215     71216
     71213     71211     71215     71216     71214     71211     71215     71216
     71218     71217     71221     71222     71219     71217     71221     71222
     71220     71217     71221     71222     71224     71223     71227     71228
     71225     71223     71227     71228     71226     71223     71227     71228
     71230     71229     71233     71234     71231     71229     71233     71234
     71232     71229     71233     71234     71236     71235     71239     71240
     71237     71235     71239     71240     71238     71235     71239     71240
     71242     71241     71245     71246     71243     71241     71245     71246
     71244     71241     71245     71246     71248     71247     71251     71252
     71249     71247     71251     71252     71250     71247     71251     71252
     71254     71253     71257     71258     71255     71253     71257     71258
     71256     71253     71257     71258     71260     71259     71263     71264
     71261     71259     71263     71264     71262     71259     71263     71264
     71266     71265     71269     71270     71267     71265     71269     71270
     71268     71265     71269     71270     71272     71271     71275     71276
     71273     71271     71275     71276     71274     71271     71275     71276
     71278     71277     71281     71282     71279     71277     71281     71282
     71280     71277     71281     71282     71284     71283     71287     71288
     71285     71283     71287     71288     71286     71283     71287     71288
     71290     71289     71293     71294     71291     71289     71293     71294
     71292     71289     71293     71294     71296     71295     71299     71300
     71297     71295     71299     71300     71298     71295     71299     71300
     71302     71301     71305     71306     71303     71301     71305     71306
     71304     71301     71305     71306     71308     71307     71311     71312
     71309     71307     71311     71312     71310     71307     71311     71312
     71314     71313     71317     71318     71315     71313     71317     71318
     71316     71313     71317     71318     71320     71319     71323     71324
     71321     71319     71323     71324     71322     71319     71323     71324
     71326     71325     71329     71330     71327     71325     71329     71330
     71328     71325     71329     71330     71332     71331     71335     71336
     71333     71331     71335     71336     71334     71331     71335     71336
     71338     71337     71341     71342     71339     71337     71341     71342
     71340     71337     71341     71342     71344     71343     71347     71348
     71345     71343     71347     71348     71346     71343     71347     71348
     71350     71349     71353     71354     71351     71349     71353     71354
     71352     71349     71353     71354     71356     71355     71359     71360
     71357     71355     71359     71360     71358     71355     71359     71360
     71362     71361     71365     71366     71363     71361     71365     71366
     71364     71361     71365     71366     71368     71367     71371     71372
     71369     71367     71371     71372     71370     71367     71371     71372
     71374     71373     71377     71378     71375     71373     71377     71378
     71376     71373     71377     71378     71380     71379     71383     71384
     71381     71379     71383     71384     71382     71379     71383     71384
     71386     71385     71389     71390     71387     71385     71389     71390
     71388     71385     71389     71390     71392     71391     71395     71396
     71393     71391     71395     71396     71394     71391     71395     71396
     71398     71397     71401     71402     71399     71397     71401     71402
     71400     71397     71401     71402     71404     71403     71407     71408
     71405     71403     71407     71408     71406     71403     71407     71408
     71410     71409     71413     71414     71411     71409     71413     71414
     71412     71409     71413     71414     71416     71415     71419     71420
     71417     71415     71419     71420     71418     71415     71419     71420
     71422     71421     71425     71426     71423     71421     71425     71426
     71424     71421     71425     71426     71428     71427     71431     71432
     71429     71427     71431     71432     71430     71427     71431     71432
     71434     71433     71437     71438     71435     71433     71437     71438
     71436     71433     71437     71438     71440     71439     71443     71444
     71441     71439     71443     71444     71442     71439     71443     71444
     71446     71445     71449     71450     71447     71445     71449     71450
     71448     71445     71449     71450     71452     71451     71455     71456
     71453     71451     71455     71456     71454     71451     71455     71456
     71458     71457     71461     71462     71459     71457     71461     71462
     71460     71457     71461     71462     71464     71463     71467     71468
     71465     71463     71467     71468     71466     71463     71467     71468
     71470     71469     71473     71474     71471     71469     71473     71474
     71472     71469     71473     71474     71476     71475     71479     71480
     71477     71475     71479     71480     71478     71475     71479     71480
     71482     71481     71485     71486     71483     71481     71485     71486
     71484     71481     71485     71486     71488     71487     71491     71492
     71489     71487     71491     71492     71490     71487     71491     71492
     71494     71493     71497     71498     71495     71493     71497     71498
     71496     71493     71497     71498     71500     71499     71503     71504
     71501     71499     71503     71504     71502     71499     71503     71504
     71506     71505     71509     71510     71507     71505     71509     71510
     71508     71505     71509     71510     71512     71511     71515     71516
     71513     71511     71515     71516     71514     71511     71515     71516
     71518     71517     71521     71522     71519     71517     71521     71522
     71520     71517     71521     71522     71524     71523     71527     71528
     71525     71523     71527     71528     71526     71523     71527     71528
     71530     71529     71533     71534     71531     71529     71533     71534
     71532     71529     71533     71534     71536     71535     71539     71540
     71537     71535     71539     71540     71538     71535     71539     71540
     71542     71541     71545     71546     71543     71541     71545     71546
     71544     71541     71545     71546     71548     71547     71551     71552
     71549     71547     71551     71552     71550     71547     71551     71552
     71554     71553     71557     71558     71555     71553     71557     71558
     71556     71553     71557     71558     71560     71559     71563     71564
     71561     71559     71563     71564     71562     71559     71563     71564
     71566     71565     71569     71570     71567     71565     71569     71570
     71568     71565     71569     71570     71572     71571     71575     71576
     71573     71571     71575     71576     71574     71571     71575     71576
     71578     71577     71581     71582     71579     71577     71581     71582
     71580     71577     71581     71582     71584     71583     71587     71588
     71585     71583     71587     71588     71586     71583     71587     71588
     71590     71589     71593     71594     71591     71589     71593     71594
     71592     71589     71593     71594     71596     71595     71599     71600
     71597     71595     71599     71600     71598     71595     71599     71600
     71602     71601     71605     71606     71603     71601     71605     71606
     71604     71601     71605     71606     71608     71607     71611     71612
     71609     71607     71611     71612     71610     71607     71611     71612
     71614     71613     71617     71618     71615     71613     71617     71618
     71616     71613     71617     71618     71620     71619     71623     71624
     71621     71619     71623     71624     71622     71619     71623     71624
     71626     71625     71629     71630     71627     71625     71629     71630
     71628     71625     71629     71630     71632     71631     71635     71636
     71633     71631     71635     71636     71634     71631     71635     71636
     71638     71637     71641     71642     71639     71637     71641     71642
     71640     71637     71641     71642     71644     71643     71647     71648
     71645     71643     71647     71648     71646     71643     71647     71648
     71650     71649     71653     71654     71651     71649     71653     71654
     71652     71649     71653     71654     71656     71655     71659     71660
     71657     71655     71659     71660     71658     71655     71659     71660
     71662     71661     71665     71666     71663     71661     71665     71666
     71664     71661     71665     71666     71668     71667     71671     71672
     71669     71667     71671     71672     71670     71667     71671     71672
     71674     71673     71677     71678     71675     71673     71677     71678
     71676     71673     71677     71678     71680     71679     71683     71684
     71681     71679     71683     71684     71682     71679     71683     71684
     71686     71685     71689     71690     71687     71685     71689     71690
     71688     71685     71689     71690     71692     71691     71695     71696
     71693     71691     71695     71696     71694     71691     71695     71696
     71698     71697     71701     71702     71699     71697     71701     71702
     71700     71697     71701     71702     71704     71703     71707     71708
     71705     71703     71707     71708     71706     71703     71707     71708
     71710     71709     71713     71714     71711     71709     71713     71714
     71712     71709     71713     71714     71716     71715     71719     71720
     71717     71715     71719     71720     71718     71715     71719     71720
     71722     71721     71725     71726     71723     71721     71725     71726
     71724     71721     71725     71726     71728     71727     71731     71732
     71729     71727     71731     71732     71730     71727     71731     71732
     71734     71733     71737     71738     71735     71733     71737     71738
     71736     71733     71737     71738     71740     71739     71743     71744
     71741     71739     71743     71744     71742     71739     71743     71744
     71746     71745     71749     71750     71747     71745     71749     71750
     71748     71745     71749     71750     71752     71751     71755     71756
     71753     71751     71755     71756     71754     71751     71755     71756
     71758     71757     71761     71762     71759     71757     71761     71762
     71760     71757     71761     71762     71764     71763     71767     71768
     71765     71763     71767     71768     71766     71763     71767     71768
     71770     71769     71773     71774     71771     71769     71773     71774
     71772     71769     71773     71774     71776     71775     71779     71780
     71777     71775     71779     71780     71778     71775     71779     71780
     71782     71781     71785     71786     71783     71781     71785     71786
     71784     71781     71785     71786     71788     71787     71791     71792
     71789     71787     71791     71792     71790     71787     71791     71792
     71794     71793     71797     71798     71795     71793     71797     71798
     71796     71793     71797     71798     71800     71799     71803     71804
     71801     71799     71803     71804     71802     71799     71803     71804
     71806     71805     71809     71810     71807     71805     71809     71810
     71808     71805     71809     71810     71812     71811     71815     71816
     71813     71811     71815     71816     71814     71811     71815     71816
     71818     71817     71821     71822     71819     71817     71821     71822
     71820     71817     71821     71822     71824     71823     71827     71828
     71825     71823     71827     71828     71826     71823     71827     71828
     71830     71829     71833     71834     71831     71829     71833     71834
     71832     71829     71833     71834     71836     71835     71839     71840
     71837     71835     71839     71840     71838     71835     71839     71840
     71842     71841     71845     71846     71843     71841     71845     71846
     71844     71841     71845     71846     71848     71847     71851     71852
     71849     71847     71851     71852     71850     71847     71851     71852
     71854     71853     71857     71858     71855     71853     71857     71858
     71856     71853     71857     71858     71860     71859     71863     71864
     71861     71859     71863     71864     71862     71859     71863     71864
     71866     71865     71869     71870     71867     71865     71869     71870
     71868     71865     71869     71870     71872     71871     71875     71876
     71873     71871     71875     71876     71874     71871     71875     71876
     71878     71877     71881     71882     71879     71877     71881     71882
     71880     71877     71881     71882     71884     71883     71887     71888
     71885     71883     71887     71888     71886     71883     71887     71888
     71890     71889     71893     71894     71891     71889     71893     71894
     71892     71889     71893     71894     71896     71895     71899     71900
     71897     71895     71899     71900     71898     71895     71899     71900
     71902     71901     71905     71906     71903     71901     71905     71906
     71904     71901     71905     71906     71908     71907     71911     71912
     71909     71907     71911     71912     71910     71907     71911     71912
     71914     71913     71917     71918     71915     71913     71917     71918
     71916     71913     71917     71918     71920     71919     71923     71924
     71921     71919     71923     71924     71922     71919     71923     71924
     71926     71925     71929     71930     71927     71925     71929     71930
     71928     71925     71929     71930     71932     71931     71935     71936
     71933     71931     71935     71936     71934     71931     71935     71936
     71938     71937     71941     71942     71939     71937     71941     71942
     71940     71937     71941     71942     71944     71943     71947     71948
     71945     71943     71947     71948     71946     71943     71947     71948
     71950     71949     71953     71954     71951     71949     71953     71954
     71952     71949     71953     71954     71956     71955     71959     71960
     71957     71955     71959     71960     71958     71955     71959     71960
     71962     71961     71965     71966     71963     71961     71965     71966
     71964     71961     71965     71966     71968     71967     71971     71972
     71969     71967     71971     71972     71970     71967     71971     71972
     71974     71973     71977     71978     71975     71973     71977     71978
     71976     71973     71977     71978     71980     71979     71983     71984
     71981     71979     71983     71984     71982     71979     71983     71984
     71986     71985     71989     71990     71987     71985     71989     71990
     71988     71985     71989     71990     71992     71991     71995     71996
     71993     71991     71995     71996     71994     71991     71995     71996
     71998     71997     72001     72002     71999     71997     72001     72002
     72000     71997     72001     72002     72004     72003     72007     72008
     72005     72003     72007     72008     72006     72003     72007     72008
     72010     72009     72013     72014     72011     72009     72013     72014
     72012     72009     72013     72014     72016     72015     72019     72020
     72017     72015     72019     72020     72018     72015     72019     72020
     72022     72021     72025     72026     72023     72021     72025     72026
     72024     72021     72025     72026     72028     72027     72031     72032
     72029     72027     72031     72032     72030     72027     72031     72032
     72034     72033     72037     72038     72035     72033     72037     72038
     72036     72033     72037     72038     72040     72039     72043     72044
     72041     72039     72043     72044     72042     72039     72043     72044
     72046     72045     72049     72050     72047     72045     72049     72050
     72048     72045     72049     72050     72052     72051     72055     72056
     72053     72051     72055     72056     72054     72051     72055     72056
     72058     72057     72061     72062     72059     72057     72061     72062
     72060     72057     72061     72062     72064     72063     72067     72068
     72065     72063     72067     72068     72066     72063     72067     72068
     72070     72069     72073     72074     72071     72069     72073     72074
     72072     72069     72073     72074     72076     72075     72079     72080
     72077     72075     72079     72080     72078     72075     72079     72080
     72082     72081     72085     72086     72083     72081     72085     72086
     72084     72081     72085     72086     72088     72087     72091     72092
     72089     72087     72091     72092     72090     72087     72091     72092
     72094     72093     72097     72098     72095     72093     72097     72098
     72096     72093     72097     72098     72100     72099     72103     72104
     72101     72099     72103     72104     72102     72099     72103     72104
     72106     72105     72109     72110     72107     72105     72109     72110
     72108     72105     72109     72110     72112     72111     72115     72116
     72113     72111     72115     72116     72114     72111     72115     72116
     72118     72117     72121     72122     72119     72117     72121     72122
     72120     72117     72121     72122     72124     72123     72127     72128
     72125     72123     72127     72128     72126     72123     72127     72128
     72130     72129     72133     72134     72131     72129     72133     72134
     72132     72129     72133     72134     72136     72135     72139     72140
     72137     72135     72139     72140     72138     72135     72139     72140
     72142     72141     72145     72146     72143     72141     72145     72146
     72144     72141     72145     72146     72148     72147     72151     72152
     72149     72147     72151     72152     72150     72147     72151     72152
     72154     72153     72157     72158     72155     72153     72157     72158
     72156     72153     72157     72158     72160     72159     72163     72164
     72161     72159     72163     72164     72162     72159     72163     72164
     72166     72165     72169     72170     72167     72165     72169     72170
     72168     72165     72169     72170     72172     72171     72175     72176
     72173     72171     72175     72176     72174     72171     72175     72176
     72178     72177     72181     72182     72179     72177     72181     72182
     72180     72177     72181     72182     72184     72183     72187     72188
     72185     72183     72187     72188     72186     72183     72187     72188
     72190     72189     72193     72194     72191     72189     72193     72194
     72192     72189     72193     72194     72196     72195     72199     72200
     72197     72195     72199     72200     72198     72195     72199     72200
     72202     72201     72205     72206     72203     72201     72205     72206
     72204     72201     72205     72206     72208     72207     72211     72212
     72209     72207     72211     72212     72210     72207     72211     72212
     72214     72213     72217     72218     72215     72213     72217     72218
     72216     72213     72217     72218     72220     72219     72223     72224
     72221     72219     72223     72224     72222     72219     72223     72224
     72226     72225     72229     72230     72227     72225     72229     72230
     72228     72225     72229     72230     72232     72231     72235     72236
     72233     72231     72235     72236     72234     72231     72235     72236
     72238     72237     72241     72242     72239     72237     72241     72242
     72240     72237     72241     72242     72244     72243     72247     72248
     72245     72243     72247     72248     72246     72243     72247     72248
     72250     72249     72253     72254     72251     72249     72253     72254
     72252     72249     72253     72254     72256     72255     72259     72260
     72257     72255     72259     72260     72258     72255     72259     72260
     72262     72261     72265     72266     72263     72261     72265     72266
     72264     72261     72265     72266     72268     72267     72271     72272
     72269     72267     72271     72272     72270     72267     72271     72272
     72274     72273     72277     72278     72275     72273     72277     72278
     72276     72273     72277     72278     72280     72279     72283     72284
     72281     72279     72283     72284     72282     72279     72283     72284
     72286     72285     72289     72290     72287     72285     72289     72290
     72288     72285     72289     72290     72292     72291     72295     72296
     72293     72291     72295     72296     72294     72291     72295     72296
     72298     72297     72301     72302     72299     72297     72301     72302
     72300     72297     72301     72302     72304     72303     72307     72308
     72305     72303     72307     72308     72306     72303     72307     72308
     72310     72309     72313     72314     72311     72309     72313     72314
     72312     72309     72313     72314     72316     72315     72319     72320
     72317     72315     72319     72320     72318     72315     72319     72320
     72322     72321     72325     72326     72323     72321     72325     72326
     72324     72321     72325     72326     72328     72327     72331     72332
     72329     72327     72331     72332     72330     72327     72331     72332
     72334     72333     72337     72338     72335     72333     72337     72338
     72336     72333     72337     72338     72340     72339     72343     72344
     72341     72339     72343     72344     72342     72339     72343     72344
     72346     72345     72349     72350     72347     72345     72349     72350
     72348     72345     72349     72350     72352     72351     72355     72356
     72353     72351     72355     72356     72354     72351     72355     72356
     72358     72357     72361     72362     72359     72357     72361     72362
     72360     72357     72361     72362     72364     72363     72367     72368
     72365     72363     72367     72368     72366     72363     72367     72368
     72370     72369     72373     72374     72371     72369     72373     72374
     72372     72369     72373     72374     72376     72375     72379     72380
     72377     72375     72379     72380     72378     72375     72379     72380
     72382     72381     72385     72386     72383     72381     72385     72386
     72384     72381     72385     72386     72388     72387     72391     72392
     72389     72387     72391     72392     72390     72387     72391     72392
     72394     72393     72397     72398     72395     72393     72397     72398
     72396     72393     72397     72398     72400     72399     72403     72404
     72401     72399     72403     72404     72402     72399     72403     72404
     72406     72405     72409     72410     72407     72405     72409     72410
     72408     72405     72409     72410     72412     72411     72415     72416
     72413     72411     72415     72416     72414     72411     72415     72416
     72418     72417     72421     72422     72419     72417     72421     72422
     72420     72417     72421     72422     72424     72423     72427     72428
     72425     72423     72427     72428     72426     72423     72427     72428
     72430     72429     72433     72434     72431     72429     72433     72434
     72432     72429     72433     72434     72436     72435     72439     72440
     72437     72435     72439     72440     72438     72435     72439     72440
     72442     72441     72445     72446     72443     72441     72445     72446
     72444     72441     72445     72446     72448     72447     72451     72452
     72449     72447     72451     72452     72450     72447     72451     72452
     72454     72453     72457     72458     72455     72453     72457     72458
     72456     72453     72457     72458     72460     72459     72463     72464
     72461     72459     72463     72464     72462     72459     72463     72464
     72466     72465     72469     72470     72467     72465     72469     72470
     72468     72465     72469     72470     72472     72471     72475     72476
     72473     72471     72475     72476     72474     72471     72475     72476
     72478     72477     72481     72482     72479     72477     72481     72482
     72480     72477     72481     72482     72484     72483     72487     72488
     72485     72483     72487     72488     72486     72483     72487     72488
     72490     72489     72493     72494     72491     72489     72493     72494
     72492     72489     72493     72494     72496     72495     72499     72500
     72497     72495     72499     72500     72498     72495     72499     72500
     72502     72501     72505     72506     72503     72501     72505     72506
     72504     72501     72505     72506     72508     72507     72511     72512
     72509     72507     72511     72512     72510     72507     72511     72512
     72514     72513     72517     72518     72515     72513     72517     72518
     72516     72513     72517     72518     72520     72519     72523     72524
     72521     72519     72523     72524     72522     72519     72523     72524
     72526     72525     72529     72530     72527     72525     72529     72530
     72528     72525     72529     72530     72532     72531     72535     72536
     72533     72531     72535     72536     72534     72531     72535     72536
     72538     72537     72541     72542     72539     72537     72541     72542
     72540     72537     72541     72542     72544     72543     72547     72548
     72545     72543     72547     72548     72546     72543     72547     72548
     72550     72549     72553     72554     72551     72549     72553     72554
     72552     72549     72553     72554     72556     72555     72559     72560
     72557     72555     72559     72560     72558     72555     72559     72560
     72562     72561     72565     72566     72563     72561     72565     72566
     72564     72561     72565     72566     72568     72567     72571     72572
     72569     72567     72571     72572     72570     72567     72571     72572
     72574     72573     72577     72578     72575     72573     72577     72578
     72576     72573     72577     72578     72580     72579     72583     72584
     72581     72579     72583     72584     72582     72579     72583     72584
     72586     72585     72589     72590     72587     72585     72589     72590
     72588     72585     72589     72590     72592     72591     72595     72596
     72593     72591     72595     72596     72594     72591     72595     72596
     72598     72597     72601     72602     72599     72597     72601     72602
     72600     72597     72601     72602     72604     72603     72607     72608
     72605     72603     72607     72608     72606     72603     72607     72608
     72610     72609     72613     72614     72611     72609     72613     72614
     72612     72609     72613     72614     72616     72615     72619     72620
     72617     72615     72619     72620     72618     72615     72619     72620
     72622     72621     72625     72626     72623     72621     72625     72626
     72624     72621     72625     72626     72628     72627     72631     72632
     72629     72627     72631     72632     72630     72627     72631     72632
     72634     72633     72637     72638     72635     72633     72637     72638
     72636     72633     72637     72638     72640     72639     72643     72644
     72641     72639     72643     72644     72642     72639     72643     72644
     72646     72645     72649     72650     72647     72645     72649     72650
     72648     72645     72649     72650     72652     72651     72655     72656
     72653     72651     72655     72656     72654     72651     72655     72656
     72658     72657     72661     72662     72659     72657     72661     72662
     72660     72657     72661     72662     72664     72663     72667     72668
     72665     72663     72667     72668     72666     72663     72667     72668
     72670     72669     72673     72674     72671     72669     72673     72674
     72672     72669     72673     72674     72676     72675     72679     72680
     72677     72675     72679     72680     72678     72675     72679     72680
     72682     72681     72685     72686     72683     72681     72685     72686
     72684     72681     72685     72686     72688     72687     72691     72692
     72689     72687     72691     72692     72690     72687     72691     72692
     72694     72693     72697     72698     72695     72693     72697     72698
     72696     72693     72697     72698     72700     72699     72703     72704
     72701     72699     72703     72704     72702     72699     72703     72704
     72706     72705     72709     72710     72707     72705     72709     72710
     72708     72705     72709     72710     72712     72711     72715     72716
     72713     72711     72715     72716     72714     72711     72715     72716
     72718     72717     72721     72722     72719     72717     72721     72722
     72720     72717     72721     72722     72724     72723     72727     72728
     72725     72723     72727     72728     72726     72723     72727     72728
     72730     72729     72733     72734     72731     72729     72733     72734
     72732     72729     72733     72734     72736     72735     72739     72740
     72737     72735     72739     72740     72738     72735     72739     72740
     72742     72741     72745     72746     72743     72741     72745     72746
     72744     72741     72745     72746     72748     72747     72751     72752
     72749     72747     72751     72752     72750     72747     72751     72752
     72754     72753     72757     72758     72755     72753     72757     72758
     72756     72753     72757     72758     72760     72759     72763     72764
     72761     72759     72763     72764     72762     72759     72763     72764
     72766     72765     72769     72770     72767     72765     72769     72770
     72768     72765     72769     72770     72772     72771     72775     72776
     72773     72771     72775     72776     72774     72771     72775     72776
     72778     72777     72781     72782     72779     72777     72781     72782
     72780     72777     72781     72782     72784     72783     72787     72788
     72785     72783     72787     72788     72786     72783     72787     72788
     72790     72789     72793     72794     72791     72789     72793     72794
     72792     72789     72793     72794     72796     72795     72799     72800
     72797     72795     72799     72800     72798     72795     72799     72800
     72802     72801     72805     72806     72803     72801     72805     72806
     72804     72801     72805     72806     72808     72807     72811     72812
     72809     72807     72811     72812     72810     72807     72811     72812
     72814     72813     72817     72818     72815     72813     72817     72818
     72816     72813     72817     72818     72820     72819     72823     72824
     72821     72819     72823     72824     72822     72819     72823     72824
     72826     72825     72829     72830     72827     72825     72829     72830
     72828     72825     72829     72830     72832     72831     72835     72836
     72833     72831     72835     72836     72834     72831     72835     72836
     72838     72837     72841     72842     72839     72837     72841     72842
     72840     72837     72841     72842     72844     72843     72847     72848
     72845     72843     72847     72848     72846     72843     72847     72848
     72850     72849     72853     72854     72851     72849     72853     72854
     72852     72849     72853     72854     72856     72855     72859     72860
     72857     72855     72859     72860     72858     72855     72859     72860
     72862     72861     72865     72866     72863     72861     72865     72866
     72864     72861     72865     72866     72868     72867     72871     72872
     72869     72867     72871     72872     72870     72867     72871     72872
     72874     72873     72877     72878     72875     72873     72877     72878
     72876     72873     72877     72878     72880     72879     72883     72884
     72881     72879     72883     72884     72882     72879     72883     72884
     72886     72885     72889     72890     72887     72885     72889     72890
     72888     72885     72889     72890     72892     72891     72895     72896
     72893     72891     72895     72896     72894     72891     72895     72896
     72898     72897     72901     72902     72899     72897     72901     72902
     72900     72897     72901     72902     72904     72903     72907     72908
     72905     72903     72907     72908     72906     72903     72907     72908
     72910     72909     72913     72914     72911     72909     72913     72914
     72912     72909     72913     72914     72916     72915     72919     72920
     72917     72915     72919     72920     72918     72915     72919     72920
     72922     72921     72925     72926     72923     72921     72925     72926
     72924     72921     72925     72926     72928     72927     72931     72932
     72929     72927     72931     72932     72930     72927     72931     72932
     72934     72933     72937     72938     72935     72933     72937     72938
     72936     72933     72937     72938     72940     72939     72943     72944
     72941     72939     72943     72944     72942     72939     72943     72944
     72946     72945     72949     72950     72947     72945     72949     72950
     72948     72945     72949     72950     72952     72951     72955     72956
     72953     72951     72955     72956     72954     72951     72955     72956
     72958     72957     72961     72962     72959     72957     72961     72962
     72960     72957     72961     72962     72964     72963     72967     72968
     72965     72963     72967     72968     72966     72963     72967     72968
     72970     72969     72973     72974     72971     72969     72973     72974
     72972     72969     72973     72974     72976     72975     72979     72980
     72977     72975     72979     72980     72978     72975     72979     72980
     72982     72981     72985     72986     72983     72981     72985     72986
     72984     72981     72985     72986     72988     72987     72991     72992
     72989     72987     72991     72992     72990     72987     72991     72992
     72994     72993     72997     72998     72995     72993     72997     72998
     72996     72993     72997     72998     73000     72999     73003     73004
     73001     72999     73003     73004     73002     72999     73003     73004
     73006     73005     73009     73010     73007     73005     73009     73010
     73008     73005     73009     73010     73012     73011     73015     73016
     73013     73011     73015     73016     73014     73011     73015     73016
     73018     73017     73021     73022     73019     73017     73021     73022
     73020     73017     73021     73022     73024     73023     73027     73028
     73025     73023     73027     73028     73026     73023     73027     73028
     73030     73029     73033     73034     73031     73029     73033     73034
     73032     73029     73033     73034     73036     73035     73039     73040
     73037     73035     73039     73040     73038     73035     73039     73040
     73042     73041     73045     73046     73043     73041     73045     73046
     73044     73041     73045     73046     73048     73047     73051     73052
     73049     73047     73051     73052     73050     73047     73051     73052
     73054     73053     73057     73058     73055     73053     73057     73058
     73056     73053     73057     73058     73060     73059     73063     73064
     73061     73059     73063     73064     73062     73059     73063     73064
     73066     73065     73069     73070     73067     73065     73069     73070
     73068     73065     73069     73070     73072     73071     73075     73076
     73073     73071     73075     73076     73074     73071     73075     73076
     73078     73077     73081     73082     73079     73077     73081     73082
     73080     73077     73081     73082     73084     73083     73087     73088
     73085     73083     73087     73088     73086     73083     73087     73088
     73090     73089     73093     73094     73091     73089     73093     73094
     73092     73089     73093     73094     73096     73095     73099     73100
     73097     73095     73099     73100     73098     73095     73099     73100
     73102     73101     73105     73106     73103     73101     73105     73106
     73104     73101     73105     73106     73108     73107     73111     73112
     73109     73107     73111     73112     73110     73107     73111     73112
     73114     73113     73117     73118     73115     73113     73117     73118
     73116     73113     73117     73118     73120     73119     73123     73124
     73121     73119     73123     73124     73122     73119     73123     73124
     73126     73125     73129     73130     73127     73125     73129     73130
     73128     73125     73129     73130     73132     73131     73135     73136
     73133     73131     73135     73136     73134     73131     73135     73136
     73138     73137     73141     73142     73139     73137     73141     73142
     73140     73137     73141     73142     73144     73143     73147     73148
     73145     73143     73147     73148     73146     73143     73147     73148
     73150     73149     73153     73154     73151     73149     73153     73154
     73152     73149     73153     73154     73156     73155     73159     73160
     73157     73155     73159     73160     73158     73155     73159     73160
     73162     73161     73165     73166     73163     73161     73165     73166
     73164     73161     73165     73166     73168     73167     73171     73172
     73169     73167     73171     73172     73170     73167     73171     73172
     73174     73173     73177     73178     73175     73173     73177     73178
     73176     73173     73177     73178     73180     73179     73183     73184
     73181     73179     73183     73184     73182     73179     73183     73184
     73186     73185     73189     73190     73187     73185     73189     73190
     73188     73185     73189     73190     73192     73191     73195     73196
     73193     73191     73195     73196     73194     73191     73195     73196
     73198     73197     73201     73202     73199     73197     73201     73202
     73200     73197     73201     73202     73204     73203     73207     73208
     73205     73203     73207     73208     73206     73203     73207     73208
     73210     73209     73213     73214     73211     73209     73213     73214
     73212     73209     73213     73214     73216     73215     73219     73220
     73217     73215     73219     73220     73218     73215     73219     73220
     73222     73221     73225     73226     73223     73221     73225     73226
     73224     73221     73225     73226     73228     73227     73231     73232
     73229     73227     73231     73232     73230     73227     73231     73232
     73234     73233     73237     73238     73235     73233     73237     73238
     73236     73233     73237     73238     73240     73239     73243     73244
     73241     73239     73243     73244     73242     73239     73243     73244
     73246     73245     73249     73250     73247     73245     73249     73250
     73248     73245     73249     73250     73252     73251     73255     73256
     73253     73251     73255     73256     73254     73251     73255     73256
     73258     73257     73261     73262     73259     73257     73261     73262
     73260     73257     73261     73262     73264     73263     73267     73268
     73265     73263     73267     73268     73266     73263     73267     73268
     73270     73269     73273     73274     73271     73269     73273     73274
     73272     73269     73273     73274     73276     73275     73279     73280
     73277     73275     73279     73280     73278     73275     73279     73280
     73282     73281     73285     73286     73283     73281     73285     73286
     73284     73281     73285     73286     73288     73287     73291     73292
     73289     73287     73291     73292     73290     73287     73291     73292
     73294     73293     73297     73298     73295     73293     73297     73298
     73296     73293     73297     73298     73300     73299     73303     73304
     73301     73299     73303     73304     73302     73299     73303     73304
     73306     73305     73309     73310     73307     73305     73309     73310
     73308     73305     73309     73310     73312     73311     73315     73316
     73313     73311     73315     73316     73314     73311     73315     73316
     73318     73317     73321     73322     73319     73317     73321     73322
     73320     73317     73321     73322     73324     73323     73327     73328
     73325     73323     73327     73328     73326     73323     73327     73328
     73330     73329     73333     73334     73331     73329     73333     73334
     73332     73329     73333     73334     73336     73335     73339     73340
     73337     73335     73339     73340     73338     73335     73339     73340
     73342     73341     73345     73346     73343     73341     73345     73346
     73344     73341     73345     73346     73348     73347     73351     73352
     73349     73347     73351     73352     73350     73347     73351     73352
     73354     73353     73357     73358     73355     73353     73357     73358
     73356     73353     73357     73358     73360     73359     73363     73364
     73361     73359     73363     73364     73362     73359     73363     73364
     73366     73365     73369     73370     73367     73365     73369     73370
     73368     73365     73369     73370     73372     73371     73375     73376
     73373     73371     73375     73376     73374     73371     73375     73376
     73378     73377     73381     73382     73379     73377     73381     73382
     73380     73377     73381     73382     73384     73383     73387     73388
     73385     73383     73387     73388     73386     73383     73387     73388
     73390     73389     73393     73394     73391     73389     73393     73394
     73392     73389     73393     73394     73396     73395     73399     73400
     73397     73395     73399     73400     73398     73395     73399     73400
     73402     73401     73405     73406     73403     73401     73405     73406
     73404     73401     73405     73406     73408     73407     73411     73412
     73409     73407     73411     73412     73410     73407     73411     73412
     73414     73413     73417     73418     73415     73413     73417     73418
     73416     73413     73417     73418     73420     73419     73423     73424
     73421     73419     73423     73424     73422     73419     73423     73424
     73426     73425     73429     73430     73427     73425     73429     73430
     73428     73425     73429     73430     73432     73431     73435     73436
     73433     73431     73435     73436     73434     73431     73435     73436
     73438     73437     73441     73442     73439     73437     73441     73442
     73440     73437     73441     73442     73444     73443     73447     73448
     73445     73443     73447     73448     73446     73443     73447     73448
     73450     73449     73453     73454     73451     73449     73453     73454
     73452     73449     73453     73454     73456     73455     73459     73460
     73457     73455     73459     73460     73458     73455     73459     73460
     73462     73461     73465     73466     73463     73461     73465     73466
     73464     73461     73465     73466     73468     73467     73471     73472
     73469     73467     73471     73472     73470     73467     73471     73472
     73474     73473     73477     73478     73475     73473     73477     73478
     73476     73473     73477     73478     73480     73479     73483     73484
     73481     73479     73483     73484     73482     73479     73483     73484
     73486     73485     73489     73490     73487     73485     73489     73490
     73488     73485     73489     73490     73492     73491     73495     73496
     73493     73491     73495     73496     73494     73491     73495     73496
     73498     73497     73501     73502     73499     73497     73501     73502
     73500     73497     73501     73502     73504     73503     73507     73508
     73505     73503     73507     73508     73506     73503     73507     73508
     73510     73509     73513     73514     73511     73509     73513     73514
     73512     73509     73513     73514     73516     73515     73519     73520
     73517     73515     73519     73520     73518     73515     73519     73520
     73522     73521     73525     73526     73523     73521     73525     73526
     73524     73521     73525     73526     73528     73527     73531     73532
     73529     73527     73531     73532     73530     73527     73531     73532
     73534     73533     73537     73538     73535     73533     73537     73538
     73536     73533     73537     73538     73540     73539     73543     73544
     73541     73539     73543     73544     73542     73539     73543     73544
     73546     73545     73549     73550     73547     73545     73549     73550
     73548     73545     73549     73550     73552     73551     73555     73556
     73553     73551     73555     73556     73554     73551     73555     73556
     73558     73557     73561     73562     73559     73557     73561     73562
     73560     73557     73561     73562     73564     73563     73567     73568
     73565     73563     73567     73568     73566     73563     73567     73568
     73570     73569     73573     73574     73571     73569     73573     73574
     73572     73569     73573     73574     73576     73575     73579     73580
     73577     73575     73579     73580     73578     73575     73579     73580
     73582     73581     73585     73586     73583     73581     73585     73586
     73584     73581     73585     73586     73588     73587     73591     73592
     73589     73587     73591     73592     73590     73587     73591     73592
     73594     73593     73597     73598     73595     73593     73597     73598
     73596     73593     73597     73598     73600     73599     73603     73604
     73601     73599     73603     73604     73602     73599     73603     73604
     73606     73605     73609     73610     73607     73605     73609     73610
     73608     73605     73609     73610     73612     73611     73615     73616
     73613     73611     73615     73616     73614     73611     73615     73616
     73618     73617     73621     73622     73619     73617     73621     73622
     73620     73617     73621     73622     73624     73623     73627     73628
     73625     73623     73627     73628     73626     73623     73627     73628
     73630     73629     73633     73634     73631     73629     73633     73634
     73632     73629     73633     73634     73636     73635     73639     73640
     73637     73635     73639     73640     73638     73635     73639     73640
     73642     73641     73645     73646     73643     73641     73645     73646
     73644     73641     73645     73646     73648     73647     73651     73652
     73649     73647     73651     73652     73650     73647     73651     73652
     73654     73653     73657     73658     73655     73653     73657     73658
     73656     73653     73657     73658     73660     73659     73663     73664
     73661     73659     73663     73664     73662     73659     73663     73664
     73666     73665     73669     73670     73667     73665     73669     73670
     73668     73665     73669     73670     73672     73671     73675     73676
     73673     73671     73675     73676     73674     73671     73675     73676
     73678     73677     73681     73682     73679     73677     73681     73682
     73680     73677     73681     73682     73684     73683     73687     73688
     73685     73683     73687     73688     73686     73683     73687     73688
     73690     73689     73693     73694     73691     73689     73693     73694
     73692     73689     73693     73694     73696     73695     73699     73700
     73697     73695     73699     73700     73698     73695     73699     73700
     73702     73701     73705     73706     73703     73701     73705     73706
     73704     73701     73705     73706     73708     73707     73711     73712
     73709     73707     73711     73712     73710     73707     73711     73712
     73714     73713     73717     73718     73715     73713     73717     73718
     73716     73713     73717     73718     73720     73719     73723     73724
     73721     73719     73723     73724     73722     73719     73723     73724
     73726     73725     73729     73730     73727     73725     73729     73730
     73728     73725     73729     73730     73732     73731     73735     73736
     73733     73731     73735     73736     73734     73731     73735     73736
     73738     73737     73741     73742     73739     73737     73741     73742
     73740     73737     73741     73742     73744     73743     73747     73748
     73745     73743     73747     73748     73746     73743     73747     73748
     73750     73749     73753     73754     73751     73749     73753     73754
     73752     73749     73753     73754     73756     73755     73759     73760
     73757     73755     73759     73760     73758     73755     73759     73760
     73762     73761     73765     73766     73763     73761     73765     73766
     73764     73761     73765     73766     73768     73767     73771     73772
     73769     73767     73771     73772     73770     73767     73771     73772
     73774     73773     73777     73778     73775     73773     73777     73778
     73776     73773     73777     73778     73780     73779     73783     73784
     73781     73779     73783     73784     73782     73779     73783     73784
     73786     73785     73789     73790     73787     73785     73789     73790
     73788     73785     73789     73790     73792     73791     73795     73796
     73793     73791     73795     73796     73794     73791     73795     73796
     73798     73797     73801     73802     73799     73797     73801     73802
     73800     73797     73801     73802     73804     73803     73807     73808
     73805     73803     73807     73808     73806     73803     73807     73808
     73810     73809     73813     73814     73811     73809     73813     73814
     73812     73809     73813     73814     73816     73815     73819     73820
     73817     73815     73819     73820     73818     73815     73819     73820
     73822     73821     73825     73826     73823     73821     73825     73826
     73824     73821     73825     73826     73828     73827     73831     73832
     73829     73827     73831     73832     73830     73827     73831     73832
     73834     73833     73837     73838     73835     73833     73837     73838
     73836     73833     73837     73838     73840     73839     73843     73844
     73841     73839     73843     73844     73842     73839     73843     73844
     73846     73845     73849     73850     73847     73845     73849     73850
     73848     73845     73849     73850     73852     73851     73855     73856
     73853     73851     73855     73856     73854     73851     73855     73856
     73858     73857     73861     73862     73859     73857     73861     73862
     73860     73857     73861     73862     73864     73863     73867     73868
     73865     73863     73867     73868     73866     73863     73867     73868
     73870     73869     73873     73874     73871     73869     73873     73874
     73872     73869     73873     73874     73876     73875     73879     73880
     73877     73875     73879     73880     73878     73875     73879     73880
     73882     73881     73885     73886     73883     73881     73885     73886
     73884     73881     73885     73886     73888     73887     73891     73892
     73889     73887     73891     73892     73890     73887     73891     73892
     73894     73893     73897     73898     73895     73893     73897     73898
     73896     73893     73897     73898     73900     73899     73903     73904
     73901     73899     73903     73904     73902     73899     73903     73904
     73906     73905     73909     73910     73907     73905     73909     73910
     73908     73905     73909     73910     73912     73911     73915     73916
     73913     73911     73915     73916     73914     73911     73915     73916
     73918     73917     73921     73922     73919     73917     73921     73922
     73920     73917     73921     73922     73924     73923     73927     73928
     73925     73923     73927     73928     73926     73923     73927     73928
     73930     73929     73933     73934     73931     73929     73933     73934
     73932     73929     73933     73934     73936     73935     73939     73940
     73937     73935     73939     73940     73938     73935     73939     73940
     73942     73941     73945     73946     73943     73941     73945     73946
     73944     73941     73945     73946     73948     73947     73951     73952
     73949     73947     73951     73952     73950     73947     73951     73952
     73954     73953     73957     73958     73955     73953     73957     73958
     73956     73953     73957     73958     73960     73959     73963     73964
     73961     73959     73963     73964     73962     73959     73963     73964
     73966     73965     73969     73970     73967     73965     73969     73970
     73968     73965     73969     73970     73972     73971     73975     73976
     73973     73971     73975     73976     73974     73971     73975     73976
     73978     73977     73981     73982     73979     73977     73981     73982
     73980     73977     73981     73982     73984     73983     73987     73988
     73985     73983     73987     73988     73986     73983     73987     73988
     73990     73989     73993     73994     73991     73989     73993     73994
     73992     73989     73993     73994     73996     73995     73999     74000
     73997     73995     73999     74000     73998     73995     73999     74000
     74002     74001     74005     74006     74003     74001     74005     74006
     74004     74001     74005     74006     74008     74007     74011     74012
     74009     74007     74011     74012     74010     74007     74011     74012
     74014     74013     74017     74018     74015     74013     74017     74018
     74016     74013     74017     74018     74020     74019     74023     74024
     74021     74019     74023     74024     74022     74019     74023     74024
     74026     74025     74029     74030     74027     74025     74029     74030
     74028     74025     74029     74030     74032     74031     74035     74036
     74033     74031     74035     74036     74034     74031     74035     74036
     74038     74037     74041     74042     74039     74037     74041     74042
     74040     74037     74041     74042     74044     74043     74047     74048
     74045     74043     74047     74048     74046     74043     74047     74048
     74050     74049     74053     74054     74051     74049     74053     74054
     74052     74049     74053     74054     74056     74055     74059     74060
     74057     74055     74059     74060     74058     74055     74059     74060
     74062     74061     74065     74066     74063     74061     74065     74066
     74064     74061     74065     74066     74068     74067     74071     74072
     74069     74067     74071     74072     74070     74067     74071     74072
     74074     74073     74077     74078     74075     74073     74077     74078
     74076     74073     74077     74078     74080     74079     74083     74084
     74081     74079     74083     74084     74082     74079     74083     74084
     74086     74085     74089     74090     74087     74085     74089     74090
     74088     74085     74089     74090     74092     74091     74095     74096
     74093     74091     74095     74096     74094     74091     74095     74096
     74098     74097     74101     74102     74099     74097     74101     74102
     74100     74097     74101     74102     74104     74103     74107     74108
     74105     74103     74107     74108     74106     74103     74107     74108
     74110     74109     74113     74114     74111     74109     74113     74114
     74112     74109     74113     74114     74116     74115     74119     74120
     74117     74115     74119     74120     74118     74115     74119     74120
     74122     74121     74125     74126     74123     74121     74125     74126
     74124     74121     74125     74126     74128     74127     74131     74132
     74129     74127     74131     74132     74130     74127     74131     74132
     74134     74133     74137     74138     74135     74133     74137     74138
     74136     74133     74137     74138     74140     74139     74143     74144
     74141     74139     74143     74144     74142     74139     74143     74144
     74146     74145     74149     74150     74147     74145     74149     74150
     74148     74145     74149     74150     74152     74151     74155     74156
     74153     74151     74155     74156     74154     74151     74155     74156
     74158     74157     74161     74162     74159     74157     74161     74162
     74160     74157     74161     74162     74164     74163     74167     74168
     74165     74163     74167     74168     74166     74163     74167     74168
     74170     74169     74173     74174     74171     74169     74173     74174
     74172     74169     74173     74174     74176     74175     74179     74180
     74177     74175     74179     74180     74178     74175     74179     74180
     74182     74181     74185     74186     74183     74181     74185     74186
     74184     74181     74185     74186     74188     74187     74191     74192
     74189     74187     74191     74192     74190     74187     74191     74192
     74194     74193     74197     74198     74195     74193     74197     74198
     74196     74193     74197     74198     74200     74199     74203     74204
     74201     74199     74203     74204     74202     74199     74203     74204
     74206     74205     74209     74210     74207     74205     74209     74210
     74208     74205     74209     74210     74212     74211     74215     74216
     74213     74211     74215     74216     74214     74211     74215     74216
     74218     74217     74221     74222     74219     74217     74221     74222
     74220     74217     74221     74222     74224     74223     74227     74228
     74225     74223     74227     74228     74226     74223     74227     74228
     74230     74229     74233     74234     74231     74229     74233     74234
     74232     74229     74233     74234     74236     74235     74239     74240
     74237     74235     74239     74240     74238     74235     74239     74240
     74242     74241     74245     74246     74243     74241     74245     74246
     74244     74241     74245     74246     74248     74247     74251     74252
     74249     74247     74251     74252     74250     74247     74251     74252
     74254     74253     74257     74258     74255     74253     74257     74258
     74256     74253     74257     74258     74260     74259     74263     74264
     74261     74259     74263     74264     74262     74259     74263     74264
     74266     74265     74269     74270     74267     74265     74269     74270
     74268     74265     74269     74270     74272     74271     74275     74276
     74273     74271     74275     74276     74274     74271     74275     74276
     74278     74277     74281     74282     74279     74277     74281     74282
     74280     74277     74281     74282     74284     74283     74287     74288
     74285     74283     74287     74288     74286     74283     74287     74288
     74290     74289     74293     74294     74291     74289     74293     74294
     74292     74289     74293     74294     74296     74295     74299     74300
     74297     74295     74299     74300     74298     74295     74299     74300
     74302     74301     74305     74306     74303     74301     74305     74306
     74304     74301     74305     74306     74308     74307     74311     74312
     74309     74307     74311     74312     74310     74307     74311     74312
     74314     74313     74317     74318     74315     74313     74317     74318
     74316     74313     74317     74318     74320     74319     74323     74324
     74321     74319     74323     74324     74322     74319     74323     74324
     74326     74325     74329     74330     74327     74325     74329     74330
     74328     74325     74329     74330     74332     74331     74335     74336
     74333     74331     74335     74336     74334     74331     74335     74336
     74338     74337     74341     74342     74339     74337     74341     74342
     74340     74337     74341     74342     74344     74343     74347     74348
     74345     74343     74347     74348     74346     74343     74347     74348
     74350     74349     74353     74354     74351     74349     74353     74354
     74352     74349     74353     74354     74356     74355     74359     74360
     74357     74355     74359     74360     74358     74355     74359     74360
     74362     74361     74365     74366     74363     74361     74365     74366
     74364     74361     74365     74366     74368     74367     74371     74372
     74369     74367     74371     74372     74370     74367     74371     74372
     74374     74373     74377     74378     74375     74373     74377     74378
     74376     74373     74377     74378     74380     74379     74383     74384
     74381     74379     74383     74384     74382     74379     74383     74384
     74386     74385     74389     74390     74387     74385     74389     74390
     74388     74385     74389     74390     74392     74391     74395     74396
     74393     74391     74395     74396     74394     74391     74395     74396
     74398     74397     74401     74402     74399     74397     74401     74402
     74400     74397     74401     74402     74404     74403     74407     74408
     74405     74403     74407     74408     74406     74403     74407     74408
     74410     74409     74413     74414     74411     74409     74413     74414
     74412     74409     74413     74414     74416     74415     74419     74420
     74417     74415     74419     74420     74418     74415     74419     74420
     74422     74421     74425     74426     74423     74421     74425     74426
     74424     74421     74425     74426     74428     74427     74431     74432
     74429     74427     74431     74432     74430     74427     74431     74432
     74434     74433     74437     74438     74435     74433     74437     74438
     74436     74433     74437     74438     74440     74439     74443     74444
     74441     74439     74443     74444     74442     74439     74443     74444
     74446     74445     74449     74450     74447     74445     74449     74450
     74448     74445     74449     74450     74452     74451     74455     74456
     74453     74451     74455     74456     74454     74451     74455     74456
     74458     74457     74461     74462     74459     74457     74461     74462
     74460     74457     74461     74462     74464     74463     74467     74468
     74465     74463     74467     74468     74466     74463     74467     74468
     74470     74469     74473     74474     74471     74469     74473     74474
     74472     74469     74473     74474     74476     74475     74479     74480
     74477     74475     74479     74480     74478     74475     74479     74480
     74482     74481     74485     74486     74483     74481     74485     74486
     74484     74481     74485     74486     74488     74487     74491     74492
     74489     74487     74491     74492     74490     74487     74491     74492
     74494     74493     74497     74498     74495     74493     74497     74498
     74496     74493     74497     74498     74500     74499     74503     74504
     74501     74499     74503     74504     74502     74499     74503     74504
     74506     74505     74509     74510     74507     74505     74509     74510
     74508     74505     74509     74510     74512     74511     74515     74516
     74513     74511     74515     74516     74514     74511     74515     74516
     74518     74517     74521     74522     74519     74517     74521     74522
     74520     74517     74521     74522     74524     74523     74527     74528
     74525     74523     74527     74528     74526     74523     74527     74528
     74530     74529     74533     74534     74531     74529     74533     74534
     74532     74529     74533     74534     74536     74535     74539     74540
     74537     74535     74539     74540     74538     74535     74539     74540
     74542     74541     74545     74546     74543     74541     74545     74546
     74544     74541     74545     74546     74548     74547     74551     74552
     74549     74547     74551     74552     74550     74547     74551     74552
     74554     74553     74557     74558     74555     74553     74557     74558
     74556     74553     74557     74558     74560     74559     74563     74564
     74561     74559     74563     74564     74562     74559     74563     74564
     74566     74565     74569     74570     74567     74565     74569     74570
     74568     74565     74569     74570     74572     74571     74575     74576
     74573     74571     74575     74576     74574     74571     74575     74576
     74578     74577     74581     74582     74579     74577     74581     74582
     74580     74577     74581     74582     74584     74583     74587     74588
     74585     74583     74587     74588     74586     74583     74587     74588
     74590     74589     74593     74594     74591     74589     74593     74594
     74592     74589     74593     74594     74596     74595     74599     74600
     74597     74595     74599     74600     74598     74595     74599     74600
     74602     74601     74605     74606     74603     74601     74605     74606
     74604     74601     74605     74606     74608     74607     74611     74612
     74609     74607     74611     74612     74610     74607     74611     74612
     74614     74613     74617     74618     74615     74613     74617     74618
     74616     74613     74617     74618     74620     74619     74623     74624
     74621     74619     74623     74624     74622     74619     74623     74624
     74626     74625     74629     74630     74627     74625     74629     74630
     74628     74625     74629     74630     74632     74631     74635     74636
     74633     74631     74635     74636     74634     74631     74635     74636
     74638     74637     74641     74642     74639     74637     74641     74642
     74640     74637     74641     74642     74644     74643     74647     74648
     74645     74643     74647     74648     74646     74643     74647     74648
     74650     74649     74653     74654     74651     74649     74653     74654
     74652     74649     74653     74654     74656     74655     74659     74660
     74657     74655     74659     74660     74658     74655     74659     74660
     74662     74661     74665     74666     74663     74661     74665     74666
     74664     74661     74665     74666     74668     74667     74671     74672
     74669     74667     74671     74672     74670     74667     74671     74672
     74674     74673     74677     74678     74675     74673     74677     74678
     74676     74673     74677     74678     74680     74679     74683     74684
     74681     74679     74683     74684     74682     74679     74683     74684
     74686     74685     74689     74690     74687     74685     74689     74690
     74688     74685     74689     74690     74692     74691     74695     74696
     74693     74691     74695     74696     74694     74691     74695     74696
     74698     74697     74701     74702     74699     74697     74701     74702
     74700     74697     74701     74702     74704     74703     74707     74708
     74705     74703     74707     74708     74706     74703     74707     74708
     74710     74709     74713     74714     74711     74709     74713     74714
     74712     74709     74713     74714     74716     74715     74719     74720
     74717     74715     74719     74720     74718     74715     74719     74720
     74722     74721     74725     74726     74723     74721     74725     74726
     74724     74721     74725     74726     74728     74727     74731     74732
     74729     74727     74731     74732     74730     74727     74731     74732
     74734     74733     74737     74738     74735     74733     74737     74738
     74736     74733     74737     74738     74740     74739     74743     74744
     74741     74739     74743     74744     74742     74739     74743     74744
     74746     74745     74749     74750     74747     74745     74749     74750
     74748     74745     74749     74750     74752     74751     74755     74756
     74753     74751     74755     74756     74754     74751     74755     74756
     74758     74757     74761     74762     74759     74757     74761     74762
     74760     74757     74761     74762     74764     74763     74767     74768
     74765     74763     74767     74768     74766     74763     74767     74768
     74770     74769     74773     74774     74771     74769     74773     74774
     74772     74769     74773     74774     74776     74775     74779     74780
     74777     74775     74779     74780     74778     74775     74779     74780
     74782     74781     74785     74786     74783     74781     74785     74786
     74784     74781     74785     74786     74788     74787     74791     74792
     74789     74787     74791     74792     74790     74787     74791     74792
     74794     74793     74797     74798     74795     74793     74797     74798
     74796     74793     74797     74798     74800     74799     74803     74804
     74801     74799     74803     74804     74802     74799     74803     74804
     74806     74805     74809     74810     74807     74805     74809     74810
     74808     74805     74809     74810     74812     74811     74815     74816
     74813     74811     74815     74816     74814     74811     74815     74816
     74818     74817     74821     74822     74819     74817     74821     74822
     74820     74817     74821     74822     74824     74823     74827     74828
     74825     74823     74827     74828     74826     74823     74827     74828
     74830     74829     74833     74834     74831     74829     74833     74834
     74832     74829     74833     74834     74836     74835     74839     74840
     74837     74835     74839     74840     74838     74835     74839     74840
     74842     74841     74845     74846     74843     74841     74845     74846
     74844     74841     74845     74846     74848     74847     74851     74852
     74849     74847     74851     74852     74850     74847     74851     74852
     74854     74853     74857     74858     74855     74853     74857     74858
     74856     74853     74857     74858     74860     74859     74863     74864
     74861     74859     74863     74864     74862     74859     74863     74864
     74866     74865     74869     74870     74867     74865     74869     74870
     74868     74865     74869     74870     74872     74871     74875     74876
     74873     74871     74875     74876     74874     74871     74875     74876
     74878     74877     74881     74882     74879     74877     74881     74882
     74880     74877     74881     74882     74884     74883     74887     74888
     74885     74883     74887     74888     74886     74883     74887     74888
     74890     74889     74893     74894     74891     74889     74893     74894
     74892     74889     74893     74894     74896     74895     74899     74900
     74897     74895     74899     74900     74898     74895     74899     74900
     74902     74901     74905     74906     74903     74901     74905     74906
     74904     74901     74905     74906     74908     74907     74911     74912
     74909     74907     74911     74912     74910     74907     74911     74912
     74914     74913     74917     74918     74915     74913     74917     74918
     74916     74913     74917     74918     74920     74919     74923     74924
     74921     74919     74923     74924     74922     74919     74923     74924
     74926     74925     74929     74930     74927     74925     74929     74930
     74928     74925     74929     74930     74932     74931     74935     74936
     74933     74931     74935     74936     74934     74931     74935     74936
     74938     74937     74941     74942     74939     74937     74941     74942
     74940     74937     74941     74942     74944     74943     74947     74948
     74945     74943     74947     74948     74946     74943     74947     74948
     74950     74949     74953     74954     74951     74949     74953     74954
     74952     74949     74953     74954     74956     74955     74959     74960
     74957     74955     74959     74960     74958     74955     74959     74960
     74962     74961     74965     74966     74963     74961     74965     74966
     74964     74961     74965     74966     74968     74967     74971     74972
     74969     74967     74971     74972     74970     74967     74971     74972
     74974     74973     74977     74978     74975     74973     74977     74978
     74976     74973     74977     74978     74980     74979     74983     74984
     74981     74979     74983     74984     74982     74979     74983     74984
     74986     74985     74989     74990     74987     74985     74989     74990
     74988     74985     74989     74990     74992     74991     74995     74996
     74993     74991     74995     74996     74994     74991     74995     74996
     74998     74997     75001     75002     74999     74997     75001     75002
     75000     74997     75001     75002     75004     75003     75007     75008
     75005     75003     75007     75008     75006     75003     75007     75008
     75010     75009     75013     75014     75011     75009     75013     75014
     75012     75009     75013     75014     75016     75015     75019     75020
     75017     75015     75019     75020     75018     75015     75019     75020
     75022     75021     75025     75026     75023     75021     75025     75026
     75024     75021     75025     75026     75028     75027     75031     75032
     75029     75027     75031     75032     75030     75027     75031     75032
     75034     75033     75037     75038     75035     75033     75037     75038
     75036     75033     75037     75038     75040     75039     75043     75044
     75041     75039     75043     75044     75042     75039     75043     75044
     75046     75045     75049     75050     75047     75045     75049     75050
     75048     75045     75049     75050     75052     75051     75055     75056
     75053     75051     75055     75056     75054     75051     75055     75056
     75058     75057     75061     75062     75059     75057     75061     75062
     75060     75057     75061     75062     75064     75063     75067     75068
     75065     75063     75067     75068     75066     75063     75067     75068
     75070     75069     75073     75074     75071     75069     75073     75074
     75072     75069     75073     75074     75076     75075     75079     75080
     75077     75075     75079     75080     75078     75075     75079     75080
     75082     75081     75085     75086     75083     75081     75085     75086
     75084     75081     75085     75086     75088     75087     75091     75092
     75089     75087     75091     75092     75090     75087     75091     75092
     75094     75093     75097     75098     75095     75093     75097     75098
     75096     75093     75097     75098     75100     75099     75103     75104
     75101     75099     75103     75104     75102     75099     75103     75104
     75106     75105     75109     75110     75107     75105     75109     75110
     75108     75105     75109     75110     75112     75111     75115     75116
     75113     75111     75115     75116     75114     75111     75115     75116
     75118     75117     75121     75122     75119     75117     75121     75122
     75120     75117     75121     75122     75124     75123     75127     75128
     75125     75123     75127     75128     75126     75123     75127     75128
     75130     75129     75133     75134     75131     75129     75133     75134
     75132     75129     75133     75134     75136     75135     75139     75140
     75137     75135     75139     75140     75138     75135     75139     75140
     75142     75141     75145     75146     75143     75141     75145     75146
     75144     75141     75145     75146     75148     75147     75151     75152
     75149     75147     75151     75152     75150     75147     75151     75152
     75154     75153     75157     75158     75155     75153     75157     75158
     75156     75153     75157     75158     75160     75159     75163     75164
     75161     75159     75163     75164     75162     75159     75163     75164
     75166     75165     75169     75170     75167     75165     75169     75170
     75168     75165     75169     75170     75172     75171     75175     75176
     75173     75171     75175     75176     75174     75171     75175     75176
     75178     75177     75181     75182     75179     75177     75181     75182
     75180     75177     75181     75182     75184     75183     75187     75188
     75185     75183     75187     75188     75186     75183     75187     75188
     75190     75189     75193     75194     75191     75189     75193     75194
     75192     75189     75193     75194     75196     75195     75199     75200
     75197     75195     75199     75200     75198     75195     75199     75200
     75202     75201     75205     75206     75203     75201     75205     75206
     75204     75201     75205     75206     75208     75207     75211     75212
     75209     75207     75211     75212     75210     75207     75211     75212
     75214     75213     75217     75218     75215     75213     75217     75218
     75216     75213     75217     75218     75220     75219     75223     75224
     75221     75219     75223     75224     75222     75219     75223     75224
     75226     75225     75229     75230     75227     75225     75229     75230
     75228     75225     75229     75230     75232     75231     75235     75236
     75233     75231     75235     75236     75234     75231     75235     75236
     75238     75237     75241     75242     75239     75237     75241     75242
     75240     75237     75241     75242     75244     75243     75247     75248
     75245     75243     75247     75248     75246     75243     75247     75248
     75250     75249     75253     75254     75251     75249     75253     75254
     75252     75249     75253     75254     75256     75255     75259     75260
     75257     75255     75259     75260     75258     75255     75259     75260
     75262     75261     75265     75266     75263     75261     75265     75266
     75264     75261     75265     75266     75268     75267     75271     75272
     75269     75267     75271     75272     75270     75267     75271     75272
     75274     75273     75277     75278     75275     75273     75277     75278
     75276     75273     75277     75278     75280     75279     75283     75284
     75281     75279     75283     75284     75282     75279     75283     75284
     75286     75285     75289     75290     75287     75285     75289     75290
     75288     75285     75289     75290     75292     75291     75295     75296
     75293     75291     75295     75296     75294     75291     75295     75296
     75298     75297     75301     75302     75299     75297     75301     75302
     75300     75297     75301     75302     75304     75303     75307     75308
     75305     75303     75307     75308     75306     75303     75307     75308
     75310     75309     75313     75314     75311     75309     75313     75314
     75312     75309     75313     75314     75316     75315     75319     75320
     75317     75315     75319     75320     75318     75315     75319     75320
     75322     75321     75325     75326     75323     75321     75325     75326
     75324     75321     75325     75326     75328     75327     75331     75332
     75329     75327     75331     75332     75330     75327     75331     75332
     75334     75333     75337     75338     75335     75333     75337     75338
     75336     75333     75337     75338     75340     75339     75343     75344
     75341     75339     75343     75344     75342     75339     75343     75344
     75346     75345     75349     75350     75347     75345     75349     75350
     75348     75345     75349     75350     75352     75351     75355     75356
     75353     75351     75355     75356     75354     75351     75355     75356
     75358     75357     75361     75362     75359     75357     75361     75362
     75360     75357     75361     75362     75364     75363     75367     75368
     75365     75363     75367     75368     75366     75363     75367     75368
     75370     75369     75373     75374     75371     75369     75373     75374
     75372     75369     75373     75374     75376     75375     75379     75380
     75377     75375     75379     75380     75378     75375     75379     75380
     75382     75381     75385     75386     75383     75381     75385     75386
     75384     75381     75385     75386     75388     75387     75391     75392
     75389     75387     75391     75392     75390     75387     75391     75392
     75394     75393     75397     75398     75395     75393     75397     75398
     75396     75393     75397     75398     75400     75399     75403     75404
     75401     75399     75403     75404     75402     75399     75403     75404
     75406     75405     75409     75410     75407     75405     75409     75410
     75408     75405     75409     75410     75412     75411     75415     75416
     75413     75411     75415     75416     75414     75411     75415     75416
     75418     75417     75421     75422     75419     75417     75421     75422
     75420     75417     75421     75422     75424     75423     75427     75428
     75425     75423     75427     75428     75426     75423     75427     75428
     75430     75429     75433     75434     75431     75429     75433     75434
     75432     75429     75433     75434     75436     75435     75439     75440
     75437     75435     75439     75440     75438     75435     75439     75440
     75442     75441     75445     75446     75443     75441     75445     75446
     75444     75441     75445     75446     75448     75447     75451     75452
     75449     75447     75451     75452     75450     75447     75451     75452
     75454     75453     75457     75458     75455     75453     75457     75458
     75456     75453     75457     75458     75460     75459     75463     75464
     75461     75459     75463     75464     75462     75459     75463     75464
     75466     75465     75469     75470     75467     75465     75469     75470
     75468     75465     75469     75470     75472     75471     75475     75476
     75473     75471     75475     75476     75474     75471     75475     75476
     75478     75477     75481     75482     75479     75477     75481     75482
     75480     75477     75481     75482     75484     75483     75487     75488
     75485     75483     75487     75488     75486     75483     75487     75488
     75490     75489     75493     75494     75491     75489     75493     75494
     75492     75489     75493     75494     75496     75495     75499     75500
     75497     75495     75499     75500     75498     75495     75499     75500
     75502     75501     75505     75506     75503     75501     75505     75506
     75504     75501     75505     75506     75508     75507     75511     75512
     75509     75507     75511     75512     75510     75507     75511     75512
     75514     75513     75517     75518     75515     75513     75517     75518
     75516     75513     75517     75518     75520     75519     75523     75524
     75521     75519     75523     75524     75522     75519     75523     75524
     75526     75525     75529     75530     75527     75525     75529     75530
     75528     75525     75529     75530     75532     75531     75535     75536
     75533     75531     75535     75536     75534     75531     75535     75536
     75538     75537     75541     75542     75539     75537     75541     75542
     75540     75537     75541     75542     75544     75543     75547     75548
     75545     75543     75547     75548     75546     75543     75547     75548
     75550     75549     75553     75554     75551     75549     75553     75554
     75552     75549     75553     75554     75556     75555     75559     75560
     75557     75555     75559     75560     75558     75555     75559     75560
     75562     75561     75565     75566     75563     75561     75565     75566
     75564     75561     75565     75566     75568     75567     75571     75572
     75569     75567     75571     75572     75570     75567     75571     75572
     75574     75573     75577     75578     75575     75573     75577     75578
     75576     75573     75577     75578     75580     75579     75583     75584
     75581     75579     75583     75584     75582     75579     75583     75584
     75586     75585     75589     75590     75587     75585     75589     75590
     75588     75585     75589     75590     75592     75591     75595     75596
     75593     75591     75595     75596     75594     75591     75595     75596
     75598     75597     75601     75602     75599     75597     75601     75602
     75600     75597     75601     75602     75604     75603     75607     75608
     75605     75603     75607     75608     75606     75603     75607     75608
     75610     75609     75613     75614     75611     75609     75613     75614
     75612     75609     75613     75614     75616     75615     75619     75620
     75617     75615     75619     75620     75618     75615     75619     75620
     75622     75621     75625     75626     75623     75621     75625     75626
     75624     75621     75625     75626     75628     75627     75631     75632
     75629     75627     75631     75632     75630     75627     75631     75632
     75634     75633     75637     75638     75635     75633     75637     75638
     75636     75633     75637     75638     75640     75639     75643     75644
     75641     75639     75643     75644     75642     75639     75643     75644
     75646     75645     75649     75650     75647     75645     75649     75650
     75648     75645     75649     75650     75652     75651     75655     75656
     75653     75651     75655     75656     75654     75651     75655     75656
     75658     75657     75661     75662     75659     75657     75661     75662
     75660     75657     75661     75662     75664     75663     75667     75668
     75665     75663     75667     75668     75666     75663     75667     75668
     75670     75669     75673     75674     75671     75669     75673     75674
     75672     75669     75673     75674     75676     75675     75679     75680
     75677     75675     75679     75680     75678     75675     75679     75680
     75682     75681     75685     75686     75683     75681     75685     75686
     75684     75681     75685     75686     75688     75687     75691     75692
     75689     75687     75691     75692     75690     75687     75691     75692
     75694     75693     75697     75698     75695     75693     75697     75698
     75696     75693     75697     75698     75700     75699     75703     75704
     75701     75699     75703     75704     75702     75699     75703     75704
     75706     75705     75709     75710     75707     75705     75709     75710
     75708     75705     75709     75710     75712     75711     75715     75716
     75713     75711     75715     75716     75714     75711     75715     75716
     75718     75717     75721     75722     75719     75717     75721     75722
     75720     75717     75721     75722     75724     75723     75727     75728
     75725     75723     75727     75728     75726     75723     75727     75728
     75730     75729     75733     75734     75731     75729     75733     75734
     75732     75729     75733     75734     75736     75735     75739     75740
     75737     75735     75739     75740     75738     75735     75739     75740
     75742     75741     75745     75746     75743     75741     75745     75746
     75744     75741     75745     75746     75748     75747     75751     75752
     75749     75747     75751     75752     75750     75747     75751     75752
     75754     75753     75757     75758     75755     75753     75757     75758
     75756     75753     75757     75758     75760     75759     75763     75764
     75761     75759     75763     75764     75762     75759     75763     75764
     75766     75765     75769     75770     75767     75765     75769     75770
     75768     75765     75769     75770     75772     75771     75775     75776
     75773     75771     75775     75776     75774     75771     75775     75776
     75778     75777     75781     75782     75779     75777     75781     75782
     75780     75777     75781     75782     75784     75783     75787     75788
     75785     75783     75787     75788     75786     75783     75787     75788
     75790     75789     75793     75794     75791     75789     75793     75794
     75792     75789     75793     75794     75796     75795     75799     75800
     75797     75795     75799     75800     75798     75795     75799     75800
     75802     75801     75805     75806     75803     75801     75805     75806
     75804     75801     75805     75806     75808     75807     75811     75812
     75809     75807     75811     75812     75810     75807     75811     75812
     75814     75813     75817     75818     75815     75813     75817     75818
     75816     75813     75817     75818     75820     75819     75823     75824
     75821     75819     75823     75824     75822     75819     75823     75824
     75826     75825     75829     75830     75827     75825     75829     75830
     75828     75825     75829     75830     75832     75831     75835     75836
     75833     75831     75835     75836     75834     75831     75835     75836
     75838     75837     75841     75842     75839     75837     75841     75842
     75840     75837     75841     75842     75844     75843     75847     75848
     75845     75843     75847     75848     75846     75843     75847     75848
     75850     75849     75853     75854     75851     75849     75853     75854
     75852     75849     75853     75854     75856     75855     75859     75860
     75857     75855     75859     75860     75858     75855     75859     75860
     75862     75861     75865     75866     75863     75861     75865     75866
     75864     75861     75865     75866     75868     75867     75871     75872
     75869     75867     75871     75872     75870     75867     75871     75872
     75874     75873     75877     75878     75875     75873     75877     75878
     75876     75873     75877     75878     75880     75879     75883     75884
     75881     75879     75883     75884     75882     75879     75883     75884
     75886     75885     75889     75890     75887     75885     75889     75890
     75888     75885     75889     75890     75892     75891     75895     75896
     75893     75891     75895     75896     75894     75891     75895     75896
     75898     75897     75901     75902     75899     75897     75901     75902
     75900     75897     75901     75902     75904     75903     75907     75908
     75905     75903     75907     75908     75906     75903     75907     75908
     75910     75909     75913     75914     75911     75909     75913     75914
     75912     75909     75913     75914     75916     75915     75919     75920
     75917     75915     75919     75920     75918     75915     75919     75920
     75922     75921     75925     75926     75923     75921     75925     75926
     75924     75921     75925     75926     75928     75927     75931     75932
     75929     75927     75931     75932     75930     75927     75931     75932
     75934     75933     75937     75938     75935     75933     75937     75938
     75936     75933     75937     75938     75940     75939     75943     75944
     75941     75939     75943     75944     75942     75939     75943     75944
     75946     75945     75949     75950     75947     75945     75949     75950
     75948     75945     75949     75950     75952     75951     75955     75956
     75953     75951     75955     75956     75954     75951     75955     75956
     75958     75957     75961     75962     75959     75957     75961     75962
     75960     75957     75961     75962     75964     75963     75967     75968
     75965     75963     75967     75968     75966     75963     75967     75968
     75970     75969     75973     75974     75971     75969     75973     75974
     75972     75969     75973     75974     75976     75975     75979     75980
     75977     75975     75979     75980     75978     75975     75979     75980
     75982     75981     75985     75986     75983     75981     75985     75986
     75984     75981     75985     75986     75988     75987     75991     75992
     75989     75987     75991     75992     75990     75987     75991     75992
     75994     75993     75997     75998     75995     75993     75997     75998
     75996     75993     75997     75998     76000     75999     76003     76004
     76001     75999     76003     76004     76002     75999     76003     76004
     76006     76005     76009     76010     76007     76005     76009     76010
     76008     76005     76009     76010     76012     76011     76015     76016
     76013     76011     76015     76016     76014     76011     76015     76016
     76018     76017     76021     76022     76019     76017     76021     76022
     76020     76017     76021     76022     76024     76023     76027     76028
     76025     76023     76027     76028     76026     76023     76027     76028
     76030     76029     76033     76034     76031     76029     76033     76034
     76032     76029     76033     76034     76036     76035     76039     76040
     76037     76035     76039     76040     76038     76035     76039     76040
     76042     76041     76045     76046     76043     76041     76045     76046
     76044     76041     76045     76046     76048     76047     76051     76052
     76049     76047     76051     76052     76050     76047     76051     76052
     76054     76053     76057     76058     76055     76053     76057     76058
     76056     76053     76057     76058     76060     76059     76063     76064
     76061     76059     76063     76064     76062     76059     76063     76064
     76066     76065     76069     76070     76067     76065     76069     76070
     76068     76065     76069     76070     76072     76071     76075     76076
     76073     76071     76075     76076     76074     76071     76075     76076
     76078     76077     76081     76082     76079     76077     76081     76082
     76080     76077     76081     76082     76084     76083     76087     76088
     76085     76083     76087     76088     76086     76083     76087     76088
     76090     76089     76093     76094     76091     76089     76093     76094
     76092     76089     76093     76094     76096     76095     76099     76100
     76097     76095     76099     76100     76098     76095     76099     76100
     76102     76101     76105     76106     76103     76101     76105     76106
     76104     76101     76105     76106     76108     76107     76111     76112
     76109     76107     76111     76112     76110     76107     76111     76112
     76114     76113     76117     76118     76115     76113     76117     76118
     76116     76113     76117     76118     76120     76119     76123     76124
     76121     76119     76123     76124     76122     76119     76123     76124
     76126     76125     76129     76130     76127     76125     76129     76130
     76128     76125     76129     76130     76132     76131     76135     76136
     76133     76131     76135     76136     76134     76131     76135     76136
     76138     76137     76141     76142     76139     76137     76141     76142
     76140     76137     76141     76142     76144     76143     76147     76148
     76145     76143     76147     76148     76146     76143     76147     76148
     76150     76149     76153     76154     76151     76149     76153     76154
     76152     76149     76153     76154     76156     76155     76159     76160
     76157     76155     76159     76160     76158     76155     76159     76160
     76162     76161     76165     76166     76163     76161     76165     76166
     76164     76161     76165     76166     76168     76167     76171     76172
     76169     76167     76171     76172     76170     76167     76171     76172
     76174     76173     76177     76178     76175     76173     76177     76178
     76176     76173     76177     76178     76180     76179     76183     76184
     76181     76179     76183     76184     76182     76179     76183     76184
     76186     76185     76189     76190     76187     76185     76189     76190
     76188     76185     76189     76190     76192     76191     76195     76196
     76193     76191     76195     76196     76194     76191     76195     76196
     76198     76197     76201     76202     76199     76197     76201     76202
     76200     76197     76201     76202     76204     76203     76207     76208
     76205     76203     76207     76208     76206     76203     76207     76208
     76210     76209     76213     76214     76211     76209     76213     76214
     76212     76209     76213     76214     76216     76215     76219     76220
     76217     76215     76219     76220     76218     76215     76219     76220
     76222     76221     76225     76226     76223     76221     76225     76226
     76224     76221     76225     76226     76228     76227     76231     76232
     76229     76227     76231     76232     76230     76227     76231     76232
     76234     76233     76237     76238     76235     76233     76237     76238
     76236     76233     76237     76238     76240     76239     76243     76244
     76241     76239     76243     76244     76242     76239     76243     76244
     76246     76245     76249     76250     76247     76245     76249     76250
     76248     76245     76249     76250     76252     76251     76255     76256
     76253     76251     76255     76256     76254     76251     76255     76256
     76258     76257     76261     76262     76259     76257     76261     76262
     76260     76257     76261     76262     76264     76263     76267     76268
     76265     76263     76267     76268     76266     76263     76267     76268
     76270     76269     76273     76274     76271     76269     76273     76274
     76272     76269     76273     76274     76276     76275     76279     76280
     76277     76275     76279     76280     76278     76275     76279     76280
     76282     76281     76285     76286     76283     76281     76285     76286
     76284     76281     76285     76286     76288     76287     76291     76292
     76289     76287     76291     76292     76290     76287     76291     76292
     76294     76293     76297     76298     76295     76293     76297     76298
     76296     76293     76297     76298     76300     76299     76303     76304
     76301     76299     76303     76304     76302     76299     76303     76304
     76306     76305     76309     76310     76307     76305     76309     76310
     76308     76305     76309     76310     76312     76311     76315     76316
     76313     76311     76315     76316     76314     76311     76315     76316
     76318     76317     76321     76322     76319     76317     76321     76322
     76320     76317     76321     76322     76324     76323     76327     76328
     76325     76323     76327     76328     76326     76323     76327     76328
     76330     76329     76333     76334     76331     76329     76333     76334
     76332     76329     76333     76334     76336     76335     76339     76340
     76337     76335     76339     76340     76338     76335     76339     76340
     76342     76341     76345     76346     76343     76341     76345     76346
     76344     76341     76345     76346     76348     76347     76351     76352
     76349     76347     76351     76352     76350     76347     76351     76352
     76354     76353     76357     76358     76355     76353     76357     76358
     76356     76353     76357     76358     76360     76359     76363     76364
     76361     76359     76363     76364     76362     76359     76363     76364
     76366     76365     76369     76370     76367     76365     76369     76370
     76368     76365     76369     76370     76372     76371     76375     76376
     76373     76371     76375     76376     76374     76371     76375     76376
     76378     76377     76381     76382     76379     76377     76381     76382
     76380     76377     76381     76382     76384     76383     76387     76388
     76385     76383     76387     76388     76386     76383     76387     76388
     76390     76389     76393     76394     76391     76389     76393     76394
     76392     76389     76393     76394     76396     76395     76399     76400
     76397     76395     76399     76400     76398     76395     76399     76400
     76402     76401     76405     76406     76403     76401     76405     76406
     76404     76401     76405     76406     76408     76407     76411     76412
     76409     76407     76411     76412     76410     76407     76411     76412
     76414     76413     76417     76418     76415     76413     76417     76418
     76416     76413     76417     76418     76420     76419     76423     76424
     76421     76419     76423     76424     76422     76419     76423     76424
     76426     76425     76429     76430     76427     76425     76429     76430
     76428     76425     76429     76430     76432     76431     76435     76436
     76433     76431     76435     76436     76434     76431     76435     76436
     76438     76437     76441     76442     76439     76437     76441     76442
     76440     76437     76441     76442     76444     76443     76447     76448
     76445     76443     76447     76448     76446     76443     76447     76448
     76450     76449     76453     76454     76451     76449     76453     76454
     76452     76449     76453     76454     76456     76455     76459     76460
     76457     76455     76459     76460     76458     76455     76459     76460
     76462     76461     76465     76466     76463     76461     76465     76466
     76464     76461     76465     76466     76468     76467     76471     76472
     76469     76467     76471     76472     76470     76467     76471     76472
     76474     76473     76477     76478     76475     76473     76477     76478
     76476     76473     76477     76478     76480     76479     76483     76484
     76481     76479     76483     76484     76482     76479     76483     76484
     76486     76485     76489     76490     76487     76485     76489     76490
     76488     76485     76489     76490     76492     76491     76495     76496
     76493     76491     76495     76496     76494     76491     76495     76496
     76498     76497     76501     76502     76499     76497     76501     76502
     76500     76497     76501     76502     76504     76503     76507     76508
     76505     76503     76507     76508     76506     76503     76507     76508
     76510     76509     76513     76514     76511     76509     76513     76514
     76512     76509     76513     76514     76516     76515     76519     76520
     76517     76515     76519     76520     76518     76515     76519     76520
     76522     76521     76525     76526     76523     76521     76525     76526
     76524     76521     76525     76526     76528     76527     76531     76532
     76529     76527     76531     76532     76530     76527     76531     76532
     76534     76533     76537     76538     76535     76533     76537     76538
     76536     76533     76537     76538     76540     76539     76543     76544
     76541     76539     76543     76544     76542     76539     76543     76544
     76546     76545     76549     76550     76547     76545     76549     76550
     76548     76545     76549     76550     76552     76551     76555     76556
     76553     76551     76555     76556     76554     76551     76555     76556
     76558     76557     76561     76562     76559     76557     76561     76562
     76560     76557     76561     76562     76564     76563     76567     76568
     76565     76563     76567     76568     76566     76563     76567     76568
     76570     76569     76573     76574     76571     76569     76573     76574
     76572     76569     76573     76574     76576     76575     76579     76580
     76577     76575     76579     76580     76578     76575     76579     76580
     76582     76581     76585     76586     76583     76581     76585     76586
     76584     76581     76585     76586     76588     76587     76591     76592
     76589     76587     76591     76592     76590     76587     76591     76592
     76594     76593     76597     76598     76595     76593     76597     76598
     76596     76593     76597     76598     76600     76599     76603     76604
     76601     76599     76603     76604     76602     76599     76603     76604
     76606     76605     76609     76610     76607     76605     76609     76610
     76608     76605     76609     76610     76612     76611     76615     76616
     76613     76611     76615     76616     76614     76611     76615     76616
     76618     76617     76621     76622     76619     76617     76621     76622
     76620     76617     76621     76622     76624     76623     76627     76628
     76625     76623     76627     76628     76626     76623     76627     76628
     76630     76629     76633     76634     76631     76629     76633     76634
     76632     76629     76633     76634     76636     76635     76639     76640
     76637     76635     76639     76640     76638     76635     76639     76640
     76642     76641     76645     76646     76643     76641     76645     76646
     76644     76641     76645     76646     76648     76647     76651     76652
     76649     76647     76651     76652     76650     76647     76651     76652
     76654     76653     76657     76658     76655     76653     76657     76658
     76656     76653     76657     76658     76660     76659     76663     76664
     76661     76659     76663     76664     76662     76659     76663     76664
     76666     76665     76669     76670     76667     76665     76669     76670
     76668     76665     76669     76670     76672     76671     76675     76676
     76673     76671     76675     76676     76674     76671     76675     76676
     76678     76677     76681     76682     76679     76677     76681     76682
     76680     76677     76681     76682     76684     76683     76687     76688
     76685     76683     76687     76688     76686     76683     76687     76688
     76690     76689     76693     76694     76691     76689     76693     76694
     76692     76689     76693     76694     76696     76695     76699     76700
     76697     76695     76699     76700     76698     76695     76699     76700
     76702     76701     76705     76706     76703     76701     76705     76706
     76704     76701     76705     76706     76708     76707     76711     76712
     76709     76707     76711     76712     76710     76707     76711     76712
     76714     76713     76717     76718     76715     76713     76717     76718
     76716     76713     76717     76718     76720     76719     76723     76724
     76721     76719     76723     76724     76722     76719     76723     76724
     76726     76725     76729     76730     76727     76725     76729     76730
     76728     76725     76729     76730     76732     76731     76735     76736
     76733     76731     76735     76736     76734     76731     76735     76736
     76738     76737     76741     76742     76739     76737     76741     76742
     76740     76737     76741     76742     76744     76743     76747     76748
     76745     76743     76747     76748     76746     76743     76747     76748
     76750     76749     76753     76754     76751     76749     76753     76754
     76752     76749     76753     76754     76756     76755     76759     76760
     76757     76755     76759     76760     76758     76755     76759     76760
     76762     76761     76765     76766     76763     76761     76765     76766
     76764     76761     76765     76766     76768     76767     76771     76772
     76769     76767     76771     76772     76770     76767     76771     76772
     76774     76773     76777     76778     76775     76773     76777     76778
     76776     76773     76777     76778     76780     76779     76783     76784
     76781     76779     76783     76784     76782     76779     76783     76784
     76786     76785     76789     76790     76787     76785     76789     76790
     76788     76785     76789     76790     76792     76791     76795     76796
     76793     76791     76795     76796     76794     76791     76795     76796
     76798     76797     76801     76802     76799     76797     76801     76802
     76800     76797     76801     76802     76804     76803     76807     76808
     76805     76803     76807     76808     76806     76803     76807     76808
     76810     76809     76813     76814     76811     76809     76813     76814
     76812     76809     76813     76814     76816     76815     76819     76820
     76817     76815     76819     76820     76818     76815     76819     76820
     76822     76821     76825     76826     76823     76821     76825     76826
     76824     76821     76825     76826     76828     76827     76831     76832
     76829     76827     76831     76832     76830     76827     76831     76832
     76834     76833     76837     76838     76835     76833     76837     76838
     76836     76833     76837     76838     76840     76839     76843     76844
     76841     76839     76843     76844     76842     76839     76843     76844
     76846     76845     76849     76850     76847     76845     76849     76850
     76848     76845     76849     76850     76852     76851     76855     76856
     76853     76851     76855     76856     76854     76851     76855     76856
     76858     76857     76861     76862     76859     76857     76861     76862
     76860     76857     76861     76862     76864     76863     76867     76868
     76865     76863     76867     76868     76866     76863     76867     76868
     76870     76869     76873     76874     76871     76869     76873     76874
     76872     76869     76873     76874     76876     76875     76879     76880
     76877     76875     76879     76880     76878     76875     76879     76880
     76882     76881     76885     76886     76883     76881     76885     76886
     76884     76881     76885     76886     76888     76887     76891     76892
     76889     76887     76891     76892     76890     76887     76891     76892
     76894     76893     76897     76898     76895     76893     76897     76898
     76896     76893     76897     76898     76900     76899     76903     76904
     76901     76899     76903     76904     76902     76899     76903     76904
     76906     76905     76909     76910     76907     76905     76909     76910
     76908     76905     76909     76910     76912     76911     76915     76916
     76913     76911     76915     76916     76914     76911     76915     76916
     76918     76917     76921     76922     76919     76917     76921     76922
     76920     76917     76921     76922     76924     76923     76927     76928
     76925     76923     76927     76928     76926     76923     76927     76928
     76930     76929     76933     76934     76931     76929     76933     76934
     76932     76929     76933     76934     76936     76935     76939     76940
     76937     76935     76939     76940     76938     76935     76939     76940
     76942     76941     76945     76946     76943     76941     76945     76946
     76944     76941     76945     76946     76948     76947     76951     76952
     76949     76947     76951     76952     76950     76947     76951     76952
     76954     76953     76957     76958     76955     76953     76957     76958
     76956     76953     76957     76958     76960     76959     76963     76964
     76961     76959     76963     76964     76962     76959     76963     76964
     76966     76965     76969     76970     76967     76965     76969     76970
     76968     76965     76969     76970     76972     76971     76975     76976
     76973     76971     76975     76976     76974     76971     76975     76976
     76978     76977     76981     76982     76979     76977     76981     76982
     76980     76977     76981     76982     76984     76983     76987     76988
     76985     76983     76987     76988     76986     76983     76987     76988
     76990     76989     76993     76994     76991     76989     76993     76994
     76992     76989     76993     76994     76996     76995     76999     77000
     76997     76995     76999     77000     76998     76995     76999     77000
     77002     77001     77005     77006     77003     77001     77005     77006
     77004     77001     77005     77006     77008     77007     77011     77012
     77009     77007     77011     77012     77010     77007     77011     77012
     77014     77013     77017     77018     77015     77013     77017     77018
     77016     77013     77017     77018     77020     77019     77023     77024
     77021     77019     77023     77024     77022     77019     77023     77024
     77026     77025     77029     77030     77027     77025     77029     77030
     77028     77025     77029     77030     77032     77031     77035     77036
     77033     77031     77035     77036     77034     77031     77035     77036
     77038     77037     77041     77042     77039     77037     77041     77042
     77040     77037     77041     77042     77044     77043     77047     77048
     77045     77043     77047     77048     77046     77043     77047     77048
     77050     77049     77053     77054     77051     77049     77053     77054
     77052     77049     77053     77054     77056     77055     77059     77060
     77057     77055     77059     77060     77058     77055     77059     77060
     77062     77061     77065     77066     77063     77061     77065     77066
     77064     77061     77065     77066     77068     77067     77071     77072
     77069     77067     77071     77072     77070     77067     77071     77072
     77074     77073     77077     77078     77075     77073     77077     77078
     77076     77073     77077     77078     77080     77079     77083     77084
     77081     77079     77083     77084     77082     77079     77083     77084
     77086     77085     77089     77090     77087     77085     77089     77090
     77088     77085     77089     77090     77092     77091     77095     77096
     77093     77091     77095     77096     77094     77091     77095     77096
     77098     77097     77101     77102     77099     77097     77101     77102
     77100     77097     77101     77102     77104     77103     77107     77108
     77105     77103     77107     77108     77106     77103     77107     77108
     77110     77109     77113     77114     77111     77109     77113     77114
     77112     77109     77113     77114     77116     77115     77119     77120
     77117     77115     77119     77120     77118     77115     77119     77120
     77122     77121     77125     77126     77123     77121     77125     77126
     77124     77121     77125     77126     77128     77127     77131     77132
     77129     77127     77131     77132     77130     77127     77131     77132
     77134     77133     77137     77138     77135     77133     77137     77138
     77136     77133     77137     77138     77140     77139     77143     77144
     77141     77139     77143     77144     77142     77139     77143     77144
     77146     77145     77149     77150     77147     77145     77149     77150
     77148     77145     77149     77150     77152     77151     77155     77156
     77153     77151     77155     77156     77154     77151     77155     77156
     77158     77157     77161     77162     77159     77157     77161     77162
     77160     77157     77161     77162     77164     77163     77167     77168
     77165     77163     77167     77168     77166     77163     77167     77168
     77170     77169     77173     77174     77171     77169     77173     77174
     77172     77169     77173     77174     77176     77175     77179     77180
     77177     77175     77179     77180     77178     77175     77179     77180
     77182     77181     77185     77186     77183     77181     77185     77186
     77184     77181     77185     77186     77188     77187     77191     77192
     77189     77187     77191     77192     77190     77187     77191     77192
     77194     77193     77197     77198     77195     77193     77197     77198
     77196     77193     77197     77198     77200     77199     77203     77204
     77201     77199     77203     77204     77202     77199     77203     77204
     77206     77205     77209     77210     77207     77205     77209     77210
     77208     77205     77209     77210     77212     77211     77215     77216
     77213     77211     77215     77216     77214     77211     77215     77216
     77218     77217     77221     77222     77219     77217     77221     77222
     77220     77217     77221     77222     77224     77223     77227     77228
     77225     77223     77227     77228     77226     77223     77227     77228
     77230     77229     77233     77234     77231     77229     77233     77234
     77232     77229     77233     77234     77236     77235     77239     77240
     77237     77235     77239     77240     77238     77235     77239     77240
     77242     77241     77245     77246     77243     77241     77245     77246
     77244     77241     77245     77246     77248     77247     77251     77252
     77249     77247     77251     77252     77250     77247     77251     77252
     77254     77253     77257     77258     77255     77253     77257     77258
     77256     77253     77257     77258     77260     77259     77263     77264
     77261     77259     77263     77264     77262     77259     77263     77264
     77266     77265     77269     77270     77267     77265     77269     77270
     77268     77265     77269     77270     77272     77271     77275     77276
     77273     77271     77275     77276     77274     77271     77275     77276
     77278     77277     77281     77282     77279     77277     77281     77282
     77280     77277     77281     77282     77284     77283     77287     77288
     77285     77283     77287     77288     77286     77283     77287     77288
     77290     77289     77293     77294     77291     77289     77293     77294
     77292     77289     77293     77294     77296     77295     77299     77300
     77297     77295     77299     77300     77298     77295     77299     77300
     77302     77301     77305     77306     77303     77301     77305     77306
     77304     77301     77305     77306     77308     77307     77311     77312
     77309     77307     77311     77312     77310     77307     77311     77312
     77314     77313     77317     77318     77315     77313     77317     77318
     77316     77313     77317     77318     77320     77319     77323     77324
     77321     77319     77323     77324     77322     77319     77323     77324
     77326     77325     77329     77330     77327     77325     77329     77330
     77328     77325     77329     77330     77332     77331     77335     77336
     77333     77331     77335     77336     77334     77331     77335     77336
     77338     77337     77341     77342     77339     77337     77341     77342
     77340     77337     77341     77342     77344     77343     77347     77348
     77345     77343     77347     77348     77346     77343     77347     77348
     77350     77349     77353     77354     77351     77349     77353     77354
     77352     77349     77353     77354     77356     77355     77359     77360
     77357     77355     77359     77360     77358     77355     77359     77360
     77362     77361     77365     77366     77363     77361     77365     77366
     77364     77361     77365     77366     77368     77367     77371     77372
     77369     77367     77371     77372     77370     77367     77371     77372
     77374     77373     77377     77378     77375     77373     77377     77378
     77376     77373     77377     77378     77380     77379     77383     77384
     77381     77379     77383     77384     77382     77379     77383     77384
     77386     77385     77389     77390     77387     77385     77389     77390
     77388     77385     77389     77390     77392     77391     77395     77396
     77393     77391     77395     77396     77394     77391     77395     77396
     77398     77397     77401     77402     77399     77397     77401     77402
     77400     77397     77401     77402     77404     77403     77407     77408
     77405     77403     77407     77408     77406     77403     77407     77408
     77410     77409     77413     77414     77411     77409     77413     77414
     77412     77409     77413     77414     77416     77415     77419     77420
     77417     77415     77419     77420     77418     77415     77419     77420
     77422     77421     77425     77426     77423     77421     77425     77426
     77424     77421     77425     77426     77428     77427     77431     77432
     77429     77427     77431     77432     77430     77427     77431     77432
     77434     77433     77437     77438     77435     77433     77437     77438
     77436     77433     77437     77438     77440     77439     77443     77444
     77441     77439     77443     77444     77442     77439     77443     77444
     77446     77445     77449     77450     77447     77445     77449     77450
     77448     77445     77449     77450     77452     77451     77455     77456
     77453     77451     77455     77456     77454     77451     77455     77456
     77458     77457     77461     77462     77459     77457     77461     77462
     77460     77457     77461     77462     77464     77463     77467     77468
     77465     77463     77467     77468     77466     77463     77467     77468
     77470     77469     77473     77474     77471     77469     77473     77474
     77472     77469     77473     77474     77476     77475     77479     77480
     77477     77475     77479     77480     77478     77475     77479     77480
     77482     77481     77485     77486     77483     77481     77485     77486
     77484     77481     77485     77486     77488     77487     77491     77492
     77489     77487     77491     77492     77490     77487     77491     77492
     77494     77493     77497     77498     77495     77493     77497     77498
     77496     77493     77497     77498     77500     77499     77503     77504
     77501     77499     77503     77504     77502     77499     77503     77504
     77506     77505     77509     77510     77507     77505     77509     77510
     77508     77505     77509     77510     77512     77511     77515     77516
     77513     77511     77515     77516     77514     77511     77515     77516
     77518     77517     77521     77522     77519     77517     77521     77522
     77520     77517     77521     77522     77524     77523     77527     77528
     77525     77523     77527     77528     77526     77523     77527     77528
     77530     77529     77533     77534     77531     77529     77533     77534
     77532     77529     77533     77534     77536     77535     77539     77540
     77537     77535     77539     77540     77538     77535     77539     77540
     77542     77541     77545     77546     77543     77541     77545     77546
     77544     77541     77545     77546     77548     77547     77551     77552
     77549     77547     77551     77552     77550     77547     77551     77552
     77554     77553     77557     77558     77555     77553     77557     77558
     77556     77553     77557     77558     77560     77559     77563     77564
     77561     77559     77563     77564     77562     77559     77563     77564
     77566     77565     77569     77570     77567     77565     77569     77570
     77568     77565     77569     77570     77572     77571     77575     77576
     77573     77571     77575     77576     77574     77571     77575     77576
     77578     77577     77581     77582     77579     77577     77581     77582
     77580     77577     77581     77582     77584     77583     77587     77588
     77585     77583     77587     77588     77586     77583     77587     77588
     77590     77589     77593     77594     77591     77589     77593     77594
     77592     77589     77593     77594     77596     77595     77599     77600
     77597     77595     77599     77600     77598     77595     77599     77600
     77602     77601     77605     77606     77603     77601     77605     77606
     77604     77601     77605     77606     77608     77607     77611     77612
     77609     77607     77611     77612     77610     77607     77611     77612
     77614     77613     77617     77618     77615     77613     77617     77618
     77616     77613     77617     77618     77620     77619     77623     77624
     77621     77619     77623     77624     77622     77619     77623     77624
     77626     77625     77629     77630     77627     77625     77629     77630
     77628     77625     77629     77630     77632     77631     77635     77636
     77633     77631     77635     77636     77634     77631     77635     77636
     77638     77637     77641     77642     77639     77637     77641     77642
     77640     77637     77641     77642     77644     77643     77647     77648
     77645     77643     77647     77648     77646     77643     77647     77648
     77650     77649     77653     77654     77651     77649     77653     77654
     77652     77649     77653     77654     77656     77655     77659     77660
     77657     77655     77659     77660     77658     77655     77659     77660
     77662     77661     77665     77666     77663     77661     77665     77666
     77664     77661     77665     77666     77668     77667     77671     77672
     77669     77667     77671     77672     77670     77667     77671     77672
     77674     77673     77677     77678     77675     77673     77677     77678
     77676     77673     77677     77678     77680     77679     77683     77684
     77681     77679     77683     77684     77682     77679     77683     77684
     77686     77685     77689     77690     77687     77685     77689     77690
     77688     77685     77689     77690     77692     77691     77695     77696
     77693     77691     77695     77696     77694     77691     77695     77696
     77698     77697     77701     77702     77699     77697     77701     77702
     77700     77697     77701     77702     77704     77703     77707     77708
     77705     77703     77707     77708     77706     77703     77707     77708
     77710     77709     77713     77714     77711     77709     77713     77714
     77712     77709     77713     77714     77716     77715     77719     77720
     77717     77715     77719     77720     77718     77715     77719     77720
     77722     77721     77725     77726     77723     77721     77725     77726
     77724     77721     77725     77726     77728     77727     77731     77732
     77729     77727     77731     77732     77730     77727     77731     77732
     77734     77733     77737     77738     77735     77733     77737     77738
     77736     77733     77737     77738     77740     77739     77743     77744
     77741     77739     77743     77744     77742     77739     77743     77744
     77746     77745     77749     77750     77747     77745     77749     77750
     77748     77745     77749     77750     77752     77751     77755     77756
     77753     77751     77755     77756     77754     77751     77755     77756
     77758     77757     77761     77762     77759     77757     77761     77762
     77760     77757     77761     77762     77764     77763     77767     77768
     77765     77763     77767     77768     77766     77763     77767     77768
     77770     77769     77773     77774     77771     77769     77773     77774
     77772     77769     77773     77774     77776     77775     77779     77780
     77777     77775     77779     77780     77778     77775     77779     77780
     77782     77781     77785     77786     77783     77781     77785     77786
     77784     77781     77785     77786     77788     77787     77791     77792
     77789     77787     77791     77792     77790     77787     77791     77792
     77794     77793     77797     77798     77795     77793     77797     77798
     77796     77793     77797     77798     77800     77799     77803     77804
     77801     77799     77803     77804     77802     77799     77803     77804
     77806     77805     77809     77810     77807     77805     77809     77810
     77808     77805     77809     77810     77812     77811     77815     77816
     77813     77811     77815     77816     77814     77811     77815     77816
     77818     77817     77821     77822     77819     77817     77821     77822
     77820     77817     77821     77822     77824     77823     77827     77828
     77825     77823     77827     77828     77826     77823     77827     77828
     77830     77829     77833     77834     77831     77829     77833     77834
     77832     77829     77833     77834     77836     77835     77839     77840
     77837     77835     77839     77840     77838     77835     77839     77840
     77842     77841     77845     77846     77843     77841     77845     77846
     77844     77841     77845     77846     77848     77847     77851     77852
     77849     77847     77851     77852     77850     77847     77851     77852
     77854     77853     77857     77858     77855     77853     77857     77858
     77856     77853     77857     77858     77860     77859     77863     77864
     77861     77859     77863     77864     77862     77859     77863     77864
     77866     77865     77869     77870     77867     77865     77869     77870
     77868     77865     77869     77870     77872     77871     77875     77876
     77873     77871     77875     77876     77874     77871     77875     77876
     77878     77877     77881     77882     77879     77877     77881     77882
     77880     77877     77881     77882     77884     77883     77887     77888
     77885     77883     77887     77888     77886     77883     77887     77888
     77890     77889     77893     77894     77891     77889     77893     77894
     77892     77889     77893     77894     77896     77895     77899     77900
     77897     77895     77899     77900     77898     77895     77899     77900
     77902     77901     77905     77906     77903     77901     77905     77906
     77904     77901     77905     77906     77908     77907     77911     77912
     77909     77907     77911     77912     77910     77907     77911     77912
     77914     77913     77917     77918     77915     77913     77917     77918
     77916     77913     77917     77918     77920     77919     77923     77924
     77921     77919     77923     77924     77922     77919     77923     77924
     77926     77925     77929     77930     77927     77925     77929     77930
     77928     77925     77929     77930     77932     77931     77935     77936
     77933     77931     77935     77936     77934     77931     77935     77936
     77938     77937     77941     77942     77939     77937     77941     77942
     77940     77937     77941     77942     77944     77943     77947     77948
     77945     77943     77947     77948     77946     77943     77947     77948
     77950     77949     77953     77954     77951     77949     77953     77954
     77952     77949     77953     77954     77956     77955     77959     77960
     77957     77955     77959     77960     77958     77955     77959     77960
     77962     77961     77965     77966     77963     77961     77965     77966
     77964     77961     77965     77966     77968     77967     77971     77972
     77969     77967     77971     77972     77970     77967     77971     77972
     77974     77973     77977     77978     77975     77973     77977     77978
     77976     77973     77977     77978     77980     77979     77983     77984
     77981     77979     77983     77984     77982     77979     77983     77984
     77986     77985     77989     77990     77987     77985     77989     77990
     77988     77985     77989     77990     77992     77991     77995     77996
     77993     77991     77995     77996     77994     77991     77995     77996
     77998     77997     78001     78002     77999     77997     78001     78002
     78000     77997     78001     78002     78004     78003     78007     78008
     78005     78003     78007     78008     78006     78003     78007     78008
     78010     78009     78013     78014     78011     78009     78013     78014
     78012     78009     78013     78014     78016     78015     78019     78020
     78017     78015     78019     78020     78018     78015     78019     78020
     78022     78021     78025     78026     78023     78021     78025     78026
     78024     78021     78025     78026     78028     78027     78031     78032
     78029     78027     78031     78032     78030     78027     78031     78032
     78034     78033     78037     78038     78035     78033     78037     78038
     78036     78033     78037     78038     78040     78039     78043     78044
     78041     78039     78043     78044     78042     78039     78043     78044
     78046     78045     78049     78050     78047     78045     78049     78050
     78048     78045     78049     78050     78052     78051     78055     78056
     78053     78051     78055     78056     78054     78051     78055     78056
     78058     78057     78061     78062     78059     78057     78061     78062
     78060     78057     78061     78062     78064     78063     78067     78068
     78065     78063     78067     78068     78066     78063     78067     78068
     78070     78069     78073     78074     78071     78069     78073     78074
     78072     78069     78073     78074     78076     78075     78079     78080
     78077     78075     78079     78080     78078     78075     78079     78080
     78082     78081     78085     78086     78083     78081     78085     78086
     78084     78081     78085     78086     78088     78087     78091     78092
     78089     78087     78091     78092     78090     78087     78091     78092
     78094     78093     78097     78098     78095     78093     78097     78098
     78096     78093     78097     78098     78100     78099     78103     78104
     78101     78099     78103     78104     78102     78099     78103     78104
     78106     78105     78109     78110     78107     78105     78109     78110
     78108     78105     78109     78110     78112     78111     78115     78116
     78113     78111     78115     78116     78114     78111     78115     78116
     78118     78117     78121     78122     78119     78117     78121     78122
     78120     78117     78121     78122     78124     78123     78127     78128
     78125     78123     78127     78128     78126     78123     78127     78128
     78130     78129     78133     78134     78131     78129     78133     78134
     78132     78129     78133     78134     78136     78135     78139     78140
     78137     78135     78139     78140     78138     78135     78139     78140
     78142     78141     78145     78146     78143     78141     78145     78146
     78144     78141     78145     78146     78148     78147     78151     78152
     78149     78147     78151     78152     78150     78147     78151     78152
     78154     78153     78157     78158     78155     78153     78157     78158
     78156     78153     78157     78158     78160     78159     78163     78164
     78161     78159     78163     78164     78162     78159     78163     78164
     78166     78165     78169     78170     78167     78165     78169     78170
     78168     78165     78169     78170     78172     78171     78175     78176
     78173     78171     78175     78176     78174     78171     78175     78176
     78178     78177     78181     78182     78179     78177     78181     78182
     78180     78177     78181     78182     78184     78183     78187     78188
     78185     78183     78187     78188     78186     78183     78187     78188
     78190     78189     78193     78194     78191     78189     78193     78194
     78192     78189     78193     78194     78196     78195     78199     78200
     78197     78195     78199     78200     78198     78195     78199     78200
     78202     78201     78205     78206     78203     78201     78205     78206
     78204     78201     78205     78206     78208     78207     78211     78212
     78209     78207     78211     78212     78210     78207     78211     78212
     78214     78213     78217     78218     78215     78213     78217     78218
     78216     78213     78217     78218     78220     78219     78223     78224
     78221     78219     78223     78224     78222     78219     78223     78224
     78226     78225     78229     78230     78227     78225     78229     78230
     78228     78225     78229     78230     78232     78231     78235     78236
     78233     78231     78235     78236     78234     78231     78235     78236
     78238     78237     78241     78242     78239     78237     78241     78242
     78240     78237     78241     78242     78244     78243     78247     78248
     78245     78243     78247     78248     78246     78243     78247     78248
     78250     78249     78253     78254     78251     78249     78253     78254
     78252     78249     78253     78254     78256     78255     78259     78260
     78257     78255     78259     78260     78258     78255     78259     78260
     78262     78261     78265     78266     78263     78261     78265     78266
     78264     78261     78265     78266     78268     78267     78271     78272
     78269     78267     78271     78272     78270     78267     78271     78272
     78274     78273     78277     78278     78275     78273     78277     78278
     78276     78273     78277     78278     78280     78279     78283     78284
     78281     78279     78283     78284     78282     78279     78283     78284
     78286     78285     78289     78290     78287     78285     78289     78290
     78288     78285     78289     78290     78292     78291     78295     78296
     78293     78291     78295     78296     78294     78291     78295     78296
     78298     78297     78301     78302     78299     78297     78301     78302
     78300     78297     78301     78302     78304     78303     78307     78308
     78305     78303     78307     78308     78306     78303     78307     78308
     78310     78309     78313     78314     78311     78309     78313     78314
     78312     78309     78313     78314     78316     78315     78319     78320
     78317     78315     78319     78320     78318     78315     78319     78320
     78322     78321     78325     78326     78323     78321     78325     78326
     78324     78321     78325     78326     78328     78327     78331     78332
     78329     78327     78331     78332     78330     78327     78331     78332
     78334     78333     78337     78338     78335     78333     78337     78338
     78336     78333     78337     78338     78340     78339     78343     78344
     78341     78339     78343     78344     78342     78339     78343     78344
     78346     78345     78349     78350     78347     78345     78349     78350
     78348     78345     78349     78350     78352     78351     78355     78356
     78353     78351     78355     78356     78354     78351     78355     78356
     78358     78357     78361     78362     78359     78357     78361     78362
     78360     78357     78361     78362     78364     78363     78367     78368
     78365     78363     78367     78368     78366     78363     78367     78368
     78370     78369     78373     78374     78371     78369     78373     78374
     78372     78369     78373     78374     78376     78375     78379     78380
     78377     78375     78379     78380     78378     78375     78379     78380
     78382     78381     78385     78386     78383     78381     78385     78386
     78384     78381     78385     78386     78388     78387     78391     78392
     78389     78387     78391     78392     78390     78387     78391     78392
     78394     78393     78397     78398     78395     78393     78397     78398
     78396     78393     78397     78398     78400     78399     78403     78404
     78401     78399     78403     78404     78402     78399     78403     78404
     78406     78405     78409     78410     78407     78405     78409     78410
     78408     78405     78409     78410     78412     78411     78415     78416
     78413     78411     78415     78416     78414     78411     78415     78416
     78418     78417     78421     78422     78419     78417     78421     78422
     78420     78417     78421     78422     78424     78423     78427     78428
     78425     78423     78427     78428     78426     78423     78427     78428
     78430     78429     78433     78434     78431     78429     78433     78434
     78432     78429     78433     78434     78436     78435     78439     78440
     78437     78435     78439     78440     78438     78435     78439     78440
     78442     78441     78445     78446     78443     78441     78445     78446
     78444     78441     78445     78446     78448     78447     78451     78452
     78449     78447     78451     78452     78450     78447     78451     78452
     78454     78453     78457     78458     78455     78453     78457     78458
     78456     78453     78457     78458     78460     78459     78463     78464
     78461     78459     78463     78464     78462     78459     78463     78464
     78466     78465     78469     78470     78467     78465     78469     78470
     78468     78465     78469     78470     78472     78471     78475     78476
     78473     78471     78475     78476     78474     78471     78475     78476
     78478     78477     78481     78482     78479     78477     78481     78482
     78480     78477     78481     78482     78484     78483     78487     78488
     78485     78483     78487     78488     78486     78483     78487     78488
     78490     78489     78493     78494     78491     78489     78493     78494
     78492     78489     78493     78494     78496     78495     78499     78500
     78497     78495     78499     78500     78498     78495     78499     78500
     78502     78501     78505     78506     78503     78501     78505     78506
     78504     78501     78505     78506     78508     78507     78511     78512
     78509     78507     78511     78512     78510     78507     78511     78512
     78514     78513     78517     78518     78515     78513     78517     78518
     78516     78513     78517     78518     78520     78519     78523     78524
     78521     78519     78523     78524     78522     78519     78523     78524
     78526     78525     78529     78530     78527     78525     78529     78530
     78528     78525     78529     78530     78532     78531     78535     78536
     78533     78531     78535     78536     78534     78531     78535     78536
     78538     78537     78541     78542     78539     78537     78541     78542
     78540     78537     78541     78542     78544     78543     78547     78548
     78545     78543     78547     78548     78546     78543     78547     78548
     78550     78549     78553     78554     78551     78549     78553     78554
     78552     78549     78553     78554     78556     78555     78559     78560
     78557     78555     78559     78560     78558     78555     78559     78560
     78562     78561     78565     78566     78563     78561     78565     78566
     78564     78561     78565     78566     78568     78567     78571     78572
     78569     78567     78571     78572     78570     78567     78571     78572
     78574     78573     78577     78578     78575     78573     78577     78578
     78576     78573     78577     78578     78580     78579     78583     78584
     78581     78579     78583     78584     78582     78579     78583     78584
     78586     78585     78589     78590     78587     78585     78589     78590
     78588     78585     78589     78590     78592     78591     78595     78596
     78593     78591     78595     78596     78594     78591     78595     78596
     78598     78597     78601     78602     78599     78597     78601     78602
     78600     78597     78601     78602     78604     78603     78607     78608
     78605     78603     78607     78608     78606     78603     78607     78608
     78610     78609     78613     78614     78611     78609     78613     78614
     78612     78609     78613     78614     78616     78615     78619     78620
     78617     78615     78619     78620     78618     78615     78619     78620
     78622     78621     78625     78626     78623     78621     78625     78626
     78624     78621     78625     78626     78628     78627     78631     78632
     78629     78627     78631     78632     78630     78627     78631     78632
     78634     78633     78637     78638     78635     78633     78637     78638
     78636     78633     78637     78638     78640     78639     78643     78644
     78641     78639     78643     78644     78642     78639     78643     78644
     78646     78645     78649     78650     78647     78645     78649     78650
     78648     78645     78649     78650     78652     78651     78655     78656
     78653     78651     78655     78656     78654     78651     78655     78656
     78658     78657     78661     78662     78659     78657     78661     78662
     78660     78657     78661     78662     78664     78663     78667     78668
     78665     78663     78667     78668     78666     78663     78667     78668
     78670     78669     78673     78674     78671     78669     78673     78674
     78672     78669     78673     78674     78676     78675     78679     78680
     78677     78675     78679     78680     78678     78675     78679     78680
     78682     78681     78685     78686     78683     78681     78685     78686
     78684     78681     78685     78686     78688     78687     78691     78692
     78689     78687     78691     78692     78690     78687     78691     78692
     78694     78693     78697     78698     78695     78693     78697     78698
     78696     78693     78697     78698     78700     78699     78703     78704
     78701     78699     78703     78704     78702     78699     78703     78704
     78706     78705     78709     78710     78707     78705     78709     78710
     78708     78705     78709     78710     78712     78711     78715     78716
     78713     78711     78715     78716     78714     78711     78715     78716
     78718     78717     78721     78722     78719     78717     78721     78722
     78720     78717     78721     78722     78724     78723     78727     78728
     78725     78723     78727     78728     78726     78723     78727     78728
     78730     78729     78733     78734     78731     78729     78733     78734
     78732     78729     78733     78734     78736     78735     78739     78740
     78737     78735     78739     78740     78738     78735     78739     78740
     78742     78741     78745     78746     78743     78741     78745     78746
     78744     78741     78745     78746     78748     78747     78751     78752
     78749     78747     78751     78752     78750     78747     78751     78752
     78754     78753     78757     78758     78755     78753     78757     78758
     78756     78753     78757     78758     78760     78759     78763     78764
     78761     78759     78763     78764     78762     78759     78763     78764
     78766     78765     78769     78770     78767     78765     78769     78770
     78768     78765     78769     78770     78772     78771     78775     78776
     78773     78771     78775     78776     78774     78771     78775     78776
     78778     78777     78781     78782     78779     78777     78781     78782
     78780     78777     78781     78782     78784     78783     78787     78788
     78785     78783     78787     78788     78786     78783     78787     78788
     78790     78789     78793     78794     78791     78789     78793     78794
     78792     78789     78793     78794     78796     78795     78799     78800
     78797     78795     78799     78800     78798     78795     78799     78800
     78802     78801     78805     78806     78803     78801     78805     78806
     78804     78801     78805     78806     78808     78807     78811     78812
     78809     78807     78811     78812     78810     78807     78811     78812
     78814     78813     78817     78818     78815     78813     78817     78818
     78816     78813     78817     78818     78820     78819     78823     78824
     78821     78819     78823     78824     78822     78819     78823     78824
     78826     78825     78829     78830     78827     78825     78829     78830
     78828     78825     78829     78830     78832     78831     78835     78836
     78833     78831     78835     78836     78834     78831     78835     78836
     78838     78837     78841     78842     78839     78837     78841     78842
     78840     78837     78841     78842     78844     78843     78847     78848
     78845     78843     78847     78848     78846     78843     78847     78848
     78850     78849     78853     78854     78851     78849     78853     78854
     78852     78849     78853     78854     78856     78855     78859     78860
     78857     78855     78859     78860     78858     78855     78859     78860
     78862     78861     78865     78866     78863     78861     78865     78866
     78864     78861     78865     78866     78868     78867     78871     78872
     78869     78867     78871     78872     78870     78867     78871     78872
     78874     78873     78877     78878     78875     78873     78877     78878
     78876     78873     78877     78878     78880     78879     78883     78884
     78881     78879     78883     78884     78882     78879     78883     78884
     78886     78885     78889     78890     78887     78885     78889     78890
     78888     78885     78889     78890     78892     78891     78895     78896
     78893     78891     78895     78896     78894     78891     78895     78896
     78898     78897     78901     78902     78899     78897     78901     78902
     78900     78897     78901     78902     78904     78903     78907     78908
     78905     78903     78907     78908     78906     78903     78907     78908
     78910     78909     78913     78914     78911     78909     78913     78914
     78912     78909     78913     78914     78916     78915     78919     78920
     78917     78915     78919     78920     78918     78915     78919     78920
     78922     78921     78925     78926     78923     78921     78925     78926
     78924     78921     78925     78926     78928     78927     78931     78932
     78929     78927     78931     78932     78930     78927     78931     78932
     78934     78933     78937     78938     78935     78933     78937     78938
     78936     78933     78937     78938     78940     78939     78943     78944
     78941     78939     78943     78944     78942     78939     78943     78944
     78946     78945     78949     78950     78947     78945     78949     78950
     78948     78945     78949     78950     78952     78951     78955     78956
     78953     78951     78955     78956     78954     78951     78955     78956
     78958     78957     78961     78962     78959     78957     78961     78962
     78960     78957     78961     78962     78964     78963     78967     78968
     78965     78963     78967     78968     78966     78963     78967     78968
     78970     78969     78973     78974     78971     78969     78973     78974
     78972     78969     78973     78974     78976     78975     78979     78980
     78977     78975     78979     78980     78978     78975     78979     78980
     78982     78981     78985     78986     78983     78981     78985     78986
     78984     78981     78985     78986     78988     78987     78991     78992
     78989     78987     78991     78992     78990     78987     78991     78992
     78994     78993     78997     78998     78995     78993     78997     78998
     78996     78993     78997     78998     79000     78999     79003     79004
     79001     78999     79003     79004     79002     78999     79003     79004
     79006     79005     79009     79010     79007     79005     79009     79010
     79008     79005     79009     79010     79012     79011     79015     79016
     79013     79011     79015     79016     79014     79011     79015     79016
     79018     79017     79021     79022     79019     79017     79021     79022
     79020     79017     79021     79022     79024     79023     79027     79028
     79025     79023     79027     79028     79026     79023     79027     79028
     79030     79029     79033     79034     79031     79029     79033     79034
     79032     79029     79033     79034     79036     79035     79039     79040
     79037     79035     79039     79040     79038     79035     79039     79040
     79042     79041     79045     79046     79043     79041     79045     79046
     79044     79041     79045     79046     79048     79047     79051     79052
     79049     79047     79051     79052     79050     79047     79051     79052
     79054     79053     79057     79058     79055     79053     79057     79058
     79056     79053     79057     79058     79060     79059     79063     79064
     79061     79059     79063     79064     79062     79059     79063     79064
     79066     79065     79069     79070     79067     79065     79069     79070
     79068     79065     79069     79070     79072     79071     79075     79076
     79073     79071     79075     79076     79074     79071     79075     79076
     79078     79077     79081     79082     79079     79077     79081     79082
     79080     79077     79081     79082     79084     79083     79087     79088
     79085     79083     79087     79088     79086     79083     79087     79088
     79090     79089     79093     79094     79091     79089     79093     79094
     79092     79089     79093     79094     79096     79095     79099     79100
     79097     79095     79099     79100     79098     79095     79099     79100
     79102     79101     79105     79106     79103     79101     79105     79106
     79104     79101     79105     79106     79108     79107     79111     79112
     79109     79107     79111     79112     79110     79107     79111     79112
     79114     79113     79117     79118     79115     79113     79117     79118
     79116     79113     79117     79118     79120     79119     79123     79124
     79121     79119     79123     79124     79122     79119     79123     79124
     79126     79125     79129     79130     79127     79125     79129     79130
     79128     79125     79129     79130     79132     79131     79135     79136
     79133     79131     79135     79136     79134     79131     79135     79136
     79138     79137     79141     79142     79139     79137     79141     79142
     79140     79137     79141     79142     79144     79143     79147     79148
     79145     79143     79147     79148     79146     79143     79147     79148
     79150     79149     79153     79154     79151     79149     79153     79154
     79152     79149     79153     79154     79156     79155     79159     79160
     79157     79155     79159     79160     79158     79155     79159     79160
     79162     79161     79165     79166     79163     79161     79165     79166
     79164     79161     79165     79166     79168     79167     79171     79172
     79169     79167     79171     79172     79170     79167     79171     79172
     79174     79173     79177     79178     79175     79173     79177     79178
     79176     79173     79177     79178     79180     79179     79183     79184
     79181     79179     79183     79184     79182     79179     79183     79184
     79186     79185     79189     79190     79187     79185     79189     79190
     79188     79185     79189     79190     79192     79191     79195     79196
     79193     79191     79195     79196     79194     79191     79195     79196
     79198     79197     79201     79202     79199     79197     79201     79202
     79200     79197     79201     79202     79204     79203     79207     79208
     79205     79203     79207     79208     79206     79203     79207     79208
     79210     79209     79213     79214     79211     79209     79213     79214
     79212     79209     79213     79214     79216     79215     79219     79220
     79217     79215     79219     79220     79218     79215     79219     79220
     79222     79221     79225     79226     79223     79221     79225     79226
     79224     79221     79225     79226     79228     79227     79231     79232
     79229     79227     79231     79232     79230     79227     79231     79232
     79234     79233     79237     79238     79235     79233     79237     79238
     79236     79233     79237     79238     79240     79239     79243     79244
     79241     79239     79243     79244     79242     79239     79243     79244
     79246     79245     79249     79250     79247     79245     79249     79250
     79248     79245     79249     79250     79252     79251     79255     79256
     79253     79251     79255     79256     79254     79251     79255     79256
     79258     79257     79261     79262     79259     79257     79261     79262
     79260     79257     79261     79262     79264     79263     79267     79268
     79265     79263     79267     79268     79266     79263     79267     79268
     79270     79269     79273     79274     79271     79269     79273     79274
     79272     79269     79273     79274     79276     79275     79279     79280
     79277     79275     79279     79280     79278     79275     79279     79280
     79282     79281     79285     79286     79283     79281     79285     79286
     79284     79281     79285     79286     79288     79287     79291     79292
     79289     79287     79291     79292     79290     79287     79291     79292
     79294     79293     79297     79298     79295     79293     79297     79298
     79296     79293     79297     79298     79300     79299     79303     79304
     79301     79299     79303     79304     79302     79299     79303     79304
     79306     79305     79309     79310     79307     79305     79309     79310
     79308     79305     79309     79310     79312     79311     79315     79316
     79313     79311     79315     79316     79314     79311     79315     79316
     79318     79317     79321     79322     79319     79317     79321     79322
     79320     79317     79321     79322     79324     79323     79327     79328
     79325     79323     79327     79328     79326     79323     79327     79328
     79330     79329     79333     79334     79331     79329     79333     79334
     79332     79329     79333     79334     79336     79335     79339     79340
     79337     79335     79339     79340     79338     79335     79339     79340
     79342     79341     79345     79346     79343     79341     79345     79346
     79344     79341     79345     79346     79348     79347     79351     79352
     79349     79347     79351     79352     79350     79347     79351     79352
     79354     79353     79357     79358     79355     79353     79357     79358
     79356     79353     79357     79358     79360     79359     79363     79364
     79361     79359     79363     79364     79362     79359     79363     79364
     79366     79365     79369     79370     79367     79365     79369     79370
     79368     79365     79369     79370     79372     79371     79375     79376
     79373     79371     79375     79376     79374     79371     79375     79376
     79378     79377     79381     79382     79379     79377     79381     79382
     79380     79377     79381     79382     79384     79383     79387     79388
     79385     79383     79387     79388     79386     79383     79387     79388
     79390     79389     79393     79394     79391     79389     79393     79394
     79392     79389     79393     79394     79396     79395     79399     79400
     79397     79395     79399     79400     79398     79395     79399     79400
     79402     79401     79405     79406     79403     79401     79405     79406
     79404     79401     79405     79406     79408     79407     79411     79412
     79409     79407     79411     79412     79410     79407     79411     79412
     79414     79413     79417     79418     79415     79413     79417     79418
     79416     79413     79417     79418     79420     79419     79423     79424
     79421     79419     79423     79424     79422     79419     79423     79424
     79426     79425     79429     79430     79427     79425     79429     79430
     79428     79425     79429     79430     79432     79431     79435     79436
     79433     79431     79435     79436     79434     79431     79435     79436
     79438     79437     79441     79442     79439     79437     79441     79442
     79440     79437     79441     79442     79444     79443     79447     79448
     79445     79443     79447     79448     79446     79443     79447     79448
     79450     79449     79453     79454     79451     79449     79453     79454
     79452     79449     79453     79454     79456     79455     79459     79460
     79457     79455     79459     79460     79458     79455     79459     79460
     79462     79461     79465     79466     79463     79461     79465     79466
     79464     79461     79465     79466     79468     79467     79471     79472
     79469     79467     79471     79472     79470     79467     79471     79472
     79474     79473     79477     79478     79475     79473     79477     79478
     79476     79473     79477     79478     79480     79479     79483     79484
     79481     79479     79483     79484     79482     79479     79483     79484
     79486     79485     79489     79490     79487     79485     79489     79490
     79488     79485     79489     79490     79492     79491     79495     79496
     79493     79491     79495     79496     79494     79491     79495     79496
     79498     79497     79501     79502     79499     79497     79501     79502
     79500     79497     79501     79502     79504     79503     79507     79508
     79505     79503     79507     79508     79506     79503     79507     79508
     79510     79509     79513     79514     79511     79509     79513     79514
     79512     79509     79513     79514     79516     79515     79519     79520
     79517     79515     79519     79520     79518     79515     79519     79520
     79522     79521     79525     79526     79523     79521     79525     79526
     79524     79521     79525     79526     79528     79527     79531     79532
     79529     79527     79531     79532     79530     79527     79531     79532
     79534     79533     79537     79538     79535     79533     79537     79538
     79536     79533     79537     79538     79540     79539     79543     79544
     79541     79539     79543     79544     79542     79539     79543     79544
     79546     79545     79549     79550     79547     79545     79549     79550
     79548     79545     79549     79550     79552     79551     79555     79556
     79553     79551     79555     79556     79554     79551     79555     79556
     79558     79557     79561     79562     79559     79557     79561     79562
     79560     79557     79561     79562     79564     79563     79567     79568
     79565     79563     79567     79568     79566     79563     79567     79568
     79570     79569     79573     79574     79571     79569     79573     79574
     79572     79569     79573     79574     79576     79575     79579     79580
     79577     79575     79579     79580     79578     79575     79579     79580
     79582     79581     79585     79586     79583     79581     79585     79586
     79584     79581     79585     79586     79588     79587     79591     79592
     79589     79587     79591     79592     79590     79587     79591     79592
     79594     79593     79597     79598     79595     79593     79597     79598
     79596     79593     79597     79598     79600     79599     79603     79604
     79601     79599     79603     79604     79602     79599     79603     79604
     79606     79605     79609     79610     79607     79605     79609     79610
     79608     79605     79609     79610     79612     79611     79615     79616
     79613     79611     79615     79616     79614     79611     79615     79616
     79618     79617     79621     79622     79619     79617     79621     79622
     79620     79617     79621     79622     79624     79623     79627     79628
     79625     79623     79627     79628     79626     79623     79627     79628
     79630     79629     79633     79634     79631     79629     79633     79634
     79632     79629     79633     79634     79636     79635     79639     79640
     79637     79635     79639     79640     79638     79635     79639     79640
     79642     79641     79645     79646     79643     79641     79645     79646
     79644     79641     79645     79646     79648     79647     79651     79652
     79649     79647     79651     79652     79650     79647     79651     79652
     79654     79653     79657     79658     79655     79653     79657     79658
     79656     79653     79657     79658     79660     79659     79663     79664
     79661     79659     79663     79664     79662     79659     79663     79664
     79666     79665     79669     79670     79667     79665     79669     79670
     79668     79665     79669     79670     79672     79671     79675     79676
     79673     79671     79675     79676     79674     79671     79675     79676
     79678     79677     79681     79682     79679     79677     79681     79682
     79680     79677     79681     79682     79684     79683     79687     79688
     79685     79683     79687     79688     79686     79683     79687     79688
     79690     79689     79693     79694     79691     79689     79693     79694
     79692     79689     79693     79694     79696     79695     79699     79700
     79697     79695     79699     79700     79698     79695     79699     79700
     79702     79701     79705     79706     79703     79701     79705     79706
     79704     79701     79705     79706     79708     79707     79711     79712
     79709     79707     79711     79712     79710     79707     79711     79712
     79714     79713     79717     79718     79715     79713     79717     79718
     79716     79713     79717     79718     79720     79719     79723     79724
     79721     79719     79723     79724     79722     79719     79723     79724
     79726     79725     79729     79730     79727     79725     79729     79730
     79728     79725     79729     79730     79732     79731     79735     79736
     79733     79731     79735     79736     79734     79731     79735     79736
     79738     79737     79741     79742     79739     79737     79741     79742
     79740     79737     79741     79742     79744     79743     79747     79748
     79745     79743     79747     79748     79746     79743     79747     79748
     79750     79749     79753     79754     79751     79749     79753     79754
     79752     79749     79753     79754     79756     79755     79759     79760
     79757     79755     79759     79760     79758     79755     79759     79760
     79762     79761     79765     79766     79763     79761     79765     79766
     79764     79761     79765     79766     79768     79767     79771     79772
     79769     79767     79771     79772     79770     79767     79771     79772
     79774     79773     79777     79778     79775     79773     79777     79778
     79776     79773     79777     79778     79780     79779     79783     79784
     79781     79779     79783     79784     79782     79779     79783     79784
     79786     79785     79789     79790     79787     79785     79789     79790
     79788     79785     79789     79790     79792     79791     79795     79796
     79793     79791     79795     79796     79794     79791     79795     79796
     79798     79797     79801     79802     79799     79797     79801     79802
     79800     79797     79801     79802     79804     79803     79807     79808
     79805     79803     79807     79808     79806     79803     79807     79808
     79810     79809     79813     79814     79811     79809     79813     79814
     79812     79809     79813     79814     79816     79815     79819     79820
     79817     79815     79819     79820     79818     79815     79819     79820
     79822     79821     79825     79826     79823     79821     79825     79826
     79824     79821     79825     79826     79828     79827     79831     79832
     79829     79827     79831     79832     79830     79827     79831     79832
     79834     79833     79837     79838     79835     79833     79837     79838
     79836     79833     79837     79838     79840     79839     79843     79844
     79841     79839     79843     79844     79842     79839     79843     79844
     79846     79845     79849     79850     79847     79845     79849     79850
     79848     79845     79849     79850     79852     79851     79855     79856
     79853     79851     79855     79856     79854     79851     79855     79856
     79858     79857     79861     79862     79859     79857     79861     79862
     79860     79857     79861     79862     79864     79863     79867     79868
     79865     79863     79867     79868     79866     79863     79867     79868
     79870     79869     79873     79874     79871     79869     79873     79874
     79872     79869     79873     79874     79876     79875     79879     79880
     79877     79875     79879     79880     79878     79875     79879     79880
     79882     79881     79885     79886     79883     79881     79885     79886
     79884     79881     79885     79886     79888     79887     79891     79892
     79889     79887     79891     79892     79890     79887     79891     79892
     79894     79893     79897     79898     79895     79893     79897     79898
     79896     79893     79897     79898     79900     79899     79903     79904
     79901     79899     79903     79904     79902     79899     79903     79904
     79906     79905     79909     79910     79907     79905     79909     79910
     79908     79905     79909     79910     79912     79911     79915     79916
     79913     79911     79915     79916     79914     79911     79915     79916
     79918     79917     79921     79922     79919     79917     79921     79922
     79920     79917     79921     79922     79924     79923     79927     79928
     79925     79923     79927     79928     79926     79923     79927     79928
     79930     79929     79933     79934     79931     79929     79933     79934
     79932     79929     79933     79934     79936     79935     79939     79940
     79937     79935     79939     79940     79938     79935     79939     79940
     79942     79941     79945     79946     79943     79941     79945     79946
     79944     79941     79945     79946     79948     79947     79951     79952
     79949     79947     79951     79952     79950     79947     79951     79952
     79954     79953     79957     79958     79955     79953     79957     79958
     79956     79953     79957     79958     79960     79959     79963     79964
     79961     79959     79963     79964     79962     79959     79963     79964
     79966     79965     79969     79970     79967     79965     79969     79970
     79968     79965     79969     79970     79972     79971     79975     79976
     79973     79971     79975     79976     79974     79971     79975     79976
     79978     79977     79981     79982     79979     79977     79981     79982
     79980     79977     79981     79982     79984     79983     79987     79988
     79985     79983     79987     79988     79986     79983     79987     79988
     79990     79989     79993     79994     79991     79989     79993     79994
     79992     79989     79993     79994     79996     79995     79999     80000
     79997     79995     79999     80000     79998     79995     79999     80000
     80002     80001     80005     80006     80003     80001     80005     80006
     80004     80001     80005     80006     80008     80007     80011     80012
     80009     80007     80011     80012     80010     80007     80011     80012
     80014     80013     80017     80018     80015     80013     80017     80018
     80016     80013     80017     80018     80020     80019     80023     80024
     80021     80019     80023     80024     80022     80019     80023     80024
     80026     80025     80029     80030     80027     80025     80029     80030
     80028     80025     80029     80030     80032     80031     80035     80036
     80033     80031     80035     80036     80034     80031     80035     80036
     80038     80037     80041     80042     80039     80037     80041     80042
     80040     80037     80041     80042     80044     80043     80047     80048
     80045     80043     80047     80048     80046     80043     80047     80048
     80050     80049     80053     80054     80051     80049     80053     80054
     80052     80049     80053     80054     80056     80055     80059     80060
     80057     80055     80059     80060     80058     80055     80059     80060
     80062     80061     80065     80066     80063     80061     80065     80066
     80064     80061     80065     80066     80068     80067     80071     80072
     80069     80067     80071     80072     80070     80067     80071     80072
     80074     80073     80077     80078     80075     80073     80077     80078
     80076     80073     80077     80078     80080     80079     80083     80084
     80081     80079     80083     80084     80082     80079     80083     80084
     80086     80085     80089     80090     80087     80085     80089     80090
     80088     80085     80089     80090     80092     80091     80095     80096
     80093     80091     80095     80096     80094     80091     80095     80096
     80098     80097     80101     80102     80099     80097     80101     80102
     80100     80097     80101     80102     80104     80103     80107     80108
     80105     80103     80107     80108     80106     80103     80107     80108
     80110     80109     80113     80114     80111     80109     80113     80114
     80112     80109     80113     80114     80116     80115     80119     80120
     80117     80115     80119     80120     80118     80115     80119     80120
     80122     80121     80125     80126     80123     80121     80125     80126
     80124     80121     80125     80126     80128     80127     80131     80132
     80129     80127     80131     80132     80130     80127     80131     80132
     80134     80133     80137     80138     80135     80133     80137     80138
     80136     80133     80137     80138     80140     80139     80143     80144
     80141     80139     80143     80144     80142     80139     80143     80144
     80146     80145     80149     80150     80147     80145     80149     80150
     80148     80145     80149     80150     80152     80151     80155     80156
     80153     80151     80155     80156     80154     80151     80155     80156
     80158     80157     80161     80162     80159     80157     80161     80162
     80160     80157     80161     80162     80164     80163     80167     80168
     80165     80163     80167     80168     80166     80163     80167     80168
     80170     80169     80173     80174     80171     80169     80173     80174
     80172     80169     80173     80174     80176     80175     80179     80180
     80177     80175     80179     80180     80178     80175     80179     80180
     80182     80181     80185     80186     80183     80181     80185     80186
     80184     80181     80185     80186     80188     80187     80191     80192
     80189     80187     80191     80192     80190     80187     80191     80192
     80194     80193     80197     80198     80195     80193     80197     80198
     80196     80193     80197     80198     80200     80199     80203     80204
     80201     80199     80203     80204     80202     80199     80203     80204
     80206     80205     80209     80210     80207     80205     80209     80210
     80208     80205     80209     80210     80212     80211     80215     80216
     80213     80211     80215     80216     80214     80211     80215     80216
     80218     80217     80221     80222     80219     80217     80221     80222
     80220     80217     80221     80222     80224     80223     80227     80228
     80225     80223     80227     80228     80226     80223     80227     80228
     80230     80229     80233     80234     80231     80229     80233     80234
     80232     80229     80233     80234     80236     80235     80239     80240
     80237     80235     80239     80240     80238     80235     80239     80240
     80242     80241     80245     80246     80243     80241     80245     80246
     80244     80241     80245     80246     80248     80247     80251     80252
     80249     80247     80251     80252     80250     80247     80251     80252
     80254     80253     80257     80258     80255     80253     80257     80258
     80256     80253     80257     80258     80260     80259     80263     80264
     80261     80259     80263     80264     80262     80259     80263     80264
     80266     80265     80269     80270     80267     80265     80269     80270
     80268     80265     80269     80270     80272     80271     80275     80276
     80273     80271     80275     80276     80274     80271     80275     80276
     80278     80277     80281     80282     80279     80277     80281     80282
     80280     80277     80281     80282     80284     80283     80287     80288
     80285     80283     80287     80288     80286     80283     80287     80288
     80290     80289     80293     80294     80291     80289     80293     80294
     80292     80289     80293     80294     80296     80295     80299     80300
     80297     80295     80299     80300     80298     80295     80299     80300
     80302     80301     80305     80306     80303     80301     80305     80306
     80304     80301     80305     80306     80308     80307     80311     80312
     80309     80307     80311     80312     80310     80307     80311     80312
     80314     80313     80317     80318     80315     80313     80317     80318
     80316     80313     80317     80318     80320     80319     80323     80324
     80321     80319     80323     80324     80322     80319     80323     80324
     80326     80325     80329     80330     80327     80325     80329     80330
     80328     80325     80329     80330     80332     80331     80335     80336
     80333     80331     80335     80336     80334     80331     80335     80336
     80338     80337     80341     80342     80339     80337     80341     80342
     80340     80337     80341     80342     80344     80343     80347     80348
     80345     80343     80347     80348     80346     80343     80347     80348
     80350     80349     80353     80354     80351     80349     80353     80354
     80352     80349     80353     80354     80356     80355     80359     80360
     80357     80355     80359     80360     80358     80355     80359     80360
     80362     80361     80365     80366     80363     80361     80365     80366
     80364     80361     80365     80366     80368     80367     80371     80372
     80369     80367     80371     80372     80370     80367     80371     80372
     80374     80373     80377     80378     80375     80373     80377     80378
     80376     80373     80377     80378     80380     80379     80383     80384
     80381     80379     80383     80384     80382     80379     80383     80384
     80386     80385     80389     80390     80387     80385     80389     80390
     80388     80385     80389     80390     80392     80391     80395     80396
     80393     80391     80395     80396     80394     80391     80395     80396
     80398     80397     80401     80402     80399     80397     80401     80402
     80400     80397     80401     80402     80404     80403     80407     80408
     80405     80403     80407     80408     80406     80403     80407     80408
     80410     80409     80413     80414     80411     80409     80413     80414
     80412     80409     80413     80414     80416     80415     80419     80420
     80417     80415     80419     80420     80418     80415     80419     80420
     80422     80421     80425     80426     80423     80421     80425     80426
     80424     80421     80425     80426     80428     80427     80431     80432
     80429     80427     80431     80432     80430     80427     80431     80432
     80434     80433     80437     80438     80435     80433     80437     80438
     80436     80433     80437     80438     80440     80439     80443     80444
     80441     80439     80443     80444     80442     80439     80443     80444
     80446     80445     80449     80450     80447     80445     80449     80450
     80448     80445     80449     80450     80452     80451     80455     80456
     80453     80451     80455     80456     80454     80451     80455     80456
     80458     80457     80461     80462     80459     80457     80461     80462
     80460     80457     80461     80462     80464     80463     80467     80468
     80465     80463     80467     80468     80466     80463     80467     80468
     80470     80469     80473     80474     80471     80469     80473     80474
     80472     80469     80473     80474     80476     80475     80479     80480
     80477     80475     80479     80480     80478     80475     80479     80480
     80482     80481     80485     80486     80483     80481     80485     80486
     80484     80481     80485     80486     80488     80487     80491     80492
     80489     80487     80491     80492     80490     80487     80491     80492
     80494     80493     80497     80498     80495     80493     80497     80498
     80496     80493     80497     80498     80500     80499     80503     80504
     80501     80499     80503     80504     80502     80499     80503     80504
     80506     80505     80509     80510     80507     80505     80509     80510
     80508     80505     80509     80510     80512     80511     80515     80516
     80513     80511     80515     80516     80514     80511     80515     80516
     80518     80517     80521     80522     80519     80517     80521     80522
     80520     80517     80521     80522     80524     80523     80527     80528
     80525     80523     80527     80528     80526     80523     80527     80528
     80530     80529     80533     80534     80531     80529     80533     80534
     80532     80529     80533     80534     80536     80535     80539     80540
     80537     80535     80539     80540     80538     80535     80539     80540
     80542     80541     80545     80546     80543     80541     80545     80546
     80544     80541     80545     80546     80548     80547     80551     80552
     80549     80547     80551     80552     80550     80547     80551     80552
     80554     80553     80557     80558     80555     80553     80557     80558
     80556     80553     80557     80558     80560     80559     80563     80564
     80561     80559     80563     80564     80562     80559     80563     80564
     80566     80565     80569     80570     80567     80565     80569     80570
     80568     80565     80569     80570     80572     80571     80575     80576
     80573     80571     80575     80576     80574     80571     80575     80576
     80578     80577     80581     80582     80579     80577     80581     80582
     80580     80577     80581     80582     80584     80583     80587     80588
     80585     80583     80587     80588     80586     80583     80587     80588
     80590     80589     80593     80594     80591     80589     80593     80594
     80592     80589     80593     80594     80596     80595     80599     80600
     80597     80595     80599     80600     80598     80595     80599     80600
     80602     80601     80605     80606     80603     80601     80605     80606
     80604     80601     80605     80606     80608     80607     80611     80612
     80609     80607     80611     80612     80610     80607     80611     80612
     80614     80613     80617     80618     80615     80613     80617     80618
     80616     80613     80617     80618     80620     80619     80623     80624
     80621     80619     80623     80624     80622     80619     80623     80624
     80626     80625     80629     80630     80627     80625     80629     80630
     80628     80625     80629     80630     80632     80631     80635     80636
     80633     80631     80635     80636     80634     80631     80635     80636
     80638     80637     80641     80642     80639     80637     80641     80642
     80640     80637     80641     80642     80644     80643     80647     80648
     80645     80643     80647     80648     80646     80643     80647     80648
     80650     80649     80653     80654     80651     80649     80653     80654
     80652     80649     80653     80654     80656     80655     80659     80660
     80657     80655     80659     80660     80658     80655     80659     80660
     80662     80661     80665     80666     80663     80661     80665     80666
     80664     80661     80665     80666     80668     80667     80671     80672
     80669     80667     80671     80672     80670     80667     80671     80672
     80674     80673     80677     80678     80675     80673     80677     80678
     80676     80673     80677     80678     80680     80679     80683     80684
     80681     80679     80683     80684     80682     80679     80683     80684
     80686     80685     80689     80690     80687     80685     80689     80690
     80688     80685     80689     80690     80692     80691     80695     80696
     80693     80691     80695     80696     80694     80691     80695     80696
     80698     80697     80701     80702     80699     80697     80701     80702
     80700     80697     80701     80702     80704     80703     80707     80708
     80705     80703     80707     80708     80706     80703     80707     80708
     80710     80709     80713     80714     80711     80709     80713     80714
     80712     80709     80713     80714     80716     80715     80719     80720
     80717     80715     80719     80720     80718     80715     80719     80720
     80722     80721     80725     80726     80723     80721     80725     80726
     80724     80721     80725     80726     80728     80727     80731     80732
     80729     80727     80731     80732     80730     80727     80731     80732
     80734     80733     80737     80738     80735     80733     80737     80738
     80736     80733     80737     80738     80740     80739     80743     80744
     80741     80739     80743     80744     80742     80739     80743     80744
     80746     80745     80749     80750     80747     80745     80749     80750
     80748     80745     80749     80750     80752     80751     80755     80756
     80753     80751     80755     80756     80754     80751     80755     80756
     80758     80757     80761     80762     80759     80757     80761     80762
     80760     80757     80761     80762     80764     80763     80767     80768
     80765     80763     80767     80768     80766     80763     80767     80768
     80770     80769     80773     80774     80771     80769     80773     80774
     80772     80769     80773     80774     80776     80775     80779     80780
     80777     80775     80779     80780     80778     80775     80779     80780
     80782     80781     80785     80786     80783     80781     80785     80786
     80784     80781     80785     80786     80788     80787     80791     80792
     80789     80787     80791     80792     80790     80787     80791     80792
     80794     80793     80797     80798     80795     80793     80797     80798
     80796     80793     80797     80798     80800     80799     80803     80804
     80801     80799     80803     80804     80802     80799     80803     80804
     80806     80805     80809     80810     80807     80805     80809     80810
     80808     80805     80809     80810     80812     80811     80815     80816
     80813     80811     80815     80816     80814     80811     80815     80816
     80818     80817     80821     80822     80819     80817     80821     80822
     80820     80817     80821     80822     80824     80823     80827     80828
     80825     80823     80827     80828     80826     80823     80827     80828
     80830     80829     80833     80834     80831     80829     80833     80834
     80832     80829     80833     80834     80836     80835     80839     80840
     80837     80835     80839     80840     80838     80835     80839     80840
     80842     80841     80845     80846     80843     80841     80845     80846
     80844     80841     80845     80846     80848     80847     80851     80852
     80849     80847     80851     80852     80850     80847     80851     80852
     80854     80853     80857     80858     80855     80853     80857     80858
     80856     80853     80857     80858     80860     80859     80863     80864
     80861     80859     80863     80864     80862     80859     80863     80864
     80866     80865     80869     80870     80867     80865     80869     80870
     80868     80865     80869     80870     80872     80871     80875     80876
     80873     80871     80875     80876     80874     80871     80875     80876
     80878     80877     80881     80882     80879     80877     80881     80882
     80880     80877     80881     80882     80884     80883     80887     80888
     80885     80883     80887     80888     80886     80883     80887     80888
     80890     80889     80893     80894     80891     80889     80893     80894
     80892     80889     80893     80894     80896     80895     80899     80900
     80897     80895     80899     80900     80898     80895     80899     80900
     80902     80901     80905     80906     80903     80901     80905     80906
     80904     80901     80905     80906     80908     80907     80911     80912
     80909     80907     80911     80912     80910     80907     80911     80912
     80914     80913     80917     80918     80915     80913     80917     80918
     80916     80913     80917     80918     80920     80919     80923     80924
     80921     80919     80923     80924     80922     80919     80923     80924
     80926     80925     80929     80930     80927     80925     80929     80930
     80928     80925     80929     80930     80932     80931     80935     80936
     80933     80931     80935     80936     80934     80931     80935     80936
     80938     80937     80941     80942     80939     80937     80941     80942
     80940     80937     80941     80942     80944     80943     80947     80948
     80945     80943     80947     80948     80946     80943     80947     80948
     80950     80949     80953     80954     80951     80949     80953     80954
     80952     80949     80953     80954     80956     80955     80959     80960
     80957     80955     80959     80960     80958     80955     80959     80960
     80962     80961     80965     80966     80963     80961     80965     80966
     80964     80961     80965     80966     80968     80967     80971     80972
     80969     80967     80971     80972     80970     80967     80971     80972
     80974     80973     80977     80978     80975     80973     80977     80978
     80976     80973     80977     80978     80980     80979     80983     80984
     80981     80979     80983     80984     80982     80979     80983     80984
     80986     80985     80989     80990     80987     80985     80989     80990
     80988     80985     80989     80990     80992     80991     80995     80996
     80993     80991     80995     80996     80994     80991     80995     80996
     80998     80997     81001     81002     80999     80997     81001     81002
     81000     80997     81001     81002     81004     81003     81007     81008
     81005     81003     81007     81008     81006     81003     81007     81008
     81010     81009     81013     81014     81011     81009     81013     81014
     81012     81009     81013     81014     81016     81015     81019     81020
     81017     81015     81019     81020     81018     81015     81019     81020
     81022     81021     81025     81026     81023     81021     81025     81026
     81024     81021     81025     81026     81028     81027     81031     81032
     81029     81027     81031     81032     81030     81027     81031     81032
     81034     81033     81037     81038     81035     81033     81037     81038
     81036     81033     81037     81038     81040     81039     81043     81044
     81041     81039     81043     81044     81042     81039     81043     81044
     81046     81045     81049     81050     81047     81045     81049     81050
     81048     81045     81049     81050     81052     81051     81055     81056
     81053     81051     81055     81056     81054     81051     81055     81056
     81058     81057     81061     81062     81059     81057     81061     81062
     81060     81057     81061     81062     81064     81063     81067     81068
     81065     81063     81067     81068     81066     81063     81067     81068
     81070     81069     81073     81074     81071     81069     81073     81074
     81072     81069     81073     81074     81076     81075     81079     81080
     81077     81075     81079     81080     81078     81075     81079     81080
     81082     81081     81085     81086     81083     81081     81085     81086
     81084     81081     81085     81086     81088     81087     81091     81092
     81089     81087     81091     81092     81090     81087     81091     81092
     81094     81093     81097     81098     81095     81093     81097     81098
     81096     81093     81097     81098     81100     81099     81103     81104
     81101     81099     81103     81104     81102     81099     81103     81104
     81106     81105     81109     81110     81107     81105     81109     81110
     81108     81105     81109     81110     81112     81111     81115     81116
     81113     81111     81115     81116     81114     81111     81115     81116
     81118     81117     81121     81122     81119     81117     81121     81122
     81120     81117     81121     81122     81124     81123     81127     81128
     81125     81123     81127     81128     81126     81123     81127     81128
     81130     81129     81133     81134     81131     81129     81133     81134
     81132     81129     81133     81134     81136     81135     81139     81140
     81137     81135     81139     81140     81138     81135     81139     81140
     81142     81141     81145     81146     81143     81141     81145     81146
     81144     81141     81145     81146     81148     81147     81151     81152
     81149     81147     81151     81152     81150     81147     81151     81152
     81154     81153     81157     81158     81155     81153     81157     81158
     81156     81153     81157     81158     81160     81159     81163     81164
     81161     81159     81163     81164     81162     81159     81163     81164
     81166     81165     81169     81170     81167     81165     81169     81170
     81168     81165     81169     81170     81172     81171     81175     81176
     81173     81171     81175     81176     81174     81171     81175     81176
     81178     81177     81181     81182     81179     81177     81181     81182
     81180     81177     81181     81182     81184     81183     81187     81188
     81185     81183     81187     81188     81186     81183     81187     81188
     81190     81189     81193     81194     81191     81189     81193     81194
     81192     81189     81193     81194     81196     81195     81199     81200
     81197     81195     81199     81200     81198     81195     81199     81200
     81202     81201     81205     81206     81203     81201     81205     81206
     81204     81201     81205     81206     81208     81207     81211     81212
     81209     81207     81211     81212     81210     81207     81211     81212
     81214     81213     81217     81218     81215     81213     81217     81218
     81216     81213     81217     81218     81220     81219     81223     81224
     81221     81219     81223     81224     81222     81219     81223     81224
     81226     81225     81229     81230     81227     81225     81229     81230
     81228     81225     81229     81230     81232     81231     81235     81236
     81233     81231     81235     81236     81234     81231     81235     81236
     81238     81237     81241     81242     81239     81237     81241     81242
     81240     81237     81241     81242     81244     81243     81247     81248
     81245     81243     81247     81248     81246     81243     81247     81248
     81250     81249     81253     81254     81251     81249     81253     81254
     81252     81249     81253     81254     81256     81255     81259     81260
     81257     81255     81259     81260     81258     81255     81259     81260
     81262     81261     81265     81266     81263     81261     81265     81266
     81264     81261     81265     81266     81268     81267     81271     81272
     81269     81267     81271     81272     81270     81267     81271     81272
     81274     81273     81277     81278     81275     81273     81277     81278
     81276     81273     81277     81278     81280     81279     81283     81284
     81281     81279     81283     81284     81282     81279     81283     81284
     81286     81285     81289     81290     81287     81285     81289     81290
     81288     81285     81289     81290     81292     81291     81295     81296
     81293     81291     81295     81296     81294     81291     81295     81296
     81298     81297     81301     81302     81299     81297     81301     81302
     81300     81297     81301     81302     81304     81303     81307     81308
     81305     81303     81307     81308     81306     81303     81307     81308
     81310     81309     81313     81314     81311     81309     81313     81314
     81312     81309     81313     81314     81316     81315     81319     81320
     81317     81315     81319     81320     81318     81315     81319     81320
     81322     81321     81325     81326     81323     81321     81325     81326
     81324     81321     81325     81326     81328     81327     81331     81332
     81329     81327     81331     81332     81330     81327     81331     81332
     81334     81333     81337     81338     81335     81333     81337     81338
     81336     81333     81337     81338     81340     81339     81343     81344
     81341     81339     81343     81344     81342     81339     81343     81344
     81346     81345     81349     81350     81347     81345     81349     81350
     81348     81345     81349     81350     81352     81351     81355     81356
     81353     81351     81355     81356     81354     81351     81355     81356
     81358     81357     81361     81362     81359     81357     81361     81362
     81360     81357     81361     81362     81364     81363     81367     81368
     81365     81363     81367     81368     81366     81363     81367     81368
     81370     81369     81373     81374     81371     81369     81373     81374
     81372     81369     81373     81374     81376     81375     81379     81380
     81377     81375     81379     81380     81378     81375     81379     81380
     81382     81381     81385     81386     81383     81381     81385     81386
     81384     81381     81385     81386     81388     81387     81391     81392
     81389     81387     81391     81392     81390     81387     81391     81392
     81394     81393     81397     81398     81395     81393     81397     81398
     81396     81393     81397     81398     81400     81399     81403     81404
     81401     81399     81403     81404     81402     81399     81403     81404
     81406     81405     81409     81410     81407     81405     81409     81410
     81408     81405     81409     81410     81412     81411     81415     81416
     81413     81411     81415     81416     81414     81411     81415     81416
     81418     81417     81421     81422     81419     81417     81421     81422
     81420     81417     81421     81422     81424     81423     81427     81428
     81425     81423     81427     81428     81426     81423     81427     81428
     81430     81429     81433     81434     81431     81429     81433     81434
     81432     81429     81433     81434     81436     81435     81439     81440
     81437     81435     81439     81440     81438     81435     81439     81440
     81442     81441     81445     81446     81443     81441     81445     81446
     81444     81441     81445     81446     81448     81447     81451     81452
     81449     81447     81451     81452     81450     81447     81451     81452
     81454     81453     81457     81458     81455     81453     81457     81458
     81456     81453     81457     81458     81460     81459     81463     81464
     81461     81459     81463     81464     81462     81459     81463     81464
     81466     81465     81469     81470     81467     81465     81469     81470
     81468     81465     81469     81470     81472     81471     81475     81476
     81473     81471     81475     81476     81474     81471     81475     81476
     81478     81477     81481     81482     81479     81477     81481     81482
     81480     81477     81481     81482     81484     81483     81487     81488
     81485     81483     81487     81488     81486     81483     81487     81488
     81490     81489     81493     81494     81491     81489     81493     81494
     81492     81489     81493     81494     81496     81495     81499     81500
     81497     81495     81499     81500     81498     81495     81499     81500
     81502     81501     81505     81506     81503     81501     81505     81506
     81504     81501     81505     81506     81508     81507     81511     81512
     81509     81507     81511     81512     81510     81507     81511     81512
     81514     81513     81517     81518     81515     81513     81517     81518
     81516     81513     81517     81518     81520     81519     81523     81524
     81521     81519     81523     81524     81522     81519     81523     81524
     81526     81525     81529     81530     81527     81525     81529     81530
     81528     81525     81529     81530     81532     81531     81535     81536
     81533     81531     81535     81536     81534     81531     81535     81536
     81538     81537     81541     81542     81539     81537     81541     81542
     81540     81537     81541     81542     81544     81543     81547     81548
     81545     81543     81547     81548     81546     81543     81547     81548
     81550     81549     81553     81554     81551     81549     81553     81554
     81552     81549     81553     81554     81556     81555     81559     81560
     81557     81555     81559     81560     81558     81555     81559     81560
     81562     81561     81565     81566     81563     81561     81565     81566
     81564     81561     81565     81566     81568     81567     81571     81572
     81569     81567     81571     81572     81570     81567     81571     81572
     81574     81573     81577     81578     81575     81573     81577     81578
     81576     81573     81577     81578     81580     81579     81583     81584
     81581     81579     81583     81584     81582     81579     81583     81584
     81586     81585     81589     81590     81587     81585     81589     81590
     81588     81585     81589     81590     81592     81591     81595     81596
     81593     81591     81595     81596     81594     81591     81595     81596
     81598     81597     81601     81602     81599     81597     81601     81602
     81600     81597     81601     81602     81604     81603     81607     81608
     81605     81603     81607     81608     81606     81603     81607     81608
     81610     81609     81613     81614     81611     81609     81613     81614
     81612     81609     81613     81614     81616     81615     81619     81620
     81617     81615     81619     81620     81618     81615     81619     81620
     81622     81621     81625     81626     81623     81621     81625     81626
     81624     81621     81625     81626     81628     81627     81631     81632
     81629     81627     81631     81632     81630     81627     81631     81632
     81634     81633     81637     81638     81635     81633     81637     81638
     81636     81633     81637     81638     81640     81639     81643     81644
     81641     81639     81643     81644     81642     81639     81643     81644
     81646     81645     81649     81650     81647     81645     81649     81650
     81648     81645     81649     81650     81652     81651     81655     81656
     81653     81651     81655     81656     81654     81651     81655     81656
     81658     81657     81661     81662     81659     81657     81661     81662
     81660     81657     81661     81662     81664     81663     81667     81668
     81665     81663     81667     81668     81666     81663     81667     81668
     81670     81669     81673     81674     81671     81669     81673     81674
     81672     81669     81673     81674     81676     81675     81679     81680
     81677     81675     81679     81680     81678     81675     81679     81680
     81682     81681     81685     81686     81683     81681     81685     81686
     81684     81681     81685     81686     81688     81687     81691     81692
     81689     81687     81691     81692     81690     81687     81691     81692
     81694     81693     81697     81698     81695     81693     81697     81698
     81696     81693     81697     81698     81700     81699     81703     81704
     81701     81699     81703     81704     81702     81699     81703     81704
     81706     81705     81709     81710     81707     81705     81709     81710
     81708     81705     81709     81710     81712     81711     81715     81716
     81713     81711     81715     81716     81714     81711     81715     81716
     81718     81717     81721     81722     81719     81717     81721     81722
     81720     81717     81721     81722     81724     81723     81727     81728
     81725     81723     81727     81728     81726     81723     81727     81728
     81730     81729     81733     81734     81731     81729     81733     81734
     81732     81729     81733     81734     81736     81735     81739     81740
     81737     81735     81739     81740     81738     81735     81739     81740
     81742     81741     81745     81746     81743     81741     81745     81746
     81744     81741     81745     81746     81748     81747     81751     81752
     81749     81747     81751     81752     81750     81747     81751     81752
     81754     81753     81757     81758     81755     81753     81757     81758
     81756     81753     81757     81758     81760     81759     81763     81764
     81761     81759     81763     81764     81762     81759     81763     81764
     81766     81765     81769     81770     81767     81765     81769     81770
     81768     81765     81769     81770     81772     81771     81775     81776
     81773     81771     81775     81776     81774     81771     81775     81776
     81778     81777     81781     81782     81779     81777     81781     81782
     81780     81777     81781     81782     81784     81783     81787     81788
     81785     81783     81787     81788     81786     81783     81787     81788
     81790     81789     81793     81794     81791     81789     81793     81794
     81792     81789     81793     81794     81796     81795     81799     81800
     81797     81795     81799     81800     81798     81795     81799     81800
     81802     81801     81805     81806     81803     81801     81805     81806
     81804     81801     81805     81806     81808     81807     81811     81812
     81809     81807     81811     81812     81810     81807     81811     81812
     81814     81813     81817     81818     81815     81813     81817     81818
     81816     81813     81817     81818     81820     81819     81823     81824
     81821     81819     81823     81824     81822     81819     81823     81824
     81826     81825     81829     81830     81827     81825     81829     81830
     81828     81825     81829     81830     81832     81831     81835     81836
     81833     81831     81835     81836     81834     81831     81835     81836
     81838     81837     81841     81842     81839     81837     81841     81842
     81840     81837     81841     81842     81844     81843     81847     81848
     81845     81843     81847     81848     81846     81843     81847     81848
     81850     81849     81853     81854     81851     81849     81853     81854
     81852     81849     81853     81854     81856     81855     81859     81860
     81857     81855     81859     81860     81858     81855     81859     81860
     81862     81861     81865     81866     81863     81861     81865     81866
     81864     81861     81865     81866     81868     81867     81871     81872
     81869     81867     81871     81872     81870     81867     81871     81872
     81874     81873     81877     81878     81875     81873     81877     81878
     81876     81873     81877     81878     81880     81879     81883     81884
     81881     81879     81883     81884     81882     81879     81883     81884
     81886     81885     81889     81890     81887     81885     81889     81890
     81888     81885     81889     81890     81892     81891     81895     81896
     81893     81891     81895     81896     81894     81891     81895     81896
     81898     81897     81901     81902     81899     81897     81901     81902
     81900     81897     81901     81902     81904     81903     81907     81908
     81905     81903     81907     81908     81906     81903     81907     81908
     81910     81909     81913     81914     81911     81909     81913     81914
     81912     81909     81913     81914     81916     81915     81919     81920
     81917     81915     81919     81920     81918     81915     81919     81920
     81922     81921     81925     81926     81923     81921     81925     81926
     81924     81921     81925     81926     81928     81927     81931     81932
     81929     81927     81931     81932     81930     81927     81931     81932
     81934     81933     81937     81938     81935     81933     81937     81938
     81936     81933     81937     81938     81940     81939     81943     81944
     81941     81939     81943     81944     81942     81939     81943     81944
     81946     81945     81949     81950     81947     81945     81949     81950
     81948     81945     81949     81950     81952     81951     81955     81956
     81953     81951     81955     81956     81954     81951     81955     81956
     81958     81957     81961     81962     81959     81957     81961     81962
     81960     81957     81961     81962     81964     81963     81967     81968
     81965     81963     81967     81968     81966     81963     81967     81968
     81970     81969     81973     81974     81971     81969     81973     81974
     81972     81969     81973     81974     81976     81975     81979     81980
     81977     81975     81979     81980     81978     81975     81979     81980
     81982     81981     81985     81986     81983     81981     81985     81986
     81984     81981     81985     81986     81988     81987     81991     81992
     81989     81987     81991     81992     81990     81987     81991     81992
     81994     81993     81997     81998     81995     81993     81997     81998
     81996     81993     81997     81998     82000     81999     82003     82004
     82001     81999     82003     82004     82002     81999     82003     82004
     82006     82005     82009     82010     82007     82005     82009     82010
     82008     82005     82009     82010     82012     82011     82015     82016
     82013     82011     82015     82016     82014     82011     82015     82016
     82018     82017     82021     82022     82019     82017     82021     82022
     82020     82017     82021     82022     82024     82023     82027     82028
     82025     82023     82027     82028     82026     82023     82027     82028
     82030     82029     82033     82034     82031     82029     82033     82034
     82032     82029     82033     82034     82036     82035     82039     82040
     82037     82035     82039     82040     82038     82035     82039     82040
     82042     82041     82045     82046     82043     82041     82045     82046
     82044     82041     82045     82046     82048     82047     82051     82052
     82049     82047     82051     82052     82050     82047     82051     82052
     82054     82053     82057     82058     82055     82053     82057     82058
     82056     82053     82057     82058     82060     82059     82063     82064
     82061     82059     82063     82064     82062     82059     82063     82064
     82066     82065     82069     82070     82067     82065     82069     82070
     82068     82065     82069     82070     82072     82071     82075     82076
     82073     82071     82075     82076     82074     82071     82075     82076
     82078     82077     82081     82082     82079     82077     82081     82082
     82080     82077     82081     82082     82084     82083     82087     82088
     82085     82083     82087     82088     82086     82083     82087     82088
     82090     82089     82093     82094     82091     82089     82093     82094
     82092     82089     82093     82094     82096     82095     82099     82100
     82097     82095     82099     82100     82098     82095     82099     82100
     82102     82101     82105     82106     82103     82101     82105     82106
     82104     82101     82105     82106     82108     82107     82111     82112
     82109     82107     82111     82112     82110     82107     82111     82112
     82114     82113     82117     82118     82115     82113     82117     82118
     82116     82113     82117     82118     82120     82119     82123     82124
     82121     82119     82123     82124     82122     82119     82123     82124
     82126     82125     82129     82130     82127     82125     82129     82130
     82128     82125     82129     82130     82132     82131     82135     82136
     82133     82131     82135     82136     82134     82131     82135     82136
     82138     82137     82141     82142     82139     82137     82141     82142
     82140     82137     82141     82142     82144     82143     82147     82148
     82145     82143     82147     82148     82146     82143     82147     82148
     82150     82149     82153     82154     82151     82149     82153     82154
     82152     82149     82153     82154     82156     82155     82159     82160
     82157     82155     82159     82160     82158     82155     82159     82160
     82162     82161     82165     82166     82163     82161     82165     82166
     82164     82161     82165     82166     82168     82167     82171     82172
     82169     82167     82171     82172     82170     82167     82171     82172
     82174     82173     82177     82178     82175     82173     82177     82178
     82176     82173     82177     82178     82180     82179     82183     82184
     82181     82179     82183     82184     82182     82179     82183     82184
     82186     82185     82189     82190     82187     82185     82189     82190
     82188     82185     82189     82190     82192     82191     82195     82196
     82193     82191     82195     82196     82194     82191     82195     82196
     82198     82197     82201     82202     82199     82197     82201     82202
     82200     82197     82201     82202     82204     82203     82207     82208
     82205     82203     82207     82208     82206     82203     82207     82208
     82210     82209     82213     82214     82211     82209     82213     82214
     82212     82209     82213     82214     82216     82215     82219     82220
     82217     82215     82219     82220     82218     82215     82219     82220
     82222     82221     82225     82226     82223     82221     82225     82226
     82224     82221     82225     82226     82228     82227     82231     82232
     82229     82227     82231     82232     82230     82227     82231     82232
     82234     82233     82237     82238     82235     82233     82237     82238
     82236     82233     82237     82238     82240     82239     82243     82244
     82241     82239     82243     82244     82242     82239     82243     82244
     82246     82245     82249     82250     82247     82245     82249     82250
     82248     82245     82249     82250     82252     82251     82255     82256
     82253     82251     82255     82256     82254     82251     82255     82256
     82258     82257     82261     82262     82259     82257     82261     82262
     82260     82257     82261     82262     82264     82263     82267     82268
     82265     82263     82267     82268     82266     82263     82267     82268
     82270     82269     82273     82274     82271     82269     82273     82274
     82272     82269     82273     82274     82276     82275     82279     82280
     82277     82275     82279     82280     82278     82275     82279     82280
     82282     82281     82285     82286     82283     82281     82285     82286
     82284     82281     82285     82286     82288     82287     82291     82292
     82289     82287     82291     82292     82290     82287     82291     82292
     82294     82293     82297     82298     82295     82293     82297     82298
     82296     82293     82297     82298     82300     82299     82303     82304
     82301     82299     82303     82304     82302     82299     82303     82304
     82306     82305     82309     82310     82307     82305     82309     82310
     82308     82305     82309     82310     82312     82311     82315     82316
     82313     82311     82315     82316     82314     82311     82315     82316
     82318     82317     82321     82322     82319     82317     82321     82322
     82320     82317     82321     82322     82324     82323     82327     82328
     82325     82323     82327     82328     82326     82323     82327     82328
     82330     82329     82333     82334     82331     82329     82333     82334
     82332     82329     82333     82334     82336     82335     82339     82340
     82337     82335     82339     82340     82338     82335     82339     82340
     82342     82341     82345     82346     82343     82341     82345     82346
     82344     82341     82345     82346     82348     82347     82351     82352
     82349     82347     82351     82352     82350     82347     82351     82352
     82354     82353     82357     82358     82355     82353     82357     82358
     82356     82353     82357     82358     82360     82359     82363     82364
     82361     82359     82363     82364     82362     82359     82363     82364
     82366     82365     82369     82370     82367     82365     82369     82370
     82368     82365     82369     82370     82372     82371     82375     82376
     82373     82371     82375     82376     82374     82371     82375     82376
     82378     82377     82381     82382     82379     82377     82381     82382
     82380     82377     82381     82382     82384     82383     82387     82388
     82385     82383     82387     82388     82386     82383     82387     82388
     82390     82389     82393     82394     82391     82389     82393     82394
     82392     82389     82393     82394     82396     82395     82399     82400
     82397     82395     82399     82400     82398     82395     82399     82400
     82402     82401     82405     82406     82403     82401     82405     82406
     82404     82401     82405     82406     82408     82407     82411     82412
     82409     82407     82411     82412     82410     82407     82411     82412
     82414     82413     82417     82418     82415     82413     82417     82418
     82416     82413     82417     82418     82420     82419     82423     82424
     82421     82419     82423     82424     82422     82419     82423     82424
     82426     82425     82429     82430     82427     82425     82429     82430
     82428     82425     82429     82430     82432     82431     82435     82436
     82433     82431     82435     82436     82434     82431     82435     82436
     82438     82437     82441     82442     82439     82437     82441     82442
     82440     82437     82441     82442     82444     82443     82447     82448
     82445     82443     82447     82448     82446     82443     82447     82448
     82450     82449     82453     82454     82451     82449     82453     82454
     82452     82449     82453     82454     82456     82455     82459     82460
     82457     82455     82459     82460     82458     82455     82459     82460
     82462     82461     82465     82466     82463     82461     82465     82466
     82464     82461     82465     82466     82468     82467     82471     82472
     82469     82467     82471     82472     82470     82467     82471     82472
     82474     82473     82477     82478     82475     82473     82477     82478
     82476     82473     82477     82478     82480     82479     82483     82484
     82481     82479     82483     82484     82482     82479     82483     82484
     82486     82485     82489     82490     82487     82485     82489     82490
     82488     82485     82489     82490     82492     82491     82495     82496
     82493     82491     82495     82496     82494     82491     82495     82496
     82498     82497     82501     82502     82499     82497     82501     82502
     82500     82497     82501     82502     82504     82503     82507     82508
     82505     82503     82507     82508     82506     82503     82507     82508
     82510     82509     82513     82514     82511     82509     82513     82514
     82512     82509     82513     82514     82516     82515     82519     82520
     82517     82515     82519     82520     82518     82515     82519     82520
     82522     82521     82525     82526     82523     82521     82525     82526
     82524     82521     82525     82526     82528     82527     82531     82532
     82529     82527     82531     82532     82530     82527     82531     82532
     82534     82533     82537     82538     82535     82533     82537     82538
     82536     82533     82537     82538     82540     82539     82543     82544
     82541     82539     82543     82544     82542     82539     82543     82544
     82546     82545     82549     82550     82547     82545     82549     82550
     82548     82545     82549     82550     82552     82551     82555     82556
     82553     82551     82555     82556     82554     82551     82555     82556
     82558     82557     82561     82562     82559     82557     82561     82562
     82560     82557     82561     82562     82564     82563     82567     82568
     82565     82563     82567     82568     82566     82563     82567     82568
     82570     82569     82573     82574     82571     82569     82573     82574
     82572     82569     82573     82574     82576     82575     82579     82580
     82577     82575     82579     82580     82578     82575     82579     82580
     82582     82581     82585     82586     82583     82581     82585     82586
     82584     82581     82585     82586     82588     82587     82591     82592
     82589     82587     82591     82592     82590     82587     82591     82592
     82594     82593     82597     82598     82595     82593     82597     82598
     82596     82593     82597     82598     82600     82599     82603     82604
     82601     82599     82603     82604     82602     82599     82603     82604
     82606     82605     82609     82610     82607     82605     82609     82610
     82608     82605     82609     82610     82612     82611     82615     82616
     82613     82611     82615     82616     82614     82611     82615     82616
     82618     82617     82621     82622     82619     82617     82621     82622
     82620     82617     82621     82622     82624     82623     82627     82628
     82625     82623     82627     82628     82626     82623     82627     82628
     82630     82629     82633     82634     82631     82629     82633     82634
     82632     82629     82633     82634     82636     82635     82639     82640
     82637     82635     82639     82640     82638     82635     82639     82640
     82642     82641     82645     82646     82643     82641     82645     82646
     82644     82641     82645     82646     82648     82647     82651     82652
     82649     82647     82651     82652     82650     82647     82651     82652
     82654     82653     82657     82658     82655     82653     82657     82658
     82656     82653     82657     82658     82660     82659     82663     82664
     82661     82659     82663     82664     82662     82659     82663     82664
     82666     82665     82669     82670     82667     82665     82669     82670
     82668     82665     82669     82670     82672     82671     82675     82676
     82673     82671     82675     82676     82674     82671     82675     82676
     82678     82677     82681     82682     82679     82677     82681     82682
     82680     82677     82681     82682     82684     82683     82687     82688
     82685     82683     82687     82688     82686     82683     82687     82688
     82690     82689     82693     82694     82691     82689     82693     82694
     82692     82689     82693     82694     82696     82695     82699     82700
     82697     82695     82699     82700     82698     82695     82699     82700
     82702     82701     82705     82706     82703     82701     82705     82706
     82704     82701     82705     82706     82708     82707     82711     82712
     82709     82707     82711     82712     82710     82707     82711     82712
     82714     82713     82717     82718     82715     82713     82717     82718
     82716     82713     82717     82718     82720     82719     82723     82724
     82721     82719     82723     82724     82722     82719     82723     82724
     82726     82725     82729     82730     82727     82725     82729     82730
     82728     82725     82729     82730     82732     82731     82735     82736
     82733     82731     82735     82736     82734     82731     82735     82736
     82738     82737     82741     82742     82739     82737     82741     82742
     82740     82737     82741     82742     82744     82743     82747     82748
     82745     82743     82747     82748     82746     82743     82747     82748
     82750     82749     82753     82754     82751     82749     82753     82754
     82752     82749     82753     82754     82756     82755     82759     82760
     82757     82755     82759     82760     82758     82755     82759     82760
     82762     82761     82765     82766     82763     82761     82765     82766
     82764     82761     82765     82766     82768     82767     82771     82772
     82769     82767     82771     82772     82770     82767     82771     82772
     82774     82773     82777     82778     82775     82773     82777     82778
     82776     82773     82777     82778     82780     82779     82783     82784
     82781     82779     82783     82784     82782     82779     82783     82784
     82786     82785     82789     82790     82787     82785     82789     82790
     82788     82785     82789     82790     82792     82791     82795     82796
     82793     82791     82795     82796     82794     82791     82795     82796
     82798     82797     82801     82802     82799     82797     82801     82802
     82800     82797     82801     82802     82804     82803     82807     82808
     82805     82803     82807     82808     82806     82803     82807     82808
     82810     82809     82813     82814     82811     82809     82813     82814
     82812     82809     82813     82814     82816     82815     82819     82820
     82817     82815     82819     82820     82818     82815     82819     82820
     82822     82821     82825     82826     82823     82821     82825     82826
     82824     82821     82825     82826     82828     82827     82831     82832
     82829     82827     82831     82832     82830     82827     82831     82832
     82834     82833     82837     82838     82835     82833     82837     82838
     82836     82833     82837     82838     82840     82839     82843     82844
     82841     82839     82843     82844     82842     82839     82843     82844
     82846     82845     82849     82850     82847     82845     82849     82850
     82848     82845     82849     82850     82852     82851     82855     82856
     82853     82851     82855     82856     82854     82851     82855     82856
     82858     82857     82861     82862     82859     82857     82861     82862
     82860     82857     82861     82862     82864     82863     82867     82868
     82865     82863     82867     82868     82866     82863     82867     82868
     82870     82869     82873     82874     82871     82869     82873     82874
     82872     82869     82873     82874     82876     82875     82879     82880
     82877     82875     82879     82880     82878     82875     82879     82880
     82882     82881     82885     82886     82883     82881     82885     82886
     82884     82881     82885     82886     82888     82887     82891     82892
     82889     82887     82891     82892     82890     82887     82891     82892
     82894     82893     82897     82898     82895     82893     82897     82898
     82896     82893     82897     82898     82900     82899     82903     82904
     82901     82899     82903     82904     82902     82899     82903     82904
     82906     82905     82909     82910     82907     82905     82909     82910
     82908     82905     82909     82910

       0 !NIMPHI: impropers


       0 !NDON: donors


       0 !NACC: acceptors


       0 !NNB

         0         0         0         0         0         0         0         0
         0         0         0         0         0         0         0         0
         0         0         0         0         0         0         0         0
         0         0         0         0         0         0         0         0
         0         0         0         0         0         0         0         0
         0         0         0         0         0         0         0         0
         0         0         0         0         0         0         0         0
         0         0         0         0         0         0         0         0
         0         0         0         0         0         0         0         0
         0         0         0         0         0         0         0         0
         0         0         0         0         0         0         0         0
         0         0         0         0         0         0         0         0
         0         0         0         0         0         0         0         0
         0         0         0         0         0         0         0         0
         0         0         0         0         0         0         0         0
         0         0         0         0         0         0         0         0
         0         0         0         0         0         0         0         0
         0         0         0         0         0         0         0         0
         0         0         0         0         0         0         0         0
         0         0         0         0         0         0         0         0
         0         0         0         0         0         0         0         0
         0         0         0         0         0         0         0         0
         0         0         0         0         0         0         0         0
         0         0         0         0         0         0         0         0
         0         0         0         0         0         0         0         0
         0         0         0         0         0         0         0         0
         0         0         0         0         0         0         0         0
         0         0         0         0         0         0         0         0
         0         0         0         0         0         0         0         0
         0         0         0         0         0         0         0         0
         0         0         0         0         0         0         0         0
         0         0         0         0         0         0         0         0
         0         0         0         0         0         0         0         0
         0         0         0         0         0         0         0         0
         0         0         0         0         0         0         0         0
         0         0         0         0         0         0         0         0
         0         0         0         0         0         0         0         0
         0         0         0         0         0         0         0         0
         0         0         0         0         0         0         0         0
         0         0         0         0         0         0         0         0
         0         0         0         0         0         0         0         0
         0         0         0         0         0         0         0         0
         0         0         0         0         0         0         0         0
         0         0         0         0         0         0         0         0
         0         0         0         0         0         0         0         0
         0         0         0         0         0         0         0         0
         0         0         0         0         0         0         0         0
         0         0         0         0         0         0         0         0
         0         0         0         0         0         0         0         0
         0         0         0         0         0         0         0         0
         0         0         0         0         0         0         0         0
         0         0         0         0         0         0         0         0
         0         0         0         0         0         0         0         0
         0         0         0         0         0         0         0         0
         0         0         0         0         0         0         0         0
         0         0         0         0         0         0         0         0
         0         0         0         0         0         0         0         0
         0         0         0         0         0         0         0         0
         0         0         0         0         0         0         0         0
         0         0         0         0         0         0         0         0
         0         0         0         0         0         0         0         0
         0         0         0         0         0         0         0         0
         0         0         0         0         0         0         0         0
         0         0         0         0         0         0         0         0
         0         0         0         0         0         0         0         0
         0         0         0         0         0         0         0         0
         0         0         0         0         0         0         0         0
         0         0         0         0         0         0         0         0
         0         0         0         0         0         0         0         0
         0         0         0         0         0         0         0         0
         0         0         0         0         0         0         0         0
         0         0         0         0         0         0         0         0
         0         0         0         0         0         0         0         0
         0         0         0         0         0         0         0         0
         0         0         0         0         0         0         0         0
         0         0         0         0         0         0         0         0
         0         0         0         0         0         0         0         0
         0         0         0         0         0         0         0         0
         0         0         0         0         0         0         0         0
         0         0         0         0         0         0         0         0
         0         0         0         0         0         0         0         0
         0         0         0         0         0         0         0         0
         0         0         0         0         0         0         0         0
         0         0         0         0         0         0         0         0
         0         0         0         0         0         0         0         0
         0         0         0         0         0         0         0         0
         0         0         0         0         0         0         0         0
         0         0         0         0         0         0         0         0
         0         0         0         0         0         0         0         0
         0         0         0         0         0         0         0         0
         0         0         0         0         0         0         0         0
         0         0         0         0         0         0         0         0
         0         0         0         0         0         0         0         0
         0         0         0         0         0         0         0         0
         0         0         0         0         0         0         0         0
         0         0         0         0         0         0         0         0
         0         0         0         0         0         0         0         0
         0         0         0         0         0         0         0         0
         0         0         0         0         0         0         0         0
         0         0         0         0         0         0         0         0
         0         0         0         0         0         0         0         0
         0         0         0         0         0         0         0         0
         0         0         0         0         0         0         0         0
         0         0         0         0         0         0         0         0
         0         0         0         0         0         0         0         0
         0         0         0         0         0         0         0         0
         0         0         0         0         0         0         0         0
         0         0         0         0         0         0         0         0
         0         0         0         0         0         0         0         0
         0         0         0         0         0         0         0         0
         0         0         0         0         0         0         0         0
         0         0         0         0         0         0         0         0
         0         0         0         0         0         0         0         0
         0         0         0         0         0         0         0         0
         0         0         0         0         0         0         0         0
         0         0         0         0         0         0         0         0
         0         0         0         0         0         0         0         0
         0         0         0         0         0         0         0         0
         0         0         0         0         0         0         0         0
         0         0         0         0         0         0         0         0
         0         0         0         0         0         0         0         0
         0         0         0         0         0         0         0         0
         0         0         0         0         0         0         0         0
         0         0         0         0         0         0         0         0
         0         0         0         0         0         0         0         0
         0         0         0         0         0         0         0         0
         0         0         0         0         0         0         0         0
         0         0         0         0         0         0         0         0
         0         0         0         0         0         0         0         0
         0         0         0         0         0         0         0         0
         0         0         0         0         0         0         0         0
         0         0         0         0         0         0         0         0
         0         0         0         0         0         0         0         0
         0         0         0         0         0         0         0         0
         0         0         0         0         0         0         0         0
         0         0         0         0         0         0         0         0
         0         0         0         0         0         0         0         0
         0         0         0         0         0         0         0         0
         0         0         0         0         0         0         0         0
         0         0         0         0         0         0         0         0
         0         0         0         0         0         0         0         0
         0         0         0         0         0         0         0         0
         0         0         0         0         0         0         0         0
         0         0         0         0         0         0         0         0
         0         0         0         0         0         0         0         0
         0         0         0         0         0         0         0         0
         0         0         0         0         0         0         0         0
         0         0         0         0         0         0         0         0
         0         0         0         0         0         0         0         0
         0         0         0         0         0         0         0         0
         0         0         0         0         0         0         0         0
         0         0         0         0         0         0         0         0
         0         0         0         0         0         0         0         0
         0         0         0         0         0         0         0         0
         0         0         0         0         0         0         0         0
         0         0         0         0         0         0         0         0
         0         0         0         0         0         0         0         0
         0         0         0         0         0         0         0         0
         0         0         0         0         0         0         0         0
         0         0         0         0         0         0         0         0
         0         0         0         0         0         0         0         0
         0         0         0         0         0         0         0         0
         0         0         0         0         0         0         0         0
         0         0         0         0         0         0         0         0
         0         0         0         0         0         0         0         0
         0         0         0         0         0         0         0         0
         0         0         0         0         0         0         0         0
         0         0         0         0         0         0         0         0
         0         0         0         0         0         0         0         0
         0         0         0         0         0         0         0         0
         0         0         0         0         0         0         0         0
         0         0         0         0         0         0         0         0
         0         0         0         0         0         0         0         0
         0         0         0         0         0         0         0         0
         0         0         0         0         0         0         0         0
         0         0         0         0         0         0         0         0
         0         0         0         0         0         0         0         0
         0         0         0         0         0         0         0         0
         0         0         0         0         0         0         0         0
         0         0         0         0         0         0         0         0
         0         0         0         0         0         0         0         0
         0         0         0         0         0         0         0         0
         0         0         0         0         0         0         0         0
         0         0         0         0         0         0         0         0
         0         0         0         0         0         0         0         0
         0         0         0         0         0         0         0         0
         0         0         0         0         0         0         0         0
         0         0         0         0         0         0         0         0
         0         0         0         0         0         0         0         0
         0         0         0         0         0         0         0         0
         0         0         0         0         0         0         0         0
         0         0         0         0         0         0         0         0
         0         0         0         0         0         0         0         0
         0         0         0         0         0         0         0         0
         0         0         0         0         0         0         0         0
         0         0         0         0         0         0         0         0
         0         0         0         0         0         0         0         0
         0         0         0         0         0         0         0         0
         0         0         0         0         0         0         0         0
         0         0         0         0         0         0         0         0
         0         0         0         0         0         0         0         0
         0         0         0         0         0         0         0         0
         0         0         0         0         0         0         0         0
         0         0         0         0         0         0         0         0
         0         0         0         0         0         0         0         0
         0         0         0         0         0         0         0         0
         0         0         0         0         0         0         0         0
         0         0         0         0         0         0         0         0
         0         0         0         0         0         0         0         0
         0         0         0         0         0         0         0         0
         0         0         0         0         0         0         0         0
         0         0         0         0         0         0         0         0
         0         0         0         0         0         0         0         0
         0         0         0         0         0         0         0         0
         0         0         0         0         0         0         0         0
         0         0         0         0         0         0         0         0
         0         0         0         0         0         0         0         0
         0         0         0         0         0         0         0         0
         0         0         0         0         0         0         0         0
         0         0         0         0         0         0         0         0
         0         0         0         0         0         0         0         0
         0         0         0         0         0         0         0         0
         0         0         0         0         0         0         0         0
         0         0         0         0         0         0         0         0
         0         0         0         0         0         0         0         0
         0         0         0         0         0         0         0         0
         0         0         0         0         0         0         0         0
         0         0         0         0         0         0         0         0
         0         0         0         0         0         0         0         0
         0         0         0         0         0         0         0         0
         0         0         0         0         0         0         0         0
         0         0         0         0         0         0         0         0
         0         0         0         0         0         0         0         0
         0         0         0         0         0         0         0         0
         0         0         0         0         0         0         0         0
         0         0         0         0         0         0         0         0
         0         0         0         0         0         0         0         0
         0         0         0         0         0         0         0         0
         0         0         0         0         0         0         0         0
         0         0         0         0         0         0         0         0
         0         0         0         0         0         0         0         0
         0         0         0         0         0         0         0         0
         0         0         0         0         0         0         0         0
         0         0         0         0         0         0         0         0
         0         0         0         0         0         0         0         0
         0         0         0         0         0         0         0         0
         0         0         0         0         0         0         0         0
         0         0         0         0         0         0         0         0
         0         0         0         0         0         0         0         0
         0         0         0         0         0         0         0         0
         0         0         0         0         0         0         0         0
         0         0         0         0         0         0         0         0
         0         0         0         0         0         0         0         0
         0         0         0         0         0         0         0         0
         0         0         0         0         0         0         0         0
         0         0         0         0         0         0         0         0
         0         0         0         0         0         0         0         0
         0         0         0         0         0         0         0         0
         0         0         0         0         0         0         0         0
         0         0         0         0         0         0         0         0
         0         0         0         0         0         0         0         0
         0         0         0         0         0         0         0         0
         0         0         0         0         0         0         0         0
         0         0         0         0         0         0         0         0
         0         0         0         0         0         0         0         0
         0         0         0         0         0         0         0         0
         0         0         0         0         0         0         0         0
         0         0         0         0         0         0         0         0
         0         0         0         0         0         0         0         0
         0         0         0         0         0         0         0         0
         0         0         0         0         0         0         0         0
         0         0         0         0         0         0         0         0
         0         0         0         0         0         0         0         0
         0         0         0         0         0         0         0         0
         0         0         0         0         0         0         0         0
         0         0         0         0         0         0         0         0
         0         0         0         0         0         0         0         0
         0         0         0         0         0         0         0         0
         0         0         0         0         0         0         0         0
         0         0         0         0         0         0         0         0
         0         0         0         0         0         0         0         0
         0         0         0         0         0         0         0         0
         0         0         0         0         0         0         0         0
         0         0         0         0         0         0         0         0
         0         0         0         0         0         0         0         0
         0         0         0         0         0         0         0         0
         0         0         0         0         0         0         0         0
         0         0         0         0         0         0         0         0
         0         0         0         0         0         0         0         0
         0         0         0         0         0         0         0         0
         0         0         0         0         0         0         0         0
         0         0         0         0         0         0         0         0
         0         0         0         0         0         0         0         0
         0         0         0         0         0         0         0         0
         0         0         0         0         0         0         0         0
         0         0         0         0         0         0         0         0
         0         0         0         0         0         0         0         0
         0         0         0         0         0         0         0         0
         0         0         0         0         0         0         0         0
         0         0         0         0         0         0         0         0
         0         0         0         0         0         0         0         0
         0         0         0         0         0         0         0         0
         0         0         0         0         0         0         0         0
         0         0         0         0         0         0         0         0
         0         0         0         0         0         0         0         0
         0         0         0         0         0         0         0         0
         0         0         0         0         0         0         0         0
         0         0         0         0         0         0         0         0
         0         0         0         0         0         0         0         0
         0         0         0         0         0         0         0         0
         0         0         0         0         0         0         0         0
         0         0         0         0         0         0         0         0
         0         0         0         0         0         0         0         0
         0         0         0         0         0         0         0         0
         0         0         0         0         0         0         0         0
         0         0         0         0         0         0         0         0
         0         0         0         0         0         0         0         0
         0         0         0         0         0         0         0         0
         0         0         0         0         0         0         0         0
         0         0         0         0         0         0         0         0
         0         0         0         0         0         0         0         0
         0         0         0         0         0         0         0         0
         0         0         0         0         0         0         0         0
         0         0         0         0         0         0         0         0
         0         0         0         0         0         0         0         0
         0         0         0         0         0         0         0         0
         0         0         0         0         0         0         0         0
         0         0         0         0         0         0         0         0
         0         0         0         0         0         0         0         0
         0         0         0         0         0         0         0         0
         0         0         0         0         0         0         0         0
         0         0         0         0         0         0         0         0
         0         0         0         0         0         0         0         0
         0         0         0         0         0         0         0         0
         0         0         0         0         0         0         0         0
         0         0         0         0         0         0         0         0
         0         0         0         0         0         0         0         0
         0         0         0         0         0         0         0         0
         0         0         0         0         0         0         0         0
         0         0         0         0         0         0         0         0
         0         0         0         0         0         0         0         0
         0         0         0         0         0         0         0         0
         0         0         0         0         0         0         0         0
         0         0         0         0         0         0         0         0
         0         0         0         0         0         0         0         0
         0         0         0         0         0         0         0         0
         0         0         0         0         0         0         0         0
         0         0         0         0         0         0         0         0
         0         0         0         0         0         0         0         0
         0         0         0         0         0         0         0         0
         0         0         0         0         0         0         0         0
         0         0         0         0         0         0         0         0
         0         0         0         0         0         0         0         0
         0         0         0         0         0         0         0         0
         0         0         0         0         0         0         0         0
         0         0         0         0         0         0         0         0
         0         0         0         0         0         0         0         0
         0         0         0         0         0         0         0         0
         0         0         0         0         0         0         0         0
         0         0         0         0         0         0         0         0
         0         0         0         0         0         0         0         0
         0         0         0         0         0         0         0         0
         0         0         0         0         0         0         0         0
         0         0         0         0         0         0         0         0
         0         0         0         0         0         0         0         0
         0         0         0         0         0         0         0         0
         0         0         0         0         0         0         0         0
         0         0         0         0         0         0         0         0
         0         0         0         0         0         0         0         0
         0         0         0         0         0         0         0         0
         0         0         0         0         0         0         0         0
         0         0         0         0         0         0         0         0
         0         0         0         0         0         0         0         0
         0         0         0         0         0         0         0         0
         0         0         0         0         0         0         0         0
         0         0         0         0         0         0         0         0
         0         0         0         0         0         0         0         0
         0         0         0         0         0         0         0         0
         0         0         0         0         0         0         0         0
         0         0         0         0         0         0         0         0
         0         0         0         0         0         0         0         0
         0         0         0         0         0         0         0         0
         0         0         0         0         0         0         0         0
         0         0         0         0         0         0         0         0
         0         0         0         0         0         0         0         0
         0         0         0         0         0         0         0         0
         0         0         0         0         0         0         0         0
         0         0         0         0         0         0         0         0
         0         0         0         0         0         0         0         0
         0         0         0         0         0         0         0         0
         0         0         0         0         0         0         0         0
         0         0         0         0         0         0         0         0
         0         0         0         0         0         0         0         0
         0         0         0         0         0         0         0         0
         0         0         0         0         0         0         0         0
         0         0         0         0         0         0         0         0
         0         0         0         0         0         0         0         0
         0         0         0         0         0         0         0         0
         0         0         0         0         0         0         0         0
         0         0         0         0         0         0         0         0
         0         0         0         0         0         0         0         0
         0         0         0         0         0         0         0         0
         0         0         0         0         0         0         0         0
         0         0         0         0         0         0         0         0
         0         0         0         0         0         0         0         0
         0         0         0         0         0         0         0         0
         0         0         0         0         0         0         0         0
         0         0         0         0         0         0         0         0
         0         0         0         0         0         0         0         0
         0         0         0         0         0         0         0         0
         0         0         0         0         0         0         0         0
         0         0         0         0         0         0         0         0
         0         0         0         0         0         0         0         0
         0         0         0         0         0         0         0         0
         0         0         0         0         0         0         0         0
         0         0         0         0         0         0         0         0
         0         0         0         0         0         0         0         0
         0         0         0         0         0         0         0         0
         0         0         0         0         0         0         0         0
         0         0         0         0         0         0         0         0
         0         0         0         0         0         0         0         0
         0         0         0         0         0         0         0         0
         0         0         0         0         0         0         0         0
         0         0         0         0         0         0         0         0
         0         0         0         0         0         0         0         0
         0         0         0         0         0         0         0         0
         0         0         0         0         0         0         0         0
         0         0         0         0         0         0         0         0
         0         0         0         0         0         0         0         0
         0         0         0         0         0         0         0         0
         0         0         0         0         0         0         0         0
         0         0         0         0         0         0         0         0
         0         0         0         0         0         0         0         0
         0         0         0         0         0         0         0         0
         0         0         0         0         0         0         0         0
         0         0         0         0         0         0         0         0
         0         0         0         0         0         0         0         0
         0         0         0         0         0         0         0         0
         0         0         0         0         0         0         0         0
         0         0         0         0         0         0         0         0
         0         0         0         0         0         0         0         0
         0         0         0         0         0         0         0         0
         0         0         0         0         0         0         0         0
         0         0         0         0         0         0         0         0
         0         0         0         0         0         0         0         0
         0         0         0         0         0         0         0         0
         0         0         0         0         0         0         0         0
         0         0         0         0         0         0         0         0
         0         0         0         0         0         0         0         0
         0         0         0         0         0         0         0         0
         0         0         0         0         0         0         0         0
         0         0         0         0         0         0         0         0
         0         0         0         0         0         0         0         0
         0         0         0         0         0         0         0         0
         0         0         0         0         0         0         0         0
         0         0         0         0         0         0         0         0
         0         0         0         0         0         0         0         0
         0         0         0         0         0         0         0         0
         0         0         0         0         0         0         0         0
         0         0         0         0         0         0         0         0
         0         0         0         0         0         0         0         0
         0         0         0         0         0         0         0         0
         0         0         0         0         0         0         0         0
         0         0         0         0         0         0         0         0
         0         0         0         0         0         0         0         0
         0         0         0         0         0         0         0         0
         0         0         0         0         0         0         0         0
         0         0         0         0         0         0         0         0
         0         0         0         0         0         0         0         0
         0         0         0         0         0         0         0         0
         0         0         0         0         0         0         0         0
         0         0         0         0         0         0         0         0
         0         0         0         0         0         0         0         0
         0         0         0         0         0         0         0         0
         0         0         0         0         0         0         0         0
         0         0         0         0         0         0         0         0
         0         0         0         0         0         0         0         0
         0         0         0         0         0         0         0         0
         0         0         0         0         0         0         0         0
         0         0         0         0         0         0         0         0
         0         0         0         0         0         0         0         0
         0         0         0         0         0         0         0         0
         0         0         0         0         0         0         0         0
         0         0         0         0         0         0         0         0
         0         0         0         0         0         0         0         0
         0         0         0         0         0         0         0         0
         0         0         0         0         0         0         0         0
         0         0         0         0         0         0         0         0
         0         0         0         0         0         0         0         0
         0         0         0         0         0         0         0         0
         0         0         0         0         0         0         0         0
         0         0         0         0         0         0         0         0
         0         0         0         0         0         0         0         0
         0         0         0         0         0         0         0         0
         0         0         0         0         0         0         0         0
         0         0         0         0         0         0         0         0
         0         0         0         0         0         0         0         0
         0         0         0         0         0         0         0         0
         0         0         0         0         0         0         0         0
         0         0         0         0         0         0         0         0
         0         0         0         0         0         0         0         0
         0         0         0         0         0         0         0         0
         0         0         0         0         0         0         0         0
         0         0         0         0         0         0         0         0
         0         0         0         0         0         0         0         0
         0         0         0         0         0         0         0         0
         0         0         0         0         0         0         0         0
         0         0         0         0         0         0         0         0
         0         0         0         0         0         0         0         0
         0         0         0         0         0         0         0         0
         0         0         0         0         0         0         0         0
         0         0         0         0         0         0         0         0
         0         0         0         0         0         0         0         0
         0         0         0         0         0         0         0         0
         0         0         0         0         0         0         0         0
         0         0         0         0         0         0         0         0
         0         0         0         0         0         0         0         0
         0         0         0         0         0         0         0         0
         0         0         0         0         0         0         0         0
         0         0         0         0         0         0         0         0
         0         0         0         0         0         0         0         0
         0         0         0         0         0         0         0         0
         0         0         0         0         0         0         0         0
         0         0         0         0         0         0         0         0
         0         0         0         0         0         0         0         0
         0         0         0         0         0         0         0         0
         0         0         0         0         0         0         0         0
         0         0         0         0         0         0         0         0
         0         0         0         0         0         0         0         0
         0         0         0         0         0         0         0         0
         0         0         0         0         0         0         0         0
         0         0         0         0         0         0         0         0
         0         0         0         0         0         0         0         0
         0         0         0         0         0         0         0         0
         0         0         0         0         0         0         0         0
         0         0         0         0         0         0         0         0
         0         0         0         0         0         0         0         0
         0         0         0         0         0         0         0         0
         0         0         0         0         0         0         0         0
         0         0         0         0         0         0         0         0
         0         0         0         0         0         0         0         0
         0         0         0         0         0         0         0         0
         0         0         0         0         0         0         0         0
         0         0         0         0         0         0         0         0
         0         0         0         0         0         0         0         0
         0         0         0         0         0         0         0         0
         0         0         0         0         0         0         0         0
         0         0         0         0         0         0         0         0
         0         0         0         0         0         0         0         0
         0         0         0         0         0         0         0         0
         0         0         0         0         0         0         0         0
         0         0         0         0         0         0         0         0
         0         0         0         0         0         0         0         0
         0         0         0         0         0         0         0         0
         0         0         0         0         0         0         0         0
         0         0         0         0         0         0         0         0
         0         0         0         0         0         0         0         0
         0         0         0         0         0         0         0         0
         0         0         0         0         0         0         0         0
         0         0         0         0         0         0         0         0
         0         0         0         0         0         0         0         0
         0         0         0         0         0         0         0         0
         0         0         0         0         0         0         0         0
         0         0         0         0         0         0         0         0
         0         0         0         0         0         0         0         0
         0         0         0         0         0         0         0         0
         0         0         0         0         0         0         0         0
         0         0         0         0         0         0         0         0
         0         0         0         0         0         0         0         0
         0         0         0         0         0         0         0         0
         0         0         0         0         0         0         0         0
         0         0         0         0         0         0         0         0
         0         0         0         0         0         0         0         0
         0         0         0         0         0         0         0         0
         0         0         0         0         0         0         0         0
         0         0         0         0         0         0         0         0
         0         0         0         0         0         0         0         0
         0         0         0         0         0         0         0         0
         0         0         0         0         0         0         0         0
         0         0         0         0         0         0         0         0
         0         0         0         0         0         0         0         0
         0         0         0         0         0         0         0         0
         0         0         0         0         0         0         0         0
         0         0         0         0         0         0         0         0
         0         0         0         0         0         0         0         0
         0         0         0         0         0         0         0         0
         0         0         0         0         0         0         0         0
         0         0         0         0         0         0         0         0
         0         0         0         0         0         0         0         0
         0         0         0         0         0         0         0         0
         0         0         0         0         0         0         0         0
         0         0         0         0         0         0         0         0
         0         0         0         0         0         0         0         0
         0         0         0         0         0         0         0         0
         0         0         0         0         0         0         0         0
         0         0         0         0         0         0         0         0
         0         0         0         0         0         0         0         0
         0         0         0         0         0         0         0         0
         0         0         0         0         0         0         0         0
         0         0         0         0         0         0         0         0
         0         0         0         0         0         0         0         0
         0         0         0         0         0         0         0         0
         0         0         0         0         0         0         0         0
         0         0         0         0         0         0         0         0
         0         0         0         0         0         0         0         0
         0         0         0         0         0         0         0         0
         0         0         0         0         0         0         0         0
         0         0         0         0         0         0         0         0
         0         0         0         0         0         0         0         0
         0         0         0         0         0         0         0         0
         0         0         0         0         0         0         0         0
         0         0         0         0         0         0         0         0
         0         0         0         0         0         0         0         0
         0         0         0         0         0         0         0         0
         0         0         0         0         0         0         0         0
         0         0         0         0         0         0         0         0
         0         0         0         0         0         0         0         0
         0         0         0         0         0         0         0         0
         0         0         0         0         0         0         0         0
         0         0         0         0         0         0         0         0
         0         0         0         0         0         0         0         0
         0         0         0         0         0         0         0         0
         0         0         0         0         0         0         0         0
         0         0         0         0         0         0         0         0
         0         0         0         0         0         0         0         0
         0         0         0         0         0         0         0         0
         0         0         0         0         0         0         0         0
         0         0         0         0         0         0         0         0
         0         0         0         0         0         0         0         0
         0         0         0         0         0         0         0         0
         0         0         0         0         0         0         0         0
         0         0         0         0         0         0         0         0
         0         0         0         0         0         0         0         0
         0         0         0         0         0         0         0         0
         0         0         0         0         0         0         0         0
         0         0         0         0         0         0         0         0
         0         0         0         0         0         0         0         0
         0         0         0         0         0         0         0         0
         0         0         0         0         0         0         0         0
         0         0         0         0         0         0         0         0
         0         0         0         0         0         0         0         0
         0         0         0         0         0         0         0         0
         0         0         0         0         0         0         0         0
         0         0         0         0         0         0         0         0
         0         0         0         0         0         0         0         0
         0         0         0         0         0         0         0         0
         0         0         0         0         0         0         0         0
         0         0         0         0         0         0         0         0
         0         0         0         0         0         0         0         0
         0         0         0         0         0         0         0         0
         0         0         0         0         0         0         0         0
         0         0         0         0         0         0         0         0
         0         0         0         0         0         0         0         0
         0         0         0         0         0         0         0         0
         0         0         0         0         0         0         0         0
         0         0         0         0         0         0         0         0
         0         0         0         0         0         0         0         0
         0         0         0         0         0         0         0         0
         0         0         0         0         0         0         0         0
         0         0         0         0         0         0         0         0
         0         0         0         0         0         0         0         0
         0         0         0         0         0         0         0         0
         0         0         0         0         0         0         0         0
         0         0         0         0         0         0         0         0
         0         0         0         0         0         0         0         0
         0         0         0         0         0         0         0         0
         0         0         0         0         0         0         0         0
         0         0         0         0         0         0         0         0
         0         0         0         0         0         0         0         0
         0         0         0         0         0         0         0         0
         0         0         0         0         0         0         0         0
         0         0         0         0         0         0         0         0
         0         0         0         0         0         0         0         0
         0         0         0         0         0         0         0         0
         0         0         0         0         0         0         0         0
         0         0         0         0         0         0         0         0
         0         0         0         0         0         0         0         0
         0         0         0         0         0         0         0         0
         0         0         0         0         0         0         0         0
         0         0         0         0         0         0         0         0
         0         0         0         0         0         0         0         0
         0         0         0         0         0         0         0         0
         0         0         0         0         0         0         0         0
         0         0         0         0         0         0         0         0
         0         0         0         0         0         0         0         0
         0         0         0         0         0         0         0         0
         0         0         0         0         0         0         0         0
         0         0         0         0         0         0         0         0
         0         0         0         0         0         0         0         0
         0         0         0         0         0         0         0         0
         0         0         0         0         0         0         0         0
         0         0         0         0         0         0         0         0
         0         0         0         0         0         0         0         0
         0         0         0         0         0         0         0         0
         0         0         0         0         0         0         0         0
         0         0         0         0         0         0         0         0
         0         0         0         0         0         0         0         0
         0         0         0         0         0         0         0         0
         0         0         0         0         0         0         0         0
         0         0         0         0         0         0         0         0
         0         0         0         0         0         0         0         0
         0         0         0         0         0         0         0         0
         0         0         0         0         0         0         0         0
         0         0         0         0         0         0         0         0
         0         0         0         0         0         0         0         0
         0         0         0         0         0         0         0         0
         0         0         0         0         0         0         0         0
         0         0         0         0         0         0         0         0
         0         0         0         0         0         0         0         0
         0         0         0         0         0         0         0         0
         0         0         0         0         0         0         0         0
         0         0         0         0         0         0         0         0
         0         0         0         0         0         0         0         0
         0         0         0         0         0         0         0         0
         0         0         0         0         0         0         0         0
         0         0         0         0         0         0         0         0
         0         0         0         0         0         0         0         0
         0         0         0         0         0         0         0         0
         0         0         0         0         0         0         0         0
         0         0         0         0         0         0         0         0
         0         0         0         0         0         0         0         0
         0         0         0         0         0         0         0         0
         0         0         0         0         0         0         0         0
         0         0         0         0         0         0         0         0
         0         0         0         0         0         0         0         0
         0         0         0         0         0         0         0         0
         0         0         0         0         0         0         0         0
         0         0         0         0         0         0         0         0
         0         0         0         0         0         0         0         0
         0         0         0         0         0         0         0         0
         0         0         0         0         0         0         0         0
         0         0         0         0         0         0         0         0
         0         0         0         0         0         0         0         0
         0         0         0         0         0         0         0         0
         0         0         0         0         0         0         0         0
         0         0         0         0         0         0         0         0
         0         0         0         0         0         0         0         0
         0         0         0         0         0         0         0         0
         0         0         0         0         0         0         0         0
         0         0         0         0         0         0         0         0
         0         0         0         0         0         0         0         0
         0         0         0         0         0         0         0         0
         0         0         0         0         0         0         0         0
         0         0         0         0         0         0         0         0
         0         0         0         0         0         0         0         0
         0         0         0         0         0         0         0         0
         0         0         0         0         0         0         0         0
         0         0         0         0         0         0         0         0
         0         0         0         0         0         0         0         0
         0         0         0         0         0         0         0         0
         0         0         0         0         0         0         0         0
         0         0         0         0         0         0         0         0
         0         0         0         0         0         0         0         0
         0         0         0         0         0         0         0         0
         0         0         0         0         0         0         0         0
         0         0         0         0         0         0         0         0
         0         0         0         0         0         0         0         0
         0         0         0         0         0         0         0         0
         0         0         0         0         0         0         0         0
         0         0         0         0         0         0         0         0
         0         0         0         0         0         0         0         0
         0         0         0         0         0         0         0         0
         0         0         0         0         0         0         0         0
         0         0         0         0         0         0         0         0
         0         0         0         0         0         0         0         0
         0         0         0         0         0         0         0         0
         0         0         0         0         0         0         0         0
         0         0         0         0         0         0         0         0
         0         0         0         0         0         0         0         0
         0         0         0         0         0         0         0         0
         0         0         0         0         0         0         0         0
         0         0         0         0         0         0         0         0
         0         0         0         0         0         0         0         0
         0         0         0         0         0         0         0         0
         0         0         0         0         0         0         0         0
         0         0         0         0         0         0         0         0
         0         0         0         0         0         0         0         0
         0         0         0         0         0         0         0         0
         0         0         0         0         0         0         0         0
         0         0         0         0         0         0         0         0
         0         0         0         0         0         0         0         0
         0         0         0         0         0         0         0         0
         0         0         0         0         0         0         0         0
         0         0         0         0         0         0         0         0
         0         0         0         0         0         0         0         0
         0         0         0         0         0         0         0         0
         0         0         0         0         0         0         0         0
         0         0         0         0         0         0         0         0
         0         0         0         0         0         0         0         0
         0         0         0         0         0         0         0         0
         0         0         0         0         0         0         0         0
         0         0         0         0         0         0         0         0
         0         0         0         0         0         0         0         0
         0         0         0         0         0         0         0         0
         0         0         0         0         0         0         0         0
         0         0         0         0         0         0         0         0
         0         0         0         0         0         0         0         0
         0         0         0         0         0         0         0         0
         0         0         0         0         0         0         0         0
         0         0         0         0         0         0         0         0
         0         0         0         0         0         0         0         0
         0         0         0         0         0         0         0         0
         0         0         0         0         0         0         0         0
         0         0         0         0         0         0         0         0
         0         0         0         0         0         0         0         0
         0         0         0         0         0         0         0         0
         0         0         0         0         0         0         0         0
         0         0         0         0         0         0         0         0
         0         0         0         0         0         0         0         0
         0         0         0         0         0         0         0         0
         0         0         0         0         0         0         0         0
         0         0         0         0         0         0         0         0
         0         0         0         0         0         0         0         0
         0         0         0         0         0         0         0         0
         0         0         0         0         0         0         0         0
         0         0         0         0         0         0         0         0
         0         0         0         0         0         0         0         0
         0         0         0         0         0         0         0         0
         0         0         0         0         0         0         0         0
         0         0         0         0         0         0         0         0
         0         0         0         0         0         0         0         0
         0         0         0         0         0         0         0         0
         0         0         0         0         0         0         0         0
         0         0         0         0         0         0         0         0
         0         0         0         0         0         0         0         0
         0         0         0         0         0         0         0         0
         0         0         0         0         0         0         0         0
         0         0         0         0         0         0         0         0
         0         0         0         0         0         0         0         0
         0         0         0         0         0         0         0         0
         0         0         0         0         0         0         0         0
         0         0         0         0         0         0         0         0
         0         0         0         0         0         0         0         0
         0         0         0         0         0         0         0         0
         0         0         0         0         0         0         0         0
         0         0         0         0         0         0         0         0
         0         0         0         0         0         0         0         0
         0         0         0         0         0         0         0         0
         0         0         0         0         0         0         0         0
         0         0         0         0         0         0         0         0
         0         0         0         0         0         0         0         0
         0         0         0         0         0         0         0         0
         0         0         0         0         0         0         0         0
         0         0         0         0         0         0         0         0
         0         0         0         0         0         0         0         0
         0         0         0         0         0         0         0         0
         0         0         0         0         0         0         0         0
         0         0         0         0         0         0         0         0
         0         0         0         0         0         0         0         0
         0         0         0         0         0         0         0         0
         0         0         0         0         0         0         0         0
         0         0         0         0         0         0         0         0
         0         0         0         0         0         0         0         0
         0         0         0         0         0         0         0         0
         0         0         0         0         0         0         0         0
         0         0         0         0         0         0         0         0
         0         0         0         0         0         0         0         0
         0         0         0         0         0         0         0         0
         0         0         0         0         0         0         0         0
         0         0         0         0         0         0         0         0
         0         0         0         0         0         0         0         0
         0         0         0         0         0         0         0         0
         0         0         0         0         0         0         0         0
         0         0         0         0         0         0         0         0
         0         0         0         0         0         0         0         0
         0         0         0         0         0         0         0         0
         0         0         0         0         0         0         0         0
         0         0         0         0         0         0         0         0
         0         0         0         0         0         0         0         0
         0         0         0         0         0         0         0         0
         0         0         0         0         0         0         0         0
         0         0         0         0         0         0         0         0
         0         0         0         0         0         0         0         0
         0         0         0         0         0         0         0         0
         0         0         0         0         0         0         0         0
         0         0         0         0         0         0         0         0
         0         0         0         0         0         0         0         0
         0         0         0         0         0         0         0         0
         0         0         0         0         0         0         0         0
         0         0         0         0         0         0         0         0
         0         0         0         0         0         0         0         0
         0         0         0         0         0         0         0         0
         0         0         0         0         0         0         0         0
         0         0         0         0         0         0         0         0
         0         0         0         0         0         0         0         0
         0         0         0         0         0         0         0         0
         0         0         0         0         0         0         0         0
         0         0         0         0         0         0         0         0
         0         0         0         0         0         0         0         0
         0         0         0         0         0         0         0         0
         0         0         0         0         0         0         0         0
         0         0         0         0         0         0         0         0
         0         0         0         0         0         0         0         0
         0         0         0         0         0         0         0         0
         0         0         0         0         0         0         0         0
         0         0         0         0         0         0         0         0
         0         0         0         0         0         0         0         0
         0         0         0         0         0         0         0         0
         0         0         0         0         0         0         0         0
         0         0         0         0         0         0         0         0
         0         0         0         0         0         0         0         0
         0         0         0         0         0         0         0         0
         0         0         0         0         0         0         0         0
         0         0         0         0         0         0         0         0
         0         0         0         0         0         0         0         0
         0         0         0         0         0         0         0         0
         0         0         0         0         0         0         0         0
         0         0         0         0         0         0         0         0
         0         0         0         0         0         0         0         0
         0         0         0         0         0         0         0         0
         0         0         0         0         0         0         0         0
         0         0         0         0         0         0         0         0
         0         0         0         0         0         0         0         0
         0         0         0         0         0         0         0         0
         0         0         0         0         0         0         0         0
         0         0         0         0         0         0         0         0
         0         0         0         0         0         0         0         0
         0         0         0         0         0         0         0         0
         0         0         0         0         0         0         0         0
         0         0         0         0         0         0         0         0
         0         0         0         0         0         0         0         0
         0         0         0         0         0         0         0         0
         0         0         0         0         0         0         0         0
         0         0         0         0         0         0         0         0
         0         0         0         0         0         0         0         0
         0         0         0         0         0         0         0         0
         0         0         0         0         0         0         0         0
         0         0         0         0         0         0         0         0
         0         0         0         0         0         0         0         0
         0         0         0         0         0         0         0         0
         0         0         0         0         0         0         0         0
         0         0         0         0         0         0         0         0
         0         0         0         0         0         0         0         0
         0         0         0         0         0         0         0         0
         0         0         0         0         0         0         0         0
         0         0         0         0         0         0         0         0
         0         0         0         0         0         0         0         0
         0         0         0         0         0         0         0         0
         0         0         0         0         0         0         0         0
         0         0         0         0         0         0         0         0
         0         0         0         0         0         0         0         0
         0         0         0         0         0         0         0         0
         0         0         0         0         0         0         0         0
         0         0         0         0         0         0         0         0
         0         0         0         0         0         0         0         0
         0         0         0         0         0         0         0         0
         0         0         0         0         0         0         0         0
         0         0         0         0         0         0         0         0
         0         0         0         0         0         0         0         0
         0         0         0         0         0         0         0         0
         0         0         0         0         0         0         0         0
         0         0         0         0         0         0         0         0
         0         0         0         0         0         0         0         0
         0         0         0         0         0         0         0         0
         0         0         0         0         0         0         0         0
         0         0         0         0         0         0         0         0
         0         0         0         0         0         0         0         0
         0         0         0         0         0         0         0         0
         0         0         0         0         0         0         0         0
         0         0         0         0         0         0         0         0
         0         0         0         0         0         0         0         0
         0         0         0         0         0         0         0         0
         0         0         0         0         0         0         0         0
         0         0         0         0         0         0         0         0
         0         0         0         0         0         0         0         0
         0         0         0         0         0         0         0         0
         0         0         0         0         0         0         0         0
         0         0         0         0         0         0         0         0
         0         0         0         0         0         0         0         0
         0         0         0         0         0         0         0         0
         0         0         0         0         0         0         0         0
         0         0         0         0         0         0         0         0
         0         0         0         0         0         0         0         0
         0         0         0         0         0         0         0         0
         0         0         0         0         0         0         0         0
         0         0         0         0         0         0         0         0
         0         0         0         0         0         0         0         0
         0         0         0         0         0         0         0         0
         0         0         0         0         0         0         0         0
         0         0         0         0         0         0         0         0
         0         0         0         0         0         0         0         0
         0         0         0         0         0         0         0         0
         0         0         0         0         0         0         0         0
         0         0         0         0         0         0         0         0
         0         0         0         0         0         0         0         0
         0         0         0         0         0         0         0         0
         0         0         0         0         0         0         0         0
         0         0         0         0         0         0         0         0
         0         0         0         0         0         0         0         0
         0         0         0         0         0         0         0         0
         0         0         0         0         0         0         0         0
         0         0         0         0         0         0         0         0
         0         0         0         0         0         0         0         0
         0         0         0         0         0         0         0         0
         0         0         0         0         0         0         0         0
         0         0         0         0         0         0         0         0
         0         0         0         0         0         0         0         0
         0         0         0         0         0         0         0         0
         0         0         0         0         0         0         0         0
         0         0         0         0         0         0         0         0
         0         0         0         0         0         0         0         0
         0         0         0         0         0         0         0         0
         0         0         0         0         0         0         0         0
         0         0         0         0         0         0         0         0
         0         0         0         0         0         0         0         0
         0         0         0         0         0         0         0         0
         0         0         0         0         0         0         0         0
         0         0         0         0         0         0         0         0
         0         0         0         0         0         0         0         0
         0         0         0         0         0         0         0         0
         0         0         0         0         0         0         0         0
         0         0         0         0         0         0         0         0
         0         0         0         0         0         0         0         0
         0         0         0         0         0         0         0         0
         0         0         0         0         0         0         0         0
         0         0         0         0         0         0         0         0
         0         0         0         0         0         0         0         0
         0         0         0         0         0         0         0         0
         0         0         0         0         0         0         0         0
         0         0         0         0         0         0         0         0
         0         0         0         0         0         0         0         0
         0         0         0         0         0         0         0         0
         0         0         0         0         0         0         0         0
         0         0         0         0         0         0         0         0
         0         0         0         0         0         0         0         0
         0         0         0         0         0         0         0         0
         0         0         0         0         0         0         0         0
         0         0         0         0         0         0         0         0
         0         0         0         0         0         0         0         0
         0         0         0         0         0         0         0         0
         0         0         0         0         0         0         0         0
         0         0         0         0         0         0         0         0
         0         0         0         0         0         0         0         0
         0         0         0         0         0         0         0         0
         0         0         0         0         0         0         0         0
         0         0         0         0         0         0         0         0
         0         0         0         0         0         0         0         0
         0         0         0         0         0         0         0         0
         0         0         0         0         0         0         0         0
         0         0         0         0         0         0         0         0
         0         0         0         0         0         0         0         0
         0         0         0         0         0         0         0         0
         0         0         0         0         0         0         0         0
         0         0         0         0         0         0         0         0
         0         0         0         0         0         0         0         0
         0         0         0         0         0         0         0         0
         0         0         0         0         0         0         0         0
         0         0         0         0         0         0         0         0
         0         0         0         0         0         0         0         0
         0         0         0         0         0         0         0         0
         0         0         0         0         0         0         0         0
         0         0         0         0         0         0         0         0
         0         0         0         0         0         0         0         0
         0         0         0         0         0         0         0         0
         0         0         0         0         0         0         0         0
         0         0         0         0         0         0         0         0
         0         0         0         0         0         0         0         0
         0         0         0         0         0         0         0         0
         0         0         0         0         0         0         0         0
         0         0         0         0         0         0         0         0
         0         0         0         0         0         0         0         0
         0         0         0         0         0         0         0         0
         0         0         0         0         0         0         0         0
         0         0         0         0         0         0         0         0
         0         0         0         0         0         0         0         0
         0         0         0         0         0         0         0         0
         0         0         0         0         0         0         0         0
         0         0         0         0         0         0         0         0
         0         0         0         0         0         0         0         0
         0         0         0         0         0         0         0         0
         0         0         0         0         0         0         0         0
         0         0         0         0         0         0         0         0
         0         0         0         0         0         0         0         0
         0         0         0         0         0         0         0         0
         0         0         0         0         0         0         0         0
         0         0         0         0         0         0         0         0
         0         0         0         0         0         0         0         0
         0         0         0         0         0         0         0         0
         0         0         0         0         0         0         0         0
         0         0         0         0         0         0         0         0
         0         0         0         0         0         0         0         0
         0         0         0         0         0         0         0         0
         0         0         0         0         0         0         0         0
         0         0         0         0         0         0         0         0
         0         0         0         0         0         0         0         0
         0         0         0         0         0         0         0         0
         0         0         0         0         0         0         0         0
         0         0         0         0         0         0         0         0
         0         0         0         0         0         0         0         0
         0         0         0         0         0         0         0         0
         0         0         0         0         0         0         0         0
         0         0         0         0         0         0         0         0
         0         0         0         0         0         0         0         0
         0         0         0         0         0         0         0         0
         0         0         0         0         0         0         0         0
         0         0         0         0         0         0         0         0
         0         0         0         0         0         0         0         0
         0         0         0         0         0         0         0         0
         0         0         0         0         0         0         0         0
         0         0         0         0         0         0         0         0
         0         0         0         0         0         0         0         0
         0         0         0         0         0         0         0         0
         0         0         0         0         0         0         0         0
         0         0         0         0         0         0         0         0
         0         0         0         0         0         0         0         0
         0         0         0         0         0         0         0         0
         0         0         0         0         0         0         0         0
         0         0         0         0         0         0         0         0
         0         0         0         0         0         0         0         0
         0         0         0         0         0         0         0         0
         0         0         0         0         0         0         0         0
         0         0         0         0         0         0         0         0
         0         0         0         0         0         0         0         0
         0         0         0         0         0         0         0         0
         0         0         0         0         0         0         0         0
         0         0         0         0         0         0         0         0
         0         0         0         0         0         0         0         0
         0         0         0         0         0         0         0         0
         0         0         0         0         0         0         0         0
         0         0         0         0         0         0         0         0
         0         0         0         0         0         0         0         0
         0         0         0         0         0         0         0         0
         0         0         0         0         0         0         0         0
         0         0         0         0         0         0         0         0
         0         0         0         0         0         0         0         0
         0         0         0         0         0         0         0         0
         0         0         0         0         0         0         0         0
         0         0         0         0         0         0         0         0
         0         0         0         0         0         0         0         0
         0         0         0         0         0         0         0         0
         0         0         0         0         0         0         0         0
         0         0         0         0         0         0         0         0
         0         0         0         0         0         0         0         0
         0         0         0         0         0         0         0         0
         0         0         0         0         0         0         0         0
         0         0         0         0         0         0         0         0
         0         0         0         0         0         0         0         0
         0         0         0         0         0         0         0         0
         0         0         0         0         0         0         0         0
         0         0         0         0         0         0         0         0
         0         0         0         0         0         0         0         0
         0         0         0         0         0         0         0         0
         0         0         0         0         0         0         0         0
         0         0         0         0         0         0         0         0
         0         0         0         0         0         0         0         0
         0         0         0         0         0         0         0         0
         0         0         0         0         0         0         0         0
         0         0         0         0         0         0         0         0
         0         0         0         0         0         0         0         0
         0         0         0         0         0         0         0         0
         0         0         0         0         0         0         0         0
         0         0         0         0         0         0         0         0
         0         0         0         0         0         0         0         0
         0         0         0         0         0         0         0         0
         0         0         0         0         0         0         0         0
         0         0         0         0         0         0         0         0
         0         0         0         0         0         0         0         0
         0         0         0         0         0         0         0         0
         0         0         0         0         0         0         0         0
         0         0         0         0         0         0         0         0
         0         0         0         0         0         0         0         0
         0         0         0         0         0         0         0         0
         0         0         0         0         0         0         0         0
         0         0         0         0         0         0         0         0
         0         0         0         0         0         0         0         0
         0         0         0         0         0         0         0         0
         0         0         0         0         0         0         0         0
         0         0         0         0         0         0         0         0
         0         0         0         0         0         0         0         0
         0         0         0         0         0         0         0         0
         0         0         0         0         0         0         0         0
         0         0         0         0         0         0         0         0
         0         0         0         0         0         0         0         0
         0         0         0         0         0         0         0         0
         0         0         0         0         0         0         0         0
         0         0         0         0         0         0         0         0
         0         0         0         0         0         0         0         0
         0         0         0         0         0         0         0         0
         0         0         0         0         0         0         0         0
         0         0         0         0         0         0         0         0
         0         0         0         0         0         0         0         0
         0         0         0         0         0         0         0         0
         0         0         0         0         0         0         0         0
         0         0         0         0         0         0         0         0
         0         0         0         0         0         0         0         0
         0         0         0         0         0         0         0         0
         0         0         0         0         0         0         0         0
         0         0         0         0         0         0         0         0
         0         0         0         0         0         0         0         0
         0         0         0         0         0         0         0         0
         0         0         0         0         0         0         0         0
         0         0         0         0         0         0         0         0
         0         0         0         0         0         0         0         0
         0         0         0         0         0         0         0         0
         0         0         0         0         0         0         0         0
         0         0         0         0         0         0         0         0
         0         0         0         0         0         0         0         0
         0         0         0         0         0         0         0         0
         0         0         0         0         0         0         0         0
         0         0         0         0         0         0         0         0
         0         0         0         0         0         0         0         0
         0         0         0         0         0         0         0         0
         0         0         0         0         0         0         0         0
         0         0         0         0         0         0         0         0
         0         0         0         0         0         0         0         0
         0         0         0         0         0         0         0         0
         0         0         0         0         0         0         0         0
         0         0         0         0         0         0         0         0
         0         0         0         0         0         0         0         0
         0         0         0         0         0         0         0         0
         0         0         0         0         0         0         0         0
         0         0         0         0         0         0         0         0
         0         0         0         0         0         0         0         0
         0         0         0         0         0         0         0         0
         0         0         0         0         0         0         0         0
         0         0         0         0         0         0         0         0
         0         0         0         0         0         0         0         0
         0         0         0         0         0         0         0         0
         0         0         0         0         0         0         0         0
         0         0         0         0         0         0         0         0
         0         0         0         0         0         0         0         0
         0         0         0         0         0         0         0         0
         0         0         0         0         0         0         0         0
         0         0         0         0         0         0         0         0
         0         0         0         0         0         0         0         0
         0         0         0         0         0         0         0         0
         0         0         0         0         0         0         0         0
         0         0         0         0         0         0         0         0
         0         0         0         0         0         0         0         0
         0         0         0         0         0         0         0         0
         0         0         0         0         0         0         0         0
         0         0         0         0         0         0         0         0
         0         0         0         0         0         0         0         0
         0         0         0         0         0         0         0         0
         0         0         0         0         0         0         0         0
         0         0         0         0         0         0         0         0
         0         0         0         0         0         0         0         0
         0         0         0         0         0         0         0         0
         0         0         0         0         0         0         0         0
         0         0         0         0         0         0         0         0
         0         0         0         0         0         0         0         0
         0         0         0         0         0         0         0         0
         0         0         0         0         0         0         0         0
         0         0         0         0         0         0         0         0
         0         0         0         0         0         0         0         0
         0         0         0         0         0         0         0         0
         0         0         0         0         0         0         0         0
         0         0         0         0         0         0         0         0
         0         0         0         0         0         0         0         0
         0         0         0         0         0         0         0         0
         0         0         0         0         0         0         0         0
         0         0         0         0         0         0         0         0
         0         0         0         0         0         0         0         0
         0         0         0         0         0         0         0         0
         0         0         0         0         0         0         0         0
         0         0         0         0         0         0         0         0
         0         0         0         0         0         0         0         0
         0         0         0         0         0         0         0         0
         0         0         0         0         0         0         0         0
         0         0         0         0         0         0         0         0
         0         0         0         0         0         0         0         0
         0         0         0         0         0         0         0         0
         0         0         0         0         0         0         0         0
         0         0         0         0         0         0         0         0
         0         0         0         0         0         0         0         0
         0         0         0         0         0         0         0         0
         0         0         0         0         0         0         0         0
         0         0         0         0         0         0         0         0
         0         0         0         0         0         0         0         0
         0         0         0         0         0         0         0         0
         0         0         0         0         0         0         0         0
         0         0         0         0         0         0         0         0
         0         0         0         0         0         0         0         0
         0         0         0         0         0         0         0         0
         0         0         0         0         0         0         0         0
         0         0         0         0         0         0         0         0
         0         0         0         0         0         0         0         0
         0         0         0         0         0         0         0         0
         0         0         0         0         0         0         0         0
         0         0         0         0         0         0         0         0
         0         0         0         0         0         0         0         0
         0         0         0         0         0         0         0         0
         0         0         0         0         0         0         0         0
         0         0         0         0         0         0         0         0
         0         0         0         0         0         0         0         0
         0         0         0         0         0         0         0         0
         0         0         0         0         0         0         0         0
         0         0         0         0         0         0         0         0
         0         0         0         0         0         0         0         0
         0         0         0         0         0         0         0         0
         0         0         0         0         0         0         0         0
         0         0         0         0         0         0         0         0
         0         0         0         0         0         0         0         0
         0         0         0         0         0         0         0         0
         0         0         0         0         0         0         0         0
         0         0         0         0         0         0         0         0
         0         0         0         0         0         0         0         0
         0         0         0         0         0         0         0         0
         0         0         0         0         0         0         0         0
         0         0         0         0         0         0         0         0
         0         0         0         0         0         0         0         0
         0         0         0         0         0         0         0         0
         0         0         0         0         0         0         0         0
         0         0         0         0         0         0         0         0
         0         0         0         0         0         0         0         0
         0         0         0         0         0         0         0         0
         0         0         0         0         0         0         0         0
         0         0         0         0         0         0         0         0
         0         0         0         0         0         0         0         0
         0         0         0         0         0         0         0         0
         0         0         0         0         0         0         0         0
         0         0         0         0         0         0         0         0
         0         0         0         0         0         0         0         0
         0         0         0         0         0         0         0         0
         0         0         0         0         0         0         0         0
         0         0         0         0         0         0         0         0
         0         0         0         0         0         0         0         0
         0         0         0         0         0         0         0         0
         0         0         0         0         0         0         0         0
         0         0         0         0         0         0         0         0
         0         0         0         0         0         0         0         0
         0         0         0         0         0         0         0         0
         0         0         0         0         0         0         0         0
         0         0         0         0         0         0         0         0
         0         0         0         0         0         0         0         0
         0         0         0         0         0         0         0         0
         0         0         0         0         0         0         0         0
         0         0         0         0         0         0         0         0
         0         0         0         0         0         0         0         0
         0         0         0         0         0         0         0         0
         0         0         0         0         0         0         0         0
         0         0         0         0         0         0         0         0
         0         0         0         0         0         0         0         0
         0         0         0         0         0         0         0         0
         0         0         0         0         0         0         0         0
         0         0         0         0         0         0         0         0
         0         0         0         0         0         0         0         0
         0         0         0         0         0         0         0         0
         0         0         0         0         0         0         0         0
         0         0         0         0         0         0         0         0
         0         0         0         0         0         0         0         0
         0         0         0         0         0         0         0         0
         0         0         0         0         0         0         0         0
         0         0         0         0         0         0         0         0
         0         0         0         0         0         0         0         0
         0         0         0         0         0         0         0         0
         0         0         0         0         0         0         0         0
         0         0         0         0         0         0         0         0
         0         0         0         0         0         0         0         0
         0         0         0         0         0         0         0         0
         0         0         0         0         0         0         0         0
         0         0         0         0         0         0         0         0
         0         0         0         0         0         0         0         0
         0         0         0         0         0         0         0         0
         0         0         0         0         0         0         0         0
         0         0         0         0         0         0         0         0
         0         0         0         0         0         0         0         0
         0         0         0         0         0         0         0         0
         0         0         0         0         0         0         0         0
         0         0         0         0         0         0         0         0
         0         0         0         0         0         0         0         0
         0         0         0         0         0         0         0         0
         0         0         0         0         0         0         0         0
         0         0         0         0         0         0         0         0
         0         0         0         0         0         0         0         0
         0         0         0         0         0         0         0         0
         0         0         0         0         0         0         0         0
         0         0         0         0         0         0         0         0
         0         0         0         0         0         0         0         0
         0         0         0         0         0         0         0         0
         0         0         0         0         0         0         0         0
         0         0         0         0         0         0         0         0
         0         0         0         0         0         0         0         0
         0         0         0         0         0         0         0         0
         0         0         0         0         0         0         0         0
         0         0         0         0         0         0         0         0
         0         0         0         0         0         0         0         0
         0         0         0         0         0         0         0         0
         0         0         0         0         0         0         0         0
         0         0         0         0         0         0         0         0
         0         0         0         0         0         0         0         0
         0         0         0         0         0         0         0         0
         0         0         0         0         0         0         0         0
         0         0         0         0         0         0         0         0
         0         0         0         0         0         0         0         0
         0         0         0         0         0         0         0         0
         0         0         0         0         0         0         0         0
         0         0         0         0         0         0         0         0
         0         0         0         0         0         0         0         0
         0         0         0         0         0         0         0         0
         0         0         0         0         0         0         0         0
         0         0         0         0         0         0         0         0
         0         0         0         0         0         0         0         0
         0         0         0         0         0         0         0         0
         0         0         0         0         0         0         0         0
         0         0         0         0         0         0         0         0
         0         0         0         0         0         0         0         0
         0         0         0         0         0         0         0         0
         0         0         0         0         0         0         0         0
         0         0         0         0         0         0         0         0
         0         0         0         0         0         0         0         0
         0         0         0         0         0         0         0         0
         0         0         0         0         0         0         0         0
         0         0         0         0         0         0         0         0
         0         0         0         0         0         0         0         0
         0         0         0         0         0         0         0         0
         0         0         0         0         0         0         0         0
         0         0         0         0         0         0         0         0
         0         0         0         0         0         0         0         0
         0         0         0         0         0         0         0         0
         0         0         0         0         0         0         0         0
         0         0         0         0         0         0         0         0
         0         0         0         0         0         0         0         0
         0         0         0         0         0         0         0         0
         0         0         0         0         0         0         0         0
         0         0         0         0         0         0         0         0
         0         0         0         0         0         0         0         0
         0         0         0         0         0         0         0         0
         0         0         0         0         0         0         0         0
         0         0         0         0         0         0         0         0
         0         0         0         0         0         0         0         0
         0         0         0         0         0         0         0         0
         0         0         0         0         0         0         0         0
         0         0         0         0         0         0         0         0
         0         0         0         0         0         0         0         0
         0         0         0         0         0         0         0         0
         0         0         0         0         0         0         0         0
         0         0         0         0         0         0         0         0
         0         0         0         0         0         0         0         0
         0         0         0         0         0         0         0         0
         0         0         0         0         0         0         0         0
         0         0         0         0         0         0         0         0
         0         0         0         0         0         0         0         0
         0         0         0         0         0         0         0         0
         0         0         0         0         0         0         0         0
         0         0         0         0         0         0         0         0
         0         0         0         0         0         0         0         0
         0         0         0         0         0         0         0         0
         0         0         0         0         0         0         0         0
         0         0         0         0         0         0         0         0
         0         0         0         0         0         0         0         0
         0         0         0         0         0         0         0         0
         0         0         0         0         0         0         0         0
         0         0         0         0         0         0         0         0
         0         0         0         0         0         0         0         0
         0         0         0         0         0         0         0         0
         0         0         0         0         0         0         0         0
         0         0         0         0         0         0         0         0
         0         0         0         0         0         0         0         0
         0         0         0         0         0         0         0         0
         0         0         0         0         0         0         0         0
         0         0         0         0         0         0         0         0
         0         0         0         0         0         0         0         0
         0         0         0         0         0         0         0         0
         0         0         0         0         0         0         0         0
         0         0         0         0         0         0         0         0
         0         0         0         0         0         0         0         0
         0         0         0         0         0         0         0         0
         0         0         0         0         0         0         0         0
         0         0         0         0         0         0         0         0
         0         0         0         0         0         0         0         0
         0         0         0         0         0         0         0         0
         0         0         0         0         0         0         0         0
         0         0         0         0         0         0         0         0
         0         0         0         0         0         0         0         0
         0         0         0         0         0         0         0         0
         0         0         0         0         0         0         0         0
         0         0         0         0         0         0         0         0
         0         0         0         0         0         0         0         0
         0         0         0         0         0         0         0         0
         0         0         0         0         0         0         0         0
         0         0         0         0         0         0         0         0
         0         0         0         0         0         0         0         0
         0         0         0         0         0         0         0         0
         0         0         0         0         0         0         0         0
         0         0         0         0         0         0         0         0
         0         0         0         0         0         0         0         0
         0         0         0         0         0         0         0         0
         0         0         0         0         0         0         0         0
         0         0         0         0         0         0         0         0
         0         0         0         0         0         0         0         0
         0         0         0         0         0         0         0         0
         0         0         0         0         0         0         0         0
         0         0         0         0         0         0         0         0
         0         0         0         0         0         0         0         0
         0         0         0         0         0         0         0         0
         0         0         0         0         0         0         0         0
         0         0         0         0         0         0         0         0
         0         0         0         0         0         0         0         0
         0         0         0         0         0         0         0         0
         0         0         0         0         0         0         0         0
         0         0         0         0         0         0         0         0
         0         0         0         0         0         0         0         0
         0         0         0         0         0         0         0         0
         0         0         0         0         0         0         0         0
         0         0         0         0         0         0         0         0
         0         0         0         0         0         0         0         0
         0         0         0         0         0         0         0         0
         0         0         0         0         0         0         0         0
         0         0         0         0         0         0         0         0
         0         0         0         0         0         0         0         0
         0         0         0         0         0         0         0         0
         0         0         0         0         0         0         0         0
         0         0         0         0         0         0         0         0
         0         0         0         0         0         0         0         0
         0         0         0         0         0         0         0         0
         0         0         0         0         0         0         0         0
         0         0         0         0         0         0         0         0
         0         0         0         0         0         0         0         0
         0         0         0         0         0         0         0         0
         0         0         0         0         0         0         0         0
         0         0         0         0         0         0         0         0
         0         0         0         0         0         0         0         0
         0         0         0         0         0         0         0         0
         0         0         0         0         0         0         0         0
         0         0         0         0         0         0         0         0
         0         0         0         0         0         0         0         0
         0         0         0         0         0         0         0         0
         0         0         0         0         0         0         0         0
         0         0         0         0         0         0         0         0
         0         0         0         0         0         0         0         0
         0         0         0         0         0         0         0         0
         0         0         0         0         0         0         0         0
         0         0         0         0         0         0         0         0
         0         0         0         0         0         0         0         0
         0         0         0         0         0         0         0         0
         0         0         0         0         0         0         0         0
         0         0         0         0         0         0         0         0
         0         0         0         0         0         0         0         0
         0         0         0         0         0         0         0         0
         0         0         0         0         0         0         0         0
         0         0         0         0         0         0         0         0
         0         0         0         0         0         0         0         0
         0         0         0         0         0         0         0         0
         0         0         0         0         0         0         0         0
         0         0         0         0         0         0         0         0
         0         0         0         0         0         0         0         0
         0         0         0         0         0         0         0         0
         0         0         0         0         0         0         0         0
         0         0         0         0         0         0         0         0
         0         0         0         0         0         0         0         0
         0         0         0         0         0         0         0         0
         0         0         0         0         0         0         0         0
         0         0         0         0         0         0         0         0
         0         0         0         0         0         0         0         0
         0         0         0         0         0         0         0         0
         0         0         0         0         0         0         0         0
         0         0         0         0         0         0         0         0
         0         0         0         0         0         0         0         0
         0         0         0         0         0         0         0         0
         0         0         0         0         0         0         0         0
         0         0         0         0         0         0         0         0
         0         0         0         0         0         0         0         0
         0         0         0         0         0         0         0         0
         0         0         0         0         0         0         0         0
         0         0         0         0         0         0         0         0
         0         0         0         0         0         0         0         0
         0         0         0         0         0         0         0         0
         0         0         0         0         0         0         0         0
         0         0         0         0         0         0         0         0
         0         0         0         0         0         0         0         0
         0         0         0         0         0         0         0         0
         0         0         0         0         0         0         0         0
         0         0         0         0         0         0         0         0
         0         0         0         0         0         0         0         0
         0         0         0         0         0         0         0         0
         0         0         0         0         0         0         0         0
         0         0         0         0         0         0         0         0
         0         0         0         0         0         0         0         0
         0         0         0         0         0         0         0         0
         0         0         0         0         0         0         0         0
         0         0         0         0         0         0         0         0
         0         0         0         0         0         0         0         0
         0         0         0         0         0         0         0         0
         0         0         0         0         0         0         0         0
         0         0         0         0         0         0         0         0
         0         0         0         0         0         0         0         0
         0         0         0         0         0         0         0         0
         0         0         0         0         0         0         0         0
         0         0         0         0         0         0         0         0
         0         0         0         0         0         0         0         0
         0         0         0         0         0         0         0         0
         0         0         0         0         0         0         0         0
         0         0         0         0         0         0         0         0
         0         0         0         0         0         0         0         0
         0         0         0         0         0         0         0         0
         0         0         0         0         0         0         0         0
         0         0         0         0         0         0         0         0
         0         0         0         0         0         0         0         0
         0         0         0         0         0         0         0         0
         0         0         0         0         0         0         0         0
         0         0         0         0         0         0         0         0
         0         0         0         0         0         0         0         0
         0         0         0         0         0         0         0         0
         0         0         0         0         0         0         0         0
         0         0         0         0         0         0         0         0
         0         0         0         0         0         0         0         0
         0         0         0         0         0         0         0         0
         0         0         0         0         0         0         0         0
         0         0         0         0         0         0         0         0
         0         0         0         0         0         0         0         0
         0         0         0         0         0         0         0         0
         0         0         0         0         0         0         0         0
         0         0         0         0         0         0         0         0
         0         0         0         0         0         0         0         0
         0         0         0         0         0         0         0         0
         0         0         0         0         0         0         0         0
         0         0         0         0         0         0         0         0
         0         0         0         0         0         0         0         0
         0         0         0         0         0         0         0         0
         0         0         0         0         0         0         0         0
         0         0         0         0         0         0         0         0
         0         0         0         0         0         0         0         0
         0         0         0         0         0         0         0         0
         0         0         0         0         0         0         0         0
         0         0         0         0         0         0         0         0
         0         0         0         0         0         0         0         0
         0         0         0         0         0         0         0         0
         0         0         0         0         0         0         0         0
         0         0         0         0         0         0         0         0
         0         0         0         0         0         0         0         0
         0         0         0         0         0         0         0         0
         0         0         0         0         0         0         0         0
         0         0         0         0         0         0         0         0
         0         0         0         0         0         0         0         0
         0         0         0         0         0         0         0         0
         0         0         0         0         0         0         0         0
         0         0         0         0         0         0         0         0
         0         0         0         0         0         0         0         0
         0         0         0         0         0         0         0         0
         0         0         0         0         0         0         0         0
         0         0         0         0         0         0         0         0
         0         0         0         0         0         0         0         0
         0         0         0         0         0         0         0         0
         0         0         0         0         0         0         0         0
         0         0         0         0         0         0         0         0
         0         0         0         0         0         0         0         0
         0         0         0         0         0         0         0         0
         0         0         0         0         0         0         0         0
         0         0         0         0         0         0         0         0
         0         0         0         0         0         0         0         0
         0         0         0         0         0         0         0         0
         0         0         0         0         0         0         0         0
         0         0         0         0         0         0         0         0
         0         0         0         0         0         0         0         0
         0         0         0         0         0         0         0         0
         0         0         0         0         0         0         0         0
         0         0         0         0         0         0         0         0
         0         0         0         0         0         0         0         0
         0         0         0         0         0         0         0         0
         0         0         0         0         0         0         0         0
         0         0         0         0         0         0         0         0
         0         0         0         0         0         0         0         0
         0         0         0         0         0         0         0         0
         0         0         0         0         0         0         0         0
         0         0         0         0         0         0         0         0
         0         0         0         0         0         0         0         0
         0         0         0         0         0         0         0         0
         0         0         0         0         0         0         0         0
         0         0         0         0         0         0         0         0
         0         0         0         0         0         0         0         0
         0         0         0         0         0         0         0         0
         0         0         0         0         0         0         0         0
         0         0         0         0         0         0         0         0
         0         0         0         0         0         0         0         0
         0         0         0         0         0         0         0         0
         0         0         0         0         0         0         0         0
         0         0         0         0         0         0         0         0
         0         0         0         0         0         0         0         0
         0         0         0         0         0         0         0         0
         0         0         0         0         0         0         0         0
         0         0         0         0         0         0         0         0
         0         0         0         0         0         0         0         0
         0         0         0         0         0         0         0         0
         0         0         0         0         0         0         0         0
         0         0         0         0         0         0         0         0
         0         0         0         0         0         0         0         0
         0         0         0         0         0         0         0         0
         0         0         0         0         0         0         0         0
         0         0         0         0         0         0         0         0
         0         0         0         0         0         0         0         0
         0         0         0         0         0         0         0         0
         0         0         0         0         0         0         0         0
         0         0         0         0         0         0         0         0
         0         0         0         0         0         0         0         0
         0         0         0         0         0         0         0         0
         0         0         0         0         0         0         0         0
         0         0         0         0         0         0         0         0
         0         0         0         0         0         0         0         0
         0         0         0         0         0         0         0         0
         0         0         0         0         0         0         0         0
         0         0         0         0         0         0         0         0
         0         0         0         0         0         0         0         0
         0         0         0         0         0         0         0         0
         0         0         0         0         0         0         0         0
         0         0         0         0         0         0         0         0
         0         0         0         0         0         0         0         0
         0         0         0         0         0         0         0         0
         0         0         0         0         0         0         0         0
         0         0         0         0         0         0         0         0
         0         0         0         0         0         0         0         0
         0         0         0         0         0         0         0         0
         0         0         0         0         0         0         0         0
         0         0         0         0         0         0         0         0
         0         0         0         0         0         0         0         0
         0         0         0         0         0         0         0         0
         0         0         0         0         0         0         0         0
         0         0         0         0         0         0         0         0
         0         0         0         0         0         0         0         0
         0         0         0         0         0         0         0         0
         0         0         0         0         0         0         0         0
         0         0         0         0         0         0         0         0
         0         0         0         0         0         0         0         0
         0         0         0         0         0         0         0         0
         0         0         0         0         0         0         0         0
         0         0         0         0         0         0         0         0
         0         0         0         0         0         0         0         0
         0         0         0         0         0         0         0         0
         0         0         0         0         0         0         0         0
         0         0         0         0         0         0         0         0
         0         0         0         0         0         0         0         0
         0         0         0         0         0         0         0         0
         0         0         0         0         0         0         0         0
         0         0         0         0         0         0         0         0
         0         0         0         0         0         0         0         0
         0         0         0         0         0         0         0         0
         0         0         0         0         0         0         0         0
         0         0         0         0         0         0         0         0
         0         0         0         0         0         0         0         0
         0         0         0         0         0         0         0         0
         0         0         0         0         0         0         0         0
         0         0         0         0         0         0         0         0
         0         0         0         0         0         0         0         0
         0         0         0         0         0         0         0         0
         0         0         0         0         0         0         0         0
         0         0         0         0         0         0         0         0
         0         0         0         0         0         0         0         0
         0         0         0         0         0         0         0         0
         0         0         0         0         0         0         0         0
         0         0         0         0         0         0         0         0
         0         0         0         0         0         0         0         0
         0         0         0         0         0         0         0         0
         0         0         0         0         0         0         0         0
         0         0         0         0         0         0         0         0
         0         0         0         0         0         0         0         0
         0         0         0         0         0         0         0         0
         0         0         0         0         0         0         0         0
         0         0         0         0         0         0         0         0
         0         0         0         0         0         0         0         0
         0         0         0         0         0         0         0         0
         0         0         0         0         0         0         0         0
         0         0         0         0         0         0         0         0
         0         0         0         0         0         0         0         0
         0         0         0         0         0         0         0         0
         0         0         0         0         0         0         0         0
         0         0         0         0         0         0         0         0
         0         0         0         0         0         0         0         0
         0         0         0         0         0         0         0         0
         0         0         0         0         0         0         0         0
         0         0         0         0         0         0         0         0
         0         0         0         0         0         0         0         0
         0         0         0         0         0         0         0         0
         0         0         0         0         0         0         0         0
         0         0         0         0         0         0         0         0
         0         0         0         0         0         0         0         0
         0         0         0         0         0         0         0         0
         0         0         0         0         0         0         0         0
         0         0         0         0         0         0         0         0
         0         0         0         0         0         0         0         0
         0         0         0         0         0         0         0         0
         0         0         0         0         0         0         0         0
         0         0         0         0         0         0         0         0
         0         0         0         0         0         0         0         0
         0         0         0         0         0         0         0         0
         0         0         0         0         0         0         0         0
         0         0         0         0         0         0         0         0
         0         0         0         0         0         0         0         0
         0         0         0         0         0         0         0         0
         0         0         0         0         0         0         0         0
         0         0         0         0         0         0         0         0
         0         0         0         0         0         0         0         0
         0         0         0         0         0         0         0         0
         0         0         0         0         0         0         0         0
         0         0         0         0         0         0         0         0
         0         0         0         0         0         0         0         0
         0         0         0         0         0         0         0         0
         0         0         0         0         0         0         0         0
         0         0         0         0         0         0         0         0
         0         0         0         0         0         0         0         0
         0         0         0         0         0         0         0         0
         0         0         0         0         0         0         0         0
         0         0         0         0         0         0         0         0
         0         0         0         0         0         0         0         0
         0         0         0         0         0         0         0         0
         0         0         0         0         0         0         0         0
         0         0         0         0         0         0         0         0
         0         0         0         0         0         0         0         0
         0         0         0         0         0         0         0         0
         0         0         0         0         0         0         0         0
         0         0         0         0         0         0         0         0
         0         0         0         0         0         0         0         0
         0         0         0         0         0         0         0         0
         0         0         0         0         0         0         0         0
         0         0         0         0         0         0         0         0
         0         0         0         0         0         0         0         0
         0         0         0         0         0         0         0         0
         0         0         0         0         0         0         0         0
         0         0         0         0         0         0         0         0
         0         0         0         0         0         0         0         0
         0         0         0         0         0         0         0         0
         0         0         0         0         0         0         0         0
         0         0         0         0         0         0         0         0
         0         0         0         0         0         0         0         0
         0         0         0         0         0         0         0         0
         0         0         0         0         0         0         0         0
         0         0         0         0         0         0         0         0
         0         0         0         0         0         0         0         0
         0         0         0         0         0         0         0         0
         0         0         0         0         0         0         0         0
         0         0         0         0         0         0         0         0
         0         0         0         0         0         0         0         0
         0         0         0         0         0         0         0         0
         0         0         0         0         0         0         0         0
         0         0         0         0         0         0         0         0
         0         0         0         0         0         0         0         0
         0         0         0         0         0         0         0         0
         0         0         0         0         0         0         0         0
         0         0         0         0         0         0         0         0
         0         0         0         0         0         0         0         0
         0         0         0         0         0         0         0         0
         0         0         0         0         0         0         0         0
         0         0         0         0         0         0         0         0
         0         0         0         0         0         0         0         0
         0         0         0         0         0         0         0         0
         0         0         0         0         0         0         0         0
         0         0         0         0         0         0         0         0
         0         0         0         0         0         0         0         0
         0         0         0         0         0         0         0         0
         0         0         0         0         0         0         0         0
         0         0         0         0         0         0         0         0
         0         0         0         0         0         0         0         0
         0         0         0         0         0         0         0         0
         0         0         0         0         0         0         0         0
         0         0         0         0         0         0         0         0
         0         0         0         0         0         0         0         0
         0         0         0         0         0         0         0         0
         0         0         0         0         0         0         0         0
         0         0         0         0         0         0         0         0
         0         0         0         0         0         0         0         0
         0         0         0         0         0         0         0         0
         0         0         0         0         0         0         0         0
         0         0         0         0         0         0         0         0
         0         0         0         0         0         0         0         0
         0         0         0         0         0         0         0         0
         0         0         0         0         0         0         0         0
         0         0         0         0         0         0         0         0
         0         0         0         0         0         0         0         0
         0         0         0         0         0         0         0         0
         0         0         0         0         0         0         0         0
         0         0         0         0         0         0         0         0
         0         0         0         0         0         0         0         0
         0         0         0         0         0         0         0         0
         0         0         0         0         0         0         0         0
         0         0         0         0         0         0         0         0
         0         0         0         0         0         0         0         0
         0         0         0         0         0         0         0         0
         0         0         0         0         0         0         0         0
         0         0         0         0         0         0         0         0
         0         0         0         0         0         0         0         0
         0         0         0         0         0         0         0         0
         0         0         0         0         0         0         0         0
         0         0         0         0         0         0         0         0
         0         0         0         0         0         0         0         0
         0         0         0         0         0         0         0         0
         0         0         0         0         0         0         0         0
         0         0         0         0         0         0         0         0
         0         0         0         0         0         0         0         0
         0         0         0         0         0         0         0         0
         0         0         0         0         0         0         0         0
         0         0         0         0         0         0         0         0
         0         0         0         0         0         0         0         0
         0         0         0         0         0         0         0         0
         0         0         0         0         0         0         0         0
         0         0         0         0         0         0         0         0
         0         0         0         0         0         0         0         0
         0         0         0         0         0         0         0         0
         0         0         0         0         0         0         0         0
         0         0         0         0         0         0         0         0
         0         0         0         0         0         0         0         0
         0         0         0         0         0         0         0         0
         0         0         0         0         0         0         0         0
         0         0         0         0         0         0         0         0
         0         0         0         0         0         0         0         0
         0         0         0         0         0         0         0         0
         0         0         0         0         0         0         0         0
         0         0         0         0         0         0         0         0
         0         0         0         0         0         0         0         0
         0         0         0         0         0         0         0         0
         0         0         0         0         0         0         0         0
         0         0         0         0         0         0         0         0
         0         0         0         0         0         0         0         0
         0         0         0         0         0         0         0         0
         0         0         0         0         0         0         0         0
         0         0         0         0         0         0         0         0
         0         0         0         0         0         0         0         0
         0         0         0         0         0         0         0         0
         0         0         0         0         0         0         0         0
         0         0         0         0         0         0         0         0
         0         0         0         0         0         0         0         0
         0         0         0         0         0         0         0         0
         0         0         0         0         0         0         0         0
         0         0         0         0         0         0         0         0
         0         0         0         0         0         0         0         0
         0         0         0         0         0         0         0         0
         0         0         0         0         0         0         0         0
         0         0         0         0         0         0         0         0
         0         0         0         0         0         0         0         0
         0         0         0         0         0         0         0         0
         0         0         0         0         0         0         0         0
         0         0         0         0         0         0         0         0
         0         0         0         0         0         0         0         0
         0         0         0         0         0         0         0         0
         0         0         0         0         0         0         0         0
         0         0         0         0         0         0         0         0
         0         0         0         0         0         0         0         0
         0         0         0         0         0         0         0         0
         0         0         0         0         0         0         0         0
         0         0         0         0         0         0         0         0
         0         0         0         0         0         0         0         0
         0         0         0         0         0         0         0         0
         0         0         0         0         0         0         0         0
         0         0         0         0         0         0         0         0
         0         0         0         0         0         0         0         0
         0         0         0         0         0         0         0         0
         0         0         0         0         0         0         0         0
         0         0         0         0         0         0         0         0
         0         0         0         0         0         0         0         0
         0         0         0         0         0         0         0         0
         0         0         0         0         0         0         0         0
         0         0         0         0         0         0         0         0
         0         0         0         0         0         0         0         0
         0         0         0         0         0         0         0         0
         0         0         0         0         0         0         0         0
         0         0         0         0         0         0         0         0
         0         0         0         0         0         0         0         0
         0         0         0         0         0         0         0         0
         0         0         0         0         0         0         0         0
         0         0         0         0         0         0         0         0
         0         0         0         0         0         0         0         0
         0         0         0         0         0         0         0         0
         0         0         0         0         0         0         0         0
         0         0         0         0         0         0         0         0
         0         0         0         0         0         0         0         0
         0         0         0         0         0         0         0         0
         0         0         0         0         0         0         0         0
         0         0         0         0         0         0         0         0
         0         0         0         0         0         0         0         0
         0         0         0         0         0         0         0         0
         0         0         0         0         0         0         0         0
         0         0         0         0         0         0         0         0
         0         0         0         0         0         0         0         0
         0         0         0         0         0         0         0         0
         0         0         0         0         0         0         0         0
         0         0         0         0         0         0         0         0
         0         0         0         0         0         0         0         0
         0         0         0         0         0         0         0         0
         0         0         0         0         0         0         0         0
         0         0         0         0         0         0         0         0
         0         0         0         0         0         0         0         0
         0         0         0         0         0         0         0         0
         0         0         0         0         0         0         0         0
         0         0         0         0         0         0         0         0
         0         0         0         0         0         0         0         0
         0         0         0         0         0         0         0         0
         0         0         0         0         0         0         0         0
         0         0         0         0         0         0         0         0
         0         0         0         0         0         0         0         0
         0         0         0         0         0         0         0         0
         0         0         0         0         0         0         0         0
         0         0         0         0         0         0         0         0
         0         0         0         0         0         0         0         0
         0         0         0         0         0         0         0         0
         0         0         0         0         0         0         0         0
         0         0         0         0         0         0         0         0
         0         0         0         0         0         0         0         0
         0         0         0         0         0         0         0         0
         0         0         0         0         0         0         0         0
         0         0         0         0         0         0         0         0
         0         0         0         0         0         0         0         0
         0         0         0         0         0         0         0         0
         0         0         0         0         0         0         0         0
         0         0         0         0         0         0         0         0
         0         0         0         0         0         0         0         0
         0         0         0         0         0         0         0         0
         0         0         0         0         0         0         0         0
         0         0         0         0         0         0         0         0
         0         0         0         0         0         0         0         0
         0         0         0         0         0         0         0         0
         0         0         0         0         0         0         0         0
         0         0         0         0         0         0         0         0
         0         0         0         0         0         0         0         0
         0         0         0         0         0         0         0         0
         0         0         0         0         0         0         0         0
         0         0         0         0         0         0         0         0
         0         0         0         0         0         0         0         0
         0         0         0         0         0         0         0         0
         0         0         0         0         0         0         0         0
         0         0         0         0         0         0         0         0
         0         0         0         0         0         0         0         0
         0         0         0         0         0         0         0         0
         0         0         0         0         0         0         0         0
         0         0         0         0         0         0         0         0
         0         0         0         0         0         0         0         0
         0         0         0         0         0         0         0         0
         0         0         0         0         0         0         0         0
         0         0         0         0         0         0         0         0
         0         0         0         0         0         0         0         0
         0         0         0         0         0         0         0         0
         0         0         0         0         0         0         0         0
         0         0         0         0         0         0         0         0
         0         0         0         0         0         0         0         0
         0         0         0         0         0         0         0         0
         0         0         0         0         0         0         0         0
         0         0         0         0         0         0         0         0
         0         0         0         0         0         0         0         0
         0         0         0         0         0         0         0         0
         0         0         0         0         0         0         0         0
         0         0         0         0         0         0         0         0
         0         0         0         0         0         0         0         0
         0         0         0         0         0         0         0         0
         0         0         0         0         0         0         0         0
         0         0         0         0         0         0         0         0
         0         0         0         0         0         0         0         0
         0         0         0         0         0         0         0         0
         0         0         0         0         0         0         0         0
         0         0         0         0         0         0         0         0
         0         0         0         0         0         0         0         0
         0         0         0         0         0         0         0         0
         0         0         0         0         0         0         0         0
         0         0         0         0         0         0         0         0
         0         0         0         0         0         0         0         0
         0         0         0         0         0         0         0         0
         0         0         0         0         0         0         0         0
         0         0         0         0         0         0         0         0
         0         0         0         0         0         0         0         0
         0         0         0         0         0         0         0         0
         0         0         0         0         0         0         0         0
         0         0         0         0         0         0         0         0
         0         0         0         0         0         0         0         0
         0         0         0         0         0         0         0         0
         0         0         0         0         0         0         0         0
         0         0         0         0         0         0         0         0
         0         0         0         0         0         0         0         0
         0         0         0         0         0         0         0         0
         0         0         0         0         0         0         0         0
         0         0         0         0         0         0         0         0
         0         0         0         0         0         0         0         0
         0         0         0         0         0         0         0         0
         0         0         0         0         0         0         0         0
         0         0         0         0         0         0         0         0
         0         0         0         0         0         0         0         0
         0         0         0         0         0         0         0         0
         0         0         0         0         0         0         0         0
         0         0         0         0         0         0         0         0
         0         0         0         0         0         0         0         0
         0         0         0         0         0         0         0         0
         0         0         0         0         0         0         0         0
         0         0         0         0         0         0         0         0
         0         0         0         0         0         0         0         0
         0         0         0         0         0         0         0         0
         0         0         0         0         0         0         0         0
         0         0         0         0         0         0         0         0
         0         0         0         0         0         0         0         0
         0         0         0         0         0         0         0         0
         0         0         0         0         0         0         0         0
         0         0         0         0         0         0         0         0
         0         0         0         0         0         0         0         0
         0         0         0         0         0         0         0         0
         0         0         0         0         0         0         0         0
         0         0         0         0         0         0         0         0
         0         0         0         0         0         0         0         0
         0         0         0         0         0         0         0         0
         0         0         0         0         0         0         0         0
         0         0         0         0         0         0         0         0
         0         0         0         0         0         0         0         0
         0         0         0         0         0         0         0         0
         0         0         0         0         0         0         0         0
         0         0         0         0         0         0         0         0
         0         0         0         0         0         0         0         0
         0         0         0         0         0         0         0         0
         0         0         0         0         0         0         0         0
         0         0         0         0         0         0         0         0
         0         0         0         0         0         0         0         0
         0         0         0         0         0         0         0         0
         0         0         0         0         0         0         0         0
         0         0         0         0         0         0         0         0
         0         0         0         0         0         0         0         0
         0         0         0         0         0         0         0         0
         0         0         0         0         0         0         0         0
         0         0         0         0         0         0         0         0
         0         0         0         0         0         0         0         0
         0         0         0         0         0         0         0         0
         0         0         0         0         0         0         0         0
         0         0         0         0         0         0         0         0
         0         0         0         0         0         0         0         0
         0         0         0         0         0         0         0         0
         0         0         0         0         0         0         0         0
         0         0         0         0         0         0         0         0
         0         0         0         0         0         0         0         0
         0         0         0         0         0         0         0         0
         0         0         0         0         0         0         0         0
         0         0         0         0         0         0         0         0
         0         0         0         0         0         0         0         0
         0         0         0         0         0         0         0         0
         0         0         0         0         0         0         0         0
         0         0         0         0         0         0         0         0
         0         0         0         0         0         0         0         0
         0         0         0         0         0         0         0         0
         0         0         0         0         0         0         0         0
         0         0         0         0         0         0         0         0
         0         0         0         0         0         0         0         0
         0         0         0         0         0         0         0         0
         0         0         0         0         0         0         0         0
         0         0         0         0         0         0         0         0
         0         0         0         0         0         0         0         0
         0         0         0         0         0         0         0         0
         0         0         0         0         0         0         0         0
         0         0         0         0         0         0         0         0
         0         0         0         0         0         0         0         0
         0         0         0         0         0         0         0         0
         0         0         0         0         0         0         0         0
         0         0         0         0         0         0         0         0
         0         0         0         0         0         0         0         0
         0         0         0         0         0         0         0         0
         0         0         0         0         0         0         0         0
         0         0         0         0         0         0         0         0
         0         0         0         0         0         0         0         0
         0         0         0         0         0         0         0         0
         0         0         0         0         0         0         0         0
         0         0         0         0         0         0         0         0
         0         0         0         0         0         0         0         0
         0         0         0         0         0         0         0         0
         0         0         0         0         0         0         0         0
         0         0         0         0         0         0         0         0
         0         0         0         0         0         0         0         0
         0         0         0         0         0         0         0         0
         0         0         0         0         0         0         0         0
         0         0         0         0         0         0         0         0
         0         0         0         0         0         0         0         0
         0         0         0         0         0         0         0         0
         0         0         0         0         0         0         0         0
         0         0         0         0         0         0         0         0
         0         0         0         0         0         0         0         0
         0         0         0         0         0         0         0         0
         0         0         0         0         0         0         0         0
         0         0         0         0         0         0         0         0
         0         0         0         0         0         0         0         0
         0         0         0         0         0         0         0         0
         0         0         0         0         0         0         0         0
         0         0         0         0         0         0         0         0
         0         0         0         0         0         0         0         0
         0         0         0         0         0         0         0         0
         0         0         0         0         0         0         0         0
         0         0         0         0         0         0         0         0
         0         0         0         0         0         0         0         0
         0         0         0         0         0         0         0         0
         0         0         0         0         0         0         0         0
         0         0         0         0         0         0         0         0
         0         0         0         0         0         0         0         0
         0         0         0         0         0         0         0         0
         0         0         0         0         0         0         0         0
         0         0         0         0         0         0         0         0
         0         0         0         0         0         0         0         0
         0         0         0         0         0         0         0         0
         0         0         0         0         0         0         0         0
         0         0         0         0         0         0         0         0
         0         0         0         0         0         0         0         0
         0         0         0         0         0         0         0         0
         0         0         0         0         0         0         0         0
         0         0         0         0         0         0         0         0
         0         0         0         0         0         0         0         0
         0         0         0         0         0         0         0         0
         0         0         0         0         0         0         0         0
         0         0         0         0         0         0         0         0
         0         0         0         0         0         0         0         0
         0         0         0         0         0         0         0         0
         0         0         0         0         0         0         0         0
         0         0         0         0         0         0         0         0
         0         0         0         0         0         0         0         0
         0         0         0         0         0         0         0         0
         0         0         0         0         0         0         0         0
         0         0         0         0         0         0         0         0
         0         0         0         0         0         0         0         0
         0         0         0         0         0         0         0         0
         0         0         0         0         0         0         0         0
         0         0         0         0         0         0         0         0
         0         0         0         0         0         0         0         0
         0         0         0         0         0         0         0         0
         0         0         0         0         0         0         0         0
         0         0         0         0         0         0         0         0
         0         0         0         0         0         0         0         0
         0         0         0         0         0         0         0         0
         0         0         0         0         0         0         0         0
         0         0         0         0         0         0         0         0
         0         0         0         0         0         0         0         0
         0         0         0         0         0         0         0         0
         0         0         0         0         0         0         0         0
         0         0         0         0         0         0         0         0
         0         0         0         0         0         0         0         0
         0         0         0         0         0         0         0         0
         0         0         0         0         0         0         0         0
         0         0         0         0         0         0         0         0
         0         0         0         0         0         0         0         0
         0         0         0         0         0         0         0         0
         0         0         0         0         0         0         0         0
         0         0         0         0         0         0         0         0
         0         0         0         0         0         0         0         0
         0         0         0         0         0         0         0         0
         0         0         0         0         0         0         0         0
         0         0         0         0         0         0         0         0
         0         0         0         0         0         0         0         0
         0         0         0         0         0         0         0         0
         0         0         0         0         0         0         0         0
         0         0         0         0         0         0         0         0
         0         0         0         0         0         0         0         0
         0         0         0         0         0         0         0         0
         0         0         0         0         0         0         0         0
         0         0         0         0         0         0         0         0
         0         0         0         0         0         0         0         0
         0         0         0         0         0         0         0         0
         0         0         0         0         0         0         0         0
         0         0         0         0         0         0         0         0
         0         0         0         0         0         0         0         0
         0         0         0         0         0         0         0         0
         0         0         0         0         0         0         0         0
         0         0         0         0         0         0         0         0
         0         0         0         0         0         0         0         0
         0         0         0         0         0         0         0         0
         0         0         0         0         0         0         0         0
         0         0         0         0         0         0         0         0
         0         0         0         0         0         0         0         0
         0         0         0         0         0         0         0         0
         0         0         0         0         0         0         0         0
         0         0         0         0         0         0         0         0
         0         0         0         0         0         0         0         0
         0         0         0         0         0         0         0         0
         0         0         0         0         0         0         0         0
         0         0         0         0         0         0         0         0
         0         0         0         0         0         0         0         0
         0         0         0         0         0         0         0         0
         0         0         0         0         0         0         0         0
         0         0         0         0         0         0         0         0
         0         0         0         0         0         0         0         0
         0         0         0         0         0         0         0         0
         0         0         0         0         0         0         0         0
         0         0         0         0         0         0         0         0
         0         0         0         0         0         0         0         0
         0         0         0         0         0         0         0         0
         0         0         0         0         0         0         0         0
         0         0         0         0         0         0         0         0
         0         0         0         0         0         0         0         0
         0         0         0         0         0         0         0         0
         0         0         0         0         0         0         0         0
         0         0         0         0         0         0         0         0
         0         0         0         0         0         0         0         0
         0         0         0         0         0         0         0         0
         0         0         0         0         0         0         0         0
         0         0         0         0         0         0         0         0
         0         0         0         0         0         0         0         0
         0         0         0         0         0         0         0         0
         0         0         0         0         0         0         0         0
         0         0         0         0         0         0         0         0
         0         0         0         0         0         0         0         0
         0         0         0         0         0         0         0         0
         0         0         0         0         0         0         0         0
         0         0         0         0         0         0         0         0
         0         0         0         0         0         0         0         0
         0         0         0         0         0         0         0         0
         0         0         0         0         0         0         0         0
         0         0         0         0         0         0         0         0
         0         0         0         0         0         0         0         0
         0         0         0         0         0         0         0         0
         0         0         0         0         0         0         0         0
         0         0         0         0         0         0         0         0
         0         0         0         0         0         0         0         0
         0         0         0         0         0         0         0         0
         0         0         0         0         0         0         0         0
         0         0         0         0         0         0         0         0
         0         0         0         0         0         0         0         0
         0         0         0         0         0         0         0         0
         0         0         0         0         0         0         0         0
         0         0         0         0         0         0         0         0
         0         0         0         0         0         0         0         0
         0         0         0         0         0         0         0         0
         0         0         0         0         0         0         0         0
         0         0         0         0         0         0         0         0
         0         0         0         0         0         0         0         0
         0         0         0         0         0         0         0         0
         0         0         0         0         0         0         0         0
         0         0         0         0         0         0         0         0
         0         0         0         0         0         0         0         0
         0         0         0         0         0         0         0         0
         0         0         0         0         0         0         0         0
         0         0         0         0         0         0         0         0
         0         0         0         0         0         0         0         0
         0         0         0         0         0         0         0         0
         0         0         0         0         0         0         0         0
         0         0         0         0         0         0         0         0
         0         0         0         0         0         0         0         0
         0         0         0         0         0         0         0         0
         0         0         0         0         0         0         0         0
         0         0         0         0         0         0         0         0
         0         0         0         0         0         0         0         0
         0         0         0         0         0         0         0         0
         0         0         0         0         0         0         0         0
         0         0         0         0         0         0         0         0
         0         0         0         0         0         0         0         0
         0         0         0         0         0         0         0         0
         0         0         0         0         0         0         0         0
         0         0         0         0         0         0         0         0
         0         0         0         0         0         0         0         0
         0         0         0         0         0         0         0         0
         0         0         0         0         0         0         0         0
         0         0         0         0         0         0         0         0
         0         0         0         0         0         0         0         0
         0         0         0         0         0         0         0         0
         0         0         0         0         0         0         0         0
         0         0         0         0         0         0         0         0
         0         0         0         0         0         0         0         0
         0         0         0         0         0         0         0         0
         0         0         0         0         0         0         0         0
         0         0         0         0         0         0         0         0
         0         0         0         0         0         0         0         0
         0         0         0         0         0         0         0         0
         0         0         0         0         0         0         0         0
         0         0         0         0         0         0         0         0
         0         0         0         0         0         0         0         0
         0         0         0         0         0         0         0         0
         0         0         0         0         0         0         0         0
         0         0         0         0         0         0         0         0
         0         0         0         0         0         0         0         0
         0         0         0         0         0         0         0         0
         0         0         0         0         0         0         0         0
         0         0         0         0         0         0         0         0
         0         0         0         0         0         0         0         0
         0         0         0         0         0         0         0         0
         0         0         0         0         0         0         0         0
         0         0         0         0         0         0         0         0
         0         0         0         0         0         0         0         0
         0         0         0         0         0         0         0         0
         0         0         0         0         0         0         0         0
         0         0         0         0         0         0         0         0
         0         0         0         0         0         0         0         0
         0         0         0         0         0         0         0         0
         0         0         0         0         0         0         0         0
         0         0         0         0         0         0         0         0
         0         0         0         0         0         0         0         0
         0         0         0         0         0         0         0         0
         0         0         0         0         0         0         0         0
         0         0         0         0         0         0         0         0
         0         0         0         0         0         0         0         0
         0         0         0         0         0         0         0         0
         0         0         0         0         0         0         0         0
         0         0         0         0         0         0         0         0
         0         0         0         0         0         0         0         0
         0         0         0         0         0         0         0         0
         0         0         0         0         0         0         0         0
         0         0         0         0         0         0         0         0
         0         0         0         0         0         0         0         0
         0         0         0         0         0         0         0         0
         0         0         0         0         0         0         0         0
         0         0         0         0         0         0         0         0
         0         0         0         0         0         0         0         0
         0         0         0         0         0         0         0         0
         0         0         0         0         0         0         0         0
         0         0         0         0         0         0         0         0
         0         0         0         0         0         0         0         0
         0         0         0         0         0         0         0         0
         0         0         0         0         0         0         0         0
         0         0         0         0         0         0         0         0
         0         0         0         0         0         0         0         0
         0         0         0         0         0         0         0         0
         0         0         0         0         0         0         0         0
         0         0         0         0         0         0         0         0
         0         0         0         0         0         0         0         0
         0         0         0         0         0         0         0         0
         0         0         0         0         0         0         0         0
         0         0         0         0         0         0         0         0
         0         0         0         0         0         0         0         0
         0         0         0         0         0         0         0         0
         0         0         0         0         0         0         0         0
         0         0         0         0         0         0         0         0
         0         0         0         0         0         0         0         0
         0         0         0         0         0         0         0         0
         0         0         0         0         0         0         0         0
         0         0         0         0         0         0         0         0
         0         0         0         0         0         0         0         0
         0         0         0         0         0         0         0         0
         0         0         0         0         0         0         0         0
         0         0         0         0         0         0         0         0
         0         0         0         0         0         0         0         0
         0         0         0         0         0         0         0         0
         0         0         0         0         0         0         0         0
         0         0         0         0         0         0         0         0
         0         0         0         0         0         0         0         0
         0         0         0         0         0         0         0         0
         0         0         0         0         0         0         0         0
         0         0         0         0         0         0         0         0
         0         0         0         0         0         0         0         0
         0         0         0         0         0         0         0         0
         0         0         0         0         0         0         0         0
         0         0         0         0         0         0         0         0
         0         0         0         0         0         0         0         0
         0         0         0         0         0         0         0         0
         0         0         0         0         0         0         0         0
         0         0         0         0         0         0         0         0
         0         0         0         0         0         0         0         0
         0         0         0         0         0         0         0         0
         0         0         0         0         0         0         0         0
         0         0         0         0         0         0         0         0
         0         0         0         0         0         0         0         0
         0         0         0         0         0         0         0         0
         0         0         0         0         0         0         0         0
         0         0         0         0         0         0         0         0
         0         0         0         0         0         0         0         0
         0         0         0         0         0         0         0         0
         0         0         0         0         0         0         0         0
         0         0         0         0         0         0         0         0
         0         0         0         0         0         0         0         0
         0         0         0         0         0         0         0         0
         0         0         0         0         0         0         0         0
         0         0         0         0         0         0         0         0
         0         0         0         0         0         0         0         0
         0         0         0         0         0         0         0         0
         0         0         0         0         0         0         0         0
         0         0         0         0         0         0         0         0
         0         0         0         0         0         0         0         0
         0         0         0         0         0         0         0         0
         0         0         0         0         0         0         0         0
         0         0         0         0         0         0         0         0
         0         0         0         0         0         0         0         0
         0         0         0         0         0         0         0         0
         0         0         0         0         0         0         0         0
         0         0         0         0         0         0         0         0
         0         0         0         0         0         0         0         0
         0         0         0         0         0         0         0         0
         0         0         0         0         0         0         0         0
         0         0         0         0         0         0         0         0
         0         0         0         0         0         0         0         0
         0         0         0         0         0         0         0         0
         0         0         0         0         0         0         0         0
         0         0         0         0         0         0         0         0
         0         0         0         0         0         0         0         0
         0         0         0         0         0         0         0         0
         0         0         0         0         0         0         0         0
         0         0         0         0         0         0         0         0
         0         0         0         0         0         0         0         0
         0         0         0         0         0         0         0         0
         0         0         0         0         0         0         0         0
         0         0         0         0         0         0         0         0
         0         0         0         0         0         0         0         0
         0         0         0         0         0         0         0         0
         0         0         0         0         0         0         0         0
         0         0         0         0         0         0         0         0
         0         0         0         0         0         0         0         0
         0         0         0         0         0         0         0         0
         0         0         0         0         0         0         0         0
         0         0         0         0         0         0         0         0
         0         0         0         0         0         0         0         0
         0         0         0         0         0         0         0         0
         0         0         0         0         0         0         0         0
         0         0         0         0         0         0         0         0
         0         0         0         0         0         0         0         0
         0         0         0         0         0         0         0         0
         0         0         0         0         0         0         0         0
         0         0         0         0         0         0         0         0
         0         0         0         0         0         0         0         0
         0         0         0         0         0         0         0         0
         0         0         0         0         0         0         0         0
         0         0         0         0         0         0         0         0
         0         0         0         0         0         0         0         0
         0         0         0         0         0         0         0         0
         0         0         0         0         0         0         0         0
         0         0         0         0         0         0         0         0
         0         0         0         0         0         0         0         0
         0         0         0         0         0         0         0         0
         0         0         0         0         0         0         0         0
         0         0         0         0         0         0         0         0
         0         0         0         0         0         0         0         0
         0         0         0         0         0         0         0         0
         0         0         0         0         0         0         0         0
         0         0         0         0         0         0         0         0
         0         0         0         0         0         0         0         0
         0         0         0         0         0         0         0         0
         0         0         0         0         0         0         0         0
         0         0         0         0         0         0         0         0
         0         0         0         0         0         0         0         0
         0         0         0         0         0         0         0         0
         0         0         0         0         0         0         0         0
         0         0         0         0         0         0         0         0
         0         0         0         0         0         0         0         0
         0         0         0         0         0         0         0         0
         0         0         0         0         0         0         0         0
         0         0         0         0         0         0         0         0
         0         0         0         0         0         0         0         0
         0         0         0         0         0         0         0         0
         0         0         0         0         0         0         0         0
         0         0         0         0         0         0         0         0
         0         0         0         0         0         0         0         0
         0         0         0         0         0         0         0         0
         0         0         0         0         0         0         0         0
         0         0         0         0         0         0         0         0
         0         0         0         0         0         0         0         0
         0         0         0         0         0         0         0         0
         0         0         0         0         0         0         0         0
         0         0         0         0         0         0         0         0
         0         0         0         0         0         0         0         0
         0         0         0         0         0         0         0         0
         0         0         0         0         0         0         0         0
         0         0         0         0         0         0         0         0
         0         0         0         0         0         0         0         0
         0         0         0         0         0         0         0         0
         0         0         0         0         0         0         0         0
         0         0         0         0         0         0         0         0
         0         0         0         0         0         0         0         0
         0         0         0         0         0         0         0         0
         0         0         0         0         0         0         0         0
         0         0         0         0         0         0         0         0
         0         0         0         0         0         0         0         0
         0         0         0         0         0         0         0         0
         0         0         0         0         0         0         0         0
         0         0         0         0         0         0         0         0
         0         0         0         0         0         0         0         0
         0         0         0         0         0         0         0         0
         0         0         0         0         0         0         0         0
         0         0         0         0         0         0         0         0
         0         0         0         0         0         0         0         0
         0         0         0         0         0         0         0         0
         0         0         0         0         0         0         0         0
         0         0         0         0         0         0         0         0
         0         0         0         0         0         0         0         0
         0         0         0         0         0         0         0         0
         0         0         0         0         0         0         0         0
         0         0         0         0         0         0         0         0
         0         0         0         0         0         0         0         0
         0         0         0         0         0         0         0         0
         0         0         0         0         0         0         0         0
         0         0         0         0         0         0         0         0
         0         0         0         0         0         0         0         0
         0         0         0         0         0         0         0         0
         0         0         0         0         0         0         0         0
         0         0         0         0         0         0         0         0
         0         0         0         0         0         0         0         0
         0         0         0         0         0         0         0         0
         0         0         0         0         0         0         0         0
         0         0         0         0         0         0         0         0
         0         0         0         0         0         0         0         0
         0         0         0         0         0         0         0         0
         0         0         0         0         0         0         0         0
         0         0         0         0         0         0         0         0
         0         0         0         0         0         0         0         0
         0         0         0         0         0         0         0         0
         0         0         0         0         0         0         0         0
         0         0         0         0         0         0         0         0
         0         0         0         0         0         0         0         0
         0         0         0         0         0         0         0         0
         0         0         0         0         0         0         0         0
         0         0         0         0         0         0         0         0
         0         0         0         0         0         0         0         0
         0         0         0         0         0         0         0         0
         0         0         0         0         0         0         0         0
         0         0         0         0         0         0         0         0
         0         0         0         0         0         0         0         0
         0         0         0         0         0         0         0         0
         0         0         0         0         0         0         0         0
         0         0         0         0         0         0         0         0
         0         0         0         0         0         0         0         0
         0         0         0         0         0         0         0         0
         0         0         0         0         0         0         0         0
         0         0         0         0         0         0         0         0
         0         0         0         0         0         0         0         0
         0         0         0         0         0         0         0         0
         0         0         0         0         0         0         0         0
         0         0         0         0         0         0         0         0
         0         0         0         0         0         0         0         0
         0         0         0         0         0         0         0         0
         0         0         0         0         0         0         0         0
         0         0         0         0         0         0         0         0
         0         0         0         0         0         0         0         0
         0         0         0         0         0         0         0         0
         0         0         0         0         0         0         0         0
         0         0         0         0         0         0         0         0
         0         0         0         0         0         0         0         0
         0         0         0         0         0         0         0         0
         0         0         0         0         0         0         0         0
         0         0         0         0         0         0         0         0
         0         0         0         0         0         0         0         0
         0         0         0         0         0         0         0         0
         0         0         0         0         0         0         0         0
         0         0         0         0         0         0         0         0
         0         0         0         0         0         0         0         0
         0         0         0         0         0         0         0         0
         0         0         0         0         0         0         0         0
         0         0         0         0         0         0         0         0
         0         0         0         0         0         0         0         0
         0         0         0         0         0         0         0         0
         0         0         0         0         0         0         0         0
         0         0         0         0         0         0         0         0
         0         0         0         0         0         0         0         0
         0         0         0         0         0         0         0         0
         0         0         0         0         0         0         0         0
         0         0         0         0         0         0         0         0
         0         0         0         0         0         0         0         0
         0         0         0         0         0         0         0         0
         0         0         0         0         0         0         0         0
         0         0         0         0         0         0         0         0
         0         0         0         0         0         0         0         0
         0         0         0         0         0         0         0         0
         0         0         0         0         0         0         0         0
         0         0         0         0         0         0         0         0
         0         0         0         0         0         0         0         0
         0         0         0         0         0         0         0         0
         0         0         0         0         0         0         0         0
         0         0         0         0         0         0         0         0
         0         0         0         0         0         0         0         0
         0         0         0         0         0         0         0         0
         0         0         0         0         0         0         0         0
         0         0         0         0         0         0         0         0
         0         0         0         0         0         0         0         0
         0         0         0         0         0         0         0         0
         0         0         0         0         0         0         0         0
         0         0         0         0         0         0         0         0
         0         0         0         0         0         0         0         0
         0         0         0         0         0         0         0         0
         0         0         0         0         0         0         0         0
         0         0         0         0         0         0         0         0
         0         0         0         0         0         0         0         0
         0         0         0         0         0         0         0         0
         0         0         0         0         0         0         0         0
         0         0         0         0         0         0         0         0
         0         0         0         0         0         0         0         0
         0         0         0         0         0         0         0         0
         0         0         0         0         0         0         0         0
         0         0         0         0         0         0         0         0
         0         0         0         0         0         0         0         0
         0         0         0         0         0         0         0         0
         0         0         0         0         0         0         0         0
         0         0         0         0         0         0         0         0
         0         0         0         0         0         0         0         0
         0         0         0         0         0         0         0         0
         0         0         0         0         0         0         0         0
         0         0         0         0         0         0         0         0
         0         0         0         0         0         0         0         0
         0         0         0         0         0         0         0         0
         0         0         0         0         0         0         0         0
         0         0         0         0         0         0         0         0
         0         0         0         0         0         0         0         0
         0         0         0         0         0         0         0         0
         0         0         0         0         0         0         0         0
         0         0         0         0         0         0         0         0
         0         0         0         0         0         0         0         0
         0         0         0         0         0         0         0         0
         0         0         0         0         0         0         0         0
         0         0         0         0         0         0         0         0
         0         0         0         0         0         0         0         0
         0         0         0         0         0         0         0         0
         0         0         0         0         0         0         0         0
         0         0         0         0         0         0         0         0
         0         0         0         0         0         0         0         0
         0         0         0         0         0         0         0         0
         0         0         0         0         0         0         0         0
         0         0         0         0         0         0         0         0
         0         0         0         0         0         0         0         0
         0         0         0         0         0         0         0         0
         0         0         0         0         0         0         0         0
         0         0         0         0         0         0         0         0
         0         0         0         0         0         0         0         0
         0         0         0         0         0         0         0         0
         0         0         0         0         0         0         0         0
         0         0         0         0         0         0         0         0
         0         0         0         0         0         0         0         0
         0         0         0         0         0         0         0         0
         0         0         0         0         0         0         0         0
         0         0         0         0         0         0         0         0
         0         0         0         0         0         0         0         0
         0         0         0         0         0         0         0         0
         0         0         0         0         0         0         0         0
         0         0         0         0         0         0         0         0
         0         0         0         0         0         0         0         0
         0         0         0         0         0         0         0         0
         0         0         0         0         0         0         0         0
         0         0         0         0         0         0         0         0
         0         0         0         0         0         0         0         0
         0         0         0         0         0         0         0         0
         0         0         0         0         0         0         0         0
         0         0         0         0         0         0         0         0
         0         0         0         0         0         0         0         0
         0         0         0         0         0         0         0         0
         0         0         0         0         0         0         0         0
         0         0         0         0         0         0         0         0
         0         0         0         0         0         0         0         0
         0         0         0         0         0         0         0         0
         0         0         0         0         0         0         0         0
         0         0         0         0         0         0         0         0
         0         0         0         0         0         0         0         0
         0         0         0         0         0         0         0         0
         0         0         0         0         0         0         0         0
         0         0         0         0         0         0         0         0
         0         0         0         0         0         0         0         0
         0         0         0         0         0         0         0         0
         0         0         0         0         0         0         0         0
         0         0         0         0         0         0         0         0
         0         0         0         0         0         0         0         0
         0         0         0         0         0         0         0         0
         0         0         0         0         0         0         0         0
         0         0         0         0         0         0         0         0
         0         0         0         0         0         0         0         0
         0         0         0         0         0         0         0         0
         0         0         0         0         0         0         0         0
         0         0         0         0         0         0         0         0
         0         0         0         0         0         0         0         0
         0         0         0         0         0         0         0         0
         0         0         0         0         0         0         0         0
         0         0         0         0         0         0         0         0
         0         0         0         0         0         0         0         0
         0         0         0         0         0         0         0         0
         0         0         0         0         0         0         0         0
         0         0         0         0         0         0         0         0
         0         0         0         0         0         0         0         0
         0         0         0         0         0         0         0         0
         0         0         0         0         0         0         0         0
         0         0         0         0         0         0         0         0
         0         0         0         0         0         0         0         0
         0         0         0         0         0         0         0         0
         0         0         0         0         0         0         0         0
         0         0         0         0         0         0         0         0
         0         0         0         0         0         0         0         0
         0         0         0         0         0         0         0         0
         0         0         0         0         0         0         0         0
         0         0         0         0         0         0         0         0
         0         0         0         0         0         0         0         0
         0         0         0         0         0         0         0         0
         0         0         0         0         0         0         0         0
         0         0         0         0         0         0         0         0
         0         0         0         0         0         0         0         0
         0         0         0         0         0         0         0         0
         0         0         0         0         0         0         0         0
         0         0         0         0         0         0         0         0
         0         0         0         0         0         0         0         0
         0         0         0         0         0         0         0         0
         0         0         0         0         0         0         0         0
         0         0         0         0         0         0         0         0
         0         0         0         0         0         0         0         0
         0         0         0         0         0         0         0         0
         0         0         0         0         0         0         0         0
         0         0         0         0         0         0         0         0
         0         0         0         0         0         0         0         0
         0         0         0         0         0         0         0         0
         0         0         0         0         0         0         0         0
         0         0         0         0         0         0         0         0
         0         0         0         0         0         0         0         0
         0         0         0         0         0         0         0         0
         0         0         0         0         0         0         0         0
         0         0         0         0         0         0         0         0
         0         0         0         0         0         0         0         0
         0         0         0         0         0         0         0         0
         0         0         0         0         0         0         0         0
         0         0         0         0         0         0         0         0
         0         0         0         0         0         0         0         0
         0         0         0         0         0         0         0         0
         0         0         0         0         0         0         0         0
         0         0         0         0         0         0         0         0
         0         0         0         0         0         0         0         0
         0         0         0         0         0         0         0         0
         0         0         0         0         0         0         0         0
         0         0         0         0         0         0         0         0
         0         0         0         0         0         0         0         0
         0         0         0         0         0         0         0         0
         0         0         0         0         0         0         0         0
         0         0         0         0         0         0         0         0
         0         0         0         0         0         0         0         0
         0         0         0         0         0         0         0         0
         0         0         0         0         0         0         0         0
         0         0         0         0         0         0         0         0
         0         0         0         0         0         0         0         0
         0         0         0         0         0         0         0         0
         0         0         0         0         0         0         0         0
         0         0         0         0         0         0         0         0
         0         0         0         0         0         0         0         0
         0         0         0         0         0         0         0         0
         0         0         0         0         0         0         0         0
         0         0         0         0         0         0         0         0
         0         0         0         0         0         0         0         0
         0         0         0         0         0         0         0         0
         0         0         0         0         0         0         0         0
         0         0         0         0         0         0         0         0
         0         0         0         0         0         0         0         0
         0         0         0         0         0         0         0         0
         0         0         0         0         0         0         0         0
         0         0         0         0         0         0         0         0
         0         0         0         0         0         0         0         0
         0         0         0         0         0         0         0         0
         0         0         0         0         0         0         0         0
         0         0         0         0         0         0         0         0
         0         0         0         0         0         0         0         0
         0         0         0         0         0         0         0         0
         0         0         0         0         0         0         0         0
         0         0         0         0         0         0         0         0
         0         0         0         0         0         0         0         0
         0         0         0         0         0         0         0         0
         0         0         0         0         0         0         0         0
         0         0         0         0         0         0         0         0
         0         0         0         0         0         0         0         0
         0         0         0         0         0         0         0         0
         0         0         0         0         0         0         0         0
         0         0         0         0         0         0         0         0
         0         0         0         0         0         0         0         0
         0         0         0         0         0         0         0         0
         0         0         0         0         0         0         0         0
         0         0         0         0         0         0         0         0
         0         0         0         0         0         0         0         0
         0         0         0         0         0         0         0         0
         0         0         0         0         0         0         0         0
         0         0         0         0         0         0         0         0
         0         0         0         0         0         0         0         0
         0         0         0         0         0         0         0         0
         0         0         0         0         0         0         0         0
         0         0         0         0         0         0         0         0
         0         0         0         0         0         0         0         0
         0         0         0         0         0         0         0         0
         0         0         0         0         0         0         0         0
         0         0         0         0         0         0         0         0
         0         0         0         0         0         0         0         0
         0         0         0         0         0         0         0         0
         0         0         0         0         0         0         0         0
         0         0         0         0         0         0         0         0
         0         0         0         0         0         0         0         0
         0         0         0         0         0         0         0         0
         0         0         0         0         0         0         0         0
         0         0         0         0         0         0         0         0
         0         0         0         0         0         0         0         0
         0         0         0         0         0         0         0         0
         0         0         0         0         0         0         0         0
         0         0         0         0         0         0         0         0
         0         0         0         0         0         0         0         0
         0         0         0         0         0         0         0         0
         0         0         0         0         0         0         0         0
         0         0         0         0         0         0         0         0
         0         0         0         0         0         0         0         0
         0         0         0         0         0         0         0         0
         0         0         0         0         0         0         0         0
         0         0         0         0         0         0         0         0
         0         0         0         0         0         0         0         0
         0         0         0         0         0         0         0         0
         0         0         0         0         0         0         0         0
         0         0         0         0         0         0         0         0
         0         0         0         0         0         0         0         0
         0         0         0         0         0         0         0         0
         0         0         0         0         0         0         0         0
         0         0         0         0         0         0         0         0
         0         0         0         0         0         0         0         0
         0         0         0         0         0         0         0         0
         0         0         0         0         0         0         0         0
         0         0         0         0         0         0         0         0
         0         0         0         0         0         0         0         0
         0         0         0         0         0         0         0         0
         0         0         0         0         0         0         0         0
         0         0         0         0         0         0         0         0
         0         0         0         0         0         0         0         0
         0         0         0         0         0         0         0         0
         0         0         0         0         0         0         0         0
         0         0         0         0         0         0         0         0
         0         0         0         0         0         0         0         0
         0         0         0         0         0         0         0         0
         0         0         0         0         0         0         0         0
         0         0         0         0         0         0         0         0
         0         0         0         0         0         0         0         0
         0         0         0         0         0         0         0         0
         0         0         0         0         0         0         0         0
         0         0         0         0         0         0         0         0
         0         0         0         0         0         0         0         0
         0         0         0         0         0         0         0         0
         0         0         0         0         0         0         0         0
         0         0         0         0         0         0         0         0
         0         0         0         0         0         0         0         0
         0         0         0         0         0         0         0         0
         0         0         0         0         0         0         0         0
         0         0         0         0         0         0         0         0
         0         0         0         0         0         0         0         0
         0         0         0         0         0         0         0         0
         0         0         0         0         0         0         0         0
         0         0         0         0         0         0         0         0
         0         0         0         0         0         0         0         0
         0         0         0         0         0         0         0         0
         0         0         0         0         0         0         0         0
         0         0         0         0         0         0         0         0
         0         0         0         0         0         0         0         0
         0         0         0         0         0         0         0         0
         0         0         0         0         0         0         0         0
         0         0         0         0         0         0         0         0
         0         0         0         0         0         0         0         0
         0         0         0         0         0         0         0         0
         0         0         0         0         0         0         0         0
         0         0         0         0         0         0         0         0
         0         0         0         0         0         0         0         0
         0         0         0         0         0         0         0         0
         0         0         0         0         0         0         0         0
         0         0         0         0         0         0         0         0
         0         0         0         0         0         0         0         0
         0         0         0         0         0         0         0         0
         0         0         0         0         0         0         0         0
         0         0         0         0         0         0         0         0
         0         0         0         0         0         0         0         0
         0         0         0         0         0         0         0         0
         0         0         0         0         0         0         0         0
         0         0         0         0         0         0         0         0
         0         0         0         0         0         0         0         0
         0         0         0         0         0         0         0         0
         0         0         0         0         0         0         0         0
         0         0         0         0         0         0         0         0
         0         0         0         0         0         0         0         0
         0         0         0         0         0         0         0         0
         0         0         0         0         0         0         0         0
         0         0         0         0         0         0         0         0
         0         0         0         0         0         0         0         0
         0         0         0         0         0         0         0         0
         0         0         0         0         0         0         0         0
         0         0         0         0         0         0         0         0
         0         0         0         0         0         0         0         0
         0         0         0         0         0         0         0         0
         0         0         0         0         0         0         0         0
         0         0         0         0         0         0         0         0
         0         0         0         0         0         0         0         0
         0         0         0         0         0         0         0         0
         0         0         0         0         0         0         0         0
         0         0         0         0         0         0         0         0
         0         0         0         0         0         0         0         0
         0         0         0         0         0         0         0         0
         0         0         0         0         0         0         0         0
         0         0         0         0         0         0         0         0
         0         0         0         0         0         0         0         0
         0         0         0         0         0         0         0         0
         0         0         0         0         0         0         0         0
         0         0         0         0         0         0         0         0
         0         0         0         0         0         0         0         0
         0         0         0         0         0         0         0         0
         0         0         0         0         0         0         0         0
         0         0         0         0         0         0         0         0
         0         0         0         0         0         0         0         0
         0         0         0         0         0         0         0         0
         0         0         0         0         0         0         0         0
         0         0         0         0         0         0         0         0
         0         0         0         0         0         0         0         0
         0         0         0         0         0         0         0         0
         0         0         0         0         0         0         0         0
         0         0         0         0         0         0         0         0
         0         0         0         0         0         0         0         0
         0         0         0         0         0         0         0         0
         0         0         0         0         0         0         0         0
         0         0         0         0         0         0         0         0
         0         0         0         0         0         0         0         0
         0         0         0         0         0         0         0         0
         0         0         0         0         0         0         0         0
         0         0         0         0         0         0         0         0
         0         0         0         0         0         0         0         0
         0         0         0         0         0         0         0         0
         0         0         0         0         0         0         0         0
         0         0         0         0         0         0         0         0
         0         0         0         0         0         0         0         0
         0         0         0         0         0         0         0         0
         0         0         0         0         0         0         0         0
         0         0         0         0         0         0         0         0
         0         0         0         0         0         0         0         0
         0         0         0         0         0         0         0         0
         0         0         0         0         0         0         0         0
         0         0         0         0         0         0         0         0
         0         0         0         0         0         0         0         0
         0         0         0         0         0         0         0         0
         0         0         0         0         0         0         0         0
         0         0         0         0         0         0         0         0
         0         0         0         0         0         0         0         0
         0         0         0         0         0         0         0         0
         0         0         0         0         0         0         0         0
         0         0         0         0         0         0         0         0
         0         0         0         0         0         0         0         0
         0         0         0         0         0         0         0         0
         0         0         0         0         0         0         0         0
         0         0         0         0         0         0         0         0
         0         0         0         0         0         0         0         0
         0         0         0         0         0         0         0         0
         0         0         0         0         0         0         0         0
         0         0         0         0         0         0         0         0
         0         0         0         0         0         0         0         0
         0         0         0         0         0         0         0         0
         0         0         0         0         0         0         0         0
         0         0         0         0         0         0         0         0
         0         0         0         0         0         0         0         0
         0         0         0         0         0         0         0         0
         0         0         0         0         0         0         0         0
         0         0         0         0         0         0         0         0
         0         0         0         0         0         0         0         0
         0         0         0         0         0         0         0         0
         0         0         0         0         0         0         0         0
         0         0         0         0         0         0         0         0
         0         0         0         0         0         0         0         0
         0         0         0         0         0         0         0         0
         0         0         0         0         0         0         0         0
         0         0         0         0         0         0         0         0
         0         0         0         0         0         0         0         0
         0         0         0         0         0         0         0         0
         0         0         0         0         0         0         0         0
         0         0         0         0         0         0         0         0
         0         0         0         0         0         0         0         0
         0         0         0         0         0         0         0         0
         0         0         0         0         0         0         0         0
         0         0         0         0         0         0         0         0
         0         0         0         0         0         0         0         0
         0         0         0         0         0         0         0         0
         0         0         0         0         0         0         0         0
         0         0         0         0         0         0         0         0
         0         0         0         0         0         0         0         0
         0         0         0         0         0         0         0         0
         0         0         0         0         0         0         0         0
         0         0         0         0         0         0         0         0
         0         0         0         0         0         0         0         0
         0         0         0         0         0         0         0         0
         0         0         0         0         0         0         0         0
         0         0         0         0         0         0         0         0
         0         0         0         0         0         0         0         0
         0         0         0         0         0         0         0         0
         0         0         0         0         0         0         0         0
         0         0         0         0         0         0         0         0
         0         0         0         0         0         0         0         0
         0         0         0         0         0         0         0         0
         0         0         0         0         0         0         0         0
         0         0         0         0         0         0         0         0
         0         0         0         0         0         0         0         0
         0         0         0         0         0         0         0         0
         0         0         0         0         0         0         0         0
         0         0         0         0         0         0         0         0
         0         0         0         0         0         0         0         0
         0         0         0         0         0         0         0         0
         0         0         0         0         0         0         0         0
         0         0         0         0         0         0         0         0
         0         0         0         0         0         0         0         0
         0         0         0         0         0         0         0         0
         0         0         0         0         0         0         0         0
         0         0         0         0         0         0         0         0
         0         0         0         0         0         0         0         0
         0         0         0         0         0         0         0         0
         0         0         0         0         0         0         0         0
         0         0         0         0         0         0         0         0
         0         0         0         0         0         0         0         0
         0         0         0         0         0         0         0         0
         0         0         0         0         0         0         0         0
         0         0         0         0         0         0         0         0
         0         0         0         0         0         0         0         0
         0         0         0         0         0         0         0         0
         0         0         0         0         0         0         0         0
         0         0         0         0         0         0         0         0
         0         0         0         0         0         0         0         0
         0         0         0         0         0         0         0         0
         0         0         0         0         0         0         0         0
         0         0         0         0         0         0         0         0
         0         0         0         0         0         0         0         0
         0         0         0         0         0         0         0         0
         0         0         0         0         0         0         0         0
         0         0         0         0         0         0         0         0
         0         0         0         0         0         0         0         0
         0         0         0         0         0         0         0         0
         0         0         0         0         0         0         0         0
         0         0         0         0         0         0         0         0
         0         0         0         0         0         0         0         0
         0         0         0         0         0         0         0         0
         0         0         0         0         0         0         0         0
         0         0         0         0         0         0         0         0
         0         0         0         0         0         0         0         0
         0         0         0         0         0         0         0         0
         0         0         0         0         0         0         0         0
         0         0         0         0         0         0         0         0
         0         0         0         0         0         0         0         0
         0         0         0         0         0         0         0         0
         0         0         0         0         0         0         0         0
         0         0         0         0         0         0         0         0
         0         0         0         0         0         0         0         0
         0         0         0         0         0         0         0         0
         0         0         0         0         0         0         0         0
         0         0         0         0         0         0         0         0
         0         0         0         0         0         0         0         0
         0         0         0         0         0         0         0         0
         0         0         0         0         0         0         0         0
         0         0         0         0         0         0         0         0
         0         0         0         0         0         0         0         0
         0         0         0         0         0         0         0         0
         0         0         0         0         0         0         0         0
         0         0         0         0         0         0         0         0
         0         0         0         0         0         0         0         0
         0         0         0         0         0         0         0         0
         0         0         0         0         0         0         0         0
         0         0         0         0         0         0         0         0
         0         0         0         0         0         0         0         0
         0         0         0         0         0         0         0         0
         0         0         0         0         0         0         0         0
         0         0         0         0         0         0         0         0
         0         0         0         0         0         0         0         0
         0         0         0         0         0         0         0         0
         0         0         0         0         0         0         0         0
         0         0         0         0         0         0         0         0
         0         0         0         0         0         0         0         0
         0         0         0         0         0         0         0         0
         0         0         0         0         0         0         0         0
         0         0         0         0         0         0         0         0
         0         0         0         0         0         0         0         0
         0         0         0         0         0         0         0         0
         0         0         0         0         0         0         0         0
         0         0         0         0         0         0         0         0
         0         0         0         0         0         0         0         0
         0         0         0         0         0         0         0         0
         0         0         0         0         0         0         0         0
         0         0         0         0         0         0         0         0
         0         0         0         0         0         0         0         0
         0         0         0         0         0         0         0         0
         0         0         0         0         0         0         0         0
         0         0         0         0         0         0         0         0
         0         0         0         0         0         0         0         0
         0         0         0         0         0         0         0         0
         0         0         0         0         0         0         0         0
         0         0         0         0         0         0         0         0
         0         0         0         0         0         0         0         0
         0         0         0         0         0         0         0         0
         0         0         0         0         0         0         0         0
         0         0         0         0         0         0         0         0
         0         0         0         0         0         0         0         0
         0         0         0         0         0         0         0         0
         0         0         0         0         0         0         0         0
         0         0         0         0         0         0         0         0
         0         0         0         0         0         0         0         0
         0         0         0         0         0         0         0         0
         0         0         0         0         0         0         0         0
         0         0         0         0         0         0         0         0
         0         0         0         0         0         0         0         0
         0         0         0         0         0         0         0         0
         0         0         0         0         0         0         0         0
         0         0         0         0         0         0         0         0
         0         0         0         0         0         0         0         0
         0         0         0         0         0         0         0         0
         0         0         0         0         0         0         0         0
         0         0         0         0         0         0         0         0
         0         0         0         0         0         0         0         0
         0         0         0         0         0         0         0         0
         0         0         0         0         0         0         0         0
         0         0         0         0         0         0         0         0
         0         0         0         0         0         0         0         0
         0         0         0         0         0         0         0         0
         0         0         0         0         0         0         0         0
         0         0         0         0         0         0         0         0
         0         0         0         0         0         0         0         0
         0         0         0         0         0         0         0         0
         0         0         0         0         0         0         0         0
         0         0         0         0         0         0         0         0
         0         0         0         0         0         0         0         0
         0         0         0         0         0         0         0         0
         0         0         0         0         0         0         0         0
         0         0         0         0         0         0         0         0
         0         0         0         0         0         0         0         0
         0         0         0         0         0         0         0         0
         0         0         0         0         0         0         0         0
         0         0         0         0         0         0         0         0
         0         0         0         0         0         0         0         0
         0         0         0         0         0         0         0         0
         0         0         0         0         0         0         0         0
         0         0         0         0         0         0         0         0
         0         0         0         0         0         0         0         0
         0         0         0         0         0         0         0         0
         0         0         0         0         0         0         0         0
         0         0         0         0         0         0         0         0
         0         0         0         0         0         0         0         0
         0         0         0         0         0         0         0         0
         0         0         0         0         0         0         0         0
         0         0         0         0         0         0         0         0
         0         0         0         0         0         0         0         0
         0         0         0         0         0         0         0         0
         0         0         0         0         0         0         0         0
         0         0         0         0         0         0         0         0
         0         0         0         0         0         0         0         0
         0         0         0         0         0         0         0         0
         0         0         0         0         0         0         0         0
         0         0         0         0         0         0         0         0
         0         0         0         0         0         0         0         0
         0         0         0         0         0         0         0         0
         0         0         0         0         0         0         0         0
         0         0         0         0         0         0         0         0
         0         0         0         0         0         0         0         0
         0         0         0         0         0         0         0         0
         0         0         0         0         0         0         0         0
         0         0         0         0         0         0         0         0
         0         0         0         0         0         0         0         0
         0         0         0         0         0         0         0         0
         0         0         0         0         0         0         0         0
         0         0         0         0         0         0         0         0
         0         0         0         0         0         0         0         0
         0         0         0         0         0         0         0         0
         0         0         0         0         0         0         0         0
         0         0         0         0         0         0         0         0
         0         0         0         0         0         0         0         0
         0         0         0         0         0         0         0         0
         0         0         0         0         0         0         0         0
         0         0         0         0         0         0         0         0
         0         0         0         0         0         0         0         0
         0         0         0         0         0         0         0         0
         0         0         0         0         0         0         0         0
         0         0         0         0         0         0         0         0
         0         0         0         0         0         0         0         0
         0         0         0         0         0         0         0         0
         0         0         0         0         0         0         0         0
         0         0         0         0         0         0         0         0
         0         0         0         0         0         0         0         0
         0         0         0         0         0         0         0         0
         0         0         0         0         0         0         0         0
         0         0         0         0         0         0         0         0
         0         0         0         0         0         0         0         0
         0         0         0         0         0         0         0         0
         0         0         0         0         0         0         0         0
         0         0         0         0         0         0         0         0
         0         0         0         0         0         0         0         0
         0         0         0         0         0         0         0         0
         0         0         0         0         0         0         0         0
         0         0         0         0         0         0         0         0
         0         0         0         0         0         0         0         0
         0         0         0         0         0         0         0         0
         0         0         0         0         0         0         0         0
         0         0         0         0         0         0         0         0
         0         0         0         0         0         0         0         0
         0         0         0         0         0         0         0         0
         0         0         0         0         0         0         0         0
         0         0         0         0         0         0         0         0
         0         0         0         0         0         0         0         0
         0         0         0         0         0         0         0         0
         0         0         0         0         0         0         0         0
         0         0         0         0         0         0         0         0
         0         0         0         0         0         0         0         0
         0         0         0         0         0         0         0         0
         0         0         0         0         0         0         0         0
         0         0         0         0         0         0         0         0
         0         0         0         0         0         0         0         0
         0         0         0         0         0         0         0         0
         0         0         0         0         0         0         0         0
         0         0         0         0         0         0         0         0
         0         0         0         0         0         0         0         0
         0         0         0         0         0         0         0         0
         0         0         0         0         0         0         0         0
         0         0         0         0         0         0         0         0
         0         0         0         0         0         0         0         0
         0         0         0         0         0         0         0         0
         0         0         0         0         0         0         0         0
         0         0         0         0         0         0         0         0
         0         0         0         0         0         0         0         0
         0         0         0         0         0         0         0         0
         0         0         0         0         0         0         0         0
         0         0         0         0         0         0         0         0
         0         0         0         0         0         0         0         0
         0         0         0         0         0         0         0         0
         0         0         0         0         0         0         0         0
         0         0         0         0         0         0         0         0
         0         0         0         0         0         0         0         0
         0         0         0         0         0         0         0         0
         0         0         0         0         0         0         0         0
         0         0         0         0         0         0         0         0
         0         0         0         0         0         0         0         0
         0         0         0         0         0         0         0         0
         0         0         0         0         0         0         0         0
         0         0         0         0         0         0         0         0
         0         0         0         0         0         0         0         0
         0         0         0         0         0         0         0         0
         0         0         0         0         0         0         0         0
         0         0         0         0         0         0         0         0
         0         0         0         0         0         0         0         0
         0         0         0         0         0         0         0         0
         0         0         0         0         0         0         0         0
         0         0         0         0         0         0         0         0
         0         0         0         0         0         0         0         0
         0         0         0         0         0         0         0         0
         0         0         0         0         0         0         0         0
         0         0         0         0         0         0         0         0
         0         0         0         0         0         0         0         0
         0         0         0         0         0         0         0         0
         0         0         0         0         0         0         0         0
         0         0         0         0         0         0         0         0
         0         0         0         0         0         0         0         0
         0         0         0         0         0         0         0         0
         0         0         0         0         0         0         0         0
         0         0         0         0         0         0         0         0
         0         0         0         0         0         0         0         0
         0         0         0         0         0         0         0         0
         0         0         0         0         0         0         0         0
         0         0         0         0         0         0         0         0
         0         0         0         0         0         0         0         0
         0         0         0         0         0         0         0         0
         0         0         0         0         0         0         0         0
         0         0         0         0         0         0         0         0
         0         0         0         0         0         0         0         0
         0         0         0         0         0         0         0         0
         0         0         0         0         0         0         0         0
         0         0         0         0         0         0         0         0
         0         0         0         0         0         0         0         0
         0         0         0         0         0         0         0         0
         0         0         0         0         0         0         0         0
         0         0         0         0         0         0         0         0
         0         0         0         0         0         0         0         0
         0         0         0         0         0         0         0         0
         0         0         0         0         0         0         0         0
         0         0         0         0         0         0         0         0
         0         0         0         0         0         0         0         0
         0         0         0         0         0         0         0         0
         0         0         0         0         0         0         0         0
         0         0         0         0         0         0         0         0
         0         0         0         0         0         0         0         0
         0         0         0         0         0         0         0         0
         0         0         0         0         0         0         0         0
         0         0         0         0         0         0         0         0
         0         0         0         0         0         0         0         0
         0         0         0         0         0         0         0         0
         0         0         0         0         0         0         0         0
         0         0         0         0         0         0         0         0
         0         0         0         0         0         0         0         0
         0         0         0         0         0         0         0         0
         0         0         0         0         0         0         0         0
         0         0         0         0         0         0         0         0
         0         0         0         0         0         0         0         0
         0         0         0         0         0         0         0         0
         0         0         0         0         0         0         0         0
         0         0         0         0         0         0         0         0
         0         0         0         0         0         0         0         0
         0         0         0         0         0         0         0         0
         0         0         0         0         0         0         0         0
         0         0         0         0         0         0         0         0
         0         0         0         0         0         0         0         0
         0         0         0         0         0         0         0         0
         0         0         0         0         0         0         0         0
         0         0         0         0         0         0         0         0
         0         0         0         0         0         0         0         0
         0         0         0         0         0         0         0         0
         0         0         0         0         0         0         0         0
         0         0         0         0         0         0         0         0
         0         0         0         0         0         0         0         0
         0         0         0         0         0         0         0         0
         0         0         0         0         0         0         0         0
         0         0         0         0         0         0         0         0
         0         0         0         0         0         0         0         0
         0         0         0         0         0         0         0         0
         0         0         0         0         0         0         0         0
         0         0         0         0         0         0         0         0
         0         0         0         0         0         0         0         0
         0         0         0         0         0         0         0         0
         0         0         0         0         0         0         0         0
         0         0         0         0         0         0         0         0
         0         0         0         0         0         0         0         0
         0         0         0         0         0         0         0         0
         0         0         0         0         0         0         0         0
         0         0         0         0         0         0         0         0
         0         0         0         0         0         0         0         0
         0         0         0         0         0         0         0         0
         0         0         0         0         0         0         0         0
         0         0         0         0         0         0         0         0
         0         0         0         0         0         0         0         0
         0         0         0         0         0         0         0         0
         0         0         0         0         0         0         0         0
         0         0         0         0         0         0         0         0
         0         0         0         0         0         0         0         0
         0         0         0         0         0         0         0         0
         0         0         0         0         0         0         0         0
         0         0         0         0         0         0         0         0
         0         0         0         0         0         0         0         0
         0         0         0         0         0         0         0         0
         0         0         0         0         0         0         0         0
         0         0         0         0         0         0         0         0
         0         0         0         0         0         0         0         0
         0         0         0         0         0         0         0         0
         0         0         0         0         0         0         0         0
         0         0         0         0         0         0         0         0
         0         0         0         0         0         0         0         0
         0         0         0         0         0         0         0         0
         0         0         0         0         0         0         0         0
         0         0         0         0         0         0         0         0
         0         0         0         0         0         0         0         0
         0         0         0         0         0         0         0         0
         0         0         0         0         0         0         0         0
         0         0         0         0         0         0         0         0
         0         0         0         0         0         0         0         0
         0         0         0         0         0         0         0         0
         0         0         0         0         0         0         0         0
         0         0         0         0         0         0         0         0
         0         0         0         0         0         0         0         0
         0         0         0         0         0         0         0         0
         0         0         0         0         0         0         0         0
         0         0         0         0         0         0         0         0
         0         0         0         0         0         0         0         0
         0         0         0         0         0         0         0         0
         0         0         0         0         0         0         0         0
         0         0         0         0         0         0         0         0
         0         0         0         0         0         0         0         0
         0         0         0         0         0         0         0         0
         0         0         0         0         0         0         0         0
         0         0         0         0         0         0         0         0
         0         0         0         0         0         0         0         0
         0         0         0         0         0         0         0         0
         0         0         0         0         0         0         0         0
         0         0         0         0         0         0         0         0
         0         0         0         0         0         0         0         0
         0         0         0         0         0         0         0         0
         0         0         0         0         0         0         0         0
         0         0         0         0         0         0         0         0
         0         0         0         0         0         0         0         0
         0         0         0         0         0         0         0         0
         0         0         0         0         0         0         0         0
         0         0         0         0         0         0         0         0
         0         0         0         0         0         0         0         0
         0         0         0         0         0         0         0         0
         0         0         0         0         0         0         0         0
         0         0         0         0         0         0         0         0
         0         0         0         0         0         0         0         0
         0         0         0         0         0         0         0         0
         0         0         0         0         0         0         0         0
         0         0         0         0         0         0         0         0
         0         0         0         0         0         0         0         0
         0         0         0         0         0         0         0         0
         0         0         0         0         0         0         0         0
         0         0         0         0         0         0         0         0
         0         0         0         0         0         0         0         0
         0         0         0         0         0         0         0         0
         0         0         0         0         0         0         0         0
         0         0         0         0         0         0         0         0
         0         0         0         0         0         0         0         0
         0         0         0         0         0         0         0         0
         0         0         0         0         0         0         0         0
         0         0         0         0         0         0         0         0
         0         0         0         0         0         0         0         0
         0         0         0         0         0         0         0         0
         0         0         0         0         0         0         0         0
         0         0         0         0         0         0         0         0
         0         0         0         0         0         0         0         0
         0         0         0         0         0         0         0         0
         0         0         0         0         0         0         0         0
         0         0         0         0         0         0         0         0
         0         0         0         0         0         0         0         0
         0         0         0         0         0         0         0         0
         0         0         0         0         0         0         0         0
         0         0         0         0         0         0         0         0
         0         0         0         0         0         0         0         0
         0         0         0         0         0         0         0         0
         0         0         0         0         0         0         0         0
         0         0         0         0         0         0         0         0
         0         0         0         0         0         0         0         0
         0         0         0         0         0         0         0         0
         0         0         0         0         0         0         0         0
         0         0         0         0         0         0         0         0
         0         0         0         0         0         0         0         0
         0         0         0         0         0         0         0         0
         0         0         0         0         0         0         0         0
         0         0         0         0         0         0         0         0
         0         0         0         0         0         0         0         0
         0         0         0         0         0         0         0         0
         0         0         0         0         0         0         0         0
         0         0         0         0         0         0         0         0
         0         0         0         0         0         0         0         0
         0         0         0         0         0         0         0         0
         0         0         0         0         0         0         0         0
         0         0         0         0         0         0         0         0
         0         0         0         0         0         0         0         0
         0         0         0         0         0         0         0         0
         0         0         0         0         0         0         0         0
         0         0         0         0         0         0         0         0
         0         0         0         0         0         0         0         0
         0         0         0         0         0         0         0         0
         0         0         0         0         0         0         0         0
         0         0         0         0         0         0         0         0
         0         0         0         0         0         0         0         0
         0         0         0         0         0         0         0         0
         0         0         0         0         0         0         0         0
         0         0         0         0         0         0         0         0
         0         0         0         0         0         0         0         0
         0         0         0         0         0         0         0         0
         0         0         0         0         0         0         0         0
         0         0         0         0         0         0         0         0
         0         0         0         0         0         0         0         0
         0         0         0         0         0         0         0         0
         0         0         0         0         0         0         0         0
         0         0         0         0         0         0         0         0
         0         0         0         0         0         0         0         0
         0         0         0         0         0         0         0         0
         0         0         0         0         0         0         0         0
         0         0         0         0         0         0         0         0
         0         0         0         0         0         0         0         0
         0         0         0         0         0         0         0         0
         0         0         0         0         0         0         0         0
         0         0         0         0         0         0         0         0
         0         0         0         0         0         0         0         0
         0         0         0         0         0         0         0         0
         0         0         0         0         0         0         0         0
         0         0         0         0         0         0         0         0
         0         0         0         0         0         0         0         0
         0         0         0         0         0         0         0         0
         0         0         0         0         0         0         0         0
         0         0         0         0         0         0         0         0
         0         0         0         0         0         0         0         0
         0         0         0         0         0         0         0         0
         0         0         0         0         0         0         0         0
         0         0         0         0         0         0         0         0
         0         0         0         0         0         0         0         0
         0         0         0         0         0         0         0         0
         0         0         0         0         0         0         0         0
         0         0         0         0         0         0         0         0
         0         0         0         0         0         0         0         0
         0         0         0         0         0         0         0         0
         0         0         0         0         0         0         0         0
         0         0         0         0         0         0         0         0
         0         0         0         0         0         0         0         0
         0         0         0         0         0         0         0         0
         0         0         0         0         0         0         0         0
         0         0         0         0         0         0         0         0
         0         0         0         0         0         0         0         0
         0         0         0         0         0         0         0         0
         0         0         0         0         0         0         0         0
         0         0         0         0         0         0         0         0
         0         0         0         0         0         0         0         0
         0         0         0         0         0         0         0         0
         0         0         0         0         0         0         0         0
         0         0         0         0         0         0         0         0
         0         0         0         0         0         0         0         0
         0         0         0         0         0         0         0         0
         0         0         0         0         0         0         0         0
         0         0         0         0         0         0         0         0
         0         0         0         0         0         0         0         0
         0         0         0         0         0         0         0         0
         0         0         0         0         0         0         0         0
         0         0         0         0         0         0         0         0
         0         0         0         0         0         0         0         0
         0         0         0         0         0         0         0         0
         0         0         0         0         0         0         0         0
         0         0         0         0         0         0         0         0
         0         0         0         0         0         0         0         0
         0         0         0         0         0         0         0         0
         0         0         0         0         0         0         0         0
         0         0         0         0         0         0         0         0
         0         0         0         0         0         0         0         0
         0         0         0         0         0         0         0         0
         0         0         0         0         0         0         0         0
         0         0         0         0         0         0         0         0
         0         0         0         0         0         0         0         0
         0         0         0         0         0         0         0         0
         0         0         0         0         0         0         0         0
         0         0         0         0         0         0         0         0
         0         0         0         0         0         0         0         0
         0         0         0         0         0         0         0         0
         0         0         0         0         0         0         0         0
         0         0         0         0         0         0         0         0
         0         0         0         0         0         0         0         0
         0         0         0         0         0         0         0         0
         0         0         0         0         0         0         0         0
         0         0         0         0         0         0         0         0
         0         0         0         0         0         0         0         0
         0         0         0         0         0         0         0         0
         0         0         0         0         0         0         0         0
         0         0         0         0         0         0         0         0
         0         0         0         0         0         0         0         0
         0         0         0         0         0         0         0         0
         0         0         0         0         0         0         0         0
         0         0         0         0         0         0         0         0
         0         0         0         0         0         0         0         0
         0         0         0         0         0         0         0         0
         0         0         0         0         0         0         0         0
         0         0         0         0         0         0         0         0
         0         0         0         0         0         0         0         0
         0         0         0         0         0         0         0         0
         0         0         0         0         0         0         0         0
         0         0         0         0         0         0         0         0
         0         0         0         0         0         0         0         0
         0         0         0         0         0         0         0         0
         0         0         0         0         0         0         0         0
         0         0         0         0         0         0         0         0
         0         0         0         0         0         0         0         0
         0         0         0         0         0         0         0         0
         0         0         0         0         0         0         0         0
         0         0         0         0         0         0         0         0
         0         0         0         0         0         0         0         0
         0         0         0         0         0         0         0         0
         0         0         0         0         0         0         0         0
         0         0         0         0         0         0         0         0
         0         0         0         0         0         0         0         0
         0         0         0         0         0         0         0         0
         0         0         0         0         0         0         0         0
         0         0         0         0         0         0         0         0
         0         0         0         0         0         0         0         0
         0         0         0         0         0         0         0         0
         0         0         0         0         0         0         0         0
         0         0         0         0         0         0         0         0
         0         0         0         0         0         0         0         0
         0         0         0         0         0         0         0         0
         0         0         0         0         0         0         0         0
         0         0         0         0         0         0         0         0
         0         0         0         0         0         0         0         0
         0         0         0         0         0         0         0         0
         0         0         0         0         0         0         0         0
         0         0         0         0         0         0         0         0
         0         0         0         0         0         0         0         0
         0         0         0         0         0         0         0         0
         0         0         0         0         0         0         0         0
         0         0         0         0         0         0         0         0
         0         0         0         0         0         0         0         0
         0         0         0         0         0         0         0         0
         0         0         0         0         0         0         0         0
         0         0         0         0         0         0         0         0
         0         0         0         0         0         0         0         0
         0         0         0         0         0         0         0         0
         0         0         0         0         0         0         0         0
         0         0         0         0         0         0         0         0
         0         0         0         0         0         0         0         0
         0         0         0         0         0         0         0         0
         0         0         0         0         0         0         0         0
         0         0         0         0         0         0         0         0
         0         0         0         0         0         0         0         0
         0         0         0         0         0         0         0         0
         0         0         0         0         0         0         0         0
         0         0         0         0         0         0         0         0
         0         0         0         0         0         0         0         0
         0         0         0         0         0         0         0         0
         0         0         0         0         0         0         0         0
         0         0         0         0         0         0         0         0
         0         0         0         0         0         0         0         0
         0         0         0         0         0         0         0         0
         0         0         0         0         0         0         0         0
         0         0         0         0         0         0         0         0
         0         0         0         0         0         0         0         0
         0         0         0         0         0         0         0         0
         0         0         0         0         0         0         0         0
         0         0         0         0         0         0         0         0
         0         0         0         0         0         0         0         0
         0         0         0         0         0         0         0         0
         0         0         0         0         0         0         0         0
         0         0         0         0         0         0         0         0
         0         0         0         0         0         0         0         0
         0         0         0         0         0         0         0         0
         0         0         0         0         0         0         0         0
         0         0         0         0         0         0         0         0
         0         0         0         0         0         0         0         0
         0         0         0         0         0         0         0         0
         0         0         0         0         0         0         0         0
         0         0         0         0         0         0         0         0
         0         0         0         0         0         0         0         0
         0         0         0         0         0         0         0         0
         0         0         0         0         0         0         0         0
         0         0         0         0         0         0         0         0
         0         0         0         0         0         0         0         0
         0         0         0         0         0         0         0         0
         0         0         0         0         0         0         0         0
         0         0         0         0         0         0         0         0
         0         0         0         0         0         0         0         0
         0         0         0         0         0         0         0         0
         0         0         0         0         0         0         0         0
         0         0         0         0         0         0         0         0
         0         0         0         0         0         0         0         0
         0         0         0         0         0         0         0         0
         0         0         0         0         0         0         0         0
         0         0         0         0         0         0         0         0
         0         0         0         0         0         0         0         0
         0         0         0         0         0         0         0         0
         0         0         0         0         0         0         0         0
         0         0         0         0         0         0         0         0
         0         0         0         0         0         0         0         0
         0         0         0         0         0         0         0         0
         0         0         0         0         0         0         0         0
         0         0         0         0         0         0         0         0
         0         0         0         0         0         0         0         0
         0         0         0         0         0         0         0         0
         0         0         0         0         0         0         0         0
         0         0         0         0         0         0         0         0
         0         0         0         0         0         0         0         0
         0         0         0         0         0         0         0         0
         0         0         0         0         0         0         0         0
         0         0         0         0         0         0         0         0
         0         0         0         0         0         0         0         0
         0         0         0         0         0         0         0         0
         0         0         0         0         0         0         0         0
         0         0         0         0         0         0         0         0
         0         0         0         0         0         0         0         0
         0         0         0         0         0         0         0         0
         0         0         0         0         0         0         0         0
         0         0         0         0         0         0         0         0
         0         0         0         0         0         0         0         0
         0         0         0         0         0         0         0         0
         0         0         0         0         0         0         0         0
         0         0         0         0         0         0         0         0
         0         0         0         0         0         0         0         0
         0         0         0         0         0         0         0         0
         0         0         0         0         0         0         0         0
         0         0         0         0         0         0         0         0
         0         0         0         0         0         0         0         0
         0         0         0         0         0         0         0         0
         0         0         0         0         0         0         0         0
         0         0         0         0         0         0         0         0
         0         0         0         0         0         0         0         0
         0         0         0         0         0         0         0         0
         0         0         0         0         0         0         0         0
         0         0         0         0         0         0         0         0
         0         0         0         0         0         0         0         0
         0         0         0         0         0         0         0         0
         0         0         0         0         0         0         0         0
         0         0         0         0         0         0         0         0
         0         0         0         0         0         0         0         0
         0         0         0         0         0         0         0         0
         0         0         0         0         0         0         0         0
         0         0         0         0         0         0         0         0
         0         0         0         0         0         0         0         0
         0         0         0         0         0         0         0         0
         0         0         0         0         0         0         0         0
         0         0         0         0         0         0         0         0
         0         0         0         0         0         0         0         0
         0         0         0         0         0         0         0         0
         0         0         0         0         0         0         0         0
         0         0         0         0         0         0         0         0
         0         0         0         0         0         0         0         0
         0         0         0         0         0         0         0         0
         0         0         0         0         0         0         0         0
         0         0         0         0         0         0         0         0
         0         0         0         0         0         0         0         0
         0         0         0         0         0         0         0         0
         0         0         0         0         0         0         0         0
         0         0         0         0         0         0         0         0
         0         0         0         0         0         0         0         0
         0         0         0         0         0         0         0         0
         0         0         0         0         0         0         0         0
         0         0         0         0         0         0         0         0
         0         0         0         0         0         0         0         0
         0         0         0         0         0         0         0         0
         0         0         0         0         0         0         0         0
         0         0         0         0         0         0         0         0
         0         0         0         0         0         0         0         0
         0         0         0         0         0         0         0         0
         0         0         0         0         0         0         0         0
         0         0         0         0         0         0         0         0
         0         0         0         0         0         0         0         0
         0         0         0         0         0         0         0         0
         0         0         0         0         0         0         0         0
         0         0         0         0         0         0         0         0
         0         0         0         0         0         0         0         0
         0         0         0         0         0         0         0         0
         0         0         0         0         0         0         0         0
         0         0         0         0         0         0         0         0
         0         0         0         0         0         0         0         0
         0         0         0         0         0         0         0         0
         0         0         0         0         0         0         0         0
         0         0         0         0         0         0         0         0
         0         0         0         0         0         0         0         0
         0         0         0         0         0         0         0         0
         0         0         0         0         0         0         0         0
         0         0         0         0         0         0         0         0
         0         0         0         0         0         0         0         0
         0         0         0         0         0         0         0         0
         0         0         0         0         0         0         0         0
         0         0         0         0         0         0         0         0
         0         0         0         0         0         0         0         0
         0         0         0         0         0         0         0         0
         0         0         0         0         0         0         0         0
         0         0         0         0         0         0         0         0
         0         0         0         0         0         0         0         0
         0         0         0         0         0         0         0         0
         0         0         0         0         0         0         0         0
         0         0         0         0         0         0         0         0
         0         0         0         0         0         0         0         0
         0         0         0         0         0         0         0         0
         0         0         0         0         0         0         0         0
         0         0         0         0         0         0         0         0
         0         0         0         0         0         0         0         0
         0         0         0         0         0         0         0         0
         0         0         0         0         0         0         0         0
         0         0         0         0         0         0         0         0
         0         0         0         0         0         0         0         0
         0         0         0         0         0         0         0         0
         0         0         0         0         0         0         0         0
         0         0         0         0         0         0         0         0
         0         0         0         0         0         0         0         0
         0         0         0         0         0         0         0         0
         0         0         0         0         0         0         0         0
         0         0         0         0         0         0         0         0
         0         0         0         0         0         0         0         0
         0         0         0         0         0         0         0         0
         0         0         0         0         0         0         0         0
         0         0         0         0         0         0         0         0
         0         0         0         0         0         0         0         0
         0         0         0         0         0         0         0         0
         0         0         0         0         0         0         0         0
         0         0         0         0         0         0         0         0
         0         0         0         0         0         0         0         0
         0         0         0         0         0         0         0         0
         0         0         0         0         0         0         0         0
         0         0         0         0         0         0         0         0
         0         0         0         0         0         0         0         0
         0         0         0         0         0         0         0         0
         0         0         0         0         0         0         0         0
         0         0         0         0         0         0         0         0
         0         0         0         0         0         0         0         0
         0         0         0         0         0         0         0         0
         0         0         0         0         0         0         0         0
         0         0         0         0         0         0         0         0
         0         0         0         0         0         0         0         0
         0         0         0         0         0         0         0         0
         0         0         0         0         0         0         0         0
         0         0         0         0         0         0         0         0
         0         0         0         0         0         0         0         0
         0         0         0         0         0         0         0         0
         0         0         0         0         0         0         0         0
         0         0         0         0         0         0         0         0
         0         0         0         0         0         0         0         0
         0         0         0         0         0         0         0         0
         0         0         0         0         0         0         0         0
         0         0         0         0         0         0         0         0
         0         0         0         0         0         0         0         0
         0         0         0         0         0         0         0         0
         0         0         0         0         0         0         0         0
         0         0         0         0         0         0         0         0
         0         0         0         0         0         0         0         0
         0         0         0         0         0         0         0         0
         0         0         0         0         0         0         0         0
         0         0         0         0         0         0         0         0
         0         0         0         0         0         0         0         0
         0         0         0         0         0         0         0         0
         0         0         0         0         0         0         0         0
         0         0         0         0         0         0         0         0
         0         0         0         0         0         0         0         0
         0         0         0         0         0         0         0         0
         0         0         0         0         0         0         0         0
         0         0         0         0         0         0         0         0
         0         0         0         0         0         0         0         0
         0         0         0         0         0         0         0         0
         0         0         0         0         0         0         0         0
         0         0         0         0         0         0         0         0
         0         0         0         0         0         0         0         0
         0         0         0         0         0         0         0         0
         0         0         0         0         0         0         0         0
         0         0         0         0         0         0         0         0
         0         0         0         0         0         0         0         0
         0         0         0         0         0         0         0         0
         0         0         0         0         0         0         0         0
         0         0         0         0         0         0         0         0
         0         0         0         0         0         0         0         0
         0         0         0         0         0         0         0         0
         0         0         0         0         0         0         0         0
         0         0         0         0         0         0         0         0
         0         0         0         0         0         0         0         0
         0         0         0         0         0         0         0         0
         0         0         0         0         0         0         0         0
         0         0         0         0         0         0         0         0
         0         0         0         0         0         0         0         0
         0         0         0         0         0         0         0         0
         0         0         0         0         0         0         0         0
         0         0         0         0         0         0         0         0
         0         0         0         0         0         0         0         0
         0         0         0         0         0         0         0         0
         0         0         0         0         0         0         0         0
         0         0         0         0         0         0         0         0
         0         0         0         0         0         0         0         0
         0         0         0         0         0         0         0         0
         0         0         0         0         0         0         0         0
         0         0         0         0         0         0         0         0
         0         0         0         0         0         0         0         0
         0         0         0         0         0         0         0         0
         0         0         0         0         0         0         0         0
         0         0         0         0         0         0         0         0
         0         0         0         0         0         0         0         0
         0         0         0         0         0         0         0         0
         0         0         0         0         0         0         0         0
         0         0         0         0         0         0         0         0
         0         0         0         0         0         0         0         0
         0         0         0         0         0         0         0         0
         0         0         0         0         0         0         0         0
         0         0         0         0         0         0         0         0
         0         0         0         0         0         0         0         0
         0         0         0         0         0         0         0         0
         0         0         0         0         0         0         0         0
         0         0         0         0         0         0         0         0
         0         0         0         0         0         0         0         0
         0         0         0         0         0         0         0         0
         0         0         0         0         0         0         0         0
         0         0         0         0         0         0         0         0
         0         0         0         0         0         0         0         0
         0         0         0         0         0         0         0         0
         0         0         0         0         0         0         0         0
         0         0         0         0         0         0         0         0
         0         0         0         0         0         0         0         0
         0         0         0         0         0         0         0         0
         0         0         0         0         0         0         0         0
         0         0         0         0         0         0         0         0
         0         0         0         0         0         0         0         0
         0         0         0         0         0         0         0         0
         0         0         0         0         0         0         0         0
         0         0         0         0         0         0         0         0
         0         0         0         0         0         0         0         0
         0         0         0         0         0         0         0         0
         0         0         0         0         0         0         0         0
         0         0         0         0         0         0         0         0
         0         0         0         0         0         0         0         0
         0         0         0         0         0         0         0         0
         0         0         0         0         0         0         0         0
         0         0         0         0         0         0         0         0
         0         0         0         0         0         0         0         0
         0         0         0         0         0         0         0         0
         0         0         0         0         0         0         0         0
         0         0         0         0         0         0         0         0
         0         0         0         0         0         0         0         0
         0         0         0         0         0         0         0         0
         0         0         0         0         0         0         0         0
         0         0         0         0         0         0         0         0
         0         0         0         0         0         0         0         0
         0         0         0         0         0         0         0         0
         0         0         0         0         0         0         0         0
         0         0         0         0         0         0         0         0
         0         0         0         0         0         0         0         0
         0         0         0         0         0         0         0         0
         0         0         0         0         0         0         0         0
         0         0         0         0         0         0         0         0
         0         0         0         0         0         0         0         0
         0         0         0         0         0         0         0         0
         0         0         0         0         0         0         0         0
         0         0         0         0         0         0         0         0
         0         0         0         0         0         0         0         0
         0         0         0         0         0         0         0         0
         0         0         0         0         0         0         0         0
         0         0         0         0         0         0         0         0
         0         0         0         0         0         0         0         0
         0         0         0         0         0         0         0         0
         0         0         0         0         0         0         0         0
         0         0         0         0         0         0         0         0
         0         0         0         0         0         0         0         0
         0         0         0         0         0         0         0         0
         0         0         0         0         0         0         0         0
         0         0         0         0         0         0         0         0
         0         0         0         0         0         0         0         0
         0         0         0         0         0         0         0         0
         0         0         0         0         0         0         0         0
         0         0         0         0         0         0         0         0
         0         0         0         0         0         0         0         0
         0         0         0         0         0         0         0         0
         0         0         0         0         0         0         0         0
         0         0         0         0         0         0         0         0
         0         0         0         0         0         0         0         0
         0         0         0         0         0         0         0         0
         0         0         0         0         0         0         0         0
         0         0         0         0         0         0         0         0
         0         0         0         0         0         0         0         0
         0         0         0         0         0         0         0         0
         0         0         0         0         0         0         0         0
         0         0         0         0         0         0         0         0
         0         0         0         0         0         0         0         0
         0         0         0         0         0         0         0         0
         0         0         0         0         0         0         0         0
         0         0         0         0         0         0         0         0
         0         0         0         0         0         0         0         0
         0         0         0         0         0         0         0         0
         0         0         0         0         0         0         0         0
         0         0         0         0         0         0         0         0
         0         0         0         0         0         0         0         0
         0         0         0         0         0         0         0         0
         0         0         0         0         0         0         0         0
         0         0         0         0         0         0         0         0
         0         0         0         0         0         0         0         0
         0         0         0         0         0         0         0         0
         0         0         0         0         0         0         0         0
         0         0         0         0         0         0         0         0
         0         0         0         0         0         0         0         0
         0         0         0         0         0         0         0         0
         0         0         0         0         0         0         0         0
         0         0         0         0         0         0         0         0
         0         0         0         0         0         0         0         0
         0         0         0         0         0         0         0         0
         0         0         0         0         0         0         0         0
         0         0         0         0         0         0         0         0
         0         0         0         0         0         0         0         0
         0         0         0         0         0         0         0         0
         0         0         0         0         0         0         0         0
         0         0         0         0         0         0         0         0
         0         0         0         0         0         0         0         0
         0         0         0         0         0         0         0         0
         0         0         0         0         0         0         0         0
         0         0         0         0         0         0         0         0
         0         0         0         0         0         0         0         0
         0         0         0         0         0         0         0         0
         0         0         0         0         0         0         0         0
         0         0         0         0         0         0         0         0
         0         0         0         0         0         0         0         0
         0         0         0         0         0         0         0         0
         0         0         0         0         0         0         0         0
         0         0         0         0         0         0         0         0
         0         0         0         0         0         0         0         0
         0         0         0         0         0         0         0         0
         0         0         0         0         0         0         0         0
         0         0         0         0         0         0         0         0
         0         0         0         0         0         0         0         0
         0         0         0         0         0         0         0         0
         0         0         0         0         0         0         0         0
         0         0         0         0         0         0         0         0
         0         0         0         0         0         0         0         0
         0         0         0         0         0         0         0         0
         0         0         0         0         0         0         0         0
         0         0         0         0         0         0         0         0
         0         0         0         0         0         0         0         0
         0         0         0         0         0         0         0         0
         0         0         0         0         0         0         0         0
         0         0         0         0         0         0         0         0
         0         0         0         0         0         0         0         0
         0         0         0         0         0         0         0         0
         0         0         0         0         0         0         0         0
         0         0         0         0         0         0         0         0
         0         0         0         0         0         0         0         0
         0         0         0         0         0         0         0         0
         0         0         0         0         0         0         0         0
         0         0         0         0         0         0         0         0
         0         0         0         0         0         0         0         0
         0         0         0         0         0         0         0         0
         0         0         0         0         0         0         0         0
         0         0         0         0         0         0         0         0
         0         0         0         0         0         0         0         0
         0         0         0         0         0         0         0         0
         0         0         0         0         0         0         0         0
         0         0         0         0         0         0         0         0
         0         0         0         0         0         0         0         0
         0         0         0         0         0         0         0         0
         0         0         0         0         0         0         0         0
         0         0         0         0         0         0         0         0
         0         0         0         0         0         0         0         0
         0         0         0         0         0         0         0         0
         0         0         0         0         0         0         0         0
         0         0         0         0         0         0         0         0
         0         0         0         0         0         0         0         0
         0         0         0         0         0         0         0         0
         0         0         0         0         0         0         0         0
         0         0         0         0         0         0         0         0
         0         0         0         0         0         0         0         0
         0         0         0         0         0         0         0         0
         0         0         0         0         0         0         0         0
         0         0         0         0         0         0         0         0
         0         0         0         0         0         0         0         0
         0         0         0         0         0         0         0         0
         0         0         0         0         0         0         0         0
         0         0         0         0         0         0         0         0
         0         0         0         0         0         0         0         0
         0         0         0         0         0         0         0         0
         0         0         0         0         0         0         0         0
         0         0         0         0         0         0         0         0
         0         0         0         0         0         0         0         0
         0         0         0         0         0         0         0         0
         0         0         0         0         0         0         0         0
         0         0         0         0         0         0         0         0
         0         0         0         0         0         0         0         0
         0         0         0         0         0         0         0         0
         0         0         0         0         0         0         0         0
         0         0         0         0         0         0         0         0
         0         0         0         0         0         0         0         0
         0         0         0         0         0         0         0         0
         0         0         0         0         0         0         0         0
         0         0         0         0         0         0         0         0
         0         0         0         0         0         0         0         0
         0         0         0         0         0         0         0         0
         0         0         0         0         0         0         0         0
         0         0         0         0         0         0         0         0
         0         0         0         0         0         0         0         0
         0         0         0         0         0         0         0         0
         0         0         0         0         0         0         0         0
         0         0         0         0         0         0         0         0
         0         0         0         0         0         0         0         0
         0         0         0         0         0         0         0         0
         0         0         0         0         0         0         0         0
         0         0         0         0         0         0         0         0
         0         0         0         0         0         0         0         0
         0         0         0         0         0         0         0         0
         0         0         0         0         0         0         0         0
         0         0         0         0         0         0         0         0
         0         0         0         0         0         0         0         0
         0         0         0         0         0         0         0         0
         0         0         0         0         0         0         0         0
         0         0         0         0         0         0         0         0
         0         0         0         0         0         0         0         0
         0         0         0         0         0         0         0         0
         0         0         0         0         0         0         0         0
         0         0         0         0         0         0         0         0
         0         0         0         0         0         0         0         0
         0         0         0         0         0         0         0         0
         0         0         0         0         0         0         0         0
         0         0         0         0         0         0         0         0
         0         0         0         0         0         0         0         0
         0         0         0         0         0         0         0         0
         0         0         0         0         0         0         0         0
         0         0         0         0         0         0         0         0
         0         0         0         0         0         0         0         0
         0         0         0         0         0         0         0         0
         0         0         0         0         0         0         0         0
         0         0         0         0         0         0         0         0
         0         0         0         0         0         0         0         0
         0         0         0         0         0         0         0         0
         0         0         0         0         0         0         0         0
         0         0         0         0         0         0         0         0
         0         0         0         0         0         0         0         0
         0         0         0         0         0         0         0         0
         0         0         0         0         0         0         0         0
         0         0         0         0         0         0         0         0
         0         0         0         0         0         0         0         0
         0         0         0         0         0         0         0         0
         0         0         0         0         0         0         0         0
         0         0         0         0         0         0         0         0
         0         0         0         0         0         0         0         0
         0         0         0         0         0         0         0         0
         0         0         0         0         0         0         0         0
         0         0         0         0         0         0         0         0
         0         0         0         0         0         0         0         0
         0         0         0         0         0         0         0         0
         0         0         0         0         0         0         0         0
         0         0         0         0         0         0         0         0
         0         0         0         0         0         0         0         0
         0         0         0         0         0         0         0         0
         0         0         0         0         0         0         0         0
         0         0         0         0         0         0         0         0
         0         0         0         0         0         0         0         0
         0         0         0         0         0         0         0         0
         0         0         0         0         0         0         0         0
         0         0         0         0         0         0         0         0
         0         0         0         0         0         0         0         0
         0         0         0         0         0         0         0         0
         0         0         0         0         0         0         0         0
         0         0         0         0         0         0         0         0
         0         0         0         0         0         0         0         0
         0         0         0         0         0         0         0         0
         0         0         0         0         0         0         0         0
         0         0         0         0         0         0         0         0
         0         0         0         0         0         0         0         0
         0         0         0         0         0         0         0         0
         0         0         0         0         0         0         0         0
         0         0         0         0         0         0         0         0
         0         0         0         0         0         0         0         0
         0         0         0         0         0         0         0         0
         0         0         0         0         0         0         0         0
         0         0         0         0         0         0         0         0
         0         0         0         0         0         0         0         0
         0         0         0         0         0         0         0         0
         0         0         0         0         0         0         0         0
         0         0         0         0         0         0         0         0
         0         0         0         0         0         0         0         0
         0         0         0         0         0         0         0         0
         0         0         0         0         0         0         0         0
         0         0         0         0         0         0         0         0
         0         0         0         0         0         0         0         0
         0         0         0         0         0         0         0         0
         0         0         0         0         0         0         0         0
         0         0         0         0         0         0         0         0
         0         0         0         0         0         0         0         0
         0         0         0         0         0         0         0         0
         0         0         0         0         0         0         0         0
         0         0         0         0         0         0         0         0
         0         0         0         0         0         0         0         0
         0         0         0         0         0         0         0         0
         0         0         0         0         0         0         0         0
         0         0         0         0         0         0         0         0
         0         0         0         0         0         0         0         0
         0         0         0         0         0         0         0         0
         0         0         0         0         0         0         0         0
         0         0         0         0         0         0         0         0
         0         0         0         0         0         0         0         0
         0         0         0         0         0         0         0         0
         0         0         0         0         0         0         0         0
         0         0         0         0         0         0         0         0
         0         0         0         0         0         0         0         0
         0         0         0         0         0         0         0         0
         0         0         0         0         0         0         0         0
         0         0         0         0         0         0         0         0
         0         0         0         0         0         0         0         0
         0         0         0         0         0         0         0         0
         0         0         0         0         0         0         0         0
         0         0         0         0         0         0         0         0
         0         0         0         0         0         0         0         0
         0         0         0         0         0         0         0         0
         0         0         0         0         0         0         0         0
         0         0         0         0         0         0         0         0
         0         0         0         0         0         0         0         0
         0         0         0         0         0         0         0         0
         0         0         0         0         0         0         0         0
         0         0         0         0         0         0         0         0
         0         0         0         0         0         0         0         0
         0         0         0         0         0         0         0         0
         0         0         0         0         0         0         0         0
         0         0         0         0         0         0         0         0
         0         0         0         0         0         0         0         0
         0         0         0         0         0         0         0         0
         0         0         0         0         0         0         0         0
         0         0         0         0         0         0         0         0
         0         0         0         0         0         0         0         0
         0         0         0         0         0         0         0         0
         0         0         0         0         0         0         0         0
         0         0         0         0         0         0         0         0
         0         0         0         0         0         0         0         0
         0         0         0         0         0         0         0         0
         0         0         0         0         0         0         0         0
         0         0         0         0         0         0         0         0
         0         0         0         0         0         0         0         0
         0         0         0         0         0         0         0         0
         0         0         0         0         0         0         0         0
         0         0         0         0         0         0         0         0
         0         0         0         0         0         0         0         0
         0         0         0         0         0         0         0         0
         0         0         0         0         0         0         0         0
         0         0         0         0         0         0         0         0
         0         0         0         0         0         0         0         0
         0         0         0         0         0         0         0         0
         0         0         0         0         0         0         0         0
         0         0         0         0         0         0         0         0
         0         0         0         0         0         0         0         0
         0         0         0         0         0         0         0         0
         0         0         0         0         0         0         0         0
         0         0         0         0         0         0         0         0
         0         0         0         0         0         0         0         0
         0         0         0         0         0         0         0         0
         0         0         0         0         0         0         0         0
         0         0         0         0         0         0         0         0
         0         0         0         0         0         0         0         0
         0         0         0         0         0         0         0         0
         0         0         0         0         0         0         0         0
         0         0         0         0         0         0         0         0
         0         0         0         0         0         0         0         0
         0         0         0         0         0         0         0         0
         0         0         0         0         0         0         0         0
         0         0         0         0         0         0         0         0
         0         0         0         0         0         0         0         0
         0         0         0         0         0         0         0         0
         0         0         0         0         0         0         0         0
         0         0         0         0         0         0         0         0
         0         0         0         0         0         0         0         0
         0         0         0         0         0         0         0         0
         0         0         0         0         0         0         0         0
         0         0         0         0         0         0         0         0
         0         0         0         0         0         0         0         0
         0         0         0         0         0         0         0         0
         0         0         0         0         0         0         0         0
         0         0         0         0         0         0         0         0
         0         0         0         0         0         0         0         0
         0         0         0         0         0         0         0         0
         0         0         0         0         0         0         0         0
         0         0         0         0         0         0         0         0
         0         0         0         0         0         0         0         0
         0         0         0         0         0         0         0         0
         0         0         0         0         0         0         0         0
         0         0         0         0         0         0         0         0
         0         0         0         0         0         0         0         0
         0         0         0         0         0         0         0         0
         0         0         0         0         0         0         0         0
         0         0         0         0         0         0         0         0
         0         0         0         0         0         0         0         0
         0         0         0         0         0         0         0         0
         0         0         0         0         0         0         0         0
         0         0         0         0         0         0         0         0
         0         0         0         0         0         0         0         0
         0         0         0         0         0         0         0         0
         0         0         0         0         0         0         0         0
         0         0         0         0         0         0         0         0
         0         0         0         0         0         0         0         0
         0         0         0         0         0         0         0         0
         0         0         0         0         0         0         0         0
         0         0         0         0         0         0         0         0
         0         0         0         0         0         0         0         0
         0         0         0         0         0         0         0         0
         0         0         0         0         0         0         0         0
         0         0         0         0         0         0         0         0
         0         0         0         0         0         0         0         0
         0         0         0         0         0         0         0         0
         0         0         0         0         0         0         0         0
         0         0         0         0         0         0         0         0
         0         0         0         0         0         0         0         0
         0         0         0         0         0         0         0         0
         0         0         0         0         0         0         0         0
         0         0         0         0         0         0         0         0
         0         0         0         0         0         0         0         0
         0         0         0         0         0         0         0         0
         0         0         0         0         0         0         0         0
         0         0         0         0         0         0         0         0
         0         0         0         0         0         0         0         0
         0         0         0         0         0         0         0         0
         0         0         0         0         0         0         0         0
         0         0         0         0         0         0         0         0
         0         0         0         0         0         0         0         0
         0         0         0         0         0         0         0         0
         0         0         0         0         0         0         0         0
         0         0         0         0         0         0         0         0
         0         0         0         0         0         0         0         0
         0         0         0         0         0         0         0         0
         0         0         0         0         0         0         0         0
         0         0         0         0         0         0         0         0
         0         0         0         0         0         0         0         0
         0         0         0         0         0         0         0         0
         0         0         0         0         0         0         0         0
         0         0         0         0         0         0         0         0
         0         0         0         0         0         0         0         0
         0         0         0         0         0         0         0         0
         0         0         0         0         0         0         0         0
         0         0         0         0         0         0         0         0
         0         0         0         0         0         0         0         0
         0         0         0         0         0         0         0         0
         0         0         0         0         0         0         0         0
         0         0         0         0         0         0         0         0
         0         0         0         0         0         0         0         0
         0         0         0         0         0         0         0         0
         0         0         0         0         0         0         0         0
         0         0         0         0         0         0         0         0
         0         0         0         0         0         0         0         0
         0         0         0         0         0         0         0         0
         0         0         0         0         0         0         0         0
         0         0         0         0         0         0         0         0
         0         0         0         0         0         0         0         0
         0         0         0         0         0         0         0         0
         0         0         0         0         0         0         0         0
         0         0         0         0         0         0         0         0
         0         0         0         0         0         0         0         0
         0         0         0         0         0         0         0         0
         0         0         0         0         0         0         0         0
         0         0         0         0         0         0         0         0
         0         0         0         0         0         0         0         0
         0         0         0         0         0         0         0         0
         0         0         0         0         0         0         0         0
         0         0         0         0         0         0         0         0
         0         0         0         0         0         0         0         0
         0         0         0         0         0         0         0         0
         0         0         0         0         0         0         0         0
         0         0         0         0         0         0         0         0
         0         0         0         0         0         0         0         0
         0         0         0         0         0         0         0         0
         0         0         0         0         0         0         0         0
         0         0         0         0         0         0         0         0
         0         0         0         0         0         0         0         0
         0         0         0         0         0         0         0         0
         0         0         0         0         0         0         0         0
         0         0         0         0         0         0         0         0
         0         0         0         0         0         0         0         0
         0         0         0         0         0         0         0         0
         0         0         0         0         0         0         0         0
         0         0         0         0         0         0         0         0
         0         0         0         0         0         0         0         0
         0         0         0         0         0         0         0         0
         0         0         0         0         0         0         0         0
         0         0         0         0         0         0         0         0
         0         0         0         0         0         0         0         0
         0         0         0         0         0         0         0         0
         0         0         0         0         0         0         0         0
         0         0         0         0         0         0         0         0
         0         0         0         0         0         0         0         0
         0         0         0         0         0         0         0         0
         0         0         0         0         0         0         0         0
         0         0         0         0         0         0         0         0
         0         0         0         0         0         0         0         0
         0         0         0         0         0         0         0         0
         0         0         0         0         0         0         0         0
         0         0         0         0         0         0         0         0
         0         0         0         0         0         0         0         0
         0         0         0         0         0         0         0         0
         0         0         0         0         0         0         0         0
         0         0         0         0         0         0         0         0
         0         0         0         0         0         0         0         0
         0         0         0         0         0         0         0         0
         0         0         0         0         0         0         0         0
         0         0         0         0         0         0         0         0
         0         0         0         0         0         0         0         0
         0         0         0         0         0         0         0         0
         0         0         0         0         0         0         0         0
         0         0         0         0         0         0         0         0
         0         0         0         0         0         0         0         0
         0         0         0         0         0         0         0         0
         0         0         0         0         0         0         0         0
         0         0         0         0         0         0         0         0
         0         0         0         0         0         0         0         0
         0         0         0         0         0         0         0         0
         0         0         0         0         0         0         0         0
         0         0         0         0         0         0         0         0
         0         0         0         0         0         0         0         0
         0         0         0         0         0         0         0         0
         0         0         0         0         0         0         0         0
         0         0         0         0         0         0         0         0
         0         0         0         0         0         0         0         0
         0         0         0         0         0         0         0         0
         0         0         0         0         0         0         0         0
         0         0         0         0         0         0         0         0
         0         0         0         0         0         0         0         0
         0         0         0         0         0         0         0         0
         0         0         0         0         0         0         0         0
         0         0         0         0         0         0         0         0
         0         0         0         0         0         0         0         0
         0         0         0         0         0         0         0         0
         0         0         0         0         0         0         0         0
         0         0         0         0         0         0         0         0
         0         0         0         0         0         0         0         0
         0         0         0         0         0         0         0         0
         0         0         0         0         0         0         0         0
         0         0         0         0         0         0         0         0
         0         0         0         0         0         0         0         0
         0         0         0         0         0         0         0         0
         0         0         0         0         0         0         0         0
         0         0         0         0         0         0         0         0
         0         0         0         0         0         0         0         0
         0         0         0         0         0         0         0         0
         0         0         0         0         0         0         0         0
         0         0         0         0         0         0         0         0
         0         0         0         0         0         0         0         0
         0         0         0         0         0         0         0         0
         0         0         0         0         0         0         0         0
         0         0         0         0         0         0         0         0
         0         0         0         0         0         0         0         0
         0         0         0         0         0         0         0         0
         0         0         0         0         0         0         0         0
         0         0         0         0         0         0         0         0
         0         0         0         0         0         0         0         0
         0         0         0         0         0         0         0         0
         0         0         0         0         0         0         0         0
         0         0         0         0         0         0         0         0
         0         0         0         0         0         0         0         0
         0         0         0         0         0         0         0         0
         0         0         0         0         0         0         0         0
         0         0         0         0         0         0         0         0
         0         0         0         0         0         0         0         0
         0         0         0         0         0         0         0         0
         0         0         0         0         0         0         0         0
         0         0         0         0         0         0         0         0
         0         0         0         0         0         0         0         0
         0         0         0         0         0         0         0         0
         0         0         0         0         0         0         0         0
         0         0         0         0         0         0         0         0
         0         0         0         0         0         0         0         0
         0         0         0         0         0         0         0         0
         0         0         0         0         0         0         0         0
         0         0         0         0         0         0         0         0
         0         0         0         0         0         0         0         0
         0         0         0         0         0         0         0         0
         0         0         0         0         0         0         0         0
         0         0         0         0         0         0         0         0
         0         0         0         0         0         0         0         0
         0         0         0         0         0         0         0         0
         0         0         0         0         0         0         0         0
         0         0         0         0         0         0         0         0
         0         0         0         0         0         0         0         0
         0         0         0         0         0         0         0         0
         0         0         0         0         0         0         0         0
         0         0         0         0         0         0         0         0
         0         0         0         0         0         0         0         0
         0         0         0         0         0         0         0         0
         0         0         0         0         0         0         0         0
         0         0         0         0         0         0         0         0
         0         0         0         0         0         0         0         0
         0         0         0         0         0         0         0         0
         0         0         0         0         0         0         0         0
         0         0         0         0         0         0         0         0
         0         0         0         0         0         0         0         0
         0         0         0         0         0         0         0         0
         0         0         0         0         0         0         0         0
         0         0         0         0         0         0         0         0
         0         0         0         0         0         0         0         0
         0         0         0         0         0         0         0         0
         0         0         0         0         0         0         0         0
         0         0         0         0         0         0         0         0
         0         0         0         0         0         0         0         0
         0         0         0         0         0         0         0         0
         0         0         0         0         0         0         0         0
         0         0         0         0         0         0         0         0
         0         0         0         0         0         0         0         0
         0         0         0         0         0         0         0         0
         0         0         0         0         0         0         0         0
         0         0         0         0         0         0         0         0
         0         0         0         0         0         0         0         0
         0         0         0         0         0         0         0         0
         0         0         0         0         0         0         0         0
         0         0         0         0         0         0         0         0
         0         0         0         0         0         0         0         0
         0         0         0         0         0         0         0         0
         0         0         0         0         0         0         0         0
         0         0         0         0         0         0         0         0
         0         0         0         0         0         0         0         0
         0         0         0         0         0         0         0         0
         0         0         0         0         0         0         0         0
         0         0         0         0         0         0         0         0
         0         0         0         0         0         0         0         0
         0         0         0         0         0         0         0         0
         0         0         0         0         0         0         0         0
         0         0         0         0         0         0         0         0
         0         0         0         0         0         0         0         0
         0         0         0         0         0         0         0         0
         0         0         0         0         0         0         0         0
         0         0         0         0         0         0         0         0
         0         0         0         0         0         0         0         0
         0         0         0         0         0         0         0         0
         0         0         0         0         0         0         0         0
         0         0         0         0         0         0         0         0
         0         0         0         0         0         0         0         0
         0         0         0         0         0         0         0         0
         0         0         0         0         0         0         0         0
         0         0         0         0         0         0         0         0
         0         0         0         0         0         0         0         0
         0         0         0         0         0         0         0         0
         0         0         0         0         0         0         0         0
         0         0         0         0         0         0         0         0
         0         0         0         0         0         0         0         0
         0         0         0         0         0         0         0         0
         0         0         0         0         0         0         0         0
         0         0         0         0         0         0         0         0
         0         0         0         0         0         0         0         0
         0         0         0         0         0         0         0         0
         0         0         0         0         0         0         0         0
         0         0         0         0         0         0         0         0
         0         0         0         0         0         0         0         0
         0         0         0         0         0         0         0         0
         0         0         0         0         0         0         0         0
         0         0         0         0         0         0         0         0
         0         0         0         0         0         0         0         0
         0         0         0         0         0         0         0         0
         0         0         0         0         0         0         0         0
         0         0         0         0         0         0         0         0
         0         0         0         0         0         0         0         0
         0         0         0         0         0         0         0         0
         0         0         0         0         0         0         0         0
         0         0         0         0         0         0         0         0
         0         0         0         0         0         0         0         0
         0         0         0         0         0         0         0         0
         0         0         0         0         0         0         0         0
         0         0         0         0         0         0         0         0
         0         0         0         0         0         0         0         0
         0         0         0         0         0         0         0         0
         0         0         0         0         0         0         0         0
         0         0         0         0         0         0         0         0
         0         0         0         0         0         0         0         0
         0         0         0         0         0         0         0         0
         0         0         0         0         0         0         0         0
         0         0         0         0         0         0         0         0
         0         0         0         0         0         0         0         0
         0         0         0         0         0         0         0         0
         0         0         0         0         0         0         0         0
         0         0         0         0         0         0         0         0
         0         0         0         0         0         0         0         0
         0         0         0         0         0         0         0         0
         0         0         0         0         0         0         0         0
         0         0         0         0         0         0         0         0
         0         0         0         0         0         0         0         0
         0         0         0         0         0         0         0         0
         0         0         0         0         0         0         0         0
         0         0         0         0         0         0         0         0
         0         0         0         0         0         0         0         0
         0         0         0         0         0         0         0         0
         0         0         0         0         0         0         0         0
         0         0         0         0         0         0         0         0
         0         0         0         0         0         0         0         0
         0         0         0         0         0         0         0         0
         0         0         0         0         0         0         0         0
         0         0         0         0         0         0         0         0
         0         0         0         0         0         0         0         0
         0         0         0         0         0         0         0         0
         0         0         0         0         0         0         0         0
         0         0         0         0         0         0         0         0
         0         0         0         0         0         0         0         0
         0         0         0         0         0         0         0         0
         0         0         0         0         0         0         0         0
         0         0         0         0         0         0         0         0
         0         0         0         0         0         0         0         0
         0         0         0         0         0         0         0         0
         0         0         0         0         0         0         0         0
         0         0         0         0         0         0         0         0
         0         0         0         0         0         0         0         0
         0         0         0         0         0         0         0         0
         0         0         0         0         0         0         0         0
         0         0         0         0         0         0         0         0
         0         0         0         0         0         0         0         0
         0         0         0         0         0         0         0         0
         0         0         0         0         0         0         0         0
         0         0         0         0         0         0         0         0
         0         0         0         0         0         0         0         0
         0         0         0         0         0         0         0         0
         0         0         0         0         0         0         0         0
         0         0         0         0         0         0         0         0
         0         0         0         0         0         0         0         0
         0         0         0         0         0         0         0         0
         0         0         0         0         0         0         0         0
         0         0         0         0         0         0         0         0
         0         0         0         0         0         0         0         0
         0         0         0         0         0         0         0         0
         0         0         0         0         0         0         0         0
         0         0         0         0         0         0         0         0
         0         0         0         0         0         0         0         0
         0         0         0         0         0         0         0         0
         0         0         0         0         0         0         0         0
         0         0         0         0         0         0         0         0
         0         0         0         0         0         0         0         0
         0         0         0         0         0         0         0         0
         0         0         0         0         0         0         0         0
         0         0         0         0         0         0         0         0
         0         0         0         0         0         0         0         0
         0         0         0         0         0         0         0         0
         0         0         0         0         0         0         0         0
         0         0         0         0         0         0         0         0
         0         0         0         0         0         0         0         0
         0         0         0         0         0         0         0         0
         0         0         0         0         0         0         0         0
         0         0         0         0         0         0         0         0
         0         0         0         0         0         0         0         0
         0         0         0         0         0         0         0         0
         0         0         0         0         0         0         0         0
         0         0         0         0         0         0         0         0
         0         0         0         0         0         0         0         0
         0         0         0         0         0         0         0         0
         0         0         0         0         0         0         0         0
         0         0         0         0         0         0         0         0
         0         0         0         0         0         0         0         0
         0         0         0         0         0         0         0         0
         0         0         0         0         0         0         0         0
         0         0         0         0         0         0         0         0
         0         0         0         0         0         0         0         0
         0         0         0         0         0         0         0         0
         0         0         0         0         0         0         0         0
         0         0         0         0         0         0         0         0
         0         0         0         0         0         0         0         0
         0         0         0         0         0         0         0         0
         0         0         0         0         0         0         0         0
         0         0         0         0         0         0         0         0
         0         0         0         0         0         0         0         0
         0         0         0         0         0         0         0         0
         0         0         0         0         0         0         0         0
         0         0         0         0         0         0         0         0
         0         0         0         0         0         0         0         0
         0         0         0         0         0         0         0         0
         0         0         0         0         0         0         0         0
         0         0         0         0         0         0         0         0
         0         0         0         0         0         0         0         0
         0         0         0         0         0         0         0         0
         0         0         0         0         0         0         0         0
         0         0         0         0         0         0         0         0
         0         0         0         0         0         0         0         0
         0         0         0         0         0         0         0         0
         0         0         0         0         0         0         0         0
         0         0         0         0         0         0         0         0
         0         0         0         0         0         0         0         0
         0         0         0         0         0         0         0         0
         0         0         0         0         0         0         0         0
         0         0         0         0         0         0         0         0
         0         0         0         0         0         0         0         0
         0         0         0         0         0         0         0         0
         0         0         0         0         0         0         0         0
         0         0         0         0         0         0         0         0
         0         0         0         0         0         0         0         0
         0         0         0         0         0         0         0         0
         0         0         0         0         0         0         0         0
         0         0         0         0         0         0         0         0
         0         0         0         0         0         0         0         0
         0         0         0         0         0         0         0         0
         0         0         0         0         0         0         0         0
         0         0         0         0         0         0         0         0
         0         0         0         0         0         0         0         0
         0         0         0         0         0         0         0         0
         0         0         0         0         0         0         0         0
         0         0         0         0         0         0         0         0
         0         0         0         0         0         0         0         0
         0         0         0         0         0         0         0         0
         0         0         0         0         0         0         0         0
         0         0         0         0         0         0         0         0
         0         0         0         0         0         0         0         0
         0         0         0         0         0         0         0         0
         0         0         0         0         0         0         0         0
         0         0         0         0         0         0         0         0
         0         0         0         0         0         0         0         0
         0         0         0         0         0         0         0         0
         0         0         0         0         0         0         0         0
         0         0         0         0         0         0         0         0
         0         0         0         0         0         0         0         0
         0         0         0         0         0         0         0         0
         0         0         0         0         0         0         0         0
         0         0         0         0         0         0         0         0
         0         0         0         0         0         0         0         0
         0         0         0         0         0         0         0         0
         0         0         0         0         0         0         0         0
         0         0         0         0         0         0         0         0
         0         0         0         0         0         0         0         0
         0         0         0         0         0         0         0         0
         0         0         0         0         0         0         0         0
         0         0         0         0         0         0         0         0
         0         0         0         0         0         0         0         0
         0         0         0         0         0         0         0         0
         0         0         0         0         0         0         0         0
         0         0         0         0         0         0         0         0
         0         0         0         0         0         0         0         0
         0         0         0         0         0         0         0         0
         0         0         0         0         0         0         0         0
         0         0         0         0         0         0         0         0
         0         0         0         0         0         0         0         0
         0         0         0         0         0         0         0         0
         0         0         0         0         0         0         0         0
         0         0         0         0         0         0         0         0
         0         0         0         0         0         0         0         0
         0         0         0         0         0         0         0         0
         0         0         0         0         0         0         0         0
         0         0         0         0         0         0         0         0
         0         0         0         0         0         0         0         0
         0         0         0         0         0         0         0         0
         0         0         0         0         0         0         0         0
         0         0         0         0         0         0         0         0
         0         0         0         0         0         0         0         0
         0         0         0         0         0         0         0         0
         0         0         0         0         0         0         0         0
         0         0         0         0         0         0         0         0
         0         0         0         0         0         0         0         0
         0         0         0         0         0         0         0         0
         0         0         0         0         0         0         0         0
         0         0         0         0         0         0         0         0
         0         0         0         0         0         0         0         0
         0         0         0         0         0         0         0         0
         0         0         0         0         0         0         0         0
         0         0         0         0         0         0         0         0
         0         0         0         0         0         0         0         0
         0         0         0         0         0         0         0         0
         0         0         0         0         0         0         0         0
         0         0         0         0         0         0         0         0
         0         0         0         0         0         0         0         0
         0         0         0         0         0         0         0         0
         0         0         0         0         0         0         0         0
         0         0         0         0         0         0         0         0
         0         0         0         0         0         0         0         0
         0         0         0         0         0         0         0         0
         0         0         0         0         0         0         0         0
         0         0         0         0         0         0         0         0
         0         0         0         0         0         0         0         0
         0         0         0         0         0         0         0         0
         0         0         0         0         0         0         0         0
         0         0         0         0         0         0         0         0
         0         0         0         0         0         0         0         0
         0         0         0         0         0         0         0         0
         0         0         0         0         0         0         0         0
         0         0         0         0         0         0         0         0
         0         0         0         0         0         0         0         0
         0         0         0         0         0         0         0         0
         0         0         0         0         0         0         0         0
         0         0         0         0         0         0         0         0
         0         0         0         0         0         0         0         0
         0         0         0         0         0         0         0         0
         0         0         0         0         0         0         0         0
         0         0         0         0         0         0         0         0
         0         0         0         0         0         0         0         0
         0         0         0         0         0         0         0         0
         0         0         0         0         0         0         0         0
         0         0         0         0         0         0         0         0
         0         0         0         0         0         0         0         0
         0         0         0         0         0         0         0         0
         0         0         0         0         0         0         0         0
         0         0         0         0         0         0         0         0
         0         0         0         0         0         0         0         0
         0         0         0         0         0         0         0         0
         0         0         0         0         0         0         0         0
         0         0         0         0         0         0         0         0
         0         0         0         0         0         0         0         0
         0         0         0         0         0         0         0         0
         0         0         0         0         0         0         0         0
         0         0         0         0         0         0         0         0
         0         0         0         0         0         0         0         0
         0         0         0         0         0         0         0         0
         0         0         0         0         0         0         0         0
         0         0         0         0         0         0         0         0
         0         0         0         0         0         0         0         0
         0         0         0         0         0         0         0         0
         0         0         0         0         0         0         0         0
         0         0         0         0         0         0         0         0
         0         0         0         0         0         0         0         0
         0         0         0         0         0         0         0         0
         0         0         0         0         0         0         0         0
         0         0         0         0         0         0         0         0
         0         0         0         0         0         0         0         0
         0         0         0         0         0         0         0         0
         0         0         0         0         0         0         0         0
         0         0         0         0         0         0         0         0
         0         0         0         0         0         0         0         0
         0         0         0         0         0         0         0         0
         0         0         0         0         0         0         0         0
         0         0         0         0         0         0         0         0
         0         0         0         0         0         0         0         0
         0         0         0         0         0         0         0         0
         0         0         0         0         0         0         0         0
         0         0         0         0         0         0         0         0
         0         0         0         0         0         0         0         0
         0         0         0         0         0         0         0         0
         0         0         0         0         0         0         0         0
         0         0         0         0         0         0         0         0
         0         0         0         0         0         0         0         0
         0         0         0         0         0         0         0         0
         0         0         0         0         0         0         0         0
         0         0         0         0         0         0         0         0
         0         0         0         0         0         0         0         0
         0         0         0         0         0         0         0         0
         0         0         0         0         0         0         0         0
         0         0         0         0         0         0         0         0
         0         0         0         0         0         0         0         0
         0         0         0         0         0         0         0         0
         0         0         0         0         0         0         0         0
         0         0         0         0         0         0         0         0
         0         0         0         0         0         0         0         0
         0         0         0         0         0         0         0         0
         0         0         0         0         0         0         0         0
         0         0         0         0         0         0         0         0
         0         0         0         0         0         0         0         0
         0         0         0         0         0         0         0         0
         0         0         0         0         0         0         0         0
         0         0         0         0         0         0         0         0
         0         0         0         0         0         0         0         0
         0         0         0         0         0         0         0         0
         0         0         0         0         0         0         0         0
         0         0         0         0         0         0         0         0
         0         0         0         0         0         0         0         0
         0         0         0         0         0         0         0         0
         0         0         0         0         0         0         0         0
         0         0         0         0         0         0         0         0
         0         0         0         0         0         0         0         0
         0         0         0         0         0         0         0         0
         0         0         0         0         0         0         0         0
         0         0         0         0         0         0         0         0
         0         0         0         0         0         0         0         0
         0         0         0         0         0         0         0         0
         0         0         0         0         0         0         0         0
         0         0         0         0         0         0         0         0
         0         0         0         0         0         0         0         0
         0         0         0         0         0         0         0         0
         0         0         0         0         0         0         0         0
         0         0         0         0         0         0         0         0
         0         0         0         0         0         0         0         0
         0         0         0         0         0         0         0         0
         0         0         0         0         0         0         0         0
         0         0         0         0         0         0         0         0
         0         0         0         0         0         0         0         0
         0         0         0         0         0         0         0         0
         0         0         0         0         0         0         0         0
         0         0         0         0         0         0         0         0
         0         0         0         0         0         0         0         0
         0         0         0         0         0         0         0         0
         0         0         0         0         0         0         0         0
         0         0         0         0         0         0         0         0
         0         0         0         0         0         0         0         0
         0         0         0         0         0         0         0         0
         0         0         0         0         0         0         0         0
         0         0         0         0         0         0         0         0
         0         0         0         0         0         0         0         0
         0         0         0         0         0         0         0         0
         0         0         0         0         0         0         0         0
         0         0         0         0         0         0         0         0
         0         0         0         0         0         0         0         0
         0         0         0         0         0         0         0         0
         0         0         0         0         0         0         0         0
         0         0         0         0         0         0         0         0
         0         0         0         0         0         0         0         0
         0         0         0         0         0         0         0         0
         0         0         0         0         0         0         0         0
         0         0         0         0         0         0         0         0
         0         0         0         0         0         0         0         0
         0         0         0         0         0         0         0         0
         0         0         0         0         0         0         0         0
         0         0         0         0         0         0         0         0
         0         0         0         0         0         0         0         0
         0         0         0         0         0         0         0         0
         0         0         0         0         0         0         0         0
         0         0         0         0         0         0         0         0
         0         0         0         0         0         0         0         0
         0         0         0         0         0         0         0         0
         0         0         0         0         0         0         0         0
         0         0         0         0         0         0         0         0
         0         0         0         0         0         0         0         0
         0         0         0         0         0         0         0         0
         0         0         0         0         0         0         0         0
         0         0         0         0         0         0         0         0
         0         0         0         0         0         0         0         0
         0         0         0         0         0         0         0         0
         0         0         0         0         0         0         0         0
         0         0         0         0         0         0         0         0
         0         0         0         0         0         0         0         0
         0         0         0         0         0         0         0         0
         0         0         0         0         0         0         0         0
         0         0         0         0         0         0         0         0
         0         0         0         0         0         0         0         0
         0         0         0         0         0         0         0         0
         0         0         0         0         0         0         0         0
         0         0         0         0         0         0         0         0
         0         0         0         0         0         0         0         0
         0         0         0         0         0         0         0         0
         0         0         0         0         0         0         0         0
         0         0         0         0         0         0         0         0
         0         0         0         0         0         0         0         0
         0         0         0         0         0         0         0         0
         0         0         0         0         0         0         0         0
         0         0         0         0         0         0         0         0
         0         0         0         0         0         0         0         0
         0         0         0         0         0         0         0         0
         0         0         0         0         0         0         0         0
         0         0         0         0         0         0         0         0
         0         0         0         0         0         0         0         0
         0         0         0         0         0         0         0         0
         0         0         0         0         0         0         0         0
         0         0         0         0         0         0         0         0
         0         0         0         0         0         0         0         0
         0         0         0         0         0         0         0         0
         0         0         0         0         0         0         0         0
         0         0         0         0         0         0         0         0
         0         0         0         0         0         0         0         0
         0         0         0         0         0         0         0         0
         0         0         0         0         0         0         0         0
         0         0         0         0         0         0         0         0
         0         0         0         0         0         0         0         0
         0         0         0         0         0         0         0         0
         0         0         0         0         0         0         0         0
         0         0         0         0         0         0         0         0
         0         0         0         0         0         0         0         0
         0         0         0         0         0         0         0         0
         0         0         0         0         0         0         0         0
         0         0         0         0         0         0         0         0
         0         0         0         0         0         0         0         0
         0         0         0         0         0         0         0         0
         0         0         0         0         0         0         0         0
         0         0         0         0         0         0         0         0
         0         0         0         0         0         0         0         0
         0         0         0         0         0         0         0         0
         0         0         0         0         0         0         0         0
         0         0         0         0         0         0         0         0
         0         0         0         0         0         0         0         0
         0         0         0         0         0         0         0         0
         0         0         0         0         0         0         0         0
         0         0         0         0         0         0         0         0
         0         0         0         0         0         0         0         0
         0         0         0         0         0         0         0         0
         0         0         0         0         0         0         0         0
         0         0         0         0         0         0         0         0
         0         0         0         0         0         0         0         0
         0         0         0         0         0         0         0         0
         0         0         0         0         0         0         0         0
         0         0         0         0         0         0         0         0
         0         0         0         0         0         0         0         0
         0         0         0         0         0         0         0         0
         0         0         0         0         0         0         0         0
         0         0         0         0         0         0         0         0
         0         0         0         0         0         0         0         0
         0         0         0         0         0         0         0         0
         0         0         0         0         0         0         0         0
         0         0         0         0         0         0         0         0
         0         0         0         0         0         0         0         0
         0         0         0         0         0         0         0         0
         0         0         0         0         0         0         0         0
         0         0         0         0         0         0         0         0
         0         0         0         0         0         0         0         0
         0         0         0         0         0         0         0         0
         0         0         0         0         0         0         0         0
         0         0         0         0         0         0         0         0
         0         0         0         0         0         0         0         0
         0         0         0         0         0         0         0         0
         0         0         0         0         0         0         0         0
         0         0         0         0         0         0         0         0
         0         0         0         0         0         0         0         0
         0         0         0         0         0         0         0         0
         0         0         0         0         0         0         0         0
         0         0         0         0         0         0         0         0
         0         0         0         0         0         0         0         0
         0         0         0         0         0         0         0         0
         0         0         0         0         0         0         0         0
         0         0         0         0         0         0         0         0
         0         0         0         0         0         0         0         0
         0         0         0         0         0         0         0         0
         0         0         0         0         0         0         0         0
         0         0         0         0         0         0         0         0
         0         0         0         0         0         0         0         0
         0         0         0         0         0         0         0         0
         0         0         0         0         0         0         0         0
         0         0         0         0         0         0         0         0
         0         0         0         0         0         0         0         0
         0         0         0         0         0         0         0         0
         0         0         0         0         0         0         0         0
         0         0         0         0         0         0         0         0
         0         0         0         0         0         0         0         0
         0         0         0         0         0         0         0         0
         0         0         0         0         0         0         0         0
         0         0         0         0         0         0         0         0
         0         0         0         0         0         0         0         0
         0         0         0         0         0         0         0         0
         0         0         0         0         0         0         0         0
         0         0         0         0         0         0         0         0
         0         0         0         0         0         0         0         0
         0         0         0         0         0         0         0         0
         0         0         0         0         0         0         0         0
         0         0         0         0         0         0         0         0
         0         0         0         0         0         0         0         0
         0         0         0         0         0         0         0         0
         0         0         0         0         0         0         0         0
         0         0         0         0         0         0         0         0
         0         0         0         0         0         0         0         0
         0         0         0         0         0         0         0         0
         0         0         0         0         0         0         0         0
         0         0         0         0         0         0         0         0
         0         0         0         0         0         0         0         0
         0         0         0         0         0         0         0         0
         0         0         0         0         0         0         0         0
         0         0         0         0         0         0         0         0
         0         0         0         0         0         0         0         0
         0         0         0         0         0         0         0         0
         0         0         0         0         0         0         0         0
         0         0         0         0         0         0         0         0
         0         0         0         0         0         0         0         0
         0         0         0         0         0         0         0         0
         0         0         0         0         0         0         0         0
         0         0         0         0         0         0         0         0
         0         0         0         0         0         0         0         0
         0         0         0         0         0         0         0         0
         0         0         0         0         0         0         0         0
         0         0         0         0         0         0         0         0
         0         0         0         0         0         0         0         0
         0         0         0         0         0         0         0         0
         0         0         0         0         0         0         0         0
         0         0         0         0         0         0         0         0
         0         0         0         0         0         0         0         0
         0         0         0         0         0         0         0         0
         0         0         0         0         0         0         0         0
         0         0         0         0         0         0         0         0
         0         0         0         0         0         0         0         0
         0         0         0         0         0         0         0         0
         0         0         0         0         0         0         0         0
         0         0         0         0         0         0         0         0
         0         0         0         0         0         0         0         0
         0         0         0         0         0         0         0         0
         0         0         0         0         0         0         0         0
         0         0         0         0         0         0         0         0
         0         0         0         0         0         0         0         0
         0         0         0         0         0         0         0         0
         0         0         0         0         0         0         0         0
         0         0         0         0         0         0         0         0
         0         0         0         0         0         0         0         0
         0         0         0         0         0         0         0         0
         0         0         0         0         0         0         0         0
         0         0         0         0         0         0         0         0
         0         0         0         0         0         0         0         0
         0         0         0         0         0         0         0         0
         0         0         0         0         0         0         0         0
         0         0         0         0         0         0         0         0
         0         0         0         0         0         0         0         0
         0         0         0         0         0         0         0         0
         0         0         0         0         0         0         0         0
         0         0         0         0         0         0         0         0
         0         0         0         0         0         0         0         0
         0         0         0         0         0         0         0         0
         0         0         0         0         0         0         0         0
         0         0         0         0         0         0         0         0
         0         0         0         0         0         0         0         0
         0         0         0         0         0         0         0         0
         0         0         0         0         0         0         0         0
         0         0         0         0         0         0         0         0
         0         0         0         0         0         0         0         0
         0         0         0         0         0         0         0         0
         0         0         0         0         0         0         0         0
         0         0         0         0         0         0         0         0
         0         0         0         0         0         0         0         0
         0         0         0         0         0         0         0         0
         0         0         0         0         0         0         0         0
         0         0         0         0         0         0         0         0
         0         0         0         0         0         0         0         0
         0         0         0         0         0         0         0         0
         0         0         0         0         0         0         0         0
         0         0         0         0         0         0         0         0
         0         0         0         0         0         0         0         0
         0         0         0         0         0         0         0         0
         0         0         0         0         0         0         0         0
         0         0         0         0         0         0         0         0
         0         0         0         0         0         0         0         0
         0         0         0         0         0         0         0         0
         0         0         0         0         0         0         0         0
         0         0         0         0         0         0         0         0
         0         0         0         0         0         0         0         0
         0         0         0         0         0         0         0         0
         0         0         0         0         0         0         0         0
         0         0         0         0         0         0         0         0
         0         0         0         0         0         0         0         0
         0         0         0         0         0         0         0         0
         0         0         0         0         0         0         0         0
         0         0         0         0         0         0         0         0
         0         0         0         0         0         0         0         0
         0         0         0         0         0         0         0         0
         0         0         0         0         0         0         0         0
         0         0         0         0         0         0         0         0
         0         0         0         0         0         0         0         0
         0         0         0         0         0         0         0         0
         0         0         0         0         0         0         0         0
         0         0         0         0         0         0         0         0
         0         0         0         0         0         0         0         0
         0         0         0         0         0         0         0         0
         0         0         0         0         0         0         0         0
         0         0         0         0         0         0         0         0
         0         0         0         0         0         0         0         0
         0         0         0         0         0         0         0         0
         0         0         0         0         0         0         0         0
         0         0         0         0         0         0         0         0
         0         0         0         0         0         0         0         0
         0         0         0         0         0         0         0         0
         0         0         0         0         0         0         0         0
         0         0         0         0         0         0         0         0
         0         0         0         0         0         0         0         0
         0         0         0         0         0         0         0         0
         0         0         0         0         0         0         0         0
         0         0         0         0         0         0         0         0
         0         0         0         0         0         0         0         0
         0         0         0         0         0         0         0         0
         0         0         0         0         0         0         0         0
         0         0         0         0         0         0         0         0
         0         0         0         0         0         0         0         0
         0         0         0         0         0         0         0         0
         0         0         0         0         0         0         0         0
         0         0         0         0         0         0         0         0
         0         0         0         0         0         0         0         0
         0         0         0         0         0         0         0         0
         0         0         0         0         0         0         0         0
         0         0         0         0         0         0         0         0
         0         0         0         0         0         0         0         0
         0         0         0         0         0         0         0         0
         0         0         0         0         0         0         0         0
         0         0         0         0         0         0         0         0
         0         0         0         0         0         0         0         0
         0         0         0         0         0         0         0         0
         0         0         0         0         0         0         0         0
         0         0         0         0         0         0         0         0
         0         0         0         0         0         0         0         0
         0         0         0         0         0         0         0         0
         0         0         0         0         0         0         0         0
         0         0         0         0         0         0         0         0
         0         0         0         0         0         0         0         0
         0         0         0         0         0         0         0         0
         0         0         0         0         0         0         0         0
         0         0         0         0         0         0         0         0
         0         0         0         0         0         0         0         0
         0         0         0         0         0         0         0         0
         0         0         0         0         0         0         0         0
         0         0         0         0         0         0         0         0
         0         0         0         0         0         0         0         0
         0         0         0         0         0         0         0         0
         0         0         0         0         0         0         0         0
         0         0         0         0         0         0         0         0
         0         0         0         0         0         0         0         0
         0         0         0         0         0         0         0         0
         0         0         0         0         0         0         0         0
         0         0         0         0         0         0         0         0
         0         0         0         0         0         0         0         0
         0         0         0         0         0         0         0         0
         0         0         0         0         0         0         0         0
         0         0         0         0         0         0         0         0
         0         0         0         0         0         0         0         0
         0         0         0         0         0         0         0         0
         0         0         0         0         0         0         0         0
         0         0         0         0         0         0         0         0
         0         0         0         0         0         0         0         0
         0         0         0         0         0         0         0         0
         0         0         0         0         0         0         0         0
         0         0         0         0         0         0         0         0
         0         0         0         0         0         0         0         0
         0         0         0         0         0         0         0         0
         0         0         0         0         0         0         0         0
         0         0         0         0         0         0         0         0
         0         0         0         0         0         0         0         0
         0         0         0         0         0         0         0         0
         0         0         0         0         0         0         0         0
         0         0         0         0         0         0         0         0
         0         0         0         0         0         0         0         0
         0         0         0         0         0         0         0         0
         0         0         0         0         0         0         0         0
         0         0         0         0         0         0         0         0
         0         0         0         0         0         0         0         0
         0         0         0         0         0         0         0         0
         0         0         0         0         0         0         0         0
         0         0         0         0         0         0         0         0
         0         0         0         0         0         0         0         0
         0         0         0         0         0         0         0         0
         0         0         0         0         0         0         0         0
         0         0         0         0         0         0         0         0
         0         0         0         0         0         0         0         0
         0         0         0         0         0         0         0         0
         0         0         0         0         0         0         0         0
         0         0         0         0         0         0         0         0
         0         0         0         0         0         0         0         0
         0         0         0         0         0         0         0         0
         0         0         0         0         0         0         0         0
         0         0         0         0         0         0         0         0
         0         0         0         0         0         0         0         0
         0         0         0         0         0         0         0         0
         0         0         0         0         0         0         0         0
         0         0         0         0         0         0         0         0
         0         0         0         0         0         0         0         0
         0         0         0         0         0         0         0         0
         0         0         0         0         0         0         0         0
         0         0         0         0         0         0         0         0
         0         0         0         0         0         0         0         0
         0         0         0         0         0         0         0         0
         0         0         0         0         0         0         0         0
         0         0         0         0         0         0         0         0
         0         0         0         0         0         0         0         0
         0         0         0         0         0         0         0         0
         0         0         0         0         0         0         0         0
         0         0         0         0         0         0         0         0
         0         0         0         0         0         0         0         0
         0         0         0         0         0         0         0         0
         0         0         0         0         0         0         0         0
         0         0         0         0         0         0         0         0
         0         0         0         0         0         0         0         0
         0         0         0         0         0         0         0         0
         0         0         0         0         0         0         0         0
         0         0         0         0         0         0         0         0
         0         0         0         0         0         0         0         0
         0         0         0         0         0         0         0         0
         0         0         0         0         0         0         0         0
         0         0         0         0         0         0         0         0
         0         0         0         0         0         0         0         0
         0         0         0         0         0         0         0         0
         0         0         0         0         0         0         0         0
         0         0         0         0         0         0         0         0
         0         0         0         0         0         0         0         0
         0         0         0         0         0         0         0         0
         0         0         0         0         0         0         0         0
         0         0         0         0         0         0         0         0
         0         0         0         0         0         0         0         0
         0         0         0         0         0         0         0         0
         0         0         0         0         0         0         0         0
         0         0         0         0         0         0         0         0
         0         0         0         0         0         0         0         0
         0         0         0         0         0         0         0         0
         0         0         0         0         0         0         0         0
         0         0         0         0         0         0         0         0
         0         0         0         0         0         0         0         0
         0         0         0         0         0         0         0         0
         0         0         0         0         0         0         0         0
         0         0         0         0         0         0         0         0
         0         0         0         0         0         0         0         0
         0         0         0         0         0         0         0         0
         0         0         0         0         0         0         0         0
         0         0         0         0         0         0         0         0
         0         0         0         0         0         0         0         0
         0         0         0         0         0         0         0         0
         0         0         0         0         0         0         0         0
         0         0         0         0         0         0         0         0
         0         0         0         0         0         0         0         0
         0         0         0         0         0         0         0         0
         0         0         0         0         0         0         0         0
         0         0         0         0         0         0         0         0
         0         0         0         0         0         0         0         0
         0         0         0         0         0         0         0         0
         0         0         0         0         0         0         0         0
         0         0         0         0         0         0         0         0
         0         0         0         0         0         0         0         0
         0         0         0         0         0         0         0         0
         0         0         0         0         0         0         0         0
         0         0         0         0         0         0         0         0
         0         0         0         0         0         0         0         0
         0         0         0         0         0         0         0         0
         0         0         0         0         0         0         0         0
         0         0         0         0         0         0         0         0
         0         0         0         0         0         0         0         0
         0         0         0         0         0         0         0         0
         0         0         0         0         0         0         0         0
         0         0         0         0         0         0         0         0
         0         0         0         0         0         0         0         0
         0         0         0         0         0         0         0         0
         0         0         0         0         0         0         0         0
         0         0         0         0         0         0         0         0
         0         0         0         0         0         0         0         0
         0         0         0         0         0         0         0         0
         0         0         0         0         0         0         0         0
         0         0         0         0         0         0         0         0
         0         0         0         0         0         0         0         0
         0         0         0         0         0         0         0         0
         0         0         0         0         0         0         0         0
         0         0         0         0         0         0         0         0
         0         0         0         0         0         0         0         0
         0         0         0         0         0         0         0         0
         0         0         0         0         0         0         0         0
         0         0         0         0         0         0         0         0
         0         0         0         0         0         0         0         0
         0         0         0         0         0         0         0         0
         0         0         0         0         0         0         0         0
         0         0         0         0         0         0         0         0
         0         0         0         0         0         0         0         0
         0         0         0         0         0         0         0         0
         0         0         0         0         0         0         0         0
         0         0         0         0         0         0         0         0
         0         0         0         0         0         0         0         0
         0         0         0         0         0         0         0         0
         0         0         0         0         0         0         0         0
         0         0         0         0         0         0         0         0
         0         0         0         0         0         0         0         0
         0         0         0         0         0         0         0         0
         0         0         0         0         0         0         0         0
         0         0         0         0         0         0         0         0
         0         0         0         0         0         0         0         0
         0         0         0         0         0         0         0         0
         0         0         0         0         0         0         0         0
         0         0         0         0         0         0         0         0
         0         0         0         0         0         0         0         0
         0         0         0         0         0         0         0         0
         0         0         0         0         0         0         0         0
         0         0         0         0         0         0         0         0
         0         0         0         0         0         0         0         0
         0         0         0         0         0         0         0         0
         0         0         0         0         0         0         0         0
         0         0         0         0         0         0         0         0
         0         0         0         0         0         0         0         0
         0         0         0         0         0         0         0         0
         0         0         0         0         0         0         0         0
         0         0         0         0         0         0         0         0
         0         0         0         0         0         0         0         0
         0         0         0         0         0         0         0         0
         0         0         0         0         0         0         0         0
         0         0         0         0         0         0         0         0
         0         0         0         0         0         0         0         0
         0         0         0         0         0         0         0         0
         0         0         0         0         0         0         0         0
         0         0         0         0         0         0         0         0
         0         0         0         0         0         0         0         0
         0         0         0         0         0         0         0         0
         0         0         0         0         0         0         0         0
         0         0         0         0         0         0         0         0
         0         0         0         0         0         0         0         0
         0         0         0         0         0         0         0         0
         0         0         0         0         0         0         0         0
         0         0         0         0         0         0         0         0
         0         0         0         0         0         0         0         0
         0         0         0         0         0         0         0         0
         0         0         0         0         0         0         0         0
         0         0         0         0         0         0         0         0
         0         0         0         0         0         0         0         0
         0         0         0         0         0         0         0         0
         0         0         0         0         0         0         0         0
         0         0         0         0         0         0         0         0
         0         0         0         0         0         0         0         0
         0         0         0         0         0         0         0         0
         0         0         0         0         0         0         0         0
         0         0         0         0         0         0         0         0
         0         0         0         0         0         0         0         0
         0         0         0         0         0         0         0         0
         0         0         0         0         0         0         0         0
         0         0         0         0         0         0         0         0
         0         0         0         0         0         0         0         0
         0         0         0         0         0         0         0         0
         0         0         0         0         0         0         0         0
         0         0         0         0         0         0         0         0
         0         0         0         0         0         0         0         0
         0         0         0         0         0         0         0         0
         0         0         0         0         0         0         0         0
         0         0         0         0         0         0         0         0
         0         0         0         0         0         0         0         0
         0         0         0         0         0         0         0         0
         0         0         0         0         0         0         0         0
         0         0         0         0         0         0         0         0
         0         0         0         0         0         0         0         0
         0         0         0         0         0         0         0         0
         0         0         0         0         0         0         0         0
         0         0         0         0         0         0         0         0
         0         0         0         0         0         0         0         0
         0         0         0         0         0         0         0         0
         0         0         0         0         0         0         0         0
         0         0         0         0         0         0         0         0
         0         0         0         0         0         0         0         0
         0         0         0         0         0         0         0         0
         0         0         0         0         0         0         0         0
         0         0         0         0         0         0         0         0
         0         0         0         0         0         0         0         0
         0         0         0         0         0         0         0         0
         0         0         0         0         0         0         0         0
         0         0         0         0         0         0         0         0
         0         0         0         0         0         0         0         0
         0         0         0         0         0         0         0         0
         0         0         0         0         0         0         0         0
         0         0         0         0         0         0         0         0
         0         0         0         0         0         0         0         0
         0         0         0         0         0         0         0         0
         0         0         0         0         0         0         0         0
         0         0         0         0         0         0         0         0
         0         0         0         0         0         0         0         0
         0         0         0         0         0         0         0         0
         0         0         0         0         0         0         0         0
         0         0         0         0         0         0         0         0
         0         0         0         0         0         0         0         0
         0         0         0         0         0         0         0         0
         0         0         0         0         0         0         0         0
         0         0         0         0         0         0         0         0
         0         0         0         0         0         0         0         0
         0         0         0         0         0         0         0         0
         0         0         0         0         0         0         0         0
         0         0         0         0         0         0         0         0
         0         0         0         0         0         0         0         0
         0         0         0         0         0         0         0         0
         0         0         0         0         0         0         0         0
         0         0         0         0         0         0         0         0
         0         0         0         0         0         0         0         0
         0         0         0         0         0         0         0         0
         0         0         0         0         0         0         0         0
         0         0         0         0         0         0         0         0
         0         0         0         0         0         0         0         0
         0         0         0         0         0         0         0         0
         0         0         0         0         0         0         0         0
         0         0         0         0         0         0         0         0
         0         0         0         0         0         0         0         0
         0         0         0         0         0         0         0         0
         0         0         0         0         0         0         0         0
         0         0         0         0         0         0         0         0
         0         0         0         0         0         0         0         0
         0         0         0         0         0         0         0         0
         0         0         0         0         0         0         0         0
         0         0         0         0         0         0         0         0
         0         0         0         0         0         0         0         0
         0         0         0         0         0         0         0         0
         0         0         0         0         0         0         0         0
         0         0         0         0         0         0         0         0
         0         0         0         0         0         0         0         0
         0         0         0         0         0         0         0         0
         0         0         0         0         0         0         0         0
         0         0         0         0         0         0         0         0
         0         0         0         0         0         0         0         0
         0         0         0         0         0         0         0         0
         0         0         0         0         0         0         0         0
         0         0         0         0         0         0         0         0
         0         0         0         0         0         0         0         0
         0         0         0         0         0         0         0         0
         0         0         0         0         0         0         0         0
         0         0         0         0         0         0         0         0
         0         0         0         0         0         0         0         0
         0         0         0         0         0         0         0         0
         0         0         0         0         0         0         0         0
         0         0         0         0         0         0         0         0
         0         0         0         0         0         0         0         0
         0         0         0         0         0         0         0         0
         0         0         0         0         0         0         0         0
         0         0         0         0         0         0         0         0
         0         0         0         0         0         0         0         0
         0         0         0         0         0         0         0         0
         0         0         0         0         0         0         0         0
         0         0         0         0         0         0         0         0
         0         0         0         0         0         0         0         0
         0         0         0         0         0         0         0         0
         0         0         0         0         0         0         0         0
         0         0         0         0         0         0         0         0
         0         0         0         0         0         0         0         0
         0         0         0         0         0         0         0         0
         0         0         0         0         0         0         0         0
         0         0         0         0         0         0         0         0
         0         0         0         0         0         0         0         0
         0         0         0         0         0         0         0         0
         0         0         0         0         0         0         0         0
         0         0         0         0         0         0         0         0
         0         0         0         0         0         0         0         0
         0         0         0         0         0         0         0         0
         0         0         0         0         0         0         0         0
         0         0         0         0         0         0         0         0
         0         0         0         0         0         0         0         0
         0         0         0         0         0         0         0         0
         0         0         0         0         0         0         0         0
         0         0         0         0         0         0         0         0
         0         0         0         0         0         0         0         0
         0         0         0         0         0         0         0         0
         0         0         0         0         0         0         0         0
         0         0         0         0         0         0         0         0
         0         0         0         0         0         0         0         0
         0         0         0         0         0         0         0         0
         0         0         0         0         0         0         0         0
         0         0         0         0         0         0         0         0
         0         0         0         0         0         0         0         0
         0         0         0         0         0         0         0         0
         0         0         0         0         0         0         0         0
         0         0         0         0         0         0         0         0
         0         0         0         0         0         0         0         0
         0         0         0         0         0         0         0         0
         0         0         0         0         0         0         0         0
         0         0         0         0         0         0         0         0
         0         0         0         0         0         0         0         0
         0         0         0         0         0         0         0         0
         0         0         0         0         0         0         0         0
         0         0         0         0         0         0         0         0
         0         0         0         0         0         0         0         0
         0         0         0         0         0         0         0         0
         0         0         0         0         0         0         0         0
         0         0         0         0         0         0         0         0
         0         0         0         0         0         0         0         0
         0         0         0         0         0         0         0         0
         0         0         0         0         0         0         0         0
         0         0         0         0         0         0         0         0
         0         0         0         0         0         0         0         0
         0         0         0         0         0         0         0         0
         0         0         0         0         0         0         0         0
         0         0         0         0         0         0         0         0
         0         0         0         0         0         0         0         0
         0         0         0         0         0         0         0         0
         0         0         0         0         0         0         0         0
         0         0         0         0         0         0         0         0
         0         0         0         0         0         0         0         0
         0         0         0         0         0         0         0         0
         0         0         0         0         0         0         0         0
         0         0         0         0         0         0         0         0
         0         0         0         0         0         0         0         0
         0         0         0         0         0         0         0         0
         0         0         0         0         0         0         0         0
         0         0         0         0         0         0         0         0
         0         0         0         0         0         0         0         0
         0         0         0         0         0         0         0         0
         0         0         0         0         0         0         0         0
         0         0         0         0         0         0         0         0
         0         0         0         0         0         0         0         0
         0         0         0         0         0         0         0         0
         0         0         0         0         0         0         0         0
         0         0         0         0         0         0         0         0
         0         0         0         0         0         0         0         0
         0         0         0         0         0         0         0         0
         0         0         0         0         0         0         0         0
         0         0         0         0         0         0         0         0
         0         0         0         0         0         0         0         0
         0         0         0         0         0         0         0         0
         0         0         0         0         0         0         0         0
         0         0         0         0         0         0         0         0
         0         0         0         0         0         0         0         0
         0         0         0         0         0         0         0         0
         0         0         0         0         0         0         0         0
         0         0         0         0         0         0         0         0
         0         0         0         0         0         0         0         0
         0         0         0         0         0         0         0         0
         0         0         0         0         0         0         0         0
         0         0         0         0         0         0         0         0
         0         0         0         0         0         0         0         0
         0         0         0         0         0         0         0         0
         0         0         0         0         0         0         0         0
         0         0         0         0         0         0         0         0
         0         0         0         0         0         0         0         0
         0         0         0         0         0         0         0         0
         0         0         0         0         0         0         0         0
         0         0         0         0         0         0         0         0
         0         0         0         0         0         0         0         0
         0         0         0         0         0         0         0         0
         0         0         0         0         0         0         0         0
         0         0         0         0         0         0         0         0
         0         0         0         0         0         0         0         0
         0         0         0         0         0         0         0         0
         0         0         0         0         0         0         0         0
         0         0         0         0         0         0         0         0
         0         0         0         0         0         0         0         0
         0         0         0         0         0         0         0         0
         0         0         0         0         0         0         0         0
         0         0         0         0         0         0         0         0
         0         0         0         0         0         0         0         0
         0         0         0         0         0         0         0         0
         0         0         0         0         0         0         0         0
         0         0         0         0         0         0         0         0
         0         0         0         0         0         0         0         0
         0         0         0         0         0         0         0         0
         0         0         0         0         0         0         0         0
         0         0         0         0         0         0         0         0
         0         0         0         0         0         0         0         0
         0         0         0         0         0         0         0         0
         0         0         0         0         0         0         0         0
         0         0         0         0         0         0         0         0
         0         0         0         0         0         0         0         0
         0         0         0         0         0         0         0         0
         0         0         0         0         0         0         0         0
         0         0         0         0         0         0         0         0
         0         0         0         0         0         0         0         0
         0         0         0         0         0         0         0         0
         0         0         0         0         0         0         0         0
         0         0         0         0         0         0         0         0
         0         0         0         0         0         0         0         0
         0         0         0         0         0         0         0         0
         0         0         0         0         0         0         0         0
         0         0         0         0         0         0         0         0
         0         0         0         0         0         0         0         0
         0         0         0         0         0         0         0         0
         0         0         0         0         0         0         0         0
         0         0         0         0         0         0         0         0
         0         0         0         0         0         0         0         0
         0         0         0         0         0         0         0         0
         0         0         0         0         0         0         0         0
         0         0         0         0         0         0         0         0
         0         0         0         0         0         0         0         0
         0         0         0         0         0         0         0         0
         0         0         0         0         0         0         0         0
         0         0         0         0         0         0         0         0
         0         0         0         0         0         0         0         0
         0         0         0         0         0         0         0         0
         0         0         0         0         0         0         0         0
         0         0         0         0         0         0         0         0
         0         0         0         0         0         0         0         0
         0         0         0         0         0         0         0         0
         0         0         0         0         0         0         0         0
         0         0         0         0         0         0         0         0
         0         0         0         0         0         0         0         0
         0         0         0         0         0         0         0         0
         0         0         0         0         0         0         0         0
         0         0         0         0         0         0         0         0
         0         0         0         0         0         0         0         0
         0         0         0         0         0         0         0         0
         0         0         0         0         0         0         0         0
         0         0         0         0         0         0         0         0
         0         0         0         0         0         0         0         0
         0         0         0         0         0         0         0         0
         0         0         0         0         0         0         0         0
         0         0         0         0         0         0         0         0
         0         0         0         0         0         0         0         0
         0         0         0         0         0         0         0         0
         0         0         0         0         0         0         0         0
         0         0         0         0         0         0         0         0
         0         0         0         0         0         0         0         0
         0         0         0         0         0         0         0         0
         0         0         0         0         0         0         0         0
         0         0         0         0         0         0         0         0
         0         0         0         0         0         0         0         0
         0         0         0         0         0         0         0         0
         0         0         0         0         0         0         0         0
         0         0         0         0         0         0         0         0
         0         0         0         0         0         0         0         0
         0         0         0         0         0         0         0         0
         0         0         0         0         0         0         0         0
         0         0         0         0         0         0         0         0
         0         0         0         0         0         0         0         0
         0         0         0         0         0         0         0         0
         0         0         0         0         0         0         0         0
         0         0         0         0         0         0         0         0
         0         0         0         0         0         0         0         0
         0         0         0         0         0         0         0         0
         0         0         0         0         0         0         0         0
         0         0         0         0         0         0         0         0
         0         0         0         0         0         0         0         0
         0         0         0         0         0         0         0         0
         0         0         0         0         0         0         0         0
         0         0         0         0         0         0         0         0
         0         0         0         0         0         0         0         0
         0         0         0         0         0         0         0         0
         0         0         0         0         0         0         0         0
         0         0         0         0         0         0         0         0
         0         0         0         0         0         0         0         0
         0         0         0         0         0         0         0         0
         0         0         0         0         0         0         0         0
         0         0         0         0         0         0         0         0
         0         0         0         0         0         0         0         0
         0         0         0         0         0         0         0         0
         0         0         0         0         0         0         0         0
         0         0         0         0         0         0         0         0
         0         0         0         0         0         0         0         0
         0         0         0         0         0         0         0         0
         0         0         0         0         0         0         0         0
         0         0         0         0         0         0         0         0
         0         0         0         0         0         0         0         0
         0         0         0         0         0         0         0         0
         0         0         0         0         0         0         0         0
         0         0         0         0         0         0         0         0
         0         0         0         0         0         0         0         0
         0         0         0         0         0         0         0         0
         0         0         0         0         0         0         0         0
         0         0         0         0         0         0         0         0
         0         0         0         0         0         0         0         0
         0         0         0         0         0         0         0         0
         0         0         0         0         0         0         0         0
         0         0         0         0         0         0         0         0
         0         0         0         0         0         0         0         0
         0         0         0         0         0         0         0         0
         0         0         0         0         0         0         0         0
         0         0         0         0         0         0         0         0
         0         0         0         0         0         0         0         0
         0         0         0         0         0         0         0         0
         0         0         0         0         0         0         0         0
         0         0         0         0         0         0         0         0
         0         0         0         0         0         0         0         0
         0         0         0         0         0         0         0         0
         0         0         0         0         0         0         0         0
         0         0         0         0         0         0         0         0
         0         0         0         0         0         0         0         0
         0         0         0         0         0         0         0         0
         0         0         0         0         0         0         0         0
         0         0         0         0         0         0         0         0
         0         0         0         0         0         0         0         0
         0         0         0         0         0         0         0         0
         0         0         0         0         0         0         0         0
         0         0         0         0         0         0         0         0
         0         0         0         0         0         0         0         0
         0         0         0         0         0         0         0         0
         0         0         0         0         0         0         0         0
         0         0         0         0         0         0         0         0
         0         0         0         0         0         0         0         0
         0         0         0         0         0         0         0         0
         0         0         0         0         0         0         0         0
         0         0         0         0         0         0         0         0
         0         0         0         0         0         0         0         0
         0         0         0         0         0         0         0         0
         0         0         0         0         0         0         0         0
         0         0         0         0         0         0         0         0
         0         0         0         0         0         0         0         0
         0         0         0         0         0         0         0         0
         0         0         0         0         0         0         0         0
         0         0         0         0         0         0         0         0
         0         0         0         0         0         0         0         0
         0         0         0         0         0         0         0         0
         0         0         0         0         0         0         0         0
         0         0         0         0         0         0         0         0
         0         0         0         0         0         0         0         0
         0         0         0         0         0         0         0         0
         0         0         0         0         0         0         0         0
         0         0         0         0         0         0         0         0
         0         0         0         0         0         0         0         0
         0         0         0         0         0         0         0         0
         0         0         0         0         0         0         0         0
         0         0         0         0         0         0         0         0
         0         0         0         0         0         0         0         0
         0         0         0         0         0         0         0         0
         0         0         0         0         0         0         0         0
         0         0         0         0         0         0         0         0
         0         0         0         0         0         0         0         0
         0         0         0         0         0         0         0         0
         0         0         0         0         0         0         0         0
         0         0         0         0         0         0         0         0
         0         0         0         0         0         0         0         0
         0         0         0         0         0         0         0         0
         0         0         0         0         0         0         0         0
         0         0         0         0         0         0         0         0
         0         0         0         0         0         0         0         0
         0         0         0         0         0         0         0         0
         0         0         0         0         0         0         0         0
         0         0         0         0         0         0         0         0
         0         0         0         0         0         0         0         0
         0         0         0         0         0         0         0         0
         0         0         0         0         0         0         0         0
         0         0         0         0         0         0         0         0
         0         0         0         0         0         0         0         0
         0         0         0         0         0         0         0         0
         0         0         0         0         0         0         0         0
         0         0         0         0         0         0         0         0
         0         0         0         0         0         0         0         0
         0         0         0         0         0         0         0         0
         0         0         0         0         0         0         0         0
         0         0         0         0         0         0         0         0
         0         0         0         0         0         0         0         0
         0         0         0         0         0         0         0         0
         0         0         0         0         0         0         0         0
         0         0         0         0         0         0         0         0
         0         0         0         0         0         0         0         0
         0         0         0         0         0         0         0         0
         0         0         0         0         0         0         0         0
         0         0         0         0         0         0         0         0
         0         0         0         0         0         0         0         0
         0         0         0         0         0         0         0         0
         0         0         0         0         0         0         0         0
         0         0         0         0         0         0         0         0
         0         0         0         0         0         0         0         0
         0         0         0         0         0         0         0         0
         0         0         0         0         0         0         0         0
         0         0         0         0         0         0         0         0
         0         0         0         0         0         0         0         0
         0         0         0         0         0         0         0         0
         0         0         0         0         0         0         0         0
         0         0         0         0         0         0         0         0
         0         0         0         0         0         0         0         0
         0         0         0         0         0         0         0         0
         0         0         0         0         0         0         0         0
         0         0         0         0         0         0         0         0
         0         0         0         0         0         0         0         0
         0         0         0         0         0         0         0         0
         0         0         0         0         0         0         0         0
         0         0         0         0         0         0         0         0
         0         0         0         0         0         0         0         0
         0         0         0         0         0         0         0         0
         0         0         0         0         0         0         0         0
         0         0         0         0         0         0         0         0
         0         0         0         0         0         0         0         0
         0         0         0         0         0         0         0         0
         0         0         0         0         0         0         0         0
         0         0         0         0         0         0         0         0
         0         0         0         0         0         0         0         0
         0         0         0         0         0         0         0         0
         0         0         0         0         0         0         0         0
         0         0         0         0         0         0         0         0
         0         0         0         0         0         0         0         0
         0         0         0         0         0         0         0         0
         0         0         0         0         0         0         0         0
         0         0         0         0         0         0         0         0
         0         0         0         0         0         0         0         0
         0         0         0         0         0         0         0         0
         0         0         0         0         0         0         0         0
         0         0         0         0         0         0         0         0
         0         0         0         0         0         0         0         0
         0         0         0         0         0         0         0         0
         0         0         0         0         0         0         0         0
         0         0         0         0         0         0         0         0
         0         0         0         0         0         0         0         0
         0         0         0         0         0         0         0         0
         0         0         0         0         0         0         0         0
         0         0         0         0         0         0         0         0
         0         0         0         0         0         0         0         0
         0         0         0         0         0         0         0         0
         0         0         0         0         0         0         0         0
         0         0         0         0         0         0         0         0
         0         0         0         0         0         0         0         0
         0         0         0         0         0         0         0         0
         0         0         0         0         0         0         0         0
         0         0         0         0         0         0         0         0
         0         0         0         0         0         0         0         0
         0         0         0         0         0         0         0         0
         0         0         0         0         0         0         0         0
         0         0         0         0         0         0         0         0
         0         0         0         0         0         0         0         0
         0         0         0         0         0         0         0         0
         0         0         0         0         0         0         0         0
         0         0         0         0         0         0         0         0
         0         0         0         0         0         0         0         0
         0         0         0         0         0         0         0         0
         0         0         0         0         0         0         0         0
         0         0         0         0         0         0         0         0
         0         0         0         0         0         0         0         0
         0         0         0         0         0         0         0         0
         0         0         0         0         0         0         0         0
         0         0         0         0         0         0         0         0
         0         0         0         0         0         0         0         0
         0         0         0         0         0         0         0         0
         0         0         0         0         0         0         0         0
         0         0         0         0         0         0         0         0
         0         0         0         0         0         0         0         0
         0         0         0         0         0         0         0         0
         0         0         0         0         0         0         0         0
         0         0         0         0         0         0         0         0
         0         0         0         0         0         0         0         0
         0         0         0         0         0         0         0         0
         0         0         0         0         0         0         0         0
         0         0         0         0         0         0         0         0
         0         0         0         0         0         0         0         0
         0         0         0         0         0         0         0         0
         0         0         0         0         0         0         0         0
         0         0         0         0         0         0         0         0
         0         0         0         0         0         0         0         0
         0         0         0         0         0         0         0         0
         0         0         0         0         0         0         0         0
         0         0         0         0         0         0         0         0
         0         0         0         0         0         0         0         0
         0         0         0         0         0         0         0         0
         0         0         0         0         0         0         0         0
         0         0         0         0         0         0         0         0
         0         0         0         0         0         0         0         0
         0         0         0         0         0         0         0         0
         0         0         0         0         0         0         0         0
         0         0         0         0         0         0         0         0
         0         0         0         0         0         0         0         0
         0         0         0         0         0         0         0         0
         0         0         0         0         0         0         0         0
         0         0         0         0         0         0         0         0
         0         0         0         0         0         0         0         0
         0         0         0         0         0         0         0         0
         0         0         0         0         0         0         0         0
         0         0         0         0         0         0         0         0
         0         0         0         0         0         0         0         0
         0         0         0         0         0         0         0         0
         0         0         0         0         0         0         0         0
         0         0         0         0         0         0         0         0
         0         0         0         0         0         0         0         0
         0         0         0         0         0         0         0         0
         0         0         0         0         0         0         0         0
         0         0         0         0         0         0         0         0
         0         0         0         0         0         0         0         0
         0         0         0         0         0         0         0         0
         0         0         0         0         0         0         0         0
         0         0         0         0         0         0         0         0
         0         0         0         0         0         0         0         0
         0         0         0         0         0         0         0         0
         0         0         0         0         0         0         0         0
         0         0         0         0         0         0         0         0
         0         0         0         0         0         0         0         0
         0         0         0         0         0         0         0         0
         0         0         0         0         0         0         0         0
         0         0         0         0         0         0         0         0
         0         0         0         0         0         0         0         0
         0         0         0         0         0         0         0         0
         0         0         0         0         0         0         0         0
         0         0         0         0         0         0         0         0
         0         0         0         0         0         0         0         0
         0         0         0         0         0         0         0         0
         0         0         0         0         0         0         0         0
         0         0         0         0         0         0         0         0
         0         0         0         0         0         0         0         0
         0         0         0         0         0         0         0         0
         0         0         0         0         0         0         0         0
         0         0         0         0         0         0         0         0
         0         0         0         0         0         0         0         0
         0         0         0         0         0         0         0         0
         0         0         0         0         0         0         0         0
         0         0         0         0         0         0         0         0
         0         0         0         0         0         0         0         0
         0         0         0         0         0         0         0         0
         0         0         0         0         0         0         0         0
         0         0         0         0         0         0         0         0
         0         0         0         0         0         0         0         0
         0         0         0         0         0         0         0         0
         0         0         0         0         0         0         0         0
         0         0         0         0         0         0         0         0
         0         0         0         0         0         0         0         0
         0         0         0         0         0         0         0         0
         0         0         0         0         0         0         0         0
         0         0         0         0         0         0         0         0
         0         0         0         0         0         0         0         0
         0         0         0         0         0         0         0         0
         0         0         0         0         0         0         0         0
         0         0         0         0         0         0         0         0
         0         0         0         0         0         0         0         0
         0         0         0         0         0         0         0         0
         0         0         0         0         0         0         0         0
         0         0         0         0         0         0         0         0
         0         0         0         0         0         0         0         0
         0         0         0         0         0         0         0         0
         0         0         0         0         0         0         0         0
         0         0         0         0         0         0         0         0
         0         0         0         0         0         0         0         0
         0         0         0         0         0         0         0         0
         0         0         0         0         0         0         0         0
         0         0         0         0         0         0         0         0
         0         0         0         0         0         0         0         0
         0         0         0         0         0         0         0         0
         0         0         0         0         0         0         0         0
         0         0         0         0         0         0         0         0
         0         0         0         0         0         0         0         0
         0         0         0         0         0         0         0         0
         0         0         0         0         0         0         0         0
         0         0         0         0         0         0         0         0
         0         0         0         0         0         0         0         0
         0         0         0         0         0         0         0         0
         0         0         0         0         0         0         0         0
         0         0         0         0         0         0         0         0
         0         0         0         0         0         0         0         0
         0         0         0         0         0         0         0         0
         0         0         0         0         0         0         0         0
         0         0         0         0         0         0         0         0
         0         0         0         0         0         0         0         0
         0         0         0         0         0         0         0         0
         0         0         0         0         0         0         0         0
         0         0         0         0         0         0         0         0
         0         0         0         0         0         0         0         0
         0         0         0         0         0         0         0         0
         0         0         0         0         0         0         0         0
         0         0         0         0         0         0         0         0
         0         0         0         0         0         0         0         0
         0         0         0         0         0         0         0         0
         0         0         0         0         0         0         0         0
         0         0         0         0         0         0         0         0
         0         0         0         0         0         0         0         0
         0         0         0         0         0         0         0         0
         0         0         0         0         0         0         0         0
         0         0         0         0         0         0         0         0
         0         0         0         0         0         0         0         0
         0         0         0         0         0         0         0         0
         0         0         0         0         0         0         0         0
         0         0         0         0         0         0         0         0
         0         0         0         0         0         0         0         0
         0         0         0         0         0         0         0         0
         0         0         0         0         0         0         0         0
         0         0         0         0         0         0         0         0
         0         0         0         0         0         0         0         0
         0         0         0         0         0         0         0         0
         0         0         0         0         0         0         0         0
         0         0         0         0         0         0         0         0
         0         0         0         0         0         0         0         0
         0         0         0         0         0         0         0         0
         0         0         0         0         0         0         0         0
         0         0         0         0         0         0         0         0
         0         0         0         0         0         0         0         0
         0         0         0         0         0         0         0         0
         0         0         0         0         0         0         0         0
         0         0         0         0         0         0         0         0
         0         0         0         0         0         0         0         0
         0         0         0         0         0         0         0         0
         0         0         0         0         0         0         0         0
         0         0         0         0         0         0         0         0
         0         0         0         0         0         0         0         0
         0         0         0         0         0         0         0         0
         0         0         0         0         0         0         0         0
         0         0         0         0         0         0         0         0
         0         0         0         0         0         0         0         0
         0         0         0         0         0         0         0         0
         0         0         0         0         0         0         0         0
         0         0         0         0         0         0         0         0
         0         0         0         0         0         0         0         0
         0         0         0         0         0         0         0         0
         0         0         0         0         0         0         0         0
         0         0         0         0         0         0         0         0
         0         0         0         0         0         0         0         0
         0         0         0         0         0         0         0         0
         0         0         0         0         0         0         0         0
         0         0         0         0         0         0         0         0
         0         0         0         0         0         0         0         0
         0         0         0         0         0         0         0         0
         0         0         0         0         0         0         0         0
         0         0         0         0         0         0         0         0
         0         0         0         0         0         0         0         0
         0         0         0         0         0         0         0         0
         0         0         0         0         0         0         0         0
         0         0         0         0         0         0         0         0
         0         0         0         0         0         0         0         0
         0         0         0         0         0         0         0         0
         0         0         0         0         0         0         0         0
         0         0         0         0         0         0         0         0
         0         0         0         0         0         0         0         0
         0         0         0         0         0         0         0         0
         0         0         0         0         0         0         0         0
         0         0         0         0         0         0         0         0
         0         0         0         0         0         0         0         0
         0         0         0         0         0         0         0         0
         0         0         0         0         0         0         0         0
         0         0         0         0         0         0         0         0
         0         0         0         0         0         0         0         0
         0         0         0         0         0         0         0         0
         0         0         0         0         0         0         0         0
         0         0         0         0         0         0         0         0
         0         0         0         0         0         0         0         0
         0         0         0         0         0         0         0         0
         0         0         0         0         0         0         0         0
         0         0         0         0         0         0         0         0
         0         0         0         0         0         0         0         0
         0         0         0         0         0         0         0         0
         0         0         0         0         0         0         0         0
         0         0         0         0         0         0         0         0
         0         0         0         0         0         0         0         0
         0         0         0         0         0         0         0         0
         0         0         0         0         0         0         0         0
         0         0         0         0         0         0         0         0
         0         0         0         0         0         0         0         0
         0         0         0         0         0         0         0         0
         0         0         0         0         0         0         0         0
         0         0         0         0         0         0         0         0
         0         0         0         0         0         0         0         0
         0         0         0         0         0         0         0         0
         0         0         0         0         0         0         0         0
         0         0         0         0         0         0         0         0
         0         0         0         0         0         0         0         0
         0         0         0         0         0         0         0         0
         0         0         0         0         0         0         0         0
         0         0         0         0         0         0         0         0
         0         0         0         0         0         0         0         0
         0         0         0         0         0         0         0         0
         0         0         0         0         0         0         0         0
         0         0         0         0         0         0         0         0
         0         0         0         0         0         0         0         0
         0         0         0         0         0         0         0         0
         0         0         0         0         0         0         0         0
         0         0         0         0         0         0         0         0
         0         0         0         0         0         0         0         0
         0         0         0         0         0         0         0         0
         0         0         0         0         0         0         0         0
         0         0         0         0         0         0         0         0
         0         0         0         0         0         0         0         0
         0         0         0         0         0         0         0         0
         0         0         0         0         0         0         0         0
         0         0         0         0         0         0         0         0
         0         0         0         0         0         0         0         0
         0         0         0         0         0         0         0         0
         0         0         0         0         0         0         0         0
         0         0         0         0         0         0         0         0
         0         0         0         0         0         0         0         0
         0         0         0         0         0         0         0         0
         0         0         0         0         0         0         0         0
         0         0         0         0         0         0         0         0
         0         0         0         0         0         0         0         0
         0         0         0         0         0         0         0         0
         0         0         0         0         0         0         0         0
         0         0         0         0         0         0         0         0
         0         0         0         0         0         0         0         0
         0         0         0         0         0         0         0         0
         0         0         0         0         0         0         0         0
         0         0         0         0         0         0         0         0
         0         0         0         0         0         0         0         0
         0         0         0         0         0         0         0         0
         0         0         0         0         0         0         0         0
         0         0         0         0         0         0         0         0
         0         0         0         0         0         0         0         0
         0         0         0         0         0         0         0         0
         0         0         0         0         0         0         0         0
         0         0         0         0         0         0         0         0
         0         0         0         0         0         0         0         0
         0         0         0         0         0         0         0         0
         0         0         0         0         0         0         0         0
         0         0         0         0         0         0         0         0
         0         0         0         0         0         0         0         0
         0         0         0         0         0         0         0         0
         0         0         0         0         0         0         0         0
         0         0         0         0         0         0         0         0
         0         0         0         0         0         0         0         0
         0         0         0         0         0         0         0         0
         0         0         0         0         0         0         0         0
         0         0         0         0         0         0         0         0
         0         0         0         0         0         0         0         0
         0         0         0         0         0         0         0         0
         0         0         0         0         0         0         0         0
         0         0         0         0         0         0         0         0
         0         0         0         0         0         0         0         0
         0         0         0         0         0         0         0         0
         0         0         0         0         0         0         0         0
         0         0         0         0         0         0         0         0
         0         0         0         0         0         0         0         0
         0         0         0         0         0         0         0         0
         0         0         0         0         0         0         0         0
         0         0         0         0         0         0         0         0
         0         0         0         0         0         0         0         0
         0         0         0         0         0         0         0         0
         0         0         0         0         0         0         0         0
         0         0         0         0         0         0         0         0
         0         0         0         0         0         0         0         0
         0         0         0         0         0         0         0         0
         0         0         0         0         0         0         0         0
         0         0         0         0         0         0         0         0
         0         0         0         0         0         0         0         0
         0         0         0         0         0         0         0         0
         0         0         0         0         0         0         0         0
         0         0         0         0         0         0         0         0
         0         0         0         0         0         0         0         0
         0         0         0         0         0         0         0         0
         0         0         0         0         0         0         0         0
         0         0         0         0         0         0         0         0
         0         0         0         0         0         0         0         0
         0         0         0         0         0         0         0         0
         0         0         0         0         0         0         0         0
         0         0         0         0         0         0         0         0
         0         0         0         0         0         0         0         0
         0         0         0         0         0         0         0         0
         0         0         0         0         0         0         0         0
         0         0         0         0         0         0         0         0
         0         0         0         0         0         0         0         0
         0         0         0         0         0         0         0         0
         0         0         0         0         0         0         0         0
         0         0         0         0         0         0         0         0
         0         0         0         0         0         0         0         0
         0         0         0         0         0         0         0         0
         0         0         0         0         0         0         0         0
         0         0         0         0         0         0         0         0
         0         0         0         0         0         0         0         0
         0         0         0         0         0         0         0         0
         0         0         0         0         0         0         0         0
         0         0         0         0         0         0         0         0
         0         0         0         0         0         0         0         0
         0         0         0         0         0         0         0         0
         0         0         0         0         0         0         0         0
         0         0         0         0         0         0         0         0
         0         0         0         0         0         0         0         0
         0         0         0         0         0         0         0         0
         0         0         0         0         0         0         0         0
         0         0         0         0         0         0         0         0
         0         0         0         0         0         0         0         0
         0         0         0         0         0         0         0         0
         0         0         0         0         0         0         0         0
         0         0         0         0         0         0         0         0
         0         0         0         0         0         0         0         0
         0         0         0         0         0         0         0         0
         0         0         0         0         0         0         0         0
         0         0         0         0         0         0         0         0
         0         0         0         0         0         0         0         0
         0         0         0         0         0         0         0         0
         0         0         0         0         0         0         0         0
         0         0         0         0         0         0         0         0
         0         0         0         0         0         0         0         0
         0         0         0         0         0         0         0         0
         0         0         0         0         0         0         0         0
         0         0         0         0         0         0         0         0
         0         0         0         0         0         0         0         0
         0         0         0         0         0         0         0         0
         0         0         0         0         0         0         0         0
         0         0         0         0         0         0         0         0
         0         0         0         0         0         0         0         0
         0         0         0         0         0         0         0         0
         0         0         0         0         0         0         0         0
         0         0         0         0         0         0         0         0
         0         0         0         0         0         0         0         0
         0         0         0         0         0         0         0         0
         0         0         0         0         0         0         0         0
         0         0         0         0         0         0         0         0
         0         0         0         0         0         0         0         0
         0         0         0         0         0         0         0         0
         0         0         0         0         0         0         0         0
         0         0         0         0         0         0         0         0
         0         0         0         0         0         0         0         0
         0         0         0         0         0         0         0         0
         0         0         0         0         0         0         0         0
         0         0         0         0         0         0         0         0
         0         0         0         0         0         0         0         0
         0         0         0         0         0         0         0         0
         0         0         0         0         0         0         0         0
         0         0         0         0         0         0         0         0
         0         0         0         0         0         0         0         0
         0         0         0         0         0         0         0         0
         0         0         0         0         0         0         0         0
         0         0         0         0         0         0         0         0
         0         0         0         0         0         0         0         0
         0         0         0         0         0         0         0         0
         0         0         0         0         0         0         0         0
         0         0         0         0         0         0         0         0
         0         0         0         0         0         0         0         0
         0         0         0         0         0         0         0         0
         0         0         0         0         0         0         0         0
         0         0         0         0         0         0         0         0
         0         0         0         0         0         0         0         0
         0         0         0         0         0         0         0         0
         0         0         0         0         0         0         0         0
         0         0         0         0         0         0         0         0
         0         0         0         0         0         0         0         0
         0         0         0         0         0         0         0         0
         0         0         0         0         0         0         0         0
         0         0         0         0         0         0         0         0
         0         0         0         0         0         0         0         0
         0         0         0         0         0         0         0         0
         0         0         0         0         0         0         0         0
         0         0         0         0         0         0         0         0
         0         0         0         0         0         0         0         0
         0         0         0         0         0         0         0         0
         0         0         0         0         0         0         0         0
         0         0         0         0         0         0         0         0
         0         0         0         0         0         0         0         0
         0         0         0         0         0         0         0         0
         0         0         0         0         0         0         0         0
         0         0         0         0         0         0         0         0
         0         0         0         0         0         0         0         0
         0         0         0         0         0         0         0         0
         0         0         0         0         0         0         0         0
         0         0         0         0         0         0         0         0
         0         0         0         0         0         0         0         0
         0         0         0         0         0         0         0         0
         0         0         0         0         0         0         0         0
         0         0         0         0         0         0         0         0
         0         0         0         0         0         0         0         0
         0         0         0         0         0         0         0         0
         0         0         0         0         0         0         0         0
         0         0         0         0         0         0         0         0
         0         0         0         0         0         0         0         0
         0         0         0         0         0         0         0         0
         0         0         0         0         0         0         0         0
         0         0         0         0         0         0         0         0
         0         0         0         0         0         0         0         0
         0         0         0         0         0         0         0         0
         0         0         0         0         0         0         0         0
         0         0         0         0         0         0         0         0
         0         0         0         0         0         0         0         0
         0         0         0         0         0         0         0         0
         0         0         0         0         0         0         0         0
         0         0         0         0         0         0         0         0
         0         0         0         0         0         0         0         0
         0         0         0         0         0         0         0         0
         0         0         0         0         0         0         0         0
         0         0         0         0         0         0         0         0
         0         0         0         0         0         0         0         0
         0         0         0         0         0         0         0         0
         0         0         0         0         0         0         0         0
         0         0         0         0         0         0         0         0
         0         0         0         0         0         0         0         0
         0         0         0         0         0         0         0         0
         0         0         0         0         0         0         0         0
         0         0         0         0         0         0         0         0
         0         0         0         0         0         0         0         0
         0         0         0         0         0         0         0         0
         0         0         0         0         0         0         0         0
         0         0         0         0         0         0         0         0
         0         0         0         0         0         0         0         0
         0         0         0         0         0         0         0         0
         0         0         0         0         0         0         0         0
         0         0         0         0         0         0         0         0
         0         0         0         0         0         0         0         0
         0         0         0         0         0         0         0         0
         0         0         0         0         0         0         0         0
         0         0         0         0         0         0         0         0
         0         0         0         0         0         0         0         0
         0         0         0         0         0         0         0         0
         0         0         0         0         0         0         0         0
         0         0         0         0         0         0         0         0
         0         0         0         0         0         0         0         0
         0         0         0         0         0         0         0         0
         0         0         0         0         0         0         0         0
         0         0         0         0         0         0         0         0
         0         0         0         0         0         0         0         0
         0         0         0         0         0         0         0         0
         0         0         0         0         0         0         0         0
         0         0         0         0         0         0         0         0
         0         0         0         0         0         0         0         0
         0         0         0         0         0         0         0         0
         0         0         0         0         0         0         0         0
         0         0         0         0         0         0         0         0
         0         0         0         0         0         0         0         0
         0         0         0         0         0         0         0         0
         0         0         0         0         0         0         0         0
         0         0         0         0         0         0         0         0
         0         0         0         0         0         0         0         0
         0         0         0         0         0         0         0         0
         0         0         0         0         0         0         0         0
         0         0         0         0         0         0         0         0
         0         0         0         0         0         0         0         0
         0         0         0         0         0         0         0         0
         0         0         0         0         0         0         0         0
         0         0         0         0         0         0         0         0
         0         0         0         0         0         0         0         0
         0         0         0         0         0         0         0         0
         0         0         0         0         0         0         0         0
         0         0         0         0         0         0         0         0
         0         0         0         0         0         0         0         0
         0         0         0         0         0         0         0         0
         0         0         0         0         0         0         0         0
         0         0         0         0         0         0         0         0
         0         0         0         0         0         0         0         0
         0         0         0         0         0         0         0         0
         0         0         0         0         0         0         0         0
         0         0         0         0         0         0         0         0
         0         0         0         0         0         0         0         0
         0         0         0         0         0         0         0         0
         0         0         0         0         0         0         0         0
         0         0         0         0         0         0         0         0
         0         0         0         0         0         0         0         0
         0         0         0         0         0         0         0         0
         0         0         0         0         0         0         0         0
         0         0         0         0         0         0         0         0
         0         0         0         0         0         0         0         0
         0         0         0         0         0         0         0         0
         0         0         0         0         0         0         0         0
         0         0         0         0         0         0         0         0
         0         0         0         0         0         0         0         0
         0         0         0         0         0         0         0         0
         0         0         0         0         0         0         0         0
         0         0         0         0         0         0         0         0
         0         0         0         0         0         0         0         0
         0         0         0         0         0         0         0         0
         0         0         0         0         0         0         0         0
         0         0         0         0         0         0         0         0
         0         0         0         0         0         0         0         0
         0         0         0         0         0         0         0         0
         0         0         0         0         0         0         0         0
         0         0         0         0         0         0         0         0
         0         0         0         0         0         0         0         0
         0         0         0         0         0         0         0         0
         0         0         0         0         0         0         0         0
         0         0         0         0         0         0         0         0
         0         0         0         0         0         0         0         0
         0         0         0         0         0         0         0         0
         0         0         0         0         0         0         0         0
         0         0         0         0         0         0         0         0
         0         0         0         0         0         0         0         0
         0         0         0         0         0         0         0         0
         0         0         0         0         0         0         0         0
         0         0         0         0         0         0         0         0
         0         0         0         0         0         0         0         0
         0         0         0         0         0         0         0         0
         0         0         0         0         0         0         0         0
         0         0         0         0         0         0         0         0
         0         0         0         0         0         0         0         0
         0         0         0         0         0         0         0         0
         0         0         0         0         0         0         0         0
         0         0         0         0         0         0         0         0
         0         0         0         0         0         0         0         0
         0         0         0         0         0         0         0         0
         0         0         0         0         0         0         0         0
         0         0         0         0         0         0         0         0
         0         0         0         0         0         0         0         0
         0         0         0         0         0         0         0         0
         0         0         0         0         0         0         0         0
         0         0         0         0         0         0         0         0
         0         0         0         0         0         0         0         0
         0         0         0         0         0         0         0         0
         0         0         0         0         0         0         0         0
         0         0         0         0         0         0         0         0
         0         0         0         0         0         0         0         0
         0         0         0         0         0         0         0         0
         0         0         0         0         0         0         0         0
         0         0         0         0         0         0         0         0
         0         0         0         0         0         0         0         0
         0         0         0         0         0         0         0         0
         0         0         0         0         0         0         0         0
         0         0         0         0         0         0         0         0
         0         0         0         0         0         0         0         0
         0         0         0         0         0         0         0         0
         0         0         0         0         0         0         0         0
         0         0         0         0         0         0         0         0
         0         0         0         0         0         0         0         0
         0         0         0         0         0         0         0         0
         0         0         0         0         0         0         0         0
         0         0         0         0         0         0         0         0
         0         0         0         0         0         0         0         0
         0         0         0         0         0         0         0         0
         0         0         0         0         0         0         0         0
         0         0         0         0         0         0         0         0
         0         0         0         0         0         0         0         0
         0         0         0         0         0         0         0         0
         0         0         0         0         0         0         0         0
         0         0         0         0         0         0         0         0
         0         0         0         0         0         0         0         0
         0         0         0         0         0         0         0         0
         0         0         0         0         0         0         0         0
         0         0         0         0         0         0         0         0
         0         0         0         0         0         0         0         0
         0         0         0         0         0         0         0         0
         0         0         0         0         0         0         0         0
         0         0         0         0         0         0         0         0
         0         0         0         0         0         0         0         0
         0         0         0         0         0         0         0         0
         0         0         0         0         0         0         0         0
         0         0         0         0         0         0         0         0
         0         0         0         0         0         0         0         0
         0         0         0         0         0         0         0         0
         0         0         0         0         0         0         0         0
         0         0         0         0         0         0         0         0
         0         0         0         0         0         0         0         0
         0         0         0         0         0         0         0         0
         0         0         0         0         0         0         0         0
         0         0         0         0         0         0         0         0
         0         0         0         0         0         0         0         0
         0         0         0         0         0         0         0         0
         0         0         0         0         0         0         0         0
         0         0         0         0         0         0         0         0
         0         0         0         0         0         0         0         0
         0         0         0         0         0         0         0         0
         0         0         0         0         0         0         0         0
         0         0         0         0         0         0         0         0
         0         0         0         0         0         0         0         0
         0         0         0         0         0         0         0         0
         0         0         0         0         0         0         0         0
         0         0         0         0         0         0         0         0
         0         0         0         0         0         0         0         0
         0         0         0         0         0         0         0         0
         0         0         0         0         0         0         0         0
         0         0         0         0         0         0         0         0
         0         0         0         0         0         0         0         0
         0         0         0         0         0         0         0         0
         0         0         0         0         0         0         0         0
         0         0         0         0         0         0         0         0
         0         0         0         0         0         0         0         0
         0         0         0         0         0         0         0         0
         0         0         0         0         0         0         0         0
         0         0         0         0         0         0         0         0
         0         0         0         0         0         0         0         0
         0         0         0         0         0         0         0         0
         0         0         0         0         0         0         0         0
         0         0         0         0         0         0         0         0
         0         0         0         0         0         0         0         0
         0         0         0         0         0         0         0         0
         0         0         0         0         0         0         0         0
         0         0         0         0         0         0         0         0
         0         0         0         0         0         0         0         0
         0         0         0         0         0         0         0         0
         0         0         0         0         0         0         0         0
         0         0         0         0         0         0         0         0
         0         0         0         0         0         0         0         0
         0         0         0         0         0         0         0         0
         0         0         0         0         0         0         0         0
         0         0         0         0         0         0         0         0
         0         0         0         0         0         0         0         0
         0         0         0         0         0         0         0         0
         0         0         0         0         0         0         0         0
         0         0         0         0         0         0         0         0
         0         0         0         0         0         0         0         0
         0         0         0         0         0         0         0         0
         0         0         0         0         0         0         0         0
         0         0         0         0         0         0         0         0
         0         0         0         0         0         0         0         0
         0         0         0         0         0         0         0         0
         0         0         0         0         0         0         0         0
         0         0         0         0         0         0         0         0
         0         0         0         0         0         0         0         0
         0         0         0         0         0         0         0         0
         0         0         0         0         0         0         0         0
         0         0         0         0         0         0         0         0
         0         0         0         0         0         0         0         0
         0         0         0         0         0         0         0         0
         0         0         0         0         0         0         0         0
         0         0         0         0         0         0         0         0
         0         0         0         0         0         0         0         0
         0         0         0         0         0         0         0         0
         0         0         0         0         0         0         0         0
         0         0         0         0         0         0         0         0
         0         0         0         0         0         0         0         0
         0         0         0         0         0         0         0         0
         0         0         0         0         0         0         0         0
         0         0         0         0         0         0         0         0
         0         0         0         0         0         0         0         0
         0         0         0         0         0         0         0         0
         0         0         0         0         0         0         0         0
         0         0         0         0         0         0         0         0
         0         0         0         0         0         0         0         0
         0         0         0         0         0         0         0         0
         0         0         0         0         0         0         0         0
         0         0         0         0         0         0         0         0
         0         0         0         0         0         0         0         0
         0         0         0         0         0         0         0         0
         0         0         0         0         0         0         0         0
         0         0         0         0         0         0         0         0
         0         0         0         0         0         0         0         0
         0         0         0         0         0         0         0         0
         0         0         0         0         0         0         0         0
         0         0         0         0         0         0         0         0
         0         0         0         0         0         0         0         0
         0         0         0         0         0         0         0         0
         0         0         0         0         0         0         0         0
         0         0         0         0         0         0         0         0
         0         0         0         0         0         0         0         0
         0         0         0         0         0         0         0         0
         0         0         0         0         0         0         0         0
         0         0         0         0         0         0         0         0
         0         0         0         0         0         0         0         0
         0         0         0         0         0         0         0         0
         0         0         0         0         0         0         0         0
         0         0         0         0         0         0         0         0
         0         0         0         0         0         0         0         0
         0         0         0         0         0         0         0         0
         0         0         0         0         0         0         0         0
         0         0         0         0         0         0         0         0
         0         0         0         0         0         0         0         0
         0         0         0         0         0         0         0         0
         0         0         0         0         0         0         0         0
         0         0         0         0         0         0         0         0
         0         0         0         0         0         0         0         0
         0         0         0         0         0         0         0         0
         0         0         0         0         0         0         0         0
         0         0         0         0         0         0         0         0
         0         0         0         0         0         0         0         0
         0         0         0         0         0         0         0         0
         0         0         0         0         0         0         0         0
         0         0         0         0         0         0         0         0
         0         0         0         0         0         0         0         0
         0         0         0         0         0         0         0         0
         0         0         0         0         0         0         0         0
         0         0         0         0         0         0         0         0
         0         0         0         0         0         0         0         0
         0         0         0         0         0         0         0         0
         0         0         0         0         0         0         0         0
         0         0         0         0         0         0         0         0
         0         0         0         0         0         0         0         0
         0         0         0         0         0         0         0         0
         0         0         0         0         0         0         0         0
         0         0         0         0         0         0         0         0
         0         0         0         0         0         0         0         0
         0         0         0         0         0         0         0         0
         0         0         0         0         0         0         0         0
         0         0         0         0         0         0         0         0
         0         0         0         0         0         0         0         0
         0         0         0         0         0         0         0         0
         0         0         0         0         0         0         0         0
         0         0         0         0         0         0         0         0
         0         0         0         0         0         0         0         0
         0         0         0         0         0         0         0         0
         0         0         0         0         0         0         0         0
         0         0         0         0         0         0         0         0
         0         0         0         0         0         0         0         0
         0         0         0         0         0         0         0         0
         0         0         0         0         0         0         0         0
         0         0         0         0         0         0         0         0
         0         0         0         0         0         0         0         0
         0         0         0         0         0         0         0         0
         0         0         0         0         0         0         0         0
         0         0         0         0         0         0         0         0
         0         0         0         0         0         0         0         0
         0         0         0         0         0         0         0         0
         0         0         0         0         0         0         0         0
         0         0         0         0         0         0         0         0
         0         0         0         0         0         0         0         0
         0         0         0         0         0         0         0         0
         0         0         0         0         0         0         0         0
         0         0         0         0         0         0         0         0
         0         0         0         0         0         0         0         0
         0         0         0         0         0         0         0         0
         0         0         0         0         0         0         0         0
         0         0         0         0         0         0         0         0
         0         0         0         0         0         0         0         0
         0         0         0         0         0         0         0         0
         0         0         0         0         0         0         0         0
         0         0         0         0         0         0         0         0
         0         0         0         0         0         0         0         0
         0         0         0         0         0         0         0         0
         0         0         0         0         0         0         0         0
         0         0         0         0         0         0         0         0
         0         0         0         0         0         0         0         0
         0         0         0         0         0         0         0         0
         0         0         0         0         0         0         0         0
         0         0         0         0         0         0         0         0
         0         0         0         0         0         0         0         0
         0         0         0         0         0         0         0         0
         0         0         0         0         0         0         0         0
         0         0         0         0         0         0         0         0
         0         0         0         0         0         0         0         0
         0         0         0         0         0         0         0         0
         0         0         0         0         0         0         0         0
         0         0         0         0         0         0         0         0
         0         0         0         0         0         0         0         0
         0         0         0         0         0         0         0         0
         0         0         0         0         0         0         0         0
         0         0         0         0         0         0         0         0
         0         0         0         0         0         0         0         0
         0         0         0         0         0         0         0         0
         0         0         0         0         0         0         0         0
         0         0         0         0         0         0         0         0
         0         0         0         0         0         0         0         0
         0         0         0         0         0         0         0         0
         0         0         0         0         0         0         0         0
         0         0         0         0         0         0         0         0
         0         0         0         0         0         0         0         0
         0         0         0         0         0         0         0         0
         0         0         0         0         0         0         0         0
         0         0         0         0         0         0         0         0
         0         0         0         0         0         0         0         0
         0         0         0         0         0         0         0         0
         0         0         0         0         0         0         0         0
         0         0         0         0         0         0         0         0
         0         0         0         0         0         0         0         0
         0         0         0         0         0         0         0         0
         0         0         0         0         0         0         0         0
         0         0         0         0         0         0         0         0
         0         0         0         0         0         0         0         0
         0         0         0         0         0         0         0         0
         0         0         0         0         0         0         0         0
         0         0         0         0         0         0         0         0
         0         0         0         0         0         0         0         0
         0         0         0         0         0         0         0         0
         0         0         0         0         0         0         0         0
         0         0         0         0         0         0         0         0
         0         0         0         0         0         0         0         0
         0         0         0         0         0         0         0         0
         0         0         0         0         0         0         0         0
         0         0         0         0         0         0         0         0
         0         0         0         0         0         0         0         0
         0         0         0         0         0         0         0         0
         0         0         0         0         0         0         0         0
         0         0         0         0         0         0         0         0
         0         0         0         0         0         0         0         0
         0         0         0         0         0         0         0         0
         0         0         0         0         0         0         0         0
         0         0         0         0         0         0         0         0
         0         0         0         0         0         0         0         0
         0         0         0         0         0         0         0         0
         0         0         0         0         0         0         0         0
         0         0         0         0         0         0         0         0
         0         0         0         0         0         0         0         0
         0         0         0         0         0         0         0         0
         0         0         0         0         0         0         0         0
         0         0         0         0         0         0         0         0
         0         0         0         0         0         0         0         0
         0         0         0         0         0         0         0         0
         0         0         0         0         0         0         0         0
         0         0         0         0         0         0         0         0
         0         0         0         0         0         0         0         0
         0         0         0         0         0         0         0         0
         0         0         0         0         0         0         0         0
         0         0         0         0         0         0         0         0
         0         0         0         0         0         0         0         0
         0         0         0         0         0         0         0         0
         0         0         0         0         0         0         0         0
         0         0         0         0         0         0         0         0
         0         0         0         0         0         0         0         0
         0         0         0         0         0         0         0         0
         0         0         0         0         0         0         0         0
         0         0         0         0         0         0         0         0
         0         0         0         0         0         0         0         0
         0         0         0         0         0         0         0         0
         0         0         0         0         0         0         0         0
         0         0         0         0         0         0         0         0
         0         0         0         0         0         0         0         0
         0         0         0         0         0         0         0         0
         0         0         0         0         0         0         0         0
         0         0         0         0         0         0         0         0
         0         0         0         0         0         0         0         0
         0         0         0         0         0         0         0         0
         0         0         0         0         0         0         0         0
         0         0         0         0         0         0         0         0
         0         0         0         0         0         0         0         0
         0         0         0         0         0         0         0         0
         0         0         0         0         0         0         0         0
         0         0         0         0         0         0         0         0
         0         0         0         0         0         0         0         0
         0         0         0         0         0         0         0         0
         0         0         0         0         0         0         0         0
         0         0         0         0         0         0         0         0
         0         0         0         0         0         0         0         0
         0         0         0         0         0         0         0         0
         0         0         0         0         0         0         0         0
         0         0         0         0         0         0         0         0
         0         0         0         0         0         0         0         0
         0         0         0         0         0         0         0         0
         0         0         0         0         0         0         0         0
         0         0         0         0         0         0         0         0
         0         0         0         0         0         0         0         0
         0         0         0         0         0         0         0         0
         0         0         0         0         0         0         0         0
         0         0         0         0         0         0         0         0
         0         0         0         0         0         0         0         0
         0         0         0         0         0         0         0         0
         0         0         0         0         0         0         0         0
         0         0         0         0         0         0         0         0
         0         0         0         0         0         0         0         0
         0         0         0         0         0         0         0         0
         0         0         0         0         0         0         0         0
         0         0         0         0         0         0         0         0
         0         0         0         0         0         0         0         0
         0         0         0         0         0         0         0         0
         0         0         0         0         0         0         0         0
         0         0         0         0         0         0         0         0
         0         0         0         0         0         0         0         0
         0         0         0         0         0         0         0         0
         0         0         0         0         0         0         0         0
         0         0         0         0         0         0         0         0
         0         0         0         0         0         0         0         0
         0         0         0         0         0         0         0         0
         0         0         0         0         0         0         0         0
         0         0         0         0         0         0         0         0
         0         0         0         0         0         0         0         0
         0         0         0         0         0         0         0         0
         0         0         0         0         0         0         0         0
         0         0         0         0         0         0         0         0
         0         0         0         0         0         0         0         0
         0         0         0         0         0         0         0         0
         0         0         0         0         0         0         0         0
         0         0         0         0         0         0         0         0
         0         0         0         0         0         0         0         0
         0         0         0         0         0         0         0         0
         0         0         0         0         0         0         0         0
         0         0         0         0         0         0         0         0
         0         0         0         0         0         0         0         0
         0         0         0         0         0         0         0         0
         0         0         0         0         0         0         0         0
         0         0         0         0         0         0         0         0
         0         0         0         0         0         0         0         0
         0         0         0         0         0         0         0         0
         0         0         0         0         0         0         0         0
         0         0         0         0         0         0         0         0
         0         0         0         0         0         0         0         0
         0         0         0         0         0         0         0         0
         0         0         0         0         0         0         0         0
         0         0         0         0         0         0         0         0
         0         0         0         0         0         0         0         0
         0         0         0         0         0         0         0         0
         0         0         0         0         0         0         0         0
         0         0         0         0         0         0         0         0
         0         0         0         0         0         0         0         0
         0         0         0         0         0         0         0         0
         0         0         0         0         0         0         0         0
         0         0         0         0         0         0         0         0
         0         0         0         0         0         0         0         0
         0         0         0         0         0         0         0         0
         0         0         0         0         0         0         0         0
         0         0         0         0         0         0         0         0
         0         0         0         0         0         0         0         0
         0         0         0         0         0         0         0         0
         0         0         0         0         0         0         0         0
         0         0         0         0         0         0         0         0
         0         0         0         0         0         0         0         0
         0         0         0         0         0         0         0         0
         0         0         0         0         0         0         0         0
         0         0         0         0         0         0         0         0
         0         0         0         0         0         0         0         0
         0         0         0         0         0         0         0         0
         0         0         0         0         0         0         0         0
         0         0         0         0         0         0         0         0
         0         0         0         0         0         0         0         0
         0         0         0         0         0         0         0         0
         0         0         0         0         0         0         0         0
         0         0         0         0         0         0         0         0
         0         0         0         0         0         0         0         0
         0         0         0         0         0         0         0         0
         0         0         0         0         0         0         0         0
         0         0         0         0         0         0         0         0
         0         0         0         0         0         0         0         0
         0         0         0         0         0         0         0         0
         0         0         0         0         0         0         0         0
         0         0         0         0         0         0         0         0
         0         0         0         0         0         0         0         0
         0         0         0         0         0         0         0         0
         0         0         0         0         0         0         0         0
         0         0         0         0         0         0         0         0
         0         0         0         0         0         0         0         0
         0         0         0         0         0         0         0         0
         0         0         0         0         0         0         0         0
         0         0         0         0         0         0         0         0
         0         0         0         0         0         0         0         0
         0         0         0         0         0         0         0         0
         0         0         0         0         0         0         0         0
         0         0         0         0         0         0         0         0
         0         0         0         0         0         0         0         0
         0         0         0         0         0         0         0         0
         0         0         0         0         0         0         0         0
         0         0         0         0         0         0         0         0
         0         0         0         0         0         0         0         0
         0         0         0         0         0         0         0         0
         0         0         0         0         0         0         0         0
         0         0         0         0         0         0         0         0
         0         0         0         0         0         0         0         0
         0         0         0         0         0         0         0         0
         0         0         0         0         0         0         0         0
         0         0         0         0         0         0         0         0
         0         0         0         0         0         0         0         0
         0         0         0         0         0         0         0         0
         0         0         0         0         0         0         0         0
         0         0         0         0         0         0         0         0
         0         0         0         0         0         0         0         0
         0         0         0         0         0         0         0         0
         0         0         0         0         0         0         0         0
         0         0         0         0         0         0         0         0
         0         0         0         0         0         0         0         0
         0         0         0         0         0         0         0         0
         0         0         0         0         0         0         0         0
         0         0         0         0         0         0         0         0
         0         0         0         0         0         0         0         0
         0         0         0         0         0         0         0         0
         0         0         0         0         0         0         0         0
         0         0         0         0         0         0         0         0
         0         0         0         0         0         0         0         0
         0         0         0         0         0         0         0         0
         0         0         0         0         0         0         0         0
         0         0         0         0         0         0         0         0
         0         0         0         0         0         0         0         0
         0         0         0         0         0         0         0         0
         0         0         0         0         0         0         0         0
         0         0         0         0         0         0         0         0
         0         0         0         0         0         0         0         0
         0         0         0         0         0         0         0         0
         0         0         0         0         0         0         0         0
         0         0         0         0         0         0         0         0
         0         0         0         0         0         0         0         0
         0         0         0         0         0         0         0         0
         0         0         0         0         0         0         0         0
         0         0         0         0         0         0         0         0
         0         0         0         0         0         0         0         0
         0         0         0         0         0         0         0         0
         0         0         0         0         0         0         0         0
         0         0         0         0         0         0         0         0
         0         0         0         0         0         0         0         0
         0         0         0         0         0         0         0         0
         0         0         0         0         0         0         0         0
         0         0         0         0         0         0         0         0
         0         0         0         0         0         0         0         0
         0         0         0         0         0         0         0         0
         0         0         0         0         0         0         0         0
         0         0         0         0         0         0         0         0
         0         0         0         0         0         0         0         0
         0         0         0         0         0         0         0         0
         0         0         0         0         0         0         0         0
         0         0         0         0         0         0         0         0
         0         0         0         0         0         0         0         0
         0         0         0         0         0         0         0         0
         0         0         0         0         0         0         0         0
         0         0         0         0         0         0         0         0
         0         0         0         0         0         0         0         0
         0         0         0         0         0         0         0         0
         0         0         0         0         0         0         0         0
         0         0         0         0         0         0         0         0
         0         0         0         0         0         0         0         0
         0         0         0         0         0         0         0         0
         0         0         0         0         0         0         0         0
         0         0         0         0         0         0         0         0
         0         0         0         0         0         0         0         0
         0         0         0         0         0         0         0         0
         0         0         0         0         0         0         0         0
         0         0         0         0         0         0         0         0
         0         0         0         0         0         0         0         0
         0         0         0         0         0         0         0         0
         0         0         0         0         0         0         0         0
         0         0         0         0         0         0         0         0
         0         0         0         0         0         0         0         0
         0         0         0         0         0         0         0         0
         0         0         0         0         0         0         0         0
         0         0         0         0         0         0         0         0
         0         0         0         0         0         0         0         0
         0         0         0         0         0         0         0         0
         0         0         0         0         0         0         0         0
         0         0         0         0         0         0         0         0
         0         0         0         0         0         0         0         0
         0         0         0         0         0         0         0         0
         0         0         0         0         0         0         0         0
         0         0         0         0         0         0         0         0
         0         0         0         0         0         0         0         0
         0         0         0         0         0         0         0         0
         0         0         0         0         0         0         0         0
         0         0         0         0         0         0         0         0
         0         0         0         0         0         0         0         0
         0         0         0         0         0         0         0         0
         0         0         0         0         0         0         0         0
         0         0         0         0         0         0         0         0
         0         0         0         0         0         0         0         0
         0         0         0         0         0         0         0         0
         0         0         0         0         0         0         0         0
         0         0         0         0         0         0         0         0
         0         0         0         0         0         0         0         0
         0         0         0         0         0         0         0         0
         0         0         0         0         0         0         0         0
         0         0         0         0         0         0         0         0
         0         0         0         0         0         0         0         0
         0         0         0         0         0         0         0         0
         0         0         0         0         0         0         0         0
         0         0         0         0         0         0         0         0
         0         0         0         0         0         0         0         0
         0         0         0         0         0         0         0         0
         0         0         0         0         0         0         0         0
         0         0         0         0         0         0         0         0
         0         0         0         0         0         0         0         0
         0         0         0         0         0         0         0         0
         0         0         0         0         0         0         0         0
         0         0         0         0         0         0         0         0
         0         0         0         0         0         0         0         0
         0         0         0         0         0         0         0         0
         0         0         0         0         0         0         0         0
         0         0         0         0         0         0         0         0
         0         0         0         0         0         0         0         0
         0         0         0         0         0         0         0         0
         0         0         0         0         0         0         0         0
         0         0         0         0         0         0         0         0
         0         0         0         0         0         0         0         0
         0         0         0         0         0         0         0         0
         0         0         0         0         0         0         0         0
         0         0         0         0         0         0         0         0
         0         0         0         0         0         0         0         0
         0         0         0         0         0         0         0         0
         0         0         0         0         0         0         0         0
         0         0         0         0         0         0         0         0
         0         0         0         0         0         0         0         0
         0         0         0         0         0         0         0         0
         0         0         0         0         0         0         0         0
         0         0         0         0         0         0         0         0
         0         0         0         0         0         0         0         0
         0         0         0         0         0         0         0         0
         0         0         0         0         0         0         0         0
         0         0         0         0         0         0         0         0
         0         0         0         0         0         0         0         0
         0         0         0         0         0         0         0         0
         0         0         0         0         0         0         0         0
         0         0         0         0         0         0         0         0
         0         0         0         0         0         0         0         0
         0         0         0         0         0         0         0         0
         0         0         0         0         0         0         0         0
         0         0         0         0         0         0         0         0
         0         0         0         0         0         0         0         0
         0         0         0         0         0         0         0         0
         0         0         0         0         0         0         0         0
         0         0         0         0         0         0         0         0
         0         0         0         0         0         0         0         0
         0         0         0         0         0         0         0         0
         0         0         0         0         0         0         0         0
         0         0         0         0         0         0         0         0
         0         0         0         0         0         0         0         0
         0         0         0         0         0         0         0         0
         0         0         0         0         0         0         0         0
         0         0         0         0         0         0         0         0
         0         0         0         0         0         0         0         0
         0         0         0         0         0         0         0         0
         0         0         0         0         0         0         0         0
         0         0         0         0         0         0         0         0
         0         0         0         0         0         0         0         0
         0         0         0         0         0         0         0         0
         0         0         0         0         0         0         0         0
         0         0         0         0         0         0         0         0
         0         0         0         0         0         0         0         0
         0         0         0         0         0         0         0         0
         0         0         0         0         0         0         0         0
         0         0         0         0         0         0         0         0
         0         0         0         0         0         0         0         0
         0         0         0         0         0         0         0         0
         0         0         0         0         0         0         0         0
         0         0         0         0         0         0         0         0
         0         0         0         0         0         0         0         0
         0         0         0         0         0         0         0         0
         0         0         0         0         0         0         0         0
         0         0         0         0         0         0         0         0
         0         0         0         0         0         0         0         0
         0         0         0         0         0         0         0         0
         0         0         0         0         0         0         0         0
         0         0         0         0         0         0         0         0
         0         0         0         0         0         0         0         0
         0         0         0         0         0         0         0         0
         0         0         0         0         0         0         0         0
         0         0         0         0         0         0         0         0
         0         0         0         0         0         0         0         0
         0         0         0         0         0         0         0         0
         0         0         0         0         0         0         0         0
         0         0         0         0         0         0         0         0
         0         0         0         0         0         0         0         0
         0         0         0         0         0         0         0         0
         0         0         0         0         0         0         0         0
         0         0         0         0         0         0         0         0
         0         0         0         0         0         0         0         0
         0         0         0         0         0         0         0         0
         0         0         0         0         0         0         0         0
         0         0         0         0         0         0         0         0
         0         0         0         0         0         0         0         0
         0         0         0         0         0         0         0         0
         0         0         0         0         0         0         0         0
         0         0         0         0         0         0         0         0
         0         0         0         0         0         0         0         0
         0         0         0         0         0         0         0         0
         0         0         0         0         0         0         0         0
         0         0         0         0         0         0         0         0
         0         0         0         0         0         0         0         0
         0         0         0         0         0         0         0         0
         0         0         0         0         0         0         0         0
         0         0         0         0         0         0         0         0
         0         0         0         0         0         0         0         0
         0         0         0         0         0         0         0         0
         0         0         0         0         0         0         0         0
         0         0         0         0         0         0         0         0
         0         0         0         0         0         0         0         0
         0         0         0         0         0         0         0         0
         0         0         0         0         0         0         0         0
         0         0         0         0         0         0         0         0
         0         0         0         0         0         0         0         0
         0         0         0         0         0         0         0         0
         0         0         0         0         0         0         0         0
         0         0         0         0         0         0         0         0
         0         0         0         0         0         0         0         0
         0         0         0         0         0         0         0         0
         0         0         0         0         0         0         0         0
         0         0         0         0         0         0         0         0
         0         0         0         0         0         0         0         0
         0         0         0         0         0         0         0         0
         0         0         0         0         0         0         0         0
         0         0         0         0         0         0         0         0
         0         0         0         0         0         0         0         0
         0         0         0         0         0         0         0         0
         0         0         0         0         0         0         0         0
         0         0         0         0         0         0         0         0
         0         0         0         0         0         0         0         0
         0         0         0         0         0         0         0         0
         0         0         0         0         0         0         0         0
         0         0         0         0         0         0         0         0
         0         0         0         0         0         0         0         0
         0         0         0         0         0         0         0         0
         0         0         0         0         0         0         0         0
         0         0         0         0         0         0         0         0
         0         0         0         0         0         0         0         0
         0         0         0         0         0         0         0         0
         0         0         0         0         0         0         0         0
         0         0         0         0         0         0         0         0
         0         0         0         0         0         0         0         0
         0         0         0         0         0         0         0         0
         0         0         0         0         0         0         0         0
         0         0         0         0         0         0         0         0
         0         0         0         0         0         0         0         0
         0         0         0         0         0         0         0         0
         0         0         0         0         0         0         0         0
         0         0         0         0         0         0         0         0
         0         0         0         0         0         0         0         0
         0         0         0         0         0         0         0         0
         0         0         0         0         0         0         0         0
         0         0         0         0         0         0         0         0
         0         0         0         0         0         0         0         0
         0         0         0         0         0         0         0         0
         0         0         0         0         0         0         0         0
         0         0         0         0         0         0         0         0
         0         0         0         0         0         0         0         0
         0         0         0         0         0         0         0         0
         0         0         0         0         0         0         0         0
         0         0         0         0         0         0         0         0
         0         0         0         0         0         0         0         0
         0         0         0         0         0         0         0         0
         0         0         0         0         0         0         0         0
         0         0         0         0         0         0         0         0
         0         0         0         0         0         0         0         0
         0         0         0         0         0         0         0         0
         0         0         0         0         0         0         0         0
         0         0         0         0         0         0         0         0
         0         0         0         0         0         0         0         0
         0         0         0         0         0         0         0         0
         0         0         0         0         0         0         0         0
         0         0         0         0         0         0         0         0
         0         0         0         0         0         0         0         0
         0         0         0         0         0         0         0         0
         0         0         0         0         0         0         0         0
         0         0         0         0         0         0         0         0
         0         0         0         0         0         0         0         0
         0         0         0         0         0         0         0         0
         0         0         0         0         0         0         0         0
         0         0         0         0         0         0         0         0
         0         0         0         0         0         0         0         0
         0         0         0         0         0         0         0         0
         0         0         0         0         0         0         0         0
         0         0         0         0         0         0         0         0
         0         0         0         0         0         0         0         0
         0         0         0         0         0         0         0         0
         0         0         0         0         0         0         0         0
         0         0         0         0         0         0         0         0
         0         0         0         0         0         0         0         0
         0         0         0         0         0         0         0         0
         0         0         0         0         0         0         0         0
         0         0         0         0         0         0         0         0
         0         0         0         0         0         0         0         0
         0         0         0         0         0         0         0         0
         0         0         0         0         0         0         0         0
         0         0         0         0         0         0         0         0
         0         0         0         0         0         0         0         0
         0         0         0         0         0         0         0         0
         0         0         0         0         0         0         0         0
         0         0         0         0         0         0         0         0
         0         0         0         0         0         0         0         0
         0         0         0         0         0         0         0         0
         0         0         0         0         0         0         0         0
         0         0         0         0         0         0         0         0
         0         0         0         0         0         0         0         0
         0         0         0         0         0         0         0         0
         0         0         0         0         0         0         0         0
         0         0         0         0         0         0         0         0
         0         0         0         0         0         0         0         0
         0         0         0         0         0         0         0         0
         0         0         0         0         0         0         0         0
         0         0         0         0         0         0         0         0
         0         0         0         0         0         0         0         0
         0         0         0         0         0         0         0         0
         0         0         0         0         0         0         0         0
         0         0         0         0         0         0         0         0
         0         0         0         0         0         0         0         0
         0         0         0         0         0         0         0         0
         0         0         0         0         0         0         0         0
         0         0         0         0         0         0         0         0
         0         0         0         0         0         0         0         0
         0         0         0         0         0         0         0         0
         0         0         0         0         0         0         0         0
         0         0         0         0         0         0         0         0
         0         0         0         0         0         0         0         0
         0         0         0         0         0         0         0         0
         0         0         0         0         0         0         0         0
         0         0         0         0         0         0         0         0
         0         0         0         0         0         0         0         0
         0         0         0         0         0         0         0         0
         0         0         0         0         0         0         0         0
         0         0         0         0         0         0         0         0
         0         0         0         0         0         0         0         0
         0         0         0         0         0         0         0         0
         0         0         0         0         0         0         0         0
         0         0         0         0         0         0         0         0
         0         0         0         0         0         0         0         0
         0         0         0         0         0         0         0         0
         0         0         0         0         0         0         0         0
         0         0         0         0         0         0         0         0
         0         0         0         0         0         0         0         0
         0         0         0         0         0         0         0         0
         0         0         0         0         0         0         0         0
         0         0         0         0         0         0         0         0
         0         0         0         0         0         0         0         0
         0         0         0         0         0         0         0         0
         0         0         0         0         0         0         0         0
         0         0         0         0         0         0         0         0
         0         0         0         0         0         0         0         0
         0         0         0         0         0         0         0         0
         0         0         0         0         0         0         0         0
         0         0         0         0         0         0         0         0
         0         0         0         0         0         0         0         0
         0         0         0         0         0         0         0         0
         0         0         0         0         0         0         0         0
         0         0         0         0         0         0         0         0
         0         0         0         0         0         0         0         0
         0         0         0         0         0         0         0         0
         0         0         0         0         0         0         0         0
         0         0         0         0         0         0         0         0
         0         0         0         0         0         0         0         0
         0         0         0         0         0         0         0         0
         0         0         0         0         0         0         0         0
         0         0         0         0         0         0         0         0
         0         0         0         0         0         0         0         0
         0         0         0         0         0         0         0         0
         0         0         0         0         0         0         0         0
         0         0         0         0         0         0         0         0
         0         0         0         0         0         0         0         0
         0         0         0         0         0         0         0         0
         0         0         0         0         0         0         0         0
         0         0         0         0         0         0         0         0
         0         0         0         0         0         0         0         0
         0         0         0         0         0         0         0         0
         0         0         0         0         0         0         0         0
         0         0         0         0         0         0         0         0
         0         0         0         0         0         0         0         0
         0         0         0         0         0         0         0         0
         0         0         0         0         0         0         0         0
         0         0         0         0         0         0         0         0
         0         0         0         0         0         0         0         0
         0         0         0         0         0         0         0         0
         0         0         0         0         0         0         0         0
         0         0         0         0         0         0         0         0
         0         0         0         0         0         0         0         0
         0         0         0         0         0         0         0         0
         0         0         0         0         0         0         0         0
         0         0         0         0         0         0         0         0
         0         0         0         0         0         0         0         0
         0         0         0         0         0         0         0         0
         0         0         0         0         0         0         0         0
         0         0         0         0         0         0         0         0
         0         0         0         0         0         0         0         0
         0         0         0         0         0         0         0         0
         0         0         0         0         0         0         0         0
         0         0         0         0         0         0         0         0
         0         0         0         0         0         0         0         0
         0         0         0         0         0         0         0         0
         0         0         0         0         0         0         0         0
         0         0         0         0         0         0         0         0
         0         0         0         0         0         0         0         0
         0         0         0         0         0         0         0         0
         0         0         0         0         0         0         0         0
         0         0         0         0         0         0         0         0
         0         0         0         0         0         0         0         0
         0         0         0         0         0         0         0         0
         0         0         0         0         0         0         0         0
         0         0         0         0         0         0         0         0
         0         0         0         0         0         0         0         0
         0         0         0         0         0         0         0         0
         0         0         0         0         0         0         0         0
         0         0         0         0         0         0         0         0
         0         0         0         0         0         0         0         0
         0         0         0         0         0         0         0         0
         0         0         0         0         0         0         0         0
         0         0         0         0         0         0         0         0
         0         0         0         0         0         0         0         0
         0         0         0         0         0         0         0         0
         0         0         0         0         0         0         0         0
         0         0         0         0         0         0         0         0
         0         0         0         0         0         0         0         0
         0         0         0         0         0         0         0         0
         0         0         0         0         0         0         0         0
         0         0         0         0         0         0         0         0
         0         0         0         0         0         0         0         0
         0         0         0         0         0         0         0         0
         0         0         0         0         0         0         0         0
         0         0         0         0         0         0         0         0
         0         0         0         0         0         0         0         0
         0         0         0         0         0         0         0         0
         0         0         0         0         0         0         0         0
         0         0         0         0         0         0         0         0
         0         0         0         0         0         0         0         0
         0         0         0         0         0         0         0         0
         0         0         0         0         0         0         0         0
         0         0         0         0         0         0         0         0
         0         0         0         0         0         0         0         0
         0         0         0         0         0         0         0         0
         0         0         0         0         0         0         0         0
         0         0         0         0         0         0         0         0
         0         0         0         0         0         0         0         0
         0         0         0         0         0         0         0         0
         0         0         0         0         0         0         0         0
         0         0         0         0         0         0         0         0
         0         0         0         0         0         0         0         0
         0         0         0         0         0         0         0         0
         0         0         0         0         0         0         0         0
         0         0         0         0         0         0         0         0
         0         0         0         0         0         0         0         0
         0         0         0         0         0         0         0         0
         0         0         0         0         0         0         0         0
         0         0         0         0         0         0         0         0
         0         0         0         0         0         0         0         0
         0         0         0         0         0         0         0         0
         0         0         0         0         0         0         0         0
         0         0         0         0         0         0         0         0
         0         0         0         0         0         0         0         0
         0         0         0         0         0         0         0         0
         0         0         0         0         0         0         0         0
         0         0         0         0         0         0         0         0
         0         0         0         0         0         0         0         0
         0         0         0         0         0         0         0         0
         0         0         0         0         0         0         0         0
         0         0         0         0         0         0         0         0
         0         0         0         0         0         0         0         0
         0         0         0         0         0         0         0         0
         0         0         0         0         0         0         0         0
         0         0         0         0         0         0         0         0
         0         0         0         0         0         0         0         0
         0         0         0         0         0         0         0         0
         0         0         0         0         0         0         0         0
         0         0         0         0         0         0         0         0
         0         0         0         0         0         0         0         0
         0         0         0         0         0         0         0         0
         0         0         0         0         0         0         0         0
         0         0         0         0         0         0         0         0
         0         0         0         0         0         0         0         0
         0         0         0         0         0         0         0         0
         0         0         0         0         0         0         0         0
         0         0         0         0         0         0         0         0
         0         0         0         0         0         0         0         0
         0         0         0         0         0         0         0         0
         0         0         0         0         0         0         0         0
         0         0         0         0         0         0         0         0
         0         0         0         0         0         0         0         0
         0         0         0         0         0         0         0         0
         0         0         0         0         0         0         0         0
         0         0         0         0         0         0         0         0
         0         0         0         0         0         0         0         0
         0         0         0         0         0         0         0         0
         0         0         0         0         0         0         0         0
         0         0         0         0         0         0         0         0
         0         0         0         0         0         0         0         0
         0         0         0         0         0         0         0         0
         0         0         0         0         0         0         0         0
         0         0         0         0         0         0         0         0
         0         0         0         0         0         0         0         0
         0         0         0         0         0         0         0         0
         0         0         0         0         0         0         0         0
         0         0         0         0         0         0         0         0
         0         0         0         0         0         0         0         0
         0         0         0         0         0         0         0         0
         0         0         0         0         0         0         0         0
         0         0         0         0         0         0         0         0
         0         0         0         0         0         0         0         0
         0         0         0         0         0         0         0         0
         0         0         0         0         0         0         0         0
         0         0         0         0         0         0         0         0
         0         0         0         0         0         0         0         0
         0         0         0         0         0         0         0         0
         0         0         0         0         0         0         0         0
         0         0         0         0         0         0         0         0
         0         0         0         0         0         0         0         0
         0         0         0         0         0         0         0         0
         0         0         0         0         0         0         0         0
         0         0         0         0         0         0         0         0
         0         0         0         0         0         0         0         0
         0         0         0         0         0         0         0         0
         0         0         0         0         0         0         0         0
         0         0         0         0         0         0         0         0
         0         0         0         0         0         0         0         0
         0         0         0         0         0         0         0         0
         0         0         0         0         0         0         0         0
         0         0         0         0         0         0         0         0
         0         0         0         0         0         0         0         0
         0         0         0         0         0         0         0         0
         0         0         0         0         0         0         0         0
         0         0         0         0         0         0         0         0
         0         0         0         0         0         0         0         0
         0         0         0         0         0         0         0         0
         0         0         0         0         0         0         0         0
         0         0         0         0         0         0         0         0
         0         0         0         0         0         0         0         0
         0         0         0         0         0         0         0         0
         0         0         0         0         0         0         0         0
         0         0         0         0         0         0         0         0
         0         0         0         0         0         0         0         0
         0         0         0         0         0         0         0         0
         0         0         0         0         0         0         0         0
         0         0         0         0         0         0         0         0
         0         0         0         0         0         0         0         0
         0         0         0         0         0         0         0         0
         0         0         0         0         0         0         0         0
         0         0         0         0         0         0         0         0
         0         0         0         0         0         0         0         0
         0         0         0         0         0         0         0         0
         0         0         0         0         0         0         0         0
         0         0         0         0         0         0         0         0
         0         0         0         0         0         0         0         0
         0         0         0         0         0         0         0         0
         0         0         0         0         0         0         0         0
         0         0         0         0         0         0         0         0
         0         0         0         0         0         0         0         0
         0         0         0         0         0         0         0         0
         0         0         0         0         0         0         0         0
         0         0         0         0         0         0         0         0
         0         0         0         0         0         0         0         0
         0         0         0         0         0         0         0         0
         0         0         0         0         0         0         0         0
         0         0         0         0         0         0         0         0
         0         0         0         0         0         0         0         0
         0         0         0         0         0         0         0         0
         0         0         0         0         0         0         0         0
         0         0         0         0         0         0         0         0
         0         0         0         0         0         0         0         0
         0         0         0         0         0         0         0         0
         0         0         0         0         0         0         0         0
         0         0         0         0         0         0         0         0
         0         0         0         0         0         0         0         0
         0         0         0         0         0         0         0         0
         0         0         0         0         0         0         0         0
         0         0         0         0         0         0         0         0
         0         0         0         0         0         0         0         0
         0         0         0         0         0         0         0         0
         0         0         0         0         0         0         0         0
         0         0         0         0         0         0         0         0
         0         0         0         0         0         0         0         0
         0         0         0         0         0         0         0         0
         0         0         0         0         0         0         0         0
         0         0         0         0         0         0         0         0
         0         0         0         0         0         0         0         0
         0         0         0         0         0         0         0         0
         0         0         0         0         0         0         0         0
         0         0         0         0         0         0         0         0
         0         0         0         0         0         0         0         0
         0         0         0         0         0         0         0         0
         0         0         0         0         0         0         0         0
         0         0         0         0         0         0         0         0
         0         0         0         0         0         0         0         0
         0         0         0         0         0         0         0         0
         0         0         0         0         0         0         0         0
         0         0         0         0         0         0         0         0
         0         0         0         0         0         0         0         0
         0         0         0         0         0         0         0         0
         0         0         0         0         0         0         0         0
         0         0         0         0         0         0         0         0
         0         0         0         0         0         0         0         0
         0         0         0         0         0         0         0         0
         0         0         0         0         0         0         0         0
         0         0         0         0         0         0         0         0
         0         0         0         0         0         0         0         0
         0         0         0         0         0         0         0         0
         0         0         0         0         0         0         0         0
         0         0         0         0         0         0         0         0
         0         0         0         0         0         0         0         0
         0         0         0         0         0         0         0         0
         0         0         0         0         0         0         0         0
         0         0         0         0         0         0         0         0
         0         0         0         0         0         0         0         0
         0         0         0         0         0         0         0         0
         0         0         0         0         0         0         0         0
         0         0         0         0         0         0         0         0
         0         0         0         0         0         0         0         0
         0         0         0         0         0         0         0         0
         0         0         0         0         0         0         0         0
         0         0         0         0         0         0         0         0
         0         0         0         0         0         0         0         0
         0         0         0         0         0         0         0         0
         0         0         0         0         0         0         0         0
         0         0         0         0         0         0         0         0
         0         0         0         0         0         0         0         0
         0         0         0         0         0         0         0         0
         0         0         0         0         0         0         0         0
         0         0         0         0         0         0         0         0
         0         0         0         0         0         0         0         0
         0         0         0         0         0         0         0         0
         0         0         0         0         0         0         0         0
         0         0         0         0         0         0         0         0
         0         0         0         0         0         0         0         0
         0         0         0         0         0         0         0         0
         0         0         0         0         0         0         0         0
         0         0         0         0         0         0         0         0
         0         0         0         0         0         0         0         0
         0         0         0         0         0         0         0         0
         0         0         0         0         0         0         0         0
         0         0         0         0         0         0         0         0
         0         0         0         0         0         0         0         0
         0         0         0         0         0         0         0         0
         0         0         0         0         0         0         0         0
         0         0         0         0         0         0         0         0
         0         0         0         0         0         0         0         0
         0         0         0         0         0         0         0         0
         0         0         0         0         0         0         0         0
         0         0         0         0         0         0         0         0
         0         0         0         0         0         0         0         0
         0         0         0         0         0         0         0         0
         0         0         0         0         0         0         0         0
         0         0         0         0         0         0         0         0
         0         0         0         0         0         0         0         0
         0         0         0         0         0         0         0         0
         0         0         0         0         0         0         0         0
         0         0         0         0         0         0         0         0
         0         0         0         0         0         0         0         0
         0         0         0         0         0         0         0         0
         0         0         0         0         0         0         0         0
         0         0         0         0         0         0         0         0
         0         0         0         0         0         0         0         0
         0         0         0         0         0         0         0         0
         0         0         0         0         0         0         0         0
         0         0         0         0         0         0         0         0
         0         0         0         0         0         0         0         0
         0         0         0         0         0         0         0         0
         0         0         0         0         0         0         0         0
         0         0         0         0         0         0         0         0
         0         0         0         0         0         0         0         0
         0         0         0         0         0         0         0         0
         0         0         0         0         0         0         0         0
         0         0         0         0         0         0         0         0
         0         0         0         0         0         0         0         0
         0         0         0         0         0         0         0         0
         0         0         0         0         0         0         0         0
         0         0         0         0         0         0         0         0
         0         0         0         0         0         0         0         0
         0         0         0         0         0         0         0         0
         0         0         0         0         0         0         0         0
         0         0         0         0         0         0         0         0
         0         0         0         0         0         0         0         0
         0         0         0         0         0         0         0         0
         0         0         0         0         0         0         0         0
         0         0         0         0         0         0         0         0
         0         0         0         0         0         0         0         0
         0         0         0         0         0         0         0         0
         0         0         0         0         0         0         0         0
         0         0         0         0         0         0         0         0
         0         0         0         0         0         0         0         0
         0         0         0         0         0         0         0         0
         0         0         0         0         0         0         0         0
         0         0         0         0         0         0         0         0
         0         0         0         0         0         0         0         0
         0         0         0         0         0         0         0         0
         0         0         0         0         0         0         0         0
         0         0         0         0         0         0         0         0
         0         0         0         0         0         0         0         0
         0         0         0         0         0         0         0         0
         0         0         0         0         0         0         0         0
         0         0         0         0         0         0         0         0
         0         0         0         0         0         0         0         0
         0         0         0         0         0         0         0         0
         0         0         0         0         0         0         0         0
         0         0         0         0         0         0         0         0
         0         0         0         0         0         0         0         0
         0         0         0         0         0         0         0         0
         0         0         0         0         0         0         0         0
         0         0         0         0         0         0         0         0
         0         0         0         0         0         0         0         0
         0         0         0         0         0         0         0         0
         0         0         0         0         0         0         0         0
         0         0         0         0         0         0         0         0
         0         0         0         0         0         0         0         0
         0         0         0         0         0         0         0         0
         0         0         0         0         0         0         0         0
         0         0         0         0         0         0         0         0
         0         0         0         0         0         0         0         0
         0         0         0         0         0         0         0         0
         0         0         0         0         0         0         0         0
         0         0         0         0         0         0         0         0
         0         0         0         0         0         0         0         0
         0         0         0         0         0         0         0         0
         0         0         0         0         0         0         0         0
         0         0         0         0         0         0         0         0
         0         0         0         0         0         0         0         0
         0         0         0         0         0         0         0         0
         0         0         0         0         0         0         0         0
         0         0         0         0         0         0         0         0
         0         0         0         0         0         0         0         0
         0         0         0         0         0         0         0         0
         0         0         0         0         0         0         0         0
         0         0         0         0         0         0         0         0
         0         0         0         0         0         0         0         0
         0         0         0         0         0         0         0         0
         0         0         0         0         0         0         0         0
         0         0         0         0         0         0         0         0
         0         0         0         0         0         0         0         0
         0         0         0         0         0         0         0         0
         0         0         0         0         0         0         0         0
         0         0         0         0         0         0         0         0
         0         0         0         0         0         0         0         0
         0         0         0         0         0         0         0         0
         0         0         0         0         0         0         0         0
         0         0         0         0         0         0         0         0
         0         0         0         0         0         0         0         0
         0         0         0         0         0         0         0         0
         0         0         0         0         0         0         0         0
         0         0         0         0         0         0         0         0
         0         0         0         0         0         0         0         0
         0         0         0         0         0         0         0         0
         0         0         0         0         0         0         0         0
         0         0         0         0         0         0         0         0
         0         0         0         0         0         0         0         0
         0         0         0         0         0         0         0         0
         0         0         0         0         0         0         0         0
         0         0         0         0         0         0         0         0
         0         0         0         0         0         0         0         0
         0         0         0         0         0         0         0         0
         0         0         0         0         0         0         0         0
         0         0         0         0         0         0         0         0
         0         0         0         0         0         0         0         0
         0         0         0         0         0         0         0         0
         0         0         0         0         0         0         0         0
         0         0         0         0         0         0         0         0
         0         0         0         0         0         0         0         0
         0         0         0         0         0         0         0         0
         0         0         0         0         0         0         0         0
         0         0         0         0         0         0         0         0
         0         0         0         0         0         0         0         0
         0         0         0         0         0         0         0         0
         0         0         0         0         0         0         0         0
         0         0         0         0         0         0         0         0
         0         0         0         0         0         0         0         0
         0         0         0         0         0         0         0         0
         0         0         0         0         0         0         0         0
         0         0         0         0         0         0         0         0
         0         0         0         0         0         0         0         0
         0         0         0         0         0         0         0         0
         0         0         0         0         0         0         0         0
         0         0         0         0         0         0         0         0
         0         0         0         0         0         0         0         0
         0         0         0         0         0         0         0         0
         0         0         0         0         0         0         0         0
         0         0         0         0         0         0         0         0
         0         0         0         0         0         0         0         0
         0         0         0         0         0         0         0         0
         0         0         0         0         0         0         0         0
         0         0         0         0         0         0         0         0
         0         0         0         0         0         0         0         0
         0         0         0         0         0         0         0         0
         0         0         0         0         0         0         0         0
         0         0         0         0         0         0         0         0
         0         0         0         0         0         0         0         0
         0         0         0         0         0         0         0         0
         0         0         0         0         0         0         0         0
         0         0         0         0         0         0         0         0
         0         0         0         0         0         0         0         0
         0         0         0         0         0         0         0         0
         0         0         0         0         0         0         0         0
         0         0         0         0         0         0         0         0
         0         0         0         0         0         0         0         0
         0         0         0         0         0         0         0         0
         0         0         0         0         0         0         0         0
         0         0         0         0         0         0         0         0
         0         0         0         0         0         0         0         0
         0         0         0         0         0         0         0         0
         0         0         0         0         0         0         0         0
         0         0         0         0         0         0         0         0
         0         0         0         0         0         0         0         0
         0         0         0         0         0         0         0         0
         0         0         0         0         0         0         0         0
         0         0         0         0         0         0         0         0
         0         0         0         0         0         0         0         0
         0         0         0         0         0         0         0         0
         0         0         0         0         0         0         0         0
         0         0         0         0         0         0         0         0
         0         0         0         0         0         0         0         0
         0         0         0         0         0         0         0         0
         0         0         0         0         0         0         0         0
         0         0         0         0         0         0         0         0
         0         0         0         0         0         0         0         0
         0         0         0         0         0         0         0         0
         0         0         0         0         0         0         0         0
         0         0         0         0         0         0         0         0
         0         0         0         0         0         0         0         0
         0         0         0         0         0         0         0         0
         0         0         0         0         0         0         0         0
         0         0         0         0         0         0         0         0
         0         0         0         0         0         0         0         0
         0         0         0         0         0         0         0         0
         0         0         0         0         0         0         0         0
         0         0         0         0         0         0         0         0
         0         0         0         0         0         0         0         0
         0         0         0         0         0         0         0         0
         0         0         0         0         0         0         0         0
         0         0         0         0         0         0         0         0
         0         0         0         0         0         0         0         0
         0         0         0         0         0         0         0         0
         0         0         0         0         0         0         0         0
         0         0         0         0         0         0         0         0
         0         0         0         0         0         0         0         0
         0         0         0         0         0         0         0         0
         0         0         0         0         0         0         0         0
         0         0         0         0         0         0         0         0
         0         0         0         0         0         0         0         0
         0         0         0         0         0         0         0         0
         0         0         0         0         0         0         0         0
         0         0         0         0         0         0         0         0
         0         0         0         0         0         0         0         0
         0         0         0         0         0         0         0         0
         0         0         0         0         0         0         0         0
         0         0         0         0         0         0         0         0
         0         0         0         0         0         0         0         0
         0         0         0         0         0         0         0         0
         0         0         0         0         0         0         0         0
         0         0         0         0         0         0         0         0
         0         0         0         0         0         0         0         0
         0         0         0         0         0         0         0         0
         0         0         0         0         0         0         0         0
         0         0         0         0         0         0         0         0
         0         0         0         0         0         0         0         0
         0         0         0         0         0         0         0         0
         0         0         0         0         0         0         0         0
         0         0         0         0         0         0         0         0
         0         0         0         0         0         0         0         0
         0         0         0         0         0         0         0         0
         0         0         0         0         0         0         0         0
         0         0         0         0         0         0         0         0
         0         0         0         0         0         0         0         0
         0         0         0         0         0         0         0         0
         0         0         0         0         0         0         0         0
         0         0         0         0         0         0         0         0
         0         0         0         0         0         0         0         0
         0         0         0         0         0         0         0         0
         0         0         0         0         0         0         0         0
         0         0         0         0         0         0         0         0
         0         0         0         0         0         0         0         0
         0         0         0         0         0         0         0         0
         0         0         0         0         0         0         0         0
         0         0         0         0         0         0         0         0
         0         0         0         0         0         0         0         0
         0         0         0         0         0         0         0         0
         0         0         0         0         0         0         0         0
         0         0         0         0         0         0         0         0
         0         0         0         0         0         0         0         0
         0         0         0         0         0         0         0         0
         0         0         0         0         0         0         0         0
         0         0         0         0         0         0         0         0
         0         0         0         0         0         0         0         0
         0         0         0         0         0         0         0         0
         0         0         0         0         0         0         0         0
         0         0         0         0         0         0         0         0
         0         0         0         0         0         0         0         0
         0         0         0         0         0         0         0         0
         0         0         0         0         0         0         0         0
         0         0         0         0         0         0         0         0
         0         0         0         0         0         0         0         0
         0         0         0         0         0         0         0         0
         0         0         0         0         0         0         0         0
         0         0         0         0         0         0         0         0
         0         0         0         0         0         0         0         0
         0         0         0         0         0         0         0         0
         0         0         0         0         0         0         0         0
         0         0         0         0         0         0         0         0
         0         0         0         0         0         0         0         0
         0         0         0         0         0         0         0         0
         0         0         0         0         0         0         0         0
         0         0         0         0         0         0         0         0
         0         0         0         0         0         0         0         0
         0         0         0         0         0         0         0         0
         0         0         0         0         0         0         0         0
         0         0         0         0         0         0         0         0
         0         0         0         0         0         0         0         0
         0         0         0         0         0         0         0         0
         0         0         0         0         0         0         0         0
         0         0         0         0         0         0         0         0
         0         0         0         0         0         0         0         0
         0         0         0         0         0         0         0         0
         0         0         0         0         0         0         0         0
         0         0         0         0         0         0         0         0
         0         0         0         0         0         0         0         0
         0         0         0         0         0         0         0         0
         0         0         0         0         0         0         0         0
         0         0         0         0         0         0         0         0
         0         0         0         0         0         0         0         0
         0         0         0         0         0         0         0         0
         0         0         0         0         0         0         0         0
         0         0         0         0         0         0         0         0
         0         0         0         0         0         0         0         0
         0         0         0         0         0         0         0         0
         0         0         0         0         0         0         0         0
         0         0         0         0         0         0         0         0
         0         0         0         0         0         0         0         0
         0         0         0         0         0         0         0         0
         0         0         0         0         0         0         0         0
         0         0         0         0         0         0         0         0
         0         0         0         0         0         0         0         0
         0         0         0         0         0         0         0         0
         0         0         0         0         0         0         0         0
         0         0         0         0         0         0         0         0
         0         0         0         0         0         0         0         0
         0         0         0         0         0         0         0         0
         0         0         0         0         0         0         0         0
         0         0         0         0         0         0         0         0
         0         0         0         0         0         0         0         0
         0         0         0         0         0         0         0         0
         0         0         0         0         0         0         0         0
         0         0         0         0         0         0         0         0
         0         0         0         0         0         0         0         0
         0         0         0         0         0         0         0         0
         0         0         0         0         0         0         0         0
         0         0         0         0         0         0         0         0
         0         0         0         0         0         0         0         0
         0         0         0         0         0         0         0         0
         0         0         0         0         0         0         0         0
         0         0         0         0         0         0         0         0
         0         0         0         0         0         0         0         0
         0         0         0         0         0         0         0         0
         0         0         0         0         0         0         0         0
         0         0         0         0         0         0         0         0
         0         0         0         0         0         0         0         0
         0         0         0         0         0         0         0         0
         0         0         0         0         0         0         0         0
         0         0         0         0         0         0         0         0
         0         0         0         0         0         0         0         0
         0         0         0         0         0         0         0         0
         0         0         0         0         0         0         0         0
         0         0         0         0         0         0         0         0
         0         0         0         0         0         0         0         0
         0         0         0         0         0         0         0         0
         0         0         0         0         0         0         0         0
         0         0         0         0         0         0         0         0
         0         0         0         0         0         0         0         0
         0         0         0         0         0         0         0         0
         0         0         0         0         0         0         0         0
         0         0         0         0         0         0         0         0
         0         0         0         0         0         0         0         0
         0         0         0         0         0         0         0         0
         0         0         0         0         0         0         0         0
         0         0         0         0         0         0         0         0
         0         0         0         0         0         0         0         0
         0         0         0         0         0         0         0         0
         0         0         0         0         0         0         0         0
         0         0         0         0         0         0         0         0
         0         0         0         0         0         0         0         0
         0         0         0         0         0         0         0         0
         0         0         0         0         0         0         0         0
         0         0         0         0         0         0         0         0
         0         0         0         0         0         0         0         0
         0         0         0         0         0         0         0         0
         0         0         0         0         0         0         0         0
         0         0         0         0         0         0         0         0
         0         0         0         0         0         0         0         0
         0         0         0         0         0         0         0         0
         0         0         0         0         0         0         0         0
         0         0         0         0         0         0         0         0
         0         0         0         0         0         0         0         0
         0         0         0         0         0         0         0         0
         0         0         0         0         0         0         0         0
         0         0         0         0         0         0         0         0
         0         0         0         0         0         0         0         0
         0         0         0         0         0         0         0         0
         0         0         0         0         0         0         0         0
         0         0         0         0         0         0         0         0
         0         0         0         0         0         0         0         0
         0         0         0         0         0         0         0         0
         0         0         0         0         0         0         0         0
         0         0         0         0         0         0         0         0
         0         0         0         0         0         0         0         0
         0         0         0         0         0         0         0         0
         0         0         0         0         0         0         0         0
         0         0         0         0         0         0         0         0
         0         0         0         0         0         0         0         0
         0         0         0         0         0         0         0         0
         0         0         0         0         0         0         0         0
         0         0         0         0         0         0         0         0
         0         0         0         0         0         0         0         0
         0         0         0         0         0         0         0         0
         0         0         0         0         0         0         0         0
         0         0         0         0         0         0         0         0
         0         0         0         0         0         0         0         0
         0         0         0         0         0         0         0         0
         0         0         0         0         0         0         0         0
         0         0         0         0         0         0         0         0
         0         0         0         0         0         0         0         0
         0         0         0         0         0         0         0         0
         0         0         0         0         0         0         0         0
         0         0         0         0         0         0         0         0
         0         0         0         0         0         0         0         0
         0         0         0         0         0         0         0         0
         0         0         0         0         0         0         0         0
         0         0         0         0         0         0         0         0
         0         0         0         0         0         0         0         0
         0         0         0         0         0         0         0         0
         0         0         0         0         0         0         0         0
         0         0         0         0         0         0         0         0
         0         0         0         0         0         0         0         0
         0         0         0         0         0         0         0         0
         0         0         0         0         0         0         0         0
         0         0         0         0         0         0         0         0
         0         0         0         0         0         0         0         0
         0         0         0         0         0         0         0         0
         0         0         0         0         0         0         0         0
         0         0         0         0         0         0         0         0
         0         0         0         0         0         0         0         0
         0         0         0         0         0         0         0         0
         0         0         0         0         0         0         0         0
         0         0         0         0         0         0         0         0
         0         0         0         0         0         0         0         0
         0         0         0         0         0         0         0         0
         0         0         0         0         0         0         0         0
         0         0         0         0         0         0         0         0
         0         0         0         0         0         0         0         0
         0         0         0         0         0         0         0         0
         0         0         0         0         0         0         0         0
         0         0         0         0         0         0         0         0
         0         0         0         0         0         0         0         0
         0         0         0         0         0         0         0         0
         0         0         0         0         0         0         0         0
         0         0         0         0         0         0         0         0
         0         0         0         0         0         0         0         0
         0         0         0         0         0         0         0         0
         0         0         0         0         0         0         0         0
         0         0         0         0         0         0         0         0
         0         0         0         0         0         0         0         0
         0         0         0         0         0         0         0         0
         0         0         0         0         0         0         0         0
         0         0         0         0         0         0         0         0
         0         0         0         0         0         0         0         0
         0         0         0         0         0         0         0         0
         0         0         0         0         0         0         0         0
         0         0         0         0         0         0         0         0
         0         0         0         0         0         0         0         0
         0         0         0         0         0         0         0         0
         0         0         0         0         0         0         0         0
         0         0         0         0         0         0         0         0
         0         0         0         0         0         0         0         0
         0         0         0         0         0         0         0         0
         0         0         0         0         0         0         0         0
         0         0         0         0         0         0         0         0
         0         0         0         0         0         0         0         0
         0         0         0         0         0         0         0         0
         0         0         0         0         0         0         0         0
         0         0         0         0         0         0         0         0
         0         0         0         0         0         0         0         0
         0         0         0         0         0         0         0         0
         0         0         0         0         0         0         0         0
         0         0         0         0         0         0         0         0
         0         0         0         0         0         0         0         0
         0         0         0         0         0         0         0         0
         0         0         0         0         0         0         0         0
         0         0         0         0         0         0         0         0
         0         0         0         0         0         0         0         0
         0         0         0         0         0         0         0         0
         0         0         0         0         0         0         0         0
         0         0         0         0         0         0         0         0
         0         0         0         0         0         0         0         0
         0         0         0         0         0         0         0         0
         0         0         0         0         0         0         0         0
         0         0         0         0         0         0         0         0
         0         0         0         0         0         0         0         0
         0         0         0         0         0         0         0         0
         0         0         0         0         0         0         0         0
         0         0         0         0         0         0         0         0
         0         0         0         0         0         0         0         0
         0         0         0         0         0         0         0         0
         0         0         0         0         0         0         0         0
         0         0         0         0         0         0         0         0
         0         0         0         0         0         0         0         0
         0         0         0         0         0         0         0         0
         0         0         0         0         0         0         0         0
         0         0         0         0         0         0         0         0
         0         0         0         0         0         0         0         0
         0         0         0         0         0         0         0         0
         0         0         0         0         0         0         0         0
         0         0         0         0         0         0         0         0
         0         0         0         0         0         0         0         0
         0         0         0         0         0         0         0         0
         0         0         0         0         0         0         0         0
         0         0         0         0         0         0         0         0
         0         0         0         0         0         0         0         0
         0         0         0         0         0         0         0         0
         0         0         0         0         0         0         0         0
         0         0         0         0         0         0         0         0
         0         0         0         0         0         0         0         0
         0         0         0         0         0         0         0         0
         0         0         0         0         0         0         0         0
         0         0         0         0         0         0         0         0
         0         0         0         0         0         0         0         0
         0         0         0         0         0         0         0         0
         0         0         0         0         0         0         0         0
         0         0         0         0         0         0         0         0
         0         0         0         0         0         0         0         0
         0         0         0         0         0         0         0         0
         0         0         0         0         0         0         0         0
         0         0         0         0         0         0         0         0
         0         0         0         0         0         0         0         0
         0         0         0         0         0         0         0         0
         0         0         0         0         0         0         0         0
         0         0         0         0         0         0         0         0
         0         0         0         0         0         0         0         0
         0         0         0         0         0         0         0         0
         0         0         0         0         0         0         0         0
         0         0         0         0         0         0         0         0
         0         0         0         0         0         0         0         0
         0         0         0         0         0         0         0         0
         0         0         0         0         0         0         0         0
         0         0         0         0         0         0         0         0
         0         0         0         0         0         0         0         0
         0         0         0         0         0         0         0         0
         0         0         0         0         0         0         0         0
         0         0         0         0         0         0         0         0
         0         0         0         0         0         0         0         0
         0         0         0         0         0         0         0         0
         0         0         0         0         0         0         0         0
         0         0         0         0         0         0         0         0
         0         0         0         0         0         0         0         0
         0         0         0         0         0         0         0         0
         0         0         0         0         0         0         0         0
         0         0         0         0         0         0         0         0
         0         0         0         0         0         0         0         0
         0         0         0         0         0         0         0         0
         0         0         0         0         0         0         0         0
         0         0         0         0         0         0         0         0
         0         0         0         0         0         0         0         0
         0         0         0         0         0         0         0         0
         0         0         0         0         0         0         0         0
         0         0         0         0         0         0         0         0
         0         0         0         0         0         0         0         0
         0         0         0         0         0         0         0         0
         0         0         0         0         0         0         0         0
         0         0         0         0         0         0         0         0
         0         0         0         0         0         0         0         0
         0         0         0         0         0         0         0         0
         0         0         0         0         0         0         0         0
         0         0         0         0         0         0         0         0
         0         0         0         0         0         0         0         0
         0         0         0         0         0         0         0         0
         0         0         0         0         0         0         0         0
         0         0         0         0         0         0         0         0
         0         0         0         0         0         0         0         0
         0         0         0         0         0         0         0         0
         0         0         0         0         0         0         0         0
         0         0         0         0         0         0         0         0
         0         0         0         0         0         0         0         0
         0         0         0         0         0         0         0         0
         0         0         0         0         0         0         0         0
         0         0         0         0         0         0         0         0
         0         0         0         0         0         0         0         0
         0         0         0         0         0         0         0         0
         0         0         0         0         0         0         0         0
         0         0         0         0         0         0         0         0
         0         0         0         0         0         0         0         0
         0         0         0         0         0         0         0         0
         0         0         0         0         0         0         0         0
         0         0         0         0         0         0         0         0
         0         0         0         0         0         0         0         0
         0         0         0         0         0         0         0         0
         0         0         0         0         0         0         0         0
         0         0         0         0         0         0         0         0
         0         0         0         0         0         0         0         0
         0         0         0         0         0         0         0         0
         0         0         0         0         0         0         0         0
         0         0         0         0         0         0         0         0
         0         0         0         0         0         0         0         0
         0         0         0         0         0         0         0         0
         0         0         0         0         0         0         0         0
         0         0         0         0         0         0         0         0
         0         0         0         0         0         0         0         0
         0         0         0         0         0         0         0         0
         0         0         0         0         0         0         0         0
         0         0         0         0         0         0         0         0
         0         0         0         0         0         0         0         0
         0         0         0         0         0         0         0         0
         0         0         0         0         0         0         0         0
         0         0         0         0         0         0         0         0
         0         0         0         0         0         0         0         0
         0         0         0         0         0         0         0         0
         0         0         0         0         0         0         0         0
         0         0         0         0         0         0         0         0
         0         0         0         0         0         0         0         0
         0         0         0         0         0         0         0         0
         0         0         0         0         0         0         0         0
         0         0         0         0         0         0         0         0
         0         0         0         0         0         0         0         0
         0         0         0         0         0         0         0         0
         0         0         0         0         0         0         0         0
         0         0         0         0         0         0         0         0
         0         0         0         0         0         0         0         0
         0         0         0         0         0         0         0         0
         0         0         0         0         0         0         0         0
         0         0         0         0         0         0         0         0
         0         0         0         0         0         0         0         0
         0         0         0         0         0         0         0         0
         0         0         0         0         0         0         0         0
         0         0         0         0         0         0         0         0
         0         0         0         0         0         0         0         0
         0         0         0         0         0         0         0         0
         0         0         0         0         0         0         0         0
         0         0         0         0         0         0         0         0
         0         0         0         0         0         0         0         0
         0         0         0         0         0         0         0         0
         0         0         0         0         0         0         0         0
         0         0         0         0         0         0         0         0
         0         0         0         0         0         0         0         0
         0         0         0         0         0         0         0         0
         0         0         0         0         0         0         0         0
         0         0         0         0         0         0         0         0
         0         0         0         0         0         0         0         0
         0         0         0         0         0         0         0         0
         0         0         0         0         0         0         0         0
         0         0         0         0         0         0         0         0
         0         0         0         0         0         0         0         0
         0         0         0         0         0         0         0         0
         0         0         0         0         0         0         0         0
         0         0         0         0         0         0         0         0
         0         0         0         0         0         0         0         0
         0         0         0         0         0         0         0         0
         0         0         0         0         0         0         0         0
         0         0         0         0         0         0         0         0
         0         0         0         0         0         0         0         0
         0         0         0         0         0         0         0         0
         0         0         0         0         0         0         0         0
         0         0         0         0         0         0         0         0
         0         0         0         0         0         0         0         0
         0         0         0         0         0         0         0         0
         0         0         0         0         0         0         0         0
         0         0         0         0         0         0         0         0
         0         0         0         0         0         0         0         0
         0         0         0         0         0         0         0         0
         0         0         0         0         0         0         0         0
         0         0         0         0         0         0         0         0
         0         0         0         0         0         0         0         0
         0         0         0         0         0         0         0         0
         0         0         0         0         0         0         0         0
         0         0         0         0         0         0         0         0
         0         0         0         0         0         0         0         0
         0         0         0         0         0         0         0         0
         0         0         0         0         0         0         0         0
         0         0         0         0         0         0         0         0
         0         0         0         0         0         0         0         0
         0         0         0         0         0         0         0         0
         0         0         0         0         0         0         0         0
         0         0         0         0         0         0         0         0
         0         0         0         0         0         0         0         0
         0         0         0         0         0         0         0         0
         0         0         0         0         0         0         0         0
         0         0         0         0         0         0         0         0
         0         0         0         0         0         0         0         0
         0         0         0         0         0         0         0         0
         0         0         0         0         0         0         0         0
         0         0         0         0         0         0         0         0
         0         0         0         0         0         0         0         0
         0         0         0         0         0         0         0         0
         0         0         0         0         0         0         0         0
         0         0         0         0         0         0         0         0
         0         0         0         0         0         0         0         0
         0         0         0         0         0         0         0         0
         0         0         0         0         0         0         0         0
         0         0         0         0         0         0         0         0
         0         0         0         0         0         0         0         0
         0         0         0         0         0         0         0         0
         0         0         0         0         0         0         0         0
         0         0         0         0         0         0         0         0
         0         0         0         0         0         0         0         0
         0         0         0         0         0         0         0         0
         0         0         0         0         0         0         0         0
         0         0         0         0         0         0         0         0
         0         0         0         0         0         0         0         0
         0         0         0         0         0         0         0         0
         0         0         0         0         0         0         0         0
         0         0         0         0         0         0         0         0
         0         0         0         0         0         0         0         0
         0         0         0         0         0         0         0         0
         0         0         0         0         0         0         0         0
         0         0         0         0         0         0         0         0
         0         0         0         0         0         0         0         0
         0         0         0         0         0         0         0         0
         0         0         0         0         0         0         0         0
         0         0         0         0         0         0         0         0
         0         0         0         0         0         0         0         0
         0         0         0         0         0         0         0         0
         0         0         0         0         0         0         0         0
         0         0         0         0         0         0         0         0
         0         0         0         0         0         0         0         0
         0         0         0         0         0         0         0         0
         0         0         0         0         0         0         0         0
         0         0         0         0         0         0         0         0
         0         0         0         0         0         0         0         0
         0         0         0         0         0         0         0         0
         0         0         0         0         0         0         0         0
         0         0         0         0         0         0         0         0
         0         0         0         0         0         0         0         0
         0         0         0         0         0         0         0         0
         0         0         0         0         0         0         0         0
         0         0         0         0         0         0         0         0
         0         0         0         0         0         0         0         0
         0         0         0         0         0         0         0         0
         0         0         0         0         0         0         0         0
         0         0         0         0         0         0         0         0
         0         0         0         0         0         0         0         0
         0         0         0         0         0         0         0         0
         0         0         0         0         0         0         0         0
         0         0         0         0         0         0         0         0
         0         0         0         0         0         0         0         0
         0         0         0         0         0         0         0         0
         0         0         0         0         0         0         0         0
         0         0         0         0         0         0         0         0
         0         0         0         0         0         0         0         0
         0         0         0         0         0         0         0         0
         0         0         0         0         0         0         0         0
         0         0         0         0         0         0         0         0
         0         0         0         0         0         0         0         0
         0         0         0         0         0         0         0         0
         0         0         0         0         0         0         0         0
         0         0         0         0         0         0         0         0
         0         0         0         0         0         0         0         0
         0         0         0         0         0         0         0         0
         0         0         0         0         0         0         0         0
         0         0         0         0         0         0         0         0
         0         0         0         0         0         0         0         0
         0         0         0         0         0         0         0         0
         0         0         0         0         0         0         0         0
         0         0         0         0         0         0         0         0
         0         0         0         0         0         0         0         0
         0         0         0         0         0         0         0         0
         0         0         0         0         0         0         0         0
         0         0         0         0         0         0         0         0
         0         0         0         0         0         0         0         0
         0         0         0         0         0         0         0         0
         0         0         0         0         0         0         0         0
         0         0         0         0         0         0         0         0
         0         0         0         0         0         0         0         0
         0         0         0         0         0         0         0         0
         0         0         0         0         0         0         0         0
         0         0         0         0         0         0         0         0
         0         0         0         0         0         0         0         0
         0         0         0         0         0         0         0         0
         0         0         0         0         0         0         0         0
         0         0         0         0         0         0         0         0
         0         0         0         0         0         0         0         0
         0         0         0         0         0         0         0         0
         0         0         0         0         0         0         0         0
         0         0         0         0         0         0         0         0
         0         0         0         0         0         0         0         0
         0         0         0         0         0         0         0         0
         0         0         0         0         0         0         0         0
         0         0         0         0         0         0         0         0
         0         0         0         0         0         0         0         0
         0         0         0         0         0         0         0         0
         0         0         0         0         0         0         0         0
         0         0         0         0         0         0         0         0
         0         0         0         0         0         0         0         0
         0         0         0         0         0         0         0         0
         0         0         0         0         0         0         0         0
         0         0         0         0         0         0         0         0
         0         0         0         0         0         0         0         0
         0         0         0         0         0         0         0         0
         0         0         0         0         0         0         0         0
         0         0         0         0         0         0         0         0
         0         0         0         0         0         0         0         0
         0         0         0         0         0         0         0         0
         0         0         0         0         0         0         0         0
         0         0         0         0         0         0         0         0
         0         0         0         0         0         0         0         0
         0         0         0         0         0         0         0         0
         0         0         0         0         0         0         0         0
         0         0         0         0         0         0         0         0
         0         0         0         0         0         0         0         0
         0         0         0         0         0         0         0         0
         0         0         0         0         0         0         0         0
         0         0         0         0         0         0         0         0
         0         0         0         0         0         0         0         0
         0         0         0         0         0         0         0         0
         0         0         0         0         0         0         0         0
         0         0         0         0         0         0         0         0
         0         0         0         0         0         0         0         0
         0         0         0         0         0         0         0         0
         0         0         0         0         0         0         0         0
         0         0         0         0         0         0         0         0
         0         0         0         0         0         0         0         0
         0         0         0         0         0         0         0         0
         0         0         0         0         0         0         0         0
         0         0         0         0         0         0         0         0
         0         0         0         0         0         0         0         0
         0         0         0         0         0         0         0         0
         0         0         0         0         0         0         0         0
         0         0         0         0         0         0         0         0
         0         0         0         0         0         0         0         0
         0         0         0         0         0         0         0         0
         0         0         0         0         0         0         0         0
         0         0         0         0         0         0         0         0
         0         0         0         0         0         0         0         0
         0         0         0         0         0         0         0         0
         0         0         0         0         0         0         0         0
         0         0         0         0         0         0         0         0
         0         0         0         0         0         0         0         0
         0         0         0         0         0         0         0         0
         0         0         0         0         0         0         0         0
         0         0         0         0         0         0         0         0
         0         0         0         0         0         0         0         0
         0         0         0         0         0         0         0         0
         0         0         0         0         0         0         0         0
         0         0         0         0         0         0         0         0
         0         0         0         0         0         0         0         0
         0         0         0         0         0         0         0         0
         0         0         0         0         0         0         0         0
         0         0         0         0         0         0         0         0
         0         0         0         0         0         0         0         0
         0         0         0         0         0         0         0         0
         0         0         0         0         0         0         0         0
         0         0         0         0         0         0         0         0
         0         0         0         0         0         0         0         0
         0         0         0         0         0         0         0         0
         0         0         0         0         0         0         0         0
         0         0         0         0         0         0         0         0
         0         0         0         0         0         0         0         0
         0         0         0         0         0         0         0         0
         0         0         0         0         0         0         0         0
         0         0         0         0         0         0         0         0
         0         0         0         0         0         0         0         0
         0         0         0         0         0         0         0         0
         0         0         0         0         0         0         0         0
         0         0         0         0         0         0         0         0
         0         0         0         0         0         0         0         0
         0         0         0         0         0         0         0         0
         0         0         0         0         0         0         0         0
         0         0         0         0         0         0         0         0
         0         0         0         0         0         0         0         0
         0         0         0         0         0         0         0         0
         0         0         0         0         0         0         0         0
         0         0         0         0         0         0         0         0
         0         0         0         0         0         0         0         0
         0         0         0         0         0         0         0         0
         0         0         0         0         0         0         0         0
         0         0         0         0         0         0         0         0
         0         0         0         0         0         0         0         0
         0         0         0         0         0         0         0         0
         0         0         0         0         0         0         0         0
         0         0         0         0         0         0         0         0
         0         0         0         0         0         0         0         0
         0         0         0         0         0         0         0         0
         0         0         0         0         0         0         0         0
         0         0         0         0         0         0         0         0
         0         0         0         0         0         0         0         0
         0         0         0         0         0         0         0         0
         0         0         0         0         0         0         0         0
         0         0         0         0         0         0         0         0
         0         0         0         0         0         0         0         0
         0         0         0         0         0         0         0         0
         0         0         0         0         0         0         0         0
         0         0         0         0         0         0         0         0
         0         0         0         0         0         0         0         0
         0         0         0         0         0         0         0         0
         0         0         0         0         0         0         0         0
         0         0         0         0         0         0         0         0
         0         0         0         0         0         0         0         0
         0         0         0         0         0         0         0         0
         0         0         0         0         0         0         0         0
         0         0         0         0         0         0         0         0
         0         0         0         0         0         0         0         0
         0         0         0         0         0         0         0         0
         0         0         0         0         0         0         0         0
         0         0         0         0         0         0         0         0
         0         0         0         0         0         0         0         0
         0         0         0         0         0         0         0         0
         0         0         0         0         0         0         0         0
         0         0         0         0         0         0         0         0
         0         0         0         0         0         0         0         0
         0         0         0         0         0         0         0         0
         0         0         0         0         0         0         0         0
         0         0         0         0         0         0         0         0
         0         0         0         0         0         0         0         0
         0         0         0         0         0         0         0         0
         0         0         0         0         0         0         0         0
         0         0         0         0         0         0         0         0
         0         0         0         0         0         0         0         0
         0         0         0         0         0         0         0         0
         0         0         0         0         0         0         0         0
         0         0         0         0         0         0         0         0
         0         0         0         0         0         0         0         0
         0         0         0         0         0         0         0         0
         0         0         0         0         0         0         0         0
         0         0         0         0         0         0         0         0
         0         0         0         0         0         0         0         0
         0         0         0         0         0         0         0         0
         0         0         0         0         0         0         0         0
         0         0         0         0         0         0         0         0
         0         0         0         0         0         0         0         0
         0         0         0         0         0         0         0         0
         0         0         0         0         0         0         0         0
         0         0         0         0         0         0         0         0
         0         0         0         0         0         0         0         0
         0         0         0         0         0         0         0         0
         0         0         0         0         0         0         0         0
         0         0         0         0         0         0         0         0
         0         0         0         0         0         0         0         0
         0         0         0         0         0         0         0         0
         0         0         0         0         0         0         0         0
         0         0         0         0         0         0         0         0
         0         0         0         0         0         0         0         0
         0         0         0         0         0         0         0         0
         0         0         0         0         0         0         0         0
         0         0         0         0         0         0         0         0
         0         0         0         0         0         0         0         0
         0         0         0         0         0         0         0         0
         0         0         0         0         0         0         0         0
         0         0         0         0         0         0         0         0
         0         0         0         0         0         0         0         0
         0         0         0         0         0         0         0         0
         0         0         0         0         0         0         0         0
         0         0         0         0         0         0         0         0
         0         0         0         0         0         0         0         0
         0         0         0         0         0         0         0         0
         0         0         0         0         0         0         0         0
         0         0         0         0         0         0         0         0
         0         0         0         0         0         0         0         0
         0         0         0         0         0         0         0         0
         0         0         0         0         0         0         0         0
         0         0         0         0         0         0         0         0
         0         0         0         0         0         0         0         0
         0         0         0         0         0         0         0         0
         0         0         0         0         0         0         0         0
         0         0         0         0         0         0         0         0
         0         0         0         0         0         0         0         0
         0         0         0         0         0         0         0         0
         0         0         0         0         0         0         0         0
         0         0         0         0         0         0         0         0
         0         0         0         0         0         0         0         0
         0         0         0         0         0         0         0         0
         0         0         0         0         0         0         0         0
         0         0         0         0         0         0         0         0
         0         0         0         0         0         0         0         0
         0         0         0         0         0         0         0         0
         0         0         0         0         0         0         0         0
         0         0         0         0         0         0         0         0
         0         0         0         0         0         0         0         0
         0         0         0         0         0         0         0         0
         0         0         0         0         0         0         0         0
         0         0         0         0         0         0         0         0
         0         0         0         0         0         0         0         0
         0         0         0         0         0         0         0         0
         0         0         0         0         0         0         0         0
         0         0         0         0         0         0         0         0
         0         0         0         0         0         0         0         0
         0         0         0         0         0         0         0         0
         0         0         0         0         0         0         0         0
         0         0         0         0         0         0         0         0
         0         0         0         0         0         0         0         0
         0         0         0         0         0         0         0         0
         0         0         0         0         0         0         0         0
         0         0         0         0         0         0         0         0
         0         0         0         0         0         0         0         0
         0         0         0         0         0         0         0         0
         0         0         0         0         0         0         0         0
         0         0         0         0         0         0         0         0
         0         0         0         0         0         0         0         0
         0         0         0         0         0         0         0         0
         0         0         0         0         0         0         0         0
         0         0         0         0         0         0         0         0
         0         0         0         0         0         0         0         0
         0         0         0         0         0         0         0         0
         0         0         0         0         0         0         0         0
         0         0         0         0         0         0         0         0
         0         0         0         0         0         0         0         0
         0         0         0         0         0         0         0         0
         0         0         0         0         0         0         0         0
         0         0         0         0         0         0         0         0
         0         0         0         0         0         0         0         0
         0         0         0         0         0         0         0         0
         0         0         0         0         0         0         0         0
         0         0         0         0         0         0         0         0
         0         0         0         0         0         0         0         0
         0         0         0         0         0         0         0         0
         0         0         0         0         0         0         0         0
         0         0         0         0         0         0         0         0
         0         0         0         0         0         0         0         0
         0         0         0         0         0         0         0         0
         0         0         0         0         0         0         0         0
         0         0         0         0         0         0         0         0
         0         0         0         0         0         0         0         0
         0         0         0         0         0         0         0         0
         0         0         0         0         0         0         0         0
         0         0         0         0         0         0         0         0
         0         0         0         0         0         0         0         0
         0         0         0         0         0         0         0         0
         0         0         0         0         0         0         0         0
         0         0         0         0         0         0         0         0
         0         0         0         0         0         0         0         0
         0         0         0         0         0         0         0         0
         0         0         0         0         0         0         0         0
         0         0         0         0         0         0         0         0
         0         0         0         0         0         0         0         0
         0         0         0         0         0         0         0         0
         0         0         0         0         0         0         0         0
         0         0         0         0         0         0         0         0
         0         0         0         0         0         0         0         0
         0         0         0         0         0         0         0         0
         0         0         0         0         0         0         0         0
         0         0         0         0         0         0         0         0
         0         0         0         0         0         0         0         0
         0         0         0         0         0         0         0         0
         0         0         0         0         0         0         0         0
         0         0         0         0         0         0         0         0
         0         0         0         0         0         0         0         0
         0         0         0         0         0         0         0         0
         0         0         0         0         0         0         0         0
         0         0         0         0         0         0         0         0
         0         0         0         0         0         0         0         0
         0         0         0         0         0         0         0         0
         0         0         0         0         0         0         0         0
         0         0         0         0         0         0         0         0
         0         0         0         0         0         0         0         0
         0         0         0         0         0         0         0         0
         0         0         0         0         0         0         0         0
         0         0         0         0         0         0         0         0
         0         0         0         0         0         0         0         0
         0         0         0         0         0         0         0         0
         0         0         0         0         0         0         0         0
         0         0         0         0         0         0         0         0
         0         0         0         0         0         0         0         0
         0         0         0         0         0         0         0         0
         0         0         0         0         0         0         0         0
         0         0         0         0         0         0         0         0
         0         0         0         0         0         0         0         0
         0         0         0         0         0         0         0         0
         0         0         0         0         0         0         0         0
         0         0         0         0         0         0         0         0
         0         0         0         0         0         0         0         0
         0         0         0         0         0         0         0         0
         0         0         0         0         0         0         0         0
         0         0         0         0         0         0         0         0
         0         0         0         0         0         0         0         0
         0         0         0         0         0         0         0         0
         0         0         0         0         0         0         0         0
         0         0         0         0         0         0         0         0
         0         0         0         0         0         0         0         0
         0         0         0         0         0         0         0         0
         0         0         0         0         0         0         0         0
         0         0         0         0         0         0         0         0
         0         0         0         0         0         0         0         0
         0         0         0         0         0         0         0         0
         0         0         0         0         0         0         0         0
         0         0         0         0         0         0         0         0
         0         0         0         0         0         0         0         0
         0         0         0         0         0         0         0         0
         0         0         0         0         0         0         0         0
         0         0         0         0         0         0         0         0
         0         0         0         0         0         0         0         0
         0         0         0         0         0         0         0         0
         0         0         0         0         0         0         0         0
         0         0         0         0         0         0         0         0
         0         0         0         0         0         0         0         0
         0         0         0         0         0         0         0         0
         0         0         0         0         0         0         0         0
         0         0         0         0         0         0         0         0
         0         0         0         0         0         0         0         0
         0         0         0         0         0         0         0         0
         0         0         0         0         0         0         0         0
         0         0         0         0         0         0         0         0
         0         0         0         0         0         0         0         0
         0         0         0         0         0         0         0         0
         0         0         0         0         0         0         0         0
         0         0         0         0         0         0         0         0
         0         0         0         0         0         0         0         0
         0         0         0         0         0         0         0         0
         0         0         0         0         0         0         0         0
         0         0         0         0         0         0         0         0
         0         0         0         0         0         0         0         0
         0         0         0         0         0         0         0         0
         0         0         0         0         0         0         0         0
         0         0         0         0         0         0         0         0
         0         0         0         0         0         0         0         0
         0         0         0         0         0         0         0         0
         0         0         0         0         0         0         0         0
         0         0         0         0         0         0         0         0
         0         0         0         0         0         0         0         0
         0         0         0         0         0         0         0         0
         0         0         0         0         0         0         0         0
         0         0         0         0         0         0         0         0
         0         0         0         0         0         0         0         0
         0         0         0         0         0         0         0         0
         0         0         0         0         0         0         0         0
         0         0         0         0         0         0         0         0
         0         0         0         0         0         0         0         0
         0         0         0         0         0         0         0         0
         0         0         0         0         0         0         0         0
         0         0         0         0         0         0         0         0
         0         0         0         0         0         0         0         0
         0         0         0         0         0         0         0         0
         0         0         0         0         0         0         0         0
         0         0         0         0         0         0         0         0
         0         0         0         0         0         0         0         0
         0         0         0         0         0         0         0         0
         0         0         0         0         0         0         0         0
         0         0         0         0         0         0         0         0
         0         0         0         0         0         0         0         0
         0         0         0         0         0         0         0         0
         0         0         0         0         0         0         0         0
         0         0         0         0         0         0         0         0
         0         0         0         0         0         0         0         0
         0         0         0         0         0         0         0         0
         0         0         0         0         0         0         0         0
         0         0         0         0         0         0         0         0
         0         0         0         0         0         0         0         0
         0         0         0         0         0         0         0         0
         0         0         0         0         0         0         0         0
         0         0         0         0         0         0         0         0
         0         0         0         0         0         0         0         0
         0         0         0         0         0         0         0         0
         0         0         0         0         0         0         0         0
         0         0         0         0         0         0         0         0
         0         0         0         0         0         0         0         0
         0         0         0         0         0         0         0         0
         0         0         0         0         0         0         0         0
         0         0         0         0         0         0         0         0
         0         0         0         0         0         0         0         0
         0         0         0         0         0         0         0         0
         0         0         0         0         0         0         0         0
         0         0         0         0         0         0         0         0
         0         0         0         0         0         0         0         0
         0         0         0         0         0         0         0         0
         0         0         0         0         0         0         0         0
         0         0         0         0         0         0         0         0
         0         0         0         0         0         0         0         0
         0         0         0         0         0         0         0         0
         0         0         0         0         0         0         0         0
         0         0         0         0         0         0         0         0
         0         0         0         0         0         0         0         0
         0         0         0         0         0         0         0         0
         0         0         0         0         0         0         0         0
         0         0         0         0         0         0         0         0
         0         0         0         0         0         0         0         0
         0         0         0         0         0         0         0         0
         0         0         0         0         0         0         0         0
         0         0         0         0         0         0         0         0
         0         0         0         0         0         0         0         0
         0         0         0         0         0         0         0         0
         0         0         0         0         0         0         0         0
         0         0         0         0         0         0         0         0
         0         0         0         0         0         0         0         0
         0         0         0         0         0         0         0         0
         0         0         0         0         0         0         0         0
         0         0         0         0         0         0         0         0
         0         0         0         0         0         0         0         0
         0         0         0         0         0         0         0         0
         0         0         0         0         0         0         0         0
         0         0         0         0         0         0         0         0
         0         0         0         0         0         0         0         0
         0         0         0         0         0         0         0         0
         0         0         0         0         0         0         0         0
         0         0         0         0         0         0         0         0
         0         0         0         0         0         0         0         0
         0         0         0         0         0         0         0         0
         0         0         0         0         0         0         0         0
         0         0         0         0         0         0         0         0
         0         0         0         0         0         0         0         0
         0         0         0         0         0         0         0         0
         0         0         0         0         0         0         0         0
         0         0         0         0         0         0         0         0
         0         0         0         0         0         0         0         0
         0         0         0         0         0         0         0         0
         0         0         0         0         0         0         0         0
         0         0         0         0         0         0         0         0
         0         0         0         0         0         0         0         0
         0         0         0         0         0         0         0         0
         0         0         0         0         0         0         0         0
         0         0         0         0         0         0         0         0
         0         0         0         0         0         0         0         0
         0         0         0         0         0         0         0         0
         0         0         0         0         0         0         0         0
         0         0         0         0         0         0         0         0
         0         0         0         0         0         0         0         0
         0         0         0         0         0         0         0         0
         0         0         0         0         0         0         0         0
         0         0         0         0         0         0         0         0
         0         0         0         0         0         0         0         0
         0         0         0         0         0         0         0         0
         0         0         0         0         0         0         0         0
         0         0         0         0         0         0         0         0
         0         0         0         0         0         0         0         0
         0         0         0         0         0         0         0         0
         0         0         0         0         0         0         0         0
         0         0         0         0         0         0         0         0
         0         0         0         0         0         0         0         0
         0         0         0         0         0         0         0         0
         0         0         0         0         0         0         0         0
         0         0         0         0         0         0         0         0
         0         0         0         0         0         0         0         0
         0         0         0         0         0         0         0         0
         0         0         0         0         0         0         0         0
         0         0         0         0         0         0         0         0
         0         0         0         0         0         0         0         0
         0         0         0         0         0         0         0         0
         0         0         0         0         0         0         0         0
         0         0         0         0         0         0         0         0
         0         0         0         0         0         0         0         0
         0         0         0         0         0         0         0         0
         0         0         0         0         0         0         0         0
         0         0         0         0         0         0         0         0
         0         0         0         0         0         0         0         0
         0         0         0         0         0         0         0         0
         0         0         0         0         0         0         0         0
         0         0         0         0         0         0         0         0
         0         0         0         0         0         0         0         0
         0         0         0         0         0         0         0         0
         0         0         0         0         0         0         0         0
         0         0         0         0         0         0         0         0
         0         0         0         0         0         0         0         0
         0         0         0         0         0         0         0         0
         0         0         0         0         0         0         0         0
         0         0         0         0         0         0         0         0
         0         0         0         0         0         0         0         0
         0         0         0         0         0         0         0         0
         0         0         0         0         0         0         0         0
         0         0         0         0         0         0         0         0
         0         0         0         0         0         0         0         0
         0         0         0         0         0         0         0         0
         0         0         0         0         0         0         0         0
         0         0         0         0         0         0         0         0
         0         0         0         0         0         0         0         0
         0         0         0         0         0         0         0         0
         0         0         0         0         0         0         0         0
         0         0         0         0         0         0         0         0
         0         0         0         0         0         0         0         0
         0         0         0         0         0         0         0         0
         0         0         0         0         0         0         0         0
         0         0         0         0         0         0         0         0
         0         0         0         0         0         0         0         0
         0         0         0         0         0         0         0         0
         0         0         0         0         0         0         0         0
         0         0         0         0         0         0         0         0
         0         0         0         0         0         0         0         0
         0         0         0         0         0         0         0         0
         0         0         0         0         0         0         0         0
         0         0         0         0         0         0         0         0
         0         0         0         0         0         0         0         0
         0         0         0         0         0         0         0         0
         0         0         0         0         0         0         0         0
         0         0         0         0         0         0         0         0
         0         0         0         0         0         0         0         0
         0         0         0         0         0         0         0         0
         0         0         0         0         0         0         0         0
         0         0         0         0         0         0         0         0
         0         0         0         0         0         0         0         0
         0         0         0         0         0         0         0         0
         0         0         0         0         0         0         0         0
         0         0         0         0         0         0         0         0
         0         0         0         0         0         0         0         0
         0         0         0         0         0         0         0         0
         0         0         0         0         0         0         0         0
         0         0         0         0         0         0         0         0
         0         0         0         0         0         0         0         0
         0         0         0         0         0         0         0         0
         0         0         0         0         0         0         0         0
         0         0         0         0         0         0         0         0
         0         0         0         0         0         0         0         0
         0         0         0         0         0         0         0         0
         0         0         0         0         0         0         0         0
         0         0         0         0         0         0         0         0
         0         0         0         0         0         0         0         0
         0         0         0         0         0         0         0         0
         0         0         0         0         0         0         0         0
         0         0         0         0         0         0         0         0
         0         0         0         0         0         0         0         0
         0         0         0         0         0         0         0         0
         0         0         0         0         0         0         0         0
         0         0         0         0         0         0         0         0
         0         0         0         0         0         0         0         0
         0         0         0         0         0         0         0         0
         0         0         0         0         0         0         0         0
         0         0         0         0         0         0         0         0
         0         0         0         0         0         0         0         0
         0         0         0         0         0         0         0         0
         0         0         0         0         0         0         0         0
         0         0         0         0         0         0         0         0
         0         0         0         0         0         0         0         0
         0         0         0         0         0         0         0         0
         0         0         0         0         0         0         0         0
         0         0         0         0         0         0         0         0
         0         0         0         0         0         0         0         0
         0         0         0         0         0         0         0         0
         0         0         0         0         0         0         0         0
         0         0         0         0         0         0         0         0
         0         0         0         0         0         0         0         0
         0         0         0         0         0         0         0         0
         0         0         0         0         0         0         0         0
         0         0         0         0         0         0         0         0
         0         0         0         0         0         0         0         0
         0         0         0         0         0         0         0         0
         0         0         0         0         0         0         0         0
         0         0         0         0         0         0         0         0
         0         0         0         0         0         0         0         0
         0         0         0         0         0         0         0         0
         0         0         0         0         0         0         0         0
         0         0         0         0         0         0         0         0
         0         0         0         0         0         0         0         0
         0         0         0         0         0         0         0         0
         0         0         0         0         0         0         0         0
         0         0         0         0         0         0         0         0
         0         0         0         0         0         0         0         0
         0         0         0         0         0         0         0         0
         0         0         0         0         0         0         0         0
         0         0         0         0         0         0         0         0
         0         0         0         0         0         0         0         0
         0         0         0         0         0         0         0         0
         0         0         0         0         0         0         0         0
         0         0         0         0         0         0         0         0
         0         0         0         0         0         0         0         0
         0         0         0         0         0         0         0         0
         0         0         0         0         0         0         0         0
         0         0         0         0         0         0         0         0
         0         0         0         0         0         0         0         0
         0         0         0         0         0         0         0         0
         0         0         0         0         0         0         0         0
         0         0         0         0         0         0         0         0
         0         0         0         0         0         0         0         0
         0         0         0         0         0         0         0         0
         0         0         0         0         0         0         0         0
         0         0         0         0         0         0         0         0
         0         0         0         0         0         0         0         0
         0         0         0         0         0         0         0         0
         0         0         0         0         0         0         0         0
         0         0         0         0         0         0         0         0
         0         0         0         0         0         0         0         0
         0         0         0         0         0         0         0         0
         0         0         0         0         0         0         0         0
         0         0         0         0         0         0         0         0
         0         0         0         0         0         0         0         0
         0         0         0         0         0         0         0         0
         0         0         0         0         0         0         0         0
         0         0         0         0         0         0         0         0
         0         0         0         0         0         0         0         0
         0         0         0         0         0         0         0         0
         0         0         0         0         0         0         0         0
         0         0         0         0         0         0         0         0
         0         0         0         0         0         0         0         0
         0         0         0         0         0         0         0         0
         0         0         0         0         0         0         0         0
         0         0         0         0         0         0         0         0
         0         0         0         0         0         0         0         0
         0         0         0         0         0         0         0         0
         0         0         0         0         0         0         0         0
         0         0         0         0         0         0         0         0
         0         0         0         0         0         0         0         0
         0         0         0         0         0         0         0         0
         0         0         0         0         0         0         0         0
         0         0         0         0         0         0         0         0
         0         0         0         0         0         0         0         0
         0         0         0         0         0         0         0         0
         0         0         0         0         0         0         0         0
         0         0         0         0         0         0         0         0
         0         0         0         0         0         0         0         0
         0         0         0         0         0         0         0         0
         0         0         0         0         0         0         0         0
         0         0         0         0         0         0         0         0
         0         0         0         0         0         0         0         0
         0         0         0         0         0         0         0         0
         0         0         0         0         0         0         0         0
         0         0         0         0         0         0         0         0
         0         0         0         0         0         0         0         0
         0         0         0         0         0         0         0         0
         0         0         0         0         0         0         0         0
         0         0         0         0         0         0         0         0
         0         0         0         0         0         0         0         0
         0         0         0         0         0         0         0         0
         0         0         0         0         0         0         0         0
         0         0         0         0         0         0         0         0
         0         0         0         0         0         0         0         0
         0         0         0         0         0         0         0         0
         0         0         0         0         0         0         0         0
         0         0         0         0         0         0         0         0
         0         0         0         0         0         0         0         0
         0         0         0         0         0         0         0         0
         0         0         0         0         0         0         0         0
         0         0         0         0         0         0         0         0
         0         0         0         0         0         0         0         0
         0         0         0         0         0         0         0         0
         0         0         0         0         0         0         0         0
         0         0         0         0         0         0         0         0
         0         0         0         0         0         0         0         0
         0         0         0         0         0         0         0         0
         0         0         0         0         0         0         0         0
         0         0         0         0         0         0         0         0
         0         0         0         0         0         0         0         0
         0         0         0         0         0         0         0         0
         0         0         0         0         0         0         0         0
         0         0         0         0         0         0         0         0
         0         0         0         0         0         0         0         0
         0         0         0         0         0         0         0         0
         0         0         0         0         0         0         0         0
         0         0         0         0         0         0         0         0
         0         0         0         0         0         0         0         0
         0         0         0         0         0         0         0         0
         0         0         0         0         0         0         0         0
         0         0         0         0         0         0         0         0
         0         0         0         0         0         0         0         0
         0         0         0         0         0         0         0         0
         0         0         0         0         0         0         0         0
         0         0         0         0         0         0         0         0
         0         0         0         0         0         0         0         0
         0         0         0         0         0         0         0         0
         0         0         0         0         0         0         0         0
         0         0         0         0         0         0         0         0
         0         0         0         0         0         0         0         0
         0         0         0         0         0         0         0         0
         0         0         0         0         0         0         0         0
         0         0         0         0         0         0         0         0
         0         0         0         0         0         0         0         0
         0         0         0         0         0         0         0         0
         0         0         0         0         0         0         0         0
         0         0         0         0         0         0         0         0
         0         0         0         0         0         0         0         0
         0         0         0         0         0         0         0         0
         0         0         0         0         0         0         0         0
         0         0         0         0         0         0         0         0
         0         0         0         0         0         0         0         0
         0         0         0         0         0         0         0         0
         0         0         0         0         0         0         0         0
         0         0         0         0         0         0         0         0
         0         0         0         0         0         0         0         0
         0         0         0         0         0         0         0         0
         0         0         0         0         0         0         0         0
         0         0         0         0         0         0         0         0
         0         0         0         0         0         0         0         0
         0         0         0         0         0         0         0         0
         0         0         0         0         0         0         0         0
         0         0         0         0         0         0         0         0
         0         0         0         0         0         0         0         0
         0         0         0         0         0         0         0         0
         0         0         0         0         0         0         0         0
         0         0         0         0         0         0         0         0
         0         0         0         0         0         0         0         0
         0         0         0         0         0         0         0         0
         0         0         0         0         0         0         0         0
         0         0         0         0         0         0         0         0
         0         0         0         0         0         0         0         0
         0         0         0         0         0         0         0         0
         0         0         0         0         0         0         0         0
         0         0         0         0         0         0         0         0
         0         0         0         0         0         0         0         0
         0         0         0         0         0         0         0         0
         0         0         0         0         0         0         0         0
         0         0         0         0         0         0         0         0
         0         0         0         0         0         0         0         0
         0         0         0         0         0         0         0         0
         0         0         0         0         0         0         0         0
         0         0         0         0         0         0         0         0
         0         0         0         0         0         0         0         0
         0         0         0         0         0         0         0         0
         0         0         0         0         0         0         0         0
         0         0         0         0         0         0         0         0
         0         0         0         0         0         0         0         0
         0         0         0         0         0         0         0         0
         0         0         0         0         0         0         0         0
         0         0         0         0         0         0         0         0
         0         0         0         0         0         0         0         0
         0         0         0         0         0         0         0         0
         0         0         0         0         0         0         0         0
         0         0         0         0         0         0         0         0
         0         0         0         0         0         0         0         0
         0         0         0         0         0         0         0         0
         0         0         0         0         0         0         0         0
         0         0         0         0         0         0         0         0
         0         0         0         0         0         0         0         0
         0         0         0         0         0         0         0         0
         0         0         0         0         0         0         0         0
         0         0         0         0         0         0         0         0
         0         0         0         0         0         0         0         0
         0         0         0         0         0         0         0         0
         0         0         0         0         0         0         0         0
         0         0         0         0         0         0         0         0
         0         0         0         0         0         0         0         0
         0         0         0         0         0         0         0         0
         0         0         0         0         0         0         0         0
         0         0         0         0         0         0         0         0
         0         0         0         0         0         0         0         0
         0         0         0         0         0         0         0         0
         0         0         0         0         0         0         0         0
         0         0         0         0         0         0         0         0
         0         0         0         0         0         0         0         0
         0         0         0         0         0         0         0         0
         0         0         0         0         0         0         0         0
         0         0         0         0         0         0         0         0
         0         0         0         0         0         0         0         0
         0         0         0         0         0         0         0         0
         0         0         0         0         0         0         0         0
         0         0         0         0         0         0         0         0
         0         0         0         0         0         0         0         0
         0         0         0         0         0         0         0         0
         0         0         0         0         0         0         0         0
         0         0         0         0         0         0         0         0
         0         0         0         0         0         0         0         0
         0         0         0         0         0         0         0         0
         0         0         0         0         0         0         0         0
         0         0         0         0         0         0         0         0
         0         0         0         0         0         0         0         0
         0         0         0         0         0         0         0         0
         0         0         0         0         0         0         0         0
         0         0         0         0         0         0         0         0
         0         0         0         0         0         0         0         0
         0         0         0         0         0         0         0         0
         0         0         0         0         0         0         0         0
         0         0         0         0         0         0         0         0
         0         0         0         0         0         0         0         0
         0         0         0         0         0         0         0         0
         0         0         0         0         0         0         0         0
         0         0         0         0         0         0         0         0
         0         0         0         0         0         0         0         0
         0         0         0         0         0         0         0         0
         0         0         0         0         0         0         0         0
         0         0         0         0         0         0         0         0
         0         0         0         0         0         0         0         0
         0         0         0         0         0         0         0         0
         0         0         0         0         0         0         0         0
         0         0         0         0         0         0         0         0
         0         0         0         0         0         0         0         0
         0         0         0         0         0         0         0         0
         0         0         0         0         0         0         0         0
         0         0         0         0         0         0         0         0
         0         0         0         0         0         0         0         0
         0         0         0         0         0         0         0         0
         0         0         0         0         0         0         0         0
         0         0         0         0         0         0         0         0
         0         0         0         0         0         0         0         0
         0         0         0         0         0         0         0         0
         0         0         0         0         0         0         0         0
         0         0         0         0         0         0         0         0
         0         0         0         0         0         0         0         0
         0         0         0         0         0         0         0         0
         0         0         0         0         0         0         0         0
         0         0         0         0         0         0         0         0
         0         0         0         0         0         0         0         0
         0         0         0         0         0         0         0         0
         0         0         0         0         0         0         0         0
         0         0         0         0         0         0         0         0
         0         0         0         0         0         0         0         0
         0         0         0         0         0         0         0         0
         0         0         0         0         0         0         0         0
         0         0         0         0         0         0         0         0
         0         0         0         0         0         0         0         0
         0         0         0         0         0         0         0         0
         0         0         0         0         0         0         0         0
         0         0         0         0         0         0         0         0
         0         0         0         0         0         0         0         0
         0         0         0         0         0         0         0         0
         0         0         0         0         0         0         0         0
         0         0         0         0         0         0         0         0
         0         0         0         0         0         0         0         0
         0         0         0         0         0         0         0         0
         0         0         0         0         0         0         0         0
         0         0         0         0         0         0         0         0
         0         0         0         0         0         0         0         0
         0         0         0         0         0         0         0         0
         0         0         0         0         0         0         0         0
         0         0         0         0         0         0         0         0
         0         0         0         0         0         0         0         0
         0         0         0         0         0         0         0         0
         0         0         0         0         0         0         0         0
         0         0         0         0         0         0         0         0
         0         0         0         0         0         0         0         0
         0         0         0         0         0         0         0         0
         0         0         0         0         0         0         0         0
         0         0         0         0         0         0         0         0
         0         0         0         0         0         0         0         0
         0         0         0         0         0         0         0         0
         0         0         0         0         0         0         0         0
         0         0         0         0         0         0         0         0
         0         0         0         0         0         0         0         0
         0         0         0         0         0         0         0         0
         0         0         0         0         0         0         0         0
         0         0         0         0         0         0         0         0
         0         0         0         0         0         0         0         0
         0         0         0         0         0         0         0         0
         0         0         0         0         0         0         0         0
         0         0         0         0         0         0         0         0
         0         0         0         0         0         0         0         0
         0         0         0         0         0         0         0         0
         0         0         0         0         0         0         0         0
         0         0         0         0         0         0         0         0
         0         0         0         0         0         0         0         0
         0         0         0         0         0         0         0         0
         0         0         0         0         0         0         0         0
         0         0         0         0         0         0         0         0
         0         0         0         0         0         0         0         0
         0         0         0         0         0         0         0         0
         0         0         0         0         0         0         0         0
         0         0         0         0         0         0         0         0
         0         0         0         0         0         0         0         0
         0         0         0         0         0         0         0         0
         0         0         0         0         0         0         0         0
         0         0         0         0         0         0         0         0
         0         0         0         0         0         0         0         0
         0         0         0         0         0         0         0         0
         0         0         0         0         0         0         0         0
         0         0         0         0         0         0         0         0
         0         0         0         0         0         0         0         0
         0         0         0         0         0         0         0         0
         0         0         0         0         0         0         0         0
         0         0         0         0         0         0         0         0
         0         0         0         0         0         0         0         0
         0         0         0         0         0         0         0         0
         0         0         0         0         0         0         0         0
         0         0         0         0         0         0         0         0
         0         0         0         0         0         0         0         0
         0         0         0         0         0         0         0         0
         0         0         0         0         0         0         0         0
         0         0         0         0         0         0         0         0
         0         0         0         0         0         0         0         0
         0         0         0         0         0         0         0         0
         0         0         0         0         0         0         0         0
         0         0         0         0         0         0         0         0
         0         0         0         0         0         0         0         0
         0         0         0         0         0         0         0         0
         0         0         0         0         0         0         0         0
         0         0         0         0         0         0         0         0
         0         0         0         0         0         0         0         0
         0         0         0         0         0         0         0         0
         0         0         0         0         0         0         0         0
         0         0         0         0         0         0         0         0
         0         0         0         0         0         0         0         0
         0         0         0         0         0         0         0         0
         0         0         0         0         0         0         0         0
         0         0         0         0         0         0         0         0
         0         0         0         0         0         0         0         0
         0         0         0         0         0         0         0         0
         0         0         0         0         0         0         0         0
         0         0         0         0         0         0         0         0
         0         0         0         0         0         0         0         0
         0         0         0         0         0         0         0         0
         0         0         0         0         0         0         0         0
         0         0         0         0         0         0         0         0
         0         0         0         0         0         0         0         0
         0         0         0         0         0         0         0         0
         0         0         0         0         0         0         0         0
         0         0         0         0         0         0         0         0
         0         0         0         0         0         0         0         0
         0         0         0         0         0         0         0         0
         0         0         0         0         0         0         0         0
         0         0         0         0         0         0         0         0
         0         0         0         0         0         0         0         0
         0         0         0         0         0         0         0         0
         0         0         0         0         0         0         0         0
         0         0         0         0         0         0         0         0
         0         0         0         0         0         0         0         0
         0         0         0         0         0         0         0         0
         0         0         0         0         0         0         0         0
         0         0         0         0         0         0         0         0
         0         0         0         0         0         0         0         0
         0         0         0         0         0         0         0         0
         0         0         0         0         0         0         0         0
         0         0         0         0         0         0         0         0
         0         0         0         0         0         0         0         0
         0         0         0         0         0         0         0         0
         0         0         0         0         0         0         0         0
         0         0         0         0         0         0         0         0
         0         0         0         0         0         0         0         0
         0         0         0         0         0         0         0         0
         0         0         0         0         0         0         0         0
         0         0         0         0         0         0         0         0
         0         0         0         0         0         0         0         0
         0         0         0         0         0         0         0         0
         0         0         0         0         0         0         0         0
         0         0         0         0         0         0         0         0
         0         0         0         0         0         0         0         0
         0         0         0         0         0         0         0         0
         0         0         0         0         0         0         0         0
         0         0         0         0         0         0         0         0
         0         0         0         0         0         0         0         0
         0         0         0         0         0         0         0         0
         0         0         0         0         0         0         0         0
         0         0         0         0         0         0         0         0
         0         0         0         0         0         0         0         0
         0         0         0         0         0         0         0         0
         0         0         0         0         0         0         0         0
         0         0         0         0         0         0         0         0
         0         0         0         0         0         0         0         0
         0         0         0         0         0         0         0         0
         0         0         0         0         0         0         0         0
         0         0         0         0         0         0         0         0
         0         0         0         0         0         0         0         0
         0         0         0         0         0         0         0         0
         0         0         0         0         0         0         0         0
         0         0         0         0         0         0         0         0
         0         0         0         0         0         0         0         0
         0         0         0         0         0         0         0         0
         0         0         0         0         0         0         0         0
         0         0         0         0         0         0         0         0
         0         0         0         0         0         0         0         0
         0         0         0         0         0         0         0         0
         0         0         0         0         0         0         0         0
         0         0         0         0         0         0         0         0
         0         0         0         0         0         0         0         0
         0         0         0         0         0         0         0         0
         0         0         0         0         0         0         0         0
         0         0         0         0         0         0         0         0
         0         0         0         0         0         0         0         0
         0         0         0         0         0         0         0         0
         0         0         0         0         0         0         0         0
         0         0         0         0         0         0         0         0
         0         0         0         0         0         0         0         0
         0         0         0         0         0         0         0         0
         0         0         0         0         0         0         0         0
         0         0         0         0         0         0         0         0
         0         0         0         0         0         0         0         0
         0         0         0         0         0         0         0         0
         0         0         0         0         0         0         0         0
         0         0         0         0         0         0         0         0
         0         0         0         0         0         0         0         0
         0         0         0         0         0         0         0         0
         0         0         0         0         0         0         0         0
         0         0         0         0         0         0         0         0
         0         0         0         0         0         0         0         0
         0         0         0         0         0         0         0         0
         0         0         0         0         0         0         0         0
         0         0         0         0         0         0         0         0
         0         0         0         0         0         0         0         0
         0         0         0         0         0         0         0         0
         0         0         0         0         0         0         0         0
         0         0         0         0         0         0         0         0
         0         0         0         0         0         0         0         0
         0         0         0         0         0         0         0         0
         0         0         0         0         0         0         0         0
         0         0         0         0         0         0         0         0
         0         0         0         0         0         0         0         0
         0         0         0         0         0         0         0         0
         0         0         0         0         0         0         0         0
         0         0         0         0         0         0         0         0
         0         0         0         0         0         0         0         0
         0         0         0         0         0         0         0         0
         0         0         0         0         0         0         0         0
         0         0         0         0         0         0         0         0
         0         0         0         0         0         0         0         0
         0         0         0         0         0         0         0         0
         0         0         0         0         0         0         0         0
         0         0         0         0         0         0         0         0
         0         0         0         0         0         0         0         0
         0         0         0         0         0         0         0         0
         0         0         0         0         0         0         0         0
         0         0         0         0         0         0         0         0
         0         0         0         0         0         0         0         0
         0         0         0         0         0         0         0         0
         0         0         0         0         0         0         0         0
         0         0         0         0         0         0         0         0
         0         0         0         0         0         0         0         0
         0         0         0         0         0         0         0         0
         0         0         0         0         0         0         0         0
         0         0         0         0         0         0         0         0
         0         0         0         0         0         0         0         0
         0         0         0         0         0         0         0         0
         0         0         0         0         0         0         0         0
         0         0         0         0         0         0         0         0
         0         0         0         0         0         0         0         0
         0         0         0         0         0         0         0         0
         0         0         0         0         0         0         0         0
         0         0         0         0         0         0         0         0
         0         0         0         0         0         0         0         0
         0         0         0         0         0         0         0         0
         0         0         0         0         0         0         0         0
         0         0         0         0         0         0         0         0
         0         0         0         0         0         0         0         0
         0         0         0         0         0         0         0         0
         0         0         0         0         0         0         0         0
         0         0         0         0         0         0         0         0
         0         0         0         0         0         0         0         0
         0         0         0         0         0         0         0         0
         0         0         0         0         0         0         0         0
         0         0         0         0         0         0         0         0
         0         0         0         0         0         0         0         0
         0         0         0         0         0         0         0         0
         0         0         0         0         0         0         0         0
         0         0         0         0         0         0         0         0
         0         0         0         0         0         0         0         0
         0         0         0         0         0         0         0         0
         0         0         0         0         0         0         0         0
         0         0         0         0         0         0         0         0
         0         0         0         0         0         0         0         0
         0         0         0         0         0         0         0         0
         0         0         0         0         0         0         0         0
         0         0         0         0         0         0         0         0
         0         0         0         0         0         0         0         0
         0         0         0         0         0         0         0         0
         0         0         0         0         0         0         0         0
         0         0         0         0         0         0         0         0
         0         0         0         0         0         0         0         0
         0         0         0         0         0         0         0         0
         0         0         0         0         0         0         0         0
         0         0         0         0         0         0         0         0
         0         0         0         0         0         0         0         0
         0         0         0         0         0         0         0         0
         0         0         0         0         0         0         0         0
         0         0         0         0         0         0         0         0
         0         0         0         0         0         0         0         0
         0         0         0         0         0         0         0         0
         0         0         0         0         0         0         0         0
         0         0         0         0         0         0         0         0
         0         0         0         0         0         0         0         0
         0         0         0         0         0         0         0         0
         0         0         0         0         0         0         0         0
         0         0         0         0         0         0         0         0
         0         0         0         0         0         0         0         0
         0         0         0         0         0         0         0         0
         0         0         0         0         0         0         0         0
         0         0         0         0         0         0         0         0
         0         0         0         0         0         0         0         0
         0         0         0         0         0         0         0         0
         0         0         0         0         0         0         0         0
         0         0         0         0         0         0         0         0
         0         0         0         0         0         0         0         0
         0         0         0         0         0         0         0         0
         0         0         0         0         0         0         0         0
         0         0         0         0         0         0         0         0
         0         0         0         0         0         0         0         0
         0         0         0         0         0         0         0         0
         0         0         0         0         0         0         0         0
         0         0         0         0         0         0         0         0
         0         0         0         0         0         0         0         0
         0         0         0         0         0         0         0         0
         0         0         0         0         0         0         0         0
         0         0         0         0         0         0         0         0
         0         0         0         0         0         0         0         0
         0         0         0         0         0         0         0         0
         0         0         0         0         0         0         0         0
         0         0         0         0         0         0         0         0
         0         0         0         0         0         0         0         0
         0         0         0         0         0         0         0         0
         0         0         0         0         0         0         0         0
         0         0         0         0         0         0         0         0
         0         0         0         0         0         0         0         0
         0         0         0         0         0         0         0         0
         0         0         0         0         0         0         0         0
         0         0         0         0         0         0         0         0
         0         0         0         0         0         0         0         0
         0         0         0         0         0         0         0         0
         0         0         0         0         0         0         0         0
         0         0         0         0         0         0         0         0
         0         0         0         0         0         0         0         0
         0         0         0         0         0         0         0         0
         0         0         0         0         0         0         0         0
         0         0         0         0         0         0         0         0
         0         0         0         0         0         0         0         0
         0         0         0         0         0         0         0         0
         0         0         0         0         0         0         0         0
         0         0         0         0         0         0         0         0
         0         0         0         0         0         0         0         0
         0         0         0         0         0         0         0         0
         0         0         0         0         0         0         0         0
         0         0         0         0         0         0         0         0
         0         0         0         0         0         0         0         0
         0         0         0         0         0         0         0         0
         0         0         0         0         0         0         0         0
         0         0         0         0         0         0         0         0
         0         0         0         0         0         0         0         0
         0         0         0         0         0         0         0         0
         0         0         0         0         0         0         0         0
         0         0         0         0         0         0         0         0
         0         0         0         0         0         0         0         0
         0         0         0         0         0         0         0         0
         0         0         0         0         0         0         0         0
         0         0         0         0         0         0         0         0
         0         0         0         0         0         0         0         0
         0         0         0         0         0         0         0         0
         0         0         0         0         0         0         0         0
         0         0         0         0         0         0         0         0
         0         0         0         0         0         0         0         0
         0         0         0         0         0         0         0         0
         0         0         0         0         0         0         0         0
         0         0         0         0         0         0         0         0
         0         0         0         0         0         0         0         0
         0         0         0         0         0         0         0         0
         0         0         0         0         0         0         0         0
         0         0         0         0         0         0         0         0
         0         0         0         0         0         0         0         0
         0         0         0         0         0         0         0         0
         0         0         0         0         0         0         0         0
         0         0         0         0         0         0         0         0
         0         0         0         0         0         0         0         0
         0         0         0         0         0         0         0         0
         0         0         0         0         0         0         0         0
         0         0         0         0         0         0         0         0
         0         0         0         0         0         0         0         0
         0         0         0         0         0         0         0         0
         0         0         0         0         0         0         0         0
         0         0         0         0         0         0         0         0
         0         0         0         0         0         0         0         0
         0         0         0         0         0         0         0         0
         0         0         0         0         0         0         0         0
         0         0         0         0         0         0         0         0
         0         0         0         0         0         0         0         0
         0         0         0         0         0         0         0         0
         0         0         0         0         0         0         0         0
         0         0         0         0         0         0         0         0
         0         0         0         0         0         0         0         0
         0         0         0         0         0         0         0         0
         0         0         0         0         0         0         0         0
         0         0         0         0         0         0         0         0
         0         0         0         0         0         0         0         0
         0         0         0         0         0         0         0         0
         0         0         0         0         0         0         0         0
         0         0         0         0         0         0         0         0
         0         0         0         0         0         0         0         0
         0         0         0         0         0         0         0         0
         0         0         0         0         0         0         0         0
         0         0         0         0         0         0         0         0
         0         0         0         0         0         0         0         0
         0         0         0         0         0         0         0         0
         0         0         0         0         0         0         0         0
         0         0         0         0         0         0         0         0
         0         0         0         0         0         0         0         0
         0         0         0         0         0         0         0         0
         0         0         0         0         0         0         0         0
         0         0         0         0         0         0         0         0
         0         0         0         0         0         0         0         0
         0         0         0         0         0         0         0         0
         0         0         0         0         0         0         0         0
         0         0         0         0         0         0         0         0
         0         0         0         0         0         0         0         0
         0         0         0         0         0         0         0         0
         0         0         0         0         0         0         0         0
         0         0         0         0         0         0         0         0
         0         0         0         0         0         0         0         0
         0         0         0         0         0         0         0         0
         0         0         0         0         0         0         0         0
         0         0         0         0         0         0         0         0
         0         0         0         0         0         0         0         0
         0         0         0         0         0         0         0         0
         0         0         0         0         0         0         0         0
         0         0         0         0         0         0         0         0
         0         0         0         0         0         0         0         0
         0         0         0         0         0         0         0         0
         0         0         0         0         0         0         0         0
         0         0         0         0         0         0         0         0
         0         0         0         0         0         0         0         0
         0         0         0         0         0         0         0         0
         0         0         0         0         0         0         0         0
         0         0         0         0         0         0         0         0
         0         0         0         0         0         0         0         0
         0         0         0         0         0         0         0         0
         0         0         0         0         0         0         0         0
         0         0         0         0         0         0         0         0
         0         0         0         0         0         0         0         0
         0         0         0         0         0         0         0         0
         0         0         0         0         0         0         0         0
         0         0         0         0         0         0         0         0
         0         0         0         0         0         0         0         0
         0         0         0         0         0         0         0         0
         0         0         0         0         0         0         0         0
         0         0         0         0         0         0         0         0
         0         0         0         0         0         0         0         0
         0         0         0         0         0         0         0         0
         0         0         0         0         0         0         0         0
         0         0         0         0         0         0         0         0
         0         0         0         0         0         0         0         0
         0         0         0         0         0         0         0         0
         0         0         0         0         0         0         0         0
         0         0         0         0         0         0         0         0
         0         0         0         0         0         0         0         0
         0         0         0         0         0         0         0         0
         0         0         0         0         0         0         0         0
         0         0         0         0         0         0         0         0
         0         0         0         0         0         0         0         0
         0         0         0         0         0         0         0         0
         0         0         0         0         0         0         0         0
         0         0         0         0         0         0         0         0
         0         0         0         0         0         0         0         0
         0         0         0         0         0         0         0         0
         0         0         0         0         0         0         0         0
         0         0         0         0         0         0         0         0
         0         0         0         0         0         0         0         0
         0         0         0         0         0         0         0         0
         0         0         0         0         0         0         0         0
         0         0         0         0         0         0         0         0
         0         0         0         0         0         0         0         0
         0         0         0         0         0         0         0         0
         0         0         0         0         0         0         0         0
         0         0         0         0         0         0         0         0
         0         0         0         0         0         0         0         0
         0         0         0         0         0         0         0         0
         0         0         0         0         0         0         0         0
         0         0         0         0         0         0         0         0
         0         0         0         0         0         0         0         0
         0         0         0         0         0         0         0         0
         0         0         0         0         0         0         0         0
         0         0         0         0         0         0         0         0
         0         0         0         0         0         0         0         0
         0         0         0         0         0         0         0         0
         0         0         0         0         0         0         0         0
         0         0         0         0         0         0         0         0
         0         0         0         0         0         0         0         0
         0         0         0         0         0         0         0         0
         0         0         0         0         0         0         0         0
         0         0         0         0         0         0         0         0
         0         0         0         0         0         0         0         0
         0         0         0         0         0         0         0         0
         0         0         0         0         0         0         0         0
         0         0         0         0         0         0         0         0
         0         0         0         0         0         0         0         0
         0         0         0         0         0         0         0         0
         0         0         0         0         0         0         0         0
         0         0         0         0         0         0         0         0
         0         0         0         0         0         0         0         0
         0         0         0         0         0         0         0         0
         0         0         0         0         0         0         0         0
         0         0         0         0         0         0         0         0
         0         0         0         0         0         0         0         0
         0         0         0         0         0         0         0         0
         0         0         0         0         0         0         0         0
         0         0         0         0         0         0         0         0
         0         0         0         0         0         0         0         0
         0         0         0         0         0         0         0         0
         0         0         0         0         0         0         0         0
         0         0         0         0         0         0         0         0
         0         0         0         0         0         0         0         0
         0         0         0         0         0         0         0         0
         0         0         0         0         0         0         0         0
         0         0         0         0         0         0         0         0
         0         0         0         0         0         0         0         0
         0         0         0         0         0         0         0         0
         0         0         0         0         0         0         0         0
         0         0         0         0         0         0         0         0
         0         0         0         0         0         0         0         0
         0         0         0         0         0         0         0         0
         0         0         0         0         0         0         0         0
         0         0         0         0         0         0         0         0
         0         0         0         0         0         0         0         0
         0         0         0         0         0         0         0         0
         0         0         0         0         0         0         0         0
         0         0         0         0         0         0         0         0
         0         0         0         0         0         0         0         0
         0         0         0         0         0         0         0         0
         0         0         0         0         0         0         0         0
         0         0         0         0         0         0         0         0
         0         0         0         0         0         0         0         0
         0         0         0         0         0         0         0         0
         0         0         0         0         0         0         0         0
         0         0         0         0         0         0         0         0
         0         0         0         0         0         0         0         0
         0         0         0         0         0         0         0         0
         0         0         0         0         0         0         0         0
         0         0         0         0         0         0         0         0
         0         0         0         0         0         0         0         0
         0         0         0         0         0         0         0         0
         0         0         0         0         0         0         0         0
         0         0         0         0         0         0         0         0
         0         0         0         0         0         0         0         0
         0         0         0         0         0         0         0         0
         0         0         0         0         0         0         0         0
         0         0         0         0         0         0         0         0
         0         0         0         0         0         0         0         0
         0         0         0         0         0         0         0         0
         0         0         0         0         0         0         0         0
         0         0         0         0         0         0         0         0
         0         0         0         0         0         0         0         0
         0         0         0         0         0         0         0         0
         0         0         0         0         0         0         0         0
         0         0         0         0         0         0         0         0
         0         0         0         0         0         0         0         0
         0         0         0         0         0         0         0         0
         0         0         0         0         0         0         0         0
         0         0         0         0         0         0         0         0
         0         0         0         0         0         0         0         0
         0         0         0         0         0         0         0         0
         0         0         0         0         0         0         0         0
         0         0         0         0         0         0         0         0
         0         0         0         0         0         0         0         0
         0         0         0         0         0         0         0         0
         0         0         0         0         0         0         0         0
         0         0         0         0         0         0         0         0
         0         0         0         0         0         0         0         0
         0         0         0         0         0         0         0         0
         0         0         0         0         0         0         0         0
         0         0         0         0         0         0         0         0
         0         0         0         0         0         0         0         0
         0         0         0         0         0         0         0         0
         0         0         0         0         0         0         0         0
         0         0         0         0         0         0         0         0
         0         0         0         0         0         0         0         0
         0         0         0         0         0         0         0         0
         0         0         0         0         0         0         0         0
         0         0         0         0         0         0         0         0
         0         0         0         0         0         0         0         0
         0         0         0         0         0         0         0         0
         0         0         0         0         0         0         0         0
         0         0         0         0         0         0         0         0
         0         0         0         0         0         0         0         0
         0         0         0         0         0         0         0         0
         0         0         0         0         0         0         0         0
         0         0         0         0         0         0         0         0
         0         0         0         0         0         0         0         0
         0         0         0         0         0         0         0         0
         0         0         0         0         0         0         0         0
         0         0         0         0         0         0         0         0
         0         0         0         0         0         0         0         0
         0         0         0         0         0         0         0         0
         0         0         0         0         0         0         0         0
         0         0         0         0         0         0         0         0
         0         0         0         0         0         0         0         0
         0         0         0         0         0         0         0         0
         0         0         0         0         0         0         0         0
         0         0         0         0         0         0         0         0
         0         0         0         0         0         0         0         0
         0         0         0         0         0         0         0         0
         0         0         0         0         0         0         0         0
         0         0         0         0         0         0         0         0
         0         0         0         0         0         0         0         0
         0         0         0         0         0         0         0         0
         0         0         0         0         0         0         0         0
         0         0         0         0         0         0         0         0
         0         0         0         0         0         0         0         0
         0         0         0         0         0         0         0         0
         0         0         0         0         0         0         0         0
         0         0         0         0         0         0         0         0
         0         0         0         0         0         0         0         0
         0         0         0         0         0         0         0         0
         0         0         0         0         0         0         0         0
         0         0         0         0         0         0         0         0
         0         0         0         0         0         0         0         0
         0         0         0         0         0         0         0         0
         0         0         0         0         0         0         0         0
         0         0         0         0         0         0         0         0
         0         0         0         0         0         0         0         0
         0         0         0         0         0         0         0         0
         0         0         0         0         0         0         0         0
         0         0         0         0         0         0         0         0
         0         0         0         0         0         0         0         0
         0         0         0         0         0         0         0         0
         0         0         0         0         0         0         0         0
         0         0         0         0         0         0         0         0
         0         0         0         0         0         0         0         0
         0         0         0         0         0         0         0         0
         0         0         0         0         0         0         0         0
         0         0         0         0         0         0         0         0
         0         0         0         0         0         0         0         0
         0         0         0         0         0         0         0         0
         0         0         0         0         0         0         0         0
         0         0         0         0         0         0         0         0
         0         0         0         0         0         0         0         0
         0         0         0         0         0         0         0         0
         0         0         0         0         0         0         0         0
         0         0         0         0         0         0         0         0
         0         0         0         0         0         0         0         0
         0         0         0         0         0         0         0         0
         0         0         0         0         0         0         0         0
         0         0         0         0         0         0         0         0
         0         0         0         0         0         0         0         0
         0         0         0         0         0         0         0         0
         0         0         0         0         0         0         0         0
         0         0         0         0         0         0         0         0
         0         0         0         0         0         0         0         0
         0         0         0         0         0         0         0         0
         0         0         0         0         0         0         0         0
         0         0         0         0         0         0         0         0
         0         0         0         0         0         0         0         0
         0         0         0         0         0         0         0         0
         0         0         0         0         0         0         0         0
         0         0         0         0         0         0         0         0
         0         0         0         0         0         0         0         0
         0         0         0         0         0         0         0         0
         0         0         0         0         0         0         0         0
         0         0         0         0         0         0         0         0
         0         0         0         0         0         0         0         0
         0         0         0         0         0         0         0         0
         0         0         0         0         0         0         0         0
         0         0         0         0         0         0         0         0
         0         0         0         0         0         0         0         0
         0         0         0         0         0         0         0         0
         0         0         0         0         0         0         0         0
         0         0         0         0         0         0         0         0
         0         0         0         0         0         0         0         0
         0         0         0         0         0         0         0         0
         0         0         0         0         0         0         0         0
         0         0         0         0         0         0         0         0
         0         0         0         0         0         0         0         0
         0         0         0         0         0         0         0         0
         0         0         0         0         0         0         0         0
         0         0         0         0         0         0         0         0
         0         0         0         0         0         0         0         0
         0         0         0         0         0         0         0         0
         0         0         0         0         0         0         0         0
         0         0         0         0         0         0         0         0
         0         0         0         0         0         0         0         0
         0         0         0         0         0         0         0         0
         0         0         0         0         0         0         0         0
         0         0         0         0         0         0         0         0
         0         0         0         0         0         0         0         0
         0         0         0         0         0         0         0         0
         0         0         0         0         0         0         0         0
         0         0         0         0         0         0         0         0
         0         0         0         0         0         0         0         0
         0         0         0         0         0         0         0         0
         0         0         0         0         0         0         0         0
         0         0         0         0         0         0         0         0
         0         0         0         0         0         0         0         0
         0         0         0         0         0         0         0         0
         0         0         0         0         0         0         0         0
         0         0         0         0         0         0         0         0
         0         0         0         0         0         0         0         0
         0         0         0         0         0         0         0         0
         0         0         0         0         0         0         0         0
         0         0         0         0         0         0         0         0
         0         0         0         0         0         0         0         0
         0         0         0         0         0         0         0         0
         0         0         0         0         0         0         0         0
         0         0         0         0         0         0         0         0
         0         0         0         0         0         0         0         0
         0         0         0         0         0         0         0         0
         0         0         0         0         0         0         0         0
         0         0         0         0         0         0         0         0
         0         0         0         0         0         0         0         0
         0         0         0         0         0         0         0         0
         0         0         0         0         0         0         0         0
         0         0         0         0         0         0         0         0
         0         0         0         0         0         0         0         0
         0         0         0         0         0         0         0         0
         0         0         0         0         0         0         0         0
         0         0         0         0         0         0         0         0
         0         0         0         0         0         0         0         0
         0         0         0         0         0         0         0         0
         0         0         0         0         0         0         0         0
         0         0         0         0         0         0         0         0
         0         0         0         0         0         0         0         0
         0         0         0         0         0         0         0         0
         0         0         0         0         0         0         0         0
         0         0         0         0         0         0         0         0
         0         0         0         0         0         0         0         0
         0         0         0         0         0         0         0         0
         0         0         0         0         0         0         0         0
         0         0         0         0         0         0         0         0
         0         0         0         0         0         0         0         0
         0         0         0         0         0         0         0         0
         0         0         0         0         0         0         0         0
         0         0         0         0         0         0         0         0
         0         0         0         0         0         0         0         0
         0         0         0         0         0         0         0         0
         0         0         0         0         0         0         0         0
         0         0         0         0         0         0         0         0
         0         0         0         0         0         0         0         0
         0         0         0         0         0         0         0         0
         0         0         0         0         0         0         0         0
         0         0         0         0         0         0         0         0
         0         0         0         0         0         0         0         0
         0         0         0         0         0         0         0         0
         0         0         0         0         0         0         0         0
         0         0         0         0         0         0         0         0
         0         0         0         0         0         0         0         0
         0         0         0         0         0         0         0         0
         0         0         0         0         0         0         0         0
         0         0         0         0         0         0         0         0
         0         0         0         0         0         0         0         0
         0         0         0         0         0         0         0         0
         0         0         0         0         0         0         0         0
         0         0         0         0         0         0         0         0
         0         0         0         0         0         0         0         0
         0         0         0         0         0         0         0         0
         0         0         0         0         0         0         0         0
         0         0         0         0         0         0         0         0
         0         0         0         0         0         0         0         0
         0         0         0         0         0         0         0         0
         0         0         0         0         0         0         0         0
         0         0         0         0         0         0         0         0
         0         0         0         0         0         0         0         0
         0         0         0         0         0         0         0         0
         0         0         0         0         0         0         0         0
         0         0         0         0         0         0         0         0
         0         0         0         0         0         0         0         0
         0         0         0         0         0         0         0         0
         0         0         0         0         0         0         0         0
         0         0         0         0         0         0         0         0
         0         0         0         0         0         0         0         0
         0         0         0         0         0         0         0         0
         0         0         0         0         0         0         0         0
         0         0         0         0         0         0         0         0
         0         0         0         0         0         0         0         0
         0         0         0         0         0         0         0         0
         0         0         0         0         0         0         0         0
         0         0         0         0         0         0         0         0
         0         0         0         0         0         0         0         0
         0         0         0         0         0         0         0         0
         0         0         0         0         0         0         0         0
         0         0         0         0         0         0         0         0
         0         0         0         0         0         0         0         0
         0         0         0         0         0         0         0         0
         0         0         0         0         0         0         0         0
         0         0         0         0         0         0         0         0
         0         0         0         0         0         0         0         0
         0         0         0         0         0         0         0         0
         0         0         0         0         0         0         0         0
         0         0         0         0         0         0         0         0
         0         0         0         0         0         0         0         0
         0         0         0         0         0         0         0         0
         0         0         0         0         0         0         0         0
         0         0         0         0         0         0         0         0
         0         0         0         0         0         0         0         0
         0         0         0         0         0         0         0         0
         0         0         0         0         0         0         0         0
         0         0         0         0         0         0         0         0
         0         0         0         0         0         0         0         0
         0         0         0         0         0         0         0         0
         0         0         0         0         0         0         0         0
         0         0         0         0         0         0         0         0
         0         0         0         0         0         0         0         0
         0         0         0         0         0         0         0         0
         0         0         0         0         0         0         0         0
         0         0         0         0         0         0         0         0
         0         0         0         0         0         0         0         0
         0         0         0         0         0         0         0         0
         0         0         0         0         0         0         0         0
         0         0         0         0         0         0         0         0
         0         0         0         0         0         0         0         0
         0         0         0         0         0         0         0         0
         0         0         0         0         0         0         0         0
         0         0         0         0         0         0         0         0
         0         0         0         0         0         0         0         0
         0         0         0         0         0         0         0         0
         0         0         0         0         0         0         0         0
         0         0         0         0         0         0         0         0
         0         0         0         0         0         0         0         0
         0         0         0         0         0         0         0         0
         0         0         0         0         0         0         0         0
         0         0         0         0         0         0         0         0
         0         0         0         0         0         0         0         0
         0         0         0         0         0         0         0         0
         0         0         0         0         0         0         0         0
         0         0         0         0         0         0         0         0
         0         0         0         0         0         0         0         0
         0         0         0         0         0         0         0         0
         0         0         0         0         0         0         0         0
         0         0         0         0         0         0         0         0
         0         0         0         0         0         0         0         0
         0         0         0         0         0         0         0         0
         0         0         0         0         0         0         0         0
         0         0         0         0         0         0         0         0
         0         0         0         0         0         0         0         0
         0         0         0         0         0         0         0         0
         0         0         0         0         0         0         0         0
         0         0         0         0         0         0         0         0
         0         0         0         0         0         0         0         0
         0         0         0         0         0         0         0         0
         0         0         0         0         0         0         0         0
         0         0         0         0         0         0         0         0
         0         0         0         0         0         0         0         0
         0         0         0         0         0         0         0         0
         0         0         0         0         0         0         0         0
         0         0         0         0         0         0         0         0
         0         0         0         0         0         0         0         0
         0         0         0         0         0         0         0         0
         0         0         0         0         0         0         0         0
         0         0         0         0         0         0         0         0
         0         0         0         0         0         0         0         0
         0         0         0         0         0         0         0         0
         0         0         0         0         0         0         0         0
         0         0         0         0         0         0         0         0
         0         0         0         0         0         0         0         0
         0         0         0         0         0         0         0         0
         0         0         0         0         0         0         0         0
         0         0         0         0         0         0         0         0
         0         0         0         0         0         0         0         0
         0         0         0         0         0         0         0         0
         0         0         0         0         0         0         0         0
         0         0         0         0         0         0         0         0
         0         0         0         0         0         0         0         0
         0         0         0         0         0         0         0         0
         0         0         0         0         0         0         0         0
         0         0         0         0         0         0         0         0
         0         0         0         0         0         0         0         0
         0         0         0         0         0         0         0         0
         0         0         0         0         0         0         0         0
         0         0         0         0         0         0         0         0
         0         0         0         0         0         0         0         0
         0         0         0         0         0         0         0         0
         0         0         0         0         0         0         0         0
         0         0         0         0         0         0         0         0
         0         0         0         0         0         0         0         0
         0         0         0         0         0         0         0         0
         0         0         0         0         0         0         0         0
         0         0         0         0         0         0         0         0
         0         0         0         0         0         0         0         0
         0         0         0         0         0         0         0         0
         0         0         0         0         0         0         0         0
         0         0         0         0         0         0         0         0
         0         0         0         0         0         0         0         0
         0         0         0         0         0         0         0         0
         0         0         0         0         0         0         0         0
         0         0         0         0         0         0         0         0
         0         0         0         0         0         0         0         0
         0         0         0         0         0         0         0         0
         0         0         0         0         0         0         0         0
         0         0         0         0         0         0         0         0
         0         0         0         0         0         0         0         0
         0         0         0         0         0         0         0         0
         0         0         0         0         0         0         0         0
         0         0         0         0         0         0         0         0
         0         0         0         0         0         0         0         0
         0         0         0         0         0         0         0         0
         0         0         0         0         0         0         0         0
         0         0         0         0         0         0         0         0
         0         0         0         0         0         0         0         0
         0         0         0         0         0         0         0         0
         0         0         0         0         0         0         0         0
         0         0         0         0         0         0         0         0
         0         0         0         0         0         0         0         0
         0         0         0         0         0         0         0         0
         0         0         0         0         0         0         0         0
         0         0         0         0         0         0         0         0
         0         0         0         0         0         0         0         0
         0         0         0         0         0         0         0         0
         0         0         0         0         0         0         0         0
         0         0         0         0         0         0         0         0
         0         0         0         0         0         0         0         0
         0         0         0         0         0         0         0         0
         0         0         0         0         0         0         0         0
         0         0         0         0         0         0         0         0
         0         0         0         0         0         0         0         0
         0         0         0         0         0         0         0         0
         0         0         0         0         0         0         0         0
         0         0         0         0         0         0         0         0
         0         0         0         0         0         0         0         0
         0         0         0         0         0         0         0         0
         0         0         0         0         0         0         0         0
         0         0         0         0         0         0         0         0
         0         0         0         0         0         0         0         0
         0         0         0         0         0         0         0         0
         0         0         0         0         0         0         0         0
         0         0         0         0         0         0         0         0
         0         0         0         0         0         0         0         0
         0         0         0         0         0         0         0         0
         0         0         0         0         0         0         0         0
         0         0         0         0         0         0         0         0
         0         0         0         0         0         0         0         0
         0         0         0         0         0         0         0         0
         0         0         0         0         0         0         0         0
         0         0         0         0         0         0         0         0
         0         0         0         0         0         0         0         0
         0         0         0         0         0         0         0         0
         0         0         0         0         0         0         0         0
         0         0         0         0         0         0         0         0
         0         0         0         0         0         0         0         0
         0         0         0         0         0         0         0         0
         0         0         0         0         0         0         0         0
         0         0         0         0         0         0         0         0
         0         0         0         0         0         0         0         0
         0         0         0         0         0         0         0         0
         0         0         0         0         0         0         0         0
         0         0         0         0         0         0         0         0
         0         0         0         0         0         0         0         0
         0         0         0         0         0         0         0         0
         0         0         0         0         0         0         0         0
         0         0         0         0         0         0         0         0
         0         0         0         0         0         0         0         0
         0         0         0         0         0         0         0         0
         0         0         0         0         0         0         0         0
         0         0         0         0         0         0         0         0
         0         0         0         0         0         0         0         0
         0         0         0         0         0         0         0         0
         0         0         0         0         0         0         0         0
         0         0         0         0         0         0         0         0
         0         0         0         0         0         0         0         0
         0         0         0         0         0         0         0         0
         0         0         0         0         0         0         0         0
         0         0         0         0         0         0         0         0
         0         0         0         0         0         0         0         0
         0         0         0         0         0         0         0         0
         0         0         0         0         0         0         0         0
         0         0         0         0         0         0         0         0
         0         0         0         0         0         0         0         0
         0         0         0         0         0         0         0         0
         0         0         0         0         0         0         0         0
         0         0         0         0         0         0         0         0
         0         0         0         0         0         0         0         0
         0         0         0         0         0         0         0         0
         0         0         0         0         0         0         0         0
         0         0         0         0         0         0         0         0
         0         0         0         0         0         0         0         0
         0         0         0         0         0         0         0         0
         0         0         0         0         0         0         0         0
         0         0         0         0         0         0         0         0
         0         0         0         0         0         0         0         0
         0         0         0         0         0         0         0         0
         0         0         0         0         0         0         0         0
         0         0         0         0         0         0         0         0
         0         0         0         0         0         0         0         0
         0         0         0         0         0         0         0         0
         0         0         0         0         0         0         0         0
         0         0         0         0         0         0         0         0
         0         0         0         0         0         0         0         0
         0         0         0         0         0         0         0         0
         0         0         0         0         0         0         0         0
         0         0         0         0         0         0         0         0
         0         0         0         0         0         0         0         0
         0         0         0         0         0         0         0         0
         0         0         0         0         0         0         0         0
         0         0         0         0         0         0         0         0
         0         0         0         0         0         0         0         0
         0         0         0         0         0         0         0         0
         0         0         0         0         0         0         0         0
         0         0         0         0         0         0         0         0
         0         0         0         0         0         0         0         0
         0         0         0         0         0         0         0         0
         0         0         0         0         0         0         0         0
         0         0         0         0         0         0         0         0
         0         0         0         0         0         0         0         0
         0         0         0         0         0         0         0         0
         0         0         0         0         0         0         0         0
         0         0         0         0         0         0         0         0
         0         0         0         0         0         0         0         0
         0         0         0         0         0         0         0         0
         0         0         0         0         0         0         0         0
         0         0         0         0         0         0         0         0
         0         0         0         0         0         0         0         0
         0         0         0         0         0         0         0         0
         0         0         0         0         0         0         0         0
         0         0         0         0         0         0         0         0
         0         0         0         0         0         0         0         0
         0         0         0         0         0         0         0         0
         0         0         0         0         0         0         0         0
         0         0         0         0         0         0         0         0
         0         0         0         0         0         0         0         0
         0         0         0         0         0         0         0         0
         0         0         0         0         0         0         0         0
         0         0         0         0         0         0         0         0
         0         0         0         0         0         0         0         0
         0         0         0         0         0         0         0         0
         0         0         0         0         0         0         0         0
         0         0         0         0         0         0         0         0
         0         0         0         0         0         0         0         0
         0         0         0         0         0         0         0         0
         0         0         0         0         0         0         0         0
         0         0         0         0         0         0         0         0
         0         0         0         0         0         0         0         0
         0         0         0         0         0         0         0         0
         0         0         0         0         0         0         0         0
         0         0         0         0         0         0         0         0
         0         0         0         0         0         0         0         0
         0         0         0         0         0         0         0         0
         0         0         0         0         0         0         0         0
         0         0         0         0         0         0         0         0
         0         0         0         0         0         0         0         0
         0         0         0         0         0         0         0         0
         0         0         0         0         0         0         0         0
         0         0         0         0         0         0         0         0
         0         0         0         0         0         0         0         0
         0         0         0         0         0         0         0         0
         0         0         0         0         0         0         0         0
         0         0         0         0         0         0         0         0
         0         0         0         0         0         0         0         0
         0         0         0         0         0         0         0         0
         0         0         0         0         0         0         0         0
         0         0         0         0         0         0         0         0
         0         0         0         0         0         0         0         0
         0         0         0         0         0         0         0         0
         0         0         0         0         0         0         0         0
         0         0         0         0         0         0         0         0
         0         0         0         0         0         0         0         0
         0         0         0         0         0         0         0         0
         0         0         0         0         0         0         0         0
         0         0         0         0         0         0         0         0
         0         0         0         0         0         0         0         0
         0         0         0         0         0         0         0         0
         0         0         0         0         0         0         0         0
         0         0         0         0         0         0         0         0
         0         0         0         0         0         0         0         0
         0         0         0         0         0         0         0         0
         0         0         0         0         0         0         0         0
         0         0         0         0         0         0         0         0
         0         0         0         0         0         0         0         0
         0         0         0         0         0         0         0         0
         0         0         0         0         0         0         0         0
         0         0         0         0         0         0         0         0
         0         0         0         0         0         0         0         0
         0         0         0         0         0         0         0         0
         0         0         0         0         0         0         0         0
         0         0         0         0         0         0         0         0
         0         0         0         0         0         0         0         0
         0         0         0         0         0         0         0         0
         0         0         0         0         0         0         0         0
         0         0         0         0         0         0         0         0
         0         0         0         0         0         0         0         0
         0         0         0         0         0         0         0         0
         0         0         0         0         0         0         0         0
         0         0         0         0         0         0         0         0
         0         0         0         0         0         0         0         0
         0         0         0         0         0         0         0         0
         0         0         0         0         0         0         0         0
         0         0         0         0         0         0         0         0
         0         0         0         0         0         0         0         0
         0         0         0         0         0         0         0         0
         0         0         0         0         0         0         0         0
         0         0         0         0         0         0         0         0
         0         0         0         0         0         0         0         0
         0         0         0         0         0         0         0         0
         0         0         0         0         0         0         0         0
         0         0         0         0         0         0         0         0
         0         0         0         0         0         0         0         0
         0         0         0         0         0         0         0         0
         0         0         0         0         0         0         0         0
         0         0         0         0         0         0         0         0
         0         0         0         0         0         0         0         0
         0         0         0         0         0         0         0         0
         0         0         0         0         0         0         0         0
         0         0         0         0         0         0         0         0
         0         0         0         0         0         0         0         0
         0         0         0         0         0         0         0         0
         0         0         0         0         0         0         0         0
         0         0         0         0         0         0         0         0
         0         0         0         0         0         0         0         0
         0         0         0         0         0         0         0         0
         0         0         0         0         0         0         0         0
         0         0         0         0         0         0         0         0
         0         0         0         0         0         0         0         0
         0         0         0         0         0         0         0         0
         0         0         0         0         0         0         0         0
         0         0         0         0         0         0         0         0
         0         0         0         0         0         0         0         0
         0         0         0         0         0         0         0         0
         0         0         0         0         0         0         0         0
         0         0         0         0         0         0         0         0
         0         0         0         0         0         0         0         0
         0         0         0         0         0         0         0         0
         0         0         0         0         0         0         0         0
         0         0         0         0         0         0         0         0
         0         0         0         0         0         0         0         0
         0         0         0         0         0         0         0         0
         0         0         0         0         0         0         0         0
         0         0         0         0         0         0         0         0
         0         0         0         0         0         0         0         0
         0         0         0         0         0         0         0         0
         0         0         0         0         0         0         0         0
         0         0         0         0         0         0         0         0
         0         0         0         0         0         0         0         0
         0         0         0         0         0         0         0         0
         0         0         0         0         0         0         0         0
         0         0         0         0         0         0         0         0
         0         0         0         0         0         0         0         0
         0         0         0         0         0         0         0         0
         0         0         0         0         0         0         0         0
         0         0         0         0         0         0         0         0
         0         0         0         0         0         0         0         0
         0         0         0         0         0         0         0         0
         0         0         0         0         0         0         0         0
         0         0         0         0         0         0         0         0
         0         0         0         0         0         0         0         0
         0         0         0         0         0         0         0         0
         0         0         0         0         0         0         0         0
         0         0         0         0         0         0         0         0
         0         0         0         0         0         0         0         0
         0         0         0         0         0         0         0         0
         0         0         0         0         0         0         0         0
         0         0         0         0         0         0         0         0
         0         0         0         0         0         0         0         0
         0         0         0         0         0         0         0         0
         0         0         0         0         0         0         0         0
         0         0         0         0         0         0         0         0
         0         0         0         0         0         0         0         0
         0         0         0         0         0         0         0         0
         0         0         0         0         0         0         0         0
         0         0         0         0         0         0         0         0
         0         0         0         0         0         0         0         0
         0         0         0         0         0         0         0         0
         0         0         0         0         0         0         0         0
         0         0         0         0         0         0         0         0
         0         0         0         0         0         0         0         0
         0         0         0         0         0         0         0         0
         0         0         0         0         0         0         0         0
         0         0         0         0         0         0         0         0
         0         0         0         0         0         0         0         0
         0         0         0         0         0         0         0         0
         0         0         0         0         0         0         0         0
         0         0         0         0         0         0         0         0
         0         0         0         0         0         0         0         0
         0         0         0         0         0         0         0         0
         0         0         0         0         0         0         0         0
         0         0         0         0         0         0         0         0
         0         0         0         0         0         0         0         0
         0         0         0         0         0         0         0         0
         0         0         0         0         0         0         0         0
         0         0         0         0         0         0         0         0
         0         0         0         0         0         0         0         0
         0         0         0         0         0         0         0         0
         0         0         0         0         0         0         0         0
         0         0         0         0         0         0         0         0
         0         0         0         0         0         0         0         0
         0         0         0         0         0         0         0         0
         0         0         0         0         0         0         0         0
         0         0         0         0         0         0         0         0
         0         0         0         0         0         0         0         0
         0         0         0         0         0         0         0         0
         0         0         0         0         0         0         0         0
         0         0         0         0         0         0         0         0
         0         0         0         0         0         0         0         0
         0         0         0         0         0         0         0         0
         0         0         0         0         0         0         0         0
         0         0         0         0         0         0         0         0
         0         0         0         0         0         0         0         0
         0         0         0         0         0         0         0         0
         0         0         0         0         0         0         0         0
         0         0         0         0         0         0         0         0
         0         0         0         0         0         0         0         0
         0         0         0         0         0         0         0         0
         0         0         0         0         0         0         0         0
         0         0         0         0         0         0         0         0
         0         0         0         0         0         0         0         0
         0         0         0         0         0         0         0         0
         0         0         0         0         0         0         0         0
         0         0         0         0         0         0         0         0
         0         0         0         0         0         0         0         0
         0         0         0         0         0         0         0         0
         0         0         0         0         0         0         0         0
         0         0         0         0         0         0         0         0
         0         0         0         0         0         0         0         0
         0         0         0         0         0         0         0         0
         0         0         0         0         0         0         0         0
         0         0         0         0         0         0         0         0
         0         0         0         0         0         0         0         0
         0         0         0         0         0         0         0         0
         0         0         0         0         0         0         0         0
         0         0         0         0         0         0         0         0
         0         0         0         0         0         0         0         0
         0         0         0         0         0         0         0         0
         0         0         0         0         0         0         0         0
         0         0         0         0         0         0         0         0
         0         0         0         0         0         0         0         0
         0         0         0         0         0         0         0         0
         0         0         0         0         0         0         0         0
         0         0         0         0         0         0         0         0
         0         0         0         0         0         0         0         0
         0         0         0         0         0         0         0         0
         0         0         0         0         0         0         0         0
         0         0         0         0         0         0         0         0
         0         0         0         0         0         0         0         0
         0         0         0         0         0         0         0         0
         0         0         0         0         0         0         0         0
         0         0         0         0         0         0         0         0
         0         0         0         0         0         0         0         0
         0         0         0         0         0         0         0         0
         0         0         0         0         0         0         0         0
         0         0         0         0         0         0         0         0
         0         0         0         0         0         0         0         0
         0         0         0         0         0         0         0         0
         0         0         0         0         0         0         0         0
         0         0         0         0         0         0         0         0
         0         0         0         0         0         0         0         0
         0         0         0         0         0         0         0         0
         0         0         0         0         0         0         0         0
         0         0         0         0         0         0         0         0
         0         0         0         0         0         0         0         0
         0         0         0         0         0         0         0         0
         0         0         0         0         0         0         0         0
         0         0         0         0         0         0         0         0
         0         0         0         0         0         0         0         0
         0         0         0         0         0         0         0         0
         0         0         0         0         0         0         0         0
         0         0         0         0         0         0         0         0
         0         0         0         0         0         0         0         0
         0         0         0         0         0         0         0         0
         0         0         0         0         0         0         0         0
         0         0         0         0         0         0         0         0
         0         0         0         0         0         0         0         0
         0         0         0         0         0         0         0         0
         0         0         0         0         0         0         0         0
         0         0         0         0         0         0         0         0
         0         0         0         0         0         0         0         0
         0         0         0         0         0         0         0         0
         0         0         0         0         0         0         0         0
         0         0         0         0         0         0         0         0
         0         0         0         0         0         0         0         0
         0         0         0         0         0         0         0         0
         0         0         0         0         0         0         0         0
         0         0         0         0         0         0         0         0
         0         0         0         0         0         0         0         0
         0         0         0         0         0         0         0         0
         0         0         0         0         0         0         0         0
         0         0         0         0         0         0         0         0
         0         0         0         0         0         0         0         0
         0         0         0         0         0         0         0         0
         0         0         0         0         0         0         0         0
         0         0         0         0         0         0         0         0
         0         0         0         0         0         0         0         0
         0         0         0         0         0         0         0         0
         0         0         0         0         0         0         0         0
         0         0         0         0         0         0         0         0
         0         0         0         0         0         0         0         0
         0         0         0         0         0         0         0         0
         0         0         0         0         0         0         0         0
         0         0         0         0         0         0         0         0
         0         0         0         0         0         0         0         0
         0         0         0         0         0         0         0         0
         0         0         0         0         0         0         0         0
         0         0         0         0         0         0         0         0
         0         0         0         0         0         0         0         0
         0         0         0         0         0         0         0         0
         0         0         0         0         0         0         0         0
         0         0         0         0         0         0         0         0
         0         0         0         0         0         0         0         0
         0         0         0         0         0         0         0         0
         0         0         0         0         0         0         0         0
         0         0         0         0         0         0         0         0
         0         0         0         0         0         0         0         0
         0         0         0         0         0         0         0         0
         0         0         0         0         0         0         0         0
         0         0         0         0         0         0         0         0
         0         0         0         0         0         0         0         0
         0         0         0         0         0         0         0         0
         0         0         0         0         0         0         0         0
         0         0         0         0         0         0         0         0
         0         0         0         0         0         0         0         0
         0         0         0         0         0         0         0         0
         0         0         0         0         0         0         0         0
         0         0         0         0         0         0         0         0
         0         0         0         0         0         0         0         0
         0         0         0         0         0         0         0         0
         0         0         0         0         0         0         0         0
         0         0         0         0         0         0         0         0
         0         0         0         0         0         0         0         0
         0         0         0         0         0         0         0         0
         0         0         0         0         0         0         0         0
         0         0         0         0         0         0         0         0
         0         0         0         0         0         0         0         0
         0         0         0         0         0         0         0         0
         0         0         0         0         0         0         0         0
         0         0         0         0         0         0         0         0
         0         0         0         0         0         0         0         0
         0         0         0         0         0         0         0         0
         0         0         0         0         0         0         0         0
         0         0         0         0         0         0         0         0
         0         0         0         0         0         0         0         0
         0         0         0         0         0         0         0         0
         0         0         0         0         0         0         0         0
         0         0         0         0         0         0         0         0
         0         0         0         0         0         0         0         0
         0         0         0         0         0         0         0         0
         0         0         0         0         0         0         0         0
         0         0         0         0         0         0         0         0
         0         0         0         0         0         0         0         0
         0         0         0         0         0         0         0         0
         0         0         0         0         0         0         0         0
         0         0         0         0         0         0         0         0
         0         0         0         0         0         0         0         0
         0         0         0         0         0         0         0         0
         0         0         0         0         0         0         0         0
         0         0         0         0         0         0         0         0
         0         0         0         0         0         0         0         0
         0         0         0         0         0         0         0         0
         0         0         0         0         0         0         0         0
         0         0         0         0         0         0         0         0
         0         0         0         0         0         0         0         0
         0         0         0         0         0         0         0         0
         0         0         0         0         0         0         0         0
         0         0         0         0         0         0         0         0
         0         0         0         0         0         0         0         0
         0         0         0         0         0         0         0         0
         0         0         0         0         0         0         0         0
         0         0         0         0         0         0         0         0
         0         0         0         0         0         0         0         0
         0         0         0         0         0         0         0         0
         0         0         0         0         0         0         0         0
         0         0         0         0         0         0         0         0
         0         0         0         0         0         0         0         0
         0         0         0         0         0         0         0         0
         0         0         0         0         0         0         0         0
         0         0         0         0         0         0         0         0
         0         0         0         0         0         0         0         0
         0         0         0         0         0         0         0         0
         0         0         0         0         0         0         0         0
         0         0         0         0         0         0         0         0
         0         0         0         0         0         0         0         0
         0         0         0         0         0         0         0         0
         0         0         0         0         0         0         0         0
         0         0         0         0         0         0         0         0
         0         0         0         0         0         0         0         0
         0         0         0         0         0         0         0         0
         0         0         0         0         0         0         0         0
         0         0         0         0         0         0         0         0
         0         0         0         0         0         0         0         0
         0         0         0         0         0         0         0         0
         0         0         0         0         0         0         0         0
         0         0         0         0         0         0         0         0
         0         0         0         0         0         0         0         0
         0         0         0         0         0         0         0         0
         0         0         0         0         0         0         0         0
         0         0         0         0         0         0         0         0
         0         0         0         0         0         0         0         0
         0         0         0         0         0         0         0         0
         0         0         0         0         0         0         0         0
         0         0         0         0         0         0         0         0
         0         0         0         0         0         0         0         0
         0         0         0         0         0         0         0         0
         0         0         0         0         0         0         0         0
         0         0         0         0         0         0         0         0
         0         0         0         0         0         0         0         0
         0         0         0         0         0         0         0         0
         0         0         0         0         0         0         0         0
         0         0         0         0         0         0         0         0
         0         0         0         0         0         0         0         0
         0         0         0         0         0         0         0         0
         0         0         0         0         0         0         0         0
         0         0         0         0         0         0         0         0
         0         0         0         0         0         0         0         0
         0         0         0         0         0         0         0         0
         0         0         0         0         0         0         0         0
         0         0         0         0         0         0         0         0
         0         0         0         0         0         0         0         0
         0         0         0         0         0         0         0         0
         0         0         0         0         0         0         0         0
         0         0         0         0         0         0         0         0
         0         0         0         0         0         0         0         0
         0         0         0         0         0         0         0         0
         0         0         0         0         0         0         0         0
         0         0         0         0         0         0         0         0
         0         0         0         0         0         0         0         0
         0         0         0         0         0         0         0         0
         0         0         0         0         0         0         0         0
         0         0         0         0         0         0         0         0
         0         0         0         0         0         0         0         0
         0         0         0         0         0         0         0         0
         0         0         0         0         0         0         0         0
         0         0         0         0         0         0         0         0
         0         0         0         0         0         0         0         0
         0         0         0         0         0         0         0         0
         0         0         0         0         0         0         0         0
         0         0         0         0         0         0         0         0
         0         0         0         0         0         0         0         0
         0         0         0         0         0         0         0         0
         0         0         0         0         0         0         0         0
         0         0         0         0         0         0         0         0
         0         0         0         0         0         0         0         0
         0         0         0         0         0         0         0         0
         0         0         0         0         0         0         0         0
         0         0         0         0         0         0         0         0
         0         0         0         0         0         0         0         0
         0         0         0         0         0         0         0         0
         0         0         0         0         0         0         0         0
         0         0         0         0         0         0         0         0
         0         0         0         0         0         0         0         0
         0         0         0         0         0         0         0         0
         0         0         0         0         0         0         0         0
         0         0         0         0         0         0         0         0
         0         0         0         0         0         0         0         0
         0         0         0         0         0         0         0         0
         0         0         0         0         0         0         0         0
         0         0         0         0         0         0         0         0
         0         0         0         0         0         0         0         0
         0         0         0         0         0         0         0         0
         0         0         0         0         0         0         0         0
         0         0         0         0         0         0         0         0
         0         0         0         0         0         0         0         0
         0         0         0         0         0         0         0         0
         0         0         0         0         0         0         0         0
         0         0         0         0         0         0         0         0
         0         0         0         0         0         0         0         0
         0         0         0         0         0         0         0         0
         0         0         0         0         0         0         0         0
         0         0         0         0         0         0

       1       0 !NGRP
         0         0         0

